Written by MDAnalysis
64905
    1CHTO  H203    1   5.363   6.871   5.662  0.3892 -0.2204 -0.5346
    1CHTO   O82    2   5.416   6.794   5.661  0.4601 -0.1810  0.2161
    1CHTO  C123    3   5.516   6.794   5.562  0.4958 -0.6517 -0.3323
    1CHTO  H227    4   5.614   6.797   5.611  0.4924 -0.8461 -0.3139
    1CHTO   O77    5   5.503   6.664   5.491  0.1054  0.3974 -0.5958
    1CHTO  C118    6   5.621   6.625   5.416 -0.9510 -0.0669  0.7365
    1CHTO  H222    7   5.701   6.645   5.488  0.9500  1.1800 -1.6388
    1CHTO  C125    8   5.629   6.469   5.385  0.2526  0.0074  0.1738
    1CHTO   O84    9   5.504   6.435   5.319 -0.1280  0.4004  0.3134
    1CHTO  H205   10   5.501   6.342   5.314  1.3299  0.4041 -0.8736
    1CHTO  C114   11   5.646   6.729   5.300 -0.6131  0.3248  0.1807
    1CHTO  H218   12   5.565   6.717   5.227  2.0532 -0.8185 -2.6837
    1CHTO  C116   13   5.637   6.882   5.349  0.3967  0.0395 -0.1084
    1CHTO  H220   14   5.730   6.919   5.398 -0.9743  1.1847  1.6848
    1CHTO   O79   15   5.623   6.962   5.234  0.0339  0.0605 -0.2972
    1CHTO  H201   16   5.667   6.917   5.164  0.3960 -0.5029  0.2836
    1CHTO  C120   17   5.516   6.909   5.454  0.1432  0.3850  1.5295
    1CHTO  H224   18   5.425   6.904   5.390  3.2540 -1.9358 -3.0374
    1CHTO   N21   19   5.530   7.041   5.525 -0.0644  0.2068 -0.7830
    1CHTO  H211   20   5.482   7.032   5.621  0.4024  0.9921 -0.4679
    1CHTO  H212   21   5.635   7.057   5.548 -0.0290  1.7181 -1.8869
    1CHTO   O75   22   5.768   6.691   5.241 -0.3166  0.3289 -1.2063
    1CHTO  C112   23   5.759   6.654   5.077  0.5694 -0.1863 -0.5790
    1CHTO  H216   24   5.679   6.715   5.033  1.0481  0.0262 -1.1482
    1CHTO   O73   25   5.732   6.517   5.063 -0.0410 -0.0305 -0.0968
    1CHTO  C113   26   5.710   6.485   4.924 -0.7533  0.3378 -0.2856
    1CHTO  H217   27   5.634   6.551   4.877 -1.1088 -0.1217 -0.3611
    1CHTO  C124   28   5.656   6.343   4.923  0.8031  0.1719  0.6255
    1CHTO   O83   29   5.583   6.326   4.799  0.0854 -0.2897 -0.2501
    1CHTO  H204   30   5.555   6.237   4.804  0.4958 -0.3396  1.5262
    1CHTO  C109   31   5.848   6.493   4.845 -0.4512  0.1347  1.0396
    1CHTO  H213   32   5.917   6.418   4.886  0.2152 -0.5331 -1.2156
    1CHTO  C110   33   5.901   6.638   4.862  0.1473 -0.0271  0.0555
    1CHTO  H214   34   5.839   6.700   4.798 -0.3711  0.6816  1.2328
    1CHTO   O78   35   6.034   6.640   4.810  0.3278 -0.0599 -0.3868
    1CHTO  H200   36   6.054   6.724   4.774 -0.9068  0.0034 -0.9633
    1CHTO  C111   37   5.900   6.693   5.013 -0.1798  0.4875  0.0614
    1CHTO  H215   38   5.978   6.642   5.072  1.3265  0.5393 -1.8181
    1CHTO   N19   39   5.928   6.835   5.016 -0.6968  0.2645  0.3698
    1CHTO  H207   40   6.000   6.870   4.944 -1.5586  3.3079  0.9161
    1CHTO  H208   41   5.965   6.874   5.109  0.0780  1.1237 -0.2878
    1CHTO   O74   42   5.830   6.465   4.701 -0.2593 -0.4844 -0.0202
    1CHTO  C115   43   5.854   6.299   4.646 -0.1081  0.7142  0.1633
    1CHTO  H219   44   5.871   6.229   4.727 -1.9363 -0.3642 -0.3470
    1CHTO   O76   45   5.721   6.241   4.559  0.3055  0.2286  0.0647
    1CHTO  C122   46   5.725   6.286   4.421 -0.2313 -0.0803  0.6878
    1CHTO  H226   47   5.741   6.394   4.421  2.9164 -0.4722 -1.3013
    1CHTO  C126   48   5.585   6.254   4.348  0.1738  0.2628  0.3109
    1CHTO   O85   49   5.543   6.330   4.229 -0.3792 -0.3650  0.0769
    1CHTO  H206   50   5.511   6.412   4.259 -0.0581 -0.7621  1.5326
    1CHTO  C121   51   5.846   6.226   4.336  0.4169 -0.1260  0.3609
    1CHTO  H225   52   5.827   6.131   4.282 -0.0828 -0.6531  1.4386
    1CHTO   O81   53   5.879   6.315   4.235  0.0524  0.4135  0.2429
    1CHTO  H202   54   5.806   6.344   4.184 -0.0155  0.1988  0.2170
    1CHTO  C119   55   5.967   6.212   4.433  0.0730 -0.3047 -0.4820
    1CHTO  H223   56   5.957   6.116   4.485 -1.1101 -0.4468 -0.9416
    1CHTO  C117   57   5.981   6.312   4.549  0.7493  0.3510  0.4056
    1CHTO  H221   58   5.981   6.415   4.512  0.4397  0.2153  0.0286
    1CHTO   N20   59   6.112   6.305   4.631  0.2084 -1.0492  0.0757
    1CHTO  H209   60   6.120   6.392   4.694  1.3070 -1.7361  0.9046
    1CHTO  H210   61   6.191   6.285   4.559 -0.6009 -0.1331 -1.0744
    1CHTO   O80   62   6.088   6.191   4.355  0.1460  0.6479  0.3325
    1CHTO  C103   63   6.135   6.032   4.335  0.0092  0.0734 -0.1439
    1CHTO  H190   64   6.165   5.987   4.429 -0.8950 -0.7166 -0.2268
    1CHTO  C101   65   6.033   5.932   4.269 -0.2690 -0.1658  0.1935
    1CHTO  H188   66   5.990   5.967   4.176  1.0112 -0.1001 -0.3926
    1CHTO   O68   67   5.926   5.906   4.378  0.1349  0.6197  0.0482
    1CHTO  H168   68   5.889   5.821   4.369 -0.9435  1.2289 -1.4650
    1CHTO   C99   69   6.114   5.801   4.230  0.4624 -0.4738  0.1149
    1CHTO  H186   70   6.156   5.745   4.316 -0.7146  0.4528  1.3400
    1CHTO   N17   71   6.032   5.696   4.165  0.7421 -0.1915 -0.0011
    1CHTO  H174   72   6.002   5.710   4.063 -1.8412  0.2009  0.7727
    1CHTO  H175   73   5.954   5.667   4.234  0.2865  0.5945 -0.1822
    1CHTO   C97   74   6.244   5.841   4.143  0.5312  0.5422 -0.6847
    1CHTO  H184   75   6.202   5.880   4.049 -1.9413 -0.9472 -0.2440
    1CHTO   O64   76   6.325   5.936   4.209 -0.1870  0.3268 -0.1119
    1CHTO  C104   77   6.261   6.063   4.253  0.3791 -0.0917  0.2457
    1CHTO  H191   78   6.236   6.119   4.163  0.3086 -1.4127 -0.5785
    1CHTO  C108   79   6.352   6.138   4.341 -0.0946 -0.0164 -0.7761
    1CHTO   O71   80   6.473   6.182   4.273 -0.1366 -0.0679 -0.3917
    1CHTO  H171   81   6.468   6.187   4.180  1.0370 -0.5060 -0.4824
    1CHTO   O62   82   6.335   5.726   4.120  0.0704  0.2824  0.6051
    1CHTO   C91   83   6.431   5.748   4.009 -0.0698  0.3856 -0.0789
    1CHTO  H178   84   6.444   5.856   3.997 -2.2910  0.6393 -0.3693
    1CHTO   C92   85   6.389   5.698   3.868 -0.1230 -0.0234 -0.1872
    1CHTO  H179   86   6.286   5.735   3.855  0.4269  2.0580  1.1667
    1CHTO   O66   87   6.464   5.760   3.761  0.5508  0.1808 -0.1859
    1CHTO  H166   88   6.441   5.851   3.769  0.5422  0.0409  1.5710
    1CHTO   C93   89   6.414   5.545   3.847  0.2673  0.1660 -0.6998
    1CHTO  H180   90   6.410   5.529   3.738 -0.8896 -0.6039 -0.5519
    1CHTO   N16   91   6.325   5.444   3.912  0.3625 -0.1133  1.1451
    1CHTO  H172   92   6.344   5.347   3.869  1.1796  0.6255 -0.2011
    1CHTO  H173   93   6.221   5.472   3.900 -0.7565 -4.5452 -0.8104
    1CHTO   C94   94   6.565   5.514   3.889  0.6850  0.4063  0.0251
    1CHTO  H181   95   6.570   5.435   3.964 -3.0378  0.0238 -0.0045
    1CHTO   O61   96   6.641   5.627   3.937  0.3068  0.1168 -0.0145
    1CHTO   C95   97   6.582   5.699   4.044 -0.0205  0.5153  0.1072
    1CHTO  H182   98   6.587   5.632   4.129  1.3581 -2.6746 -2.3857
    1CHTO  C106   99   6.681   5.819   4.085  0.3457 -0.1225 -0.1038
    1CHTO   O69  100   6.818   5.767   4.090 -0.6558  0.5360 -0.2822
    1CHTO  H169  101   6.875   5.837   4.117  0.2271 -0.7775  1.2821
    1CHTO   O63  102   6.639   5.466   3.747 -0.2217  0.1079  0.1408
    1CHTO   C96  103   6.741   5.357   3.782  0.2417  0.3979  0.4756
    1CHTO  H183  104   6.697   5.283   3.849 -0.1472  0.7199  0.5758
    1CHTO   C98  105   6.878   5.425   3.834  0.4713  0.3249 -0.5598
    1CHTO  H185  106   6.848   5.515   3.889 -1.0535 -0.5001 -0.0271
    1CHTO   O67  107   6.939   5.345   3.935 -0.2158  0.7067  0.3971
    1CHTO  H167  108   6.869   5.317   3.990 -0.7012 -2.1063 -1.5061
    1CHTO  C102  109   6.986   5.451   3.720  0.1215 -0.2837  0.2284
    1CHTO  H189  110   7.075   5.483   3.776  1.1977 -2.9795  0.1822
    1CHTO   N18  111   6.952   5.561   3.628  0.2634  0.0249 -0.0200
    1CHTO  H176  112   6.872   5.541   3.559  1.9736 -2.2315 -1.4208
    1CHTO  H177  113   6.928   5.647   3.689 -1.4206  0.6581 -1.5407
    1CHTO  C105  114   7.019   5.319   3.640 -0.1538  0.8899 -0.2627
    1CHTO  H192  115   7.048   5.346   3.539  0.0620 -0.3567 -0.5442
    1CHTO   O65  116   6.910   5.221   3.641  0.1121 -0.2119  0.3366
    1CHTO  C100  117   6.775   5.271   3.650  0.2924  1.4503 -1.1903
    1CHTO  H187  118   6.759   5.340   3.566  1.8781  1.9817 -1.0819
    1CHTO  C107  119   6.681   5.160   3.625  0.6802  0.0556  0.2958
    1CHTO   O70  120   6.540   5.208   3.626  0.3034  0.2205 -0.1847
    1CHTO  H170  121   6.528   5.229   3.716  0.6256  1.0829 -0.3416
    1CHTO   O57  122   7.133   5.267   3.709  0.3023 -0.4376 -0.2898
    1CHTO   C85  123   7.261   5.243   3.655  0.4636 -0.4223  0.3185
    1CHTO  H157  124   7.240   5.185   3.563 -0.4066  0.1510  0.1550
    1CHTO   C83  125   7.343   5.148   3.749  0.7904 -0.0173 -0.9964
    1CHTO  H155  126   7.280   5.059   3.759  0.6729  0.2862  1.2287
    1CHTO   O56  127   7.338   5.205   3.881 -0.2199  0.2225  0.9257
    1CHTO  H135  128   7.387   5.144   3.933 -1.4602 -1.2431  0.3687
    1CHTO   C81  129   7.478   5.108   3.684  0.4486  0.1009 -0.4791
    1CHTO  H153  130   7.450   5.073   3.585 -0.7996  2.0026 -0.8334
    1CHTO   N14  131   7.548   4.995   3.753  0.0066 -0.0787 -0.4505
    1CHTO  H141  132   7.564   5.021   3.855  0.3984  0.9132 -0.7553
    1CHTO  H142  133   7.643   4.998   3.703 -0.3415  0.1867 -1.1091
    1CHTO   C79  134   7.565   5.240   3.674 -0.1180 -0.7595 -0.4685
    1CHTO  H151  135   7.663   5.210   3.637  0.0300 -1.5086  0.5150
    1CHTO   O52  136   7.496   5.337   3.584 -0.5625  0.3218 -0.0753
    1CHTO   C86  137   7.361   5.362   3.625 -0.7841 -0.5660  0.2904
    1CHTO  H158  138   7.371   5.431   3.712  0.0686 -0.5838  0.2083
    1CHTO   C90  139   7.302   5.450   3.509  0.0768  0.3740 -0.4795
    1CHTO   O60  140   7.317   5.385   3.382 -0.3409  0.4980 -0.0590
    1CHTO  H138  141   7.406   5.396   3.353 -0.3612 -1.8192 -1.1123
    1CHTO   O50  142   7.588   5.304   3.804  0.1798 -0.0645 -0.2257
    1CHTO   C73  143   7.699   5.367   3.869  0.3126 -0.0828 -0.1812
    1CHTO  H145  144   7.775   5.387   3.792 -2.0088 -3.5767 -3.6379
    1CHTO   C74  145   7.754   5.280   3.986  0.6682 -0.0139  0.4090
    1CHTO  H146  146   7.796   5.184   3.950  0.8041  0.0211  0.4764
    1CHTO   O54  147   7.874   5.344   4.039  0.2695  0.1877 -0.1400
    1CHTO  H133  148   7.859   5.381   4.124  0.3956 -1.9635  0.8399
    1CHTO   C75  149   7.632   5.254   4.094 -0.5503  0.1614  0.1838
    1CHTO  H147  150   7.563   5.184   4.046  0.9149 -0.9268 -0.3687
    1CHTO   N13  151   7.679   5.185   4.218  0.1215  0.4100 -0.2026
    1CHTO  H139  152   7.650   5.251   4.298 -2.0803  0.3466 -0.9193
    1CHTO  H140  153   7.787   5.174   4.218  0.3413  2.2778 -2.1433
    1CHTO   C76  154   7.565   5.391   4.124  0.4929  0.1425 -0.4461
    1CHTO  H148  155   7.627   5.450   4.192 -0.4458  1.7111 -0.9179
    1CHTO   O49  156   7.533   5.486   4.018 -0.2476 -0.1464 -0.0579
    1CHTO   C77  157   7.645   5.503   3.922  0.7475 -0.0365  0.1856
    1CHTO  H149  158   7.724   5.555   3.976  1.4511 -1.4235  0.4975
    1CHTO   C88  159   7.591   5.588   3.804  0.6057  0.1406 -0.4740
    1CHTO   O58  160   7.489   5.699   3.854  0.4602 -0.3056 -0.4640
    1CHTO  H136  161   7.467   5.759   3.785 -2.7076 -1.3271 -0.4210
    1CHTO   O51  162   7.417   5.356   4.190  0.2459 -0.1807  0.0914
    1CHTO   C78  163   7.371   5.476   4.284  0.1851  0.4456 -0.7891
    1CHTO  H150  164   7.431   5.568   4.269  2.0793 -0.6206  0.0733
    1CHTO   C80  165   7.372   5.446   4.438  0.1330 -0.0238  0.1070
    1CHTO  H152  166   7.317   5.351   4.452  0.8395 -0.6832 -1.4765
    1CHTO   O55  167   7.506   5.414   4.463 -0.0167 -0.0809 -0.0430
    1CHTO  H134  168   7.530   5.343   4.408  0.9682 -0.1019  0.3872
    1CHTO   C84  169   7.319   5.570   4.526 -0.2458 -0.0272 -0.2931
    1CHTO  H156  170   7.387   5.653   4.509  2.0167 -1.3772  1.9768
    1CHTO   N15  171   7.327   5.563   4.675  0.5819 -0.1646  0.1927
    1CHTO  H143  172   7.380   5.472   4.694  1.7198  0.3289 -0.5303
    1CHTO  H144  173   7.378   5.644   4.722 -1.9017  2.4280 -1.3589
    1CHTO   C87  174   7.176   5.614   4.477  0.7353  0.7748  0.1496
    1CHTO  H159  175   7.093   5.548   4.504  0.2469  0.7104 -1.4732
    1CHTO   O53  176   7.179   5.634   4.324  0.4251  0.2709  0.1976
    1CHTO   C82  177   7.230   5.524   4.251 -0.1511  0.7366  0.2672
    1CHTO  H154  178   7.158   5.444   4.265  1.3920 -1.1195 -1.8664
    1CHTO   C89  179   7.221   5.567   4.099 -0.5342 -0.6137 -1.0017
    1CHTO   O59  180   7.091   5.593   4.047  0.4915  0.2977 -0.3058
    1CHTO  H137  181   7.077   5.529   3.980 -0.7970  0.9482 -0.6756
    1CHTO   O45  182   7.149   5.748   4.537 -0.3888  0.1769  0.0589
    1CHTO   C67  183   7.041   5.825   4.489 -0.5368  0.4775  0.3469
    1CHTO  H124  184   6.962   5.761   4.450  0.1394 -0.3362  0.3043
    1CHTO   C65  185   6.988   5.896   4.615 -0.0942 -0.0747 -0.0880
    1CHTO  H122  186   6.975   5.815   4.687  1.7352  0.4056  0.8238
    1CHTO   O44  187   6.865   5.959   4.595 -0.1732 -0.9683  0.0888
    1CHTO  H102  188   6.881   6.041   4.552 -0.1700 -0.1288  1.6564
    1CHTO   C63  189   7.091   5.998   4.671 -0.2014 -0.0041 -0.7853
    1CHTO  H120  190   7.190   5.953   4.677  0.2810  1.2061  0.7236
    1CHTO   N11  191   7.075   6.044   4.811 -0.0035  0.1680 -0.4622
    1CHTO  H108  192   7.093   5.974   4.890  2.8376  0.9911 -0.3066
    1CHTO  H109  193   6.972   6.069   4.824 -0.0134  0.4768 -1.0923
    1CHTO   C61  194   7.112   6.111   4.556  0.9603 -0.0027 -0.3654
    1CHTO  H118  195   7.196   6.178   4.581  0.8215  0.3827 -0.9261
    1CHTO   O40  196   7.145   6.047   4.424 -0.2358 -0.4242 -0.2960
    1CHTO   C68  197   7.077   5.927   4.379  0.7644  0.0461 -0.6924
    1CHTO  H125  198   7.158   5.878   4.321 -0.3076 -0.9593 -1.3531
    1CHTO   C72  199   6.968   5.960   4.284  0.4933 -0.2798  0.0445
    1CHTO   O48  200   7.034   6.004   4.168 -0.3868 -0.1993  0.0190
    1CHTO  H105  201   6.983   5.978   4.094 -0.5026  0.1818 -0.0389
    1CHTO   O38  202   7.000   6.195   4.535  0.5187 -0.3736 -0.0765
    1CHTO   C55  203   7.025   6.338   4.517 -0.0905  0.6237 -1.0825
    1CHTO  H112  204   7.119   6.364   4.466  0.5190  3.1473  1.2169
    1CHTO   C56  205   7.007   6.411   4.652  0.6959  0.6123 -0.3482
    1CHTO  H113  206   6.921   6.375   4.711  0.3436  2.0595  0.0421
    1CHTO   O42  207   7.122   6.368   4.735  0.4214  0.1657  0.0741
    1CHTO  H100  208   7.106   6.384   4.827 -0.3656 -1.3106  0.2033
    1CHTO   C57  209   6.998   6.577   4.636  0.5136  0.0549  0.8807
    1CHTO  H114  210   7.098   6.613   4.612  0.3986  1.1515  1.9773
    1CHTO   N10  211   6.966   6.641   4.770  0.0244 -0.5019  0.3139
    1CHTO  H106  212   7.003   6.743   4.773  1.1635 -0.9294  0.8076
    1CHTO  H107  213   7.006   6.585   4.853  0.4313 -2.3954 -1.1429
    1CHTO   C58  214   6.895   6.607   4.525 -0.4901 -0.4811  0.3459
    1CHTO  H115  215   6.796   6.565   4.552 -0.7119 -0.6515 -0.7231
    1CHTO   O37  216   6.930   6.534   4.404 -0.7685  0.3482  0.0359
    1CHTO   C59  217   6.926   6.395   4.415 -0.2495  0.4302  0.3610
    1CHTO  H116  218   6.821   6.376   4.434 -0.9209  1.6117 -1.9456
    1CHTO   C70  219   6.959   6.328   4.278  0.9379 -0.2787 -0.2164
    1CHTO   O46  220   6.871   6.366   4.173 -0.5536  0.5647  0.6244
    1CHTO  H103  221   6.876   6.302   4.104  0.9707 -2.3611  3.3008
    1CHTO   O39  222   6.887   6.755   4.486  0.0215  0.0943 -0.4210
    1CHTO   C60  223   6.780   6.786   4.394 -0.2082 -0.3227 -0.2270
    1CHTO  H117  224   6.736   6.699   4.345  0.0142 -0.0801 -0.8594
    1CHTO   C62  225   6.672   6.860   4.477 -0.1632 -0.3905 -0.7462
    1CHTO  H119  226   6.648   6.814   4.575 -0.2285  2.0190  0.4067
    1CHTO   O43  227   6.731   6.977   4.536 -0.0928  0.6203  0.0594
    1CHTO  H101  228   6.711   7.049   4.479  0.0858  0.6216 -0.0012
    1CHTO   C66  229   6.541   6.896   4.382  0.3352 -0.1211  0.1958
    1CHTO  H123  230   6.509   6.801   4.338 -0.9406 -0.1976  1.2504
    1CHTO   N12  231   6.418   6.951   4.442 -0.0397 -0.4221 -0.7366
    1CHTO  H110  232   6.431   6.937   4.549  1.6144 -0.4213 -0.9276
    1CHTO  H111  233   6.330   6.901   4.405  0.1058 -0.7084 -0.6995
    1CHTO   C69  234   6.578   6.969   4.251  0.0614  0.4533  0.0747
    1CHTO  H126  235   6.603   7.075   4.271 -0.6324  0.6916 -0.3306
    1CHTO   O41  236   6.715   6.893   4.176  0.1836 -0.3122  0.3819
    1CHTO   C64  237   6.831   6.888   4.273  0.0760 -0.1589 -0.0075
    1CHTO  H121  238   6.859   6.985   4.319  2.1016 -0.7759  0.1161
    1CHTO   C71  239   6.953   6.842   4.191 -0.0600 -0.3132  0.4503
    1CHTO   O47  240   6.981   6.924   4.084  0.1249  0.7866 -0.5459
    1CHTO  H104  241   7.073   6.939   4.075 -0.2595  2.7398 -1.6771
    1CHTO   O34  242   6.457   6.960   4.154 -0.0542  0.3852 -0.3889
    1CHTO   C49  243   6.467   7.025   4.016  0.1901  0.6290 -0.0901
    1CHTO   H91  244   6.550   7.096   4.009  0.7537 -0.0951 -0.9595
    1CHTO   C47  245   6.334   7.092   3.989  0.0104 -0.3023 -0.1473
    1CHTO   H89  246   6.352   7.157   3.901 -0.3930 -1.0350 -0.7757
    1CHTO   O33  247   6.296   7.183   4.099 -0.1355  0.3288  0.8936
    1CHTO   H70  248   6.360   7.250   4.115  0.0070 -0.6106  4.9897
    1CHTO   C45  249   6.216   6.989   3.961  0.0272  0.1809  0.2111
    1CHTO   H87  250   6.208   6.918   4.044  2.1554 -1.9816 -1.3568
    1CHTO    N8  251   6.080   7.048   3.936  0.2327  0.4646 -0.0977
    1CHTO   H75  252   6.081   7.125   3.860  1.5117  2.7372  2.1655
    1CHTO   H76  253   6.004   6.977   3.905  0.8981 -0.0729 -0.5079
    1CHTO   C43  254   6.257   6.899   3.831 -0.2602 -0.3283 -0.3744
    1CHTO   H85  255   6.181   6.821   3.829  0.8863 -1.5884  2.5560
    1CHTO   O29  256   6.385   6.842   3.866  0.0043  0.0998 -0.6268
    1CHTO   C50  257   6.498   6.916   3.905  0.2552 -0.2213 -0.5333
    1CHTO   H92  258   6.566   6.845   3.954  1.8234  2.0499  0.6653
    1CHTO   C54  259   6.568   6.979   3.781 -0.4786  0.3776  0.0537
    1CHTO   O36  260   6.708   7.023   3.799  0.2814  0.4808  0.0974
    1CHTO   H72  261   6.700   7.089   3.865  1.4761  1.0774 -0.3325
    1CHTO   O27  262   6.250   6.976   3.709  0.3126 -0.2610  0.3933
    1CHTO   C37  263   6.193   6.938   3.583  0.3212 -0.1577  0.5706
    1CHTO   H79  264   6.188   6.829   3.586 -1.1813 -0.0601  2.6498
    1CHTO   C38  265   6.049   6.984   3.548  0.3501 -0.1981  0.4776
    1CHTO   H80  266   6.049   7.094   3.552 -0.4222 -0.2281  1.4660
    1CHTO   O31  267   5.951   6.929   3.640  0.3295  0.3544  0.0350
    1CHTO   H68  268   5.890   6.992   3.674 -2.0936 -2.3081  0.7517
    1CHTO   C39  269   6.010   6.932   3.402  0.4137  0.2145 -0.5830
    1CHTO   H81  270   6.007   6.824   3.394  1.5571  0.2986 -2.3687
    1CHTO    N7  271   5.875   6.978   3.353  0.0329 -0.6598 -0.2799
    1CHTO   H73  272   5.801   6.930   3.414  0.7131  0.7726  1.7445
    1CHTO   H74  273   5.858   6.960   3.248 -1.3712 -0.4306 -0.1020
    1CHTO   C40  274   6.109   6.972   3.293 -0.0183  0.3449 -0.1788
    1CHTO   H82  275   6.099   7.077   3.268 -2.1179 -0.4206 -2.8523
    1CHTO   O26  276   6.236   6.937   3.339 -0.4022 -0.1702  0.0138
    1CHTO   C41  277   6.284   6.987   3.460 -0.8387 -0.3386  0.9599
    1CHTO   H83  278   6.286   7.097   3.454  0.5211 -0.2476  2.5537
    1CHTO   C52  279   6.439   6.939   3.459  0.3442 -0.1906  0.7555
    1CHTO   O35  280   6.514   7.017   3.365  0.3457  0.0389 -0.0866
    1CHTO   H71  281   6.606   7.010   3.381  0.6913  3.7627  0.0682
    1CHTO   O28  282   6.093   6.890   3.173 -0.1660 -0.4576 -0.2020
    1CHTO   C42  283   6.170   6.917   3.051 -0.3575  1.1449 -1.1571
    1CHTO   H84  284   6.165   6.819   3.004  2.1809 -0.5867  2.0296
    1CHTO   C44  285   6.324   6.955   3.057  0.3494 -0.2065 -0.6407
    1CHTO   H86  286   6.334   7.029   3.137  1.8307 -0.4335 -0.6078
    1CHTO   O32  287   6.395   6.836   3.103 -0.0000  0.8416 -0.2731
    1CHTO   H69  288   6.342   6.795   3.169  1.0120  0.5863  0.3983
    1CHTO   C48  289   6.381   7.004   2.923  0.9591 -0.0235 -0.1826
    1CHTO   H90  290   6.401   6.910   2.871  2.3969 -0.7558  1.6718
    1CHTO    N9  291   6.514   7.068   2.942 -0.0300  0.0548  0.4092
    1CHTO   H77  292   6.552   7.104   2.847 -0.3487 -1.5982 -0.3806
    1CHTO   H78  293   6.587   7.004   2.991  1.0658 -0.1763 -1.4577
    1CHTO   C51  294   6.289   7.105   2.844  0.8486 -0.3051  0.7735
    1CHTO   H93  295   6.277   7.198   2.900  1.9955 -1.2624  2.6531
    1CHTO   O30  296   6.170   7.043   2.822 -0.0066  0.2069  0.1997
    1CHTO   C46  297   6.096   7.017   2.967  0.5443 -0.3085 -0.6570
    1CHTO   H88  298   6.094   7.112   3.020  2.3416 -1.8051  2.2403
    1CHTO   C53  299   5.947   6.976   2.938  0.2254  0.0130 -0.1707
    1CHTO   O72  300   5.874   7.086   2.883  0.7181 -0.4929 -0.4203
    1CHTO  H199  301   5.783   7.077   2.904  1.3488 -0.3503  2.4952
    1CHTO   O22  302   6.342   7.148   2.714  0.1040  0.2389  1.1317
    1CHTO   C31  303   6.263   7.242   2.639  0.5019 -0.6910  0.6602
    1CHTO   H59  304   6.160   7.226   2.676  0.9214  1.4753  2.9363
    1CHTO   C29  305   6.296   7.390   2.667 -0.5897 -0.6137 -0.4015
    1CHTO   H57  306   6.396   7.406   2.624 -0.6023 -1.2515 -0.6843
    1CHTO   O21  307   6.303   7.403   2.809  0.0502  0.3568 -0.4962
    1CHTO   H37  308   6.217   7.408   2.846 -0.0529 -1.5559 -0.4083
    1CHTO   C27  309   6.203   7.491   2.594  0.4894 -0.2554 -0.9403
    1CHTO   H55  310   6.099   7.470   2.622  0.4546 -0.3023 -1.1076
    1CHTO    N5  311   6.239   7.636   2.610  0.7624  0.2565 -0.0274
    1CHTO   H43  312   6.186   7.695   2.537  0.8627  1.2435  0.6842
    1CHTO   H44  313   6.208   7.668   2.708 -1.1654 -1.9453  0.1416
    1CHTO   C25  314   6.223   7.446   2.446 -0.1094  0.1424  0.3353
    1CHTO   H53  315   6.326   7.450   2.406  0.1401  0.0169  0.9629
    1CHTO   O17  316   6.182   7.311   2.413  0.5463  0.2660 -0.0574
    1CHTO   C32  317   6.258   7.215   2.489  0.4664 -0.1678  0.5402
    1CHTO   H60  318   6.360   7.222   2.450 -0.6927 -0.5316 -2.6402
    1CHTO   C36  319   6.218   7.069   2.457  0.4448  0.7746  0.5275
    1CHTO   O25  320   6.077   7.041   2.461 -0.4891  0.5001  0.7077
    1CHTO   H40  321   6.032   7.097   2.400 -1.7745  0.3191  1.4758
    1CHTO   O15  322   6.141   7.542   2.340  0.0479  0.0378 -0.2328
    1CHTO   C19  323   6.191   7.558   2.201  0.1126  0.4737 -0.1662
    1CHTO   H47  324   6.108   7.612   2.154 -0.9689 -1.5380 -0.6084
    1CHTO   C20  325   6.322   7.650   2.195 -0.2299 -1.1819 -0.4253
    1CHTO   H48  326   6.409   7.607   2.246  1.3713  0.8136 -1.4263
    1CHTO   O19  327   6.289   7.771   2.266  0.3604 -0.2809  0.7153
    1CHTO   H35  328   6.207   7.768   2.312  1.3680  1.4158  2.7415
    1CHTO   C21  329   6.365   7.673   2.041 -0.0984  0.4093  0.3178
    1CHTO   H49  330   6.287   7.733   1.994  0.2383  0.4664 -0.1611
    1CHTO    N4  331   6.496   7.742   2.028  0.4287 -0.5514 -0.1519
    1CHTO   H41  332   6.547   7.752   2.122 -0.0212  0.3274 -0.0011
    1CHTO   H42  333   6.497   7.832   1.968  0.6501  1.2391  2.4398
    1CHTO   C22  334   6.363   7.535   1.968  0.0483  0.2964 -0.3154
    1CHTO   H50  335   6.448   7.473   1.997 -1.2841 -0.5927  1.8355
    1CHTO   O14  336   6.239   7.472   1.988 -0.2792  0.2106  0.2624
    1CHTO   C23  337   6.211   7.423   2.120  0.4239 -0.4434 -0.3064
    1CHTO   H51  338   6.290   7.361   2.166 -0.4010 -1.6145 -0.4401
    1CHTO   C34  339   6.083   7.344   2.118  0.1982 -0.0151  0.4553
    1CHTO   O23  340   6.087   7.250   2.011  0.4553 -0.0607 -0.1960
    1CHTO   H38  341   6.028   7.180   2.029 -0.1157  0.4549 -0.0496
    1CHTO   O16  342   6.366   7.556   1.824  0.4767  0.1856 -0.5261
    1CHTO   C24  343   6.431   7.459   1.747 -0.1357 -0.4555 -0.6095
    1CHTO   H52  344   6.446   7.366   1.802 -0.8932 -2.2588 -3.3146
    1CHTO   C26  345   6.566   7.517   1.691  0.2959  0.7365 -0.2260
    1CHTO   H54  346   6.543   7.619   1.655  2.6548  1.3526 -0.0630
    1CHTO   O20  347   6.659   7.535   1.800  0.5078  0.0159 -1.1076
    1CHTO   H36  348   6.657   7.461   1.857 -0.9345 -0.3028 -1.5595
    1CHTO   C30  349   6.632   7.437   1.567 -0.3467 -0.5124  0.6360
    1CHTO   H58  350   6.662   7.339   1.608  1.2291  0.6027  2.2397
    1CHTO    N6  351   6.743   7.509   1.497 -0.2500 -0.5501 -0.2160
    1CHTO   H45  352   6.740   7.616   1.508 -0.5924 -0.3773 -1.7885
    1CHTO   H46  353   6.835   7.471   1.539  0.4704  0.4232 -0.8819
    1CHTO   C33  354   6.517   7.404   1.470  0.2724 -0.7077  0.4877
    1CHTO   H61  355   6.477   7.494   1.422  1.8469 -0.9387 -1.3171
    1CHTO   O18  356   6.409   7.340   1.545 -0.0964  0.2461  0.9897
    1CHTO   C28  357   6.337   7.419   1.634  0.4536  0.0093 -0.5144
    1CHTO   H56  358   6.299   7.510   1.586  0.1931  0.4062  0.4415
    1CHTO   C35  359   6.221   7.334   1.692 -0.4380  0.2724  0.3910
    1CHTO   O24  360   6.114   7.307   1.611  0.0062  0.2570  0.3709
    1CHTO   H39  361   6.136   7.244   1.545  1.4579  0.9708  0.1415
    1CHTO    O9  362   6.565   7.323   1.358  0.2779  0.2136  0.7043
    1CHTO   C13  363   6.466   7.351   1.210  0.6315 -0.0649  0.4910
    1CHTO   H26  364   6.508   7.447   1.172  0.6321  0.1444  1.0167
    1CHTO   C11  365   6.308   7.365   1.256 -0.4545  0.1051 -0.5011
    1CHTO   H24  366   6.292   7.449   1.325 -0.9783 -0.1771 -0.2762
    1CHTO    O8  367   6.265   7.251   1.327 -0.4834  0.3916 -0.1233
    1CHTO    H3  368   6.239   7.189   1.261  1.9343  0.2402 -0.9834
    1CHTO    C9  369   6.231   7.396   1.129  0.3042 -0.5305  0.3754
    1CHTO   H22  370   6.267   7.494   1.095  1.5147 -1.8524 -2.3351
    1CHTO    N2  371   6.086   7.426   1.152 -0.2221 -0.8282  0.0343
    1CHTO   H10  372   6.068   7.494   1.234  0.5417  2.2076 -2.2132
    1CHTO   H11  373   6.034   7.335   1.179  0.2361 -0.2748  2.9494
    1CHTO    C7  374   6.256   7.288   1.014  0.2597 -0.4963 -0.1964
    1CHTO   H20  375   6.213   7.336   0.924  1.7186  1.3756  0.0735
    1CHTO    O4  376   6.400   7.264   0.996 -0.0089  0.2687 -0.0350
    1CHTO   C14  377   6.490   7.240   1.101 -1.1980  0.0652  0.6199
    1CHTO   H27  378   6.585   7.249   1.044 -1.9062 -1.3900 -0.8052
    1CHTO   C18  379   6.488   7.094   1.157 -0.8497 -0.2320  0.0108
    1CHTO   O13  380   6.615   7.066   1.234 -0.6410 -0.5330  0.2109
    1CHTO    H7  381   6.613   7.105   1.319 -1.6902  0.7709 -0.3843
    1CHTO    O2  382   6.169   7.139   1.025 -0.7553  0.1964 -0.2877
    1CHTO    C1  383   6.190   7.042   0.917 -0.4992  0.0439 -0.1725
    1CHTO   H14  384   6.300   7.023   0.912 -0.6249 -0.5685 -0.7282
    1CHTO    C2  385   6.139   7.088   0.771  0.3449 -0.1730  0.2712
    1CHTO   H15  386   6.032   7.114   0.773  0.4450  0.2384  0.3550
    1CHTO    O6  387   6.208   7.203   0.721  0.0857 -0.4925  0.0289
    1CHTO    H1  388   6.166   7.243   0.647  0.9427  0.5363  0.0881
    1CHTO    C3  389   6.156   6.967   0.666 -0.0916  0.1307 -0.3352
    1CHTO   H16  390   6.262   6.950   0.644 -0.5371 -0.2087 -2.3571
    1CHTO    N1  391   6.098   6.987   0.532 -0.7849  0.4556  0.2462
    1CHTO    H8  392   5.992   7.006   0.541 -1.2420 -0.4669 -2.5168
    1CHTO    H9  393   6.150   7.074   0.495  1.2438  0.2777  2.5926
    1CHTO    C4  394   6.105   6.833   0.731  0.0889  0.3117  0.6871
    1CHTO   H17  395   5.997   6.839   0.732  0.1571  2.9789 -1.1379
    1CHTO    O1  396   6.160   6.802   0.859  0.2052 -0.6461 -0.2102
    1CHTO    C5  397   6.128   6.908   0.959 -0.3464  0.0345 -0.1987
    1CHTO   H18  398   6.021   6.925   0.964 -0.4654 -0.7845  0.1278
    1CHTO   C16  399   6.175   6.856   1.095 -0.7761  0.4547 -0.3152
    1CHTO   O11  400   6.096   6.741   1.133  0.0532 -0.6949  0.5896
    1CHTO    H5  401   6.144   6.689   1.194  2.0412 -0.9218 -1.1303
    1CHTO    O3  402   6.151   6.724   0.649  0.0951  0.2673  0.1168
    1CHTO    C6  403   6.077   6.595   0.649 -0.5883  0.0503  0.3672
    1CHTO   H19  404   6.018   6.591   0.742 -1.4616  0.6176 -0.1510
    1CHTO    C8  405   5.978   6.577   0.540  0.0635  0.8368 -0.1561
    1CHTO   H21  406   6.031   6.588   0.445  1.0653 -0.5647  0.2237
    1CHTO    O7  407   5.877   6.679   0.555 -0.5116  0.3894  0.2211
    1CHTO    H2  408   5.794   6.637   0.566  0.6193 -2.7587 -2.3952
    1CHTO   C12  409   5.931   6.427   0.529 -0.7316 -0.4920  0.1192
    1CHTO   H25  410   5.875   6.419   0.625  1.9917 -2.1584  1.6221
    1CHTO    N3  411   5.839   6.391   0.413  0.2428 -0.0373  0.4629
    1CHTO   H12  412   5.863   6.436   0.318  0.2524  0.7569  0.8402
    1CHTO   H13  413   5.734   6.380   0.438  0.0256  1.4832  0.2414
    1CHTO   C15  414   6.050   6.327   0.535 -0.3157 -0.2414  0.2510
    1CHTO   H28  415   6.104   6.319   0.441 -1.3956 -0.5292 -0.3606
    1CHTO   O10  416   6.012   6.185   0.575 -0.3175 -0.0891  0.3715
    1CHTO    H4  417   5.992   6.143   0.493 -0.0505  0.3700  0.0690
    1CHTO    O5  418   6.137   6.348   0.651 -0.0915 -0.6486 -0.2763
    1CHTO   C10  419   6.184   6.486   0.664 -0.1546  0.5167  0.1351
    1CHTO   H23  420   6.257   6.507   0.586  0.2157 -3.1057 -0.5943
    1CHTO   C17  421   6.265   6.496   0.794 -0.2326  0.6657  0.2325
    1CHTO   O12  422   6.335   6.381   0.832  0.1418 -0.3152  0.2576
    1CHTO    H6  423   6.399   6.419   0.889 -1.0501  0.1273  1.3132
    2CHTO  H203  424   6.644   5.459   6.603  2.4584 -0.4381  1.4341
    2CHTO   O82  425   6.641   5.418   6.519  0.5883  0.6567  0.9335
    2CHTO  C123  426   6.508   5.356   6.486  0.2727  0.4657  0.0341
    2CHTO  H227  427   6.431   5.434   6.483 -0.9167 -0.6284  1.5789
    2CHTO   O77  428   6.543   5.304   6.348 -0.1571  0.1843  0.1680
    2CHTO  C118  429   6.436   5.252   6.269 -0.0230 -0.5042  0.0710
    2CHTO  H222  430   6.371   5.340   6.261  2.3303  1.3734  1.1700
    2CHTO  C125  431   6.493   5.224   6.122  0.3017 -0.2227 -0.2359
    2CHTO   O84  432   6.580   5.113   6.116 -0.4350 -0.1944 -1.1160
    2CHTO  H205  433   6.640   5.111   6.188 -2.5292 -0.1139  0.6694
    2CHTO  C114  434   6.368   5.132   6.343 -0.4390 -0.0300  0.6536
    2CHTO  H218  435   6.434   5.045   6.341  0.3931  0.5918  0.8339
    2CHTO  C116  436   6.339   5.165   6.498  0.0791  0.1060 -0.0574
    2CHTO  H220  437   6.261   5.243   6.496  0.6153  0.7446  2.1270
    2CHTO   O79  438   6.293   5.050   6.568  0.1335  0.0363 -0.2976
    2CHTO  H201  439   6.218   5.078   6.616 -1.1337 -1.6758 -1.2055
    2CHTO  C120  440   6.468   5.229   6.573 -0.3347 -0.0215  1.2070
    2CHTO  H224  441   6.546   5.149   6.578  0.5193  0.6924 -0.2308
    2CHTO   N21  442   6.444   5.269   6.715  0.3023  0.1962  0.1900
    2CHTO  H211  443   6.342   5.288   6.746  0.5681  0.8299  0.6724
    2CHTO  H212  444   6.493   5.196   6.777 -0.6769 -0.7154 -0.0894
    2CHTO   O75  445   6.253   5.095   6.263  0.0782  0.3291 -0.3871
    2CHTO  C112  446   6.125   5.204   6.266  0.2615 -0.2516  0.4812
    2CHTO  H216  447   6.176   5.300   6.277  0.2975  0.1907 -2.8633
    2CHTO   O73  448   6.047   5.174   6.382  0.2483  0.0091 -0.0340
    2CHTO  C113  449   5.934   5.266   6.409  0.0688  0.2908  0.0422
    2CHTO  H217  450   5.972   5.369   6.422  1.0870  0.0438 -0.8631
    2CHTO  C124  451   5.887   5.220   6.542 -0.1699 -0.4502 -0.0996
    2CHTO   O83  452   5.775   5.291   6.590  0.1033  0.1554 -0.0245
    2CHTO  H204  453   5.722   5.337   6.527  2.7965  0.3019 -2.2516
    2CHTO  C109  454   5.835   5.268   6.291  0.3354  0.3501 -0.1827
    2CHTO  H213  455   5.794   5.166   6.288  0.4483  0.2161  1.9791
    2CHTO  C110  456   5.914   5.300   6.161  0.6294 -0.2804  0.1957
    2CHTO  H214  457   5.952   5.401   6.168 -0.3286  0.2582 -2.0248
    2CHTO   O78  458   5.819   5.290   6.051 -0.0092 -0.3667 -0.1549
    2CHTO  H200  459   5.743   5.344   6.066 -1.2046 -1.6830 -1.3692
    2CHTO  C111  460   6.035   5.206   6.140 -0.7561  0.4267  0.1041
    2CHTO  H215  461   6.002   5.102   6.129 -0.8381  0.6226 -1.5997
    2CHTO   N19  462   6.110   5.236   6.022 -0.0883 -0.0310  0.1117
    2CHTO  H207  463   6.196   5.172   6.013 -1.4584 -2.2590  2.3794
    2CHTO  H208  464   6.133   5.339   5.998 -2.0187  0.4801  0.3614
    2CHTO   O74  465   5.727   5.366   6.313  0.2272 -1.0073 -0.7971
    2CHTO  C115  466   5.590   5.304   6.292  0.5803  0.1201  0.1382
    2CHTO  H219  467   5.595   5.219   6.223  1.7501  0.6463 -0.4407
    2CHTO   O76  468   5.520   5.240   6.439  0.1491 -0.3230  0.0773
    2CHTO  C122  469   5.467   5.352   6.514  0.6629 -0.3448  0.4606
    2CHTO  H226  470   5.543   5.429   6.520  1.4720 -0.9480 -1.6938
    2CHTO  C126  471   5.433   5.309   6.661  0.6620 -0.3855 -0.5468
    2CHTO   O85  472   5.529   5.239   6.738 -0.2808  0.2549 -0.0341
    2CHTO  H206  473   5.504   5.247   6.828  0.4778  1.0506  0.1195
    2CHTO  C121  474   5.334   5.397   6.439  0.3894 -0.5417 -0.5008
    2CHTO  H225  475   5.240   5.347   6.470  0.2168 -0.8866 -1.5488
    2CHTO   O81  476   5.317   5.530   6.478  0.0841  0.5620 -0.0505
    2CHTO  H202  477   5.229   5.559   6.465 -0.8332 -2.2306 -0.5978
    2CHTO  C119  478   5.348   5.389   6.279  0.2191  0.3548 -0.3756
    2CHTO  H223  479   5.331   5.284   6.253  1.6056  0.2945 -1.1214
    2CHTO  C117  480   5.498   5.419   6.230  0.2834  0.7384  0.5915
    2CHTO  H221  481   5.538   5.517   6.258  1.6017  0.0575  1.1329
    2CHTO   N20  482   5.504   5.408   6.084 -0.0377 -0.2414  0.3412
    2CHTO  H209  483   5.459   5.490   6.030  0.1062 -0.1658  0.3356
    2CHTO  H210  484   5.609   5.397   6.060 -0.4342 -1.6437 -0.8156
    2CHTO   O80  485   5.227   5.455   6.201  0.1530  0.2839  0.1168
    2CHTO  C103  486   5.158   5.378   6.092 -0.8415  0.4552  0.8290
    2CHTO  H190  487   5.229   5.323   6.031 -2.5366 -0.7724 -0.0939
    2CHTO  C101  488   5.050   5.276   6.146 -0.0045 -0.2500 -0.3635
    2CHTO  H188  489   5.001   5.303   6.239  2.0364 -1.0983  0.9767
    2CHTO   O68  490   5.131   5.143   6.187  0.3633 -0.2582  0.4475
    2CHTO  H168  491   5.093   5.089   6.254 -1.2152  0.9523  0.5505
    2CHTO   C99  492   4.935   5.245   6.040 -0.1421 -0.0585  0.2703
    2CHTO  H186  493   4.982   5.187   5.958  1.4654 -1.9513  2.4659
    2CHTO   N17  494   4.818   5.165   6.098 -0.2192  0.2742 -0.2598
    2CHTO  H174  495   4.849   5.072   6.144 -1.7084  0.8346  1.9530
    2CHTO  H175  496   4.762   5.216   6.175 -3.4720 -3.8332  0.3237
    2CHTO   C97  497   4.886   5.378   5.985  0.4086  0.6462  0.4104
    2CHTO  H184  498   4.838   5.439   6.062  0.5382 -0.0095  1.0101
    2CHTO   O64  499   4.990   5.444   5.911 -1.3943 -0.2295 -0.1521
    2CHTO  C104  500   5.092   5.484   6.000  0.0850 -0.1161  0.2742
    2CHTO  H191  501   5.049   5.558   6.067 -3.4252 -2.3532  0.6075
    2CHTO  C108  502   5.185   5.566   5.912  0.0506  0.5673  0.3189
    2CHTO   O71  503   5.117   5.688   5.881  0.2043  0.1819  0.2134
    2CHTO  H171  504   5.156   5.749   5.822  2.0034 -2.1321 -1.0837
    2CHTO   O62  505   4.793   5.366   5.877  0.0264  0.3570  0.8006
    2CHTO   C91  506   4.689   5.460   5.879  1.5632 -0.4276 -0.0877
    2CHTO  H178  507   4.654   5.467   5.982  0.9422  0.6938 -0.3663
    2CHTO   C92  508   4.562   5.400   5.813  0.7013  0.1583 -0.2024
    2CHTO  H179  509   4.549   5.295   5.839  2.0080 -0.1067 -0.5596
    2CHTO   O66  510   4.450   5.467   5.861  0.1519 -0.6071 -0.0008
    2CHTO  H166  511   4.455   5.559   5.846 -3.9505  0.2125  2.9903
    2CHTO   C93  512   4.558   5.422   5.659  0.1790  0.5147 -0.1920
    2CHTO  H180  513   4.453   5.412   5.628  0.3089  0.2368 -0.5556
    2CHTO   N16  514   4.640   5.318   5.584 -0.1841  0.6343  0.0806
    2CHTO  H172  515   4.658   5.340   5.480 -0.7994 -1.5705 -0.5232
    2CHTO  H173  516   4.728   5.286   5.638  1.4808 -0.1754 -2.9440
    2CHTO   C94  517   4.611   5.567   5.617  0.2609  0.3488 -0.6971
    2CHTO  H181  518   4.696   5.565   5.549  0.0144 -1.5215 -0.9662
    2CHTO   O61  519   4.627   5.658   5.727 -0.3631 -0.3981  0.3434
    2CHTO   C95  520   4.727   5.606   5.818 -0.1837 -0.2826 -0.3059
    2CHTO  H182  521   4.822   5.600   5.765  1.1774 -2.1322  2.2187
    2CHTO  C106  522   4.757   5.702   5.942  0.8880 -0.8401 -0.3253
    2CHTO   O69  523   4.788   5.831   5.894 -0.0938  0.2371  0.5155
    2CHTO  H169  524   4.870   5.826   5.848 -0.5815  0.6105 -0.4105
    2CHTO   O63  525   4.481   5.621   5.525 -0.0741  0.6566  0.7443
    2CHTO   C96  526   4.395   5.726   5.566 -0.9132  0.9675 -0.5530
    2CHTO  H183  527   4.395   5.738   5.675 -1.2837  2.4899 -0.6990
    2CHTO   C98  528   4.249   5.688   5.534 -0.4528 -0.3159 -0.3525
    2CHTO  H185  529   4.237   5.650   5.431  3.2194  0.5611 -1.1894
    2CHTO   O67  530   4.213   5.573   5.619 -0.4209 -0.1101 -0.4892
    2CHTO  H167  531   4.261   5.500   5.585 -1.3532 -0.5191 -0.9390
    2CHTO  C102  532   4.162   5.809   5.562  0.2342  0.6313  0.5300
    2CHTO  H189  533   4.176   5.829   5.669  1.1793  1.0749  0.3281
    2CHTO   N18  534   4.016   5.778   5.545  0.0795  0.2909  0.5291
    2CHTO  H176  535   3.957   5.864   5.515 -0.4737 -0.5450 -0.8169
    2CHTO  H177  536   3.994   5.683   5.499 -1.4248  0.9914 -0.2405
    2CHTO  C105  537   4.215   5.928   5.479  0.2831  0.5607 -1.0736
    2CHTO  H192  538   4.227   5.894   5.376  3.2216  0.4724 -0.7512
    2CHTO   O65  539   4.344   5.967   5.520  0.3981 -0.3839 -0.4113
    2CHTO  C100  540   4.439   5.869   5.498  0.2138  1.3579  0.1460
    2CHTO  H187  541   4.460   5.844   5.393  0.8216 -2.4546  1.0753
    2CHTO  C107  542   4.569   5.926   5.562  0.2489 -0.5053 -0.0049
    2CHTO   O70  543   4.620   6.050   5.508 -0.4480  0.2355 -0.7956
    2CHTO  H170  544   4.711   6.062   5.529 -1.1073  1.2079  1.6327
    2CHTO   O57  545   4.126   6.048   5.497 -0.2468 -0.0296 -0.0621
    2CHTO   C85  546   4.092   6.131   5.384 -0.1246 -0.1562 -0.0961
    2CHTO  H157  547   4.020   6.067   5.329 -0.0130  0.2188 -0.6803
    2CHTO   C83  548   4.223   6.147   5.284 -0.0844  0.2391 -0.6532
    2CHTO  H155  549   4.253   6.049   5.249  2.0029  0.2638  0.9377
    2CHTO   O56  550   4.338   6.209   5.351 -0.7648  0.0683 -0.5138
    2CHTO  H135  551   4.401   6.146   5.382 -1.2752 -0.5599 -0.7377
    2CHTO   C81  552   4.170   6.227   5.162 -0.3222  0.4702  0.2455
    2CHTO  H153  553   4.081   6.178   5.122  0.6286  0.0164 -1.3653
    2CHTO   N14  554   4.266   6.237   5.051  0.2260 -0.6072 -0.1896
    2CHTO  H141  555   4.309   6.335   5.048  0.8706 -0.9040 -0.9944
    2CHTO  H142  556   4.238   6.211   4.951  1.0914 -1.0337 -0.3327
    2CHTO   C79  557   4.126   6.369   5.214 -0.3019  0.6453 -0.2205
    2CHTO  H151  558   4.085   6.428   5.132 -1.4534  1.9439  1.2562
    2CHTO   O52  559   4.021   6.361   5.315 -0.0835  0.4193 -0.0803
    2CHTO   C86  560   4.033   6.269   5.425  0.2404  0.0689  0.3348
    2CHTO  H158  561   4.094   6.320   5.503  2.0475 -1.7190  0.1309
    2CHTO   C90  562   3.901   6.250   5.496 -0.0376 -0.2933 -0.5284
    2CHTO   O60  563   3.919   6.189   5.628  0.4300 -0.0174 -0.2268
    2CHTO  H138  564   3.959   6.105   5.619  1.7235  0.6537 -1.0049
    2CHTO   O50  565   4.226   6.447   5.274 -0.1631  0.3258  0.0839
    2CHTO   C73  566   4.288   6.576   5.255  0.4679 -0.0272 -0.6643
    2CHTO  H145  567   4.201   6.639   5.230  2.1358  2.8065  0.3727
    2CHTO   C74  568   4.390   6.580   5.137  0.7383  0.2442  0.7632
    2CHTO  H146  569   4.327   6.536   5.058  1.0742 -0.2070  0.7436
    2CHTO   O54  570   4.431   6.712   5.107 -0.2332 -0.2983  0.0968
    2CHTO  H133  571   4.368   6.756   5.053  0.2529 -1.0763 -1.1380
    2CHTO   C75  572   4.517   6.491   5.166  0.3043  0.4693  0.2221
    2CHTO  H147  573   4.490   6.390   5.201 -0.3483  1.1799  1.8440
    2CHTO   N13  574   4.609   6.478   5.051 -0.3656  0.5319 -0.0629
    2CHTO  H139  575   4.617   6.567   4.991 -0.9548  1.3785  1.0992
    2CHTO  H140  576   4.600   6.386   4.995  2.9584  0.6060 -0.8200
    2CHTO   C76  577   4.582   6.557   5.297 -0.8626  0.8716  0.0571
    2CHTO  H148  578   4.625   6.655   5.276 -0.0462  0.7930  1.2918
    2CHTO   O49  579   4.486   6.568   5.407  0.3773  0.8475 -0.0416
    2CHTO   C77  580   4.364   6.638   5.385  0.5489  0.0564 -0.0348
    2CHTO  H149  581   4.392   6.742   5.370 -0.1207  0.4762  1.6005
    2CHTO   C88  582   4.284   6.624   5.511  0.5086 -0.0082  0.1537
    2CHTO   O58  583   4.152   6.695   5.501 -0.1501  0.2093 -0.3268
    2CHTO  H136  584   4.100   6.650   5.437  1.3580  0.5356 -1.8008
    2CHTO   O51  585   4.693   6.448   5.343  0.8301  0.2888  0.3790
    2CHTO   C78  586   4.796   6.508   5.433 -0.1331  0.3749 -0.1279
    2CHTO  H150  587   4.762   6.598   5.488  0.5884  0.7624 -0.3050
    2CHTO   C80  588   4.921   6.552   5.358  0.0794 -0.3023  0.4068
    2CHTO  H152  589   4.965   6.469   5.299 -0.2574  1.0151 -1.7364
    2CHTO   O55  590   4.874   6.658   5.270  0.4894 -0.1984 -0.3328
    2CHTO  H134  591   4.942   6.695   5.218 -0.0335 -1.0523 -1.6709
    2CHTO   C84  592   5.031   6.622   5.459 -0.3580  0.2703  0.3061
    2CHTO  H156  593   4.991   6.707   5.515 -2.1883 -1.8294  2.2510
    2CHTO   N15  594   5.144   6.679   5.382  0.1019  0.5202 -0.2746
    2CHTO  H143  595   5.185   6.762   5.434  0.3801 -0.1656  0.6144
    2CHTO  H144  596   5.221   6.608   5.357 -0.8295 -0.3744 -0.6612
    2CHTO   C87  597   5.062   6.523   5.567 -0.0134 -0.8077 -0.4439
    2CHTO  H159  598   5.088   6.429   5.518  2.0645 -0.6148  0.2678
    2CHTO   O53  599   4.928   6.494   5.636 -0.0091  0.4893  0.4692
    2CHTO   C82  600   4.835   6.417   5.548  0.0189 -0.2737  0.0100
    2CHTO  H154  601   4.897   6.332   5.521  1.1672  0.1713  1.1615
    2CHTO   C89  602   4.716   6.361   5.624 -0.4295 -0.1369 -0.5693
    2CHTO   O59  603   4.637   6.462   5.690 -0.3958  0.1795  0.1266
    2CHTO  H137  604   4.543   6.452   5.684 -0.4269  0.6448 -0.1304
    2CHTO   O45  605   5.168   6.577   5.691 -0.5703  0.9842  0.5564
    2CHTO   C67  606   5.210   6.464   5.777 -0.0093  0.1851  0.0391
    2CHTO  H124  607   5.148   6.377   5.754  2.6952 -1.1624 -2.6500
    2CHTO   C65  608   5.359   6.420   5.751  0.0461  0.5545 -0.5510
    2CHTO  H122  609   5.405   6.502   5.696  1.7156 -0.6351 -0.9760
    2CHTO   O44  610   5.349   6.305   5.660 -0.4904  0.3257  0.5896
    2CHTO  H102  611   5.417   6.286   5.598 -2.1801 -2.1163 -0.6080
    2CHTO   C63  612   5.440   6.401   5.887 -0.8313 -0.0525  0.4395
    2CHTO  H120  613   5.465   6.496   5.934  0.6060 -0.5601  0.7241
    2CHTO   N11  614   5.576   6.341   5.877 -0.4777  0.8327 -0.4080
    2CHTO  H108  615   5.627   6.389   5.796  2.1831 -0.7974  0.2358
    2CHTO  H109  616   5.578   6.236   5.854  2.5464  0.7862 -0.1248
    2CHTO   C61  617   5.343   6.329   5.995  0.2146  0.5615  0.0198
    2CHTO  H118  618   5.407   6.338   6.084 -1.2367 -2.4707  1.4365
    2CHTO   O40  619   5.219   6.393   6.023  0.3471  0.3627 -0.3833
    2CHTO   C68  620   5.174   6.493   5.930 -0.1716 -0.4004 -0.0817
    2CHTO  H125  621   5.219   6.590   5.962 -2.2084  1.4474 -2.5898
    2CHTO   C72  622   5.020   6.504   5.950  0.3661 -0.4607 -0.6296
    2CHTO   O48  623   4.976   6.537   6.080 -0.2716  0.4468  0.1668
    2CHTO  H105  624   4.934   6.621   6.083  0.3566  0.7366  1.0208
    2CHTO   O38  625   5.335   6.184   5.974 -0.3172 -0.2861 -0.4376
    2CHTO   C55  626   5.268   6.095   6.072  0.7681  0.8741 -0.1571
    2CHTO  H112  627   5.215   6.160   6.143  0.8589  1.6051 -0.7546
    2CHTO   C56  628   5.373   6.001   6.139  0.1063 -0.4484  0.1962
    2CHTO  H113  629   5.419   5.942   6.059  0.8673  0.0536  0.2623
    2CHTO   O42  630   5.476   6.086   6.196 -0.1833  0.2702  0.0837
    2CHTO  H100  631   5.472   6.176   6.169 -1.0007  0.7563  1.7625
    2CHTO   C57  632   5.309   5.908   6.240 -0.2692  0.8841  0.1313
    2CHTO  H114  633   5.262   5.973   6.313 -0.0235  2.7393 -1.3307
    2CHTO   N10  634   5.402   5.815   6.317 -0.4272 -0.4063  0.3730
    2CHTO  H106  635   5.477   5.765   6.258  0.5250 -0.4587  1.6095
    2CHTO  H107  636   5.338   5.741   6.363  1.2444 -1.2358  1.3780
    2CHTO   C58  637   5.195   5.829   6.165 -0.9258  1.0676 -0.7966
    2CHTO  H115  638   5.247   5.762   6.095 -1.1500 -0.7641  0.7365
    2CHTO   O37  639   5.105   5.920   6.101 -0.0184  0.2947 -0.2368
    2CHTO   C59  640   5.173   5.996   5.999  0.1170  0.4451  0.2208
    2CHTO  H116  641   5.215   5.929   5.925  1.5108  1.0787  0.4266
    2CHTO   C70  642   5.063   6.070   5.922  0.0669 -0.2628 -0.2000
    2CHTO   O46  643   4.998   6.167   5.999  0.4109 -0.2486  0.1512
    2CHTO  H103  644   4.904   6.161   5.991  0.5765 -1.3608 -1.0302
    2CHTO   O39  645   5.112   5.739   6.275 -0.6786  0.1568  0.6298
    2CHTO   C60  646   4.972   5.740   6.296  0.4930 -0.6008 -0.7760
    2CHTO  H117  647   4.918   5.777   6.209  0.9971 -0.9132 -1.2247
    2CHTO   C62  648   4.931   5.589   6.324  0.2858  0.3487 -0.4120
    2CHTO  H119  649   4.974   5.527   6.242 -0.9019 -1.5793  0.3941
    2CHTO   O43  650   5.000   5.534   6.440  0.4490  0.2612 -0.3229
    2CHTO  H101  651   5.061   5.475   6.401  0.6134  0.8163 -0.9072
    2CHTO   C66  652   4.764   5.588   6.329  0.4252 -0.2567  0.0788
    2CHTO  H123  653   4.725   5.646   6.246 -1.0702 -2.1789 -0.6318
    2CHTO   N12  654   4.705   5.451   6.324  0.8278  0.4504 -0.2040
    2CHTO  H110  655   4.716   5.417   6.222 -0.1435 -1.9472  0.4667
    2CHTO  H111  656   4.758   5.387   6.393  1.1330  0.0483 -0.8029
    2CHTO   C69  657   4.725   5.675   6.455  0.4028 -0.6549  0.0620
    2CHTO  H126  658   4.740   5.638   6.559  0.1476  0.9371  0.6839
    2CHTO   O41  659   4.790   5.829   6.455 -0.2954 -0.2612  0.2569
    2CHTO   C64  660   4.940   5.831   6.420  0.1985 -0.9424 -0.2080
    2CHTO  H121  661   5.004   5.795   6.504 -1.1435 -0.8062  0.8986
    2CHTO   C71  662   4.989   5.978   6.406  0.2539 -0.3185 -0.0753
    2CHTO   O47  663   4.931   6.033   6.283  0.1771  0.4037 -0.1862
    2CHTO  H104  664   4.852   6.083   6.287  1.1297  2.2453 -2.7521
    2CHTO   O34  665   4.575   5.703   6.445  0.3083 -0.3894 -0.6057
    2CHTO   C49  666   4.483   5.820   6.445  0.0156  0.6975 -0.2118
    2CHTO   H91  667   4.436   5.830   6.543 -0.7579 -1.2214 -0.3714
    2CHTO   C47  668   4.375   5.800   6.340 -0.1843  0.5336 -0.3075
    2CHTO   H89  669   4.305   5.886   6.339  0.6597  1.2256 -0.3090
    2CHTO   O33  670   4.303   5.680   6.384  0.6561 -0.5658  0.3305
    2CHTO   H70  671   4.360   5.606   6.396  0.3676 -1.0672 -1.2707
    2CHTO   C45  672   4.452   5.792   6.193 -0.2179  0.8850  0.5232
    2CHTO   H87  673   4.530   5.714   6.197 -1.7601 -0.6546  1.7829
    2CHTO    N8  674   4.350   5.752   6.087 -0.1686 -0.9078  0.1846
    2CHTO   H75  675   4.251   5.741   6.130 -0.3032  0.4218  0.2349
    2CHTO   H76  676   4.346   5.813   5.998  2.1203 -2.7210 -1.1900
    2CHTO   C43  677   4.539   5.926   6.165 -0.4295 -0.2341 -0.2069
    2CHTO   H85  678   4.607   5.898   6.085 -0.3617 -2.4913  0.6210
    2CHTO   O29  679   4.612   5.961   6.287  0.4257  0.4986 -0.6367
    2CHTO   C50  680   4.548   5.955   6.417 -0.5173  0.2660  0.3003
    2CHTO   H92  681   4.619   5.961   6.501 -2.2141  1.9829  1.6721
    2CHTO   C54  682   4.455   6.075   6.432 -0.4638 -0.0944  0.1475
    2CHTO   O36  683   4.525   6.190   6.485  0.1974  0.5099  0.7829
    2CHTO   H72  684   4.563   6.247   6.420 -2.6580 -1.0136 -2.4075
    2CHTO   O27  685   4.452   6.033   6.114 -0.1245 -0.3490 -0.7243
    2CHTO   C37  686   4.459   6.151   6.028 -0.9817  0.0748 -0.1155
    2CHTO   H79  687   4.517   6.118   5.941  0.7604 -2.4687  1.9308
    2CHTO   C38  688   4.314   6.191   5.985 -0.2113  0.2146 -0.1641
    2CHTO   H80  689   4.253   6.221   6.073 -0.8310 -0.8888 -0.2096
    2CHTO   O31  690   4.257   6.080   5.917 -0.0573  0.3538 -0.1062
    2CHTO   H68  691   4.166   6.091   5.893 -0.7021 -1.9159  1.1480
    2CHTO   C39  692   4.314   6.316   5.892  0.3178 -0.0653  0.1785
    2CHTO   H81  693   4.366   6.282   5.802  0.1570  0.1855 -0.0097
    2CHTO    N7  694   4.172   6.365   5.854 -0.3181 -0.1337  0.7185
    2CHTO   H73  695   4.101   6.306   5.909  1.6304 -0.3432  3.0759
    2CHTO   H74  696   4.147   6.466   5.883 -0.6392 -0.4187  1.4482
    2CHTO   C40  697   4.391   6.429   5.952 -0.0221 -0.9763 -0.2362
    2CHTO   H82  698   4.340   6.473   6.038  1.4435  0.6971 -0.1884
    2CHTO   O26  699   4.525   6.382   5.993 -0.4426  0.2479 -0.1166
    2CHTO   C41  700   4.531   6.274   6.091 -0.0284 -0.1443 -0.0064
    2CHTO   H83  701   4.479   6.298   6.185  0.5253 -0.9552  0.5116
    2CHTO   C52  702   4.679   6.253   6.131  0.0646  0.0247 -0.5965
    2CHTO   O35  703   4.738   6.382   6.180 -0.1925  0.5440 -0.0377
    2CHTO   H71  704   4.760   6.431   6.103 -1.9638  0.2804 -0.7388
    2CHTO   O28  705   4.433   6.534   5.859 -0.1482  0.4697  0.3469
    2CHTO   C42  706   4.456   6.672   5.916 -0.0380 -0.2716 -0.7480
    2CHTO   H84  707   4.484   6.725   5.825 -1.2706 -0.0152 -0.9807
    2CHTO   C44  708   4.565   6.691   6.019  0.3626  0.2774  0.3740
    2CHTO   H86  709   4.552   6.613   6.094 -0.3198 -1.9404 -1.9695
    2CHTO   O32  710   4.691   6.658   5.954  0.1945 -0.4367  0.2723
    2CHTO   H69  711   4.761   6.680   6.013 -0.9235 -1.0536  1.8797
    2CHTO   C48  712   4.570   6.826   6.093  0.4428 -0.1589 -0.2749
    2CHTO   H90  713   4.584   6.907   6.022  0.2257 -2.1882 -2.6885
    2CHTO    N9  714   4.678   6.830   6.196  0.0102  1.1508  0.2464
    2CHTO   H77  715   4.694   6.910   6.266 -1.9148  1.4772  0.3340
    2CHTO   H78  716   4.772   6.802   6.151 -0.4539  0.1987 -0.1420
    2CHTO   C51  717   4.417   6.852   6.144 -0.0395 -0.5401 -0.0929
    2CHTO   H93  718   4.393   6.772   6.214 -1.0321  0.4600  0.7320
    2CHTO   O30  719   4.332   6.848   6.028 -0.3935  0.0016  1.0194
    2CHTO   C46  720   4.319   6.729   5.957  0.0484 -1.0698 -0.4710
    2CHTO   H88  721   4.274   6.668   6.036  0.5810 -0.5544  0.2340
    2CHTO   C53  722   4.225   6.742   5.836  0.1567 -0.4661 -0.8037
    2CHTO   O72  723   4.090   6.780   5.865 -0.3296 -0.1224 -0.1991
    2CHTO  H199  724   4.074   6.861   5.821  0.3367  0.5396  0.7389
    2CHTO   O22  725   4.417   6.981   6.216  0.4483 -0.3799 -0.0034
    2CHTO   C31  726   4.300   7.021   6.296  0.6033  0.6278  0.8082
    2CHTO   H59  727   4.316   7.129   6.317 -0.3127  0.4240  2.7159
    2CHTO   C29  728   4.165   7.010   6.214 -0.0749 -0.1366 -0.1353
    2CHTO   H57  729   4.141   6.904   6.194  1.6115 -0.8144  1.3037
    2CHTO   O21  730   4.168   7.075   6.085 -0.3612  0.3447  0.1192
    2CHTO   H37  731   4.210   7.015   6.026 -0.4015 -1.3370  1.7483
    2CHTO   C27  732   4.047   7.060   6.301 -0.2230 -0.4416  0.6551
    2CHTO   H55  733   4.057   7.168   6.324 -0.5432 -0.3710  0.4745
    2CHTO    N5  734   3.925   7.042   6.228  0.7626  0.3866 -0.2538
    2CHTO   H43  735   3.860   6.965   6.267  2.7354 -0.8804  0.6701
    2CHTO   H44  736   3.873   7.136   6.221  0.7596  0.6594  2.5774
    2CHTO   C25  737   4.045   6.972   6.428 -0.1700  0.0626 -0.6224
    2CHTO   H53  738   4.029   6.869   6.395 -0.9101  0.3613 -1.1970
    2CHTO   O17  739   4.166   6.999   6.507 -0.2283 -0.6881 -0.3767
    2CHTO   C32  740   4.283   6.954   6.437  0.1331  0.1795  0.0423
    2CHTO   H60  741   4.277   6.846   6.422 -2.0148  0.1262  1.1189
    2CHTO   C36  742   4.409   6.977   6.524 -0.2478 -0.4757  0.4090
    2CHTO   O25  743   4.391   6.935   6.659  0.1102 -0.1527 -0.2764
    2CHTO   H40  744   4.415   6.845   6.664  0.5310  0.0484  1.9186
    2CHTO   O15  745   3.930   7.003   6.532  0.7505 -0.0153  0.1410
    2CHTO   C19  746   3.851   6.933   6.630  0.8546 -0.3893 -0.3577
    2CHTO   H47  747   3.746   6.950   6.602  0.1317 -1.1459  1.7697
    2CHTO   C20  748   3.868   6.779   6.625 -0.3079  0.5839  0.0224
    2CHTO   H48  749   3.973   6.745   6.627 -0.2089  0.7010 -1.9821
    2CHTO   O19  750   3.815   6.736   6.493  0.9813  0.1100 -0.2487
    2CHTO   H35  751   3.880   6.682   6.453 -2.1422 -3.5862 -0.5929
    2CHTO   C21  752   3.791   6.704   6.741  0.9735  0.0184  0.0619
    2CHTO   H49  753   3.685   6.718   6.721  0.3348 -1.4403  2.2593
    2CHTO    N4  754   3.811   6.557   6.740 -0.0671 -0.2123 -0.1685
    2CHTO   H41  755   3.869   6.532   6.828  1.3249 -0.1205 -1.0373
    2CHTO   H42  756   3.714   6.511   6.747 -0.6968  0.9733 -0.9138
    2CHTO   C22  757   3.826   6.773   6.872 -0.5087 -0.2915  0.2927
    2CHTO   H50  758   3.926   6.744   6.904 -0.2693  1.0626  0.8262
    2CHTO   O14  759   3.795   6.911   6.853 -0.2240 -0.3191  0.7048
    2CHTO   C23  760   3.877   6.989   6.770 -0.4714  0.8828  0.5013
    2CHTO   H51  761   3.984   6.981   6.796 -0.3580  0.6842 -0.0267
    2CHTO   C34  762   3.839   7.136   6.786 -0.4248  0.0653  0.4715
    2CHTO   O23  763   3.936   7.219   6.743  0.2491  0.2073 -0.0350
    2CHTO   H38  764   4.011   7.214   6.799 -0.2385  1.1816  0.7206
    2CHTO   O16  765   3.727   6.737   6.974  0.5549  0.0393  0.4304
    2CHTO   C24  766   3.760   6.769   7.118 -0.3593  0.4543  0.2172
    2CHTO   H52  767   3.833   6.850   7.129 -0.4089  0.3333  1.5752
    2CHTO   C26  768   3.803   6.639   7.190  0.1680  0.0206 -1.0215
    2CHTO   H54  769   3.717   6.569   7.191 -1.3221  1.8025  1.0840
    2CHTO   O20  770   3.911   6.564   7.124 -0.3189  0.3386  0.3276
    2CHTO   H36  771   3.893   6.549   7.033  2.3526 -0.6212 -0.0814
    2CHTO   C30  772   3.846   6.666   7.339 -0.4301  0.0279 -0.1991
    2CHTO   H58  773   3.933   6.734   7.342  1.1195 -1.7912 -2.5472
    2CHTO    N6  774   3.892   6.555   7.425 -0.3522  0.3662  0.1230
    2CHTO   H45  775   3.853   6.560   7.525  0.9609 -1.8864  0.7710
    2CHTO   H46  776   4.000   6.561   7.426 -0.2154 -1.3436 -1.6575
    2CHTO   C33  777   3.729   6.744   7.410  0.2321  0.3358 -0.6309
    2CHTO   H61  778   3.645   6.674   7.424 -0.4339  1.1241 -0.6581
    2CHTO   O18  779   3.684   6.846   7.324 -0.1144 -0.1345  0.1287
    2CHTO   C28  780   3.639   6.818   7.188  0.0063  0.0160  0.2595
    2CHTO   H56  781   3.570   6.734   7.193  0.3258 -0.4708 -2.5521
    2CHTO   C35  782   3.566   6.940   7.119 -0.2320 -1.3085  0.3555
    2CHTO   O24  783   3.657   7.050   7.124  0.6613 -0.0647 -0.1140
    2CHTO   H39  784   3.607   7.126   7.103 -1.4244 -1.2009  0.6572
    2CHTO    O9  785   3.761   6.796   7.542 -0.0039  0.5817  0.4945
    2CHTO   C13  786   3.679   6.939   7.600  0.5698 -0.4680  0.3556
    2CHTO   H26  787   3.575   6.928   7.561  0.1989 -0.4180  1.3138
    2CHTO   C11  788   3.752   7.069   7.551 -0.1424  0.4910 -0.1247
    2CHTO   H24  789   3.720   7.071   7.446  2.8080  2.9934 -1.0450
    2CHTO    O8  790   3.895   7.049   7.568 -0.2995  0.3957 -0.0710
    2CHTO    H3  791   3.923   7.049   7.658  0.7032 -3.0425 -0.3390
    2CHTO    C9  792   3.697   7.198   7.619  0.0671  0.1949  0.2375
    2CHTO   H22  793   3.587   7.191   7.609  0.2625 -0.2285 -1.7855
    2CHTO    N2  794   3.730   7.324   7.546  0.4797 -0.0708  0.6291
    2CHTO   H10  795   3.641   7.383   7.528  0.4998 -0.3906 -0.5603
    2CHTO   H11  796   3.772   7.297   7.450 -1.8624 -2.1609  0.1555
    2CHTO    C7  797   3.734   7.181   7.770 -0.8371 -0.2803 -0.0852
    2CHTO   H20  798   3.637   7.207   7.818 -1.5177 -0.0461 -1.5642
    2CHTO    O4  799   3.764   7.048   7.810  0.0084  0.1594  0.1417
    2CHTO   C14  800   3.677   6.940   7.759  0.2523  0.5985 -0.4580
    2CHTO   H27  801   3.576   6.964   7.798 -0.1784 -0.2407 -1.0363
    2CHTO   C18  802   3.721   6.807   7.827  0.4086  0.1673  0.4247
    2CHTO   O13  803   3.725   6.811   7.968 -0.2162 -0.0143  0.2245
    2CHTO    H7  804   3.798   6.760   7.997  1.4387  1.2139 -1.5992
    2CHTO    O2  805   3.860   7.269   7.813  0.0672 -0.2377 -0.2373
    2CHTO    C1  806   3.848   7.313   7.950  0.1055  0.3556  0.2824
    2CHTO   H14  807   3.782   7.238   7.999 -1.3032  1.5695  0.2906
    2CHTO    C2  808   3.783   7.456   7.978  0.1827  0.3824 -0.2728
    2CHTO   H15  809   3.846   7.523   7.918  0.0490 -0.1610 -1.0274
    2CHTO    O6  810   3.651   7.457   7.917  0.0251  0.6384  0.2619
    2CHTO    H1  811   3.592   7.520   7.954 -0.1941 -0.7539  2.3451
    2CHTO    C3  812   3.777   7.492   8.138 -0.1965  0.0203  0.0275
    2CHTO   H16  813   3.699   7.432   8.186  0.0699  0.9052  1.5959
    2CHTO    N1  814   3.744   7.641   8.153  0.3756 -0.1000 -0.2119
    2CHTO    H8  815   3.698   7.647   8.250  0.5049  1.0109 -0.2051
    2CHTO    H9  816   3.832   7.704   8.157 -1.4024  2.3737  1.3765
    2CHTO    C4  817   3.915   7.457   8.203 -0.0775  0.4912 -0.4635
    2CHTO   H17  818   3.985   7.532   8.167  0.2302  1.1648  1.5000
    2CHTO    O1  819   3.952   7.319   8.165  0.2377  0.3225  0.3534
    2CHTO    C5  820   3.984   7.300   8.025  0.5557  0.0016  1.2210
    2CHTO   H18  821   4.051   7.376   7.983  2.1695 -2.3942 -0.7110
    2CHTO   C16  822   4.067   7.161   8.015 -0.3506 -0.0075  0.2197
    2CHTO   O11  823   4.140   7.156   7.893 -0.0425 -0.1919  0.3130
    2CHTO    H5  824   4.081   7.157   7.820  0.2038  1.5755  0.1204
    2CHTO    O3  825   3.913   7.449   8.348  0.1504 -0.2609 -0.3291
    2CHTO    C6  826   4.034   7.483   8.420 -0.4017 -0.6934 -0.5842
    2CHTO   H19  827   4.115   7.521   8.357  0.0792  1.0364  1.0401
    2CHTO    C8  828   3.991   7.599   8.520 -0.0501 -0.0496  0.5986
    2CHTO   H21  829   3.901   7.568   8.573 -1.3371  0.5117 -1.2248
    2CHTO    O7  830   3.971   7.706   8.432 -0.2547  0.0003 -0.3929
    2CHTO    H2  831   3.881   7.700   8.405  0.2932 -1.5025 -1.9676
    2CHTO   C12  832   4.108   7.628   8.622  0.4069 -0.1206  0.2540
    2CHTO   H25  833   4.189   7.674   8.563 -0.0536 -0.4683 -0.6529
    2CHTO    N3  834   4.067   7.731   8.722  0.1547 -0.7144  0.6423
    2CHTO   H12  835   4.150   7.768   8.781 -0.7247  3.7119 -0.7216
    2CHTO   H13  836   3.986   7.691   8.781 -0.1382 -0.7924  0.1840
    2CHTO   C15  837   4.147   7.491   8.680  0.0461 -0.1498 -0.0229
    2CHTO   H28  838   4.067   7.438   8.731 -0.0714 -2.5264 -2.5658
    2CHTO   O10  839   4.275   7.493   8.772  0.5368 -0.8974 -0.3554
    2CHTO    H4  840   4.317   7.412   8.790  0.3288 -0.9293 -0.0116
    2CHTO    O5  841   4.197   7.409   8.576  0.2574 -0.4336 -0.3268
    2CHTO   C10  842   4.084   7.365   8.497 -0.0526  0.1068  0.0473
    2CHTO   H23  843   4.011   7.320   8.565  0.5185 -1.4134 -0.3288
    2CHTO   C17  844   4.127   7.254   8.404 -0.4132  0.0360 -0.1570
    2CHTO   O12  845   4.153   7.134   8.488  0.3026 -0.7891 -0.3413
    2CHTO    H6  846   4.204   7.158   8.563  0.7581 -1.1181 -0.5449
    3CHTO  H203  847   5.464   3.814   4.143 -0.8983 -1.6828 -0.6959
    3CHTO   O82  848   5.556   3.802   4.128 -0.5858  0.0352 -0.2547
    3CHTO  C123  849   5.573   3.772   3.988 -0.2571  0.2352 -0.1910
    3CHTO  H227  850   5.497   3.825   3.928 -0.4814  1.7377  1.3954
    3CHTO   O77  851   5.708   3.808   3.942  0.0189  0.3075 -0.4211
    3CHTO  C118  852   5.729   3.784   3.803  0.0537 -0.1927 -0.2544
    3CHTO  H222  853   5.650   3.841   3.751 -1.5156 -1.4826  0.6302
    3CHTO  C125  854   5.860   3.848   3.775 -0.2791 -0.0650  0.3531
    3CHTO   O84  855   5.969   3.790   3.849  0.3397  0.4592  0.4004
    3CHTO  H205  856   6.047   3.842   3.837  0.7784  0.6217  3.3991
    3CHTO  C114  857   5.723   3.632   3.772 -0.2130 -0.3284 -0.6493
    3CHTO  H218  858   5.808   3.583   3.819 -0.1424  0.7714  0.3846
    3CHTO  C116  859   5.588   3.566   3.812  0.4838 -0.1010 -0.6033
    3CHTO  H220  860   5.520   3.598   3.731  0.4103  0.8331 -0.1782
    3CHTO   O79  861   5.605   3.426   3.801  0.3970 -0.1690 -0.4768
    3CHTO  H201  862   5.518   3.392   3.815 -0.3681  2.1786  0.8407
    3CHTO  C120  863   5.561   3.615   3.960  0.4105  0.6269  0.2477
    3CHTO  H224  864   5.642   3.559   4.012  0.9406 -0.1717 -1.3961
    3CHTO   N21  865   5.426   3.566   4.008 -0.2733 -0.7540  0.1526
    3CHTO  H211  866   5.424   3.536   4.112 -2.4491 -0.7317  0.1385
    3CHTO  H212  867   5.339   3.623   3.979  1.3844  1.4841 -0.5524
    3CHTO   O75  868   5.742   3.641   3.625  0.1525  0.3269 -0.7093
    3CHTO  C112  869   5.839   3.518   3.558  0.2954  0.7838  0.0875
    3CHTO  H216  870   5.839   3.435   3.630 -1.7327  2.0478  1.6000
    3CHTO   O73  871   5.972   3.573   3.531  0.1466 -0.4926  0.2049
    3CHTO  C113  872   6.061   3.482   3.466  0.5567 -0.0017  0.4397
    3CHTO  H217  873   6.066   3.380   3.510  0.3403  0.6371  1.9475
    3CHTO  C124  874   6.201   3.535   3.456  0.3356 -0.1473 -0.3882
    3CHTO   O83  875   6.252   3.555   3.584 -0.0500 -0.1288 -0.7843
    3CHTO  H204  876   6.345   3.565   3.579 -0.0428  0.0840 -0.2359
    3CHTO  C109  877   6.007   3.445   3.333 -0.2956  0.6537  0.6594
    3CHTO  H213  878   6.000   3.536   3.272  1.5281 -0.3870 -1.1968
    3CHTO  C110  879   5.872   3.383   3.340 -0.2285  0.8048  0.5911
    3CHTO  H214  880   5.860   3.282   3.379  0.0420  0.4244 -0.3163
    3CHTO   O78  881   5.830   3.355   3.205  0.5065  0.1007  0.0219
    3CHTO  H200  882   5.785   3.426   3.163 -1.9394 -2.5458 -2.0476
    3CHTO  C111  883   5.772   3.471   3.417  0.3850 -0.1236  0.0558
    3CHTO  H215  884   5.753   3.565   3.363  2.2727  0.4914  0.4084
    3CHTO   N19  885   5.638   3.403   3.441 -0.0864  0.0777  0.8066
    3CHTO  H207  886   5.563   3.456   3.384  1.7651 -0.3433 -2.1259
    3CHTO  H208  887   5.639   3.297   3.426 -0.9496  0.3088 -0.9598
    3CHTO   O74  888   6.103   3.347   3.267 -0.3961 -0.1888  0.2880
    3CHTO  C115  889   6.167   3.422   3.132  0.2044 -0.2640  0.0668
    3CHTO  H219  890   6.160   3.531   3.142 -3.2199 -0.3438 -0.9417
    3CHTO   O76  891   6.317   3.402   3.122 -0.2823  0.0894 -0.1252
    3CHTO  C122  892   6.359   3.270   3.111  0.3864 -0.0278  0.7765
    3CHTO  H226  893   6.368   3.221   3.208  0.2180 -0.2241  0.6944
    3CHTO  C126  894   6.502   3.276   3.050  0.2163 -0.6976 -0.5839
    3CHTO   O85  895   6.606   3.334   3.135  0.5097 -0.1547  0.1794
    3CHTO  H206  896   6.626   3.278   3.207 -1.2353  0.3359  1.0628
    3CHTO  C121  897   6.273   3.174   3.014  0.2920 -0.5355  0.4614
    3CHTO  H225  898   6.343   3.118   2.949  1.6777  1.0449  0.5436
    3CHTO   O81  899   6.192   3.082   3.092  0.2435  0.1649 -0.0404
    3CHTO  H202  900   6.103   3.080   3.061  0.4766  1.1137 -0.7838
    3CHTO  C119  901   6.185   3.272   2.923  0.7906 -0.7461 -0.0070
    3CHTO  H223  902   6.264   3.325   2.868 -1.2733  0.8524 -1.5589
    3CHTO  C117  903   6.097   3.382   2.993 -0.0602  0.6967 -0.4105
    3CHTO  H221  904   5.997   3.360   3.031  0.2212  0.9946  0.5229
    3CHTO   N20  905   6.072   3.497   2.906 -0.2289 -0.1505  0.2470
    3CHTO  H209  906   6.167   3.521   2.861 -0.0417  0.3440  0.8939
    3CHTO  H210  907   6.041   3.582   2.965  0.9476  0.7469 -0.4090
    3CHTO   O80  908   6.107   3.197   2.807  0.2414 -0.3787 -0.5155
    3CHTO  C103  909   6.031   3.091   2.827  0.0050 -0.1599 -0.7669
    3CHTO  H190  910   6.031   3.051   2.928 -1.2095 -1.9363 -1.4553
    3CHTO  C101  911   5.875   3.128   2.816 -0.1279 -0.1610  0.4035
    3CHTO  H188  912   5.858   3.181   2.723  1.5103 -0.4225 -0.0596
    3CHTO   O68  913   5.842   3.224   2.931 -0.2345  0.1207  0.1651
    3CHTO  H168  914   5.758   3.197   2.964 -0.4814  0.2901 -0.3107
    3CHTO   C99  915   5.788   2.998   2.812  0.3698 -0.8904 -0.3704
    3CHTO  H186  916   5.794   2.942   2.908  1.1087  0.7222  0.5582
    3CHTO   N17  917   5.637   3.005   2.801  0.1647 -0.4503 -0.0172
    3CHTO  H174  918   5.603   3.046   2.708  1.5445 -1.0215 -0.7898
    3CHTO  H175  919   5.590   3.054   2.885 -0.5763  0.1867 -0.7921
    3CHTO   C97  920   5.844   2.903   2.704  0.2043  0.3494  0.5706
    3CHTO  H184  921   5.825   2.946   2.605  1.0477  0.0131  0.2626
    3CHTO   O64  922   5.985   2.863   2.726  0.0905  0.2037  0.2760
    3CHTO  C104  923   6.077   2.977   2.725 -0.1727 -1.0945  0.2011
    3CHTO  H191  924   6.074   3.017   2.623  0.7426 -3.1142 -0.6599
    3CHTO  C108  925   6.218   2.935   2.754 -0.3460 -0.0283 -0.4484
    3CHTO   O71  926   6.301   3.042   2.724  0.3673 -0.3363  0.5858
    3CHTO  H171  927   6.320   3.090   2.803  0.8553  0.7838 -0.1914
    3CHTO   O62  928   5.783   2.774   2.718 -0.2727  0.1064  0.4094
    3CHTO   C91  929   5.758   2.691   2.609  0.8215  0.7144 -1.0568
    3CHTO  H178  930   5.751   2.754   2.520  1.3372 -1.3778 -2.6455
    3CHTO   C92  931   5.614   2.625   2.625 -0.4857  0.0532  0.0572
    3CHTO  H179  932   5.607   2.578   2.724  0.0632  0.0432  0.0939
    3CHTO   O66  933   5.516   2.724   2.606 -0.6076 -0.8379 -0.2788
    3CHTO  H166  934   5.533   2.801   2.657 -1.0675 -1.5351  0.9505
    3CHTO   C93  935   5.609   2.514   2.518  0.9072 -0.3818  0.2816
    3CHTO  H180  936   5.629   2.556   2.419 -1.1915  0.0001 -0.0048
    3CHTO   N16  937   5.473   2.458   2.498  0.3525 -0.2453 -0.8031
    3CHTO  H172  938   5.458   2.385   2.420 -0.5717 -0.4082 -0.4857
    3CHTO  H173  939   5.435   2.429   2.595 -0.6863  1.6072 -0.6384
    3CHTO   C94  940   5.715   2.400   2.538 -0.8193 -0.3633  0.3444
    3CHTO  H181  941   5.684   2.323   2.608 -0.0992  0.0419  1.1282
    3CHTO   O61  942   5.824   2.452   2.608  0.0936 -0.2102 -0.7808
    3CHTO   C95  943   5.871   2.587   2.590 -0.2636 -0.5605 -0.2040
    3CHTO  H182  944   5.945   2.607   2.668 -0.0769 -0.8280 -0.3099
    3CHTO  C106  945   5.943   2.616   2.448  0.7734  0.3634  0.0554
    3CHTO   O69  946   6.045   2.718   2.451 -0.0110  0.2356 -0.0029
    3CHTO  H169  947   6.122   2.682   2.411 -1.1222  0.2587 -2.2190
    3CHTO   O63  948   5.771   2.335   2.406 -0.1222  0.1844 -0.3093
    3CHTO   C96  949   5.691   2.254   2.331 -0.0305  0.0483  0.4025
    3CHTO  H183  950   5.591   2.296   2.342 -0.6993 -1.5908  0.8280
    3CHTO   C98  951   5.691   2.099   2.358  0.7733  0.3605 -0.2298
    3CHTO  H185  952   5.796   2.072   2.343  0.5314 -1.6071  1.4388
    3CHTO   O67  953   5.663   2.066   2.493 -0.5603 -0.1101 -0.2601
    3CHTO  H167  954   5.737   2.093   2.545 -1.1513  1.2861 -0.1101
    3CHTO  C102  955   5.589   2.026   2.257  0.6019 -0.5879 -0.3697
    3CHTO  H189  956   5.492   2.035   2.308  1.3980  2.0676  0.8053
    3CHTO   N18  957   5.615   1.880   2.237  0.1985  0.2725 -0.5947
    3CHTO  H176  958   5.718   1.856   2.254  0.1202  0.9142  0.8801
    3CHTO  H177  959   5.564   1.830   2.156 -0.3316 -1.3066  0.6762
    3CHTO  C105  960   5.564   2.102   2.124  0.0469  0.0087  0.1833
    3CHTO  H192  961   5.527   2.037   2.045  0.4449  0.8176 -0.6780
    3CHTO   O65  962   5.676   2.183   2.080  0.1812 -0.5043 -0.0444
    3CHTO  C100  963   5.736   2.268   2.182  0.4980  0.4009 -0.5446
    3CHTO  H187  964   5.845   2.255   2.177  0.5021 -0.3639  1.1690
    3CHTO  C107  965   5.734   2.419   2.138 -0.1828  0.1410  0.5625
    3CHTO   O70  966   5.819   2.446   2.022  0.0693  0.1271 -0.2114
    3CHTO  H170  967   5.888   2.383   2.026 -0.8015 -0.6932  2.4649
    3CHTO   O57  968   5.444   2.186   2.162 -0.0271  0.2077  0.6485
    3CHTO   C85  969   5.370   2.241   2.054  0.9144 -0.6210  0.0569
    3CHTO  H157  970   5.426   2.219   1.961 -1.1163  2.7140 -2.0536
    3CHTO   C83  971   5.370   2.395   2.060  0.1746 -0.8021 -0.5000
    3CHTO  H155  972   5.474   2.428   2.049 -0.3501  0.6609 -1.3142
    3CHTO   O56  973   5.326   2.439   2.187  0.3390  0.4747 -0.1613
    3CHTO  H135  974   5.363   2.524   2.205  0.9138  0.3545 -0.7886
    3CHTO   C81  975   5.285   2.456   1.947  0.0309  0.4360  0.1081
    3CHTO  H153  976   5.322   2.414   1.854 -0.3698  0.0754  0.1118
    3CHTO   N14  977   5.302   2.603   1.937  0.6152 -0.1370 -0.1522
    3CHTO  H141  978   5.339   2.631   2.034 -2.3501  0.6152  0.8144
    3CHTO  H142  979   5.204   2.646   1.930  0.4710 -0.1320  1.7196
    3CHTO   C79  980   5.133   2.405   1.966  0.1938 -0.1542 -0.0911
    3CHTO  H151  981   5.081   2.437   1.876  1.1564 -2.9919 -1.7350
    3CHTO   O52  982   5.124   2.258   1.964 -0.1461  0.3580 -0.1414
    3CHTO   C86  983   5.221   2.181   2.042 -0.0981 -1.2392  0.0128
    3CHTO  H158  984   5.171   2.176   2.141 -3.1400  1.0162 -1.3409
    3CHTO   C90  985   5.220   2.037   1.986 -0.2815  0.3841 -0.3460
    3CHTO   O60  986   5.274   1.954   2.091 -0.0673  0.0767 -0.2027
    3CHTO  H138  987   5.246   1.865   2.082  1.2355 -0.4025  0.2668
    3CHTO   O50  988   5.066   2.455   2.085  0.0440  0.0449  0.4328
    3CHTO   C73  989   4.927   2.482   2.094 -0.0962 -0.1844 -0.0611
    3CHTO  H145  990   4.868   2.410   2.036 -0.0485 -1.2718  1.2126
    3CHTO   C74  991   4.900   2.625   2.039  0.4043  0.2522 -0.1597
    3CHTO  H146  992   4.933   2.622   1.935 -0.7629 -1.9025 -0.5033
    3CHTO   O54  993   4.760   2.637   2.028 -0.2714 -0.3862 -0.1460
    3CHTO  H133  994   4.750   2.689   1.950 -0.4341  1.7930  1.2890
    3CHTO   C75  995   4.970   2.732   2.123  0.5642  0.3039  0.6186
    3CHTO  H147  996   5.078   2.713   2.117  0.1469 -2.1660  0.6422
    3CHTO   N13  997   4.955   2.875   2.076  0.5422 -0.3286 -0.0971
    3CHTO  H139  998   4.856   2.902   2.045 -0.1342  0.2865  2.4859
    3CHTO  H140  999   4.986   2.938   2.158 -0.2481 -0.1824  0.0857
    3CHTO   C76 1000   4.929   2.710   2.278 -0.0572 -0.9376 -0.4478
    3CHTO  H148 1001   4.824   2.739   2.283  0.8947  2.8138 -0.4206
    3CHTO   O49 1002   4.937   2.574   2.325 -0.9999 -0.1570 -0.8468
    3CHTO   C77 1003   4.878   2.472   2.243 -0.5989 -0.2191 -0.6580
    3CHTO  H149 1004   4.770   2.479   2.248 -0.6227  0.0251 -1.4815
    3CHTO   C88 1005   4.910   2.333   2.308  0.3354 -1.1701  0.6315
    3CHTO   O58 1006   4.864   2.229   2.228  0.2787 -0.3948  0.6487
    3CHTO  H136 1007   4.794   2.183   2.269  0.4535 -1.4494 -0.2004
    3CHTO   O51 1008   5.021   2.795   2.370 -0.0174 -0.4973 -0.1402
    3CHTO   C78 1009   4.947   2.859   2.490 -0.0843 -0.1727  0.2340
    3CHTO  H150 1010   4.877   2.784   2.531  1.3506 -1.4355  0.4246
    3CHTO   C80 1011   4.879   2.989   2.458  0.2763 -0.1251 -0.0934
    3CHTO  H152 1012   4.955   3.065   2.429 -0.5066  1.0719  0.9539
    3CHTO   O55 1013   4.793   2.992   2.346 -0.5655 -0.1823 -0.3469
    3CHTO  H134 1014   4.849   2.981   2.272 -1.2480 -0.6163 -0.8050
    3CHTO   C84 1015   4.803   3.048   2.588  0.1114 -0.3824 -0.3730
    3CHTO  H156 1016   4.724   2.982   2.622  0.4971 -0.4858  0.3286
    3CHTO   N15 1017   4.733   3.175   2.568  0.1314  0.0803 -0.1102
    3CHTO  H143 1018   4.794   3.260   2.545 -0.8436  0.6251 -0.7245
    3CHTO  H144 1019   4.662   3.168   2.488 -0.0195 -0.7656  0.0960
    3CHTO   C87 1020   4.898   3.064   2.702  0.2293 -0.2420  0.1449
    3CHTO  H159 1021   4.974   3.138   2.677 -1.3264  1.0258 -1.0021
    3CHTO   O53 1022   4.963   2.923   2.729 -0.3546 -0.5641 -0.3304
    3CHTO   C82 1023   5.039   2.883   2.614  0.2645  0.4486  0.4926
    3CHTO  H154 1024   5.115   2.958   2.590  0.7428 -0.3788 -0.6389
    3CHTO   C89 1025   5.109   2.756   2.664 -0.0507 -0.0781  0.2951
    3CHTO   O59 1026   5.178   2.685   2.557 -0.0263 -0.6531  0.1170
    3CHTO  H137 1027   5.237   2.750   2.523  1.4309 -1.7184  0.5869
    3CHTO   O45 1028   4.815   3.109   2.847 -0.1975  0.1692 -0.0114
    3CHTO   C67 1029   4.908   3.114   2.963  0.1368 -0.2431  0.2076
    3CHTO  H124 1030   4.994   3.051   2.943 -0.8194 -1.5001 -0.0183
    3CHTO   C65 1031   4.952   3.262   3.009  0.6721 -0.0106  0.8654
    3CHTO  H122 1032   4.892   3.334   2.952 -1.1861 -2.3272 -0.1988
    3CHTO   O44 1033   5.088   3.273   2.967  0.5132 -0.1200  0.2257
    3CHTO  H102 1034   5.098   3.284   2.874 -3.0779 -0.0043 -0.2172
    3CHTO   C63 1035   4.916   3.293   3.157  0.0017 -0.0183  1.0353
    3CHTO  H120 1036   4.808   3.301   3.169 -0.0124 -0.2805  1.0796
    3CHTO   N11 1037   4.955   3.433   3.202 -0.1213 -0.0771 -0.4623
    3CHTO  H108 1038   4.885   3.509   3.177  0.3766  0.3513 -0.5752
    3CHTO  H109 1039   5.040   3.464   3.144  0.0509 -0.1284 -0.2409
    3CHTO   C61 1040   4.965   3.172   3.246 -0.2764  0.5884 -0.4298
    3CHTO  H118 1041   4.922   3.184   3.346  1.5867 -2.3352  0.7915
    3CHTO   O40 1042   4.917   3.043   3.200 -0.1710 -0.1289 -0.3086
    3CHTO   C68 1043   4.842   3.044   3.075 -0.1164  0.2505 -0.3654
    3CHTO  H125 1044   4.745   3.092   3.098  0.6661  1.2182  0.9669
    3CHTO   C72 1045   4.802   2.900   3.038  0.2189 -0.4102 -0.3592
    3CHTO   O48 1046   4.920   2.817   3.025 -0.0098  0.0590 -0.4226
    3CHTO  H105 1047   4.969   2.802   3.103  0.1321 -0.3926 -0.5907
    3CHTO   O38 1048   5.108   3.165   3.255  0.8438  0.3754  0.0605
    3CHTO   C55 1049   5.159   3.104   3.375 -0.6350 -0.5309 -0.1353
    3CHTO  H112 1050   5.088   3.031   3.417  0.1909 -1.9987 -1.2605
    3CHTO   C56 1051   5.195   3.221   3.476  0.7018  0.0360  0.4076
    3CHTO  H113 1052   5.246   3.291   3.409  0.6683  0.6466  1.0138
    3CHTO   O42 1053   5.079   3.281   3.527  0.6693  0.0435 -0.0698
    3CHTO  H100 1054   5.088   3.343   3.596  1.0333  0.7460 -0.7475
    3CHTO   C57 1055   5.286   3.168   3.592 -0.5570  0.0645  0.8225
    3CHTO  H114 1056   5.223   3.101   3.651 -0.9592  0.1842  0.5260
    3CHTO   N10 1057   5.339   3.275   3.675 -0.0711  0.1806  0.8534
    3CHTO  H106 1058   5.355   3.362   3.613 -2.8268 -0.9667 -1.5889
    3CHTO  H107 1059   5.272   3.303   3.754 -0.0080  0.2911  0.8673
    3CHTO   C58 1060   5.402   3.077   3.540  0.4759 -0.1585 -0.8397
    3CHTO  H115 1061   5.475   3.137   3.481  0.9120 -0.6824 -0.8460
    3CHTO   O37 1062   5.347   2.978   3.447 -0.9910  0.2923 -0.0032
    3CHTO   C59 1063   5.278   3.031   3.334 -0.2176  0.0796 -0.7586
    3CHTO  H116 1064   5.353   3.083   3.273 -1.3812  1.9568 -0.6156
    3CHTO   C70 1065   5.239   2.913   3.244  0.6355  0.4352  0.4237
    3CHTO   O46 1066   5.182   2.950   3.115  0.0067  0.3984 -0.2067
    3CHTO  H103 1067   5.174   2.871   3.064 -4.7930  0.8411 -0.4131
    3CHTO   O39 1068   5.466   2.980   3.639 -0.1263 -0.0054  0.1015
    3CHTO   C60 1069   5.605   2.970   3.611  0.2938 -0.3612  0.6929
    3CHTO  H117 1070   5.623   2.978   3.504 -0.1222 -1.0351  0.5724
    3CHTO   C62 1071   5.692   3.069   3.694  0.3591 -0.7593  0.5661
    3CHTO  H119 1072   5.668   3.172   3.663  0.7905 -0.6411  0.6164
    3CHTO   O43 1073   5.666   3.050   3.834 -0.0401  0.3755 -0.3199
    3CHTO  H101 1074   5.575   3.064   3.848 -1.0571 -2.4863 -3.2284
    3CHTO   C66 1075   5.850   3.052   3.668 -0.5630  0.1799  0.7732
    3CHTO  H123 1076   5.871   3.061   3.562  0.1274 -2.3912  0.6822
    3CHTO   N12 1077   5.930   3.160   3.733 -0.2972 -0.4816 -0.0594
    3CHTO  H110 1078   6.031   3.135   3.703 -0.8367 -1.1640 -1.3516
    3CHTO  H111 1079   5.909   3.255   3.684  0.7956 -1.0026 -1.5986
    3CHTO   C69 1080   5.886   2.907   3.708 -0.1699  0.6697 -0.1532
    3CHTO  H126 1081   5.871   2.901   3.818 -1.3883  2.5067 -0.1889
    3CHTO   O41 1082   5.786   2.805   3.630 -0.3069  0.2550 -0.1209
    3CHTO   C64 1083   5.648   2.822   3.653  0.5510 -0.5137 -0.1412
    3CHTO  H121 1084   5.629   2.814   3.763  1.6997  1.2841  0.2144
    3CHTO   C71 1085   5.568   2.712   3.580 -0.2584  0.4931  0.7216
    3CHTO   O47 1086   5.569   2.725   3.434 -0.1143  0.3258  0.1370
    3CHTO  H104 1087   5.488   2.694   3.398 -0.2774  1.2750 -0.3394
    3CHTO   O34 1088   6.034   2.872   3.670  0.6009 -0.1663  0.9537
    3CHTO   C49 1089   6.130   2.824   3.555 -0.5698  0.0029 -0.2053
    3CHTO   H91 1090   6.231   2.837   3.592 -0.0664 -0.3714 -1.4050
    3CHTO   C47 1091   6.110   2.908   3.424  0.0358 -0.4578  0.2144
    3CHTO   H89 1092   6.194   2.885   3.355  0.4188  2.0533 -0.1828
    3CHTO   O33 1093   6.130   3.047   3.456  0.7050  0.3480  0.3407
    3CHTO   H70 1094   6.138   3.100   3.379 -1.5446  0.9305  0.4566
    3CHTO   C45 1095   5.965   2.872   3.359 -0.3375  0.4548 -0.2199
    3CHTO   H87 1096   5.886   2.882   3.436  0.1889 -0.1429  0.4020
    3CHTO    N8 1097   5.930   2.961   3.250  0.3829 -0.3075  0.3255
    3CHTO   H75 1098   5.986   2.932   3.162  3.3250  0.2247  1.9498
    3CHTO   H76 1099   5.962   3.060   3.277  1.7844 -0.8241  0.6229
    3CHTO   C43 1100   5.957   2.713   3.328 -0.4611  0.0906  0.2289
    3CHTO   H85 1101   5.856   2.691   3.294  0.1803  0.3074 -1.8782
    3CHTO   O29 1102   5.992   2.639   3.451 -0.7269 -0.2641  0.3044
    3CHTO   C50 1103   6.112   2.672   3.528 -0.0745 -0.6704 -0.2381
    3CHTO   H92 1104   6.113   2.626   3.628 -1.8716 -1.4189 -0.5395
    3CHTO   C54 1105   6.247   2.616   3.475 -0.6094 -0.5145  0.4458
    3CHTO   O36 1106   6.251   2.480   3.470  0.3725  0.2557  0.9307
    3CHTO   H72 1107   6.265   2.452   3.558  0.5136  0.1930  0.8867
    3CHTO   O27 1108   6.045   2.675   3.219 -0.3673  0.6778 -0.0230
    3CHTO   C37 1109   6.075   2.554   3.151 -0.1123  0.1298  0.8821
    3CHTO   H79 1110   6.129   2.487   3.218 -2.0017 -2.7406 -0.3811
    3CHTO   C38 1111   5.940   2.492   3.101 -0.4335  0.1358 -0.2734
    3CHTO   H80 1112   5.884   2.566   3.042 -0.0189 -1.4539 -2.7334
    3CHTO   O31 1113   5.869   2.450   3.218  0.2469  0.4963  0.0649
    3CHTO   H68 1114   5.837   2.525   3.263 -2.1608 -1.3383  1.5334
    3CHTO   C39 1115   5.959   2.367   3.002 -0.6588 -0.3099  0.4759
    3CHTO   H81 1116   6.011   2.287   3.055  0.8599 -0.1216 -0.7122
    3CHTO    N7 1117   5.833   2.325   2.936 -0.0951 -0.1529  0.0353
    3CHTO   H73 1118   5.852   2.239   2.873  1.7129  0.3342 -0.1133
    3CHTO   H74 1119   5.766   2.291   3.013  1.8283 -1.0297  1.3664
    3CHTO   C40 1120   6.067   2.402   2.893  0.6060 -0.5060 -0.0991
    3CHTO   H82 1121   6.021   2.477   2.828  0.2854 -1.7452 -1.3233
    3CHTO   O26 1122   6.186   2.450   2.962 -0.2091  0.4467  1.0006
    3CHTO   C41 1123   6.162   2.582   3.027  0.4110  0.1123  0.4946
    3CHTO   H83 1124   6.111   2.654   2.962 -1.2434  0.2617  1.9392
    3CHTO   C52 1125   6.305   2.633   3.066  0.9433  0.0279 -0.0864
    3CHTO   O35 1126   6.410   2.614   2.955 -0.0435 -0.3459  0.6373
    3CHTO   H71 1127   6.489   2.581   2.993  0.3697 -0.4886 -0.3196
    3CHTO   O28 1128   6.119   2.284   2.827  1.3985 -0.6784 -0.3099
    3CHTO   C42 1129   6.186   2.279   2.698  0.2283 -0.5008  0.5168
    3CHTO   H84 1130   6.273   2.216   2.715  1.3938  0.7429 -0.7155
    3CHTO   C44 1131   6.246   2.414   2.637  0.8262  0.0074 -0.3577
    3CHTO   H86 1132   6.166   2.481   2.607  2.2094  2.3871  1.1613
    3CHTO   O32 1133   6.339   2.480   2.725 -0.0786 -0.9393  0.2994
    3CHTO   H69 1134   6.294   2.508   2.803  2.4989  0.4971  1.3343
    3CHTO   C48 1135   6.322   2.377   2.506  1.3749 -0.0778 -0.6258
    3CHTO   H90 1136   6.403   2.314   2.541  2.0375  1.1716  0.1000
    3CHTO    N9 1137   6.374   2.489   2.422 -0.1705 -0.5042 -0.4165
    3CHTO   H77 1138   6.458   2.528   2.476 -1.9622  1.0067  1.3749
    3CHTO   H78 1139   6.296   2.559   2.398 -0.0612 -0.1923  0.1290
    3CHTO   C51 1140   6.229   2.278   2.416  0.5056  0.2235  0.1093
    3CHTO   H93 1141   6.145   2.335   2.375 -0.3621 -0.7528  0.5125
    3CHTO   O30 1142   6.180   2.164   2.488 -0.0004  0.0822 -0.3934
    3CHTO   C46 1143   6.098   2.208   2.592 -0.1463 -0.3202  0.0477
    3CHTO   H88 1144   6.023   2.274   2.550  1.0008 -0.9401 -3.1338
    3CHTO   C53 1145   6.032   2.079   2.644  0.5432 -0.6782  0.1754
    3CHTO   O72 1146   6.110   1.960   2.651 -0.0641 -0.5829  0.0260
    3CHTO  H199 1147   6.091   1.911   2.728 -0.3095 -2.6218 -1.2916
    3CHTO   O22 1148   6.303   2.223   2.305 -0.4313  0.1165  0.5874
    3CHTO   C31 1149   6.244   2.173   2.178 -0.9241 -0.2421 -0.3510
    3CHTO   H59 1150   6.331   2.149   2.114 -1.4563 -0.4107 -1.0161
    3CHTO   C29 1151   6.162   2.045   2.194 -0.2878 -0.1912 -0.4604
    3CHTO   H57 1152   6.075   2.076   2.254  0.3076  0.4731  0.0708
    3CHTO   O21 1153   6.243   1.947   2.275 -0.1917  0.1523  0.3297
    3CHTO   H37 1154   6.186   1.889   2.322  2.5069 -2.6689  0.2283
    3CHTO   C27 1155   6.107   1.985   2.061 -0.0534 -0.0874  0.4461
    3CHTO   H55 1156   6.193   1.959   1.997 -0.1537  0.5765  0.0335
    3CHTO    N5 1157   6.016   1.870   2.074  0.1799 -0.3321  0.9665
    3CHTO   H43 1158   6.047   1.827   2.168 -1.0534  0.3805  1.7221
    3CHTO   H44 1159   6.045   1.798   2.000 -0.3788 -0.2671  0.6750
    3CHTO   C25 1160   6.034   2.094   1.981  0.0723  0.6555 -0.2791
    3CHTO   H53 1161   5.940   2.117   2.034  0.3135 -0.2951  0.5872
    3CHTO   O17 1162   6.118   2.224   1.975 -0.5101  0.0648  0.3277
    3CHTO   C32 1163   6.160   2.281   2.104  0.1251 -0.3278 -0.6783
    3CHTO   H60 1164   6.072   2.301   2.165  1.5387  0.5189  1.1168
    3CHTO   C36 1165   6.227   2.423   2.083  0.0494 -0.1216 -0.3685
    3CHTO   O25 1166   6.328   2.428   1.985  0.0420 -0.0741  0.8867
    3CHTO   H40 1167   6.351   2.516   1.961 -2.1027  0.8552  2.0686
    3CHTO   O15 1168   6.025   2.058   1.845  0.0918  0.7958  0.1919
    3CHTO   C19 1169   5.926   2.082   1.744  0.0731 -0.3700 -0.0030
    3CHTO   H47 1170   5.963   2.033   1.653  1.4620  0.5527  0.0451
    3CHTO   C20 1171   5.783   2.031   1.781  0.1192 -0.0922  0.1977
    3CHTO   H48 1172   5.746   2.080   1.872  1.3538  1.5656 -0.1774
    3CHTO   O19 1173   5.794   1.889   1.790 -0.2186 -0.1025 -0.2337
    3CHTO   H35 1174   5.849   1.852   1.723 -0.7267  2.5949 -2.2020
    3CHTO   C21 1175   5.677   2.066   1.676  0.4108  0.2457  0.7977
    3CHTO   H49 1176   5.698   2.009   1.586 -1.2590 -1.4744  1.4759
    3CHTO    N4 1177   5.541   2.015   1.709 -0.4984 -0.2708 -0.1696
    3CHTO   H41 1178   5.505   2.045   1.806 -0.6618  3.6380 -1.3674
    3CHTO   H42 1179   5.549   1.908   1.703 -1.4242 -0.2130 -3.1601
    3CHTO   C22 1180   5.682   2.217   1.644 -0.8476 -1.1990 -1.0380
    3CHTO   H50 1181   5.657   2.269   1.736  0.2453 -0.9661 -0.8572
    3CHTO   O14 1182   5.812   2.254   1.596 -0.5858  0.2966  0.3571
    3CHTO   C23 1183   5.904   2.233   1.702 -0.4824  0.2357  0.6537
    3CHTO   H51 1184   5.876   2.295   1.788 -2.2319 -0.2723  0.4758
    3CHTO   C34 1185   6.042   2.296   1.670 -0.2854 -0.0484  0.3785
    3CHTO   O23 1186   6.024   2.431   1.630  0.0709  0.0792  0.2873
    3CHTO   H38 1187   6.107   2.466   1.603 -0.1914 -0.0395 -0.6976
    3CHTO   O16 1188   5.595   2.259   1.537 -0.0293 -0.1944 -0.0783
    3CHTO   C24 1189   5.459   2.360   1.587 -0.2967  0.5803  0.5411
    3CHTO   H52 1190   5.435   2.351   1.693 -1.1923  0.5441  0.3431
    3CHTO   C26 1191   5.327   2.324   1.518  0.3917  0.3242 -0.3743
    3CHTO   H54 1192   5.345   2.324   1.409  0.0990 -0.8794 -0.4288
    3CHTO   O20 1193   5.276   2.202   1.565  0.2557 -0.7394 -0.1178
    3CHTO   H36 1194   5.194   2.190   1.522  0.3204  1.7314 -0.9837
    3CHTO   C30 1195   5.214   2.436   1.539 -0.6782  0.5478  1.3432
    3CHTO   H58 1196   5.170   2.432   1.640 -0.4693 -1.2341  1.3803
    3CHTO    N6 1197   5.094   2.406   1.450  0.1366  0.2431  0.1925
    3CHTO   H45 1198   5.069   2.494   1.392  0.5779 -0.2108 -0.6972
    3CHTO   H46 1199   5.011   2.377   1.513 -1.0290 -1.5347 -2.0368
    3CHTO   C33 1200   5.278   2.578   1.504 -0.2382  0.2004  0.5951
    3CHTO   H61 1201   5.310   2.579   1.399  1.9646 -0.7951  1.2149
    3CHTO   O18 1202   5.397   2.597   1.589 -0.2199  1.0797  0.0948
    3CHTO   C28 1203   5.507   2.504   1.564 -0.0873  0.7946 -0.6484
    3CHTO   H56 1204   5.550   2.508   1.464  0.9479 -1.1039 -0.2871
    3CHTO   C35 1205   5.637   2.536   1.650 -0.2916 -0.0628  0.0284
    3CHTO   O24 1206   5.610   2.524   1.796 -0.0435  0.9569  0.6241
    3CHTO   H39 1207   5.694   2.512   1.837 -0.4678 -1.7160  0.7454
    3CHTO    O9 1208   5.189   2.686   1.519 -0.1197 -0.1594  0.1042
    3CHTO   C13 1209   5.200   2.843   1.444 -0.9891  0.3673 -0.5998
    3CHTO   H26 1210   5.108   2.851   1.384 -0.1127 -2.3253 -2.3674
    3CHTO   C11 1211   5.331   2.845   1.353  0.3048 -0.0175 -0.3849
    3CHTO   H24 1212   5.319   2.762   1.282  0.3341 -0.8262  0.5470
    3CHTO    O8 1213   5.451   2.809   1.425 -0.7986 -0.1215  0.6566
    3CHTO    H3 1214   5.454   2.717   1.440 -1.5454 -0.2729 -0.0791
    3CHTO    C9 1215   5.338   2.988   1.284  0.0555  0.5928  0.5982
    3CHTO   H22 1216   5.247   3.003   1.224 -1.4615 -1.4152  2.3326
    3CHTO    N2 1217   5.441   3.005   1.180  0.3319 -0.7589  0.2680
    3CHTO   H10 1218   5.532   3.022   1.236  0.1999  0.0537  0.2438
    3CHTO   H11 1219   5.420   3.100   1.134 -3.2871 -0.4162  2.4735
    3CHTO    C7 1220   5.349   3.093   1.404  0.5319 -0.4648  0.4121
    3CHTO   H20 1221   5.349   3.193   1.356 -0.2199 -0.7200 -0.1199
    3CHTO    O4 1222   5.234   3.088   1.496  0.2204  0.4140  0.1921
    3CHTO   C14 1223   5.197   2.957   1.547 -0.7098 -0.0710 -0.4673
    3CHTO   H27 1224   5.095   2.956   1.591  0.2147 -2.3134  1.7463
    3CHTO   C18 1225   5.291   2.922   1.665 -0.3653  0.2956  0.1563
    3CHTO   O13 1226   5.241   2.990   1.781  0.2034  0.1866 -0.0984
    3CHTO    H7 1227   5.228   3.082   1.771 -0.6832  0.1303  0.5236
    3CHTO    O2 1228   5.512   3.083   1.496  0.5040 -0.4374  0.5530
    3CHTO    C1 1229   5.533   3.190   1.592  0.6475  0.1819  0.4998
    3CHTO   H14 1230   5.451   3.192   1.667  1.5258  3.6343  1.4793
    3CHTO    C2 1231   5.534   3.332   1.526 -0.8812 -0.3481 -0.0990
    3CHTO   H15 1232   5.597   3.323   1.436 -2.8744 -2.0769 -1.3913
    3CHTO    O6 1233   5.400   3.375   1.485 -0.1789 -0.1005 -0.3545
    3CHTO    H1 1234   5.367   3.316   1.420  0.1703 -1.0659  0.3344
    3CHTO    C3 1235   5.592   3.438   1.635  0.6323  0.7115 -0.9001
    3CHTO   H16 1236   5.516   3.437   1.715  2.6448  0.1341  1.0482
    3CHTO    N1 1237   5.610   3.582   1.581  0.2411  0.0957  0.0303
    3CHTO    H8 1238   5.679   3.586   1.497  0.6698 -0.1392  0.3711
    3CHTO    H9 1239   5.528   3.651   1.572  0.7973  0.4390 -3.0804
    3CHTO    C4 1240   5.722   3.388   1.705  0.5859 -0.1148 -0.3647
    3CHTO   H17 1241   5.802   3.393   1.631  0.4554  0.0526 -0.4939
    3CHTO    O1 1242   5.709   3.256   1.753 -0.6024 -0.1384  0.0180
    3CHTO    C5 1243   5.665   3.152   1.661  0.3863  0.5325 -0.7379
    3CHTO   H18 1244   5.737   3.153   1.578 -0.5704 -0.7769 -1.5911
    3CHTO   C16 1245   5.655   3.014   1.727  0.2298  0.8146 -0.2938
    3CHTO   O11 1246   5.784   2.972   1.753  0.4827  0.0788  0.1250
    3CHTO    H5 1247   5.786   2.921   1.832 -1.2864 -0.7930 -0.3523
    3CHTO    O3 1248   5.740   3.468   1.825 -0.0488 -0.1699 -0.4396
    3CHTO    C6 1249   5.878   3.501   1.851 -0.3367  0.6568  0.1008
    3CHTO   H19 1250   5.954   3.465   1.782  1.7899  2.4052  1.4833
    3CHTO    C8 1251   5.903   3.657   1.851 -0.0864  0.1961 -0.4397
    3CHTO   H21 1252   5.837   3.701   1.925  0.1237 -2.0009  1.1181
    3CHTO    O7 1253   5.860   3.712   1.726 -0.1090  0.2323  0.4844
    3CHTO    H2 1254   5.893   3.799   1.720  1.2063 -0.0509  2.9168
    3CHTO   C12 1255   6.057   3.680   1.884  0.6776 -0.1384  0.1461
    3CHTO   H25 1256   6.113   3.636   1.799  2.6584 -1.7451  2.2109
    3CHTO    N3 1257   6.090   3.821   1.880  0.3542 -0.1312  0.2943
    3CHTO   H12 1258   6.161   3.849   1.957 -0.7026 -1.1188  1.6373
    3CHTO   H13 1259   6.140   3.839   1.786  1.0864 -2.9736  0.1078
    3CHTO   C15 1260   6.089   3.607   2.021 -0.1094 -0.3283  0.3067
    3CHTO   H28 1261   6.049   3.653   2.111  1.4416  1.6847  0.0058
    3CHTO   O10 1262   6.254   3.588   2.032  0.4085  0.3830  0.5218
    3CHTO    H4 1263   6.280   3.498   2.026 -0.3345  0.2555 -0.9782
    3CHTO    O5 1264   6.056   3.472   2.011  0.5262 -0.4446  0.2411
    3CHTO   C10 1265   5.919   3.447   1.991  0.2143 -0.8223 -0.1878
    3CHTO   H23 1266   5.863   3.503   2.067  0.5076 -2.0635  0.9545
    3CHTO   C17 1267   5.908   3.297   2.018  0.1691 -0.0911 -0.4389
    3CHTO   O12 1268   5.976   3.214   1.917  0.2191  0.4810 -0.4450
    3CHTO    H6 1269   5.920   3.207   1.842 -0.7883  1.3445  0.2152
    4CHTO  H203 1270   5.376   8.684   2.079 -0.2007  2.0121  1.0511
    4CHTO   O82 1271   5.448   8.667   2.138  0.1560 -0.4030 -0.0178
    4CHTO  C123 1272   5.549   8.584   2.093  0.0834 -0.0299  0.3815
    4CHTO  H227 1273   5.498   8.492   2.060  2.0432 -0.0973 -2.7413
    4CHTO   O77 1274   5.597   8.652   1.973  0.2213 -0.4709  0.8291
    4CHTO  C118 1275   5.725   8.606   1.916  0.0840 -0.0287  0.1853
    4CHTO  H222 1276   5.714   8.505   1.874  1.0438 -1.0253  2.2786
    4CHTO  C125 1277   5.764   8.696   1.802  0.6380 -0.0764  0.2662
    4CHTO   O84 1278   5.770   8.837   1.822  0.2364 -0.6616 -0.0161
    4CHTO  H205 1279   5.839   8.875   1.770 -0.1242 -0.3739 -0.2877
    4CHTO  C114 1280   5.840   8.610   2.017  0.2809 -0.2039 -0.3399
    4CHTO  H218 1281   5.843   8.712   2.054  0.2982 -0.2259 -0.2787
    4CHTO  C116 1282   5.798   8.516   2.127  0.2779  0.5430 -0.1778
    4CHTO  H220 1283   5.789   8.416   2.079  1.2366  0.3392  0.0429
    4CHTO   O79 1284   5.904   8.514   2.228  0.7051  0.3171 -0.5883
    4CHTO  H201 1285   5.985   8.498   2.183 -0.6908 -1.2724 -2.6395
    4CHTO  C120 1286   5.667   8.563   2.197 -0.9705  0.2313 -0.0460
    4CHTO  H224 1287   5.691   8.655   2.254  3.8064 -0.7752 -0.2859
    4CHTO   N21 1288   5.621   8.464   2.301  1.3101 -0.0588  0.5777
    4CHTO  H211 1289   5.634   8.362   2.269 -0.5153  0.2991 -1.4575
    4CHTO  H212 1290   5.661   8.479   2.400  1.8018 -1.3839  0.5917
    4CHTO   O75 1291   5.961   8.569   1.954  0.0739 -0.1918 -0.0868
    4CHTO  C112 1292   6.105   8.654   2.009  0.1460  0.1573  0.9371
    4CHTO  H216 1293   6.101   8.676   2.116 -2.0426 -1.9800  1.3292
    4CHTO   O73 1294   6.124   8.773   1.930 -0.0445  0.4764 -0.3256
    4CHTO  C113 1295   6.230   8.858   1.969  0.2834  0.3857 -0.4601
    4CHTO  H217 1296   6.208   8.887   2.074 -0.6386  0.5965 -0.6991
    4CHTO  C124 1297   6.231   8.989   1.889  0.5296  0.2894  0.5198
    4CHTO   O83 1298   6.143   9.086   1.948 -0.4159 -0.6214 -0.4391
    4CHTO  H204 1299   6.166   9.175   1.932 -1.9375  0.2153  1.7772
    4CHTO  C109 1300   6.366   8.779   1.942  0.0362  0.0600  0.1169
    4CHTO  H213 1301   6.376   8.774   1.833  1.2834  1.8311  0.1234
    4CHTO  C110 1302   6.356   8.648   2.025  0.3184 -0.0775  0.5413
    4CHTO  H214 1303   6.352   8.675   2.131  1.5721  0.4599  0.4681
    4CHTO   O78 1304   6.482   8.577   2.002  0.1750 -0.1356  0.1362
    4CHTO  H200 1305   6.487   8.504   2.061  1.4105  0.9644  1.4102
    4CHTO  C111 1306   6.231   8.560   1.990  0.4099  0.8130 -0.7613
    4CHTO  H215 1307   6.235   8.534   1.883 -0.9675 -4.9133  0.4263
    4CHTO   N19 1308   6.214   8.429   2.065  0.2042  0.1317 -0.2277
    4CHTO  H207 1309   6.297   8.360   2.053  1.0719  1.1581 -0.1531
    4CHTO  H208 1310   6.125   8.371   2.047  0.5468 -0.5017  0.0909
    4CHTO   O74 1311   6.488   8.848   1.993  0.1457  0.5937 -0.3150
    4CHTO  C115 1312   6.616   8.854   1.871  0.0947  0.3532  0.0640
    4CHTO  H219 1313   6.606   8.777   1.794  0.4903 -0.3369  0.6883
    4CHTO   O76 1314   6.612   8.988   1.792  0.4808 -0.2526  0.4966
    4CHTO  C122 1315   6.658   9.097   1.878  0.3436  0.0400  0.0882
    4CHTO  H226 1316   6.603   9.103   1.972 -0.2594 -1.6877 -0.1372
    4CHTO  C126 1317   6.636   9.242   1.808  0.3698  0.7095 -0.2780
    4CHTO   O85 1318   6.511   9.256   1.739  0.1590 -0.5667 -0.5953
    4CHTO  H206 1319   6.442   9.277   1.799 -1.2455 -0.5403 -2.1949
    4CHTO  C121 1320   6.816   9.074   1.892 -0.2990 -0.3871 -0.1149
    4CHTO  H225 1321   6.870   9.138   1.820  0.8848  1.5753  2.4426
    4CHTO   O81 1322   6.858   9.090   2.030 -0.0354  0.1332  0.5598
    4CHTO  H202 1323   6.796   9.038   2.078 -1.7994  1.9255  0.3245
    4CHTO  C119 1324   6.853   8.922   1.869 -0.1097 -0.1099  0.5124
    4CHTO  H223 1325   6.840   8.911   1.761  0.0363  1.2198  0.3631
    4CHTO  C117 1326   6.755   8.822   1.938  0.0170  0.3296  0.4557
    4CHTO  H221 1327   6.742   8.833   2.046  0.7080  0.1808  0.5568
    4CHTO   N20 1328   6.791   8.681   1.925 -0.1696  0.0893  0.8123
    4CHTO  H209 1329   6.851   8.648   2.009  1.7756 -0.6040 -0.8160
    4CHTO  H210 1330   6.710   8.616   1.897  1.4868 -0.9443 -1.7325
    4CHTO   O80 1331   7.012   8.888   1.886  0.4897  0.1215 -0.1284
    4CHTO  C103 1332   7.122   8.981   1.805  0.0799 -0.4477 -0.4637
    4CHTO  H190 1333   7.070   9.059   1.750  0.4661 -0.0257 -0.2351
    4CHTO  C101 1334   7.228   9.047   1.898  0.6785 -0.3031 -0.4226
    4CHTO  H188 1335   7.274   8.981   1.971  0.6854  1.5908  1.3212
    4CHTO   O68 1336   7.157   9.171   2.006 -0.1119  0.2991  0.1516
    4CHTO  H168 1337   7.119   9.134   2.084 -0.8944 -0.8426 -0.7598
    4CHTO   C99 1338   7.344   9.110   1.806  0.3412  0.9814 -0.3545
    4CHTO  H186 1339   7.305   9.204   1.762  2.3206  1.6313 -0.7778
    4CHTO   N17 1340   7.469   9.167   1.873  0.4878  0.0239 -0.6054
    4CHTO  H174 1341   7.534   9.087   1.904 -0.3210 -0.5451 -0.3422
    4CHTO  H175 1342   7.431   9.219   1.960  1.3684 -0.5083  0.0987
    4CHTO   C97 1343   7.384   9.016   1.687 -0.5275 -0.1792  0.4141
    4CHTO  H184 1344   7.452   8.940   1.729 -2.3381 -1.9996  0.0946
    4CHTO   O64 1345   7.281   8.962   1.617  0.4640 -0.0510 -0.0682
    4CHTO  C104 1346   7.189   8.889   1.700  0.3476 -0.5596  0.2395
    4CHTO  H191 1347   7.245   8.810   1.750 -1.0478 -1.3172  0.6488
    4CHTO  C108 1348   7.085   8.820   1.612  0.1544  0.0782 -0.1540
    4CHTO   O71 1349   7.143   8.743   1.507  0.6295  0.0426  0.6446
    4CHTO  H171 1350   7.211   8.683   1.530  0.3120 -0.5935 -0.0314
    4CHTO   O62 1351   7.447   9.088   1.580  0.1489  0.4634  0.7871
    4CHTO   C91 1352   7.544   9.013   1.500 -0.0585 -0.6080 -0.4351
    4CHTO  H178 1353   7.573   8.919   1.546 -0.7975 -0.2549  0.8039
    4CHTO   C92 1354   7.662   9.112   1.500  0.3194 -0.5309  0.2047
    4CHTO  H179 1355   7.681   9.138   1.605 -0.6280  0.9053  0.0197
    4CHTO   O66 1356   7.778   9.043   1.445 -0.3718 -0.0158 -0.3111
    4CHTO  H166 1357   7.857   9.091   1.462 -0.8409  0.6472  0.0019
    4CHTO   C93 1358   7.638   9.241   1.418  0.1046  0.7703 -0.0437
    4CHTO  H180 1359   7.732   9.286   1.385  0.4274  0.3278  0.2775
    4CHTO   N16 1360   7.571   9.348   1.499 -0.2178 -0.3889 -0.1812
    4CHTO  H172 1361   7.465   9.348   1.482 -0.2969  1.4310  0.2270
    4CHTO  H173 1362   7.601   9.449   1.474  0.7096 -0.7858 -0.6986
    4CHTO   C94 1363   7.553   9.214   1.288 -0.1763 -0.2233 -0.0680
    4CHTO  H181 1364   7.446   9.227   1.302 -0.2748  0.9889 -1.7590
    4CHTO   O61 1365   7.564   9.075   1.259 -0.4984  0.0166  0.4385
    4CHTO   C95 1366   7.500   8.986   1.354 -0.3264 -0.1532  0.5023
    4CHTO  H182 1367   7.393   9.004   1.343 -0.2639  1.1386  1.9266
    4CHTO  C106 1368   7.521   8.835   1.304  0.1896 -0.6838 -0.3073
    4CHTO   O69 1369   7.517   8.826   1.162  0.7296  0.4017 -0.2989
    4CHTO  H169 1370   7.434   8.862   1.138 -0.3177 -1.3481  0.5909
    4CHTO   O63 1371   7.603   9.299   1.172 -0.8997  0.3312  0.1381
    4CHTO   C96 1372   7.485   9.313   1.056  0.6147  0.2507  0.0828
    4CHTO  H183 1373   7.403   9.246   1.080 -1.1990  2.5194  0.4052
    4CHTO   C98 1374   7.540   9.268   0.920 -0.1513 -0.2208  0.7174
    4CHTO  H185 1375   7.634   9.324   0.908  0.8392 -1.6777  1.5727
    4CHTO   O67 1376   7.582   9.131   0.928  0.0568  0.1807  0.4109
    4CHTO  H167 1377   7.571   9.084   0.847 -0.1776  0.8452  0.0586
    4CHTO  C102 1378   7.442   9.290   0.796  0.4748 -0.2555  0.9883
    4CHTO  H189 1379   7.373   9.205   0.798 -1.6114  1.3896 -0.2511
    4CHTO   N18 1380   7.516   9.291   0.665  0.3267 -0.6454  0.0527
    4CHTO  H176 1381   7.613   9.338   0.663  0.6623 -1.3037 -3.0318
    4CHTO  H177 1382   7.454   9.312   0.579 -1.6758 -1.7709  1.2074
    4CHTO  C105 1383   7.358   9.418   0.816  0.7704  0.2138 -0.0820
    4CHTO  H192 1384   7.348   9.476   0.724  1.0888  0.1184 -0.1761
    4CHTO   O65 1385   7.415   9.508   0.910  0.3458  0.0692  0.6935
    4CHTO  C100 1386   7.436   9.462   1.042 -0.4376 -0.7466 -0.0132
    4CHTO  H187 1387   7.514   9.528   1.082  0.5980  0.2526 -3.4908
    4CHTO  C107 1388   7.313   9.497   1.131 -0.2860 -0.9844  0.6807
    4CHTO   O70 1389   7.308   9.435   1.257  0.0352 -0.2911 -0.2823
    4CHTO  H170 1390   7.366   9.484   1.311 -1.2199  2.0755 -1.0376
    4CHTO   O57 1391   7.211   9.365   0.848  0.3595 -0.3034 -0.4932
    4CHTO   C85 1392   7.097   9.365   0.759  0.7061  0.1501  0.3190
    4CHTO  H157 1393   7.131   9.397   0.658 -2.0118  3.3525  0.3315
    4CHTO   C83 1394   7.013   9.487   0.805 -1.2962  0.7674  0.3250
    4CHTO  H155 1395   7.066   9.581   0.791  1.1420 -0.8011 -1.5058
    4CHTO   O56 1396   6.980   9.475   0.947 -0.2670 -0.0402 -0.7218
    4CHTO  H135 1397   6.940   9.393   0.968  0.2404 -0.1079  0.0062
    4CHTO   C81 1398   6.888   9.490   0.711 -0.1897  0.4254  0.1631
    4CHTO  H153 1399   6.926   9.509   0.611  0.9400 -1.0488  0.3027
    4CHTO   N14 1400   6.802   9.610   0.732  0.0193 -0.2552 -0.1424
    4CHTO  H141 1401   6.699   9.585   0.720  0.1541 -0.8076 -0.2074
    4CHTO  H142 1402   6.823   9.647   0.830  1.2458  0.3796 -0.6231
    4CHTO   C79 1403   6.807   9.352   0.718 -0.1613 -0.1743  0.0819
    4CHTO  H151 1404   6.718   9.362   0.656 -0.5184 -2.1358  0.2335
    4CHTO   O52 1405   6.890   9.240   0.678 -0.4152  0.6355 -0.0763
    4CHTO   C86 1406   7.012   9.231   0.754  0.1398 -0.2021 -0.0570
    4CHTO  H158 1407   6.979   9.207   0.857 -2.1332  3.8865  0.2879
    4CHTO   C90 1408   7.095   9.113   0.711 -0.1576 -0.0874 -0.5085
    4CHTO   O60 1409   7.026   8.991   0.743  0.0929  0.1646  0.0970
    4CHTO  H138 1410   6.948   8.973   0.695 -0.7434  0.4211  1.3273
    4CHTO   O50 1411   6.752   9.319   0.845  0.1285 -0.7633 -0.0863
    4CHTO   C73 1412   6.651   9.255   0.926  0.1724 -0.2107  0.6928
    4CHTO  H145 1413   6.551   9.283   0.892  1.3938  1.1318 -1.9628
    4CHTO   C74 1414   6.662   9.306   1.065  1.4616  0.4006  0.1242
    4CHTO  H146 1415   6.663   9.416   1.054 -0.9096  0.2129 -2.4748
    4CHTO   O54 1416   6.538   9.263   1.135  0.4815 -0.0307  0.2482
    4CHTO  H133 1417   6.534   9.312   1.215 -1.4028 -1.7534  1.2605
    4CHTO   C75 1418   6.792   9.251   1.131 -0.2334 -0.0889  0.1239
    4CHTO  H147 1419   6.882   9.293   1.083  0.4005 -1.8253 -0.2447
    4CHTO   N13 1420   6.807   9.291   1.270 -0.3421  0.1241 -0.6479
    4CHTO  H139 1421   6.906   9.285   1.314 -0.3781  0.8644 -0.4547
    4CHTO  H140 1422   6.744   9.218   1.319 -0.7047 -1.1309 -2.9491
    4CHTO   C76 1423   6.803   9.086   1.108  0.0245  0.6774 -0.4439
    4CHTO  H148 1424   6.729   9.036   1.170  0.3394  1.3525  0.4966
    4CHTO   O49 1425   6.789   9.050   0.968 -1.2479 -0.6176 -0.4456
    4CHTO   C77 1426   6.662   9.100   0.926  0.1650 -0.5129  0.6498
    4CHTO  H149 1427   6.584   9.060   0.992 -0.0050 -2.1754 -0.5355
    4CHTO   C88 1428   6.631   9.036   0.787  0.1129  0.2799  0.4010
    4CHTO   O58 1429   6.492   9.025   0.771  0.5173 -0.3075  0.1560
    4CHTO  H136 1430   6.457   9.112   0.771  1.9498  0.3111  1.5580
    4CHTO   O51 1431   6.947   9.045   1.137 -0.6898  0.1105  0.3209
    4CHTO   C78 1432   6.996   8.889   1.090  0.6514 -0.0785  0.0039
    4CHTO  H150 1433   6.990   8.881   0.979  0.4449 -2.2843  0.1562
    4CHTO   C80 1434   6.908   8.777   1.150  0.2246  0.1845 -0.3076
    4CHTO  H152 1435   6.889   8.797   1.257 -0.8413  2.2728 -0.8728
    4CHTO   O55 1436   6.788   8.784   1.085 -0.3892  0.6981  0.4240
    4CHTO  H134 1437   6.711   8.763   1.134  1.1450 -0.8691  2.2595
    4CHTO   C84 1438   6.977   8.628   1.127  0.3646 -0.2509 -0.1094
    4CHTO  H156 1439   6.973   8.606   1.020  0.4949 -2.5656  0.3305
    4CHTO   N15 1440   6.904   8.513   1.195 -0.1384  0.1778  0.4218
    4CHTO  H143 1441   6.836   8.463   1.129 -1.2863  0.4293  1.4035
    4CHTO  H144 1442   6.973   8.443   1.236  2.2753  1.3180 -1.5692
    4CHTO   C87 1443   7.122   8.648   1.184 -0.4633 -0.0576 -0.2356
    4CHTO  H159 1444   7.110   8.681   1.287 -0.6676  1.5280 -0.7590
    4CHTO   O53 1445   7.189   8.743   1.099 -0.2078  0.3460  0.0233
    4CHTO   C82 1446   7.150   8.877   1.127 -0.4374 -0.0722 -0.5602
    4CHTO  H154 1447   7.151   8.899   1.233 -0.0818 -3.9865  0.3001
    4CHTO   C89 1448   7.243   8.977   1.051 -0.3777 -0.2985 -0.1605
    4CHTO   O59 1449   7.220   9.114   1.083 -0.1634  0.4603 -0.4753
    4CHTO  H137 1450   7.292   9.174   1.076  0.0737  0.1413 -0.7599
    4CHTO   O45 1451   7.211   8.513   1.168  0.2740  0.0287  0.5019
    4CHTO   C67 1452   7.322   8.503   1.259 -0.0903  0.4932 -0.5149
    4CHTO  H124 1453   7.344   8.606   1.287  1.6514  0.8670 -3.1071
    4CHTO   C65 1454   7.275   8.431   1.389 -0.2759  0.0569  0.2037
    4CHTO  H122 1455   7.186   8.487   1.417 -1.2575 -0.3227 -2.0004
    4CHTO   O44 1456   7.372   8.437   1.496  0.8714 -0.2208  0.3607
    4CHTO  H102 1457   7.349   8.395   1.577 -2.6866  1.8036  0.5018
    4CHTO   C63 1458   7.245   8.291   1.341 -0.1820 -0.0244 -0.5856
    4CHTO  H120 1459   7.169   8.292   1.263 -0.2177  2.2896 -0.5634
    4CHTO   N11 1460   7.171   8.207   1.445  0.6202  0.2417  0.4025
    4CHTO  H108 1461   7.091   8.255   1.496 -0.1247 -2.2165  1.5889
    4CHTO  H109 1462   7.134   8.121   1.394  3.2879 -0.3609 -0.5935
    4CHTO   C61 1463   7.372   8.218   1.285 -0.9279 -0.1869  0.5001
    4CHTO  H118 1464   7.326   8.132   1.234 -2.3573  1.9695 -1.9227
    4CHTO   O40 1465   7.434   8.297   1.171  0.6218 -0.0895  1.0512
    4CHTO   C68 1466   7.455   8.444   1.193  0.5936  0.5166 -0.2571
    4CHTO  H125 1467   7.470   8.497   1.097  3.2092  1.6286  0.7150
    4CHTO   C72 1468   7.582   8.463   1.267 -0.5992  0.1871  0.0580
    4CHTO   O48 1469   7.698   8.460   1.175  0.0771  0.0443 -0.0700
    4CHTO  H105 1470   7.769   8.510   1.210  0.6813 -2.0642  1.8334
    4CHTO   O38 1471   7.479   8.165   1.372  0.6735  0.1363  0.1508
    4CHTO   C55 1472   7.519   8.025   1.340 -0.0725  0.1269  0.0654
    4CHTO  H112 1473   7.496   7.988   1.239  1.4367 -3.6838  1.0043
    4CHTO   C56 1474   7.465   7.924   1.450 -1.0510  0.6410 -0.7317
    4CHTO  H113 1475   7.499   7.963   1.547  1.3810 -2.0304 -0.4377
    4CHTO   O42 1476   7.317   7.937   1.447  0.1413 -0.0248  0.8271
    4CHTO  H100 1477   7.291   8.021   1.414 -1.7712 -0.6786  0.5819
    4CHTO   C57 1478   7.516   7.782   1.424  0.0827  0.3229 -0.0648
    4CHTO  H114 1479   7.470   7.761   1.327 -0.0693  0.8133 -0.1017
    4CHTO   N10 1480   7.464   7.682   1.523  0.3795 -0.0040 -0.3005
    4CHTO  H106 1481   7.380   7.736   1.566 -0.5982 -1.3847 -0.4298
    4CHTO  H107 1482   7.542   7.676   1.597 -2.0736  0.6370  2.4591
    4CHTO   C58 1483   7.670   7.784   1.404  0.4243  0.4898  0.9706
    4CHTO  H115 1484   7.709   7.785   1.508 -3.0161 -2.2017  2.4224
    4CHTO   O37 1485   7.726   7.894   1.329 -0.4697 -0.1049  0.1504
    4CHTO   C59 1486   7.673   8.027   1.350 -0.4840  1.1706 -0.6404
    4CHTO  H116 1487   7.698   8.063   1.450 -1.6781  1.3084 -0.3879
    4CHTO   C70 1488   7.749   8.121   1.250  0.3354 -0.1843  0.3340
    4CHTO   O46 1489   7.713   8.084   1.116 -0.2903  0.8321 -0.2741
    4CHTO  H103 1490   7.786   8.109   1.062 -0.3112 -0.6989 -1.0511
    4CHTO   O39 1491   7.722   7.635   1.337 -0.1013 -0.6612  0.2761
    4CHTO   C60 1492   7.661   7.594   1.214  0.3503  0.1880  0.1416
    4CHTO  H117 1493   7.557   7.626   1.217 -0.7109 -2.9598 -1.0357
    4CHTO   C62 1494   7.740   7.660   1.097  0.3951  0.6473  0.4529
    4CHTO  H119 1495   7.730   7.768   1.121 -3.2481  0.3221  0.6855
    4CHTO   O43 1496   7.884   7.631   1.102 -0.6152  0.3366 -0.2084
    4CHTO  H101 1497   7.902   7.545   1.137  0.1841 -0.1204 -1.6751
    4CHTO   C66 1498   7.684   7.633   0.950  0.0707 -0.0291 -0.1001
    4CHTO  H123 1499   7.578   7.653   0.961 -0.7285 -2.5688 -2.8412
    4CHTO   N12 1500   7.740   7.717   0.839  0.3725  0.2329  0.1996
    4CHTO  H110 1501   7.717   7.820   0.860 -3.5683 -0.3563 -0.7751
    4CHTO  H111 1502   7.691   7.695   0.745 -0.2991 -3.9105  1.4289
    4CHTO   C69 1503   7.714   7.484   0.922  0.6222  0.1637 -1.0613
    4CHTO  H126 1504   7.818   7.453   0.943  1.7801  1.6750 -4.1752
    4CHTO   O41 1505   7.622   7.410   1.037 -0.2789 -0.1750  0.0017
    4CHTO   C64 1506   7.659   7.438   1.192  0.1486  0.4328  0.1457
    4CHTO  H121 1507   7.755   7.398   1.229 -1.4305 -0.6721  3.1866
    4CHTO   C71 1508   7.550   7.369   1.276 -0.1301  0.0710 -0.1702
    4CHTO   O47 1509   7.543   7.229   1.266 -0.3477 -0.1200  0.0885
    4CHTO  H104 1510   7.618   7.183   1.297  0.5741  0.7211 -0.8241
    4CHTO   O34 1511   7.674   7.428   0.796 -0.0128 -0.2305  0.2549
    4CHTO   C49 1512   7.764   7.403   0.677 -0.0655  0.2126 -0.1520
    4CHTO   H91 1513   7.829   7.490   0.667 -0.7741  0.4818 -2.6953
    4CHTO   C47 1514   7.680   7.394   0.549 -0.3175 -0.1076 -0.1416
    4CHTO   H89 1515   7.762   7.396   0.474  0.2225  3.4622  0.4675
    4CHTO   O33 1516   7.610   7.516   0.526 -0.3676 -0.3885  0.4185
    4CHTO   H70 1517   7.673   7.585   0.540  0.5713 -1.3850  1.1233
    4CHTO   C45 1518   7.581   7.267   0.543 -0.1883 -0.3603 -0.1963
    4CHTO   H87 1519   7.491   7.300   0.596  0.3650 -1.4065  1.4193
    4CHTO    N8 1520   7.548   7.239   0.403  0.3950  0.7922 -0.1594
    4CHTO   H75 1521   7.493   7.146   0.402  2.4751 -0.4849 -0.7852
    4CHTO   H76 1522   7.641   7.218   0.351 -0.1204 -0.9856 -0.3988
    4CHTO   C43 1523   7.641   7.145   0.631 -0.5952  0.1571  0.8203
    4CHTO   H85 1524   7.589   7.162   0.726  0.0043 -3.7815  1.9174
    4CHTO   O29 1525   7.786   7.149   0.641  0.1622 -0.1685 -1.0346
    4CHTO   C50 1526   7.849   7.271   0.695 -0.4384 -0.5481  0.5221
    4CHTO   H92 1527   7.877   7.274   0.801  0.6641  0.6746  0.2198
    4CHTO   C54 1528   7.992   7.295   0.631  0.1117 -0.2797  0.0513
    4CHTO   O36 1529   8.060   7.393   0.712  0.4024  0.1309  0.1186
    4CHTO   H72 1530   8.063   7.354   0.797 -3.0639 -0.4750  0.0287
    4CHTO   O27 1531   7.612   7.007   0.589  0.0539  0.3093 -0.2418
    4CHTO   C37 1532   7.628   6.868   0.617 -0.0521 -0.0160  0.2699
    4CHTO   H79 1533   7.707   6.825   0.554 -0.2947 -1.6517  1.0686
    4CHTO   C38 1534   7.686   6.842   0.758 -0.0525  0.6040  0.7087
    4CHTO   H80 1535   7.622   6.893   0.831 -1.2553 -0.7592  0.6193
    4CHTO   O31 1536   7.815   6.905   0.756 -0.6341 -0.4159 -0.3059
    4CHTO   H68 1537   7.813   6.986   0.803  1.8057 -0.7151  0.3519
    4CHTO   C39 1538   7.686   6.689   0.795 -0.5612 -0.6246 -0.4206
    4CHTO   H81 1539   7.767   6.639   0.742  1.3025  3.0996 -1.2510
    4CHTO    N7 1540   7.730   6.659   0.936 -0.4881  0.2858  0.4921
    4CHTO   H73 1541   7.838   6.666   0.939 -0.2259 -1.6627 -2.3497
    4CHTO   H74 1542   7.682   6.731   1.000  0.1503  0.6835  0.5257
    4CHTO   C40 1543   7.549   6.622   0.759  0.1516 -0.0792  0.2894
    4CHTO   H82 1544   7.472   6.667   0.822  0.2837  2.7821 -1.5332
    4CHTO   O26 1545   7.522   6.645   0.622 -0.3249 -0.5911  0.4511
    4CHTO   C41 1546   7.500   6.787   0.593  0.4029  0.4688 -0.5652
    4CHTO   H83 1547   7.423   6.834   0.656  1.0402  0.3515  0.3163
    4CHTO   C52 1548   7.447   6.782   0.449 -1.0230 -0.0761 -0.2371
    4CHTO   O35 1549   7.446   6.923   0.380 -0.1772  0.0251  0.1849
    4CHTO   H71 1550   7.373   6.924   0.321 -0.0045 -0.0193 -0.0339
    4CHTO   O28 1551   7.544   6.472   0.771 -0.5905 -0.1811  0.0682
    4CHTO   C42 1552   7.422   6.384   0.776  0.2346  0.5220  0.3213
    4CHTO   H84 1553   7.463   6.285   0.757 -1.3034  0.2162 -1.7251
    4CHTO   C44 1554   7.330   6.406   0.644 -0.0791  0.4854  0.2046
    4CHTO   H86 1555   7.296   6.509   0.643  3.1087  1.6085 -0.2703
    4CHTO   O32 1556   7.419   6.373   0.534  0.3840 -0.6175  0.1618
    4CHTO   H69 1557   7.511   6.390   0.542 -0.0234  2.6426 -1.4125
    4CHTO   C48 1558   7.212   6.305   0.651 -0.5619  0.1039 -0.0786
    4CHTO   H90 1559   7.264   6.210   0.643 -0.5106  0.0645  0.7035
    4CHTO    N9 1560   7.116   6.330   0.526  0.3038  0.3438  0.5873
    4CHTO   H77 1561   7.045   6.250   0.514 -0.0530  0.8735 -0.9610
    4CHTO   H78 1562   7.180   6.326   0.439  0.3795  1.5805  0.5714
    4CHTO   C51 1563   7.134   6.324   0.782 -0.1633  0.5132  0.0604
    4CHTO   H93 1564   7.115   6.431   0.774 -1.6102  0.0847 -2.9827
    4CHTO   O30 1565   7.219   6.291   0.894 -0.4442  0.1504 -0.0857
    4CHTO   C46 1566   7.346   6.388   0.912 -0.1794  0.1545 -0.6645
    4CHTO   H88 1567   7.306   6.486   0.939  0.7453  0.3899 -0.1260
    4CHTO   C53 1568   7.429   6.338   1.030  0.0060  0.2332 -0.3480
    4CHTO   O72 1569   7.540   6.417   1.067  0.2273  0.3767 -0.2538
    4CHTO  H199 1570   7.590   6.368   1.130 -1.3537 -0.3533  0.4496
    4CHTO   O22 1571   7.017   6.247   0.794  0.9267  0.0538  0.3492
    4CHTO   C31 1572   6.924   6.259   0.912 -0.0411  0.1532  0.0117
    4CHTO   H59 1573   6.985   6.283   1.002  2.4741 -1.0127 -1.3306
    4CHTO   C29 1574   6.810   6.367   0.907  0.0343 -0.0086 -0.4731
    4CHTO   H57 1575   6.747   6.343   0.820 -0.6261 -0.1148  0.0300
    4CHTO   O21 1576   6.876   6.492   0.881  0.0488 -0.2732  0.3795
    4CHTO   H37 1577   6.822   6.551   0.831  3.7148  2.4284 -0.6416
    4CHTO   C27 1578   6.717   6.370   1.040  0.1910 -0.5813  0.4277
    4CHTO   H55 1579   6.780   6.389   1.128  1.1510 -0.3519 -0.2863
    4CHTO    N5 1580   6.602   6.459   1.046  0.2342 -0.3214 -0.0863
    4CHTO   H43 1581   6.590   6.492   1.148  0.3157 -1.0372  0.1573
    4CHTO   H44 1582   6.601   6.544   0.979  1.2716 -0.8262 -0.7799
    4CHTO   C25 1583   6.665   6.225   1.081 -0.6236  0.1508  0.7185
    4CHTO   H53 1584   6.581   6.189   1.019  1.2087  0.1086 -1.8415
    4CHTO   O17 1585   6.770   6.127   1.060 -0.4990 -0.3047 -0.3515
    4CHTO   C32 1586   6.849   6.120   0.945  0.0193  0.3577 -0.2554
    4CHTO   H60 1587   6.779   6.098   0.864 -0.8726 -2.8215  1.3375
    4CHTO   C36 1588   6.957   6.015   0.973 -0.0480 -0.4068 -0.4142
    4CHTO   O25 1589   7.057   6.062   1.064 -0.2299  0.5378 -0.5388
    4CHTO   H40 1590   7.027   6.053   1.153  1.3642  0.2243 -0.0216
    4CHTO   O15 1591   6.618   6.227   1.239 -0.6346  0.4815 -0.1175
    4CHTO   C19 1592   6.675   6.268   1.369 -0.4891 -0.6224  0.4815
    4CHTO   H47 1593   6.625   6.202   1.442  1.7654 -0.7865  1.9278
    4CHTO   C20 1594   6.830   6.262   1.394  0.4141 -0.4877 -0.0758
    4CHTO   H48 1595   6.886   6.333   1.331 -0.2278 -0.6360 -0.8275
    4CHTO   O19 1596   6.875   6.136   1.347  0.2830 -0.3512 -0.2085
    4CHTO   H35 1597   6.963   6.128   1.380  0.0607 -0.7314  0.3057
    4CHTO   C21 1598   6.871   6.295   1.547 -0.5299 -0.3908 -0.5864
    4CHTO   H49 1599   6.812   6.226   1.607 -2.3851  0.9587 -0.8227
    4CHTO    N4 1600   7.019   6.287   1.574  0.0905  0.5908 -0.4397
    4CHTO   H41 1601   7.049   6.371   1.635 -0.1638 -1.2014  2.2602
    4CHTO   H42 1602   7.047   6.197   1.627 -3.0577 -0.2233 -0.0921
    4CHTO   C22 1603   6.809   6.433   1.588 -0.1357  0.7028 -0.3007
    4CHTO   H50 1604   6.858   6.518   1.538 -0.1201  1.1681  0.4982
    4CHTO   O14 1605   6.669   6.440   1.551  0.8528  0.6747 -0.2547
    4CHTO   C23 1606   6.640   6.415   1.414  0.1671 -0.2810 -0.8579
    4CHTO   H51 1607   6.694   6.490   1.354  1.6136 -1.4452 -1.0399
    4CHTO   C34 1608   6.487   6.436   1.392 -0.5809  0.0574 -0.2280
    4CHTO   O23 1609   6.401   6.365   1.478  0.6042  0.3202  0.2328
    4CHTO   H38 1610   6.339   6.316   1.429 -0.1933  0.9515  0.5947
    4CHTO   O16 1611   6.807   6.454   1.730 -0.0345 -0.0491 -0.3218
    4CHTO   C24 1612   6.828   6.613   1.781  0.2654 -0.3281 -0.4197
    4CHTO   H52 1613   6.786   6.682   1.708  0.7430  1.2506  0.7718
    4CHTO   C26 1614   6.974   6.646   1.786 -0.3325  0.7912  0.2320
    4CHTO   H54 1615   7.032   6.558   1.820  0.0773  0.5247 -1.1219
    4CHTO   O20 1616   7.024   6.662   1.645 -0.1102 -0.1068  0.0647
    4CHTO   H36 1617   7.113   6.631   1.645  0.2949  0.9625  0.9781
    4CHTO   C30 1618   7.008   6.769   1.877  0.2457  0.5185  0.6942
    4CHTO   H58 1619   6.993   6.861   1.820  0.3729  0.2645  0.2448
    4CHTO    N6 1620   7.150   6.780   1.909  0.0945  0.0735  0.5393
    4CHTO   H45 1621   7.172   6.717   1.993 -1.1272 -0.3014  0.5868
    4CHTO   H46 1622   7.210   6.742   1.827  0.1191 -2.2411  1.6008
    4CHTO   C33 1623   6.928   6.770   2.014  0.4841  0.0380 -0.0724
    4CHTO   H61 1624   6.953   6.680   2.072 -1.9770 -0.3637  0.4153
    4CHTO   O18 1625   6.789   6.756   1.984 -0.3286  0.2155  0.3247
    4CHTO   C28 1626   6.754   6.634   1.917 -0.6661  0.1552 -0.0533
    4CHTO   H56 1627   6.768   6.548   1.982 -1.4815  1.7161  2.2485
    4CHTO   C35 1628   6.610   6.635   1.887  0.1434 -0.3145  0.9352
    4CHTO   O24 1629   6.532   6.643   2.007  0.0352 -0.0385  0.6561
    4CHTO   H39 1630   6.559   6.567   2.054  0.5517  0.3170  0.9469
    4CHTO    O9 1631   6.956   6.885   2.099 -0.1906  0.0593 -0.6988
    4CHTO   C13 1632   6.913   6.872   2.248  0.0457  0.0452 -0.4073
    4CHTO   H26 1633   6.963   6.777   2.277 -2.5991 -2.1016 -2.5296
    4CHTO   C11 1634   6.757   6.857   2.263 -0.1408  0.4414 -0.4592
    4CHTO   H24 1635   6.735   6.756   2.224  0.7288  0.1506 -0.2038
    4CHTO    O8 1636   6.701   6.948   2.172  0.6960 -0.0467 -0.0194
    4CHTO    H3 1637   6.645   6.906   2.110 -0.2308  1.0217  0.0749
    4CHTO    C9 1638   6.701   6.865   2.408  0.7688 -0.5693  0.6151
    4CHTO   H22 1639   6.753   6.784   2.461 -2.4370 -3.2300 -0.1283
    4CHTO    N2 1640   6.554   6.838   2.418  0.2311  0.0272  0.2972
    4CHTO   H10 1641   6.515   6.831   2.318 -1.3440  3.2666  0.6296
    4CHTO   H11 1642   6.523   6.753   2.477  2.1074 -0.6472  0.3547
    4CHTO    C7 1643   6.757   6.995   2.468  0.1437 -0.6605  0.3708
    4CHTO   H20 1644   6.741   6.987   2.577  0.9481 -1.4095  0.4350
    4CHTO    O4 1645   6.900   7.017   2.453 -0.1648  0.0828 -0.1878
    4CHTO   C14 1646   6.974   6.989   2.337  0.3739  0.2505  0.1616
    4CHTO   H27 1647   7.073   6.952   2.370 -0.2604  0.0081  1.8174
    4CHTO   C18 1648   7.002   7.117   2.257 -0.2987  0.1707  1.4644
    4CHTO   O13 1649   7.088   7.213   2.319  0.2481  0.3098  0.4666
    4CHTO    H7 1650   7.176   7.184   2.309 -0.3993 -0.8386 -2.4503
    4CHTO    O2 1651   6.681   7.122   2.399  0.7607  0.3653  0.7491
    4CHTO    C1 1652   6.719   7.258   2.435  0.6995  0.0540  0.2085
    4CHTO   H14 1653   6.830   7.262   2.427  0.9649 -2.4559  1.8727
    4CHTO    C2 1654   6.670   7.300   2.584 -0.3167 -0.3103  0.1262
    4CHTO   H15 1655   6.562   7.279   2.589 -0.5653  0.3073 -2.0828
    4CHTO    O6 1656   6.746   7.223   2.677  0.2825 -0.3794 -0.5191
    4CHTO    H1 1657   6.821   7.277   2.695 -1.9317  2.6012  0.3022
    4CHTO    C3 1658   6.703   7.460   2.611  0.5108 -0.0922 -0.0226
    4CHTO   H16 1659   6.812   7.466   2.619  0.6082  0.2373 -1.4053
    4CHTO    N1 1660   6.650   7.497   2.741  0.5240 -0.7771 -0.5583
    4CHTO    H8 1661   6.551   7.466   2.770  0.3960  0.1333 -0.0112
    4CHTO    H9 1662   6.661   7.598   2.777 -1.9485 -0.8755  0.5586
    4CHTO    C4 1663   6.660   7.554   2.489 -0.3849 -0.0588  0.5114
    4CHTO   H17 1664   6.552   7.558   2.477 -0.3329 -1.2856 -0.4952
    4CHTO    O1 1665   6.708   7.503   2.366  0.2351  0.2337  0.1328
    4CHTO    C5 1666   6.661   7.373   2.331 -0.8027 -0.0189  0.2831
    4CHTO   H18 1667   6.553   7.365   2.338 -1.0915  0.8712 -2.4583
    4CHTO   C16 1668   6.695   7.337   2.188  0.1292 -0.4817  0.4550
    4CHTO   O11 1669   6.637   7.443   2.115 -0.4512  0.1170 -0.1302
    4CHTO    H5 1670   6.561   7.415   2.067  0.0795 -0.4083 -0.6695
    4CHTO    O3 1671   6.726   7.685   2.507 -0.8791 -0.7502  0.1576
    4CHTO    C6 1672   6.704   7.788   2.408  0.0565  0.2227 -0.0884
    4CHTO   H19 1673   6.640   7.757   2.325 -1.1936 -0.3966  1.0798
    4CHTO    C8 1674   6.639   7.901   2.485  0.2037 -0.2854  0.3474
    4CHTO   H21 1675   6.703   7.932   2.567  1.3334 -0.7041 -0.3689
    4CHTO    O7 1676   6.509   7.851   2.524  0.7015  0.0303  0.0996
    4CHTO    H2 1677   6.491   7.886   2.610  1.2142  0.5271  0.0028
    4CHTO   C12 1678   6.629   8.026   2.387 -0.0337 -0.1698 -0.4592
    4CHTO   H25 1679   6.546   8.005   2.316  0.8414  0.5451 -1.7116
    4CHTO    N3 1680   6.586   8.148   2.464 -0.8654 -0.3388  0.0337
    4CHTO   H12 1681   6.491   8.195   2.444 -0.4307  0.8885  0.8105
    4CHTO   H13 1682   6.591   8.120   2.569 -0.4372  1.3567  0.4734
    4CHTO   C15 1683   6.760   8.058   2.307 -0.2309 -0.5187  0.7216
    4CHTO   H28 1684   6.830   8.123   2.360 -0.1353 -1.0080  1.2050
    4CHTO   O10 1685   6.717   8.122   2.173 -0.5404 -0.2463  0.3483
    4CHTO    H4 1686   6.646   8.076   2.132  0.1397 -1.1023  0.1106
    4CHTO    O5 1687   6.814   7.937   2.247  0.6939  0.8385  0.2028
    4CHTO   C10 1688   6.838   7.832   2.343  0.4565  0.3954  1.0595
    4CHTO   H23 1689   6.906   7.866   2.421  2.7492 -0.0555 -0.6799
    4CHTO   C17 1690   6.904   7.720   2.264 -0.3889  0.6861  1.2549
    4CHTO   O12 1691   6.825   7.689   2.150  0.0782  0.7111  0.1190
    4CHTO    H6 1692   6.837   7.598   2.132 -2.1048  0.5612 -0.6719
    5CHTO  H203 1693   7.288   3.929   4.138 -0.5249 -0.4941 -0.3278
    5CHTO   O82 1694   7.258   4.016   4.119  0.4584  0.0644  0.6828
    5CHTO  C123 1695   7.312   4.113   4.219  0.5254  0.1158  0.8896
    5CHTO  H227 1696   7.402   4.159   4.175  1.1653 -1.5480  0.4100
    5CHTO   O77 1697   7.209   4.220   4.227  0.3280  0.2225  0.5234
    5CHTO  C118 1698   7.229   4.327   4.323  0.1067  0.6865  0.3212
    5CHTO  H222 1699   7.328   4.370   4.303 -0.0365  2.0798  2.4087
    5CHTO  C125 1700   7.114   4.440   4.322  0.1791  0.1683 -0.6386
    5CHTO   O84 1701   7.146   4.541   4.223  0.1945  0.2297 -0.8954
    5CHTO  H205 1702   7.072   4.598   4.218 -0.0395  0.0985  0.6596
    5CHTO  C114 1703   7.235   4.269   4.466 -0.6830 -0.3474  0.0337
    5CHTO  H218 1704   7.145   4.210   4.483 -0.7934 -0.8434 -2.0284
    5CHTO  C116 1705   7.347   4.152   4.483  0.2456  0.3031  0.0745
    5CHTO  H220 1706   7.450   4.192   4.480  0.2737  0.2468  0.3218
    5CHTO   O79 1707   7.312   4.089   4.606  0.4931 -0.5715 -0.6930
    5CHTO  H201 1708   7.363   4.014   4.629  1.1056  0.2331  0.6698
    5CHTO  C120 1709   7.335   4.047   4.367 -0.0784  0.1504  0.0983
    5CHTO  H224 1710   7.241   3.990   4.385 -1.2055  0.7685 -3.4290
    5CHTO   N21 1711   7.443   3.951   4.372 -0.0130  0.0073  0.0859
    5CHTO  H211 1712   7.428   3.868   4.304  0.1618 -1.0590  1.3120
    5CHTO  H212 1713   7.540   3.999   4.368  1.2967 -2.2221  2.6507
    5CHTO   O75 1714   7.250   4.379   4.561  0.0345 -0.1585  0.1111
    5CHTO  C112 1715   7.145   4.355   4.678  0.1807 -0.0207 -0.3342
    5CHTO  H216 1716   7.138   4.247   4.698 -0.1448 -0.2428 -1.6004
    5CHTO   O73 1717   7.020   4.408   4.624  0.5591  0.3356  0.5306
    5CHTO  C113 1718   6.906   4.411   4.715 -0.2796 -0.1284 -0.5273
    5CHTO  H217 1719   6.886   4.308   4.753 -2.1313 -0.6048 -2.7169
    5CHTO  C124 1720   6.779   4.449   4.638 -0.4404  0.5272  0.0247
    5CHTO   O83 1721   6.658   4.450   4.707  0.4558  0.1722 -0.0573
    5CHTO  H204 1722   6.658   4.519   4.770 -1.0298  1.9040 -1.8610
    5CHTO  C109 1723   6.940   4.501   4.831  0.4964  0.6722  0.1319
    5CHTO  H213 1724   6.971   4.597   4.787  1.5145  0.4210  0.2848
    5CHTO  C110 1725   7.064   4.444   4.908 -0.7326  0.2982 -0.0957
    5CHTO  H214 1726   7.035   4.344   4.939  1.7211 -0.3190  0.2418
    5CHTO   O78 1727   7.090   4.535   5.017 -0.3200  0.6111  0.1653
    5CHTO  H200 1728   7.097   4.483   5.094  1.2472  0.7760  0.1351
    5CHTO  C111 1729   7.187   4.437   4.810  0.0751  0.3144  0.6948
    5CHTO  H215 1730   7.211   4.538   4.774  0.8901  0.8662  2.7505
    5CHTO   N19 1731   7.307   4.384   4.873 -0.1052  0.4043 -0.8921
    5CHTO  H207 1732   7.370   4.349   4.793  1.1437  0.0639  0.2252
    5CHTO  H208 1733   7.274   4.296   4.927 -0.5514 -0.0158 -1.8365
    5CHTO   O74 1734   6.826   4.526   4.913  0.0708  0.4556 -0.2604
    5CHTO  C115 1735   6.760   4.672   4.916  0.3067  0.5542 -0.0882
    5CHTO  H219 1736   6.820   4.740   4.976  1.0678 -0.4546  0.3232
    5CHTO   O76 1737   6.750   4.736   4.767  0.3753  0.2898 -0.2701
    5CHTO  C122 1738   6.665   4.849   4.757 -0.6276  0.7177  0.0107
    5CHTO  H226 1739   6.642   4.853   4.650  0.6221 -2.8036 -0.4677
    5CHTO  C126 1740   6.746   4.977   4.794  0.4490  0.2608 -0.5742
    5CHTO   O85 1741   6.682   5.098   4.751 -0.1466  0.3656 -0.7826
    5CHTO  H206 1742   6.745   5.162   4.722  1.8397 -2.2542 -2.5149
    5CHTO  C121 1743   6.531   4.839   4.839 -0.0871  0.5585  0.7882
    5CHTO  H225 1744   6.473   4.933   4.833  0.9517  1.1039 -0.7638
    5CHTO   O81 1745   6.443   4.743   4.779  0.4748  0.1874 -0.2401
    5CHTO  H202 1746   6.367   4.768   4.729 -0.7071 -0.3557  1.2400
    5CHTO  C119 1747   6.553   4.798   4.984 -0.4676  0.4737  0.3472
    5CHTO  H223 1748   6.619   4.871   5.030 -0.9790  0.6093  0.8721
    5CHTO  C117 1749   6.630   4.662   4.993  0.3837  0.1287 -0.3529
    5CHTO  H221 1750   6.579   4.577   4.948  1.5101 -1.3626  1.1762
    5CHTO   N20 1751   6.647   4.629   5.138  0.4446  0.5771  0.7188
    5CHTO  H209 1752   6.712   4.693   5.195  0.1941  0.9672  0.5705
    5CHTO  H210 1753   6.551   4.629   5.189 -0.3446 -1.9538 -0.6769
    5CHTO   O80 1754   6.418   4.821   5.082  0.1732  0.1961  0.2259
    5CHTO  C103 1755   6.294   4.781   5.037  0.1124  0.4683  0.7257
    5CHTO  H190 1756   6.270   4.793   4.931 -0.5673 -2.7928  0.4613
    5CHTO  C101 1757   6.264   4.620   5.071 -0.7444  0.3896 -0.3524
    5CHTO  H188 1758   6.300   4.594   5.170 -0.2815 -1.9255 -1.1064
    5CHTO   O68 1759   6.344   4.524   4.965  0.6857 -0.1076  0.4649
    5CHTO  H168 1760   6.282   4.494   4.900  0.5915 -1.7338  1.2730
    5CHTO   C99 1761   6.108   4.586   5.065 -0.6398 -1.3209  0.7066
    5CHTO  H186 1762   6.087   4.601   4.957  0.6569 -2.2755  0.3049
    5CHTO   N17 1763   6.071   4.444   5.096 -0.6755  0.0504  1.2839
    5CHTO  H174 1764   6.118   4.388   5.016  0.5000  1.8833  0.6477
    5CHTO  H175 1765   5.964   4.437   5.088 -0.5241 -2.2696  0.9590
    5CHTO   C97 1766   6.032   4.688   5.147  0.4230 -0.1574  0.0087
    5CHTO  H184 1767   6.052   4.662   5.252 -1.1681 -0.7206  0.1817
    5CHTO   O64 1768   6.068   4.821   5.117 -0.3081 -0.3097  0.2864
    5CHTO  C104 1769   6.198   4.874   5.116  0.3412  0.0787  0.9235
    5CHTO  H191 1770   6.228   4.874   5.221 -0.9276 -1.8469  1.3130
    5CHTO  C108 1771   6.204   5.021   5.066 -0.0422 -0.4576  0.2601
    5CHTO   O71 1772   6.316   5.095   5.121 -0.3440  0.0134 -0.2229
    5CHTO  H171 1773   6.302   5.186   5.135 -1.1144  0.0177 -0.9695
    5CHTO   O62 1774   5.892   4.685   5.139 -0.9884 -0.1633  0.3713
    5CHTO   C91 1775   5.814   4.715   5.018  0.0323 -0.9733  0.3896
    5CHTO  H178 1776   5.841   4.814   4.982  4.6357 -1.8393  1.1795
    5CHTO   C92 1777   5.663   4.720   5.060  0.1335 -0.2408  0.7494
    5CHTO  H179 1778   5.652   4.796   5.138  0.1189 -1.9170  2.4196
    5CHTO   O66 1779   5.575   4.755   4.950  0.1393 -0.1080 -0.3705
    5CHTO  H166 1780   5.587   4.845   4.926  3.4480 -0.7386 -1.3136
    5CHTO   C93 1781   5.611   4.580   5.109 -0.2414  0.5465 -0.3698
    5CHTO  H180 1782   5.501   4.593   5.107 -0.1878  1.2384  0.6395
    5CHTO   N16 1783   5.653   4.552   5.250 -0.7792 -0.1323  0.2012
    5CHTO  H172 1784   5.743   4.492   5.247 -0.3068  0.5571  0.4084
    5CHTO  H173 1785   5.573   4.496   5.295 -2.3794  1.2753 -0.7759
    5CHTO   C94 1786   5.651   4.468   5.009 -0.2108 -0.7644  0.2775
    5CHTO  H181 1787   5.742   4.415   5.040 -1.7928 -2.6503  1.8172
    5CHTO   O61 1788   5.703   4.519   4.882  0.7413  0.4640  0.4378
    5CHTO   C95 1789   5.817   4.612   4.890  0.1603 -0.2888  0.9380
    5CHTO  H182 1790   5.905   4.547   4.890 -0.3775 -1.0305  0.4722
    5CHTO  C106 1791   5.827   4.694   4.753  0.1291 -0.4421 -0.5486
    5CHTO   O69 1792   5.826   4.617   4.634  0.6225  0.1478 -0.5078
    5CHTO  H169 1793   5.736   4.592   4.621  0.7078 -0.5769  0.2223
    5CHTO   O63 1794   5.538   4.383   4.989 -0.0891  0.3680 -0.5286
    5CHTO   C96 1795   5.551   4.259   4.885  0.0798  0.1021 -0.5538
    5CHTO  H183 1796   5.594   4.285   4.788  2.3652  0.5462  0.5523
    5CHTO   C98 1797   5.407   4.203   4.861 -0.1762 -0.4208  0.4181
    5CHTO  H185 1798   5.335   4.285   4.854  0.2471  0.0531  1.4598
    5CHTO   O67 1799   5.397   4.136   4.733 -0.9358  0.4341 -0.2595
    5CHTO  H167 1800   5.477   4.143   4.685 -0.9629  1.0030 -0.2278
    5CHTO  C102 1801   5.363   4.104   4.974  0.5450  0.3481 -0.2778
    5CHTO  H189 1802   5.264   4.075   4.936  0.7321  1.7089 -1.8796
    5CHTO   N18 1803   5.338   4.150   5.111 -0.0975 -0.4005 -0.0975
    5CHTO  H176 1804   5.432   4.154   5.164 -0.0073  0.4936 -0.3126
    5CHTO  H177 1805   5.282   4.066   5.148 -2.0673  0.1176 -1.8547
    5CHTO  C105 1806   5.461   3.990   4.976  0.2089  0.4026  0.3883
    5CHTO  H192 1807   5.464   3.937   5.071  0.9113 -1.1970 -0.5206
    5CHTO   O65 1808   5.599   4.025   4.936  0.1023 -0.1820 -0.2949
    5CHTO  C100 1809   5.651   4.155   4.950 -0.1561  0.0156 -0.5012
    5CHTO  H187 1810   5.659   4.183   5.056 -2.2237  3.3365 -1.1469
    5CHTO  C107 1811   5.789   4.163   4.888  0.0703  0.2995  0.1172
    5CHTO   O70 1812   5.890   4.069   4.937  0.3174  0.0535  0.1497
    5CHTO  H170 1813   5.892   4.077   5.031 -1.4205  0.1447  0.1808
    5CHTO   O57 1814   5.406   3.894   4.866  0.3469  0.1647  0.0912
    5CHTO   C85 1815   5.400   3.754   4.880  0.0788 -0.8742  0.1302
    5CHTO  H157 1816   5.321   3.745   4.958  0.3917  0.2334  0.5923
    5CHTO   C83 1817   5.524   3.684   4.943 -0.0620  0.1747 -0.5131
    5CHTO  H155 1818   5.524   3.719   5.046 -0.2801  3.0755 -1.4696
    5CHTO   O56 1819   5.649   3.737   4.895  0.2462 -0.0062 -0.4798
    5CHTO  H135 1820   5.662   3.723   4.803  4.3871  0.3345 -0.0307
    5CHTO   C81 1821   5.509   3.530   4.936  0.5023 -0.3749 -0.3998
    5CHTO  H153 1822   5.416   3.503   4.986  0.4076 -2.9863 -1.8726
    5CHTO   N14 1823   5.611   3.459   5.020 -0.2324 -0.2203  0.0892
    5CHTO  H141 1824   5.655   3.508   5.104  0.0695 -1.7451  0.8408
    5CHTO  H142 1825   5.690   3.409   4.967  2.1341  1.6792  1.7324
    5CHTO   C79 1826   5.484   3.479   4.796 -0.9336  0.8672  0.7724
    5CHTO  H151 1827   5.453   3.375   4.809  0.1818  0.3808 -0.3639
    5CHTO   O52 1828   5.363   3.541   4.742  0.1207 -0.1869  0.0654
    5CHTO   C86 1829   5.359   3.689   4.747 -0.7942  0.4506  0.0952
    5CHTO  H158 1830   5.427   3.724   4.667 -1.6534  0.6849 -0.5304
    5CHTO   C90 1831   5.213   3.725   4.704 -0.4414  0.0411  0.3018
    5CHTO   O60 1832   5.193   3.698   4.563 -0.0898  0.0489 -0.4310
    5CHTO  H138 1833   5.105   3.674   4.543 -1.7901  4.0161  1.7566
    5CHTO   O50 1834   5.592   3.501   4.699 -0.6518 -0.5923 -0.4801
    5CHTO   C73 1835   5.638   3.406   4.602  0.4809  0.1460  0.2345
    5CHTO  H145 1836   5.556   3.367   4.540  0.9972  0.4747 -0.6468
    5CHTO   C74 1837   5.720   3.290   4.673  0.3547  0.4136  0.1992
    5CHTO  H146 1838   5.656   3.259   4.757 -2.8143  1.6858 -1.6464
    5CHTO   O54 1839   5.726   3.171   4.588  0.6387 -0.9247  0.3879
    5CHTO  H133 1840   5.754   3.206   4.506 -2.1942 -1.2313 -0.7488
    5CHTO   C75 1841   5.866   3.343   4.720  0.2384 -0.0196  0.1101
    5CHTO  H147 1842   5.851   3.415   4.802 -1.9880 -0.2987 -0.0264
    5CHTO   N13 1843   5.953   3.234   4.779  0.5941 -0.4560  0.4869
    5CHTO  H139 1844   5.914   3.134   4.768 -0.2433 -0.0674 -0.0926
    5CHTO  H140 1845   5.955   3.253   4.885 -1.6932  0.7347  0.3501
    5CHTO   C76 1846   5.939   3.418   4.605  0.0885  0.5166  0.5705
    5CHTO  H148 1847   5.963   3.354   4.520  0.2193  0.2118  0.8375
    5CHTO   O49 1848   5.855   3.532   4.554 -0.2198 -0.2666  0.3846
    5CHTO   C77 1849   5.738   3.475   4.500  0.5126 -0.0274 -0.1258
    5CHTO  H149 1850   5.768   3.398   4.429 -0.2081  0.3020 -0.7969
    5CHTO   C88 1851   5.653   3.573   4.421 -0.2836  0.0511  0.3678
    5CHTO   O58 1852   5.540   3.539   4.347  0.5165  0.8073 -0.0316
    5CHTO  H136 1853   5.534   3.591   4.269 -0.1175  2.7714  1.2808
    5CHTO   O51 1854   6.068   3.483   4.672  0.4350 -0.2956  1.2706
    5CHTO   C78 1855   6.141   3.617   4.603  0.4217  0.4027  0.1758
    5CHTO  H150 1856   6.095   3.632   4.503 -0.6877  5.0216  1.2518
    5CHTO   C80 1857   6.284   3.584   4.576 -0.4577 -0.2034  0.0315
    5CHTO  H152 1858   6.330   3.527   4.659  0.3542  2.7733  1.6839
    5CHTO   O55 1859   6.276   3.486   4.465  0.1823 -0.2627  0.4985
    5CHTO  H134 1860   6.250   3.402   4.497  1.8330 -1.0555 -0.2062
    5CHTO   C84 1861   6.376   3.706   4.537  0.7284 -0.3766 -0.7707
    5CHTO  H156 1862   6.333   3.758   4.451 -1.0065  1.0977  0.9690
    5CHTO   N15 1863   6.522   3.674   4.505  0.5813  0.4258 -0.1929
    5CHTO  H143 1864   6.537   3.635   4.407  1.1360 -0.6939  0.3172
    5CHTO  H144 1865   6.568   3.608   4.577 -0.2161  0.4578  0.3599
    5CHTO   C87 1866   6.364   3.803   4.649  0.2340  0.5534  0.2578
    5CHTO  H159 1867   6.399   3.779   4.749  0.1856 -2.4067 -0.3866
    5CHTO   O53 1868   6.204   3.843   4.654 -0.1599  0.3564 -0.1952
    5CHTO   C82 1869   6.130   3.729   4.707 -0.3113 -0.0699 -0.0783
    5CHTO  H154 1870   6.176   3.702   4.802  0.4344 -2.4348 -1.0665
    5CHTO   C89 1871   5.981   3.763   4.734 -0.1777 -0.4128 -0.3692
    5CHTO   O59 1872   5.930   3.681   4.835  0.3531  0.1556 -0.6176
    5CHTO  H137 1873   5.837   3.672   4.839  0.4314 -0.4504 -0.0756
    5CHTO   O45 1874   6.439   3.960   4.628  0.2494 -0.6842  0.0294
    5CHTO   C67 1875   6.456   4.027   4.755 -0.7250  0.5113 -0.2323
    5CHTO  H124 1876   6.385   3.984   4.826  0.0402 -2.1870 -1.0425
    5CHTO   C65 1877   6.598   4.008   4.818 -0.4169  0.2414  0.1667
    5CHTO  H122 1878   6.661   3.970   4.737  1.1743 -0.7203  1.8013
    5CHTO   O44 1879   6.594   3.904   4.918  0.3898  0.2146  0.1959
    5CHTO  H102 1880   6.595   3.823   4.870  1.4900  0.5632 -0.3884
    5CHTO   C63 1881   6.653   4.146   4.868 -1.0792 -0.1722  0.1555
    5CHTO  H120 1882   6.678   4.202   4.778 -1.3927  0.7578  0.6381
    5CHTO   N11 1883   6.791   4.139   4.936 -0.0080  0.2456  0.2040
    5CHTO  H108 1884   6.779   4.119   5.040  2.1300 -2.7925 -0.0770
    5CHTO  H109 1885   6.853   4.226   4.930  3.2988 -1.7332  3.8106
    5CHTO   C61 1886   6.540   4.229   4.941 -0.6136 -0.0376  0.0559
    5CHTO  H118 1887   6.581   4.327   4.970 -0.5903  0.1169 -0.5119
    5CHTO   O40 1888   6.426   4.252   4.866  0.8869 -0.2472 -0.4243
    5CHTO   C68 1889   6.423   4.184   4.739  0.3307  0.3264  0.7668
    5CHTO  H125 1890   6.500   4.225   4.670  0.0625 -0.1963  0.1569
    5CHTO   C72 1891   6.286   4.227   4.684 -0.0448  0.4564  0.3177
    5CHTO   O48 1892   6.168   4.161   4.732 -0.4311 -0.0312  0.2810
    5CHTO  H105 1893   6.116   4.146   4.655 -0.8592 -0.5422  0.6722
    5CHTO   O38 1894   6.493   4.146   5.053  0.0905 -0.3699  0.0375
    5CHTO   C55 1895   6.430   4.215   5.156 -0.2953  0.1459 -0.4550
    5CHTO  H112 1896   6.396   4.311   5.115  2.0717  1.8723  1.4356
    5CHTO   C56 1897   6.536   4.236   5.281  0.4590 -0.3370  0.0856
    5CHTO  H113 1898   6.567   4.138   5.320  0.0194 -0.8921 -0.9494
    5CHTO   O42 1899   6.652   4.299   5.221  0.2034 -0.2395 -0.2680
    5CHTO  H100 1900   6.620   4.373   5.174 -0.7397 -0.9155 -0.7037
    5CHTO   C57 1901   6.463   4.322   5.390 -0.1227  0.6067  0.3126
    5CHTO  H114 1902   6.448   4.422   5.349  1.8458  2.0587  2.9703
    5CHTO   N10 1903   6.541   4.348   5.513 -0.1344  0.3931 -0.3031
    5CHTO  H106 1904   6.493   4.351   5.610  0.3692 -1.5499  0.0212
    5CHTO  H107 1905   6.615   4.270   5.518 -0.5872  0.0484  1.5803
    5CHTO   C58 1906   6.329   4.255   5.422  0.6864 -0.1781 -0.0022
    5CHTO  H115 1907   6.354   4.154   5.462 -1.6770 -0.5297  0.6852
    5CHTO   O37 1908   6.251   4.222   5.306 -0.2052  0.3036 -0.0206
    5CHTO   C59 1909   6.313   4.139   5.213 -0.4155 -0.0988  0.8764
    5CHTO  H116 1910   6.340   4.044   5.260 -0.6270 -0.6786 -0.1565
    5CHTO   C70 1911   6.220   4.101   5.097  0.7708 -0.7977 -0.1051
    5CHTO   O46 1912   6.249   3.989   5.020  0.0166  0.3633  0.2838
    5CHTO  H103 1913   6.201   3.987   4.940  2.0046 -2.0307 -0.9528
    5CHTO   O39 1914   6.231   4.347   5.522  0.0614  0.2232 -1.0215
    5CHTO   C60 1915   6.102   4.282   5.556  0.0791  0.2055  0.1846
    5CHTO  H117 1916   6.060   4.238   5.465  1.0647  0.7297 -0.5397
    5CHTO   C62 1917   6.125   4.178   5.671  0.3886  0.0441  0.1641
    5CHTO  H119 1918   6.192   4.099   5.630 -1.7156 -0.2179 -2.8992
    5CHTO   O43 1919   6.204   4.243   5.770  0.2825 -0.0820 -0.4266
    5CHTO  H101 1920   6.225   4.173   5.829  1.7873 -1.1009 -2.1227
    5CHTO   C66 1921   5.991   4.114   5.726 -0.2317  0.1917 -0.4828
    5CHTO  H123 1922   5.933   4.058   5.652 -1.4255  1.2284 -0.3489
    5CHTO   N12 1923   6.020   3.999   5.818  0.5609 -0.4583 -0.5985
    5CHTO  H110 1924   5.934   3.939   5.843 -0.8775  1.3548 -1.0342
    5CHTO  H111 1925   6.063   4.044   5.907  1.1352  0.1585 -1.1831
    5CHTO   C69 1926   5.894   4.225   5.773 -0.3966 -0.3290  0.3349
    5CHTO  H126 1927   5.948   4.281   5.852  0.1315 -0.7448  0.2709
    5CHTO   O41 1928   5.868   4.315   5.656  0.0253 -0.1129  0.2107
    5CHTO   C64 1929   5.997   4.385   5.605 -0.0047  0.4414 -0.3722
    5CHTO  H121 1930   6.034   4.445   5.690  0.9454 -0.1673 -0.3382
    5CHTO   C71 1931   5.966   4.484   5.490 -0.2194 -0.7075 -0.3131
    5CHTO   O47 1932   5.890   4.592   5.539  0.3884 -0.5298  0.1354
    5CHTO  H104 1933   5.945   4.668   5.538  1.3757 -1.2028 -3.0970
    5CHTO   O34 1934   5.755   4.179   5.834 -0.0105 -0.8305  0.7325
    5CHTO   C49 1935   5.671   4.261   5.939 -0.6906  0.6532  0.2980
    5CHTO   H91 1936   5.742   4.277   6.021 -2.4244 -0.2360  2.0078
    5CHTO   C47 1937   5.548   4.186   5.984  0.6330 -0.0543 -0.1930
    5CHTO   H89 1938   5.513   4.236   6.077  2.8349  2.7220 -0.7612
    5CHTO   O33 1939   5.586   4.054   6.014  0.3004 -0.0368  0.0399
    5CHTO   H70 1940   5.660   4.039   6.069  1.1003  1.0261 -0.7121
    5CHTO   C45 1941   5.428   4.197   5.874 -1.1824 -0.0395  0.2004
    5CHTO   H87 1942   5.465   4.154   5.780  0.0297 -0.1423  0.7157
    5CHTO    N8 1943   5.309   4.120   5.916 -0.1880 -0.0775  0.4540
    5CHTO   H75 1944   5.332   4.017   5.936  1.2887  0.4355  1.4364
    5CHTO   H76 1945   5.248   4.182   5.980 -1.3381  1.5090 -2.0869
    5CHTO   C43 1946   5.404   4.357   5.835  0.8413  0.0267  0.0016
    5CHTO   H85 1947   5.339   4.355   5.747 -2.0021 -1.9858  2.0627
    5CHTO   O29 1948   5.526   4.426   5.809  0.5703 -0.1605 -0.9891
    5CHTO   C50 1949   5.637   4.404   5.894 -0.2900 -0.5250 -0.7376
    5CHTO   H92 1950   5.718   4.445   5.832  0.7287  3.5298  3.0528
    5CHTO   C54 1951   5.642   4.512   6.006 -0.3233 -0.8146 -0.5866
    5CHTO   O36 1952   5.734   4.619   5.971  0.1597  0.3804 -0.1071
    5CHTO   H72 1953   5.735   4.679   6.042 -3.4650 -0.2072  0.5455
    5CHTO   O27 1954   5.332   4.429   5.940 -0.3348 -0.0904 -0.0086
    5CHTO   C37 1955   5.259   4.539   6.000  0.1906 -0.9224 -0.3879
    5CHTO   H79 1956   5.324   4.623   6.031 -0.6217 -0.6535  0.6278
    5CHTO   C38 1957   5.152   4.594   5.909 -0.1759 -0.3844  0.1993
    5CHTO   H80 1958   5.093   4.511   5.867 -0.4833  0.2558 -0.6367
    5CHTO   O31 1959   5.219   4.659   5.801 -0.1976  0.0088 -0.7991
    5CHTO   H68 1960   5.295   4.611   5.773 -1.1448 -0.0890 -3.3410
    5CHTO   C39 1961   5.051   4.695   5.985  0.2545 -0.7426  0.3955
    5CHTO   H81 1962   5.110   4.779   6.022 -1.4746  0.2763  0.8893
    5CHTO    N7 1963   4.945   4.752   5.896  0.2675  0.5598  0.1149
    5CHTO   H73 1964   4.983   4.783   5.800  0.6879  2.5229  0.9045
    5CHTO   H74 1965   4.854   4.788   5.941 -1.0615 -3.2206  0.7000
    5CHTO   C40 1966   4.999   4.625   6.118 -0.5800 -0.4106  0.0959
    5CHTO   H82 1967   4.936   4.540   6.091 -0.2471 -0.0916 -1.7741
    5CHTO   O26 1968   5.112   4.590   6.198 -0.0953 -0.0855 -0.1442
    5CHTO   C41 1969   5.184   4.485   6.128  0.6179 -0.7462  0.2526
    5CHTO   H83 1970   5.107   4.422   6.081 -1.9747  2.6707 -0.2797
    5CHTO   C52 1971   5.279   4.398   6.209  0.0580 -0.2061 -0.4641
    5CHTO   O35 1972   5.375   4.480   6.286  0.2246 -0.0520 -0.5375
    5CHTO   H71 1973   5.436   4.513   6.224  0.0791 -2.5435 -2.0747
    5CHTO   O28 1974   4.919   4.718   6.194 -0.0443 -0.2958 -0.3101
    5CHTO   C42 1975   4.901   4.733   6.334  0.4538  0.3780  1.2128
    5CHTO   H84 1976   4.804   4.783   6.332  0.6462  0.7214 -0.1308
    5CHTO   C44 1977   5.002   4.837   6.401  0.5843  0.3529 -0.0575
    5CHTO   H86 1978   5.099   4.803   6.367  0.2879  0.3220 -0.8687
    5CHTO   O32 1979   4.965   4.969   6.358  0.0504 -0.2243 -0.0885
    5CHTO   H69 1980   4.956   5.015   6.440  0.9970  1.2153 -0.7669
    5CHTO   C48 1981   5.018   4.825   6.557 -0.0429  0.0957 -0.7740
    5CHTO   H90 1982   4.926   4.860   6.604  0.5647 -1.2608  1.5013
    5CHTO    N9 1983   5.132   4.911   6.606  0.1171  0.1911  1.0963
    5CHTO   H77 1984   5.157   4.910   6.711  3.0650  1.0899  0.4529
    5CHTO   H78 1985   5.217   4.871   6.553 -1.5755 -1.0253 -0.7555
    5CHTO   C51 1986   5.040   4.673   6.588  0.3638 -0.1941 -0.2149
    5CHTO   H93 1987   5.114   4.634   6.519  0.0606 -0.2909 -0.4855
    5CHTO   O30 1988   4.911   4.606   6.574 -0.3064  0.3136  0.3892
    5CHTO   C46 1989   4.885   4.593   6.413 -0.1935  0.5069  0.2909
    5CHTO   H88 1990   4.956   4.519   6.377 -0.9604 -0.1322  0.0844
    5CHTO   C53 1991   4.737   4.538   6.395  0.5042  0.3587  0.2570
    5CHTO   O72 1992   4.638   4.636   6.439 -0.1529 -0.4080 -0.5312
    5CHTO  H199 1993   4.660   4.682   6.518  0.9718  0.3991 -1.2990
    5CHTO   O22 1994   5.082   4.647   6.728 -0.2990 -0.7206  0.7155
    5CHTO   C31 1995   5.183   4.542   6.761 -0.2470  0.0006 -0.3020
    5CHTO   H59 1996   5.175   4.520   6.870 -1.8490  0.7573 -0.2567
    5CHTO   C29 1997   5.149   4.413   6.691  0.3614  0.2978 -0.2392
    5CHTO   H57 1998   5.126   4.433   6.585  0.4302  0.6516 -0.1866
    5CHTO   O21 1999   5.030   4.360   6.741  0.1766 -0.1683 -0.5579
    5CHTO   H37 2000   5.042   4.324   6.827  1.7322  0.6550 -0.4081
    5CHTO   C27 2001   5.263   4.307   6.696  0.3172  0.1021  0.5701
    5CHTO   H55 2002   5.292   4.289   6.801 -0.7778 -2.4586  0.4847
    5CHTO    N5 2003   5.229   4.175   6.635 -0.6000  0.1707 -0.3240
    5CHTO   H43 2004   5.251   4.182   6.529 -1.5248  2.6417 -0.3801
    5CHTO   H44 2005   5.267   4.093   6.693  0.0078  0.2471 -0.6085
    5CHTO   C25 2006   5.387   4.375   6.630 -0.0965 -0.4609 -0.0340
    5CHTO   H53 2007   5.355   4.399   6.528  0.9651 -0.0727 -0.2810
    5CHTO   O17 2008   5.429   4.491   6.715  0.1138  0.5526 -0.3716
    5CHTO   C32 2009   5.330   4.592   6.731  0.2995 -0.1931 -0.9454
    5CHTO   H60 2010   5.331   4.647   6.637  0.3777  1.2381 -0.1269
    5CHTO   C36 2011   5.388   4.671   6.854 -0.2069 -0.0920 -0.0543
    5CHTO   O25 2012   5.515   4.735   6.822 -0.1289  0.6347 -0.6294
    5CHTO   H40 2013   5.499   4.822   6.792 -1.5151  1.7952  3.2180
    5CHTO   O15 2014   5.526   4.275   6.628 -0.7296 -0.0794  0.5274
    5CHTO   C19 2015   5.654   4.338   6.602  0.2022  0.1536 -0.0918
    5CHTO   H47 2016   5.634   4.442   6.573  1.3933 -0.1042 -1.9321
    5CHTO   C20 2017   5.748   4.341   6.730 -0.2750  0.0148  0.5843
    5CHTO   H48 2018   5.773   4.240   6.767  0.8066 -0.0031 -0.1665
    5CHTO   O19 2019   5.679   4.403   6.843  0.3141 -0.0654 -0.3169
    5CHTO   H35 2020   5.671   4.493   6.818  1.9408 -0.0853 -0.9889
    5CHTO   C21 2021   5.893   4.399   6.703 -0.3147 -0.1583 -0.3287
    5CHTO   H49 2022   5.886   4.502   6.668 -1.1929 -0.9275 -2.4851
    5CHTO    N4 2023   5.984   4.389   6.818  0.0579  0.4660 -0.2406
    5CHTO   H41 2024   6.015   4.286   6.824 -0.5127  0.2442 -1.1361
    5CHTO   H42 2025   6.069   4.456   6.817 -0.4983  1.1608 -1.9659
    5CHTO   C22 2026   5.947   4.333   6.571 -0.3869 -0.1145 -0.3237
    5CHTO   H50 2027   5.976   4.229   6.584  0.8508  0.2122 -0.3951
    5CHTO   O14 2028   5.850   4.341   6.462 -0.3219 -0.2875  0.3862
    5CHTO   C23 2029   5.727   4.265   6.482  0.7902 -0.6654 -0.1778
    5CHTO   H51 2030   5.754   4.161   6.505 -2.4618 -1.1034  1.9615
    5CHTO   C34 2031   5.643   4.275   6.354 -0.2213  0.7187 -0.5690
    5CHTO   O23 2032   5.532   4.182   6.350 -0.5898  0.2565 -0.6936
    5CHTO   H38 2033   5.562   4.097   6.322 -0.7004 -0.4338  1.2059
    5CHTO   O16 2034   6.050   4.410   6.508 -0.5656  0.3543 -0.0331
    5CHTO   C24 2035   6.182   4.306   6.460 -0.4899 -0.1499 -0.1139
    5CHTO   H52 2036   6.188   4.213   6.517 -0.7601  0.6011  1.1680
    5CHTO   C26 2037   6.311   4.388   6.491  0.2314 -0.0380  0.2198
    5CHTO   H54 2038   6.313   4.473   6.419  0.2246 -0.2731 -0.0580
    5CHTO   O20 2039   6.309   4.412   6.633 -0.5935 -0.0473  0.8257
    5CHTO   H36 2040   6.336   4.333   6.675  0.5212 -0.6675 -0.9705
    5CHTO   C30 2041   6.432   4.310   6.434  0.1042 -0.6995 -0.2514
    5CHTO   H58 2042   6.444   4.209   6.477 -0.3719 -0.9358 -0.6790
    5CHTO    N6 2043   6.561   4.381   6.453 -0.0947  0.0828  0.1714
    5CHTO   H45 2044   6.617   4.387   6.362  0.4111 -0.0273  0.4753
    5CHTO   H46 2045   6.538   4.480   6.491 -2.0372 -0.3308  0.1430
    5CHTO   C33 2046   6.415   4.273   6.287  0.0776  0.2291 -0.1933
    5CHTO   H61 2047   6.412   4.358   6.217 -1.2523  0.2000 -0.1920
    5CHTO   O18 2048   6.288   4.201   6.276  0.3281  0.6169  0.1735
    5CHTO   C28 2049   6.171   4.269   6.309  0.5931 -0.5383  0.2191
    5CHTO   H56 2050   6.167   4.358   6.246  1.6025  0.5188  1.6127
    5CHTO   C35 2051   6.050   4.182   6.267  0.5899 -0.5093 -0.0053
    5CHTO   O24 2052   6.047   4.060   6.342 -0.0371  0.2760  0.3013
    5CHTO   H39 2053   5.990   4.057   6.416 -0.3523  1.2359  0.0935
    5CHTO    O9 2054   6.526   4.192   6.241 -0.4955 -0.4923 -0.0239
    5CHTO   C13 2055   6.521   4.157   6.083 -0.4776 -0.3410  0.0789
    5CHTO   H26 2056   6.466   4.235   6.026  0.6415 -0.1997 -0.8460
    5CHTO   C11 2057   6.465   4.011   6.052 -0.5636  0.1307  0.2649
    5CHTO   H24 2058   6.361   4.014   6.086 -0.8356 -0.1435 -0.5410
    5CHTO    O8 2059   6.543   3.911   6.124 -0.4214  0.7087 -0.0789
    5CHTO    H3 2060   6.481   3.849   6.156 -2.2948  1.3125 -2.3913
    5CHTO    C9 2061   6.471   3.995   5.898 -0.4830 -0.4798 -0.6530
    5CHTO   H22 2062   6.398   4.069   5.862 -0.1525 -0.6556 -1.7193
    5CHTO    N2 2063   6.403   3.869   5.860  0.4376  0.3167  0.5276
    5CHTO   H10 2064   6.415   3.832   5.759  0.3863 -0.5745  0.8442
    5CHTO   H11 2065   6.300   3.890   5.883 -0.2614 -3.3765  1.0933
    5CHTO    C7 2066   6.615   4.027   5.829  0.3538 -0.7416  0.1936
    5CHTO   H20 2067   6.592   4.122   5.776  1.3415 -1.5533 -1.7060
    5CHTO    O4 2068   6.706   4.065   5.936 -0.0143  0.7369 -0.0461
    5CHTO   C14 2069   6.668   4.175   6.017  0.6795  0.4330 -0.5565
    5CHTO   H27 2070   6.664   4.253   5.939  0.0624  1.0458  0.0779
    5CHTO   C18 2071   6.789   4.201   6.116 -0.1592  0.1102  0.1012
    5CHTO   O13 2072   6.909   4.212   6.043 -0.5009  0.1970  0.2206
    5CHTO    H7 2073   6.975   4.250   6.098  1.6505  0.2104 -2.2891
    5CHTO    O2 2074   6.683   3.914   5.739 -0.1302 -0.3669 -0.3776
    5CHTO    C1 2075   6.715   3.955   5.606  0.4410  0.7016  0.1287
    5CHTO   H14 2076   6.679   4.056   5.578 -1.8724  0.3628  1.7393
    5CHTO    C2 2077   6.637   3.854   5.503 -0.1884  0.2233  0.4759
    5CHTO   H15 2078   6.645   3.749   5.534  0.4282 -0.3981 -1.6678
    5CHTO    O6 2079   6.499   3.886   5.498  0.1139 -0.0149  0.3255
    5CHTO    H1 2080   6.479   3.975   5.520 -0.8514  0.0901 -0.9317
    5CHTO    C3 2081   6.691   3.878   5.358 -0.8219 -0.8612  0.4380
    5CHTO   H16 2082   6.661   3.977   5.320 -0.9138 -0.1813  2.2581
    5CHTO    N1 2083   6.630   3.779   5.256 -0.1112 -0.6131 -0.7794
    5CHTO    H8 2084   6.649   3.675   5.279 -1.0047 -0.4489  0.7944
    5CHTO    H9 2085   6.671   3.808   5.161 -0.0817  1.2336 -0.2223
    5CHTO    C4 2086   6.850   3.892   5.353 -0.1815  0.6464  0.3300
    5CHTO   H17 2087   6.892   3.792   5.368 -1.7010 -0.0567  0.0229
    5CHTO    O1 2088   6.896   3.979   5.454 -0.2203  0.0648  0.6360
    5CHTO    C5 2089   6.872   3.955   5.591  0.3048  0.0251  0.1797
    5CHTO   H18 2090   6.916   3.858   5.613  0.3585 -0.2063 -0.9172
    5CHTO   C16 2091   6.947   4.057   5.675 -0.9700 -0.1458  0.3043
    5CHTO   O11 2092   6.908   4.193   5.664 -0.1356  0.3126 -0.0245
    5CHTO    H5 2093   6.978   4.246   5.632  0.5620 -1.0705 -0.8010
    5CHTO    O3 2094   6.892   3.950   5.233 -0.6391  0.0315  0.0765
    5CHTO    C6 2095   7.038   3.931   5.207 -0.4715 -0.4284 -0.2156
    5CHTO   H19 2096   7.099   3.894   5.290  1.5828  2.1197 -0.5082
    5CHTO    C8 2097   7.055   3.839   5.082 -0.1182 -0.3277 -0.0519
    5CHTO   H21 2098   7.003   3.884   4.997  0.4779 -3.0930 -1.9394
    5CHTO    O7 2099   6.983   3.718   5.114  0.4383 -0.5561  0.9322
    5CHTO    H2 2100   7.032   3.675   5.181  1.7685 -1.3973 -0.5367
    5CHTO   C12 2101   7.205   3.825   5.050 -0.6262 -0.0890 -0.8986
    5CHTO   H25 2102   7.263   3.778   5.132  1.3462  1.5822 -1.2966
    5CHTO    N3 2103   7.237   3.731   4.938  0.3808 -0.3292 -0.5329
    5CHTO   H12 2104   7.212   3.771   4.841  1.0890 -0.0039 -0.5814
    5CHTO   H13 2105   7.343   3.709   4.945  0.5975  1.5346  3.0639
    5CHTO   C15 2106   7.263   3.975   5.028  0.7223 -0.3210 -0.5872
    5CHTO   H28 2107   7.218   4.018   4.938 -0.2169 -0.2245 -0.0773
    5CHTO   O10 2108   7.413   3.983   5.007 -0.1530  0.1723 -0.0431
    5CHTO    H4 2109   7.456   3.901   5.021  1.4438  0.8142 -1.1113
    5CHTO    O5 2110   7.241   4.064   5.140  0.0801  0.2151  0.2389
    5CHTO   C10 2111   7.096   4.073   5.168 -0.6534  0.9263  0.7141
    5CHTO   H23 2112   7.043   4.105   5.079  2.5703 -0.0762 -1.6742
    5CHTO   C17 2113   7.070   4.178   5.285 -0.3704 -0.6003 -0.0196
    5CHTO   O12 2114   7.124   4.309   5.269 -0.0477  0.0325 -0.1616
    5CHTO    H6 2115   7.218   4.303   5.260 -0.0392  0.8501 -0.6321
    6CHTO  H203 2116   7.582   6.018   2.185 -0.6504 -0.2550  3.4287
    6CHTO   O82 2117   7.512   5.959   2.164  0.2393 -0.2535  0.1897
    6CHTO  C123 2118   7.387   6.028   2.192  0.5769 -0.2587  0.1181
    6CHTO  H227 2119   7.402   6.133   2.164  1.0127 -0.7347 -1.4779
    6CHTO   O77 2120   7.292   5.971   2.104 -0.0213 -0.9812 -0.0592
    6CHTO  C118 2121   7.163   6.022   2.119 -0.4797  0.0093  0.5911
    6CHTO  H222 2122   7.158   6.132   2.113 -1.0030 -0.0751 -0.9059
    6CHTO  C125 2123   7.077   5.958   2.003  0.6155 -0.1631  0.2919
    6CHTO   O84 2124   7.094   6.017   1.878  0.2485 -0.7274 -0.2339
    6CHTO  H205 2125   7.012   6.055   1.852  0.2054  0.1926  1.2154
    6CHTO  C114 2126   7.113   5.979   2.257  0.2192 -0.2094  0.3426
    6CHTO  H218 2127   7.127   5.871   2.267  0.8782 -0.0914  0.6913
    6CHTO  C116 2128   7.199   6.049   2.365 -0.1852  0.6545  0.1984
    6CHTO  H220 2129   7.187   6.159   2.357  0.4398  0.8454  1.7435
    6CHTO   O79 2130   7.145   6.018   2.490  0.5536 -0.2721  0.0712
    6CHTO  H201 2131   7.146   5.925   2.495  0.2205 -0.3337 -0.8732
    6CHTO  C120 2132   7.351   6.011   2.342 -0.0227 -0.0155  0.2492
    6CHTO  H224 2133   7.359   5.904   2.372  2.3794  0.1406  0.2384
    6CHTO   N21 2134   7.438   6.075   2.438 -0.3034  0.6556 -0.3702
    6CHTO  H211 2135   7.475   6.170   2.401 -0.6724  1.7887  2.0464
    6CHTO  H212 2136   7.517   6.009   2.471 -1.7008 -0.3932  0.9326
    6CHTO   O75 2137   6.970   6.014   2.254  0.1079  0.3183 -0.1789
    6CHTO  C112 2138   6.866   5.905   2.315 -0.1490 -0.6430 -0.5349
    6CHTO  H216 2139   6.911   5.857   2.403  0.3000  0.2600 -0.2756
    6CHTO   O73 2140   6.838   5.814   2.203  0.3427 -0.7458 -0.3822
    6CHTO  C113 2141   6.731   5.730   2.229 -0.7563  0.0979  0.2820
    6CHTO  H217 2142   6.755   5.665   2.316  0.2375 -0.0518 -0.0978
    6CHTO  C124 2143   6.709   5.636   2.103  0.4720  0.0600  0.4495
    6CHTO   O83 2144   6.702   5.716   1.989 -0.6679  0.4926 -0.3599
    6CHTO  H204 2145   6.762   5.788   1.993  0.0302 -0.1892  2.6237
    6CHTO  C109 2146   6.599   5.794   2.283 -0.0954  0.1822  0.0459
    6CHTO  H213 2147   6.551   5.850   2.201 -0.3323  0.3561  0.3023
    6CHTO  C110 2148   6.625   5.896   2.393 -0.1544 -0.4109 -0.2044
    6CHTO  H214 2149   6.645   5.841   2.486 -0.0371 -0.3936 -0.2193
    6CHTO   O78 2150   6.503   5.972   2.420  0.3640 -0.5687  0.4042
    6CHTO  H200 2151   6.432   5.920   2.452 -0.0450 -0.1615  0.1601
    6CHTO  C111 2152   6.743   5.989   2.362 -0.0932  0.7044 -1.3095
    6CHTO  H215 2153   6.710   6.056   2.282 -0.2832  1.1405 -0.8679
    6CHTO   N19 2154   6.783   6.070   2.479 -0.2546 -0.3929  0.0133
    6CHTO  H207 2155   6.804   6.008   2.564  0.4204 -0.6677 -0.3466
    6CHTO  H208 2156   6.872   6.128   2.459  0.2214 -0.7330  1.1058
    6CHTO   O74 2157   6.503   5.685   2.336 -0.5678  0.5876  0.4859
    6CHTO  C115 2158   6.341   5.744   2.302 -0.5079  0.7127  0.1544
    6CHTO  H219 2159   6.339   5.844   2.260  0.6289  0.0023 -1.6634
    6CHTO   O76 2160   6.277   5.654   2.195 -0.4245  0.0334  0.1944
    6CHTO  C122 2161   6.286   5.520   2.232 -0.1220 -0.1439 -0.7772
    6CHTO  H226 2162   6.391   5.490   2.218 -0.1782 -0.8938  0.3216
    6CHTO  C126 2163   6.212   5.440   2.120  0.1297 -0.1544 -1.0601
    6CHTO   O85 2164   6.217   5.300   2.125  0.1089  0.2419 -0.3139
    6CHTO  H206 2165   6.156   5.267   2.188  1.5197 -0.2522  0.8099
    6CHTO  C121 2166   6.246   5.480   2.377 -0.2751  0.2065 -0.2923
    6CHTO  H225 2167   6.172   5.397   2.378 -0.4225  0.3501  0.9127
    6CHTO   O81 2168   6.359   5.440   2.450 -0.0294 -0.0470  0.2665
    6CHTO  H202 2169   6.346   5.351   2.476  1.8319  0.0015  1.4194
    6CHTO  C119 2170   6.183   5.598   2.460 -0.4125 -0.5909  0.3535
    6CHTO  H223 2171   6.082   5.596   2.418 -1.0750  0.8772  1.8553
    6CHTO  C117 2172   6.257   5.740   2.435  0.3353  0.0321  0.2282
    6CHTO  H221 2173   6.332   5.768   2.510  2.0291  1.3991 -1.9101
    6CHTO   N20 2174   6.158   5.852   2.441 -0.4963 -0.3361 -0.4327
    6CHTO  H209 2175   6.216   5.942   2.449  0.3057 -0.8813 -0.0120
    6CHTO  H210 2176   6.094   5.852   2.354 -1.8225 -0.0925  0.5307
    6CHTO   O80 2177   6.162   5.567   2.598  0.2080 -0.2413 -0.4057
    6CHTO  C103 2178   6.010   5.571   2.668 -0.7863 -0.7091  0.9880
    6CHTO  H190 2179   6.021   5.554   2.775  0.2601  0.5298  1.0833
    6CHTO  C101 2180   5.936   5.698   2.647  0.6487 -0.2844 -0.6483
    6CHTO  H188 2181   5.923   5.715   2.540  1.2454  3.2349 -0.2235
    6CHTO   O68 2182   6.017   5.832   2.710 -0.5106 -0.7857  0.1830
    6CHTO  H168 2183   5.955   5.888   2.752  0.1227  0.7481 -0.8686
    6CHTO   C99 2184   5.786   5.674   2.705 -1.0177 -0.0753  0.3558
    6CHTO  H186 2185   5.797   5.657   2.814  1.3147  1.6004  0.4205
    6CHTO   N17 2186   5.702   5.793   2.692 -0.4657  0.2215 -0.2691
    6CHTO  H174 2187   5.663   5.793   2.591  1.3743 -0.5831 -0.9960
    6CHTO  H175 2188   5.768   5.877   2.706 -2.2603  1.3100  1.9104
    6CHTO   C97 2189   5.726   5.544   2.638  0.5007  0.8658 -0.2830
    6CHTO  H184 2190   5.712   5.557   2.530  1.4972  0.7779 -0.4336
    6CHTO   O64 2191   5.813   5.430   2.662 -0.5870  0.5532 -0.4346
    6CHTO  C104 2192   5.945   5.440   2.614 -0.6340  0.6397  0.2534
    6CHTO  H191 2193   5.954   5.438   2.505  1.1486 -1.7623  0.3980
    6CHTO  C108 2194   6.027   5.318   2.670  0.3511  0.5257 -0.6556
    6CHTO   O71 2195   6.058   5.320   2.810  0.7023 -0.0944  0.7318
    6CHTO  H171 2196   6.106   5.243   2.834  1.0961  0.1003  0.5694
    6CHTO   O62 2197   5.593   5.510   2.696  0.0602  0.7409 -0.2884
    6CHTO   C91 2198   5.586   5.458   2.828 -0.0762  0.3049  0.2436
    6CHTO  H178 2199   5.670   5.501   2.883 -0.3645  1.2526 -0.0417
    6CHTO   C92 2200   5.590   5.305   2.819 -0.7164  0.2168 -0.0541
    6CHTO  H179 2201   5.668   5.279   2.745  0.0354 -2.3860  1.6198
    6CHTO   O66 2202   5.643   5.255   2.948  0.8544  0.0659  0.3435
    6CHTO  H166 2203   5.574   5.257   3.013 -0.2513  1.2928 -0.8514
    6CHTO   C93 2204   5.455   5.240   2.802 -0.1143  0.0549  0.9108
    6CHTO  H180 2205   5.471   5.132   2.815  0.3076 -0.0235 -0.1601
    6CHTO   N16 2206   5.400   5.246   2.664 -0.5015  0.9032 -0.7532
    6CHTO  H172 2207   5.293   5.234   2.657 -0.3465 -1.1961 -0.0599
    6CHTO  H173 2208   5.443   5.167   2.605  0.3063  2.4335 -2.2293
    6CHTO   C94 2209   5.350   5.289   2.913  0.9707 -0.1978  0.4210
    6CHTO  H181 2210   5.252   5.307   2.869 -0.0843 -1.5084  2.1714
    6CHTO   O61 2211   5.392   5.403   2.986  0.3844 -0.2695 -0.3160
    6CHTO   C95 2212   5.455   5.504   2.902  0.2407 -0.1002  0.3390
    6CHTO  H182 2213   5.388   5.527   2.819 -0.0549 -1.1556  0.2755
    6CHTO  C106 2214   5.469   5.644   2.972 -0.2738 -0.5040 -0.2731
    6CHTO   O69 2215   5.566   5.631   3.069 -0.0968 -0.0487 -0.2480
    6CHTO  H169 2216   5.642   5.685   3.060  0.3787 -0.3081  1.9435
    6CHTO   O63 2217   5.333   5.177   3.034  0.1512  0.5350  0.0164
    6CHTO   C96 2218   5.244   5.053   2.965  0.1095  0.6765 -1.1203
    6CHTO  H183 2219   5.242   5.068   2.857  0.2149  0.8139 -1.1038
    6CHTO   C98 2220   5.095   5.055   3.014 -1.2760  0.3521  0.0493
    6CHTO  H185 2221   5.085   5.076   3.122  2.0603 -1.5203  0.7863
    6CHTO   O67 2222   5.035   5.170   2.955 -0.4892  0.3223  0.2551
    6CHTO  H167 2223   4.942   5.161   2.965 -0.1784 -1.3509  2.0918
    6CHTO  C102 2224   5.025   4.918   2.982  0.2942 -0.7360 -0.0235
    6CHTO  H189 2225   5.029   4.918   2.872 -0.5256 -0.0302 -0.0635
    6CHTO   N18 2226   4.883   4.914   3.012 -0.2234 -0.2711 -0.3300
    6CHTO  H176 2227   4.846   5.014   3.024  1.0236  0.2195 -0.5537
    6CHTO  H177 2228   4.858   4.858   3.102 -0.8378  2.7492  1.4598
    6CHTO  C105 2229   5.104   4.810   3.047 -0.3717 -0.1779 -0.9181
    6CHTO  H192 2230   5.123   4.833   3.152 -0.1108 -1.0244 -0.7753
    6CHTO   O65 2231   5.229   4.803   2.975 -0.1773 -0.1666 -0.5912
    6CHTO  C100 2232   5.315   4.913   2.999 -0.4256 -0.5291  0.1023
    6CHTO  H187 2233   5.342   4.908   3.105 -0.9143  0.4179  0.2716
    6CHTO  C107 2234   5.445   4.889   2.934 -0.7726  0.3808  0.3857
    6CHTO   O70 2235   5.504   4.770   2.981  0.2533 -0.4870 -0.0056
    6CHTO  H170 2236   5.478   4.697   2.928  1.4314  0.8781 -2.5411
    6CHTO   O57 2237   5.039   4.657   3.017 -0.0507 -0.2595 -0.3128
    6CHTO   C85 2238   5.055   4.544   3.104  0.1070  0.8988 -0.5789
    6CHTO  H157 2239   5.024   4.464   3.033 -0.0166  0.3426  0.0969
    6CHTO   C83 2240   4.947   4.552   3.219  0.2127 -0.0287  0.2893
    6CHTO  H155 2241   4.852   4.518   3.178  1.7307 -0.4658 -3.0145
    6CHTO   O56 2242   4.932   4.688   3.264 -0.9194  0.2779 -0.4182
    6CHTO  H135 2243   4.848   4.687   3.305 -1.7351 -1.8040 -2.0904
    6CHTO   C81 2244   4.976   4.453   3.337 -0.3029 -0.1291  0.3377
    6CHTO  H153 2245   4.955   4.352   3.301  1.3162 -0.4094  0.1187
    6CHTO   N14 2246   4.878   4.466   3.446  0.4965 -0.1235 -0.3619
    6CHTO  H141 2247   4.782   4.428   3.418  1.4289 -1.0546 -2.4430
    6CHTO  H142 2248   4.910   4.412   3.532 -0.7045 -0.6594 -0.2365
    6CHTO   C79 2249   5.131   4.455   3.380 -0.1488 -0.4601 -0.5367
    6CHTO  H151 2250   5.142   4.370   3.446 -0.7055 -0.5875 -0.6104
    6CHTO   O52 2251   5.204   4.424   3.267 -0.3366 -0.3514 -0.5127
    6CHTO   C86 2252   5.198   4.520   3.161  0.3389  0.0574 -0.3079
    6CHTO  H158 2253   5.240   4.616   3.197  0.1402  0.3644 -0.8809
    6CHTO   C90 2254   5.295   4.480   3.049 -0.4910  0.1835 -0.0655
    6CHTO   O60 2255   5.433   4.509   3.082  0.4809  0.0765 -0.0180
    6CHTO  H138 2256   5.455   4.580   3.025 -2.0435  1.6451  0.9139
    6CHTO   O50 2257   5.162   4.577   3.442  0.1631  0.2444 -0.1096
    6CHTO   C73 2258   5.173   4.647   3.565 -0.4094  1.0753  0.1196
    6CHTO  H145 2259   5.129   4.585   3.645 -1.3006 -0.4901 -1.5464
    6CHTO   C74 2260   5.086   4.777   3.553 -0.0569  0.3806 -0.8291
    6CHTO  H146 2261   4.981   4.752   3.531 -0.0286 -0.1117 -0.4198
    6CHTO   O54 2262   5.080   4.835   3.685  0.1484 -0.3591 -0.6597
    6CHTO  H133 2263   5.019   4.906   3.697 -0.0345 -0.3590 -1.5736
    6CHTO   C75 2264   5.158   4.871   3.444  0.9925  0.6354  0.1231
    6CHTO  H147 2265   5.140   4.824   3.347  0.4908  0.3525  0.3522
    6CHTO   N13 2266   5.089   5.001   3.442 -0.1980  0.4559  0.1624
    6CHTO  H139 2267   4.990   4.989   3.402  1.1763 -1.4965 -2.7741
    6CHTO  H140 2268   5.088   5.050   3.539  0.8441  0.5271  0.1406
    6CHTO   C76 2269   5.314   4.882   3.468 -0.2839  0.4953 -0.2484
    6CHTO  H148 2270   5.315   4.928   3.567  1.1299  0.3225 -0.1726
    6CHTO   O49 2271   5.381   4.751   3.483  0.0125 -0.4642 -0.1774
    6CHTO   C77 2272   5.319   4.681   3.595  0.5992 -0.5011  0.3188
    6CHTO  H149 2273   5.324   4.753   3.678  1.4209  2.1604 -1.9590
    6CHTO   C88 2274   5.400   4.561   3.639  0.4696 -0.0522  0.2456
    6CHTO   O58 2275   5.555   4.621   3.641  0.1832  0.5174  0.1548
    6CHTO  H136 2276   5.615   4.559   3.678 -0.9561 -1.4192 -1.1124
    6CHTO   O51 2277   5.390   4.952   3.353  0.1895  0.0660 -0.4896
    6CHTO   C78 2278   5.501   5.071   3.383 -0.4688 -0.5492  0.4272
    6CHTO  H150 2279   5.550   5.066   3.482  2.2098  2.1367 -0.6838
    6CHTO   C80 2280   5.440   5.213   3.377  0.2488  0.5574 -0.2901
    6CHTO  H152 2281   5.404   5.232   3.274  1.6894  3.7806 -0.2814
    6CHTO   O55 2282   5.340   5.221   3.481 -0.7362  0.2414 -0.4091
    6CHTO  H134 2283   5.388   5.212   3.561  0.2463  2.6103 -0.7027
    6CHTO   C84 2284   5.544   5.328   3.398 -0.2524  0.4577 -0.2078
    6CHTO  H156 2285   5.556   5.313   3.505 -0.4514  0.8691 -0.1283
    6CHTO   N15 2286   5.487   5.467   3.376  0.1009  0.4630 -0.1354
    6CHTO  H143 2287   5.380   5.473   3.369  0.0305 -0.0303  0.4681
    6CHTO  H144 2288   5.525   5.522   3.292 -0.4260  4.7896  2.3158
    6CHTO   C87 2289   5.665   5.299   3.313 -0.3177 -0.7137 -0.1400
    6CHTO  H159 2290   5.645   5.320   3.209 -1.0111  1.3320  0.3901
    6CHTO   O53 2291   5.706   5.157   3.321  0.2269  0.2969  0.3089
    6CHTO   C82 2292   5.618   5.059   3.281  0.6177 -0.0866  0.2919
    6CHTO  H154 2293   5.587   5.077   3.178  0.2400 -3.0249 -0.1444
    6CHTO   C89 2294   5.673   4.917   3.282  0.6976 -0.3010 -0.2649
    6CHTO   O59 2295   5.736   4.883   3.407  0.0631  0.3179  0.0652
    6CHTO  H137 2296   5.678   4.888   3.481  0.3308  3.2639  0.1168
    6CHTO   O45 2297   5.808   5.385   3.367  0.3474  0.2494  0.1931
    6CHTO   C67 2298   5.911   5.381   3.266  0.0810  0.7755  0.6585
    6CHTO  H124 2299   5.895   5.293   3.205 -1.7132  0.5054  1.4974
    6CHTO   C65 2300   5.882   5.516   3.185 -0.6959 -0.3464 -0.0401
    6CHTO  H122 2301   5.780   5.551   3.203  0.1656  3.9539 -2.9620
    6CHTO   O44 2302   5.896   5.487   3.042  0.2784  0.0627  0.1844
    6CHTO  H102 2303   5.983   5.458   3.021  0.4398  1.2992 -0.9041
    6CHTO   C63 2304   5.979   5.629   3.224 -0.9063 -0.4396 -0.5079
    6CHTO  H120 2305   5.980   5.639   3.332  2.6203 -1.0699 -0.4097
    6CHTO   N11 2306   5.945   5.768   3.175  1.0780 -0.0981 -0.0544
    6CHTO  H108 2307   5.891   5.808   3.258 -0.5591 -1.9151 -0.2144
    6CHTO  H109 2308   6.039   5.821   3.178  1.6310 -1.0720 -0.0593
    6CHTO   C61 2309   6.126   5.580   3.191 -0.3577  0.0117 -0.1986
    6CHTO  H118 2310   6.202   5.645   3.237 -0.9669  0.8080 -0.3060
    6CHTO   O40 2311   6.154   5.446   3.238 -0.5145  0.7229  0.1693
    6CHTO   C68 2312   6.055   5.381   3.327  0.0382  0.1802 -0.7806
    6CHTO  H125 2313   6.050   5.441   3.420  0.7003 -3.2600  1.5755
    6CHTO   C72 2314   6.102   5.241   3.365 -0.7540  0.0368  0.4717
    6CHTO   O48 2315   6.216   5.239   3.451 -0.4582 -0.0501  0.6311
    6CHTO  H105 2316   6.278   5.302   3.419 -0.1122  0.1347  1.6351
    6CHTO   O38 2317   6.152   5.562   3.047  0.2014  0.6022  0.0750
    6CHTO   C55 2318   6.282   5.602   3.003 -0.6158 -0.5308  0.3983
    6CHTO  H112 2319   6.350   5.597   3.090  0.8101  0.2691 -0.6450
    6CHTO   C56 2320   6.288   5.741   2.937 -0.4267  0.5916 -0.0388
    6CHTO  H113 2321   6.215   5.741   2.854 -0.1749  0.7012 -0.2649
    6CHTO   O42 2322   6.245   5.835   3.035 -0.2117  0.4703 -0.1793
    6CHTO  H100 2323   6.307   5.904   3.048 -0.6734  0.7867  0.3302
    6CHTO   C57 2324   6.429   5.772   2.875 -0.4826 -0.6608  0.0637
    6CHTO  H114 2325   6.506   5.782   2.951 -0.5787 -1.3588  0.2538
    6CHTO   N10 2326   6.433   5.895   2.794  0.1729 -0.3462 -0.3291
    6CHTO  H106 2327   6.331   5.929   2.777  0.2396  0.0395  0.0255
    6CHTO  H107 2328   6.487   5.974   2.844  0.0701 -0.9106  0.6835
    6CHTO   C58 2329   6.474   5.653   2.781 -0.1150 -0.0675  0.2462
    6CHTO  H115 2330   6.396   5.643   2.702 -0.6183 -0.9120  0.8358
    6CHTO   O37 2331   6.470   5.532   2.859 -0.3480 -0.5201  0.4369
    6CHTO   C59 2332   6.335   5.495   2.899 -0.0225  0.4461 -1.3450
    6CHTO  H116 2333   6.257   5.500   2.823 -0.1744 -0.2702 -1.2451
    6CHTO   C70 2334   6.342   5.348   2.948  0.3099  0.2802 -0.5384
    6CHTO   O46 2335   6.412   5.330   3.079  0.1281  0.1257  0.4203
    6CHTO  H103 2336   6.369   5.370   3.153 -1.1554 -4.0374  2.0668
    6CHTO   O39 2337   6.631   5.679   2.697  0.2001  0.5759  0.2437
    6CHTO   C60 2338   6.736   5.583   2.716  0.1801  0.1417  0.5032
    6CHTO  H117 2339   6.741   5.557   2.822  0.9456  0.2798  0.5061
    6CHTO   C62 2340   6.696   5.459   2.634 -0.4469  0.6208 -0.3048
    6CHTO  H119 2341   6.594   5.426   2.664 -1.7037  4.0582 -0.5805
    6CHTO   O43 2342   6.692   5.505   2.499  0.4641 -0.7983 -0.6845
    6CHTO  H101 2343   6.641   5.584   2.493  1.2542 -0.2700 -0.4960
    6CHTO   C66 2344   6.805   5.338   2.655 -0.5911 -0.1955  0.2471
    6CHTO  H123 2345   6.808   5.309   2.760  0.8476  0.6123  0.4343
    6CHTO   N12 2346   6.766   5.214   2.577 -0.0718  0.6512  0.1424
    6CHTO  H110 2347   6.667   5.226   2.536 -0.4296 -1.9476  0.1960
    6CHTO  H111 2348   6.756   5.130   2.643 -1.5425  0.1922 -0.6535
    6CHTO   C69 2349   6.953   5.388   2.625 -0.0586  0.3470  0.9233
    6CHTO  H126 2350   6.982   5.387   2.518 -1.1149 -1.0119  0.6458
    6CHTO   O41 2351   6.981   5.534   2.699 -0.4714  0.2982 -0.6751
    6CHTO   C64 2352   6.874   5.640   2.680  0.5588  0.0814  0.1424
    6CHTO  H121 2353   6.882   5.679   2.576  2.0752  1.2074  0.6768
    6CHTO   C71 2354   6.909   5.742   2.778 -0.3665 -0.0764 -0.0604
    6CHTO   O47 2355   6.834   5.861   2.772  0.0673 -0.1293  0.6958
    6CHTO  H104 2356   6.758   5.843   2.824 -0.6566  0.4735 -0.1412
    6CHTO   O34 2357   7.042   5.295   2.697 -0.5257 -0.2749 -0.1393
    6CHTO   C49 2358   7.153   5.198   2.635 -0.2972 -0.1972  0.1937
    6CHTO   H91 2359   7.098   5.136   2.565 -1.0119  1.8033 -1.0749
    6CHTO   C47 2360   7.211   5.104   2.748  0.0380 -0.5271  0.8871
    6CHTO   H89 2361   7.285   5.041   2.694  0.1750 -2.9248  3.7810
    6CHTO   O33 2362   7.113   5.014   2.795  0.4178  0.3500  0.4249
    6CHTO   H70 2363   7.101   5.044   2.883  0.6649  3.8476 -0.6214
    6CHTO   C45 2364   7.298   5.196   2.852 -0.6328  0.6562 -0.0043
    6CHTO   H87 2365   7.222   5.224   2.927  0.3544  0.9962  0.8763
    6CHTO    N8 2366   7.402   5.107   2.912 -0.4358 -0.0376 -0.1840
    6CHTO   H75 2367   7.354   5.011   2.926 -1.1188  0.1030 -1.4158
    6CHTO   H76 2368   7.484   5.108   2.842 -1.6534  0.4752 -1.6462
    6CHTO   C43 2369   7.339   5.331   2.784  0.4298  0.1396 -0.0071
    6CHTO   H85 2370   7.248   5.392   2.789 -0.1179 -0.6481 -0.3685
    6CHTO   O29 2371   7.382   5.308   2.646 -0.1225 -0.5909 -0.6729
    6CHTO   C50 2372   7.273   5.270   2.563  0.3385  0.6543  0.3348
    6CHTO   H92 2373   7.238   5.362   2.514  0.3409 -0.0612 -1.0527
    6CHTO   C54 2374   7.332   5.190   2.451  0.2971  0.5908 -0.1659
    6CHTO   O36 2375   7.235   5.167   2.345 -0.0858  0.1729 -0.5525
    6CHTO   H72 2376   7.288   5.126   2.279  2.5239  1.1944  0.7957
    6CHTO   O27 2377   7.424   5.412   2.870 -0.4643  0.1757  0.6761
    6CHTO   C37 2378   7.466   5.548   2.876  0.0086 -0.5713  0.4514
    6CHTO   H79 2379   7.569   5.551   2.838 -0.9900 -1.0041 -2.4171
    6CHTO   C38 2380   7.371   5.636   2.781 -0.4031  0.1154 -0.2004
    6CHTO   H80 2381   7.268   5.605   2.805 -0.5034  0.1691 -0.5699
    6CHTO   O31 2382   7.394   5.613   2.641 -0.2747  0.6561  0.0465
    6CHTO   H68 2383   7.355   5.531   2.620  1.2106  0.1082 -0.5809
    6CHTO   C39 2384   7.375   5.794   2.807  0.2859 -0.1406  0.6170
    6CHTO   H81 2385   7.473   5.823   2.768 -0.1273  1.5547  0.7913
    6CHTO    N7 2386   7.261   5.869   2.738 -0.1180 -0.0530  0.5407
    6CHTO   H73 2387   7.278   5.879   2.631  0.2827 -0.7106  0.5401
    6CHTO   H74 2388   7.170   5.816   2.760 -0.1362  0.6045  2.0829
    6CHTO   C40 2389   7.382   5.826   2.963  0.4800  0.4519 -0.7663
    6CHTO   H82 2390   7.286   5.798   3.005  2.0235 -2.2553  1.0953
    6CHTO   O26 2391   7.487   5.750   3.027  0.6994 -0.1330  0.2695
    6CHTO   C41 2392   7.460   5.607   3.017  0.0027 -0.2249  0.3264
    6CHTO   H83 2393   7.362   5.585   3.062 -0.7792 -0.5219 -1.5040
    6CHTO   C52 2394   7.551   5.536   3.119  0.0807 -0.1462  0.4286
    6CHTO   O35 2395   7.520   5.588   3.271  0.0752  0.4262  0.5402
    6CHTO   H71 2396   7.595   5.577   3.326 -0.3467  1.3474  1.3165
    6CHTO   O28 2397   7.435   5.954   2.990  0.1614  0.3599  0.1543
    6CHTO   C42 2398   7.416   6.023   3.117  0.5606  0.5162 -0.5945
    6CHTO   H84 2399   7.485   6.108   3.116  1.1010  0.0876 -0.2860
    6CHTO   C44 2400   7.454   5.940   3.247 -0.3740  0.5597 -0.0712
    6CHTO   H86 2401   7.409   5.841   3.244 -0.1793  0.2046  5.1558
    6CHTO   O32 2402   7.591   5.915   3.242  0.0779  0.4043 -0.1364
    6CHTO   H69 2403   7.606   5.824   3.228 -1.1821  0.2326 -0.3771
    6CHTO   C48 2404   7.409   6.008   3.385  0.3426  0.1668 -0.0578
    6CHTO   H90 2405   7.479   6.091   3.398 -1.5609  1.8707 -0.4395
    6CHTO    N9 2406   7.443   5.918   3.500  0.0163 -0.2536 -0.1962
    6CHTO   H77 2407   7.386   5.928   3.591 -0.2306 -1.4748 -0.2088
    6CHTO   H78 2408   7.548   5.929   3.527  0.1787  0.2404 -1.0126
    6CHTO   C51 2409   7.259   6.040   3.382  0.0442 -0.2168  0.7135
    6CHTO   H93 2410   7.188   5.959   3.370  0.9160 -0.8277 -0.3646
    6CHTO   O30 2411   7.258   6.131   3.268 -0.1340 -0.5647 -0.1228
    6CHTO   C46 2412   7.279   6.078   3.131  0.6425  0.0130 -0.0981
    6CHTO   H88 2413   7.199   6.006   3.117  0.1287  0.3969  0.8018
    6CHTO   C53 2414   7.254   6.201   3.042 -0.0818  0.5799 -0.8885
    6CHTO   O72 2415   7.234   6.184   2.900 -0.1372 -0.4687 -0.0960
    6CHTO  H199 2416   7.152   6.140   2.886  0.2021 -1.2457  0.3403
    6CHTO   O22 2417   7.212   6.117   3.495  0.3761 -0.2814 -0.5686
    6CHTO   C31 2418   7.087   6.191   3.514 -0.1024  0.1667  0.2559
    6CHTO   H59 2419   7.079   6.219   3.621 -0.6416 -0.3647  0.3611
    6CHTO   C29 2420   7.084   6.323   3.430  0.6315  0.5124 -0.1381
    6CHTO   H57 2421   7.092   6.294   3.324 -0.1069  1.2185 -0.3953
    6CHTO   O21 2422   7.203   6.402   3.466  0.3034 -0.4260 -0.0808
    6CHTO   H37 2423   7.180   6.492   3.474  0.1069 -0.4940  0.0967
    6CHTO   C27 2424   6.944   6.407   3.446 -0.1470 -0.1475 -0.0237
    6CHTO   H55 2425   6.940   6.460   3.543 -1.7714  1.1391 -0.7744
    6CHTO    N5 2426   6.938   6.507   3.337 -0.6682  0.1022 -0.2992
    6CHTO   H43 2427   6.839   6.551   3.329 -0.4629  0.5902 -0.2128
    6CHTO   H44 2428   6.994   6.597   3.357  1.7685 -0.7061 -3.1085
    6CHTO   C25 2429   6.823   6.309   3.449  0.8633  0.4009  0.7121
    6CHTO   H53 2430   6.803   6.265   3.350 -0.6206  0.4599  0.9787
    6CHTO   O17 2431   6.847   6.197   3.537 -0.1577 -1.1658  0.2510
    6CHTO   C32 2432   6.951   6.110   3.484 -0.1741  0.5312  0.2252
    6CHTO   H60 2433   6.944   6.089   3.377  0.0379  1.7818 -0.0479
    6CHTO   C36 2434   6.943   5.972   3.551 -0.2567 -0.0727  0.6309
    6CHTO   O25 2435   6.962   5.982   3.688 -0.2879 -0.6124  0.2906
    6CHTO   H40 2436   6.909   5.920   3.735  1.4350 -0.6967  2.1492
    6CHTO   O15 2437   6.676   6.354   3.479 -0.7971  0.0213  0.1782
    6CHTO   C19 2438   6.573   6.354   3.585  0.0392 -0.1268  0.3199
    6CHTO   H47 2439   6.477   6.352   3.532  0.2828  0.7566 -0.1787
    6CHTO   C20 2440   6.586   6.237   3.687  0.0909  0.3265  0.4389
    6CHTO   H48 2441   6.684   6.237   3.737  0.9770 -1.3174 -1.2414
    6CHTO   O19 2442   6.593   6.115   3.612 -0.5779 -0.3951 -0.0399
    6CHTO   H35 2443   6.669   6.101   3.560 -2.1084  0.0680 -2.4977
    6CHTO   C21 2444   6.468   6.230   3.789 -0.1342  0.1558  0.1114
    6CHTO   H49 2445   6.378   6.197   3.738  0.9597 -2.5160 -0.1868
    6CHTO    N4 2446   6.483   6.119   3.883  0.2443  0.1594  0.4008
    6CHTO   H41 2447   6.402   6.121   3.954  0.7397  1.1141  0.9592
    6CHTO   H42 2448   6.577   6.104   3.934 -0.1312 -1.6168  0.5906
    6CHTO   C22 2449   6.449   6.371   3.854 -0.8781  0.2562  0.3995
    6CHTO   H50 2450   6.526   6.391   3.928  1.9450 -0.0317 -2.3359
    6CHTO   O14 2451   6.451   6.471   3.752  0.1407 -0.6786  0.2248
    6CHTO   C23 2452   6.565   6.484   3.671 -0.2478 -0.3733 -0.0877
    6CHTO   H51 2453   6.655   6.498   3.733  0.5504  0.2312 -1.3725
    6CHTO   C34 2454   6.554   6.610   3.579 -0.8724  0.4369  0.1055
    6CHTO   O23 2455   6.679   6.658   3.522 -0.5705  0.4297 -0.2614
    6CHTO   H38 2456   6.711   6.591   3.465  0.3670  0.5999  0.0524
    6CHTO   O16 2457   6.317   6.371   3.904 -0.4830  0.2542 -0.0491
    6CHTO   C24 2458   6.288   6.499   4.007  1.0538  0.0556 -0.0482
    6CHTO   H52 2459   6.335   6.591   3.974  1.8519 -1.3992 -3.2035
    6CHTO   C26 2460   6.329   6.463   4.155  0.8333  0.2434  1.0396
    6CHTO   H54 2461   6.264   6.378   4.185 -0.3803  1.1032  0.9098
    6CHTO   O20 2462   6.472   6.436   4.165  0.6409 -0.1338  0.4967
    6CHTO   H36 2463   6.518   6.512   4.135 -1.6411  1.2277  0.2858
    6CHTO   C30 2464   6.288   6.580   4.249 -0.1738 -0.5674  0.1898
    6CHTO   H58 2465   6.335   6.673   4.212  0.1804 -0.3837  1.0717
    6CHTO    N6 2466   6.335   6.553   4.392  0.0219 -0.0152  0.0751
    6CHTO   H45 2467   6.255   6.532   4.462 -0.7336  0.0490 -0.7613
    6CHTO   H46 2468   6.412   6.478   4.400  1.0666  0.6948 -2.7476
    6CHTO   C33 2469   6.133   6.594   4.230 -0.5203  0.0199 -0.9632
    6CHTO   H61 2470   6.088   6.496   4.250  0.0952 -0.4326 -1.7438
    6CHTO   O18 2471   6.113   6.629   4.092 -0.4039  0.0924  0.2186
    6CHTO   C28 2472   6.135   6.524   4.000  0.5620  0.4455 -0.4457
    6CHTO   H56 2473   6.076   6.437   4.029 -0.3574  1.4752  0.8663
    6CHTO   C35 2474   6.079   6.567   3.858 -0.3062  0.3241  0.2448
    6CHTO   O24 2475   6.140   6.523   3.736  0.7497  0.1329 -0.1803
    6CHTO   H39 2476   6.206   6.579   3.701  1.1917 -1.5890 -2.2322
    6CHTO    O9 2477   6.072   6.691   4.312 -0.5416 -0.1954  0.1453
    6CHTO   C13 2478   5.913   6.668   4.344  0.1653 -0.3110  0.2505
    6CHTO   H26 2479   5.898   6.558   4.357  1.2636 -0.7577 -1.9943
    6CHTO   C11 2480   5.821   6.722   4.231  0.1417 -0.5781 -0.0339
    6CHTO   H24 2481   5.860   6.682   4.137 -0.1883 -2.7545  0.7175
    6CHTO    O8 2482   5.824   6.864   4.234  0.0617 -0.3765 -0.6192
    6CHTO    H3 2483   5.907   6.908   4.231  0.3256 -0.8167  0.1607
    6CHTO    C9 2484   5.684   6.665   4.258  0.3464 -0.0238 -0.2803
    6CHTO   H22 2485   5.694   6.556   4.256  3.6844  0.2518 -2.2685
    6CHTO    N2 2486   5.595   6.694   4.145 -0.1814  0.1804  0.4099
    6CHTO   H10 2487   5.492   6.666   4.163 -0.4564 -1.4033 -3.1829
    6CHTO   H11 2488   5.616   6.628   4.062  0.4417  1.0838 -0.1592
    6CHTO    C7 2489   5.628   6.710   4.403 -0.6057  0.3057 -0.0894
    6CHTO   H20 2490   5.603   6.615   4.455  1.2420  1.2476  2.6214
    6CHTO    O4 2491   5.728   6.780   4.485  0.6458 -0.2646 -0.0220
    6CHTO   C14 2492   5.864   6.728   4.481 -0.6589 -0.2501 -0.4899
    6CHTO   H27 2493   5.885   6.650   4.557  2.1853  0.2779 -0.6571
    6CHTO   C18 2494   5.957   6.850   4.516  0.3456 -1.0134 -0.1669
    6CHTO   O13 2495   5.909   6.910   4.636 -0.2566  0.3596 -0.2469
    6CHTO    H7 2496   5.904   6.840   4.697  1.3626 -0.8702 -1.4903
    6CHTO    O2 2497   5.493   6.806   4.399  0.3681  0.9678  0.0719
    6CHTO    C1 2498   5.390   6.783   4.499  0.6344 -0.0766 -0.3244
    6CHTO   H14 2499   5.317   6.863   4.474 -0.2315 -0.6945  0.2027
    6CHTO    C2 2500   5.453   6.813   4.635  0.5627 -0.3640 -0.4653
    6CHTO   H15 2501   5.549   6.760   4.643  0.5808 -0.5740 -1.8991
    6CHTO    O6 2502   5.482   6.954   4.640 -0.1202  0.7191 -0.3634
    6CHTO    H1 2503   5.513   6.976   4.725  1.1788  3.8781 -1.5706
    6CHTO    C3 2504   5.353   6.769   4.755  0.2431 -0.0559 -0.1357
    6CHTO   H16 2505   5.264   6.834   4.755 -0.2805 -0.7753  0.3141
    6CHTO    N1 2506   5.420   6.791   4.890  0.1442 -0.0425  0.4449
    6CHTO    H8 2507   5.353   6.825   4.968 -0.1946 -0.5510  0.3783
    6CHTO    H9 2508   5.501   6.862   4.884 -0.2338  0.3452 -0.1969
    6CHTO    C4 2509   5.296   6.620   4.730 -0.1852  0.3089 -0.2761
    6CHTO   H17 2510   5.378   6.552   4.753  0.9253  1.5151 -0.6567
    6CHTO    O1 2511   5.245   6.606   4.602 -0.4952 -0.3570  0.9333
    6CHTO    C5 2512   5.331   6.641   4.490  0.0105 -0.0844 -0.1419
    6CHTO   H18 2513   5.412   6.568   4.486 -2.8529 -3.2503 -3.4261
    6CHTO   C16 2514   5.254   6.626   4.356  0.2910 -0.7415  0.5135
    6CHTO   O11 2515   5.269   6.494   4.304  0.1685  0.5218 -0.0249
    6CHTO    H5 2516   5.260   6.495   4.211  0.1652  0.1912 -0.0312
    6CHTO    O3 2517   5.186   6.609   4.822  0.8206 -0.4000  0.4068
    6CHTO    C6 2518   5.160   6.473   4.878 -0.2056 -0.7819  1.1276
    6CHTO   H19 2519   5.220   6.400   4.824 -1.0865 -0.7180  0.0193
    6CHTO    C8 2520   5.194   6.472   5.026 -0.0730 -0.3811  0.2869
    6CHTO   H21 2521   5.135   6.550   5.074  1.4176  1.1226 -0.2782
    6CHTO    O7 2522   5.334   6.516   5.031  0.5694 -0.1277  0.3382
    6CHTO    H2 2523   5.346   6.602   4.995  0.2616  0.8359  2.4460
    6CHTO   C12 2524   5.172   6.332   5.090  0.1692  0.7483  0.3602
    6CHTO   H25 2525   5.233   6.261   5.030 -1.7917 -0.1813 -0.5583
    6CHTO    N3 2526   5.208   6.334   5.230 -0.3635 -0.2227  0.6563
    6CHTO   H12 2527   5.239   6.233   5.255  0.6171 -1.0571 -3.5922
    6CHTO   H13 2528   5.289   6.402   5.253 -0.3908 -0.5214  1.6575
    6CHTO   C15 2529   5.021   6.302   5.060 -0.3271  0.6364  0.1171
    6CHTO   H28 2530   4.950   6.364   5.114  1.0877  4.6166 -2.4472
    6CHTO   O10 2531   5.002   6.155   5.099  0.0998 -0.3819 -0.0453
    6CHTO    H4 2532   4.930   6.151   5.159  1.5282 -0.0957  1.7259
    6CHTO    O5 2533   4.991   6.306   4.923  0.4864  0.4601 -0.5540
    6CHTO   C10 2534   5.010   6.431   4.851 -0.1230  0.8908 -0.0393
    6CHTO   H23 2535   4.940   6.510   4.879  0.6241  2.2183 -1.8655
    6CHTO   C17 2536   4.981   6.393   4.708  0.3311 -0.0022  0.5845
    6CHTO   O12 2537   5.010   6.496   4.613  0.5414  0.5460  0.4751
    6CHTO    H6 2538   4.929   6.525   4.575  1.3461  1.4372 -0.5931
    7CHTO  H203 2539   5.183   3.878   5.648  0.0011  0.1198  0.0201
    7CHTO   O82 2540   5.242   3.814   5.614  0.2435  0.3431  0.0189
    7CHTO  C123 2541   5.304   3.847   5.492 -0.3368 -0.7799 -0.4564
    7CHTO  H227 2542   5.237   3.907   5.430  1.4566 -1.0076 -2.6975
    7CHTO   O77 2543   5.414   3.934   5.543  0.5996 -0.3977  0.3351
    7CHTO  C118 2544   5.502   3.974   5.438  0.3487 -0.4835 -0.1084
    7CHTO  H222 2545   5.435   4.033   5.372  1.8122  1.6561  0.2686
    7CHTO  C125 2546   5.600   4.074   5.504 -0.1087  0.4943  0.5590
    7CHTO   O84 2547   5.527   4.194   5.533  1.0578  0.4367 -0.1003
    7CHTO  H205 2548   5.534   4.252   5.460  0.8018  3.1609  1.9342
    7CHTO  C114 2549   5.571   3.852   5.376  0.0557 -0.6716  0.1742
    7CHTO  H218 2550   5.627   3.799   5.452 -0.9294 -0.5598  0.9931
    7CHTO  C116 2551   5.463   3.750   5.325  0.3286 -0.3701  0.1099
    7CHTO  H220 2552   5.404   3.798   5.244 -0.9730 -1.3366  0.4696
    7CHTO   O79 2553   5.527   3.632   5.278  0.0865 -0.5790  0.3185
    7CHTO  H201 2554   5.541   3.643   5.186  1.6836 -1.2038  0.4677
    7CHTO  C120 2555   5.351   3.709   5.423 -0.4403 -0.1166  0.3768
    7CHTO  H224 2556   5.404   3.642   5.493 -0.4585 -0.1345  0.3731
    7CHTO   N21 2557   5.237   3.633   5.377 -0.0626  0.4298 -0.0430
    7CHTO  H211 2558   5.271   3.531   5.362 -1.5827 -0.2581  1.0548
    7CHTO  H212 2559   5.217   3.685   5.285 -1.2445  0.2929  0.1307
    7CHTO   O75 2560   5.667   3.896   5.280  0.1893 -0.5183 -0.4079
    7CHTO  C112 2561   5.836   3.818   5.276  0.3871  0.8135 -0.0618
    7CHTO  H216 2562   5.876   3.826   5.173 -1.3253 -0.6249 -0.8748
    7CHTO   O73 2563   5.822   3.683   5.317 -0.9338  0.7151 -0.8396
    7CHTO  C113 2564   5.945   3.616   5.332  0.1239  0.7651  0.0740
    7CHTO  H217 2565   5.990   3.598   5.232 -1.6237  0.4613 -0.6746
    7CHTO  C124 2566   5.917   3.478   5.390 -0.1585  0.2508 -0.0758
    7CHTO   O83 2567   5.835   3.396   5.306 -0.3032  0.4671 -0.3793
    7CHTO  H204 2568   5.857   3.401   5.215 -0.4562  0.0573 -0.4419
    7CHTO  C109 2569   6.036   3.696   5.428 -0.0733  0.6821  0.0967
    7CHTO  H213 2570   5.985   3.693   5.526 -0.0652  0.0350  0.0829
    7CHTO  C110 2571   6.067   3.839   5.372  0.1566  0.7193 -0.0491
    7CHTO  H214 2572   6.111   3.825   5.273  0.1845  0.2866  0.0277
    7CHTO   O78 2573   6.150   3.919   5.461  0.4284 -0.2683 -0.2955
    7CHTO  H200 2574   6.239   3.925   5.432  0.2846 -0.3307 -0.7610
    7CHTO  C111 2575   5.926   3.910   5.367 -1.0334  0.0046 -0.5182
    7CHTO  H215 2576   5.889   3.921   5.470  0.7036  2.7191 -0.1131
    7CHTO   N19 2577   5.941   4.051   5.314  0.5792 -0.0954  0.6119
    7CHTO  H207 2578   5.961   4.117   5.397 -0.6674  0.9391  0.1148
    7CHTO  H208 2579   6.006   4.062   5.229  0.0370 -3.9209 -0.3828
    7CHTO   O74 2580   6.159   3.616   5.441 -0.4034  0.4797  0.4826
    7CHTO  C115 2581   6.258   3.630   5.566  0.2928  0.7255 -0.2797
    7CHTO  H219 2582   6.321   3.719   5.558  0.9144  0.3572  0.4053
    7CHTO   O76 2583   6.174   3.640   5.714 -0.1541 -0.3763 -0.5048
    7CHTO  C122 2584   6.124   3.511   5.753 -1.4550 -0.1053  0.0909
    7CHTO  H226 2585   6.067   3.475   5.668 -1.2411 -0.2153 -0.0053
    7CHTO  C126 2586   6.025   3.542   5.868  0.1089 -0.3028  0.5557
    7CHTO   O85 2587   5.919   3.624   5.821  0.4255  0.2663 -0.4615
    7CHTO  H206 2588   5.844   3.619   5.877  0.1055  0.2815 -0.8906
    7CHTO  C121 2589   6.244   3.405   5.785  0.4016  0.4609  0.2250
    7CHTO  H225 2590   6.268   3.395   5.893  0.5751 -0.0870  0.1366
    7CHTO   O81 2591   6.199   3.274   5.748  0.1754  0.0490 -0.1419
    7CHTO  H202 2592   6.262   3.212   5.780 -1.3790 -0.1812  2.6897
    7CHTO  C119 2593   6.378   3.455   5.712 -0.2657 -0.2525 -0.2577
    7CHTO  H223 2594   6.406   3.543   5.770  1.6068 -0.2678 -1.1102
    7CHTO  C117 2595   6.350   3.504   5.566  0.1657  0.0720 -0.3219
    7CHTO  H221 2596   6.290   3.434   5.509  1.5371 -0.1461 -1.5287
    7CHTO   N20 2597   6.481   3.522   5.493  0.5592 -0.1042 -0.3779
    7CHTO  H209 2598   6.504   3.627   5.480  0.3471  0.1313  1.0253
    7CHTO  H210 2599   6.559   3.477   5.552  0.8229  1.7867  0.7604
    7CHTO   O80 2600   6.514   3.358   5.733 -0.0646  0.6048 -0.2444
    7CHTO  C103 2601   6.600   3.370   5.875  0.3174 -0.1439  0.1928
    7CHTO  H190 2602   6.707   3.364   5.856 -0.0180  0.4567 -1.9681
    7CHTO  C101 2603   6.579   3.491   5.972 -1.3590  0.4699  0.0004
    7CHTO  H188 2604   6.470   3.502   5.979 -1.5125  1.4961 -3.0354
    7CHTO   O68 2605   6.636   3.623   5.899 -0.4110  0.0007  0.2165
    7CHTO  H168 2606   6.600   3.698   5.942 -1.0377 -0.7510  1.0406
    7CHTO   C99 2607   6.643   3.474   6.119 -0.4553  0.0571  0.5443
    7CHTO  H186 2608   6.754   3.466   6.110 -0.4261  1.0608 -0.0700
    7CHTO   N17 2609   6.611   3.576   6.215 -0.2220 -0.0890 -0.1663
    7CHTO  H174 2610   6.672   3.665   6.223  0.1547 -0.2858 -0.8093
    7CHTO  H175 2611   6.507   3.602   6.212 -0.1225  0.5185  1.1044
    7CHTO   C97 2612   6.601   3.331   6.181  1.4831 -0.3099 -0.2122
    7CHTO  H184 2613   6.493   3.335   6.198  1.6348 -0.7877  0.8914
    7CHTO   O64 2614   6.636   3.231   6.084  0.1934 -0.1881 -0.1344
    7CHTO  C104 2615   6.558   3.235   5.960  0.2792  0.1847 -0.0856
    7CHTO  H191 2616   6.452   3.244   5.982 -0.4152 -0.7847 -2.7862
    7CHTO  C108 2617   6.578   3.102   5.878  0.6217 -0.0350  0.0204
    7CHTO   O71 2618   6.503   3.009   5.950  0.4999  0.2750 -0.3168
    7CHTO  H171 2619   6.430   2.982   5.897  0.6925  0.4807 -0.6900
    7CHTO   O62 2620   6.684   3.283   6.287 -0.0510 -0.1810  0.1792
    7CHTO   C91 2621   6.629   3.179   6.378 -0.2329 -0.4497 -0.3910
    7CHTO  H178 2622   6.523   3.194   6.397  0.7626  2.1232  3.6109
    7CHTO   C92 2623   6.698   3.203   6.515  0.9466  0.6818  0.5208
    7CHTO  H179 2624   6.680   3.308   6.543 -0.2183  0.8125 -0.7342
    7CHTO   O66 2625   6.636   3.129   6.623 -0.4352  0.3768 -0.0466
    7CHTO  H166 2626   6.543   3.145   6.624 -0.8673 -1.8253  2.2939
    7CHTO   C93 2627   6.850   3.160   6.510  0.0514  0.0826  0.1180
    7CHTO  H180 2628   6.887   3.159   6.614 -1.0207 -0.0111  0.5051
    7CHTO   N16 2629   6.934   3.256   6.442 -0.2564 -0.2509  0.5089
    7CHTO  H172 2630   6.876   3.290   6.357 -0.0323 -1.6901 -0.2421
    7CHTO  H173 2631   7.021   3.204   6.404 -2.4653 -2.3426 -1.8959
    7CHTO   C94 2632   6.860   3.010   6.458 -0.2151  0.7486 -0.1259
    7CHTO  H181 2633   6.916   2.999   6.366  0.6567 -1.5842  0.6573
    7CHTO   O61 2634   6.732   2.945   6.425 -0.4583  0.3915  0.3958
    7CHTO   C95 2635   6.646   3.026   6.338 -0.2267  0.8981  0.0861
    7CHTO  H182 2636   6.683   3.018   6.236  1.5118 -0.3303  0.7927
    7CHTO  C106 2637   6.499   2.959   6.333 -0.1402 -0.0665 -0.3188
    7CHTO   O69 2638   6.501   2.824   6.293  0.0186  0.2456 -0.2215
    7CHTO  H169 2639   6.423   2.790   6.254 -0.8757  0.0499  1.6874
    7CHTO   O63 2640   6.927   2.929   6.571 -0.2157 -0.3017 -0.2538
    7CHTO   C96 2641   6.839   2.864   6.684 -0.2869  0.2599 -0.2722
    7CHTO  H183 2642   6.764   2.942   6.690 -1.1072 -0.5741  0.7104
    7CHTO   C98 2643   6.932   2.859   6.809  0.2375 -0.3892  0.3529
    7CHTO  H185 2644   6.971   2.961   6.826  0.1460 -0.2638 -0.2007
    7CHTO   O67 2645   6.851   2.835   6.925  0.2207  0.6090  0.0799
    7CHTO  H167 2646   6.892   2.765   6.973 -2.7872 -1.5587 -0.3281
    7CHTO  C102 2647   7.042   2.738   6.811  0.0310 -0.3776  0.3297
    7CHTO  H189 2648   7.075   2.730   6.915 -0.0922 -0.1836  0.3847
    7CHTO   N18 2649   7.166   2.753   6.731 -0.0546 -1.0562 -0.0378
    7CHTO  H176 2650   7.258   2.737   6.785 -0.3913 -0.7743  0.6218
    7CHTO  H177 2651   7.165   2.847   6.679  1.7084  0.8566  3.2213
    7CHTO  C105 2652   6.969   2.602   6.779 -0.7600  0.0477  0.9402
    7CHTO  H192 2653   7.025   2.545   6.704  0.0037  1.8033  0.1412
    7CHTO   O65 2654   6.835   2.620   6.731  0.6264 -0.0760  0.6003
    7CHTO  C100 2655   6.787   2.722   6.636  0.2215  0.2459 -0.4094
    7CHTO  H187 2656   6.814   2.706   6.530 -1.5207 -0.9113 -0.6985
    7CHTO  C107 2657   6.635   2.738   6.638 -0.1150 -0.6958  0.3910
    7CHTO   O70 2658   6.569   2.623   6.579  0.4787  0.1377 -0.1250
    7CHTO  H170 2659   6.536   2.565   6.645 -1.2582  1.5165  0.2697
    7CHTO   O57 2660   6.963   2.519   6.921 -0.4652  0.1758 -0.0211
    7CHTO   C85 2661   7.038   2.400   6.939 -0.2951  0.9341 -0.1392
    7CHTO  H157 2662   7.119   2.390   6.864 -0.6033 -1.1495 -0.2314
    7CHTO   C83 2663   6.955   2.277   6.913  0.2226 -0.1635  0.0828
    7CHTO  H155 2664   6.921   2.288   6.810 -1.0983  0.4893  0.5798
    7CHTO   O56 2665   6.843   2.284   7.005  0.0065 -0.1036 -0.0094
    7CHTO  H135 2666   6.768   2.234   6.977  0.5814 -0.7358 -0.4334
    7CHTO   C81 2667   7.033   2.148   6.930  0.2296 -0.0681  0.3129
    7CHTO  H153 2668   7.122   2.153   6.867 -1.8919 -2.5673 -3.1220
    7CHTO   N14 2669   6.962   2.027   6.877  0.1093  0.1275  0.4165
    7CHTO  H141 2670   6.933   2.035   6.774 -2.0560  0.1283  0.9988
    7CHTO  H142 2671   7.017   1.937   6.896 -0.6693 -0.4061  0.1522
    7CHTO   C79 2672   7.074   2.126   7.076 -0.0723 -0.4069 -0.3873
    7CHTO  H151 2673   7.137   2.037   7.075  1.5840  0.7148  0.4943
    7CHTO   O52 2674   7.138   2.251   7.126  0.8138 -0.1092 -0.3220
    7CHTO   C86 2675   7.095   2.386   7.088 -0.1326 -0.3460 -0.0413
    7CHTO  H158 2676   7.016   2.412   7.161 -0.3601  0.8989 -0.7009
    7CHTO   C90 2677   7.204   2.493   7.114  0.1528 -0.0846  0.3456
    7CHTO   O60 2678   7.240   2.490   7.251  0.4180 -0.3260  0.0153
    7CHTO  H138 2679   7.304   2.555   7.272 -1.6477  1.4568  0.9686
    7CHTO   O50 2680   6.959   2.106   7.167  0.2714 -0.4018 -0.0077
    7CHTO   C73 2681   6.946   2.026   7.285  0.0331 -0.4546 -0.1212
    7CHTO  H145 2682   7.047   2.006   7.325  0.7284  2.7862 -0.0720
    7CHTO   C74 2683   6.870   1.896   7.237 -0.6170  0.0791  0.2521
    7CHTO  H146 2684   6.933   1.859   7.155  1.9256  1.3981  1.5457
    7CHTO   O54 2685   6.887   1.809   7.349  0.0713 -0.9472  0.5279
    7CHTO  H133 2686   6.829   1.737   7.335 -0.6465  0.1424 -2.5339
    7CHTO   C75 2687   6.729   1.936   7.191  0.1530 -0.4288  0.0350
    7CHTO  H147 2688   6.732   2.000   7.102 -1.2510 -0.5379 -0.1031
    7CHTO   N13 2689   6.650   1.819   7.148 -0.4411 -0.1648 -0.4805
    7CHTO  H139 2690   6.693   1.771   7.061 -1.9542 -0.5483 -1.0316
    7CHTO  H140 2691   6.633   1.750   7.229 -1.3098  2.4365  1.6391
    7CHTO   C76 2692   6.657   2.013   7.312 -0.2948  0.3833 -0.2071
    7CHTO  H148 2693   6.655   1.949   7.400  0.8267 -0.0566 -0.5035
    7CHTO   O49 2694   6.735   2.134   7.351  0.6600 -0.0806  0.4311
    7CHTO   C77 2695   6.867   2.100   7.396  1.0053 -0.1343 -0.1158
    7CHTO  H149 2696   6.879   2.042   7.487 -0.4587 -1.9291 -1.0424
    7CHTO   C88 2697   6.941   2.228   7.442  0.1523 -0.1399  0.0193
    7CHTO   O58 2698   6.890   2.287   7.550  0.5171 -0.1438  0.4686
    7CHTO  H136 2699   6.954   2.350   7.578  2.0329 -1.8693  0.9560
    7CHTO   O51 2700   6.530   2.087   7.261  0.0791 -0.1832  0.5919
    7CHTO   C78 2701   6.422   2.096   7.355 -0.1652 -0.5475 -0.3032
    7CHTO  H150 2702   6.453   2.106   7.461 -0.7494 -1.0497 -0.0816
    7CHTO   C80 2703   6.330   1.968   7.341  0.0545 -0.8259 -0.2687
    7CHTO  H152 2704   6.309   1.946   7.234  1.3235 -1.9728 -0.3001
    7CHTO   O55 2705   6.408   1.856   7.387  0.4391 -0.4000  0.4568
    7CHTO  H134 2706   6.351   1.782   7.390  1.3433 -1.1736 -0.9178
    7CHTO   C84 2707   6.197   1.990   7.419 -0.6822  0.2637  0.7344
    7CHTO  H156 2708   6.216   2.009   7.525  1.5304  2.0268  0.0592
    7CHTO   N15 2709   6.109   1.878   7.413  0.0096 -0.2860  0.6209
    7CHTO  H143 2710   6.118   1.827   7.507  1.3689 -1.0202  0.1009
    7CHTO  H144 2711   6.008   1.911   7.396  0.1654  0.4039  1.0224
    7CHTO   C87 2712   6.128   2.124   7.376 -0.1447  0.0229  0.6993
    7CHTO  H159 2713   6.094   2.112   7.273  1.3989 -0.2591  0.2146
    7CHTO   O53 2714   6.220   2.240   7.394  0.3055 -0.1843 -0.3451
    7CHTO   C82 2715   6.338   2.222   7.317 -0.1008  0.2882  0.0171
    7CHTO  H154 2716   6.315   2.205   7.212 -0.1475 -0.3686  0.1317
    7CHTO   C89 2717   6.416   2.350   7.319 -1.0205  0.2307  0.3851
    7CHTO   O59 2718   6.479   2.385   7.446 -0.2496  0.2712  0.5830
    7CHTO  H137 2719   6.416   2.435   7.494 -0.6767  0.6998 -0.4011
    7CHTO   O45 2720   5.985   2.154   7.471 -0.7709  0.3178 -0.6412
    7CHTO   C67 2721   5.903   2.259   7.413  0.0897 -0.7084  0.3915
    7CHTO  H124 2722   5.966   2.338   7.372 -0.9902 -0.8415 -1.6157
    7CHTO   C65 2723   5.816   2.206   7.296 -0.8187 -0.0718  0.0768
    7CHTO  H122 2724   5.819   2.098   7.312  0.8282  0.2583  2.1914
    7CHTO   O44 2725   5.885   2.244   7.175  0.2547 -0.0439 -0.2798
    7CHTO  H102 2726   5.850   2.192   7.104 -1.0482  1.3548 -0.6887
    7CHTO   C63 2727   5.670   2.257   7.312  0.2730  0.5373  0.8743
    7CHTO  H120 2728   5.627   2.205   7.398  0.0411 -0.3394  0.2339
    7CHTO   N11 2729   5.567   2.214   7.205 -0.1304 -0.0518  0.2932
    7CHTO  H108 2730   5.595   2.210   7.102 -1.8231  1.8240 -0.2575
    7CHTO  H109 2731   5.464   2.193   7.225  0.0919  0.1955  1.7948
    7CHTO   C61 2732   5.669   2.409   7.352  0.7142  0.4512 -0.3626
    7CHTO  H118 2733   5.566   2.434   7.384  0.6449  0.1115 -0.3191
    7CHTO   O40 2734   5.752   2.441   7.454 -0.5126  0.1033 -0.1576
    7CHTO   C68 2735   5.820   2.329   7.523  0.0393 -0.3128  0.0174
    7CHTO  H125 2736   5.758   2.246   7.563  0.4423 -2.0400 -2.7758
    7CHTO   C72 2737   5.909   2.382   7.628 -0.1224  0.7032 -0.1273
    7CHTO   O48 2738   6.019   2.474   7.595  0.2159 -0.4648 -0.4506
    7CHTO  H105 2739   5.982   2.551   7.556  3.7992  1.4465 -0.2878
    7CHTO   O38 2740   5.703   2.499   7.244 -0.0715 -0.2929 -0.1154
    7CHTO   C55 2741   5.676   2.635   7.263  1.0288 -0.0860  0.1485
    7CHTO  H112 2742   5.685   2.669   7.367  1.1461 -0.5160  0.2774
    7CHTO   C56 2743   5.536   2.670   7.202 -0.1806 -0.4074 -0.5756
    7CHTO  H113 2744   5.543   2.638   7.097  2.0285 -3.1628  0.3337
    7CHTO   O42 2745   5.420   2.600   7.250 -0.5547  0.4494  0.0201
    7CHTO  H100 2746   5.408   2.605   7.342  0.5780  1.0715  0.1495
    7CHTO   C57 2747   5.511   2.827   7.207 -0.4863 -0.0499  0.3944
    7CHTO  H114 2748   5.512   2.845   7.315 -0.4599 -0.5607  0.4821
    7CHTO   N10 2749   5.384   2.883   7.140  0.3825 -0.2147  0.0747
    7CHTO  H106 2750   5.313   2.878   7.221 -0.1773  1.6001 -0.2727
    7CHTO  H107 2751   5.396   2.987   7.113  1.4922 -0.6546 -1.1423
    7CHTO   C58 2752   5.640   2.904   7.146  0.4371  0.1392 -0.1345
    7CHTO  H115 2753   5.643   2.894   7.036 -2.1634  0.1429 -0.2411
    7CHTO   O37 2754   5.762   2.858   7.203  0.3674 -0.3755  0.0135
    7CHTO   C59 2755   5.791   2.717   7.187 -0.2694 -0.5822  0.0516
    7CHTO  H116 2756   5.813   2.688   7.084  1.1602  0.9162 -0.0892
    7CHTO   C70 2757   5.922   2.686   7.267  0.4992 -1.0045 -0.0684
    7CHTO   O46 2758   5.970   2.552   7.238 -0.4397  0.2352 -0.4419
    7CHTO  H103 2759   6.001   2.545   7.150 -0.5748 -1.6779 -0.3442
    7CHTO   O39 2760   5.636   3.060   7.180 -0.2729 -0.2943 -0.0014
    7CHTO   C60 2761   5.736   3.146   7.124  0.3831 -0.5156  0.6666
    7CHTO  H117 2762   5.837   3.112   7.148  0.1374 -0.5601  1.6587
    7CHTO   C62 2763   5.725   3.159   6.969  0.5032 -0.3550 -0.2296
    7CHTO  H119 2764   5.754   3.067   6.913 -0.9478  0.3581 -2.2186
    7CHTO   O43 2765   5.588   3.187   6.931 -0.4558  0.5003 -0.3376
    7CHTO  H101 2766   5.555   3.250   6.992  0.0176  1.1953 -0.7864
    7CHTO   C66 2767   5.829   3.276   6.921  0.5706  0.0879 -0.9437
    7CHTO  H123 2768   5.930   3.236   6.927  0.7743  0.7104 -0.2138
    7CHTO   N12 2769   5.823   3.288   6.775  0.5450  0.3046  0.3093
    7CHTO  H110 2770   5.725   3.318   6.743  0.7812  0.7118 -0.0375
    7CHTO  H111 2771   5.903   3.348   6.733 -2.2143  2.8986 -1.4397
    7CHTO   C69 2772   5.805   3.408   6.997  0.1108  0.1584 -0.0797
    7CHTO  H126 2773   5.708   3.453   6.967  0.0013 -0.5531 -0.8014
    7CHTO   O41 2774   5.811   3.381   7.149  0.4751 -0.2844  0.6027
    7CHTO   C64 2775   5.717   3.284   7.195 -0.4629 -0.1192  0.2735
    7CHTO  H121 2776   5.611   3.314   7.181 -0.9806 -1.8765  0.2492
    7CHTO   C71 2777   5.740   3.279   7.354  0.0991  0.1053 -0.3054
    7CHTO   O47 2778   5.737   3.412   7.416  0.4470 -0.2631  0.0288
    7CHTO  H104 2779   5.791   3.474   7.372  1.5691 -0.1636  1.5215
    7CHTO   O34 2780   5.910   3.509   6.975  0.0510 -0.3966  0.7972
    7CHTO   C49 2781   5.984   3.640   7.017 -0.3646  0.1653 -0.1647
    7CHTO   H91 2782   5.935   3.725   6.972  1.1388 -1.2400 -4.7588
    7CHTO   C47 2783   6.129   3.629   6.970 -0.1779  0.2792 -0.0763
    7CHTO   H89 2784   6.176   3.726   6.996  0.6603 -0.6251  1.8602
    7CHTO   O33 2785   6.118   3.616   6.828  0.0377 -0.2152 -0.0834
    7CHTO   H70 2786   6.199   3.587   6.791 -0.1811  0.9580 -1.5196
    7CHTO   C45 2787   6.197   3.492   7.036 -0.5087  0.2584 -0.7402
    7CHTO   H87 2788   6.167   3.403   6.979  0.2133 -0.1791 -0.4364
    7CHTO    N8 2789   6.348   3.504   7.020 -0.0630  0.2184  0.1866
    7CHTO   H75 2790   6.399   3.441   7.091  0.0523 -0.5063 -0.5395
    7CHTO   H76 2791   6.371   3.461   6.924 -0.4156 -0.2869  0.3247
    7CHTO   C43 2792   6.133   3.467   7.187 -0.2577  0.4845 -0.6945
    7CHTO   H85 2793   6.048   3.402   7.168 -1.5577  1.6757  0.9295
    7CHTO   O29 2794   6.096   3.593   7.242 -0.5248  0.1030 -0.2249
    7CHTO   C50 2795   5.984   3.653   7.172 -0.4097  0.4658  0.7610
    7CHTO   H92 2796   5.884   3.619   7.202 -0.6523  0.1524 -0.3590
    7CHTO   C54 2797   5.976   3.801   7.225  0.1792  0.3807  0.4623
    7CHTO   O36 2798   6.073   3.885   7.163 -0.2790 -0.6235  0.3533
    7CHTO   H72 2799   6.053   3.977   7.170  1.0871 -0.2910 -0.0399
    7CHTO   O27 2800   6.197   3.394   7.287  0.0186 -0.1978 -0.7684
    7CHTO   C37 2801   6.161   3.287   7.375 -0.2073 -0.1137 -0.2124
    7CHTO   H79 2802   6.053   3.298   7.395 -0.0981 -1.5725  1.2886
    7CHTO   C38 2803   6.180   3.149   7.299  0.1114  0.0426  0.1248
    7CHTO   H80 2804   6.280   3.163   7.255 -0.1767  2.3332  0.1479
    7CHTO   O31 2805   6.074   3.141   7.199  0.0872  0.2640 -0.4728
    7CHTO   H68 2806   6.108   3.101   7.122  2.3603  2.3225 -0.5681
    7CHTO   C39 2807   6.175   3.017   7.384 -0.9477 -0.8373 -0.0921
    7CHTO   H81 2808   6.072   3.015   7.418 -1.4412 -0.8525 -1.5635
    7CHTO    N7 2809   6.207   2.888   7.301 -0.3852  0.0149 -0.3510
    7CHTO   H73 2810   6.310   2.858   7.302 -0.4568 -0.2370  0.5584
    7CHTO   H74 2811   6.154   2.811   7.356 -1.0716  0.1013 -0.8864
    7CHTO   C40 2812   6.257   3.053   7.512  0.0366 -0.7013 -0.7646
    7CHTO   H82 2813   6.359   3.072   7.480  1.4516 -1.0630  3.3248
    7CHTO   O26 2814   6.204   3.173   7.585  0.0573 -0.1465  0.8616
    7CHTO   C41 2815   6.240   3.296   7.510 -0.1622 -0.2880 -0.4514
    7CHTO   H83 2816   6.346   3.290   7.482  0.5544 -0.3170  2.1242
    7CHTO   C52 2817   6.203   3.423   7.598 -0.1952 -0.4600 -0.4587
    7CHTO   O35 2818   6.246   3.539   7.538  0.0091  0.1883  1.0591
    7CHTO   H71 2819   6.326   3.560   7.581 -0.0313 -1.6390  2.0882
    7CHTO   O28 2820   6.265   2.953   7.613 -0.0971 -0.0630 -0.4675
    7CHTO   C42 2821   6.389   2.915   7.682  0.2531 -0.4641 -0.0080
    7CHTO   H84 2822   6.344   2.854   7.760  3.3264 -2.3323  0.3930
    7CHTO   C44 2823   6.464   3.030   7.763  0.7573  0.1617 -0.0325
    7CHTO   H86 2824   6.495   3.112   7.697 -0.5994 -1.1816 -2.4183
    7CHTO   O32 2825   6.372   3.081   7.865  0.5246  0.3331 -0.0077
    7CHTO   H69 2826   6.286   3.075   7.827  1.1635  1.6050 -1.7059
    7CHTO   C48 2827   6.603   2.976   7.821 -0.1241 -0.4035  0.9496
    7CHTO   H90 2828   6.594   2.884   7.878 -0.6024 -0.0968  1.3697
    7CHTO    N9 2829   6.669   3.074   7.911  0.0789  0.0222  0.2855
    7CHTO   H77 2830   6.766   3.113   7.882 -0.1550 -0.5795 -1.3726
    7CHTO   H78 2831   6.682   3.021   8.004 -4.3183  1.7451  2.0091
    7CHTO   C51 2832   6.684   2.944   7.695 -0.4421 -0.0564  0.3025
    7CHTO   H93 2833   6.694   3.030   7.629 -1.5375 -0.2968 -0.1719
    7CHTO   O30 2834   6.626   2.825   7.628  0.2677  0.4251 -0.7924
    7CHTO   C46 2835   6.481   2.819   7.594 -0.1766  0.4726  0.6499
    7CHTO   H88 2836   6.467   2.835   7.487  2.4322  0.5756  0.3004
    7CHTO   C53 2837   6.446   2.671   7.632 -0.7965 -0.2122 -0.5957
    7CHTO   O72 2838   6.312   2.632   7.605 -0.0450  0.3247  0.3116
    7CHTO  H199 2839   6.262   2.631   7.685 -0.5579 -0.4134 -0.0114
    7CHTO   O22 2840   6.817   2.893   7.723 -0.0574 -0.5265  0.0657
    7CHTO   C31 2841   6.936   2.915   7.632 -0.1596 -0.2809  0.0609
    7CHTO   H59 2842   7.025   2.874   7.684 -0.6728 -0.5017  0.7747
    7CHTO   C29 2843   6.924   2.843   7.499  0.2673 -0.4169 -0.4171
    7CHTO   H57 2844   6.828   2.870   7.453  0.5522  0.1697 -0.6765
    7CHTO   O21 2845   6.899   2.701   7.527  0.7485 -0.5909  0.0194
    7CHTO   H37 2846   6.811   2.673   7.507  0.5007  0.6595 -0.6558
    7CHTO   C27 2847   7.045   2.860   7.391  0.9830  0.1047 -0.1952
    7CHTO   H55 2848   7.136   2.809   7.428  0.6454  0.0082  0.5010
    7CHTO    N5 2849   7.002   2.804   7.262  0.7393  0.4108 -0.1409
    7CHTO   H43 2850   6.901   2.835   7.239  0.6708  1.0233  0.9396
    7CHTO   H44 2851   7.066   2.826   7.178  0.9005 -1.1114 -0.4364
    7CHTO   C25 2852   7.089   3.008   7.390  0.1507  0.0454  1.2831
    7CHTO   H53 2853   7.011   3.061   7.333 -0.7461 -1.7337  0.8131
    7CHTO   O17 2854   7.085   3.072   7.518  0.3546 -0.6759 -0.0337
    7CHTO   C32 2855   6.964   3.065   7.596 -0.4056 -0.0699  0.5379
    7CHTO   H60 2856   6.876   3.109   7.550  0.5657 -0.5922 -1.8502
    7CHTO   C36 2857   6.980   3.157   7.721  0.4898  0.2467  0.2956
    7CHTO   O25 2858   7.095   3.123   7.794 -0.1883  0.4013  0.1883
    7CHTO   H40 2859   7.078   3.051   7.851 -1.1908 -0.4528 -1.1665
    7CHTO   O15 2860   7.235   3.026   7.316 -0.0681  0.2183  0.1713
    7CHTO   C19 2861   7.271   3.124   7.207  0.1263  0.0231 -0.3820
    7CHTO   H47 2862   7.380   3.120   7.200  0.3397  1.1957  1.6500
    7CHTO   C20 2863   7.201   3.085   7.068  0.5950  0.0356 -0.2714
    7CHTO   H48 2864   7.091   3.096   7.072  0.7658  1.4614  1.1792
    7CHTO   O19 2865   7.227   2.947   7.043  0.7859  0.4951  0.4736
    7CHTO   H35 2866   7.204   2.933   6.953  0.3712 -1.4803  0.8667
    7CHTO   C21 2867   7.247   3.187   6.950 -0.0599  0.5863 -0.0976
    7CHTO   H49 2868   7.356   3.191   6.944 -0.1551  1.2703 -1.4858
    7CHTO    N4 2869   7.183   3.157   6.823  0.6573 -0.0228 -0.0937
    7CHTO   H41 2870   7.202   3.241   6.758 -0.7837  0.1231 -0.3629
    7CHTO   H42 2871   7.212   3.068   6.770  0.6381  0.4974 -0.9791
    7CHTO   C22 2872   7.219   3.333   7.002 -0.4162  0.3137  0.6981
    7CHTO   H50 2873   7.111   3.334   7.015 -0.4273 -2.6577  1.1205
    7CHTO   O14 2874   7.280   3.359   7.132 -0.4976 -0.1116 -0.4191
    7CHTO   C23 2875   7.248   3.273   7.240 -0.4960 -0.3646  0.5622
    7CHTO   H51 2876   7.150   3.293   7.288 -1.0211 -0.8277 -0.3079
    7CHTO   C34 2877   7.332   3.326   7.357  0.6174  0.3145  0.3014
    7CHTO   O23 2878   7.317   3.462   7.396  0.4564  0.1755  0.1524
    7CHTO   H38 2879   7.237   3.466   7.445  1.2879  0.6913  1.4983
    7CHTO   O16 2880   7.264   3.427   6.905  0.2049  0.1658  0.6593
    7CHTO   C24 2881   7.150   3.549   6.865  0.6049 -0.4148 -0.5517
    7CHTO   H52 2882   7.049   3.526   6.900 -1.2215  2.3477 -3.7168
    7CHTO   C26 2883   7.130   3.554   6.719 -0.0859 -0.5177  0.5167
    7CHTO   H54 2884   7.230   3.575   6.674 -0.6744  0.0240 -0.5550
    7CHTO   O20 2885   7.092   3.417   6.683 -0.0360 -0.3945 -0.1395
    7CHTO   H36 2886   7.114   3.394   6.595  0.7161  0.4709 -0.1927
    7CHTO   C30 2887   7.032   3.658   6.666  0.3126  0.3131  0.0876
    7CHTO   H58 2888   6.931   3.641   6.709  1.0149 -1.8475  0.9870
    7CHTO    N6 2889   7.013   3.662   6.518 -0.0067  0.0689  0.6756
    7CHTO   H45 2890   7.095   3.717   6.474 -1.0939 -0.3741 -1.9990
    7CHTO   H46 2891   6.923   3.716   6.494  0.7641  2.0232  1.9550
    7CHTO   C33 2892   7.076   3.794   6.726  0.6513 -0.0008 -0.2005
    7CHTO   H61 2893   7.168   3.824   6.672  1.1361  2.8462  2.0534
    7CHTO   O18 2894   7.099   3.790   6.865  0.4072 -0.3471  0.2969
    7CHTO   C28 2895   7.193   3.693   6.919  0.1297 -0.3227  1.1876
    7CHTO   H56 2896   7.290   3.714   6.876  0.5029 -3.1983  0.5398
    7CHTO   C35 2897   7.190   3.702   7.070 -0.0993 -0.2882  0.5086
    7CHTO   O24 2898   7.060   3.673   7.122 -0.7794 -0.2817  0.1475
    7CHTO   H39 2899   7.002   3.721   7.066  1.7792  1.4176 -1.1504
    7CHTO    O9 2900   6.980   3.896   6.692 -0.0370 -0.4157 -0.3648
    7CHTO   C13 2901   7.011   4.042   6.638 -0.2146 -0.3703  0.4154
    7CHTO   H26 2902   7.074   4.030   6.547  0.7217  0.1852  0.9913
    7CHTO   C11 2903   7.080   4.144   6.746 -0.1627  0.0822  0.0175
    7CHTO   H24 2904   7.189   4.135   6.755 -0.3875 -1.2418  1.8537
    7CHTO    O8 2905   7.033   4.111   6.885  0.8176 -0.4754  0.0603
    7CHTO    H3 2906   7.101   4.138   6.944  3.0430 -0.7321 -2.3188
    7CHTO    C9 2907   7.040   4.288   6.709 -0.4931 -0.1020 -0.2535
    7CHTO   H22 2908   7.073   4.306   6.606 -0.0728  0.1425 -0.0797
    7CHTO    N2 2909   7.120   4.386   6.781  0.0916  0.3009 -0.0187
    7CHTO   H10 2910   7.223   4.353   6.785 -0.0451 -0.6595 -3.2130
    7CHTO   H11 2911   7.077   4.404   6.879 -1.4021 -2.5252 -0.1022
    7CHTO    C7 2912   6.882   4.300   6.720 -0.3368  0.2912 -0.5689
    7CHTO   H20 2913   6.862   4.366   6.633  2.4700 -2.8528 -3.7376
    7CHTO    O4 2914   6.805   4.178   6.694 -1.0621  0.2352 -0.3111
    7CHTO   C14 2915   6.865   4.100   6.585 -0.2743  0.0880 -0.5078
    7CHTO   H27 2916   6.891   4.155   6.492  0.7877 -0.1743 -0.3781
    7CHTO   C18 2917   6.760   3.989   6.547 -0.2278 -0.7096  0.7870
    7CHTO   O13 2918   6.637   4.043   6.498  0.2187  0.7478 -0.5726
    7CHTO    H7 2919   6.598   4.094   6.566 -2.1772  1.2126 -2.2512
    7CHTO    O2 2920   6.827   4.353   6.847  0.0264  0.2389  0.2985
    7CHTO    C1 2921   6.698   4.421   6.822 -0.3207  0.6840  0.0631
    7CHTO   H14 2922   6.640   4.387   6.734 -0.8920 -1.3472  1.1944
    7CHTO    C2 2923   6.715   4.580   6.817  0.4760  0.0880 -0.5883
    7CHTO   H15 2924   6.758   4.606   6.914 -2.6316 -4.7793  2.3232
    7CHTO    O6 2925   6.790   4.608   6.700 -0.2491 -0.6165 -0.0605
    7CHTO    H1 2926   6.879   4.615   6.726 -0.1314  2.5895 -1.1210
    7CHTO    C3 2927   6.568   4.642   6.815 -0.4128 -0.7496 -0.4973
    7CHTO   H16 2928   6.513   4.614   6.724 -1.0584  0.0342 -0.3460
    7CHTO    N1 2929   6.585   4.795   6.806 -0.0091 -0.1948  0.1692
    7CHTO    H8 2930   6.603   4.821   6.703  1.4403 -1.9682 -0.0516
    7CHTO    H9 2931   6.662   4.833   6.871  1.7484  0.2903 -2.1623
    7CHTO    C4 2932   6.484   4.593   6.933 -0.8195  0.4419  0.4199
    7CHTO   H17 2933   6.525   4.621   7.030 -0.2152  1.1691 -0.0432
    7CHTO    O1 2934   6.475   4.453   6.929  0.4250  0.1394  0.4952
    7CHTO    C5 2935   6.599   4.381   6.945  0.1168  0.1773  0.6523
    7CHTO   H18 2936   6.642   4.421   7.037 -2.0909  1.5141  1.1509
    7CHTO   C16 2937   6.586   4.230   6.954  0.5341  0.9461  0.4674
    7CHTO   O11 2938   6.520   4.198   7.075 -0.1870 -0.0858  0.6892
    7CHTO    H5 2939   6.524   4.104   7.084 -0.2832 -0.1365  0.2374
    7CHTO    O3 2940   6.346   4.636   6.928 -0.0221 -0.6062 -0.4625
    7CHTO    C6 2941   6.284   4.668   7.061 -0.0627 -0.3021 -0.7550
    7CHTO   H19 2942   6.175   4.668   7.062 -0.0623  0.3078  0.8184
    7CHTO    C8 2943   6.308   4.551   7.169 -0.3693  0.4584  0.1883
    7CHTO   H21 2944   6.417   4.537   7.169 -0.4939 -0.5821  0.7609
    7CHTO    O7 2945   6.241   4.436   7.115 -0.5213 -0.1521  0.5939
    7CHTO    H2 2946   6.151   4.460   7.125 -0.3012  0.8416  0.2485
    7CHTO   C12 2947   6.253   4.587   7.311 -0.0267 -0.2199  0.3639
    7CHTO   H25 2948   6.143   4.589   7.296  0.1272  3.5921 -0.6284
    7CHTO    N3 2949   6.302   4.481   7.411  0.1703  0.4580 -0.5389
    7CHTO   H12 2950   6.209   4.428   7.423  0.9383 -0.4083  2.0689
    7CHTO   H13 2951   6.329   4.518   7.509  2.1038  2.1745 -1.6754
    7CHTO   C15 2952   6.287   4.735   7.345 -0.1023 -0.9562 -0.0931
    7CHTO   H28 2953   6.393   4.753   7.367  0.2792 -0.9615 -1.9035
    7CHTO   O10 2954   6.209   4.782   7.452 -0.3152 -0.1335 -0.4147
    7CHTO    H4 2955   6.267   4.797   7.524  2.1976  0.7524 -2.5435
    7CHTO    O5 2956   6.241   4.823   7.242  0.0791 -0.5454 -0.0085
    7CHTO   C10 2957   6.320   4.810   7.119 -0.5099  0.1056 -0.3646
    7CHTO   H23 2958   6.423   4.832   7.148 -1.1791  1.3320  1.1111
    7CHTO   C17 2959   6.274   4.925   7.027  0.0677  0.2092 -0.1015
    7CHTO   O12 2960   6.317   5.046   7.093  0.2995  0.0669  0.0131
    7CHTO    H6 2961   6.254   5.115   7.086 -0.6975 -0.7184  0.9938
    8CHTO  H203 2962   7.296   7.694   1.807 -1.1247 -1.3405 -1.8767
    8CHTO   O82 2963   7.275   7.781   1.778  0.9315  0.0347  0.4956
    8CHTO  C123 2964   7.142   7.815   1.819 -0.0329 -0.1627  0.5613
    8CHTO  H227 2965   7.125   7.788   1.924 -0.1851  0.3636  0.6715
    8CHTO   O77 2966   7.143   7.960   1.813 -0.2089 -0.2150 -0.1951
    8CHTO  C118 2967   7.032   8.016   1.882 -0.3931 -0.2923 -0.3800
    8CHTO  H222 2968   7.021   7.969   1.981  2.1033 -0.6513 -0.2360
    8CHTO  C125 2969   7.056   8.173   1.906 -0.7089 -0.1301  0.3797
    8CHTO   O84 2970   7.072   8.246   1.789  0.2765 -1.2181  0.3051
    8CHTO  H205 2971   7.146   8.221   1.737 -0.2607  1.9660 -2.1341
    8CHTO  C114 2972   6.916   7.988   1.790 -0.6140 -0.1719  0.4208
    8CHTO  H218 2973   6.935   8.038   1.695  0.2294 -2.1496 -0.4861
    8CHTO  C116 2974   6.892   7.835   1.759 -0.0272  0.2935  0.3092
    8CHTO  H220 2975   6.847   7.791   1.851  3.3410  1.4135  2.6012
    8CHTO   O79 2976   6.794   7.825   1.651 -0.2780  0.0338  0.4812
    8CHTO  H201 2977   6.827   7.864   1.572 -0.5854  2.1738  1.3604
    8CHTO  C120 2978   7.027   7.758   1.726  0.4433  0.3533 -0.2192
    8CHTO  H224 2979   7.048   7.789   1.621  0.1557  1.3992  0.0314
    8CHTO   N21 2980   7.013   7.611   1.737 -0.2370  0.2543  0.1158
    8CHTO  H211 2981   7.090   7.565   1.677 -0.2392 -1.6171  1.4845
    8CHTO  H212 2982   7.018   7.562   1.833  1.9375 -0.3656 -0.2910
    8CHTO   O75 2983   6.795   8.045   1.859 -0.6683 -0.2820  0.5121
    8CHTO  C112 2984   6.709   8.136   1.756 -0.1947 -0.2182  0.9595
    8CHTO  H216 2985   6.680   8.078   1.667 -1.1647  2.7897 -0.7866
    8CHTO   O73 2986   6.792   8.251   1.714 -0.3923  0.0186  0.4893
    8CHTO  C113 2987   6.737   8.324   1.608  0.0081 -0.0416  0.1357
    8CHTO  H217 2988   6.715   8.255   1.523 -0.4724  3.1506 -2.4432
    8CHTO  C124 2989   6.847   8.412   1.549  0.2275  0.0983 -0.1795
    8CHTO   O83 2990   6.901   8.519   1.634 -0.2283 -0.6327 -0.1794
    8CHTO  H204 2991   6.987   8.493   1.663 -0.8875 -1.1938  1.3466
    8CHTO  C109 2992   6.614   8.403   1.666 -0.2006 -0.0622  0.3291
    8CHTO  H213 2993   6.653   8.478   1.737 -1.0760  0.9305 -0.2162
    8CHTO  C110 2994   6.513   8.305   1.733  0.1658  0.4667 -1.0530
    8CHTO  H214 2995   6.459   8.254   1.653 -0.6221  0.6022 -0.6121
    8CHTO   O78 2996   6.416   8.392   1.792 -1.2052  0.0009 -0.4040
    8CHTO  H200 2997   6.440   8.420   1.879 -0.6389  2.4327 -1.3063
    8CHTO  C111 2998   6.581   8.204   1.825  0.0516 -0.5770  0.1899
    8CHTO  H215 2999   6.619   8.254   1.916  1.5148 -0.4111 -0.4988
    8CHTO   N19 3000   6.496   8.093   1.875 -0.0660  0.4423  0.5167
    8CHTO  H207 3001   6.551   8.023   1.936  0.6182  0.6761  0.1681
    8CHTO  H208 3002   6.436   8.045   1.799 -1.6995  1.0244  1.4175
    8CHTO   O74 3003   6.552   8.477   1.553 -0.2243  0.0587  0.0024
    8CHTO  C115 3004   6.472   8.613   1.582  0.0754  0.4837 -0.1613
    8CHTO  H219 3005   6.430   8.612   1.683  1.7313 -3.0009  0.5699
    8CHTO   O76 3006   6.567   8.746   1.580 -0.3536  0.4376 -0.1816
    8CHTO  C122 3007   6.622   8.769   1.450 -0.2260 -0.3068 -0.3794
    8CHTO  H226 3008   6.683   8.681   1.431  0.1691  0.0816 -0.9464
    8CHTO  C126 3009   6.721   8.886   1.456 -0.2092 -0.3395 -0.2704
    8CHTO   O85 3010   6.674   9.017   1.505  0.3794  0.0592  0.1035
    8CHTO  H206 3011   6.719   9.046   1.582 -2.6208  0.2003  1.8920
    8CHTO  C121 3012   6.511   8.784   1.341  0.2112  0.2628  0.4063
    8CHTO  H225 3013   6.518   8.883   1.291  1.5427 -0.9381 -1.8929
    8CHTO   O81 3014   6.533   8.699   1.234 -0.5419  0.2370  0.3572
    8CHTO  H202 3015   6.469   8.635   1.208 -2.0277  1.0995  1.8508
    8CHTO  C119 3016   6.365   8.761   1.398  0.3783 -0.3205 -0.3948
    8CHTO  H223 3017   6.346   8.837   1.473  3.1627 -0.9459  1.0281
    8CHTO  C117 3018   6.356   8.626   1.469 -0.4325 -0.3834  0.3659
    8CHTO  H221 3019   6.370   8.537   1.408 -2.3316  0.2116 -1.0114
    8CHTO   N20 3020   6.224   8.599   1.526 -0.5183  0.2162 -0.1118
    8CHTO  H209 3021   6.199   8.495   1.509 -1.5071  0.4531 -0.1246
    8CHTO  H210 3022   6.147   8.656   1.477  0.2845 -0.2728 -2.0176
    8CHTO   O80 3023   6.254   8.790   1.285  0.4404 -0.4570 -0.1208
    8CHTO  C103 3024   6.180   8.935   1.275  0.2661  0.6550 -0.1470
    8CHTO  H190 3025   6.076   8.914   1.250 -0.1463  3.4668 -0.9327
    8CHTO  C101 3026   6.188   9.022   1.411  0.2503 -0.1034 -0.8213
    8CHTO  H188 3027   6.283   9.027   1.465 -1.0918 -1.9654  1.7908
    8CHTO   O68 3028   6.092   8.957   1.501  0.2694 -0.2137 -0.5308
    8CHTO  H168 3029   6.109   8.990   1.587  3.5275  1.0043 -1.5937
    8CHTO   C99 3030   6.138   9.173   1.376  0.9022 -0.8355 -0.5797
    8CHTO  H186 3031   6.028   9.176   1.359  0.8304 -0.5268 -0.0759
    8CHTO   N17 3032   6.165   9.268   1.491  0.1406  0.4445 -1.0670
    8CHTO  H174 3033   6.068   9.289   1.534  1.2719  0.6666  1.5163
    8CHTO  H175 3034   6.217   9.353   1.450  2.3914  1.0725  2.7953
    8CHTO   C97 3035   6.194   9.221   1.246  0.1123 -0.2952  0.3637
    8CHTO  H184 3036   6.302   9.237   1.263  0.0562 -0.1604  0.6013
    8CHTO   O64 3037   6.168   9.137   1.142  0.2972  0.0531 -0.0460
    8CHTO  C104 3038   6.240   9.010   1.150 -0.2495 -0.0217  0.0416
    8CHTO  H191 3039   6.345   9.033   1.167 -0.5017  1.8045 -0.6711
    8CHTO  C108 3040   6.231   8.941   1.019 -0.1059  0.0051 -0.4275
    8CHTO   O71 3041   6.099   8.921   0.972 -0.2341  0.5888  0.3113
    8CHTO  H171 3042   6.078   8.997   0.921 -0.0598  0.9940  0.8363
    8CHTO   O62 3043   6.151   9.344   1.196  0.2089 -0.5720 -0.2241
    8CHTO   C91 3044   6.234   9.449   1.135 -0.3472 -0.1383 -0.3325
    8CHTO  H178 3045   6.341   9.434   1.146 -0.3340  1.4635  2.0886
    8CHTO   C92 3046   6.218   9.576   1.220  0.0217  0.0370 -0.0272
    8CHTO  H179 3047   6.113   9.588   1.252  0.9327  0.9657  2.6987
    8CHTO   O66 3048   6.275   9.544   1.346 -0.2694  0.4171  0.2003
    8CHTO  H166 3049   6.256   9.610   1.409  1.8946 -0.7400  2.1396
    8CHTO   C93 3050   6.283   9.709   1.159  0.2262  0.2566 -0.2719
    8CHTO  H180 3051   6.392   9.695   1.169 -0.0176  0.5366  3.1476
    8CHTO   N16 3052   6.253   9.826   1.244 -0.1804  0.1476 -0.0901
    8CHTO  H172 3053   6.196   9.909   1.205 -0.3784  0.2730  0.4580
    8CHTO  H173 3054   6.348   9.866   1.276 -0.2081  1.3353 -1.4707
    8CHTO   C94 3055   6.240   9.723   1.007  0.0824  0.0330 -0.3608
    8CHTO  H181 3056   6.132   9.734   0.994 -0.0960  2.2792  2.6722
    8CHTO   O61 3057   6.284   9.596   0.946 -0.0531 -0.1044  0.0606
    8CHTO   C95 3058   6.208   9.481   0.983 -0.0383 -0.0584 -0.1822
    8CHTO  H182 3059   6.103   9.494   0.957 -0.0357  2.1244  0.8273
    8CHTO  C106 3060   6.269   9.367   0.900 -0.0404 -0.1425 -0.3241
    8CHTO   O69 3061   6.283   9.387   0.759 -0.1680 -0.4777 -0.5297
    8CHTO  H169 3062   6.196   9.365   0.733  0.0776 -0.9509 -0.9695
    8CHTO   O63 3063   6.299   9.844   0.927  0.3962  0.1875 -0.0866
    8CHTO   C96 3064   6.293   9.847   0.766  0.1615  0.1091  0.8197
    8CHTO  H183 3065   6.217   9.777   0.732 -0.5374  1.8901 -1.3910
    8CHTO   C98 3066   6.430   9.813   0.708 -0.9784 -0.1297 -0.8335
    8CHTO  H185 3067   6.505   9.866   0.769  0.1856 -1.0673 -1.4525
    8CHTO   O67 3068   6.457   9.671   0.717 -0.5259  0.6433  0.2363
    8CHTO  H167 3069   6.434   9.633   0.634  2.1427  0.2180 -0.3571
    8CHTO  C102 3070   6.446   9.848   0.553 -0.8059 -0.4502 -0.1551
    8CHTO  H189 3071   6.383   9.778   0.497 -1.8103  0.1037  0.2738
    8CHTO   N18 3072   6.582   9.832   0.495  0.6508  0.7691  0.1092
    8CHTO  H176 3073   6.594   9.740   0.440  0.8991 -0.5149  2.2429
    8CHTO  H177 3074   6.603   9.919   0.434 -1.5689  1.1735 -0.1098
    8CHTO  C105 3075   6.378   9.986   0.518  0.2347 -0.4231 -0.0823
    8CHTO  H192 3076   6.447  10.066   0.545  0.1201  0.7800 -3.0696
    8CHTO   O65 3077   6.257  10.012   0.582  0.3044 -0.1228  0.2720
    8CHTO  C100 3078   6.249   9.992   0.726  0.7818  0.1925  0.2925
    8CHTO  H187 3079   6.321  10.061   0.773  0.1463  0.0348  1.5090
    8CHTO  C107 3080   6.104  10.036   0.759 -0.3916 -0.5825  0.2714
    8CHTO   O70 3081   6.078  10.039   0.902  0.4257  0.2778 -0.0850
    8CHTO  H170 3082   5.987  10.062   0.906  0.1242 -1.1373  1.9119
    8CHTO   O57 3083   6.368   9.988   0.351 -0.0032  0.3358  0.0551
    8CHTO   C85 3084   6.420  10.100   0.278  0.4844  0.1997 -0.7773
    8CHTO  H157 3085   6.526  10.105   0.310  0.6225  1.6601 -1.4189
    8CHTO   C83 3086   6.342  10.228   0.325 -0.4975  0.1442  0.9705
    8CHTO  H155 3087   6.358  10.235   0.433 -0.1331 -1.2437  1.0271
    8CHTO   O56 3088   6.204  10.216   0.290 -0.1608 -0.4020 -0.2237
    8CHTO  H135 3089   6.177  10.139   0.338 -1.0062 -1.7339 -2.7591
    8CHTO   C81 3090   6.417  10.344   0.254 -0.5252 -0.5857  0.3894
    8CHTO  H153 3091   6.523  10.334   0.277 -0.9296 -0.5239  2.4025
    8CHTO   N14 3092   6.389  10.479   0.314  0.1067 -0.3398  0.3631
    8CHTO  H141 3093   6.370  10.547   0.234 -1.4888 -2.5770 -1.2340
    8CHTO  H142 3094   6.471  10.516   0.373  0.2966 -0.3483  0.1020
    8CHTO   C79 3095   6.398  10.328   0.096  0.5094  0.2845 -0.1880
    8CHTO  H151 3096   6.458  10.403   0.045  0.2238  0.8683  0.3092
    8CHTO   O52 3097   6.450  10.195   0.049 -0.4657 -0.9618  0.5445
    8CHTO   C86 3098   6.410  10.082   0.127 -0.2511  0.1762  0.2242
    8CHTO  H158 3099   6.307  10.058   0.094 -0.3283  1.9983 -0.9740
    8CHTO   C90 3100   6.494   9.962   0.078 -0.6754  0.8804 -0.3909
    8CHTO   O60 3101   6.627   9.971   0.132 -0.2470  0.6877  0.3003
    8CHTO  H138 3102   6.676  10.043   0.098  3.1063 -1.9587 -0.8082
    8CHTO   O50 3103   6.257  10.336   0.055  0.7223 -0.3718 -0.4696
    8CHTO   C73 3104   6.149  10.380  -0.029  0.0174 -0.3864  0.1955
    8CHTO  H145 3105   6.186  10.377  -0.132  0.5232 -2.6126  0.4149
    8CHTO   C74 3106   6.088  10.521   0.015 -0.2001  0.7203  0.2250
    8CHTO  H146 3107   6.167  10.596   0.004 -0.2944  0.8229  0.2472
    8CHTO   O54 3108   5.982  10.559  -0.074  0.0607 -0.0891  0.0427
    8CHTO  H133 3109   6.015  10.574  -0.160 -0.2447  1.0880  0.1242
    8CHTO   C75 3110   6.041  10.508   0.168  0.2666  0.3658 -0.0876
    8CHTO  H147 3111   6.129  10.487   0.231 -0.2924  4.3081  2.2109
    8CHTO   N13 3112   5.996  10.628   0.227  0.0506  0.5960 -0.1978
    8CHTO  H139 3113   6.063  10.711   0.214  1.7308 -0.9517 -1.7580
    8CHTO  H140 3114   5.962  10.609   0.328 -0.5513  1.7819 -0.1698
    8CHTO   C76 3115   5.938  10.389   0.193 -0.1100  0.4866 -0.2558
    8CHTO  H148 3116   5.836  10.421   0.174 -0.3561  1.0806  1.9637
    8CHTO   O49 3117   5.982  10.276   0.119 -0.3005  0.1191 -0.0838
    8CHTO   C77 3118   6.036  10.275  -0.014 -0.1799  0.0722  0.4556
    8CHTO  H149 3119   5.962  10.297  -0.091 -0.8493 -0.3114  0.9794
    8CHTO   C88 3120   6.088  10.136  -0.050 -0.2435  0.7238 -0.2415
    8CHTO   O58 3121   5.970  10.030  -0.007  0.2478 -0.0120  0.4309
    8CHTO  H136 3122   5.930   9.987  -0.081  0.3158  0.1416  0.3062
    8CHTO   O51 3123   5.943  10.339   0.339  0.1116  0.6368 -0.7672
    8CHTO   C78 3124   5.815  10.288   0.395 -1.1381  0.5801  0.1922
    8CHTO  H150 3125   5.741  10.281   0.312 -1.4609 -0.4164  0.5604
    8CHTO   C80 3126   5.772  10.395   0.498 -0.3314  0.3918  0.4427
    8CHTO  H152 3127   5.857  10.422   0.564 -1.5418  1.3404  1.6170
    8CHTO   O55 3128   5.730  10.519   0.427 -0.0748  0.0348 -0.7515
    8CHTO  H134 3129   5.771  10.537   0.345 -0.0950  1.1813 -0.5124
    8CHTO   C84 3130   5.657  10.346   0.587 -0.1377 -0.7168 -0.0991
    8CHTO  H156 3131   5.565  10.337   0.531 -0.2487  1.0582 -0.2181
    8CHTO   N15 3132   5.641  10.444   0.706  0.0915 -0.6586 -0.2075
    8CHTO  H143 3133   5.721  10.451   0.777 -0.0147 -1.8506  0.0353
    8CHTO  H144 3134   5.553  10.419   0.760 -1.3604  1.7109 -1.3575
    8CHTO   C87 3135   5.682  10.205   0.643  0.0818 -0.0813 -0.8841
    8CHTO  H159 3136   5.770  10.212   0.707  1.1402 -1.9089 -2.1091
    8CHTO   O53 3137   5.708  10.102   0.523 -0.1313 -0.0196 -0.0785
    8CHTO   C82 3138   5.831  10.142   0.458 -0.2254 -0.0820  0.5130
    8CHTO  H154 3139   5.915  10.142   0.527 -0.3490  2.1068  0.7198
    8CHTO   C89 3140   5.861  10.038   0.355  0.1906 -0.1261  0.1180
    8CHTO   O59 3141   6.005  10.017   0.336  0.2240  0.0841  0.3598
    8CHTO  H137 3142   6.019   9.927   0.317 -1.6945 -0.1430 -0.1262
    8CHTO   O45 3143   5.562  10.147   0.725 -0.1310  0.3785  0.4398
    8CHTO   C67 3144   5.603  10.046   0.819 -0.7582  0.0854 -0.0032
    8CHTO  H124 3145   5.685   9.994   0.772 -0.7511  1.9414 -2.1350
    8CHTO   C65 3146   5.650  10.101   0.962 -0.6105  0.0323  1.4594
    8CHTO  H122 3147   5.616  10.204   0.968 -2.5866 -0.5029 -0.1770
    8CHTO   O44 3148   5.792  10.100   0.975  0.0982 -0.4898 -0.0409
    8CHTO  H102 3149   5.839  10.101   0.894 -1.9170  0.0371 -1.2301
    8CHTO   C63 3150   5.571  10.037   1.078 -0.9522 -0.2140  0.3778
    8CHTO  H120 3151   5.470  10.076   1.071 -0.7603  0.4385  1.1823
    8CHTO   N11 3152   5.605  10.075   1.220  1.1049 -0.2702 -0.2468
    8CHTO  H108 3153   5.582  10.178   1.233  0.5735 -0.1836 -1.7416
    8CHTO  H109 3154   5.710  10.063   1.240  1.3554 -2.3493 -2.4597
    8CHTO   C61 3155   5.565   9.881   1.056  0.3816  1.0761 -0.2158
    8CHTO  H118 3156   5.495   9.835   1.127  0.3662 -1.2850 -1.7249
    8CHTO   O40 3157   5.514   9.835   0.932  0.6428 -0.0378 -0.2579
    8CHTO   C68 3158   5.486   9.940   0.832  0.0133 -0.7231 -0.0635
    8CHTO  H125 3159   5.396   9.994   0.866  0.3643  0.6885 -1.2900
    8CHTO   C72 3160   5.452   9.878   0.691  0.2716  0.3528  0.4175
    8CHTO   O48 3161   5.346   9.781   0.708 -0.2406  0.2967 -0.2233
    8CHTO  H105 3162   5.273   9.825   0.747 -0.7419  0.9759 -1.8689
    8CHTO   O38 3163   5.703   9.826   1.062  0.3168  0.1910 -0.0683
    8CHTO   C55 3164   5.711   9.687   1.068 -0.0674  0.5090  0.7771
    8CHTO  H112 3165   5.631   9.638   1.010  1.0140  0.0295 -0.3457
    8CHTO   C56 3166   5.729   9.620   1.210  0.1953  0.3412  0.2713
    8CHTO  H113 3167   5.818   9.674   1.245  0.3247 -0.7868  1.7529
    8CHTO   O42 3168   5.618   9.646   1.301 -0.1055 -0.0044  0.3701
    8CHTO  H100 3169   5.652   9.687   1.379 -0.2915  0.3844  0.2477
    8CHTO   C57 3170   5.767   9.465   1.194  0.1136 -0.1988 -0.1886
    8CHTO  H114 3171   5.676   9.415   1.161  0.2360 -1.8305  1.8488
    8CHTO   N10 3172   5.804   9.402   1.325 -0.2686  0.1896 -0.0549
    8CHTO  H106 3173   5.908   9.426   1.340 -0.4809 -0.2734  2.3483
    8CHTO  H107 3174   5.749   9.452   1.404  0.1868  0.0817  0.3324
    8CHTO   C58 3175   5.882   9.441   1.087  0.6822  0.5799 -0.4760
    8CHTO  H115 3176   5.976   9.491   1.119 -0.4218  2.3981  0.0125
    8CHTO   O37 3177   5.838   9.506   0.971  0.7798 -0.8567  0.6918
    8CHTO   C59 3178   5.836   9.645   0.980 -0.3052  0.4800 -0.1252
    8CHTO  H116 3179   5.930   9.672   1.029 -0.4813 -0.7187  0.9150
    8CHTO   C70 3180   5.831   9.709   0.839  0.2165 -0.4519  0.1528
    8CHTO   O46 3181   5.951   9.708   0.759  0.2853 -0.0041  0.2871
    8CHTO  H103 3182   5.933   9.731   0.670 -1.2076 -0.9082  0.3488
    8CHTO   O39 3183   5.904   9.285   1.051 -0.1192  1.0667 -0.4027
    8CHTO   C60 3184   5.842   9.233   0.933  0.3437 -0.7651 -0.1885
    8CHTO  H117 3185   5.755   9.294   0.907  0.6572 -1.1868 -2.2777
    8CHTO   C62 3186   5.926   9.233   0.817 -0.5897 -0.0322 -0.0385
    8CHTO  H119 3187   5.964   9.337   0.809  0.7787 -0.3587  1.9521
    8CHTO   O43 3188   6.040   9.153   0.835  0.1567  0.5097 -0.4227
    8CHTO  H101 3189   6.009   9.069   0.862 -0.4830  1.5038  2.1378
    8CHTO   C66 3190   5.842   9.189   0.683  0.8775 -0.6271 -0.0111
    8CHTO  H123 3191   5.749   9.246   0.681  0.7078 -0.9026  0.0830
    8CHTO   N12 3192   5.912   9.225   0.557 -0.1104  0.1744 -0.0924
    8CHTO  H110 3193   5.931   9.331   0.563  0.6081 -0.0218  1.3344
    8CHTO  H111 3194   6.009   9.176   0.561  0.7855  1.9390  0.0636
    8CHTO   C69 3195   5.805   9.042   0.702  0.5137  1.2090  0.4013
    8CHTO  H126 3196   5.891   8.974   0.712 -0.1524 -0.1889 -2.6820
    8CHTO   O41 3197   5.715   9.034   0.832 -0.9426  0.9716  0.0182
    8CHTO   C64 3198   5.787   9.087   0.959 -0.0199 -0.0601  0.3483
    8CHTO  H121 3199   5.871   9.025   0.996 -0.6471 -0.0806  1.7629
    8CHTO   C71 3200   5.677   9.089   1.078 -0.5890  0.9674  0.0417
    8CHTO   O47 3201   5.593   9.201   1.072  1.1267 -0.0427 -0.0097
    8CHTO  H104 3202   5.511   9.184   1.116  2.1749 -0.8029  1.7140
    8CHTO   O34 3203   5.719   8.992   0.575 -0.0290  0.4222 -0.4494
    8CHTO   C49 3204   5.594   8.918   0.567 -0.6792  0.0823 -1.3251
    8CHTO   H91 3205   5.610   8.827   0.625 -1.3070  0.2269 -0.9158
    8CHTO   C47 3206   5.564   8.880   0.424  0.5282  0.4419 -0.2443
    8CHTO   H89 3207   5.466   8.830   0.431  0.2770  0.8722 -0.6265
    8CHTO   O33 3208   5.664   8.782   0.384 -0.3332 -0.3400  0.4511
    8CHTO   H70 3209   5.736   8.821   0.338 -1.4922  0.5978 -0.6127
    8CHTO   C45 3210   5.552   9.016   0.331 -0.4758 -0.0563 -0.1460
    8CHTO   H87 3211   5.656   9.039   0.306 -0.4024 -1.1277 -0.8593
    8CHTO    N8 3212   5.485   8.980   0.199  0.0145 -0.3132 -0.3057
    8CHTO   H75 3213   5.444   8.880   0.206  0.2865 -0.5384 -1.7894
    8CHTO   H76 3214   5.400   9.047   0.193  0.6332  1.0205  3.9663
    8CHTO   C43 3215   5.485   9.129   0.424 -0.0863  0.8077 -0.5030
    8CHTO   H85 3216   5.569   9.180   0.472 -0.7145 -0.3724  1.8994
    8CHTO   O29 3217   5.399   9.075   0.521  0.0763 -0.0879  0.2354
    8CHTO   C50 3218   5.474   9.001   0.621  0.3754  0.2534 -0.3224
    8CHTO   H92 3219   5.507   9.071   0.698  0.3112 -0.9570  0.8275
    8CHTO   C54 3220   5.378   8.913   0.697  0.3689 -0.4033  0.3354
    8CHTO   O36 3221   5.435   8.851   0.813 -0.1429  0.2017  0.2440
    8CHTO   H72 3222   5.365   8.794   0.840 -0.7936 -0.2573 -2.2542
    8CHTO   O27 3223   5.435   9.230   0.342 -0.6506 -0.1174  0.5791
    8CHTO   C37 3224   5.390   9.357   0.380  0.3011 -0.2963 -0.1560
    8CHTO   H79 3225   5.374   9.365   0.488  3.6941 -1.2658  0.4937
    8CHTO   C38 3226   5.505   9.464   0.353  0.1176  0.4537  0.0379
    8CHTO   H80 3227   5.541   9.452   0.250  0.3723  0.6262  0.1060
    8CHTO   O31 3228   5.623   9.445   0.438 -0.6384  0.0314 -0.0348
    8CHTO   H68 3229   5.667   9.371   0.403  0.5061  0.8874 -0.4334
    8CHTO   C39 3230   5.458   9.609   0.383 -0.1634  0.1273  0.6362
    8CHTO   H81 3231   5.439   9.608   0.490 -1.7856 -0.2645  0.3536
    8CHTO    N7 3232   5.557   9.717   0.349  0.4122 -0.1295  0.2449
    8CHTO   H73 3233   5.644   9.674   0.302 -0.2337 -1.3557  0.1676
    8CHTO   H74 3234   5.518   9.796   0.286  0.0073  1.4644  2.4487
    8CHTO   C40 3235   5.327   9.637   0.299  0.2842  0.2375 -0.3930
    8CHTO   H82 3236   5.351   9.644   0.193 -1.5027  1.4504 -0.7543
    8CHTO   O26 3237   5.229   9.535   0.325  0.1132  0.0001  0.0573
    8CHTO   C41 3238   5.263   9.399   0.299  0.0909 -0.1262 -0.1863
    8CHTO   H83 3239   5.291   9.391   0.193  3.2892  0.6679  0.5350
    8CHTO   C52 3240   5.133   9.312   0.323 -0.0723  0.1445  0.2230
    8CHTO   O35 3241   5.158   9.171   0.313  0.8719  0.0528  0.5245
    8CHTO   H71 3242   5.219   9.148   0.381 -0.4029  1.7990  2.3358
    8CHTO   O28 3243   5.267   9.761   0.339 -0.7216 -0.6759 -0.2637
    8CHTO   C42 3244   5.239   9.861   0.232 -0.1486  0.3043  0.0099
    8CHTO   H84 3245   5.160   9.912   0.287 -1.5282 -1.3723 -0.3550
    8CHTO   C44 3246   5.163   9.813   0.099 -0.0396  0.0931 -0.6400
    8CHTO   H86 3247   5.227   9.745   0.044 -1.4898 -0.5362 -1.5820
    8CHTO   O32 3248   5.053   9.739   0.156  0.2828  0.1929  0.1833
    8CHTO   H69 3249   5.053   9.650   0.127  0.6962  0.1276  0.3937
    8CHTO   C48 3250   5.125   9.934   0.001 -0.6658 -0.6913  0.2294
    8CHTO   H90 3251   5.046   9.994   0.047 -0.5471 -0.3182 -0.0450
    8CHTO    N9 3252   5.059   9.887  -0.130  0.4663 -0.5637 -0.2097
    8CHTO   H77 3253   4.989   9.964  -0.158  0.6194 -0.5979 -0.6831
    8CHTO   H78 3254   5.001   9.801  -0.101 -0.4464  0.3838  0.8304
    8CHTO   C51 3255   5.260  10.015  -0.025 -0.0147 -0.1332 -0.6362
    8CHTO   H93 3256   5.334   9.944  -0.062  1.0244 -0.5547  2.1858
    8CHTO   O30 3257   5.304  10.073   0.099 -0.0242 -0.0486 -0.2493
    8CHTO   C46 3258   5.356   9.962   0.202  0.0380 -0.6215  0.0028
    8CHTO   H88 3259   5.443   9.916   0.155  1.2061  1.9215 -0.3701
    8CHTO   C53 3260   5.396  10.044   0.324  0.0565 -0.8245  0.8333
    8CHTO   O72 3261   5.506  10.128   0.300 -0.1817  0.4677  0.0985
    8CHTO  H199 3262   5.575  10.073   0.265  1.3532  1.0232  2.1606
    8CHTO   O22 3263   5.233  10.129  -0.111 -0.0340  0.1367  0.4772
    8CHTO   C31 3264   5.342  10.206  -0.197 -0.1344  0.9758  0.2245
    8CHTO   H59 3265   5.286  10.283  -0.254 -1.2749 -1.1036 -1.5095
    8CHTO   C29 3266   5.444  10.274  -0.112 -0.4874 -0.6313  0.2134
    8CHTO   H57 3267   5.490  10.200  -0.045  0.9066 -0.4621 -0.5360
    8CHTO   O21 3268   5.376  10.369  -0.025  0.0463 -0.4052  0.0446
    8CHTO   H37 3269   5.339  10.442  -0.071  0.5935  0.8753  1.6188
    8CHTO   C27 3270   5.561  10.345  -0.194  0.4762 -0.0650  0.6837
    8CHTO   H55 3271   5.522  10.422  -0.263  0.9632 -0.4187  0.0147
    8CHTO    N5 3272   5.663  10.413  -0.108 -0.0602  0.0490  0.2364
    8CHTO   H43 3273   5.693  10.335  -0.040  2.3312  1.3865  0.7570
    8CHTO   H44 3274   5.618  10.492  -0.051  0.2785 -0.0185  0.5941
    8CHTO   C25 3275   5.612  10.240  -0.297  0.3630 -0.3637  0.1182
    8CHTO   H53 3276   5.654  10.156  -0.239  3.2385  1.7731  1.2612
    8CHTO   O17 3277   5.501  10.189  -0.377 -0.3685 -1.0558 -0.0262
    8CHTO   C32 3278   5.398  10.117  -0.312 -0.2622 -0.6135  0.0302
    8CHTO   H60 3279   5.431  10.022  -0.270  1.2229  0.8081  2.1132
    8CHTO   C36 3280   5.286  10.071  -0.413 -0.1000  0.1981 -0.4235
    8CHTO   O25 3281   5.212  10.174  -0.470 -0.3807  0.2326 -0.0953
    8CHTO   H40 3282   5.240  10.167  -0.559  0.5956 -1.4846  0.3326
    8CHTO   O15 3283   5.731  10.295  -0.397 -0.0273 -0.1581 -0.5932
    8CHTO   C19 3284   5.869  10.267  -0.442 -0.4960  0.0887  0.0083
    8CHTO   H47 3285   5.867  10.257  -0.552 -1.8676 -1.3847  0.1510
    8CHTO   C20 3286   5.970  10.383  -0.403 -0.6143  0.6069  0.4384
    8CHTO   H48 3287   5.975  10.396  -0.294 -0.0076 -0.5812  0.5646
    8CHTO   O19 3288   5.919  10.509  -0.457 -0.1961 -0.6744  0.0388
    8CHTO   H35 3289   5.834  10.522  -0.419  0.6265  0.1077  1.6472
    8CHTO   C21 3290   6.114  10.358  -0.456  0.5311  0.8872  0.3328
    8CHTO   H49 3291   6.116  10.365  -0.565  0.1209 -1.3651  0.1633
    8CHTO    N4 3292   6.221  10.449  -0.416 -0.4931  0.0189  0.3978
    8CHTO   H41 3293   6.291  10.469  -0.496 -0.8478  2.9986  0.7772
    8CHTO   H42 3294   6.177  10.544  -0.390 -0.8093 -0.4958  1.8186
    8CHTO   C22 3295   6.159  10.204  -0.428 -0.1094 -0.0428 -0.2805
    8CHTO   H50 3296   6.200  10.195  -0.328  2.2015  2.3054 -0.9656
    8CHTO   O14 3297   6.056  10.110  -0.461 -0.4054 -0.4091 -0.6288
    8CHTO   C23 3298   5.930  10.137  -0.391  0.6325  0.1376 -0.5983
    8CHTO   H51 3299   5.943  10.139  -0.282  0.9292  0.3290 -0.6376
    8CHTO   C34 3300   5.833  10.026  -0.423 -0.1444  0.3815 -0.3354
    8CHTO   O23 3301   5.868   9.913  -0.351 -0.4018 -0.0524 -0.4023
    8CHTO   H38 3302   5.800   9.849  -0.362 -0.7109  0.4371 -1.3513
    8CHTO   O16 3303   6.260  10.171  -0.523 -0.1342  0.0135 -0.0849
    8CHTO   C24 3304   6.381  10.083  -0.458  0.2766  0.2006  0.0719
    8CHTO   H52 3305   6.362  10.056  -0.354  2.8772 -0.5230  0.3896
    8CHTO   C26 3306   6.517  10.154  -0.466 -0.8133 -0.9887 -0.7387
    8CHTO   H54 3307   6.529  10.196  -0.568 -0.1493  0.2101 -0.1721
    8CHTO   O20 3308   6.524  10.262  -0.370 -0.5750  0.1759 -0.1214
    8CHTO   H36 3309   6.477  10.332  -0.411  0.9750  0.2534 -1.8275
    8CHTO   C30 3310   6.631  10.057  -0.431 -0.6216 -0.2986  0.2366
    8CHTO   H58 3311   6.645  10.059  -0.322  2.2015 -2.1017 -0.0387
    8CHTO    N6 3312   6.759  10.121  -0.481  0.6034  0.0791 -0.9512
    8CHTO   H45 3313   6.836  10.140  -0.408 -1.7804 -1.8939  2.2117
    8CHTO   H46 3314   6.734  10.213  -0.533 -0.4199  1.3160  1.6301
    8CHTO   C33 3315   6.620   9.911  -0.482 -0.3632 -0.0435 -0.1307
    8CHTO   H61 3316   6.659   9.904  -0.585 -0.6699  0.7681 -0.3104
    8CHTO   O18 3317   6.485   9.864  -0.473 -0.1705 -0.5023  0.1299
    8CHTO   C28 3318   6.388   9.951  -0.536  0.6700  0.7401 -0.1737
    8CHTO   H56 3319   6.411   9.970  -0.640 -1.1997  0.4016 -0.6604
    8CHTO   C35 3320   6.263   9.877  -0.535 -0.3266 -0.3631  0.4789
    8CHTO   O24 3321   6.280   9.756  -0.609 -0.1920 -0.3244 -0.0373
    8CHTO   H39 3322   6.218   9.687  -0.615  1.2670 -1.8337  1.5937
    8CHTO    O9 3323   6.710   9.833  -0.403 -0.4021  0.1332  0.0184
    8CHTO   C13 3324   6.725   9.693  -0.446 -0.0931  0.1768 -0.8692
    8CHTO   H26 3325   6.708   9.688  -0.556  1.4014 -0.6168 -1.0797
    8CHTO   C11 3326   6.616   9.606  -0.367  0.5364  0.3756 -0.1215
    8CHTO   H24 3327   6.518   9.631  -0.409  1.6558  2.4466 -1.5526
    8CHTO    O8 3328   6.607   9.642  -0.229 -0.1394  0.9071 -0.3666
    8CHTO    H3 3329   6.566   9.727  -0.225 -1.5799  0.2417 -0.6779
    8CHTO    C9 3330   6.658   9.462  -0.389  0.4874  0.1865 -0.0153
    8CHTO   H22 3331   6.676   9.452  -0.497  0.8265 -0.7064  0.1225
    8CHTO    N2 3332   6.554   9.351  -0.371 -0.4891 -0.8192 -0.3826
    8CHTO   H10 3333   6.529   9.297  -0.461 -1.8626  0.1951 -0.6286
    8CHTO   H11 3334   6.465   9.385  -0.321 -1.3323 -2.2173 -0.9229
    8CHTO    C7 3335   6.794   9.442  -0.305 -0.2517 -0.6181 -0.0512
    8CHTO   H20 3336   6.847   9.368  -0.368  0.9495 -0.9082  1.2680
    8CHTO    O4 3337   6.885   9.563  -0.299  0.1127 -0.0173  0.4670
    8CHTO   C14 3338   6.872   9.646  -0.414 -0.2464 -0.0679  0.6360
    8CHTO   H27 3339   6.902   9.592  -0.506 -0.7835  0.9017 -0.1096
    8CHTO   C18 3340   6.978   9.758  -0.398  0.2384 -0.3509 -0.8727
    8CHTO   O13 3341   7.116   9.713  -0.386  0.2906 -0.5858 -0.2275
    8CHTO    H7 3342   7.180   9.773  -0.353 -0.4128  0.6185 -1.0135
    8CHTO    O2 3343   6.778   9.371  -0.157  0.3119 -0.3977 -0.3440
    8CHTO    C1 3344   6.891   9.294  -0.112 -0.7567 -0.2389 -0.1715
    8CHTO   H14 3345   6.888   9.298  -0.001  0.6240  0.7584 -0.1532
    8CHTO    C2 3346   7.034   9.340  -0.149  0.8614 -0.7275  0.9457
    8CHTO   H15 3347   7.045   9.346  -0.259 -1.4453  1.2079  0.7790
    8CHTO    O6 3348   7.047   9.480  -0.097  0.1572 -0.1696 -0.4654
    8CHTO    H1 3349   6.991   9.492  -0.024 -1.2760  0.7335 -1.6879
    8CHTO    C3 3350   7.141   9.243  -0.084 -0.8455  0.5100  0.9994
    8CHTO   H16 3351   7.125   9.241   0.025 -2.1620 -0.1072  0.8035
    8CHTO    N1 3352   7.285   9.292  -0.097 -0.5484 -0.1015 -0.4723
    8CHTO    H8 3353   7.290   9.365  -0.176 -0.0577  0.6070  0.2151
    8CHTO    H9 3354   7.312   9.340  -0.005 -0.9997 -0.4505 -0.1554
    8CHTO    C4 3355   7.122   9.096  -0.133  0.6667 -0.3648 -0.2325
    8CHTO   H17 3356   7.141   9.096  -0.241  0.4765  0.8866 -0.2773
    8CHTO    O1 3357   6.983   9.053  -0.125  0.1236  0.3648  0.1688
    8CHTO    C5 3358   6.884   9.145  -0.172 -0.4298 -0.3639 -0.0018
    8CHTO   H18 3359   6.900   9.156  -0.279  0.2842  2.9381  0.3738
    8CHTO   C16 3360   6.755   9.062  -0.142  0.6854 -0.3142  0.1789
    8CHTO   O11 3361   6.737   9.042  -0.004  0.1773 -0.0824 -0.0641
    8CHTO    H5 3362   6.810   8.994   0.031 -0.3474 -0.7191  0.1814
    8CHTO    O3 3363   7.200   8.998  -0.059 -0.0362 -0.3721  0.3030
    8CHTO    C6 3364   7.203   8.868  -0.125 -1.1827 -0.3723  0.1981
    8CHTO   H19 3365   7.116   8.844  -0.185 -2.0724  1.3539  0.7392
    8CHTO    C8 3366   7.329   8.850  -0.206 -0.0821 -0.6883  0.4374
    8CHTO   H21 3367   7.408   8.902  -0.152  0.3325  0.2387 -1.0291
    8CHTO    O7 3368   7.314   8.919  -0.335  0.1009 -0.5112 -0.4513
    8CHTO    H2 3369   7.228   8.901  -0.370 -1.4093 -1.0754  3.2295
    8CHTO   C12 3370   7.369   8.704  -0.240 -0.3505 -0.0907 -0.0740
    8CHTO   H25 3371   7.298   8.658  -0.312  1.2085 -2.3069 -0.2552
    8CHTO    N3 3372   7.504   8.698  -0.307 -0.0262  0.8678 -0.1188
    8CHTO   H12 3373   7.530   8.594  -0.313 -0.7700  0.7183 -0.8271
    8CHTO   H13 3374   7.579   8.742  -0.242 -0.8473  1.7631  0.2410
    8CHTO   C15 3375   7.368   8.619  -0.108 -0.9023  0.3178 -0.5307
    8CHTO   H28 3376   7.440   8.664  -0.040 -0.9702  0.5549 -0.6108
    8CHTO   O10 3377   7.381   8.492  -0.120 -0.0350  0.2084 -1.0582
    8CHTO    H4 3378   7.465   8.468  -0.087 -0.2327 -1.1320 -1.4851
    8CHTO    O5 3379   7.239   8.624  -0.054 -0.0918 -0.2305  0.5972
    8CHTO   C10 3380   7.208   8.760  -0.011 -0.4725 -0.7623 -0.6911
    8CHTO   H23 3381   7.282   8.790   0.063 -0.3817  0.5572 -1.3043
    8CHTO   C17 3382   7.075   8.759   0.069 -0.6857 -0.4142  0.2932
    8CHTO   O12 3383   7.100   8.688   0.191  0.1352 -0.4880 -0.0064
    8CHTO    H6 3384   7.032   8.683   0.255  0.4107 -1.5616  0.2190
    9CHTO  H203 3385   7.062   5.396   5.551 -0.0570  1.4906  0.2378
    9CHTO   O82 3386   7.136   5.341   5.567 -0.3280  0.8321 -0.6921
    9CHTO  C123 3387   7.236   5.355   5.470 -0.1561  0.1538  0.2847
    9CHTO  H227 3388   7.317   5.417   5.511 -0.7514 -0.0366  1.7496
    9CHTO   O77 3389   7.281   5.215   5.455 -0.2539 -0.2962  0.1794
    9CHTO  C118 3390   7.387   5.193   5.361  0.2039 -0.1837  0.6487
    9CHTO  H222 3391   7.479   5.233   5.406 -0.1835 -0.3933  1.6452
    9CHTO  C125 3392   7.409   5.043   5.345 -0.2216  0.6267 -0.0207
    9CHTO   O84 3393   7.297   4.974   5.293 -0.4996 -0.2452  0.2543
    9CHTO  H205 3394   7.220   4.977   5.347  0.4818 -0.4696  1.7034
    9CHTO  C114 3395   7.370   5.257   5.218  0.5129 -0.3768 -0.4030
    9CHTO  H218 3396   7.290   5.204   5.167 -0.1131 -0.7464  0.9244
    9CHTO  C116 3397   7.326   5.410   5.234 -0.1712 -0.1796 -1.2147
    9CHTO  H220 3398   7.411   5.457   5.287 -0.8610 -0.0400 -0.2142
    9CHTO   O79 3399   7.301   5.462   5.099  0.1115 -0.0951  0.7618
    9CHTO  H201 3400   7.309   5.555   5.100 -0.8997  0.0904 -2.7188
    9CHTO  C120 3401   7.197   5.406   5.330 -0.4176 -0.6126  0.2019
    9CHTO  H224 3402   7.129   5.335   5.279 -0.4096 -0.9898  0.7122
    9CHTO   N21 3403   7.144   5.548   5.339 -0.3101  1.0332 -0.4975
    9CHTO  H211 3404   7.039   5.548   5.363 -0.3955 -1.8752 -0.6904
    9CHTO  H212 3405   7.154   5.597   5.244  0.5423 -1.6192 -1.8283
    9CHTO   O75 3406   7.499   5.249   5.150  0.4605 -0.3686  0.0933
    9CHTO  C112 3407   7.478   5.173   5.009  0.0768  0.1889  0.8696
    9CHTO  H216 3408   7.380   5.211   4.978  0.7853  1.9564  0.7199
    9CHTO   O73 3409   7.473   5.032   5.041  0.8148  0.5971  0.6626
    9CHTO  C113 3410   7.453   4.942   4.928  0.3307 -0.1211 -0.1353
    9CHTO  H217 3411   7.363   4.978   4.875 -0.0325 -0.2253  0.4017
    9CHTO  C124 3412   7.435   4.794   4.972  0.2297  0.5765 -0.6387
    9CHTO   O83 3413   7.376   4.694   4.885 -0.0035 -0.5951 -0.0623
    9CHTO  H204 3414   7.403   4.607   4.907  0.7370 -0.1400  0.8322
    9CHTO  C109 3415   7.578   4.959   4.835 -0.8738 -0.1137 -0.4422
    9CHTO  H213 3416   7.664   4.923   4.894 -1.7572 -1.1011  0.2708
    9CHTO  C110 3417   7.597   5.103   4.787  0.4290 -0.3357  0.8277
    9CHTO  H214 3418   7.514   5.124   4.719  1.3738  0.9821  0.0584
    9CHTO   O78 3419   7.717   5.112   4.713 -0.8395  0.2206  0.2583
    9CHTO  H200 3420   7.791   5.088   4.765 -1.6924 -0.1685  1.2971
    9CHTO  C111 3421   7.591   5.205   4.905 -0.6302 -0.6737 -0.0446
    9CHTO  H215 3422   7.682   5.191   4.965  1.4584  0.5970 -2.8065
    9CHTO   N19 3423   7.589   5.346   4.869  0.5257  0.3354 -0.2555
    9CHTO  H207 3424   7.507   5.370   4.803  0.8793  0.1588 -0.7644
    9CHTO  H208 3425   7.583   5.409   4.956  2.0612 -2.4559  1.9505
    9CHTO   O74 3426   7.551   4.876   4.721  0.6090 -0.0144  0.0673
    9CHTO  C115 3427   7.687   4.828   4.628  0.6113 -1.1919  0.2781
    9CHTO  H219 3428   7.772   4.896   4.631  0.8238 -1.4618  0.3556
    9CHTO   O76 3429   7.752   4.684   4.681 -0.2521  0.0804 -0.0166
    9CHTO  C122 3430   7.662   4.576   4.666 -0.4317 -0.0565 -0.3084
    9CHTO  H226 3431   7.566   4.599   4.712 -0.7951  0.2237 -1.2023
    9CHTO  C126 3432   7.720   4.440   4.735  0.3743 -0.1962 -0.2701
    9CHTO   O85 3433   7.709   4.436   4.881  0.0450 -0.2083  0.2021
    9CHTO  H206 3434   7.766   4.500   4.918 -2.3464  2.2313 -0.1450
    9CHTO  C121 3435   7.626   4.553   4.516 -0.7547  0.0638  0.9071
    9CHTO  H225 3436   7.725   4.544   4.465 -2.2074  0.5301 -2.1002
    9CHTO   O81 3437   7.547   4.440   4.496  0.2408 -0.3438 -0.2438
    9CHTO  H202 3438   7.465   4.446   4.449  0.5070 -1.8914 -0.9507
    9CHTO  C119 3439   7.555   4.686   4.460 -0.2586  0.6045 -0.6908
    9CHTO  H223 3440   7.545   4.674   4.352 -0.2095 -2.8147 -0.3627
    9CHTO  C117 3441   7.647   4.815   4.479  0.7792  0.4883 -0.4432
    9CHTO  H221 3442   7.598   4.908   4.451  1.3551  0.5819 -1.1508
    9CHTO   N20 3443   7.774   4.813   4.390 -0.0529  0.5180 -0.7483
    9CHTO  H209 3444   7.788   4.717   4.342  0.2587  0.1753  0.0071
    9CHTO  H210 3445   7.862   4.847   4.442  0.4195 -0.2919 -1.0080
    9CHTO   O80 3446   7.390   4.707   4.518  0.1648  0.2303 -0.4533
    9CHTO  C103 3447   7.293   4.835   4.442  0.1791  0.0789  0.3507
    9CHTO  H190 3448   7.317   4.936   4.475  2.3677  0.6524 -2.7700
    9CHTO  C101 3449   7.299   4.844   4.289  0.1613  0.3864 -0.1814
    9CHTO  H188 3450   7.276   4.742   4.258 -0.9083  0.2556  0.9875
    9CHTO   O68 3451   7.442   4.883   4.229  0.0296 -0.2236 -0.8628
    9CHTO  H168 3452   7.500   4.811   4.214  0.3159 -0.0654 -0.5480
    9CHTO   C99 3453   7.180   4.949   4.238  0.2785 -0.1923 -0.2883
    9CHTO  H186 3454   7.200   5.054   4.268 -0.9132 -0.2792  0.8493
    9CHTO   N17 3455   7.173   4.970   4.089  0.1427 -0.1997 -0.5754
    9CHTO  H174 3456   7.079   4.938   4.046 -1.2339  0.9443  1.5111
    9CHTO  H175 3457   7.195   5.073   4.067 -2.0222  0.4499  0.1402
    9CHTO   C97 3458   7.047   4.917   4.306  0.3104 -0.0278  0.2869
    9CHTO  H184 3459   7.023   4.816   4.268  2.9620 -0.1666 -1.0783
    9CHTO   O64 3460   7.064   4.919   4.449  0.3840 -0.7724  0.2875
    9CHTO  C104 3461   7.143   4.808   4.489  0.0502  0.1168  0.3358
    9CHTO  H191 3462   7.110   4.714   4.444 -0.1934 -0.0594  0.8837
    9CHTO  C108 3463   7.131   4.790   4.641 -0.0038  0.0514  0.0460
    9CHTO   O71 3464   7.169   4.905   4.713 -0.3765 -0.4635  0.0850
    9CHTO  H171 3465   7.133   4.983   4.675  0.3313 -0.9059 -1.5257
    9CHTO   O62 3466   6.956   5.023   4.286  0.2149 -0.3161  0.0525
    9CHTO   C91 3467   6.824   4.991   4.231 -0.1074 -0.6706 -0.5281
    9CHTO  H178 3468   6.846   4.921   4.150 -0.2692 -0.4908 -0.7316
    9CHTO   C92 3469   6.773   5.122   4.166  0.0698  0.4741  0.3101
    9CHTO  H179 3470   6.860   5.169   4.118 -1.2142  1.5093 -1.0551
    9CHTO   O66 3471   6.689   5.078   4.058 -0.0667 -0.2798 -0.0091
    9CHTO  H166 3472   6.615   5.029   4.087  0.1211 -0.1651  0.6912
    9CHTO   C93 3473   6.692   5.223   4.254  0.1222  0.4877  0.0129
    9CHTO  H180 3474   6.634   5.290   4.188  2.4354  1.3208 -1.2195
    9CHTO   N16 3475   6.779   5.316   4.336 -0.4046 -0.0088 -0.1340
    9CHTO  H172 3476   6.862   5.257   4.372  1.4560  0.9435 -2.6937
    9CHTO  H173 3477   6.814   5.400   4.277 -3.3908  1.1027 -0.4055
    9CHTO   C94 3478   6.592   5.146   4.343  0.3533 -0.3110  0.6417
    9CHTO  H181 3479   6.614   5.160   4.449  0.4581 -0.4824  0.6435
    9CHTO   O61 3480   6.588   5.004   4.320 -0.0640  0.3782  0.3388
    9CHTO   C95 3481   6.712   4.932   4.336 -0.2321  0.0336 -0.0525
    9CHTO  H182 3482   6.747   4.951   4.437  1.5237 -0.1109 -0.6050
    9CHTO  C106 3483   6.671   4.782   4.322  0.1907 -0.6723  0.6226
    9CHTO   O69 3484   6.782   4.691   4.314  0.2779  0.1792  0.2142
    9CHTO  H169 3485   6.765   4.603   4.342 -1.8839  0.4471 -0.1322
    9CHTO   O63 3486   6.455   5.191   4.313  0.5050  0.0738  0.1418
    9CHTO   C96 3487   6.344   5.187   4.448 -0.0676 -0.6673  0.4805
    9CHTO  H183 3488   6.396   5.236   4.530 -0.2535  0.0953  0.1387
    9CHTO   C98 3489   6.298   5.047   4.477 -0.1860  0.4225 -0.1163
    9CHTO  H185 3490   6.264   4.991   4.388  0.4602  0.9592 -0.7127
    9CHTO   O67 3491   6.410   4.974   4.534  0.7588  0.4786 -0.1381
    9CHTO  H167 3492   6.412   4.882   4.518 -4.1463  0.2376 -0.1147
    9CHTO  C102 3493   6.180   5.043   4.591 -0.1160  0.1564  0.4972
    9CHTO  H189 3494   6.224   5.065   4.689 -1.0674  0.0345  0.9542
    9CHTO   N18 3495   6.116   4.908   4.608 -0.2743 -0.3761  0.3576
    9CHTO  H176 3496   6.189   4.830   4.603  0.4813  0.3812 -0.6125
    9CHTO  H177 3497   6.048   4.891   4.526  0.6197 -1.2139 -0.2079
    9CHTO  C105 3498   6.070   5.149   4.571  0.2301  0.3196 -0.2050
    9CHTO  H192 3499   6.013   5.120   4.483  0.4091  1.0728 -0.5713
    9CHTO   O65 3500   6.134   5.271   4.532  0.5400  0.3207 -0.7905
    9CHTO  C100 3501   6.227   5.285   4.423 -0.3420 -0.2055  0.4520
    9CHTO  H187 3502   6.175   5.253   4.331  1.1482  0.1810 -0.5427
    9CHTO  C107 3503   6.253   5.439   4.404  0.4112  0.5154  0.1945
    9CHTO   O70 3504   6.128   5.508   4.392 -0.2103  0.1781  0.1546
    9CHTO  H170 3505   6.086   5.500   4.476 -0.5588 -2.6270 -0.2249
    9CHTO   O57 3506   5.970   5.166   4.707 -0.1616  0.1250 -0.2028
    9CHTO   C85 3507   5.842   5.230   4.709 -0.7450 -0.5248 -0.3632
    9CHTO  H157 3508   5.777   5.160   4.653 -0.3201  0.5920 -2.2873
    9CHTO   C83 3509   5.844   5.365   4.626  0.3444  0.6570 -0.7154
    9CHTO  H155 3510   5.863   5.336   4.522  1.0118  0.3761 -0.5188
    9CHTO   O56 3511   5.950   5.447   4.675  0.1939  0.7347  0.2324
    9CHTO  H135 3512   6.008   5.464   4.604 -0.0081 -0.7100 -0.2918
    9CHTO   C81 3513   5.709   5.441   4.646  0.0299  0.4573 -0.2253
    9CHTO  H153 3514   5.633   5.370   4.614  0.7936 -1.5463  2.2339
    9CHTO   N14 3515   5.694   5.556   4.554  0.3952  0.3111  0.0826
    9CHTO  H141 3516   5.609   5.619   4.570 -0.1133 -0.0363 -1.2568
    9CHTO  H142 3517   5.783   5.616   4.553  0.8456 -0.3643 -0.9960
    9CHTO   C79 3518   5.677   5.467   4.803 -0.7413  0.1651  0.2494
    9CHTO  H151 3519   5.574   5.503   4.809 -0.8000 -0.1675  1.2960
    9CHTO   O52 3520   5.681   5.342   4.874  0.3241 -0.5189  0.1278
    9CHTO   C86 3521   5.791   5.250   4.857 -0.3962 -0.1883 -0.7192
    9CHTO  H158 3522   5.880   5.294   4.908  0.3426  0.1706 -2.2933
    9CHTO   C90 3523   5.757   5.127   4.937 -0.9362 -0.0106  0.4081
    9CHTO   O60 3524   5.624   5.080   4.916 -0.4643  0.4720  0.1425
    9CHTO  H138 3525   5.623   4.997   4.960  0.6456  0.8238  0.8538
    9CHTO   O50 3526   5.760   5.561   4.860  0.1363 -0.1089 -0.0312
    9CHTO   C73 3527   5.790   5.663   4.952 -0.0713  0.1983  0.3230
    9CHTO  H145 3528   5.710   5.681   5.025 -1.1661 -0.1078 -0.7800
    9CHTO   C74 3529   5.817   5.790   4.863  0.1992 -0.1072  0.5854
    9CHTO  H146 3530   5.731   5.819   4.802  0.3683  0.6079  0.6805
    9CHTO   O54 3531   5.838   5.903   4.960 -0.5786 -0.0052 -0.0066
    9CHTO  H133 3532   5.757   5.944   4.982  0.1705  0.4573  2.0660
    9CHTO   C75 3533   5.942   5.764   4.772  0.0451 -0.0657  0.0897
    9CHTO  H147 3534   5.923   5.681   4.702  0.4119 -0.8205  0.8657
    9CHTO   N13 3535   5.976   5.880   4.689  0.0761 -0.4734 -0.0493
    9CHTO  H139 3536   5.964   5.967   4.753  1.1319 -0.6388  0.3803
    9CHTO  H140 3537   6.082   5.887   4.670  0.3345  3.7498  2.2677
    9CHTO   C76 3538   6.066   5.708   4.858 -0.1571 -0.0920  0.5576
    9CHTO  H148 3539   6.104   5.789   4.920 -0.4477  0.2338  0.3097
    9CHTO   O49 3540   6.026   5.601   4.944 -0.1375  0.1764 -0.0076
    9CHTO   C77 3541   5.921   5.626   5.031 -0.3548  0.4170  0.1082
    9CHTO  H149 3542   5.949   5.699   5.107 -1.2414 -0.2529  1.0956
    9CHTO   C88 3543   5.895   5.497   5.106  0.1495 -0.4779 -0.0170
    9CHTO   O58 3544   6.007   5.476   5.215  0.2902  0.2582 -0.3868
    9CHTO  H136 3545   5.995   5.527   5.293  1.6199  0.3264 -0.2118
    9CHTO   O51 3546   6.180   5.649   4.745 -0.1918 -0.1311  0.1952
    9CHTO   C78 3547   6.324   5.675   4.764  0.1536  0.2916  0.7173
    9CHTO  H150 3548   6.333   5.726   4.862 -4.3097  2.6185  0.0111
    9CHTO   C80 3549   6.375   5.772   4.656 -0.3219 -0.0382 -0.0234
    9CHTO  H152 3550   6.344   5.731   4.558  0.0543 -2.6068  0.8808
    9CHTO   O55 3551   6.311   5.900   4.679 -0.4033 -0.6653 -0.2107
    9CHTO  H134 3552   6.298   5.945   4.597 -0.3127 -0.5021 -0.1352
    9CHTO   C84 3553   6.534   5.790   4.649 -0.0312  0.3065 -0.4342
    9CHTO  H156 3554   6.572   5.841   4.738  0.5575 -0.4278 -0.2549
    9CHTO   N15 3555   6.583   5.872   4.534 -0.1432 -0.0776 -0.1642
    9CHTO  H143 3556   6.556   5.835   4.437  0.4542 -0.4421 -0.1867
    9CHTO  H144 3557   6.545   5.971   4.549  1.0384  0.0985  1.8344
    9CHTO   C87 3558   6.600   5.654   4.660 -0.7983  0.0325 -0.2477
    9CHTO  H159 3559   6.617   5.605   4.565  0.4356  1.3125 -0.7158
    9CHTO   O53 3560   6.530   5.558   4.773  0.2464  0.5948  0.2786
    9CHTO   C82 3561   6.395   5.535   4.756 -0.0124  0.4090  0.6763
    9CHTO  H154 3562   6.380   5.489   4.659  1.6153 -1.8459  1.4337
    9CHTO   C89 3563   6.343   5.434   4.861  0.2730 -0.3151  0.5868
    9CHTO   O59 3564   6.390   5.302   4.838 -1.0153 -0.2253 -0.5393
    9CHTO  H137 3565   6.446   5.280   4.910  0.0948 -1.8948 -1.8909
    9CHTO   O45 3566   6.769   5.682   4.712 -0.0429  0.2210  0.1114
    9CHTO   C67 3567   6.826   5.559   4.770  0.2498 -0.2808 -0.2958
    9CHTO  H124 3568   6.749   5.529   4.841  0.7939  0.0560  0.4418
    9CHTO   C65 3569   6.851   5.438   4.676 -0.5765  0.2053 -0.3790
    9CHTO  H122 3570   6.866   5.490   4.581  2.0368  0.4695  0.1564
    9CHTO   O44 3571   6.723   5.366   4.668  0.0424  0.5908 -0.1795
    9CHTO  H102 3572   6.738   5.275   4.689 -0.7313  0.0460 -1.9869
    9CHTO   C63 3573   6.984   5.353   4.709  0.5253  0.2658 -0.3543
    9CHTO  H120 3574   7.076   5.400   4.676  2.6838 -2.6234  1.3583
    9CHTO   N11 3575   6.998   5.233   4.635 -0.0569 -0.3990 -0.2058
    9CHTO  H108 3576   6.903   5.188   4.613 -0.7033  0.5076  0.7065
    9CHTO  H109 3577   7.048   5.153   4.686 -1.3376  0.1875  2.0244
    9CHTO   C61 3578   7.000   5.340   4.871 -0.0498 -0.1127 -0.1831
    9CHTO  H118 3579   7.105   5.306   4.880 -0.1849 -0.8874 -1.4043
    9CHTO   O40 3580   6.986   5.464   4.937 -0.5016 -0.1640 -0.4736
    9CHTO   C68 3581   6.952   5.589   4.861 -0.5559  0.1770  0.4412
    9CHTO  H125 3582   7.043   5.623   4.807  0.0129 -2.5336 -0.4057
    9CHTO   C72 3583   6.920   5.696   4.976  0.4873  0.0813 -0.0125
    9CHTO   O48 3584   6.858   5.823   4.945  0.4641 -0.5223  0.6154
    9CHTO  H105 3585   6.782   5.795   4.899 -0.4946  0.9824  1.2401
    9CHTO   O38 3586   6.907   5.243   4.924  0.3196 -0.0701  1.0941
    9CHTO   C55 3587   6.905   5.201   5.061 -0.7440  0.0348 -0.5144
    9CHTO  H112 3588   6.949   5.277   5.128  0.2551 -0.4261 -0.6340
    9CHTO   C56 3589   6.970   5.057   5.084  0.5663 -0.4060  0.1004
    9CHTO  H113 3590   6.935   4.991   5.003  1.9532 -1.2946  0.2143
    9CHTO   O42 3591   7.105   5.061   5.044  0.6587 -0.2751 -0.3127
    9CHTO  H100 3592   7.115   5.103   4.961  3.5999  3.0990  1.6160
    9CHTO   C57 3593   6.947   4.995   5.228 -0.4297 -0.3364  0.4224
    9CHTO  H114 3594   7.015   5.044   5.298 -0.7095  1.0187 -0.2381
    9CHTO   N10 3595   6.985   4.853   5.233 -0.1480  0.1561 -0.5567
    9CHTO  H106 3596   6.901   4.787   5.217  0.2640 -0.1750 -1.3899
    9CHTO  H107 3597   7.042   4.819   5.318 -1.5459  1.9830  1.1711
    9CHTO   C58 3598   6.795   5.017   5.268  0.0805  0.5367 -0.1215
    9CHTO  H115 3599   6.730   4.944   5.216  0.1275  1.3060 -1.2741
    9CHTO   O37 3600   6.750   5.148   5.242 -0.3628 -0.0452  0.2436
    9CHTO   C59 3601   6.758   5.192   5.107  0.4428 -0.4826 -0.2929
    9CHTO  H116 3602   6.698   5.134   5.037 -0.9765 -1.0054  1.3262
    9CHTO   C70 3603   6.698   5.340   5.105 -0.3799  0.0547  0.2516
    9CHTO   O46 3604   6.768   5.436   5.179 -0.4526 -0.1304 -0.4271
    9CHTO  H103 3605   6.837   5.466   5.123 -1.7510  0.8111 -1.5574
    9CHTO   O39 3606   6.785   4.997   5.440 -0.0416  0.4677  0.1908
    9CHTO   C60 3607   6.649   4.987   5.488 -0.1092  0.1492 -0.2650
    9CHTO  H117 3608   6.598   5.065   5.432 -0.6952 -0.1257 -0.1112
    9CHTO   C62 3609   6.580   4.855   5.458 -0.3519  0.3067 -0.4467
    9CHTO  H119 3610   6.581   4.852   5.347 -2.2611  0.2667 -0.4927
    9CHTO   O43 3611   6.665   4.747   5.499 -0.3437 -0.1217 -0.2475
    9CHTO  H101 3612   6.619   4.670   5.472  2.6453 -1.5313 -1.6378
    9CHTO   C66 3613   6.430   4.845   5.524  0.2258  0.2636  0.3403
    9CHTO  H123 3614   6.366   4.933   5.513 -0.0830 -0.0173 -0.1171
    9CHTO   N12 3615   6.352   4.736   5.469  1.0119  0.3316 -1.0688
    9CHTO  H110 3616   6.261   4.776   5.425  0.4337  0.5334  0.2843
    9CHTO  H111 3617   6.320   4.669   5.548  1.4714  0.3399 -0.8751
    9CHTO   C69 3618   6.451   4.849   5.674 -0.1652  0.0075  0.5625
    9CHTO  H126 3619   6.531   4.778   5.701 -0.4634 -0.4734  0.1743
    9CHTO   O41 3620   6.491   4.995   5.712 -0.0623  0.8916  0.3879
    9CHTO   C64 3621   6.639   5.026   5.639  0.1293  0.8694 -0.2156
    9CHTO  H121 3622   6.723   4.970   5.685 -1.9415 -2.8668 -0.8370
    9CHTO   C71 3623   6.648   5.183   5.651 -0.1201 -0.3256  0.4832
    9CHTO   O47 3624   6.683   5.224   5.785  0.1213 -0.1197 -0.6430
    9CHTO  H104 3625   6.704   5.315   5.792 -2.1827  0.3608  0.3216
    9CHTO   O34 3626   6.308   4.808   5.760  0.5675 -0.4268  0.7269
    9CHTO   C49 3627   6.229   4.775   5.891  0.5745 -0.1881 -0.2807
    9CHTO   H91 3628   6.129   4.818   5.888 -0.1704 -1.7079  1.6305
    9CHTO   C47 3629   6.303   4.846   6.008 -0.1044  0.2715  1.0453
    9CHTO   H89 3630   6.217   4.862   6.077 -0.0115  4.2429  0.3722
    9CHTO   O33 3631   6.356   4.975   5.967 -0.4303  0.1857  0.7079
    9CHTO   H70 3632   6.283   5.034   5.969 -0.7088 -0.1493  0.6269
    9CHTO   C45 3633   6.423   4.760   6.075 -0.3536  0.8667 -0.0876
    9CHTO   H87 3634   6.507   4.829   6.057  1.0496 -0.0158  2.7715
    9CHTO    N8 3635   6.408   4.736   6.222  0.3749  0.7517 -0.0648
    9CHTO   H75 3636   6.375   4.633   6.228  0.0757  0.6491 -2.7647
    9CHTO   H76 3637   6.499   4.745   6.279 -0.7774  2.1321  1.6056
    9CHTO   C43 3638   6.456   4.635   5.986  0.1494  0.0068 -0.4708
    9CHTO   H85 3639   6.487   4.668   5.886  1.2298 -0.0400 -0.1596
    9CHTO   O29 3640   6.336   4.556   5.982  0.2433 -1.4857 -0.1793
    9CHTO   C50 3641   6.224   4.621   5.910 -0.6687  1.0211  0.2048
    9CHTO   H92 3642   6.219   4.580   5.808 -1.5905 -0.0206  0.6548
    9CHTO   C54 3643   6.095   4.558   5.976  0.0994 -0.1036  0.1195
    9CHTO   O36 3644   6.094   4.413   5.999 -0.1884 -0.0132  0.0075
    9CHTO   H72 3645   6.152   4.401   6.071 -1.3815  1.2812  1.2054
    9CHTO   O27 3646   6.567   4.555   6.039  0.0338 -0.1563  0.1258
    9CHTO   C37 3647   6.706   4.569   6.011  0.8012  0.6323  0.0995
    9CHTO   H79 3648   6.758   4.479   6.047  1.1040  0.1811 -1.4653
    9CHTO   C38 3649   6.738   4.584   5.854  0.1169  0.4250  0.3662
    9CHTO   H80 3650   6.666   4.653   5.807 -0.9679 -0.2556  1.0008
    9CHTO   O31 3651   6.727   4.454   5.787 -0.0834  0.8813  0.4176
    9CHTO   H68 3652   6.745   4.469   5.696 -0.6823 -0.0043  0.1452
    9CHTO   C39 3653   6.883   4.643   5.833 -0.5754 -0.3618  0.5832
    9CHTO   H81 3654   6.957   4.566   5.859 -0.3858 -0.1477  0.6827
    9CHTO    N7 3655   6.922   4.662   5.687  0.3101  0.1314  0.8282
    9CHTO   H73 3656   6.983   4.585   5.645 -1.8132 -1.2173  0.1237
    9CHTO   H74 3657   6.962   4.762   5.676  1.2462 -0.4454 -1.2520
    9CHTO   C40 3658   6.899   4.774   5.917 -0.0204 -0.0898  0.7117
    9CHTO   H82 3659   6.816   4.838   5.886 -0.5442 -1.5473 -1.0113
    9CHTO   O26 3660   6.892   4.737   6.052 -0.9379 -0.2301 -0.5381
    9CHTO   C41 3661   6.755   4.691   6.096 -0.0086  0.5568  0.4119
    9CHTO   H83 3662   6.683   4.772   6.077 -0.2165  0.2186 -0.2393
    9CHTO   C52 3663   6.757   4.668   6.250  0.1230  0.0195 -0.4882
    9CHTO   O35 3664   6.883   4.588   6.301 -0.1112  0.0359 -0.0109
    9CHTO   H71 3665   6.947   4.592   6.233 -1.2497 -1.1533 -1.1831
    9CHTO   O28 3666   7.025   4.841   5.898 -1.0186 -0.3993 -0.3240
    9CHTO   C42 3667   7.060   4.979   5.932 -0.0363  0.2321 -0.2725
    9CHTO   H84 3668   7.167   4.984   5.913  0.5045 -0.1423  2.5277
    9CHTO   C44 3669   7.042   5.027   6.078  0.0061 -0.0107 -0.5465
    9CHTO   H86 3670   6.940   5.010   6.113 -0.7080  1.2985 -1.9423
    9CHTO   O32 3671   7.112   4.934   6.167  0.1859  0.2722 -0.0379
    9CHTO   H69 3672   7.065   4.903   6.242  2.6185  0.3504  1.5508
    9CHTO   C48 3673   7.081   5.178   6.097  0.3458 -0.1200  0.3411
    9CHTO   H90 3674   7.186   5.192   6.071  0.6050  2.0346  2.3928
    9CHTO    N9 3675   7.070   5.228   6.238  0.3078  0.1107 -0.1964
    9CHTO   H77 3676   6.985   5.171   6.273 -0.6371  1.2557 -0.5960
    9CHTO   H78 3677   7.037   5.331   6.236  1.4979  0.4789 -1.1052
    9CHTO   C51 3678   6.995   5.263   5.992  0.7750 -0.3081  0.1805
    9CHTO   H93 3679   6.888   5.251   6.008  0.4782  0.1611 -1.3347
    9CHTO   O30 3680   7.038   5.222   5.862  0.2208  0.2934 -0.0095
    9CHTO   C46 3681   6.989   5.081   5.833 -0.2046  0.3619 -0.3217
    9CHTO   H88 3682   6.883   5.076   5.859 -0.0307  0.0499  0.3079
    9CHTO   C53 3683   7.016   5.041   5.683 -0.1848  0.5389  0.3920
    9CHTO   O72 3684   7.153   5.039   5.662 -0.1177 -0.0741  0.2431
    9CHTO  H199 3685   7.180   5.126   5.641  0.4673  0.1719  1.9222
    9CHTO   O22 3686   7.026   5.401   6.009  0.5793 -0.7045 -0.2086
    9CHTO   C31 3687   6.932   5.505   5.958  0.4225  0.5327 -0.2865
    9CHTO   H59 3688   6.973   5.603   5.990  2.4285  0.2032 -1.7205
    9CHTO   C29 3689   6.933   5.509   5.806 -0.1319  0.7230  1.1911
    9CHTO   H57 3690   6.914   5.408   5.769 -0.7221  1.2557  0.0195
    9CHTO   O21 3691   7.072   5.542   5.777  0.4747  0.5887  0.4804
    9CHTO   H37 3692   7.079   5.546   5.683 -1.5163 -2.1756  0.1492
    9CHTO   C27 3693   6.826   5.607   5.744  0.3619  0.1305 -0.3021
    9CHTO   H55 3694   6.855   5.708   5.778  0.7067  0.7857 -2.4587
    9CHTO    N5 3695   6.827   5.604   5.595 -0.7030 -0.0086  0.1072
    9CHTO   H43 3696   6.732   5.646   5.564 -0.2646  1.4493  0.7215
    9CHTO   H44 3697   6.865   5.518   5.542 -0.8145  0.8455 -1.3808
    9CHTO   C25 3698   6.690   5.564   5.815 -0.4058  1.0535  0.1958
    9CHTO   H53 3699   6.668   5.459   5.790  0.1665  0.6629  1.2900
    9CHTO   O17 3700   6.689   5.577   5.954 -0.0109  0.3969 -0.4080
    9CHTO   C32 3701   6.789   5.493   6.017  0.0228  0.4269  0.9849
    9CHTO   H60 3702   6.762   5.388   6.004 -0.1290  0.6292 -0.3298
    9CHTO   C36 3703   6.796   5.529   6.166 -0.4991  0.7649 -0.6117
    9CHTO   O25 3704   6.672   5.519   6.238  0.4533  0.1405  0.1421
    9CHTO   H40 3705   6.659   5.429   6.261 -1.4744  0.4634  0.3631
    9CHTO   O15 3706   6.559   5.630   5.769 -0.0718  0.1205  0.0293
    9CHTO   C19 3707   6.436   5.607   5.694 -0.4870 -0.1635 -0.3687
    9CHTO   H47 3708   6.396   5.710   5.690  0.1145  0.1493  1.4036
    9CHTO   C20 3709   6.450   5.546   5.558 -0.4069  0.6523  0.1585
    9CHTO   H48 3710   6.502   5.449   5.560 -1.1569  0.2717  1.5460
    9CHTO   O19 3711   6.526   5.636   5.475  0.2227  0.3237  0.3478
    9CHTO   H35 3712   6.614   5.636   5.508 -0.7441  2.3969  3.0943
    9CHTO   C21 3713   6.313   5.521   5.487 -0.6247 -0.7335 -0.0631
    9CHTO   H49 3714   6.263   5.617   5.479  1.6114  0.4103 -0.8689
    9CHTO    N4 3715   6.314   5.460   5.348 -0.0965  0.3114  0.3168
    9CHTO   H41 3716   6.409   5.461   5.297 -0.1162  1.7873  0.2820
    9CHTO   H42 3717   6.244   5.495   5.275 -0.0902  0.1794  0.2470
    9CHTO   C22 3718   6.220   5.440   5.575  0.0636 -0.0386 -0.2886
    9CHTO   H50 3719   6.254   5.337   5.578 -0.3656 -0.2546 -2.2447
    9CHTO   O14 3720   6.214   5.498   5.709 -0.2325 -0.0712 -0.0891
    9CHTO   C23 3721   6.342   5.524   5.779 -0.1581 -0.1687 -0.8225
    9CHTO   H51 3722   6.385   5.426   5.806 -2.9820 -0.9683  0.9137
    9CHTO   C34 3723   6.288   5.608   5.897 -0.1498  0.0026  0.2817
    9CHTO   O23 3724   6.386   5.636   6.003 -0.1449  0.0697  0.0879
    9CHTO   H38 3725   6.347   5.696   6.064  0.2247 -0.7110  1.1012
    9CHTO   O16 3726   6.077   5.447   5.536 -0.6808  0.3286 -0.0169
    9CHTO   C24 3727   6.005   5.312   5.562 -0.2206 -0.1424 -0.2347
    9CHTO   H52 3728   6.057   5.249   5.634  1.1044 -0.7536 -1.7088
    9CHTO   C26 3729   5.983   5.231   5.432 -0.3108  0.1785 -0.4529
    9CHTO   H54 3730   5.932   5.298   5.360  0.5048  1.3063  0.0041
    9CHTO   O20 3731   6.114   5.180   5.386 -0.2647  0.6435  0.3931
    9CHTO   H36 3732   6.112   5.150   5.298 -0.2330  1.3208  0.1651
    9CHTO   C30 3733   5.890   5.103   5.452  0.8787  0.3799 -0.0287
    9CHTO   H58 3734   5.945   5.026   5.508 -1.0113 -0.2725  0.9364
    9CHTO    N6 3735   5.846   5.043   5.318  0.1092 -0.5140 -0.3503
    9CHTO   H45 3736   5.913   5.064   5.235  0.9451  0.4921  0.5759
    9CHTO   H46 3737   5.745   5.066   5.291  0.9650  2.3333 -1.2339
    9CHTO   C33 3738   5.770   5.134   5.542  0.2329 -0.0175 -0.3547
    9CHTO   H61 3739   5.696   5.191   5.484 -0.4289  0.2854  0.7736
    9CHTO   O18 3740   5.812   5.217   5.662 -0.3916 -0.2387 -0.2668
    9CHTO   C28 3741   5.866   5.348   5.624 -0.5153 -0.3980 -0.2261
    9CHTO   H56 3742   5.805   5.409   5.558  0.6110  0.1582 -0.7629
    9CHTO   C35 3743   5.883   5.427   5.755  0.3119  0.6540 -0.4315
    9CHTO   O24 3744   5.759   5.474   5.808  0.1624 -0.1854  0.0139
    9CHTO   H39 3745   5.702   5.406   5.839 -0.4446  0.7825  1.0265
    9CHTO    O9 3746   5.703   5.018   5.588  0.2237  0.3252  0.5912
    9CHTO   C13 3747   5.518   5.001   5.564 -0.3347 -0.2569 -0.6371
    9CHTO   H26 3748   5.501   5.009   5.455 -1.5634  0.2470 -0.4094
    9CHTO   C11 3749   5.438   5.114   5.642 -0.1085 -0.2536  0.0589
    9CHTO   H24 3750   5.397   5.166   5.554  0.3987 -2.1799 -1.3606
    9CHTO    O8 3751   5.524   5.199   5.718  0.3240  0.4137  0.5092
    9CHTO    H3 3752   5.590   5.145   5.757 -1.2453 -0.7942  1.5348
    9CHTO    C9 3753   5.322   5.055   5.724 -0.0747 -0.0898  0.4652
    9CHTO   H22 3754   5.257   5.005   5.651  0.0318  0.6506 -0.1398
    9CHTO    N2 3755   5.239   5.150   5.802  0.3544 -0.1645 -0.2064
    9CHTO   H10 3756   5.166   5.184   5.730 -0.5458 -1.4884  0.0510
    9CHTO   H11 3757   5.184   5.099   5.880 -0.5130  2.2145  0.7748
    9CHTO    C7 3758   5.386   4.946   5.823  0.3749  0.1646 -0.9347
    9CHTO   H20 3759   5.306   4.890   5.876  1.8906  0.6593  1.9506
    9CHTO    O4 3760   5.459   4.850   5.748 -0.2135  0.3280 -1.1444
    9CHTO   C14 3761   5.467   4.861   5.605 -0.1738 -0.3979  0.5056
    9CHTO   H27 3762   5.371   4.834   5.557  0.6121 -1.5791 -0.4333
    9CHTO   C18 3763   5.567   4.754   5.547  0.1812 -0.1766  0.3775
    9CHTO   O13 3764   5.524   4.620   5.572 -0.6465  0.4558 -0.2071
    9CHTO    H7 3765   5.539   4.577   5.490 -2.3691  0.2581 -0.4291
    9CHTO    O2 3766   5.492   5.019   5.924 -0.3653 -0.2890  0.8905
    9CHTO    C1 3767   5.539   4.931   6.025 -0.2043  0.3184 -0.5639
    9CHTO   H14 3768   5.546   4.827   5.987  1.7091  0.3021 -0.2381
    9CHTO    C2 3769   5.442   4.931   6.155 -0.6718  0.8467 -0.6300
    9CHTO   H15 3770   5.422   5.036   6.179 -1.5258  1.0860 -2.2700
    9CHTO    O6 3771   5.312   4.888   6.113  0.1877 -0.1694 -0.1761
    9CHTO    H1 3772   5.308   4.796   6.132  0.2124  0.0985  1.1270
    9CHTO    C3 3773   5.512   4.845   6.270 -1.1166 -0.4493 -0.5571
    9CHTO   H16 3774   5.519   4.736   6.257 -2.5278 -0.8046  1.4440
    9CHTO    N1 3775   5.432   4.854   6.398  0.7318 -0.6270 -1.0439
    9CHTO    H8 3776   5.327   4.833   6.381  0.7894  0.4807 -2.9628
    9CHTO    H9 3777   5.449   4.950   6.445 -1.2293  0.1308 -1.8194
    9CHTO    C4 3778   5.666   4.897   6.296  0.0609 -0.3139  0.2032
    9CHTO   H17 3779   5.657   4.993   6.347 -0.3273  0.4206 -1.2214
    9CHTO    O1 3780   5.740   4.901   6.170  0.2133  0.1595 -0.7478
    9CHTO    C5 3781   5.681   4.969   6.061  0.2678  0.2895  0.5534
    9CHTO   H18 3782   5.673   5.077   6.079  0.5147  0.0308  2.2545
    9CHTO   C16 3783   5.776   4.942   5.940 -0.0992 -0.5813  0.4942
    9CHTO   O11 3784   5.910   4.986   5.951  0.1763 -0.0117  0.4012
    9CHTO    H5 3785   5.920   5.059   5.893 -1.7809 -0.3979 -0.4410
    9CHTO    O3 3786   5.731   4.797   6.371 -0.1432 -0.3244 -0.0349
    9CHTO    C6 3787   5.845   4.833   6.457 -0.0302 -0.2729  1.0863
    9CHTO   H19 3788   5.892   4.928   6.429  0.6558 -0.2910  2.1191
    9CHTO    C8 3789   5.797   4.841   6.604 -0.3820 -0.8706 -0.6434
    9CHTO   H21 3790   5.739   4.753   6.632 -0.6545 -0.7416 -0.8025
    9CHTO    O7 3791   5.709   4.954   6.612  0.3693  0.2601  0.1749
    9CHTO    H2 3792   5.674   4.961   6.699  1.1963  2.8555  0.3321
    9CHTO   C12 3793   5.915   4.850   6.711  0.5383  0.7976 -0.7191
    9CHTO   H25 3794   5.952   4.955   6.722 -0.0107  1.0161 -0.9373
    9CHTO    N3 3795   5.852   4.826   6.846  0.3731 -0.1806 -0.1387
    9CHTO   H12 3796   5.799   4.732   6.849 -1.4986  0.6490 -3.7715
    9CHTO   H13 3797   5.930   4.824   6.921 -0.7425 -0.0310  1.0385
    9CHTO   C15 3798   6.036   4.758   6.668 -1.3012 -0.1779 -0.2666
    9CHTO   H28 3799   6.028   4.655   6.704  0.3124  0.5372  2.2405
    9CHTO   O10 3800   6.152   4.806   6.727 -0.4205  0.4578 -0.0850
    9CHTO    H4 3801   6.161   4.776   6.815  0.4164 -1.1146 -0.6840
    9CHTO    O5 3802   6.060   4.783   6.529 -0.0839  0.9782 -0.6032
    9CHTO   C10 3803   5.956   4.728   6.451  0.1506  0.2758  0.4376
    9CHTO   H23 3804   5.933   4.628   6.487  2.4204  0.0294  1.3172
    9CHTO   C17 3805   6.009   4.701   6.314  0.6542 -0.0017 -1.1224
    9CHTO   O12 3806   6.078   4.819   6.265  0.4071  0.5906  0.0607
    9CHTO    H6 3807   6.164   4.799   6.233  0.5685 -1.2094  1.5377
   10CHTO  H203 3808   6.025   7.084  -2.163 -1.6035  0.9300 -0.1074
   10CHTO   O82 3809   5.985   7.004  -2.135 -0.5456  0.5534  0.3599
   10CHTO  C123 3810   5.852   7.023  -2.093  0.0613  0.8314  0.0323
   10CHTO  H227 3811   5.813   7.118  -2.131 -0.2276  1.5378  2.0408
   10CHTO   O77 3812   5.785   6.907  -2.154 -0.0767  0.6199 -0.1434
   10CHTO  C118 3813   5.642   6.899  -2.135 -0.2380  0.1005  0.0701
   10CHTO  H222 3814   5.589   6.988  -2.172  1.0403 -0.1201 -2.3843
   10CHTO  C125 3815   5.600   6.773  -2.225 -0.2906  0.6492 -0.5158
   10CHTO   O84 3816   5.454   6.772  -2.228 -0.2949  0.7933 -0.4286
   10CHTO  H205 3817   5.419   6.789  -2.313 -1.0425 -0.6941 -0.4333
   10CHTO  C114 3818   5.615   6.893  -1.983  0.5027 -0.2352 -0.1527
   10CHTO  H218 3819   5.653   6.800  -1.941  3.4110  1.5512  1.2956
   10CHTO  C116 3820   5.683   7.012  -1.902  0.4149  0.1437 -0.1173
   10CHTO  H220 3821   5.640   7.108  -1.938  1.6988  0.1369 -1.7286
   10CHTO   O79 3822   5.647   6.992  -1.761 -0.1975  0.2943  0.1818
   10CHTO  H201 3823   5.666   6.903  -1.742  0.7779  0.2332 -1.0046
   10CHTO  C120 3824   5.840   7.016  -1.934  0.2308 -0.6535 -0.0738
   10CHTO  H224 3825   5.877   6.917  -1.901  1.1740 -0.4637 -0.5379
   10CHTO   N21 3826   5.910   7.116  -1.848  0.0204 -0.5882  0.2544
   10CHTO  H211 3827   5.846   7.200  -1.826  0.8756 -0.4926  2.4401
   10CHTO  H212 3828   5.967   7.076  -1.765  2.8916  0.2369 -1.2360
   10CHTO   O75 3829   5.476   6.891  -1.978  0.0293  0.7100 -0.4588
   10CHTO  C112 3830   5.406   6.783  -1.858 -0.6737  0.0249 -0.8665
   10CHTO  H216 3831   5.445   6.824  -1.764 -0.7509  2.4050 -1.8217
   10CHTO   O73 3832   5.455   6.651  -1.884 -0.4094  0.0173  0.1380
   10CHTO  C113 3833   5.423   6.558  -1.779 -0.0033 -0.1729  0.4792
   10CHTO  H217 3834   5.467   6.578  -1.680  1.1675 -1.8496  0.3081
   10CHTO  C124 3835   5.481   6.418  -1.821 -0.0296  0.0509  0.0284
   10CHTO   O83 3836   5.494   6.315  -1.721 -0.4094 -0.3233  0.2703
   10CHTO  H204 3837   5.408   6.280  -1.709 -0.3907 -0.1565  0.9055
   10CHTO  C109 3838   5.270   6.549  -1.769 -0.2247  0.0159 -0.5806
   10CHTO  H213 3839   5.236   6.497  -1.859 -0.8829 -2.8307  1.2400
   10CHTO  C110 3840   5.211   6.692  -1.753  0.1262 -0.3172  0.0610
   10CHTO  H214 3841   5.241   6.727  -1.655 -0.7427  3.0708 -0.8288
   10CHTO   O78 3842   5.068   6.685  -1.735  0.6150 -0.4786 -0.1665
   10CHTO  H200 3843   5.047   6.632  -1.661 -0.4951  1.4097  0.9101
   10CHTO  C111 3844   5.252   6.789  -1.863 -0.4857 -0.3152  0.5173
   10CHTO  H215 3845   5.212   6.758  -1.960 -0.1738 -2.1966  0.9613
   10CHTO   N19 3846   5.202   6.931  -1.844 -0.2859 -0.1030  0.3428
   10CHTO  H207 3847   5.104   6.939  -1.799 -1.1132 -1.5041 -1.1658
   10CHTO  H208 3848   5.224   6.987  -1.934 -0.7491 -0.2422  0.1421
   10CHTO   O74 3849   5.226   6.469  -1.652  0.1624 -0.8833 -0.6648
   10CHTO  C115 3850   5.142   6.343  -1.669 -0.3585  0.5813 -0.5553
   10CHTO  H219 3851   5.114   6.330  -1.774  1.7689 -0.6662 -1.0007
   10CHTO   O76 3852   5.220   6.214  -1.642  0.4915 -0.8168  0.3350
   10CHTO  C122 3853   5.241   6.178  -1.506  0.1816 -0.0410 -0.6206
   10CHTO  H226 3854   5.313   6.249  -1.465 -0.4640  0.8382 -0.9956
   10CHTO  C126 3855   5.312   6.040  -1.494 -0.3746  0.2228 -0.2299
   10CHTO   O85 3856   5.255   5.924  -1.554 -0.2108 -0.6859  0.1648
   10CHTO  H206 3857   5.196   5.951  -1.622  0.1270  0.2109  0.2154
   10CHTO  C121 3858   5.105   6.186  -1.422  0.2865  0.3915 -0.1866
   10CHTO  H225 3859   5.093   6.079  -1.391 -1.0576  1.4825  3.3663
   10CHTO   O81 3860   5.131   6.269  -1.304 -0.2984  0.8299  0.2640
   10CHTO  H202 3861   5.069   6.249  -1.237  0.0178 -1.3135 -0.0426
   10CHTO  C119 3862   4.979   6.227  -1.502  0.6204  1.2228 -1.0425
   10CHTO  H223 3863   4.958   6.147  -1.573 -1.9603  0.4173  0.5672
   10CHTO  C117 3864   5.010   6.365  -1.582 -0.0090  0.6483  0.2992
   10CHTO  H221 3865   5.016   6.453  -1.518 -1.7895  0.7604  0.3315
   10CHTO   N20 3866   4.887   6.390  -1.669 -0.6269  0.1960  0.1877
   10CHTO  H209 3867   4.885   6.332  -1.760 -0.1316 -0.2788  0.4835
   10CHTO  H210 3868   4.895   6.491  -1.706  0.4308 -0.3399 -1.0632
   10CHTO   O80 3869   4.856   6.221  -1.417 -0.0601  0.0964  0.1253
   10CHTO  C103 3870   4.769   6.088  -1.400  0.2902 -0.5281 -0.1251
   10CHTO  H190 3871   4.713   6.067  -1.491  1.5176 -0.8961 -0.8061
   10CHTO  C101 3872   4.842   5.960  -1.341  0.4067  0.7586 -0.0926
   10CHTO  H188 3873   4.882   5.984  -1.243  0.0580 -0.8611  0.4637
   10CHTO   O68 3874   4.947   5.906  -1.440  0.6224  0.7655 -0.0068
   10CHTO  H168 3875   4.947   5.812  -1.438 -1.6424  0.7252 -0.9857
   10CHTO   C99 3876   4.725   5.846  -1.316 -0.4372 -0.2810 -0.1392
   10CHTO  H186 3877   4.654   5.843  -1.402 -2.5677  0.2675  1.5688
   10CHTO   N17 3878   4.774   5.709  -1.279 -0.4447  0.3153  0.1044
   10CHTO  H174 3879   4.697   5.636  -1.300 -0.8341  0.7977 -0.1480
   10CHTO  H175 3880   4.806   5.697  -1.177  2.5848 -2.2489 -1.0428
   10CHTO   C97 3881   4.638   5.904  -1.200  0.9681 -0.6244  0.8688
   10CHTO  H184 3882   4.698   5.927  -1.111  0.7510  1.3091  0.5561
   10CHTO   O64 3883   4.574   6.027  -1.258  0.1518  0.0440  0.3038
   10CHTO  C104 3884   4.670   6.128  -1.289  0.3457  0.4213 -1.1882
   10CHTO  H191 3885   4.726   6.152  -1.198  0.3495  2.8433 -1.8143
   10CHTO  C108 3886   4.588   6.253  -1.328 -0.0851 -0.0179  0.9226
   10CHTO   O71 3887   4.532   6.310  -1.212  0.6483 -0.3179  0.3038
   10CHTO  H171 3888   4.597   6.365  -1.173  2.9318 -2.1995 -0.7009
   10CHTO   O62 3889   4.527   5.821  -1.166  0.2490 -0.1578  0.5393
   10CHTO   C91 3890   4.444   5.858  -1.057  0.4361  0.2756 -0.2305
   10CHTO  H178 3891   4.483   5.955  -1.026  3.8293 -0.4830 -1.8839
   10CHTO   C92 3892   4.449   5.759  -0.935  0.2494 -0.2651 -0.8958
   10CHTO  H179 3893   4.418   5.660  -0.972 -1.7759 -0.0997  0.2856
   10CHTO   O66 3894   4.583   5.751  -0.894 -0.2066  0.6301  0.0164
   10CHTO  H166 3895   4.627   5.681  -0.939  0.4611  0.9459  0.1616
   10CHTO   C93 3896   4.371   5.814  -0.811  0.2433 -0.2693  1.0042
   10CHTO  H180 3897   4.437   5.886  -0.761  0.7049 -0.4054  0.6052
   10CHTO   N16 3898   4.344   5.713  -0.708 -0.3209 -0.4699 -0.5763
   10CHTO  H172 3899   4.345   5.776  -0.620 -0.3094 -0.6308 -0.4614
   10CHTO  H173 3900   4.244   5.674  -0.717 -0.3241 -0.2897 -1.3564
   10CHTO   C94 3901   4.243   5.887  -0.855  0.2471 -0.1268 -0.2443
   10CHTO  H181 3902   4.156   5.821  -0.865 -0.1809  0.4375 -0.2744
   10CHTO   O61 3903   4.243   5.954  -0.982 -0.0535 -0.0065  0.0780
   10CHTO   C95 3904   4.295   5.879  -1.093  0.2202  0.2213  0.4195
   10CHTO  H182 3905   4.236   5.788  -1.105  1.0796 -0.6263  2.2722
   10CHTO  C106 3906   4.251   5.962  -1.226  0.3860  0.3304 -0.0421
   10CHTO   O69 3907   4.108   5.961  -1.258 -0.4707  0.3220 -0.3251
   10CHTO  H169 3908   4.090   5.879  -1.300  0.8304  0.1839 -0.6322
   10CHTO   O63 3909   4.208   5.991  -0.746 -0.1198 -0.3433 -0.3147
   10CHTO   C96 3910   4.268   6.137  -0.769  0.2582 -0.4835 -0.0902
   10CHTO  H183 3911   4.328   6.140  -0.860  0.9738  1.2991  0.4166
   10CHTO   C98 3912   4.368   6.160  -0.652 -0.5893  0.5243  0.2650
   10CHTO  H185 3913   4.434   6.074  -0.633  2.0433  2.1963 -0.9816
   10CHTO   O67 3914   4.455   6.257  -0.699  0.1737 -0.3544 -0.2143
   10CHTO  H167 3915   4.526   6.221  -0.747 -0.0749 -0.0044 -0.8517
   10CHTO  C102 3916   4.301   6.202  -0.518 -0.7114 -0.1342 -0.3881
   10CHTO  H189 3917   4.379   6.263  -0.471  1.2012 -1.9903 -1.0409
   10CHTO   N18 3918   4.261   6.101  -0.416 -0.1892 -0.3994  0.5347
   10CHTO  H176 3919   4.344   6.034  -0.399  0.1646  0.1049  0.8005
   10CHTO  H177 3920   4.176   6.042  -0.449 -0.3997  0.0717  0.2211
   10CHTO  C105 3921   4.186   6.305  -0.542  0.0183 -0.2075  0.1124
   10CHTO  H192 3922   4.093   6.258  -0.512 -0.2488  0.5031  0.4172
   10CHTO   O65 3923   4.180   6.354  -0.678  0.0727  0.0463  0.1446
   10CHTO  C100 3924   4.152   6.250  -0.777  0.9674  0.3134  0.2006
   10CHTO  H187 3925   4.057   6.200  -0.754  1.0184  0.6029  1.0314
   10CHTO  C107 3926   4.140   6.326  -0.913  0.0186 -0.0264 -0.5131
   10CHTO   O70 3927   4.096   6.240  -1.018 -0.4138 -0.5093  0.2499
   10CHTO  H170 3928   4.004   6.227  -1.027 -0.0513 -2.7482 -0.3337
   10CHTO   O57 3929   4.208   6.438  -0.435 -0.4319  0.0008  0.5778
   10CHTO   C85 3930   4.180   6.575  -0.456  0.1605  0.0183 -0.4379
   10CHTO  H157 3931   4.082   6.571  -0.508  0.2907  2.0759 -0.9090
   10CHTO   C83 3932   4.278   6.636  -0.555 -0.1347  0.5462 -0.3952
   10CHTO  H155 3933   4.274   6.583  -0.650  0.9586  0.3006 -0.3162
   10CHTO   O56 3934   4.416   6.621  -0.509  0.1564 -0.5774 -0.3191
   10CHTO  H135 3935   4.481   6.648  -0.571  0.7240 -1.2401 -0.0244
   10CHTO   C81 3936   4.237   6.783  -0.585 -0.1575  0.8285 -0.0126
   10CHTO  H153 3937   4.136   6.771  -0.625  0.8993 -0.2083 -2.4303
   10CHTO   N14 3938   4.315   6.841  -0.691 -0.6389  0.1302 -0.2880
   10CHTO  H141 3939   4.352   6.930  -0.644  1.9670 -0.9496 -0.2179
   10CHTO  H142 3940   4.253   6.868  -0.774 -0.4862 -1.4637 -0.9237
   10CHTO   C79 3941   4.224   6.871  -0.448 -0.4379 -0.0943 -0.3850
   10CHTO  H151 3942   4.173   6.962  -0.482  1.2806  0.8042 -0.6011
   10CHTO   O52 3943   4.138   6.804  -0.348  0.3950  0.3138 -0.7003
   10CHTO   C86 3944   4.173   6.663  -0.326  0.1036  1.0219 -0.5383
   10CHTO  H158 3945   4.267   6.655  -0.268 -0.9468 -2.0268  0.8552
   10CHTO   C90 3946   4.062   6.596  -0.235 -0.0261 -0.5001  0.1232
   10CHTO   O60 3947   4.097   6.603  -0.093 -0.2059 -1.0568  0.3067
   10CHTO  H138 3948   4.123   6.520  -0.058  0.4861 -1.2657 -0.7000
   10CHTO   O50 3949   4.360   6.915  -0.403  0.4769  0.2446 -0.3783
   10CHTO   C73 3950   4.493   6.899  -0.363  0.3396 -0.1654  0.4172
   10CHTO  H145 3951   4.550   6.838  -0.434 -0.5391  0.1492 -0.5764
   10CHTO   C74 3952   4.494   6.823  -0.220 -0.6160 -0.3137  0.0737
   10CHTO  H146 3953   4.449   6.727  -0.247  1.9080 -1.8408  1.0751
   10CHTO   O54 3954   4.626   6.777  -0.176  0.1658 -0.3930 -0.0784
   10CHTO  H133 3955   4.643   6.770  -0.084  2.0380  0.3374 -0.3352
   10CHTO   C75 3956   4.411   6.916  -0.119 -0.1218  0.4307 -0.3529
   10CHTO  H147 3957   4.313   6.933  -0.167  0.1991 -0.6463 -1.4198
   10CHTO   N13 3958   4.392   6.840   0.011  0.5027  0.2760 -0.7689
   10CHTO  H139 3959   4.486   6.813   0.058  0.0321 -0.9640 -0.5022
   10CHTO  H140 3960   4.333   6.753  -0.015 -1.7821  1.0015  1.7877
   10CHTO   C76 3961   4.496   7.053  -0.109 -0.3447  0.2036 -0.2388
   10CHTO  H148 3962   4.592   7.039  -0.058 -0.4779  1.6276  0.4215
   10CHTO   O49 3963   4.514   7.122  -0.242  0.4007 -0.4342 -0.1287
   10CHTO   C77 3964   4.567   7.040  -0.343 -0.8946 -0.2463  0.4471
   10CHTO  H149 3965   4.674   7.020  -0.336 -0.9895 -0.6438  0.8325
   10CHTO   C88 3966   4.556   7.121  -0.477 -0.0166  0.5633  0.0491
   10CHTO   O58 3967   4.621   7.242  -0.489  0.1833  0.1667  0.2513
   10CHTO  H136 3968   4.715   7.235  -0.492  0.1735 -1.6452  2.5871
   10CHTO   O51 3969   4.408   7.156  -0.025  0.4847  0.5773 -0.4813
   10CHTO   C78 3970   4.494   7.259   0.040  1.0328  0.0020  0.0387
   10CHTO  H150 3971   4.594   7.263  -0.008  0.1399 -1.1777 -1.9672
   10CHTO   C80 3972   4.506   7.237   0.190  0.3634  0.5565 -0.3665
   10CHTO  H152 3973   4.404   7.218   0.230 -0.6186  0.3719 -2.8107
   10CHTO   O55 3974   4.559   7.104   0.211  0.0151  0.1554  0.1056
   10CHTO  H134 3975   4.609   7.083   0.288  1.2902 -1.1426 -1.0637
   10CHTO   C84 3976   4.589   7.353   0.264 -0.3494 -0.2680  1.0318
   10CHTO  H156 3977   4.688   7.353   0.220 -1.2347 -0.8457 -1.0197
   10CHTO   N15 3978   4.598   7.326   0.410 -0.3718  0.2969 -0.2209
   10CHTO  H143 3979   4.662   7.244   0.435  0.2993  0.8292 -0.1555
   10CHTO  H144 3980   4.623   7.410   0.471  1.0728 -0.2868 -0.0014
   10CHTO   C87 3981   4.507   7.481   0.226 -0.5285  0.1654  0.1184
   10CHTO  H159 3982   4.415   7.496   0.281 -2.5245  0.1168 -3.0860
   10CHTO   O53 3983   4.492   7.493   0.087 -0.6217  0.7901 -0.1376
   10CHTO   C82 3984   4.423   7.391   0.018  0.1034 -0.1484  0.0408
   10CHTO  H154 3985   4.322   7.390   0.059 -0.2504 -0.7602 -0.8354
   10CHTO   C89 3986   4.407   7.427  -0.131 -0.1050 -0.1809 -0.0491
   10CHTO   O59 3987   4.527   7.419  -0.209 -0.0699  0.1958  0.3748
   10CHTO  H137 3988   4.544   7.509  -0.228  1.1110  0.1413  1.0941
   10CHTO   O45 3989   4.601   7.611   0.271  0.2099  0.3893  0.0291
   10CHTO   C67 3990   4.524   7.727   0.312  0.3195  0.1334 -0.0868
   10CHTO  H124 3991   4.425   7.721   0.267  0.2970 -0.7402  0.0707
   10CHTO   C65 3992   4.517   7.740   0.466 -0.0375 -0.3316 -0.5735
   10CHTO  H122 3993   4.476   7.652   0.515  2.0315  0.1441  2.1382
   10CHTO   O44 3994   4.428   7.846   0.511  0.0668 -0.5361 -0.4858
   10CHTO  H102 3995   4.406   7.902   0.439  0.2825  0.1813 -0.0000
   10CHTO   C63 3996   4.660   7.744   0.530  0.3065 -0.0796  0.5179
   10CHTO  H120 3997   4.717   7.663   0.484 -1.7014  0.0934 -2.4580
   10CHTO   N11 3998   4.675   7.736   0.678 -0.3182  0.6734  0.7712
   10CHTO  H108 3999   4.780   7.757   0.683 -0.4410  1.4911  0.0185
   10CHTO  H109 4000   4.621   7.820   0.715 -0.4851  0.7319  0.3972
   10CHTO   C61 4001   4.733   7.874   0.473 -0.4263 -0.7129 -0.0549
   10CHTO  H118 4002   4.841   7.859   0.484  0.0424  1.8504 -0.8084
   10CHTO   O40 4003   4.715   7.892   0.331  0.3301  0.4100  0.1281
   10CHTO   C68 4004   4.597   7.853   0.255 -0.5047 -0.2697 -0.1486
   10CHTO  H125 4005   4.634   7.825   0.154 -2.6096 -0.2125 -0.9634
   10CHTO   C72 4006   4.515   7.984   0.233  0.1076  0.3111  0.8377
   10CHTO   O48 4007   4.406   7.950   0.159  0.0156  0.7056  0.2571
   10CHTO  H105 4008   4.421   7.929   0.069  2.9866 -0.7743  1.0500
   10CHTO   O38 4009   4.685   8.000   0.535 -0.3387  0.7622 -0.0068
   10CHTO   C55 4010   4.775   8.112   0.536 -0.0545 -0.1106 -0.2425
   10CHTO  H112 4011   4.856   8.098   0.462 -2.0376 -0.7962 -2.3442
   10CHTO   C56 4012   4.835   8.117   0.687 -0.2697 -0.0592  0.7919
   10CHTO  H113 4013   4.760   8.138   0.764 -0.1480 -0.1755  0.9417
   10CHTO   O42 4014   4.899   7.990   0.721  0.2972  0.0440  0.5103
   10CHTO  H100 4015   4.859   7.961   0.800 -1.4437  0.2087 -0.2769
   10CHTO   C57 4016   4.940   8.234   0.701  1.0801 -0.5112 -0.2329
   10CHTO  H114 4017   5.023   8.218   0.633  0.3693 -0.4132 -1.1260
   10CHTO   N10 4018   5.004   8.252   0.837  0.0771 -0.2787 -0.3860
   10CHTO  H106 4019   4.939   8.306   0.904  0.8021 -0.7864  0.7324
   10CHTO  H107 4020   5.036   8.158   0.878 -0.6126 -0.4923 -0.3361
   10CHTO   C58 4021   4.881   8.368   0.659 -0.3926 -0.1027  0.5376
   10CHTO  H115 4022   4.802   8.405   0.728 -0.3597 -0.5039  0.7916
   10CHTO   O37 4023   4.831   8.354   0.525  0.1375 -0.6065  0.1440
   10CHTO   C59 4024   4.718   8.256   0.507 -0.6781  0.0120  0.0758
   10CHTO  H116 4025   4.636   8.286   0.572 -1.2475  0.3169 -0.7711
   10CHTO   C70 4026   4.687   8.271   0.355  0.4763 -0.2948  0.4824
   10CHTO   O46 4027   4.648   8.403   0.311  0.1633  0.1538  0.3210
   10CHTO  H103 4028   4.686   8.463   0.373 -0.8961 -0.9799  2.1332
   10CHTO   O39 4029   4.997   8.481   0.635 -0.0620 -0.0773  0.3607
   10CHTO   C60 4030   4.973   8.622   0.674 -0.4373 -0.0155 -0.0658
   10CHTO  H117 4031   4.874   8.658   0.648 -1.6306 -3.2106 -0.1609
   10CHTO   C62 4032   4.974   8.624   0.833 -0.5505 -0.4366  0.4620
   10CHTO  H119 4033   4.904   8.545   0.868 -2.4110  1.0229  0.0821
   10CHTO   O43 4034   5.104   8.585   0.885  0.4930  0.3429  0.1898
   10CHTO  H101 4035   5.104   8.549   0.972  1.0680  1.0367  0.4812
   10CHTO   C66 4036   4.931   8.771   0.888 -0.5353 -0.0833  0.6356
   10CHTO  H123 4037   4.831   8.787   0.848 -0.3824 -1.0907 -0.1705
   10CHTO   N12 4038   4.920   8.781   1.035  0.1671  0.8150 -0.3306
   10CHTO  H110 4039   5.008   8.755   1.091  0.9515 -0.3605 -2.0927
   10CHTO  H111 4040   4.837   8.716   1.061  0.8011  0.1357 -0.0074
   10CHTO   C69 4041   5.027   8.878   0.832 -0.0385 -0.5158  0.2729
   10CHTO  H126 4042   5.130   8.868   0.873  0.1884  0.3352 -0.0703
   10CHTO   O41 4043   5.033   8.873   0.681  0.6241 -0.1459  0.0869
   10CHTO   C64 4044   5.074   8.725   0.618 -0.2868 -0.1856 -0.6845
   10CHTO  H121 4045   5.178   8.702   0.649 -0.3870 -1.6206 -1.4087
   10CHTO   C71 4046   5.064   8.712   0.463 -0.3760 -0.2921 -0.2321
   10CHTO   O47 4047   5.133   8.809   0.392 -0.2629 -0.4418 -0.2728
   10CHTO  H104 4048   5.217   8.783   0.358 -0.1802 -2.3706  1.2973
   10CHTO   O34 4049   4.984   9.015   0.865  0.0632  0.0327 -0.3461
   10CHTO   C49 4050   5.084   9.149   0.914  0.2051  0.1026  0.0726
   10CHTO   H91 4051   5.174   9.100   0.952  0.4986 -1.4252 -2.4734
   10CHTO   C47 4052   4.998   9.228   1.018  0.8030  0.0888  0.1462
   10CHTO   H89 4053   5.058   9.312   1.060 -1.1114  2.1735 -1.1463
   10CHTO   O33 4054   4.960   9.137   1.116  0.4280  0.0930 -0.3880
   10CHTO   H70 4055   5.023   9.147   1.184 -1.0808  2.9456  0.6412
   10CHTO   C45 4056   4.872   9.293   0.940 -0.2234 -0.3397 -0.5223
   10CHTO   H87 4057   4.814   9.217   0.885  2.3890 -2.8033 -0.0118
   10CHTO    N8 4058   4.784   9.367   1.037  0.5029  0.0821 -0.5136
   10CHTO   H75 4059   4.684   9.330   1.018  0.3806  0.0573  0.1834
   10CHTO   H76 4060   4.785   9.475   1.028 -1.2092 -0.1358 -4.6435
   10CHTO   C43 4061   4.926   9.385   0.822 -0.2788 -0.0026  0.1067
   10CHTO   H85 4062   4.839   9.427   0.772 -0.7339 -2.3282 -1.1345
   10CHTO   O29 4063   4.998   9.301   0.729  0.0742 -0.4584 -0.4966
   10CHTO   C50 4064   5.113   9.234   0.791 -0.4120  0.2630  0.1402
   10CHTO   H92 4065   5.157   9.170   0.713  1.7222  1.6353  0.1637
   10CHTO   C54 4066   5.239   9.320   0.808  0.3007  0.7147  0.0730
   10CHTO   O36 4067   5.275   9.364   0.675 -0.2760 -0.2461  0.1366
   10CHTO   H72 4068   5.276   9.458   0.683 -0.5917 -0.1689 -0.6717
   10CHTO   O27 4069   5.005   9.499   0.867  0.2406 -0.2355  0.2426
   10CHTO   C37 4070   5.054   9.605   0.785 -0.1546 -0.4429  0.8951
   10CHTO   H79 4071   5.160   9.591   0.757 -0.5414 -2.2289  0.2395
   10CHTO   C38 4072   4.972   9.622   0.660  0.1159  0.1188 -0.2207
   10CHTO   H80 4073   4.865   9.623   0.688 -0.6217  2.2800 -2.8928
   10CHTO   O31 4074   5.005   9.513   0.567  0.2756 -0.4938 -0.1935
   10CHTO   H68 4075   5.096   9.494   0.554 -0.1542 -2.8985  0.0483
   10CHTO   C39 4076   4.994   9.758   0.585 -0.4079 -0.1003  0.6082
   10CHTO   H81 4077   5.084   9.745   0.525 -0.5862  0.9991  0.0848
   10CHTO    N7 4078   4.885   9.797   0.485 -0.2031 -0.0292 -0.2579
   10CHTO   H73 4079   4.808   9.861   0.525  0.0274 -1.8133  3.2420
   10CHTO   H74 4080   4.930   9.832   0.394  1.5677  2.2249  1.4072
   10CHTO   C40 4081   5.019   9.884   0.676  0.1529  0.4930  1.1385
   10CHTO   H82 4082   4.922   9.930   0.698  0.3692  2.7060 -2.1965
   10CHTO   O26 4083   5.094   9.855   0.795  0.1861  0.0876 -0.1672
   10CHTO   C41 4084   5.041   9.737   0.874  0.0025 -0.0527  0.4327
   10CHTO   H83 4085   4.935   9.750   0.898 -0.5865 -1.1722 -1.4549
   10CHTO   C52 4086   5.124   9.728   1.004  0.0481  0.4604  0.3745
   10CHTO   O35 4087   5.142   9.852   1.075 -0.4591  0.0429  0.0398
   10CHTO   H71 4088   5.234   9.846   1.086 -0.5419  0.6268  1.0690
   10CHTO   O28 4089   5.101   9.979   0.609  0.4467 -0.3016  0.1395
   10CHTO   C42 4090   5.082  10.126   0.590 -0.2559 -0.1547  0.2384
   10CHTO   H84 4091   4.987  10.142   0.640  0.0280 -0.0334  0.7388
   10CHTO   C44 4092   5.060  10.177   0.447 -0.2669  0.1638  1.1685
   10CHTO   H86 4093   5.148  10.156   0.386 -1.9242 -0.8226 -0.9819
   10CHTO   O32 4094   4.959  10.096   0.393 -0.0203  0.0179  0.1690
   10CHTO   H69 4095   4.939  10.122   0.306 -0.6081 -0.1508  0.2452
   10CHTO   C48 4096   5.034  10.331   0.434 -0.9242 -0.6963  0.6186
   10CHTO   H90 4097   4.941  10.343   0.489 -2.9958  0.3605 -2.9498
   10CHTO    N9 4098   5.001  10.377   0.293  0.1744 -0.3240  0.1100
   10CHTO   H77 4099   5.070  10.453   0.259  0.3303 -1.0852 -1.3510
   10CHTO   H78 4100   4.994  10.298   0.219 -1.2014 -0.1823  0.0830
   10CHTO   C51 4101   5.159  10.403   0.512 -0.0769  0.3688  0.6775
   10CHTO   H93 4102   5.248  10.377   0.454 -1.4821  0.4694 -1.5374
   10CHTO   O30 4103   5.166  10.355   0.644  0.1798 -0.5561  0.0249
   10CHTO   C46 4104   5.190  10.212   0.660  0.2116  0.3205  0.2628
   10CHTO   H88 4105   5.283  10.189   0.607  0.4899 -0.1693  0.9676
   10CHTO   C53 4106   5.194  10.181   0.811 -0.4483 -0.3215 -0.4796
   10CHTO   O72 4107   5.295  10.262   0.867  0.0809 -0.1617  0.1241
   10CHTO  H199 4108   5.275  10.271   0.958  1.4705 -2.8114  0.7471
   10CHTO   O22 4109   5.143  10.547   0.521 -0.1907 -0.0128  0.4142
   10CHTO   C31 4110   5.263  10.622   0.568  0.0743  0.2666 -0.4168
   10CHTO   H59 4111   5.335  10.546   0.605  0.4559  0.8084 -0.0495
   10CHTO   C29 4112   5.336  10.699   0.455 -0.5739  0.2694  0.5038
   10CHTO   H57 4113   5.265  10.767   0.407 -2.2866 -0.4994  1.8607
   10CHTO   O21 4114   5.383  10.606   0.355 -0.5157  0.2223 -0.2663
   10CHTO   H37 4115   5.307  10.567   0.318 -1.3165 -0.0556  1.5872
   10CHTO   C27 4116   5.451  10.789   0.507 -0.5007  0.4462 -0.2152
   10CHTO   H55 4117   5.530  10.732   0.558 -0.2248  1.4451  0.5151
   10CHTO    N5 4118   5.514  10.881   0.407 -0.1414  0.1303 -0.1280
   10CHTO   H43 4119   5.439  10.941   0.358 -2.8109 -0.5335  2.9786
   10CHTO   H44 4120   5.573  10.820   0.339  0.7648 -0.8009  1.4570
   10CHTO   C25 4121   5.388  10.878   0.620 -0.5899  0.0067 -0.1657
   10CHTO   H53 4122   5.302  10.938   0.586 -0.7077  0.3448  0.6907
   10CHTO   O17 4123   5.346  10.790   0.731  0.3624 -0.2319 -0.4981
   10CHTO   C32 4124   5.236  10.713   0.693  0.0641 -0.0460  0.2832
   10CHTO   H60 4125   5.164  10.789   0.665  0.9311  0.8607  0.4717
   10CHTO   C36 4126   5.159  10.646   0.802 -0.9637  0.5308  0.2848
   10CHTO   O25 4127   5.113  10.725   0.908  0.4198 -0.0787 -0.5615
   10CHTO   H40 4128   5.184  10.754   0.962  1.9058 -0.7048 -2.1325
   10CHTO   O15 4129   5.508  10.973   0.686 -0.5497  0.2394  0.1433
   10CHTO   C19 4130   5.465  11.110   0.707  0.0109 -1.1025 -0.1372
   10CHTO   H47 4131   5.407  11.142   0.619  0.1744 -0.4072  0.0051
   10CHTO   C20 4132   5.363  11.131   0.831 -0.5378 -0.2395  0.5915
   10CHTO   H48 4133   5.397  11.082   0.924 -1.3074 -0.8071  0.5793
   10CHTO   O19 4134   5.247  11.056   0.799 -0.1179 -0.4538 -0.2161
   10CHTO   H35 4135   5.273  10.979   0.754 -0.0926  0.3818 -1.6605
   10CHTO   C21 4136   5.331  11.291   0.851  0.4312 -0.3751 -0.1258
   10CHTO   H49 4137   5.289  11.335   0.760  0.2201 -1.9741 -0.8185
   10CHTO    N4 4138   5.243  11.318   0.965  0.2931  0.5161 -0.2027
   10CHTO   H41 4139   5.145  11.340   0.925  0.2125 -0.8887 -0.8373
   10CHTO   H42 4140   5.278  11.415   0.997 -1.7854  1.4456 -0.7225
   10CHTO   C22 4141   5.469  11.366   0.860  0.0284 -0.4134 -0.3290
   10CHTO   H50 4142   5.529  11.325   0.941  1.5963 -2.1218 -2.3013
   10CHTO   O14 4143   5.540  11.349   0.737 -0.7037 -0.0182  0.4777
   10CHTO   C23 4144   5.586  11.213   0.731 -0.3345 -0.7272  0.0864
   10CHTO   H51 4145   5.644  11.189   0.821  0.5201 -1.2185 -0.5946
   10CHTO   C34 4146   5.698  11.213   0.625  0.4870  0.3513 -0.0984
   10CHTO   O23 4147   5.638  11.221   0.496 -0.1871  0.4791 -0.9033
   10CHTO   H38 4148   5.598  11.141   0.466  0.3443 -0.4805  0.8959
   10CHTO   O16 4149   5.456  11.510   0.877  0.3338 -0.0760 -0.4316
   10CHTO   C24 4150   5.572  11.579   0.953  0.6066 -0.0178  0.0029
   10CHTO   H52 4151   5.665  11.522   0.954  1.3328  1.1620  1.8785
   10CHTO   C26 4152   5.528  11.611   1.102 -0.2404  0.5634  0.2696
   10CHTO   H54 4153   5.428  11.659   1.097 -0.9412 -1.0721 -1.4296
   10CHTO   O20 4154   5.517  11.485   1.172  0.1565 -0.3197  0.1296
   10CHTO   H36 4155   5.476  11.511   1.253  0.5482 -1.6779  0.7729
   10CHTO   C30 4156   5.623  11.718   1.177 -0.0009  0.6513  0.0349
   10CHTO   H58 4157   5.718  11.663   1.185  1.2543  2.3252 -2.7014
   10CHTO    N6 4158   5.573  11.756   1.309 -0.0996 -0.3930  0.1539
   10CHTO   H45 4159   5.645  11.802   1.376 -0.1300  0.3008 -0.2934
   10CHTO   H46 4160   5.477  11.804   1.312 -0.6106 -1.0970 -3.2647
   10CHTO   C33 4161   5.652  11.836   1.080  0.3029  0.2168 -0.0450
   10CHTO   H61 4162   5.562  11.899   1.077 -0.2131 -0.5631 -2.2443
   10CHTO   O18 4163   5.687  11.795   0.949 -0.2320  0.8166  0.3597
   10CHTO   C28 4164   5.598  11.706   0.875 -0.7183  0.5864  0.2169
   10CHTO   H56 4165   5.509  11.766   0.861 -0.0534  1.1823 -1.6572
   10CHTO   C35 4166   5.669  11.683   0.739  0.6672  0.1172  0.1453
   10CHTO   O24 4167   5.576  11.628   0.648  0.2169 -0.3079  0.0878
   10CHTO   H39 4168   5.548  11.540   0.665  1.5516 -0.9311 -0.8379
   10CHTO    O9 4169   5.752  11.919   1.137  0.2253 -0.2897 -0.3031
   10CHTO   C13 4170   5.713  12.063   1.191 -0.3839 -0.3131  0.1326
   10CHTO   H26 4171   5.621  12.054   1.253 -0.2927  1.3892  0.5361
   10CHTO   C11 4172   5.692  12.162   1.070 -0.2850 -0.0074  0.5708
   10CHTO   H24 4173   5.600  12.128   1.019 -0.5485  2.4903 -0.6619
   10CHTO    O8 4174   5.806  12.166   0.984  0.0430  0.6828 -0.3007
   10CHTO    H3 4175   5.808  12.089   0.930  1.4279  1.5170 -1.4752
   10CHTO    C9 4176   5.662  12.300   1.141 -0.7400  0.7505  0.1305
   10CHTO   H22 4177   5.573  12.283   1.204 -0.1708  0.0399  0.7517
   10CHTO    N2 4178   5.625  12.400   1.034  0.3050 -0.5264  0.2195
   10CHTO   H10 4179   5.570  12.348   0.956  1.8923 -2.4895  0.3866
   10CHTO   H11 4180   5.568  12.481   1.077  0.4583 -1.0931  1.5183
   10CHTO    C7 4181   5.780  12.340   1.233  0.0006 -0.3875 -0.0159
   10CHTO   H20 4182   5.729  12.369   1.327 -2.4790  0.1083 -1.4593
   10CHTO    O4 4183   5.883  12.239   1.260  0.3416  0.3508  0.2873
   10CHTO   C14 4184   5.828  12.107   1.294  0.7690 -0.1094  0.1860
   10CHTO   H27 4185   5.779  12.115   1.392 -0.8155 -0.8806 -0.5308
   10CHTO   C18 4186   5.937  11.990   1.306 -0.6830 -0.1428 -0.0050
   10CHTO   O13 4187   6.049  12.029   1.387 -0.2677 -0.4476  0.2362
   10CHTO    H7 4188   6.087  12.113   1.367 -0.4603 -0.8111 -1.7615
   10CHTO    O2 4189   5.858  12.482   1.181 -0.6725 -0.0301  0.3041
   10CHTO    C1 4190   5.881  12.582   1.282 -0.0924 -0.3388  0.8675
   10CHTO   H14 4191   5.853  12.547   1.384  0.9773  1.5439  1.8438
   10CHTO    C2 4192   5.801  12.713   1.256 -0.4651  0.2665 -0.1270
   10CHTO   H15 4193   5.841  12.740   1.157 -2.7933  2.1477 -0.5836
   10CHTO    O6 4194   5.667  12.676   1.235 -0.4385 -0.0134 -0.2382
   10CHTO    H1 4195   5.636  12.684   1.147 -1.8260  1.2024  0.3249
   10CHTO    C3 4196   5.831  12.825   1.368  0.1666 -0.3369  0.6903
   10CHTO   H16 4197   5.790  12.788   1.463 -1.6134  1.9275  0.8341
   10CHTO    N1 4198   5.769  12.951   1.318  0.0246  0.2729  0.0718
   10CHTO    H8 4199   5.720  12.995   1.404  0.2962 -2.8237  1.8892
   10CHTO    H9 4200   5.693  12.927   1.245  0.9647 -0.6366 -0.6214
   10CHTO    C4 4201   5.984  12.841   1.398 -0.3493 -0.1416  0.4742
   10CHTO   H17 4202   6.033  12.901   1.321 -0.8489 -0.4763 -0.1178
   10CHTO    O1 4203   6.048  12.717   1.413  0.0796  0.3865 -0.7243
   10CHTO    C5 4204   6.031  12.629   1.301 -0.7282  0.5844 -0.2727
   10CHTO   H18 4205   6.066  12.679   1.210  0.1210  2.8091  1.2528
   10CHTO   C16 4206   6.130  12.512   1.329  0.5137 -0.7652  0.0081
   10CHTO   O11 4207   6.142  12.436   1.213  0.0558  0.6671  0.0042
   10CHTO    H5 4208   6.156  12.489   1.137 -0.6398 -0.8263 -1.1825
   10CHTO    O3 4209   5.997  12.889   1.530  0.2815 -0.1062 -0.1397
   10CHTO    C6 4210   6.119  12.957   1.559  0.0800  0.5083 -1.0053
   10CHTO   H19 4211   6.196  12.959   1.482 -0.2540  0.4950 -1.3379
   10CHTO    C8 4212   6.092  13.102   1.599 -0.1177  0.0656 -0.2023
   10CHTO   H21 4213   6.033  13.098   1.690  0.1604 -2.2358 -0.0883
   10CHTO    O7 4214   6.019  13.168   1.498  0.6126 -0.1175  0.0162
   10CHTO    H2 4215   6.053  13.151   1.412 -0.6037 -0.3658 -0.4189
   10CHTO   C12 4216   6.231  13.174   1.636  0.5991 -0.0048 -0.0227
   10CHTO   H25 4217   6.286  13.172   1.539 -0.7308  0.3125 -0.7839
   10CHTO    N3 4218   6.212  13.317   1.675 -0.2008 -0.3203 -0.1516
   10CHTO   H12 4219   6.300  13.364   1.717 -1.1629  0.5650  0.9103
   10CHTO   H13 4220   6.186  13.369   1.584  3.3575  0.1000 -0.9985
   10CHTO   C15 4221   6.310  13.089   1.743 -0.0618 -0.1873  0.1288
   10CHTO   H28 4222   6.271  13.101   1.844 -1.7163 -0.9355 -0.4106
   10CHTO   O10 4223   6.463  13.132   1.729  0.2526 -0.9356  0.0760
   10CHTO    H4 4224   6.468  13.226   1.731  0.7168 -0.9413 -0.8143
   10CHTO    O5 4225   6.313  12.953   1.713  0.3435  0.2092  0.6356
   10CHTO   C10 4226   6.183  12.886   1.686  0.9138 -0.3720 -0.1254
   10CHTO   H23 4227   6.119  12.903   1.772  2.5134 -1.5911  1.3441
   10CHTO   C17 4228   6.210  12.738   1.671  0.1569  0.3684  0.2840
   10CHTO   O12 4229   6.303  12.709   1.561  0.2833 -0.0459  1.0169
   10CHTO    H6 4230   6.391  12.691   1.588  0.7951  1.4799  0.4119
   11CHTO  H203 4231   7.500   6.652   2.423  0.7550 -3.6515  1.6758
   11CHTO   O82 4232   7.472   6.599   2.350 -0.1995 -1.1488  0.1567
   11CHTO  C123 4233   7.331   6.596   2.352  0.8818  0.1577  0.7448
   11CHTO  H227 4234   7.286   6.695   2.335 -0.4433 -0.5281  0.1439
   11CHTO   O77 4235   7.307   6.504   2.246  0.0438 -0.5698 -0.1116
   11CHTO  C118 4236   7.171   6.493   2.195 -0.1460  0.3922  0.6133
   11CHTO  H222 4237   7.151   6.592   2.153 -1.5208 -0.3645 -0.5796
   11CHTO  C125 4238   7.183   6.387   2.076 -0.3669 -0.4871 -0.5564
   11CHTO   O84 4239   7.242   6.445   1.961 -0.3577  0.5046 -0.1475
   11CHTO  H205 4240   7.335   6.459   1.971 -0.2606 -0.4418  0.3242
   11CHTO  C114 4241   7.070   6.455   2.311 -0.6370  0.0949 -0.4586
   11CHTO  H218 4242   7.066   6.347   2.323 -0.4596  0.0290 -0.9956
   11CHTO  C116 4243   7.102   6.517   2.450 -0.3966 -0.7057  0.1310
   11CHTO  H220 4244   7.049   6.614   2.448  0.7751 -0.0844 -1.0098
   11CHTO   O79 4245   7.038   6.450   2.555  0.3237  0.2980 -0.2710
   11CHTO  H201 4246   7.101   6.420   2.618 -0.2639 -0.4177 -0.0240
   11CHTO  C120 4247   7.258   6.536   2.482 -0.0425 -0.1180 -0.1157
   11CHTO  H224 4248   7.306   6.438   2.501  1.2745  0.5766  0.1984
   11CHTO   N21 4249   7.279   6.620   2.603  0.4620  0.6882 -0.9152
   11CHTO  H211 4250   7.201   6.694   2.617  1.0802  0.9517  1.3735
   11CHTO  H212 4251   7.297   6.563   2.693 -0.9050  1.2540 -0.2687
   11CHTO   O75 4252   6.948   6.507   2.260 -0.1601  0.3238 -0.1220
   11CHTO  C112 4253   6.831   6.381   2.240  0.0219  0.2166 -0.0172
   11CHTO  H216 4254   6.850   6.297   2.308 -2.4531 -0.8729 -0.6579
   11CHTO   O73 4255   6.845   6.340   2.104  0.2064 -0.0088 -0.1234
   11CHTO  C113 4256   6.760   6.234   2.068  0.0611 -0.9696  0.8605
   11CHTO  H217 4257   6.779   6.149   2.137 -0.7042 -0.9709  1.0672
   11CHTO  C124 4258   6.797   6.193   1.924 -0.5137 -0.1875  0.4712
   11CHTO   O83 4259   6.737   6.069   1.882  0.3764  0.6009 -0.2511
   11CHTO  H204 4260   6.800   6.009   1.847  1.5704  1.7381 -0.1170
   11CHTO  C109 4261   6.608   6.287   2.075 -0.2867  0.5162 -0.5997
   11CHTO  H213 4262   6.599   6.365   1.998 -1.0281 -1.9494 -3.0996
   11CHTO  C110 4263   6.581   6.354   2.218 -0.2171  0.1252  0.0235
   11CHTO  H214 4264   6.554   6.276   2.289 -0.6382 -0.6419 -0.9586
   11CHTO   O78 4265   6.466   6.438   2.214 -0.4629  0.4012  0.5358
   11CHTO  H200 4266   6.433   6.433   2.126 -0.0002  1.8121  0.2701
   11CHTO  C111 4267   6.695   6.445   2.276 -0.0581  0.1439 -1.3688
   11CHTO  H215 4268   6.692   6.540   2.220 -1.0024  0.2925 -1.0640
   11CHTO   N19 4269   6.690   6.472   2.424 -0.6882  0.4028  0.3848
   11CHTO  H207 4270   6.586   6.480   2.454 -0.5417 -0.5014  1.1472
   11CHTO  H208 4271   6.720   6.385   2.479  2.0646  1.9193  1.3984
   11CHTO   O74 4272   6.505   6.182   2.047 -0.1173 -0.4195  0.1247
   11CHTO  C115 4273   6.444   6.182   1.913  0.3788  1.0513 -0.3046
   11CHTO  H219 4274   6.518   6.199   1.835  0.3726 -1.0367 -0.7906
   11CHTO   O76 4275   6.401   6.032   1.873  0.0090 -0.3128  0.0652
   11CHTO  C122 4276   6.302   5.980   1.960 -0.3372 -0.2288 -0.2559
   11CHTO  H226 4277   6.354   5.961   2.053  3.1969  2.5237 -1.5662
   11CHTO  C126 4278   6.245   5.846   1.902 -0.1279  0.2958  0.1463
   11CHTO   O85 4279   6.349   5.739   1.890  0.0481  0.0852 -0.0920
   11CHTO  H206 4280   6.417   5.775   1.836 -0.4280  1.8127  0.4326
   11CHTO  C121 4281   6.179   6.079   1.987 -0.1269 -0.0206 -0.5611
   11CHTO  H225 4282   6.087   6.024   1.959 -1.4976  2.3207 -0.8677
   11CHTO   O81 4283   6.169   6.109   2.123 -0.3459  0.1189  0.1508
   11CHTO  H202 4284   6.249   6.095   2.169 -0.5496 -0.0934  0.4457
   11CHTO  C119 4285   6.189   6.204   1.899 -0.0792 -1.0392  0.0735
   11CHTO  H223 4286   6.198   6.169   1.796 -0.5174 -0.5130 -0.1479
   11CHTO  C117 4287   6.323   6.284   1.915  0.3758  0.1990  0.0892
   11CHTO  H221 4288   6.340   6.339   2.008  1.7334  1.6415 -0.9815
   11CHTO   N20 4289   6.330   6.390   1.805  0.2997  0.2901 -0.5445
   11CHTO  H209 4290   6.434   6.413   1.788  0.1931 -0.3755 -2.2023
   11CHTO  H210 4291   6.282   6.483   1.829  0.6491  0.1825  0.6178
   11CHTO   O80 4292   6.057   6.292   1.884 -0.5503 -0.2540  0.0517
   11CHTO  C103 4293   5.985   6.352   2.011  0.0783 -0.2002 -1.2540
   11CHTO  H190 4294   5.965   6.269   2.078  0.4860 -0.2305 -1.1654
   11CHTO  C101 4295   6.064   6.465   2.089  0.0979  0.6893  0.5184
   11CHTO  H188 4296   6.113   6.536   2.021  0.8191  1.2826  1.6460
   11CHTO   O68 4297   6.176   6.394   2.171  0.1674 -0.3109 -0.5100
   11CHTO  H168 4298   6.249   6.381   2.113 -0.6570 -0.0550 -1.6187
   11CHTO   C99 4299   5.960   6.552   2.169  0.1893  0.2881 -0.0181
   11CHTO  H186 4300   5.924   6.485   2.251  4.2461  0.1610  1.7737
   11CHTO   N17 4301   6.030   6.658   2.242 -0.5999 -0.2497  0.2052
   11CHTO  H174 4302   6.132   6.624   2.260 -0.4587  0.3818  0.6267
   11CHTO  H175 4303   5.978   6.674   2.336  3.6164 -1.9890  2.9999
   11CHTO   C97 4304   5.831   6.595   2.097 -1.0741 -0.4569  0.1409
   11CHTO  H184 4305   5.859   6.661   2.014  1.2400 -0.1557  1.1189
   11CHTO   O64 4306   5.767   6.476   2.054  0.1081 -0.0847  0.3940
   11CHTO  C104 4307   5.843   6.406   1.958  0.2931  1.1430  0.0470
   11CHTO  H191 4308   5.861   6.455   1.862 -1.9564 -1.2930 -1.7021
   11CHTO  C108 4309   5.756   6.283   1.927 -0.2066 -0.0019 -0.6641
   11CHTO   O71 4310   5.643   6.324   1.850 -0.5585 -0.2759 -0.1628
   11CHTO  H171 4311   5.645   6.289   1.763 -0.2542  1.2247 -0.7690
   11CHTO   O62 4312   5.738   6.650   2.193 -0.4474  0.0624  0.1973
   11CHTO   C91 4313   5.623   6.732   2.157  0.3204 -0.4857 -0.5252
   11CHTO  H178 4314   5.561   6.672   2.089 -0.9579  0.8837 -0.5971
   11CHTO   C92 4315   5.676   6.865   2.084 -0.2638 -0.1155  0.3535
   11CHTO  H179 4316   5.761   6.843   2.019  0.1831 -2.0116  1.5393
   11CHTO   O66 4317   5.572   6.915   1.997  0.1720  0.1733  0.0366
   11CHTO  H166 4318   5.542   6.845   1.943 -0.9582  0.4668  0.2811
   11CHTO   C93 4319   5.711   6.979   2.191  0.3453  0.0278 -0.6315
   11CHTO  H180 4320   5.724   7.066   2.124 -1.7818  1.1702  0.3668
   11CHTO   N16 4321   5.838   6.974   2.260  0.2991 -0.3383  0.2533
   11CHTO  H172 4322   5.867   7.069   2.302 -0.4846  0.3886 -0.8115
   11CHTO  H173 4323   5.920   6.932   2.203 -0.7377 -2.9598  0.6506
   11CHTO   C94 4324   5.590   7.005   2.289  0.1340 -0.2023  0.0453
   11CHTO  H181 4325   5.618   6.991   2.393  0.1288  0.5003  0.1476
   11CHTO   O61 4326   5.494   6.906   2.281  0.4048  0.2678  0.2658
   11CHTO   C95 4327   5.533   6.773   2.284  0.2454  0.6346  0.4182
   11CHTO  H182 4328   5.595   6.757   2.373  2.8891  1.7761 -1.1592
   11CHTO  C106 4329   5.402   6.688   2.286 -0.6960 -0.4711  0.7368
   11CHTO   O69 4330   5.431   6.560   2.341  0.0382 -0.4808 -1.0938
   11CHTO  H169 4331   5.479   6.511   2.278  1.9448  1.4704 -1.2210
   11CHTO   O63 4332   5.511   7.144   2.265  0.3933  0.3494 -0.6505
   11CHTO   C96 4333   5.542   7.258   2.352  0.0131 -0.0205  0.5061
   11CHTO  H183 4334   5.550   7.214   2.451 -0.0819  1.5330  1.2208
   11CHTO   C98 4335   5.429   7.373   2.349 -0.4721 -0.3938 -0.7532
   11CHTO  H185 4336   5.336   7.330   2.389 -1.1149 -0.3093 -2.1400
   11CHTO   O67 4337   5.467   7.482   2.442  0.5821  0.4257  0.4730
   11CHTO  H167 4338   5.413   7.559   2.438 -0.3401 -0.3331 -2.1203
   11CHTO  C102 4339   5.408   7.442   2.207  0.4532  0.3661  0.4728
   11CHTO  H189 4340   5.339   7.526   2.221  0.4144  0.5119 -0.5661
   11CHTO   N18 4341   5.343   7.364   2.094  0.3823  0.2090  0.3762
   11CHTO  H176 4342   5.407   7.344   2.010 -0.3462  1.1622 -0.4160
   11CHTO  H177 4343   5.331   7.266   2.138  1.5658  0.1704  0.6193
   11CHTO  C105 4344   5.549   7.501   2.155  0.5933  0.4792 -0.2830
   11CHTO  H192 4345   5.572   7.467   2.054  1.0635  1.2168 -0.4209
   11CHTO   O65 4346   5.661   7.471   2.235 -0.0574 -0.3692 -0.5011
   11CHTO  C100 4347   5.679   7.333   2.286  0.1740 -0.1978  0.0100
   11CHTO  H187 4348   5.710   7.274   2.199  1.2550 -0.5525  0.6207
   11CHTO  C107 4349   5.796   7.328   2.380  0.3146 -0.1246  0.4510
   11CHTO   O70 4350   5.759   7.366   2.513 -0.0828  0.3766  0.0302
   11CHTO  H170 4351   5.702   7.297   2.542  0.5081 -0.7679 -1.4441
   11CHTO   O57 4352   5.515   7.660   2.155 -0.0908  0.8577 -0.3016
   11CHTO   C85 4353   5.571   7.759   2.070  0.3174 -0.3458 -0.7510
   11CHTO  H157 4354   5.534   7.850   2.123  0.0427 -1.1582  0.4535
   11CHTO   C83 4355   5.507   7.765   1.934 -0.3763 -0.0353  0.3714
   11CHTO  H155 4356   5.399   7.776   1.949 -0.2167 -0.4161  1.9781
   11CHTO   O56 4357   5.525   7.636   1.865 -0.0319 -0.3292  0.2377
   11CHTO  H135 4358   5.471   7.567   1.899 -1.2311  0.1732 -0.6364
   11CHTO   C81 4359   5.562   7.889   1.850 -0.2177  0.5495 -0.6934
   11CHTO  H153 4360   5.547   7.980   1.908 -0.9356 -0.7689  1.2247
   11CHTO   N14 4361   5.487   7.910   1.723  0.0551 -0.4288  0.2286
   11CHTO  H141 4362   5.518   7.989   1.658 -2.1804 -1.6942 -2.4862
   11CHTO  H142 4363   5.384   7.926   1.749  0.1215 -1.1336  0.9253
   11CHTO   C79 4364   5.716   7.878   1.831  0.1201  0.3226 -0.6170
   11CHTO  H151 4365   5.750   7.974   1.793  1.0208 -0.3069 -1.4091
   11CHTO   O52 4366   5.778   7.864   1.967  0.5119 -0.2834 -0.5131
   11CHTO   C86 4367   5.729   7.762   2.047 -0.7539 -0.1081 -0.3706
   11CHTO  H158 4368   5.758   7.668   1.996  0.0908  0.2130 -0.4882
   11CHTO   C90 4369   5.811   7.763   2.181  0.0127  0.5183 -0.1620
   11CHTO   O60 4370   5.774   7.868   2.273  0.0364 -0.5786  0.6688
   11CHTO  H138 4371   5.707   7.826   2.323 -0.3876 -1.4822 -0.6238
   11CHTO   O50 4372   5.767   7.774   1.745 -0.0133 -0.6949 -0.0831
   11CHTO   C73 4373   5.854   7.777   1.629 -0.4620  0.0817  0.2373
   11CHTO  H145 4374   5.914   7.870   1.631 -0.2558 -0.0027 -1.6294
   11CHTO   C74 4375   5.776   7.763   1.494  0.4038 -0.0469  0.0862
   11CHTO  H146 4376   5.708   7.849   1.492  1.2399  0.5960 -1.1789
   11CHTO   O54 4377   5.877   7.786   1.393  0.0002 -0.1341 -0.3961
   11CHTO  H133 4378   5.876   7.877   1.369  2.5101 -0.3333 -1.3098
   11CHTO   C75 4379   5.702   7.626   1.485 -0.1946  0.1876 -0.0574
   11CHTO  H147 4380   5.615   7.630   1.552  1.3063  1.0876  1.8843
   11CHTO   N13 4381   5.643   7.592   1.348  0.2192  0.3016  0.0476
   11CHTO  H139 4382   5.535   7.592   1.358  0.2558 -1.4997  0.6432
   11CHTO  H140 4383   5.660   7.492   1.312 -0.7953  0.4708 -0.9354
   11CHTO   C76 4384   5.793   7.508   1.537  0.0353 -0.2212  0.0089
   11CHTO  H148 4385   5.861   7.490   1.454 -1.3829  1.4804 -1.5587
   11CHTO   O49 4386   5.878   7.538   1.654  0.0840 -0.5801 -0.0805
   11CHTO   C77 4387   5.951   7.662   1.642 -0.5237  0.5088 -0.5872
   11CHTO  H149 4388   6.026   7.671   1.564  0.6157 -0.7653  0.3262
   11CHTO   C88 4389   6.030   7.664   1.766 -0.2636 -0.1987  0.3326
   11CHTO   O58 4390   6.134   7.781   1.785 -0.6472  0.0594 -0.2362
   11CHTO  H136 4391   6.158   7.784   1.876 -1.3473  2.3841 -0.0992
   11CHTO   O51 4392   5.706   7.395   1.566  0.4058  0.1392 -0.6105
   11CHTO   C78 4393   5.768   7.269   1.591 -0.2252  0.7447  0.3509
   11CHTO  H150 4394   5.873   7.284   1.622  1.2360 -1.4776 -3.1406
   11CHTO   C80 4395   5.774   7.184   1.461 -0.5461 -0.6416 -0.2695
   11CHTO  H152 4396   5.676   7.194   1.410 -0.9563  2.0870  0.9660
   11CHTO   O55 4397   5.862   7.253   1.368  0.0637  0.0654  0.1385
   11CHTO  H134 4398   5.839   7.235   1.279  0.0961  0.8529 -0.0395
   11CHTO   C84 4399   5.824   7.035   1.482  0.0336  0.0960 -0.0506
   11CHTO  H156 4400   5.931   7.037   1.504 -0.0252 -0.6269  0.3292
   11CHTO   N15 4401   5.802   6.951   1.358  0.0729 -0.0374  0.3350
   11CHTO  H143 4402   5.825   6.849   1.382 -1.2514 -1.0413 -2.4495
   11CHTO  H144 4403   5.699   6.961   1.331  0.2111  1.7910  0.3976
   11CHTO   C87 4404   5.758   6.971   1.613 -0.2058 -0.1975 -0.2531
   11CHTO  H159 4405   5.655   6.949   1.587 -0.1703  1.8904 -2.3257
   11CHTO   O53 4406   5.750   7.061   1.719  0.3408  0.2629 -0.8531
   11CHTO   C82 4407   5.691   7.187   1.694  0.0861 -0.3938  0.1238
   11CHTO  H154 4408   5.593   7.175   1.649  0.3045 -0.2595 -0.3937
   11CHTO   C89 4409   5.670   7.258   1.831 -0.1133  0.0109  0.3173
   11CHTO   O59 4410   5.567   7.197   1.910 -0.0837 -0.3599  0.0708
   11CHTO  H137 4411   5.600   7.147   1.982 -1.7093  0.8636  1.6892
   11CHTO   O45 4412   5.832   6.823   1.659  0.4782  0.0976  0.5918
   11CHTO   C67 4413   5.975   6.832   1.686 -0.0881 -0.4323  0.3649
   11CHTO  H124 4414   6.019   6.874   1.596 -1.2043 -0.9815 -0.4381
   11CHTO   C65 4415   6.010   6.923   1.810  0.2539 -0.0405 -0.2232
   11CHTO  H122 4416   5.920   6.928   1.871 -0.3056  3.3687 -1.2282
   11CHTO   O44 4417   6.030   7.056   1.759 -0.0510 -0.6340 -0.5069
   11CHTO  H102 4418   6.118   7.077   1.781 -0.9162  3.9292 -0.8756
   11CHTO   C63 4419   6.118   6.848   1.894 -0.0730 -0.0151  0.3082
   11CHTO  H120 4420   6.072   6.766   1.949  1.0879 -1.0446 -0.2299
   11CHTO   N11 4421   6.166   6.924   2.012  0.1725 -0.0167  0.0982
   11CHTO  H108 4422   6.238   6.997   1.980 -0.0815  0.2533  0.1427
   11CHTO  H109 4423   6.212   6.867   2.090 -0.2278 -0.2852  0.1382
   11CHTO   C61 4424   6.231   6.797   1.800  0.0933  0.5350 -0.4217
   11CHTO  H118 4425   6.313   6.744   1.850  0.8826 -0.6164 -2.8637
   11CHTO   O40 4426   6.182   6.703   1.698 -0.7236  0.2777 -0.0086
   11CHTO   C68 4427   6.038   6.686   1.690  0.1101  0.2396  0.0607
   11CHTO  H125 4428   6.006   6.631   1.781  0.5027 -0.0468  0.0259
   11CHTO   C72 4429   6.000   6.597   1.562 -0.1495 -0.1825  0.1888
   11CHTO   O48 4430   6.048   6.465   1.554  0.0561  0.3518 -0.2343
   11CHTO  H105 4431   6.140   6.469   1.533  0.4623  0.8527  1.5373
   11CHTO   O38 4432   6.289   6.909   1.726  0.4026  0.4166 -0.2211
   11CHTO   C55 4433   6.431   6.917   1.713  0.3249 -0.4905  0.4515
   11CHTO  H112 4434   6.477   6.818   1.728  0.3802 -0.7409 -1.2962
   11CHTO   C56 4435   6.499   7.030   1.797  0.0421 -0.2931 -0.3595
   11CHTO  H113 4436   6.453   7.126   1.768 -3.2626 -0.9827  2.2965
   11CHTO   O42 4437   6.459   7.022   1.938  0.1258  0.2707 -0.0731
   11CHTO  H100 4438   6.508   7.084   1.988 -0.0301  2.3400 -2.3864
   11CHTO   C57 4439   6.651   7.032   1.772  0.7628  0.3633 -0.1512
   11CHTO  H114 4440   6.689   6.936   1.806 -1.5250 -0.2982  0.5932
   11CHTO   N10 4441   6.734   7.138   1.828 -0.4135 -0.2054 -0.3993
   11CHTO  H106 4442   6.832   7.098   1.853 -0.2862  0.9170  0.9697
   11CHTO  H107 4443   6.689   7.171   1.921 -0.5878  0.3924 -0.6929
   11CHTO   C58 4444   6.672   7.032   1.617 -0.3027 -0.8452  0.2340
   11CHTO  H115 4445   6.651   7.132   1.575  0.6803 -0.1748  1.3380
   11CHTO   O37 4446   6.598   6.930   1.539 -0.2315 -0.4010  0.4366
   11CHTO   C59 4447   6.459   6.946   1.564 -0.4563 -0.1204  0.1773
   11CHTO  H116 4448   6.432   7.047   1.535 -0.0244  0.0360  0.3277
   11CHTO   C70 4449   6.398   6.850   1.457  0.8188  0.1757 -0.4670
   11CHTO   O46 4450   6.262   6.875   1.411  0.5243  0.1730 -0.4947
   11CHTO  H103 4451   6.250   6.817   1.338 -0.8266 -0.6408  0.3413
   11CHTO   O39 4452   6.835   6.994   1.586 -0.0569 -0.4541  0.8896
   11CHTO   C60 4453   6.879   7.038   1.458  0.2252  0.8213 -0.2034
   11CHTO  H117 4454   6.797   7.081   1.401  0.2324  0.4592 -0.4920
   11CHTO   C62 4455   6.967   7.161   1.486  0.8033 -0.0447  0.3661
   11CHTO  H119 4456   6.899   7.240   1.525  0.6777  1.7687 -3.2921
   11CHTO   O43 4457   7.068   7.133   1.586 -0.1114  0.3090 -0.3923
   11CHTO  H101 4458   7.029   7.124   1.671 -0.7616 -0.3053 -0.7448
   11CHTO   C66 4459   7.026   7.222   1.347  0.0448  0.0792 -0.1429
   11CHTO  H123 4460   6.941   7.258   1.288  0.7593  0.8380 -0.7061
   11CHTO   N12 4461   7.107   7.343   1.364  0.4597 -0.2183 -0.3554
   11CHTO  H110 4462   7.080   7.421   1.293  0.3070  0.3881  0.3683
   11CHTO  H111 4463   7.213   7.326   1.358  0.3653 -0.8199 -0.3074
   11CHTO   C69 4464   7.098   7.106   1.269  0.7001 -0.0481 -0.1939
   11CHTO  H126 4465   7.175   7.073   1.341  0.3368 -0.0009  0.2197
   11CHTO   O41 4466   6.980   6.984   1.239  0.5080 -0.0753  0.5303
   11CHTO   C64 4467   6.944   6.927   1.367  0.4955 -0.6739 -0.2636
   11CHTO  H121 4468   7.029   6.873   1.414 -0.2348 -0.5114  1.2974
   11CHTO   C71 4469   6.830   6.825   1.335 -0.0200 -0.0686  0.9236
   11CHTO   O47 4470   6.859   6.692   1.284  0.3652  0.2486 -0.1028
   11CHTO  H104 4471   6.910   6.697   1.205 -0.2674  0.9931 -0.4680
   11CHTO   O34 4472   7.164   7.149   1.145 -0.1695 -0.4270 -0.3405
   11CHTO   C49 4473   7.287   7.077   1.101 -0.1588  0.6653 -0.3183
   11CHTO   H91 4474   7.369   7.107   1.165 -1.9812  1.8732  1.5100
   11CHTO   C47 4475   7.323   7.130   0.962  0.3129 -0.1443  0.0597
   11CHTO   H89 4476   7.421   7.081   0.941 -0.5328 -2.2552  0.8386
   11CHTO   O33 4477   7.345   7.269   0.974  0.4479 -0.3014  0.1003
   11CHTO   H70 4478   7.268   7.322   0.962  2.1986  2.2000 -0.5914
   11CHTO   C45 4479   7.194   7.093   0.865  0.3918 -0.0435 -0.1983
   11CHTO   H87 4480   7.131   7.183   0.868  1.8317  0.9510  0.9606
   11CHTO    N8 4481   7.250   7.086   0.725  0.4360  0.1252  0.1459
   11CHTO   H75 4482   7.313   6.999   0.715 -0.3660 -0.6847  1.9263
   11CHTO   H76 4483   7.316   7.170   0.712 -0.0830  0.2887 -1.6632
   11CHTO   C43 4484   7.101   6.976   0.924 -0.8455 -0.0387  0.4373
   11CHTO   H85 4485   7.039   7.025   0.999  0.5633 -0.3949  1.8516
   11CHTO   O29 4486   7.189   6.876   0.981  0.2425 -0.0073 -0.1917
   11CHTO   C50 4487   7.276   6.919   1.090  0.1087  0.2866  0.3039
   11CHTO   H92 4488   7.234   6.889   1.187 -0.3806 -0.0441 -0.0137
   11CHTO   C54 4489   7.413   6.841   1.080 -0.2993 -0.0911  0.0800
   11CHTO   O36 4490   7.397   6.698   1.090  0.1767 -0.2152 -0.0856
   11CHTO   H72 4491   7.354   6.685   1.172  0.1480  0.5959  0.0374
   11CHTO   O27 4492   7.011   6.930   0.820 -0.1521 -0.1537 -0.4298
   11CHTO   C37 4493   6.899   6.840   0.787  0.4439  0.2814  0.6765
   11CHTO   H79 4494   6.917   6.739   0.827  0.2363 -0.0727 -0.1129
   11CHTO   C38 4495   6.765   6.890   0.852  0.1653  0.8015  0.5098
   11CHTO   H80 4496   6.737   6.985   0.804 -1.7738 -0.4619 -0.9446
   11CHTO   O31 4497   6.792   6.904   0.991  0.2974  0.1518 -0.5167
   11CHTO   H68 4498   6.715   6.897   1.044  0.8103 -0.6823  0.1265
   11CHTO   C39 4499   6.654   6.784   0.810 -0.0398 -0.2215 -0.0896
   11CHTO   H81 4500   6.684   6.688   0.853 -0.5107  0.6251  2.2094
   11CHTO    N7 4501   6.523   6.826   0.867  0.0142 -0.3952  0.3900
   11CHTO   H73 4502   6.533   6.819   0.974 -0.2266 -3.4543  0.2440
   11CHTO   H74 4503   6.453   6.751   0.834  2.2342 -3.2379  1.9818
   11CHTO   C40 4504   6.641   6.779   0.653  0.1768  0.6483 -0.2620
   11CHTO   H82 4505   6.594   6.869   0.612 -2.4619 -0.3814  0.4173
   11CHTO   O26 4506   6.771   6.746   0.592 -0.2656  0.0404 -0.4549
   11CHTO   C41 4507   6.887   6.821   0.628  0.4404  0.3219 -0.1990
   11CHTO   H83 4508   6.869   6.917   0.578  1.1314  0.7848  0.4321
   11CHTO   C52 4509   7.013   6.756   0.569  0.1542 -0.5769 -0.7179
   11CHTO   O35 4510   7.039   6.614   0.652 -0.2819  0.1120  0.0763
   11CHTO   H71 4511   7.120   6.578   0.619  0.0068  0.8346 -0.0152
   11CHTO   O28 4512   6.555   6.669   0.606 -0.2433 -0.6239 -0.1451
   11CHTO   C42 4513   6.522   6.635   0.464  0.0037  0.7167 -0.2304
   11CHTO   H84 4514   6.606   6.672   0.405  1.3621 -0.4632  0.9273
   11CHTO   C44 4515   6.399   6.715   0.419  0.3075  0.0937 -0.1319
   11CHTO   H86 4516   6.318   6.699   0.490  0.7451 -0.4568  0.2391
   11CHTO   O32 4517   6.430   6.859   0.431 -0.0587 -0.0606 -0.3224
   11CHTO   H69 4518   6.494   6.876   0.365  0.3377 -0.0062  0.0751
   11CHTO   C48 4519   6.366   6.680   0.272  0.1220  0.6802  0.0246
   11CHTO   H90 4520   6.420   6.732   0.192 -3.1803  0.1039 -2.6747
   11CHTO    N9 4521   6.228   6.729   0.226  0.1364  0.0425  0.3150
   11CHTO   H77 4522   6.221   6.835   0.245 -0.7168  0.3234 -1.5229
   11CHTO   H78 4523   6.203   6.708   0.123 -0.5039 -2.2848  0.9137
   11CHTO   C51 4524   6.359   6.520   0.249 -0.1505  0.3586  0.7688
   11CHTO   H93 4525   6.276   6.484   0.310 -2.5102  1.9206 -1.4014
   11CHTO   O30 4526   6.488   6.463   0.277  0.6661 -0.3413  0.4232
   11CHTO   C46 4527   6.511   6.483   0.433 -0.5077 -1.1343  0.2791
   11CHTO   H88 4528   6.429   6.438   0.491  0.3434 -0.3819  2.1060
   11CHTO   C53 4529   6.639   6.416   0.481 -0.0833  0.3648  0.2087
   11CHTO   O72 4530   6.633   6.274   0.473 -0.6573 -0.3479 -0.0188
   11CHTO  H199 4531   6.601   6.253   0.387 -2.9120 -0.6457  0.8644
   11CHTO   O22 4532   6.332   6.486   0.106  0.3417  0.2084 -0.1500
   11CHTO   C31 4533   6.213   6.403   0.072  0.0264 -0.9951  0.4432
   11CHTO   H59 4534   6.143   6.411   0.158 -0.2001 -3.1484  0.4842
   11CHTO   C29 4535   6.136   6.439  -0.054 -0.0182  0.3616  0.0662
   11CHTO   H57 4536   6.203   6.437  -0.141  0.6004 -0.0943  0.5479
   11CHTO   O21 4537   6.103   6.576  -0.046  0.2608 -0.6546  0.9522
   11CHTO   H37 4538   6.020   6.592  -0.086  0.4430  1.1486  1.2332
   11CHTO   C27 4539   6.010   6.347  -0.070 -0.3467 -0.7076  0.4268
   11CHTO   H55 4540   5.942   6.375   0.012 -0.8581  1.4345 -0.6840
   11CHTO    N5 4541   5.940   6.383  -0.199  0.1443  0.0139 -0.2906
   11CHTO   H43 4542   5.895   6.481  -0.188 -0.4247 -0.1840 -0.7859
   11CHTO   H44 4543   6.009   6.389  -0.283 -0.8907  1.0396 -1.0839
   11CHTO   C25 4544   6.048   6.195  -0.061  0.5822  0.5565  0.8217
   11CHTO   H53 4545   6.109   6.165  -0.147 -1.0536  2.7350 -1.1465
   11CHTO   O17 4546   6.123   6.178   0.056  0.2779  0.3147 -0.1030
   11CHTO   C32 4547   6.246   6.252   0.065 -0.0978 -0.5537  0.4175
   11CHTO   H60 4548   6.299   6.234  -0.028 -1.5785 -0.7409 -0.4033
   11CHTO   C36 4549   6.324   6.201   0.185  0.8634 -0.3450 -0.0612
   11CHTO   O25 4550   6.467   6.200   0.170  0.0722 -0.1563  0.4539
   11CHTO   H40 4551   6.507   6.158   0.243  0.8972 -2.3788 -1.2344
   11CHTO   O15 4552   5.912   6.111  -0.053 -0.0056 -0.1321 -0.1935
   11CHTO   C19 4553   5.867   5.971  -0.073  0.6624  0.1691  0.1922
   11CHTO   H47 4554   5.957   5.915  -0.045  0.9801  1.6069  2.1200
   11CHTO   C20 4555   5.735   5.933   0.011  0.4654  0.4391  0.1706
   11CHTO   H48 4556   5.651   5.999  -0.013 -0.9090 -0.6251  1.9520
   11CHTO   O19 4557   5.771   5.969   0.142 -0.5591  0.3026  0.3870
   11CHTO   H35 4558   5.838   5.908   0.166 -0.7748  0.2301  0.7961
   11CHTO   C21 4559   5.695   5.784  -0.007  0.6406 -0.2049 -0.0246
   11CHTO   H49 4560   5.776   5.723   0.032 -0.5945 -1.7826  0.1505
   11CHTO    N4 4561   5.573   5.735   0.066 -0.0340  0.2074 -0.0620
   11CHTO   H41 4562   5.515   5.665   0.008  0.3305 -0.4373  0.3507
   11CHTO   H42 4563   5.583   5.705   0.170 -0.0560  0.1681 -0.0718
   11CHTO   C22 4564   5.682   5.755  -0.161 -0.1324  0.1892  0.2459
   11CHTO   H50 4565   5.602   5.805  -0.215  0.4955 -1.6089 -2.4474
   11CHTO   O14 4566   5.807   5.790  -0.228  0.2316 -0.5069  0.0364
   11CHTO   C23 4567   5.843   5.931  -0.218 -0.2334 -0.6582 -0.2063
   11CHTO   H51 4568   5.774   6.000  -0.269 -0.1290 -1.1018 -0.9538
   11CHTO   C34 4569   5.968   5.941  -0.309 -0.4705  0.2260  0.3960
   11CHTO   O23 4570   5.961   5.872  -0.432  0.4530  0.2142 -0.3498
   11CHTO   H38 4571   5.948   5.780  -0.421 -3.1054  0.7998  1.2138
   11CHTO   O16 4572   5.663   5.613  -0.190 -0.0615 -0.0174  0.1078
   11CHTO   C24 4573   5.609   5.566  -0.352 -0.4017  0.5339  0.0756
   11CHTO   H52 4574   5.599   5.653  -0.417  1.4356  0.7473  0.0712
   11CHTO   C26 4575   5.479   5.489  -0.343  0.4909  0.1370  0.8181
   11CHTO   H54 4576   5.490   5.408  -0.269 -1.5883 -1.2201 -0.3335
   11CHTO   O20 4577   5.381   5.579  -0.291 -0.4656  0.0053  0.5528
   11CHTO   H36 4578   5.305   5.525  -0.282  0.2635 -1.2303 -0.6007
   11CHTO   C30 4579   5.436   5.443  -0.486  0.7774  0.3057 -0.2710
   11CHTO   H58 4580   5.431   5.529  -0.554  1.1500  0.4430 -0.1259
   11CHTO    N6 4581   5.299   5.383  -0.478 -0.3544  0.2508  0.0346
   11CHTO   H45 4582   5.219   5.451  -0.453 -0.3709  0.1871  0.1600
   11CHTO   H46 4583   5.263   5.313  -0.552 -0.5060 -0.2911  0.6100
   11CHTO   C33 4584   5.540   5.342  -0.541  0.0303 -0.1595  0.1176
   11CHTO   H61 4585   5.544   5.257  -0.471 -2.0082 -0.3621  0.0014
   11CHTO   O18 4586   5.664   5.407  -0.533  0.3590 -0.1105 -0.7274
   11CHTO   C28 4587   5.716   5.463  -0.412  0.0341 -0.0037  0.5642
   11CHTO   H56 4588   5.728   5.385  -0.337 -0.6921  2.1177  2.9700
   11CHTO   C35 4589   5.852   5.529  -0.433 -0.3765  0.3142 -0.3521
   11CHTO   O24 4590   5.863   5.603  -0.556  0.1719  0.2541 -0.6043
   11CHTO   H39 4591   5.840   5.693  -0.545  0.1249  0.1161  0.4439
   11CHTO    O9 4592   5.523   5.280  -0.668  0.0026  0.3632 -0.0747
   11CHTO   C13 4593   5.453   5.373  -0.783 -0.3754 -0.3550  0.2685
   11CHTO   H26 4594   5.366   5.423  -0.737  0.7648  1.5143  0.4683
   11CHTO   C11 4595   5.420   5.295  -0.915 -0.2333 -0.3327 -0.0251
   11CHTO   H24 4596   5.352   5.214  -0.884  0.6852 -1.0447  0.1810
   11CHTO    O8 4597   5.543   5.227  -0.954  0.2709 -0.4108  0.0053
   11CHTO    H3 4598   5.525   5.141  -0.986  2.1551 -0.0592 -2.0766
   11CHTO    C9 4599   5.363   5.379  -1.032 -0.9280  0.9720  0.0966
   11CHTO   H22 4600   5.269   5.416  -0.988 -0.3630  0.9058  1.3879
   11CHTO    N2 4601   5.316   5.295  -1.150 -0.5702 -0.2069  0.0360
   11CHTO   H10 4602   5.264   5.207  -1.113 -0.5892  0.0007  0.5152
   11CHTO   H11 4603   5.263   5.356  -1.221 -0.8246 -0.0565  0.3488
   11CHTO    C7 4604   5.454   5.498  -1.058 -0.1355 -0.1020 -0.1787
   11CHTO   H20 4605   5.398   5.578  -1.111 -0.3704  0.1459  0.4457
   11CHTO    O4 4606   5.507   5.573  -0.953  0.6138 -0.2256 -0.4477
   11CHTO   C14 4607   5.538   5.505  -0.832  0.1133  0.2470  0.0148
   11CHTO   H27 4608   5.525   5.591  -0.763  0.9483 -1.1400  1.9348
   11CHTO   C18 4609   5.686   5.488  -0.842  0.7808  0.0887 -0.3307
   11CHTO   O13 4610   5.753   5.609  -0.871 -0.4062 -0.5264 -0.2010
   11CHTO    H7 4611   5.774   5.652  -0.790 -1.7840  0.4422 -0.3525
   11CHTO    O2 4612   5.578   5.448  -1.153  0.0365 -0.4625 -0.0001
   11CHTO    C1 4613   5.649   5.549  -1.225  0.2780  0.1872  0.0944
   11CHTO   H14 4614   5.681   5.623  -1.149 -1.1392 -0.1677  1.0360
   11CHTO    C2 4615   5.575   5.627  -1.346  0.0609 -0.0200 -0.1598
   11CHTO   H15 4616   5.530   5.553  -1.414  2.0798  0.8305 -2.5008
   11CHTO    O6 4617   5.481   5.725  -1.291  0.0715  0.4127 -0.6195
   11CHTO    H1 4618   5.419   5.751  -1.357 -0.3116 -2.2295 -1.3807
   11CHTO    C3 4619   5.673   5.715  -1.439  0.2404 -0.1487 -0.0809
   11CHTO   H16 4620   5.708   5.801  -1.380 -1.0603 -0.6841  1.4850
   11CHTO    N1 4621   5.608   5.767  -1.569  0.5502 -0.1474  0.7572
   11CHTO    H8 4622   5.527   5.702  -1.601 -0.6030  1.4746  0.3466
   11CHTO    H9 4623   5.545   5.850  -1.542 -0.4408  0.2106 -2.4166
   11CHTO    C4 4624   5.805   5.636  -1.476  0.2560 -0.6335 -0.4092
   11CHTO   H17 4625   5.787   5.565  -1.557 -3.1573  0.1303 -0.4013
   11CHTO    O1 4626   5.859   5.561  -1.369  0.7374 -0.6425 -0.7672
   11CHTO    C5 4627   5.781   5.482  -1.282  0.0964  0.4338  0.7307
   11CHTO   H18 4628   5.754   5.390  -1.334  1.5868 -2.0468  4.1902
   11CHTO   C16 4629   5.864   5.443  -1.155  0.2887 -0.4589 -0.4072
   11CHTO   O11 4630   5.934   5.322  -1.181  0.0796 -0.1147 -0.1472
   11CHTO    H5 4631   5.875   5.249  -1.186  1.4530 -1.2454 -0.1576
   11CHTO    O3 4632   5.913   5.716  -1.514  0.2248 -0.7289 -0.4361
   11CHTO    C6 4633   6.014   5.659  -1.610 -0.5496  0.0033  0.4566
   11CHTO   H19 4634   6.008   5.551  -1.622 -1.4393 -0.1332  1.9717
   11CHTO    C8 4635   5.990   5.724  -1.750 -0.0804 -0.1519 -0.0732
   11CHTO   H21 4636   5.982   5.831  -1.736 -5.0555 -0.5180  1.0226
   11CHTO    O7 4637   5.851   5.685  -1.782 -0.3533  0.0665  0.1536
   11CHTO    H2 4638   5.798   5.759  -1.758 -0.2083  0.8316 -1.7636
   11CHTO   C12 4639   6.097   5.676  -1.858 -0.6749  0.2391  0.0636
   11CHTO   H25 4640   6.089   5.565  -1.866 -0.8568  0.2065  0.7012
   11CHTO    N3 4641   6.074   5.739  -1.989  0.4446 -0.0001 -0.1188
   11CHTO   H12 4642   6.085   5.695  -2.087  0.0742  0.4220 -0.3561
   11CHTO   H13 4643   6.117   5.838  -1.981  0.3737  0.0837 -0.7413
   11CHTO   C15 4644   6.241   5.707  -1.797 -0.3078 -0.7148  0.6788
   11CHTO   H28 4645   6.255   5.814  -1.781  1.4572 -1.0159  1.2601
   11CHTO   O10 4646   6.369   5.640  -1.877  1.0991 -0.3375 -0.2528
   11CHTO    H4 4647   6.388   5.689  -1.955 -0.8442  2.4048  0.8807
   11CHTO    O5 4648   6.250   5.636  -1.675 -0.0425 -0.5508 -0.1425
   11CHTO   C10 4649   6.162   5.687  -1.565 -0.3238  0.0799  0.3281
   11CHTO   H23 4650   6.172   5.795  -1.553  0.4783  0.0732 -0.2018
   11CHTO   C17 4651   6.203   5.626  -1.428 -0.0135 -0.4312  0.1268
   11CHTO   O12 4652   6.183   5.478  -1.432 -0.6753  0.3719  0.3890
   11CHTO    H6 4653   6.091   5.462  -1.432 -0.3013 -1.8892  0.2882
   12CHTO  H203 4654   5.847  12.564   6.403 -0.5831  1.0550  0.3587
   12CHTO   O82 4655   5.902  12.541   6.475  0.0009 -0.1847 -0.4505
   12CHTO  C123 4656   5.830  12.444   6.545  0.0702 -0.5506 -0.2795
   12CHTO  H227 4657   5.725  12.443   6.512 -0.0803  0.0790  0.1640
   12CHTO   O77 4658   5.896  12.318   6.503 -0.0595 -0.1972 -0.4291
   12CHTO  C118 4659   5.830  12.199   6.551 -0.6669 -0.4898 -0.0324
   12CHTO  H222 4660   5.724  12.191   6.519 -0.3586 -0.9861 -0.9457
   12CHTO  C125 4661   5.917  12.081   6.498  0.1319  0.6268 -0.4896
   12CHTO   O84 4662   6.051  12.066   6.556  0.4756  0.4039  0.1848
   12CHTO  H205 4663   6.082  11.989   6.513 -1.1212 -1.2783  1.9180
   12CHTO  C114 4664   5.838  12.197   6.703 -0.6479  0.5805 -0.0077
   12CHTO  H218 4665   5.943  12.195   6.734 -0.7435  0.7214  0.3225
   12CHTO  C116 4666   5.779  12.331   6.771 -0.8197  0.5554  0.4252
   12CHTO  H220 4667   5.669  12.336   6.762 -1.0094 -0.5576  2.0460
   12CHTO   O79 4668   5.806  12.329   6.911 -0.3979  0.6052 -0.6632
   12CHTO  H201 4669   5.744  12.264   6.938 -0.0003  0.2960 -0.5059
   12CHTO  C120 4670   5.851  12.457   6.702  0.0481 -0.0949  0.5967
   12CHTO  H224 4671   5.954  12.442   6.740  1.2424  3.3594 -1.1096
   12CHTO   N21 4672   5.788  12.579   6.763 -0.1117  0.2354  0.4278
   12CHTO  H211 4673   5.833  12.612   6.856 -1.6846 -1.0827  1.6877
   12CHTO  H212 4674   5.787  12.661   6.693  2.1630  0.9588  1.1760
   12CHTO   O75 4675   5.772  12.073   6.734 -0.4350  0.1869 -0.4738
   12CHTO  C112 4676   5.846  12.001   6.875  0.3369 -0.1171 -0.1192
   12CHTO  H216 4677   5.825  12.062   6.964 -0.5061  2.0916 -1.7982
   12CHTO   O73 4678   5.988  11.988   6.850  0.8905  0.2506 -0.0897
   12CHTO  C113 4679   6.062  11.915   6.953 -0.4964 -0.0332  0.3424
   12CHTO  H217 4680   6.053  11.964   7.052 -3.7185 -0.9535  0.5664
   12CHTO  C124 4681   6.211  11.920   6.928 -0.1811  0.0349 -0.3402
   12CHTO   O83 4682   6.259  11.890   6.803  0.0368 -0.5442 -0.2734
   12CHTO  H204 4683   6.343  11.852   6.821 -0.5707 -0.6119  2.5564
   12CHTO  C109 4684   6.008  11.770   6.969  0.0308 -0.4313  0.2839
   12CHTO  H213 4685   6.017  11.722   6.870 -2.1914  0.8238 -0.5502
   12CHTO  C110 4686   5.858  11.776   7.015  0.6721 -0.4220  0.4137
   12CHTO  H214 4687   5.846  11.818   7.115  0.0135 -0.4526  0.3508
   12CHTO   O78 4688   5.808  11.645   7.029  0.4990  0.1681 -0.6601
   12CHTO  H200 4689   5.733  11.647   7.085  0.6551 -0.4406 -0.4206
   12CHTO  C111 4690   5.780  11.858   6.906  0.2360  0.5363 -0.0798
   12CHTO  H215 4691   5.797  11.801   6.813  0.8776 -0.8645  0.8595
   12CHTO   N19 4692   5.632  11.877   6.926 -0.2273 -0.2526  0.2762
   12CHTO  H207 4693   5.582  11.808   6.860 -3.2578  1.6398  0.4819
   12CHTO  H208 4694   5.608  11.849   7.028  0.7775  2.4160  1.2979
   12CHTO   O74 4695   6.090  11.695   7.063 -0.1210 -0.2176  0.0226
   12CHTO  C115 4696   6.186  11.557   7.002 -0.6941 -0.2395  0.3049
   12CHTO  H219 4697   6.229  11.578   6.903 -2.2592 -1.0163 -0.5490
   12CHTO   O76 4698   6.309  11.534   7.087 -0.1471 -0.2523 -0.2854
   12CHTO  C122 4699   6.263  11.513   7.221 -0.8083 -0.0555  0.5260
   12CHTO  H226 4700   6.227  11.609   7.259 -0.7004 -1.0598  3.3282
   12CHTO  C126 4701   6.394  11.492   7.296 -0.2364 -0.1707 -0.5542
   12CHTO   O85 4702   6.378  11.473   7.436 -0.5999 -0.3446  0.1794
   12CHTO  H206 4703   6.324  11.544   7.465 -2.6643 -0.9036 -2.1242
   12CHTO  C121 4704   6.154  11.399   7.233 -0.0872  0.2302  0.0774
   12CHTO  H225 4705   6.201  11.332   7.309  0.5104  0.1555 -0.3546
   12CHTO   O81 4706   6.041  11.454   7.296  0.4095 -1.0212  0.2371
   12CHTO  H202 4707   5.986  11.506   7.240  1.6769  1.3729  1.1221
   12CHTO  C119 4708   6.124  11.324   7.094 -0.3596 -0.1591  0.3704
   12CHTO  H223 4709   6.211  11.262   7.069 -1.4426 -1.9516  0.9402
   12CHTO  C117 4710   6.090  11.434   6.987  0.3275  0.7111 -0.8071
   12CHTO  H221 4711   5.994  11.480   7.009  0.1870 -0.9000  2.2055
   12CHTO   N20 4712   6.090  11.377   6.848 -0.1076  0.5629 -0.2024
   12CHTO  H209 4713   6.035  11.284   6.847  0.3286  0.3115 -0.8324
   12CHTO  H210 4714   6.028  11.448   6.796 -0.7804 -0.8012 -1.2709
   12CHTO   O80 4715   6.010  11.204   7.087  0.2322 -0.6043 -0.4192
   12CHTO  C103 4716   6.034  11.077   7.161  0.1354 -0.2212  0.1261
   12CHTO  H190 4717   6.140  11.069   7.186  0.3661  0.8781 -0.4772
   12CHTO  C101 4718   5.952  11.044   7.289  0.0679 -0.9138 -0.4149
   12CHTO  H188 4719   5.845  11.057   7.271 -0.2934 -2.3281  0.6424
   12CHTO   O68 4720   6.000  11.155   7.388 -0.5115 -0.5682 -0.4305
   12CHTO  H168 4721   5.960  11.150   7.473 -2.1837 -0.7455 -1.2198
   12CHTO   C99 4722   5.981  10.894   7.336 -0.0777  1.3048 -0.2711
   12CHTO  H186 4723   6.089  10.886   7.361 -0.3237  1.8983  1.0287
   12CHTO   N17 4724   5.895  10.853   7.456  0.2209 -0.0688  0.7601
   12CHTO  H174 4725   5.914  10.749   7.481 -0.1179 -0.0546  1.0795
   12CHTO  H175 4726   5.795  10.861   7.415  0.8960 -1.6375 -1.3098
   12CHTO   C97 4727   5.949  10.797   7.221  1.0384  0.9514  0.2407
   12CHTO  H184 4728   5.841  10.785   7.208  0.7325  1.8931  1.8045
   12CHTO   O64 4729   6.020  10.832   7.101  0.4322 -0.1095  0.5272
   12CHTO  C104 4730   6.001  10.965   7.057 -0.1985 -0.5203  0.0797
   12CHTO  H191 4731   5.898  10.974   7.020 -1.1898 -3.6408  1.8112
   12CHTO  C108 4732   6.098  10.987   6.942 -0.2495  0.3997 -0.0906
   12CHTO   O71 4733   6.059  10.930   6.819 -0.4397 -0.2947 -0.7973
   12CHTO  H171 4734   5.971  10.958   6.804 -0.3098  0.2152 -0.6046
   12CHTO   O62 4735   6.020  10.668   7.237  0.2812 -0.1339 -0.4312
   12CHTO   C91 4736   5.950  10.538   7.231 -0.6099 -0.1709  0.3063
   12CHTO  H178 4737   5.852  10.541   7.279 -0.5765  1.1957  0.2944
   12CHTO   C92 4738   6.033  10.449   7.322  1.0637 -0.1893 -0.5205
   12CHTO  H179 4739   6.137  10.465   7.292  1.0272  3.5431  1.0949
   12CHTO   O66 4740   6.019  10.512   7.455  0.5299 -0.8743 -0.4615
   12CHTO  H166 4741   5.927  10.518   7.473  0.5736  1.3459 -0.7839
   12CHTO   C93 4742   5.995  10.292   7.320  0.2202  0.4824 -0.3133
   12CHTO  H180 4743   5.908  10.279   7.386  0.1128 -1.6862 -0.8510
   12CHTO   N16 4744   6.107  10.219   7.384  0.2608  0.5325  0.5101
   12CHTO  H172 4745   6.186  10.185   7.318  1.3944  0.1798  2.0240
   12CHTO  H173 4746   6.060  10.139   7.438 -1.9018  1.0966 -0.4680
   12CHTO   C94 4747   5.955  10.234   7.177  0.3213 -0.1481  0.3994
   12CHTO  H181 4748   6.041  10.197   7.121 -0.9070  1.8551 -2.9354
   12CHTO   O61 4749   5.889  10.336   7.103  0.0638  0.6275  0.0618
   12CHTO   C95 4750   5.936  10.467   7.090 -0.2275  0.2540  0.0055
   12CHTO  H182 4751   6.033  10.472   7.040 -0.8493 -1.5700 -1.4380
   12CHTO  C106 4752   5.850  10.547   6.988  1.0514  0.2278 -0.0477
   12CHTO   O69 4753   5.717  10.541   7.035  0.8784  0.5101 -0.0762
   12CHTO  H169 4754   5.667  10.605   6.988  0.8567  1.1325  0.7920
   12CHTO   O63 4755   5.847  10.118   7.187 -0.3595 -0.1995  0.3800
   12CHTO   C96 4756   5.882   9.990   7.284 -0.6910  0.4290 -0.3193
   12CHTO  H183 4757   5.925  10.029   7.376  0.1526 -1.1147 -0.0378
   12CHTO   C98 4758   5.980   9.874   7.242  0.0133 -0.4210  0.1497
   12CHTO  H185 4759   5.937   9.822   7.155 -1.1178 -1.3791  1.2649
   12CHTO   O67 4760   6.104   9.926   7.200  0.4570  0.1647  0.0235
   12CHTO  H167 4761   6.143   9.967   7.276 -1.1261 -0.0155  0.9381
   12CHTO  C102 4762   5.998   9.760   7.355  0.2251 -0.4868  0.4764
   12CHTO  H189 4763   6.058   9.811   7.432 -1.4764  2.8859 -0.3190
   12CHTO   N18 4764   6.072   9.633   7.320  0.1710 -0.2044 -0.5065
   12CHTO  H176 4765   6.177   9.654   7.309 -0.0523  0.8929 -0.5911
   12CHTO  H177 4766   6.032   9.597   7.226 -0.3807 -1.4580  0.1951
   12CHTO  C105 4767   5.864   9.729   7.422 -0.6414 -0.2593  0.1615
   12CHTO  H192 4768   5.814   9.643   7.376  0.2348 -1.3890  1.2573
   12CHTO   O65 4769   5.770   9.828   7.434 -0.5311  0.3539 -0.3952
   12CHTO  C100 4770   5.746   9.922   7.325 -0.1147 -0.7675 -0.5385
   12CHTO  H187 4771   5.701   9.865   7.243 -2.1413  1.0571 -0.7460
   12CHTO  C107 4772   5.634  10.011   7.381 -0.1575 -0.5771 -0.2569
   12CHTO   O70 4773   5.509   9.948   7.411 -0.1800 -0.3288  0.0499
   12CHTO  H170 4774   5.446  10.009   7.447 -0.9561 -1.7243  1.1142
   12CHTO   O57 4775   5.886   9.678   7.579 -0.8412  0.2366  0.2550
   12CHTO   C85 4776   5.858   9.546   7.632  0.1836 -0.0865 -0.5659
   12CHTO  H157 4777   5.912   9.474   7.567  1.9773  0.4804  0.2555
   12CHTO   C83 4778   5.708   9.520   7.609  0.5669  0.5235 -0.7024
   12CHTO  H155 4779   5.703   9.511   7.500  1.5150 -1.3623 -0.6185
   12CHTO   O56 4780   5.614   9.614   7.662  0.0502  0.4612  0.4633
   12CHTO  H135 4781   5.525   9.592   7.645 -0.5175  2.7492  0.3812
   12CHTO   C81 4782   5.684   9.376   7.665 -1.0456 -0.1075  0.0386
   12CHTO  H153 4783   5.759   9.313   7.617 -1.0980 -0.3494  0.2732
   12CHTO   N14 4784   5.548   9.313   7.649  0.3843  0.0413 -0.0668
   12CHTO  H141 4785   5.541   9.278   7.548  0.6805 -2.5737  0.7699
   12CHTO  H142 4786   5.522   9.235   7.717  0.3336 -0.3258 -0.5086
   12CHTO   C79 4787   5.717   9.377   7.823  0.0734  0.4686 -0.3587
   12CHTO  H151 4788   5.705   9.275   7.859 -2.4581  0.9451  0.2113
   12CHTO   O52 4789   5.855   9.406   7.847  0.3243  0.1527  0.2668
   12CHTO   C86 4790   5.899   9.528   7.789  0.4395 -0.5306  0.3647
   12CHTO  H158 4791   5.855   9.616   7.842 -0.1203 -1.0762  0.8098
   12CHTO   C90 4792   6.052   9.541   7.794 -0.0679 -0.1383 -0.6541
   12CHTO   O60 4793   6.116   9.437   7.715 -0.2870  0.2467 -0.2973
   12CHTO  H138 4794   6.080   9.354   7.740 -2.2622  1.1796  0.0488
   12CHTO   O50 4795   5.646   9.484   7.892  0.2603 -0.0559 -0.2213
   12CHTO   C73 4796   5.571   9.505   8.018  0.5612  0.0076 -0.0800
   12CHTO  H145 4797   5.480   9.444   8.012  0.4065 -0.0564  2.4369
   12CHTO   C74 4798   5.541   9.659   8.030 -0.3597  0.0201  0.4272
   12CHTO  H146 4799   5.504   9.701   7.936  2.0381  1.7486  0.2165
   12CHTO   O54 4800   5.438   9.677   8.131  0.0184  0.3443  0.1112
   12CHTO  H133 4801   5.402   9.763   8.132  0.9712  0.7778 -1.0367
   12CHTO   C75 4802   5.670   9.742   8.076  0.7186  0.0301 -0.5750
   12CHTO  H147 4803   5.737   9.750   7.989  0.0178 -0.5596 -1.1805
   12CHTO   N13 4804   5.643   9.882   8.111 -0.4608 -0.7648 -0.3775
   12CHTO  H139 4805   5.578   9.892   8.197  0.6578  4.5743  0.0293
   12CHTO  H140 4806   5.617   9.944   8.027  0.1290 -1.1435 -0.8416
   12CHTO   C76 4807   5.751   9.665   8.189 -0.0550 -0.0361 -0.3203
   12CHTO  H148 4808   5.691   9.674   8.279 -0.6373 -1.4135 -0.5549
   12CHTO   O49 4809   5.768   9.527   8.156  0.5575 -0.2188  0.5728
   12CHTO   C77 4810   5.649   9.458   8.145  0.6270 -0.1395  0.0693
   12CHTO  H149 4811   5.588   9.471   8.235 -0.8593 -0.4865 -0.8824
   12CHTO   C88 4812   5.678   9.308   8.153  0.0741 -0.1739 -0.1794
   12CHTO   O58 4813   5.581   9.248   8.200 -0.2513  0.3828  0.7495
   12CHTO  H136 4814   5.518   9.255   8.130  0.7524 -1.6444 -0.4071
   12CHTO   O51 4815   5.894   9.731   8.194 -0.2577  0.4129 -0.4916
   12CHTO   C78 4816   6.021   9.650   8.254 -0.3877 -0.5207  0.2053
   12CHTO  H150 4817   6.028   9.547   8.215 -0.2796 -0.5172  0.2153
   12CHTO   C80 4818   6.002   9.648   8.406  0.2744  0.2682  0.0179
   12CHTO  H152 4819   5.984   9.751   8.442 -0.3807 -0.7402  2.7588
   12CHTO   O55 4820   5.891   9.561   8.437 -0.5531  0.1654 -0.1492
   12CHTO  H134 4821   5.914   9.472   8.418  1.1189  0.5132  0.2302
   12CHTO   C84 4822   6.129   9.597   8.490 -0.2043 -0.1113  0.1099
   12CHTO  H156 4823   6.142   9.490   8.474  3.5673  0.1644  0.9372
   12CHTO   N15 4824   6.121   9.633   8.636  0.6572  0.7609  0.2721
   12CHTO  H143 4825   6.084   9.551   8.694 -1.1110  0.6186 -1.0091
   12CHTO  H144 4826   6.060   9.720   8.653  0.6468  0.3706  2.3509
   12CHTO   C87 4827   6.257   9.662   8.428 -0.0163  0.2661 -0.5219
   12CHTO  H159 4828   6.256   9.767   8.458 -2.6125  0.1566 -0.1341
   12CHTO   O53 4829   6.254   9.651   8.276 -0.7829  0.0121 -0.1366
   12CHTO   C82 4830   6.148   9.736   8.223 -0.2636  0.3326  0.1314
   12CHTO  H154 4831   6.130   9.831   8.274  0.1483  0.0912  0.7387
   12CHTO   C89 4832   6.162   9.769   8.071  0.3715 -0.1942 -0.1080
   12CHTO   O59 4833   6.280   9.835   8.029  0.0280 -0.1234 -0.0903
   12CHTO  H137 4834   6.256   9.902   7.969 -0.9203  0.2715  0.7281
   12CHTO   O45 4835   6.389   9.603   8.479  0.1856 -0.3570 -0.2153
   12CHTO   C67 4836   6.446   9.479   8.451  0.3481  0.5731  0.6956
   12CHTO  H124 4837   6.366   9.410   8.422  0.3800 -0.6803  3.4484
   12CHTO   C65 4838   6.543   9.490   8.335 -0.1969  0.3631  0.1354
   12CHTO  H122 4839   6.491   9.554   8.263  0.1166 -0.9486 -1.3038
   12CHTO   O44 4840   6.554   9.354   8.279 -0.4325 -0.5570  0.4443
   12CHTO  H102 4841   6.627   9.314   8.321 -0.5920  0.8911  2.1725
   12CHTO   C63 4842   6.672   9.574   8.382  0.1184 -0.0045 -0.2097
   12CHTO  H120 4843   6.635   9.667   8.425  0.8342  0.6352 -0.9650
   12CHTO   N11 4844   6.759   9.614   8.269 -0.1683 -0.1226  0.4689
   12CHTO  H108 4845   6.823   9.699   8.276  3.2773 -2.2840 -3.1202
   12CHTO  H109 4846   6.699   9.610   8.181 -0.0134 -0.6233  0.3820
   12CHTO   C61 4847   6.746   9.491   8.492  0.1379 -0.9743  0.2412
   12CHTO  H118 4848   6.828   9.551   8.533 -0.7290 -1.2219  2.4695
   12CHTO   O40 4849   6.651   9.460   8.607 -0.5476  0.1825 -0.3564
   12CHTO   C68 4850   6.515   9.424   8.582  0.2557  0.3573 -0.0376
   12CHTO  H125 4851   6.456   9.467   8.666  0.9762 -2.5318  2.0537
   12CHTO   C72 4852   6.495   9.270   8.598  0.1965  0.5222  0.4136
   12CHTO   O48 4853   6.538   9.211   8.720  0.6442  0.4896 -0.2044
   12CHTO  H105 4854   6.631   9.217   8.731  0.7554 -1.4157  0.1139
   12CHTO   O38 4855   6.811   9.373   8.441  0.4795  0.0990 -0.0218
   12CHTO   C55 4856   6.921   9.308   8.508  0.0148  0.3031 -0.3034
   12CHTO  H112 4857   6.899   9.311   8.615  1.7278 -1.1149  0.1084
   12CHTO   C56 4858   7.064   9.382   8.471  0.5170 -0.5293 -0.6234
   12CHTO  H113 4859   7.068   9.409   8.365 -0.8415  2.5886  0.0614
   12CHTO   O42 4860   7.059   9.512   8.534 -0.6741  0.4084 -0.1045
   12CHTO  H100 4861   7.006   9.572   8.484  2.8393  1.8348 -2.2595
   12CHTO   C57 4862   7.190   9.305   8.525 -1.0152 -0.0898  0.5056
   12CHTO  H114 4863   7.189   9.301   8.633 -0.7098 -0.7932  0.4898
   12CHTO   N10 4864   7.315   9.368   8.476 -0.2708 -0.1876  0.5379
   12CHTO  H106 4865   7.292   9.433   8.393 -1.8037 -1.2157  0.1445
   12CHTO  H107 4866   7.386   9.414   8.543  0.3473  0.2609 -0.4116
   12CHTO   C58 4867   7.188   9.156   8.482 -0.3801 -0.2764 -0.0945
   12CHTO  H115 4868   7.210   9.145   8.373 -1.7734 -1.0236 -0.3214
   12CHTO   O37 4869   7.057   9.099   8.521 -0.1471  0.1124  0.0820
   12CHTO   C59 4870   6.935   9.159   8.461 -0.3358 -0.2103 -0.2937
   12CHTO  H116 4871   6.950   9.157   8.354 -1.2234 -4.9825 -0.4410
   12CHTO   C70 4872   6.811   9.074   8.503  0.6077 -0.3161 -0.2563
   12CHTO   O46 4873   6.795   9.030   8.637 -0.0177  0.6792 -0.4381
   12CHTO  H103 4874   6.854   8.957   8.643 -1.3269 -0.3699 -0.2600
   12CHTO   O39 4875   7.290   9.068   8.573  0.1157 -0.7499  0.3636
   12CHTO   C60 4876   7.352   8.952   8.514 -0.2758  0.0735 -0.5087
   12CHTO  H117 4877   7.283   8.893   8.453 -3.4882  2.3512  0.8028
   12CHTO   C62 4878   7.465   9.002   8.425  0.8873  0.0285  0.0282
   12CHTO  H119 4879   7.411   9.049   8.340 -0.6791 -2.7791 -0.6104
   12CHTO   O43 4880   7.551   9.100   8.489  0.2596  0.5308  0.1555
   12CHTO  H101 4881   7.570   9.176   8.437 -0.2018 -0.6413 -1.7820
   12CHTO   C66 4882   7.546   8.872   8.364 -0.3972  0.3447 -0.2077
   12CHTO  H123 4883   7.473   8.794   8.340 -0.9057  0.5695  0.6053
   12CHTO   N12 4884   7.631   8.905   8.251 -0.2550  0.5172 -0.0172
   12CHTO  H110 4885   7.696   8.826   8.218 -0.6954  0.5661 -1.0217
   12CHTO  H111 4886   7.578   8.946   8.167  1.0148 -1.2860 -1.7407
   12CHTO   C69 4887   7.619   8.812   8.488 -0.4128  0.0631 -0.0826
   12CHTO  H126 4888   7.690   8.885   8.532  0.0373  0.7400 -1.8685
   12CHTO   O41 4889   7.522   8.763   8.596 -0.3668  0.1580 -0.3703
   12CHTO   C64 4890   7.402   8.862   8.632  0.1490  0.7996  0.3078
   12CHTO  H121 4891   7.442   8.928   8.712  0.7397 -0.5662  1.1662
   12CHTO   C71 4892   7.289   8.770   8.682 -0.1547 -0.1723 -0.7063
   12CHTO   O47 4893   7.266   8.809   8.819 -0.6908  0.1484 -0.2033
   12CHTO  H104 4894   7.275   8.738   8.880 -1.3239 -0.5218 -0.8774
   12CHTO   O34 4895   7.697   8.691   8.452  0.2938  0.0143 -0.2399
   12CHTO   C49 4896   7.807   8.594   8.458  0.0356  0.4661  0.5368
   12CHTO   H91 4897   7.896   8.657   8.447  1.4809 -1.6717 -0.1652
   12CHTO   C47 4898   7.797   8.492   8.346  0.2883  0.4108 -1.1303
   12CHTO   H89 4899   7.890   8.433   8.355  1.4100  2.2708 -0.1781
   12CHTO   O33 4900   7.807   8.568   8.227 -0.1189 -0.3347 -0.4395
   12CHTO   H70 4901   7.857   8.525   8.160  0.2653  0.5815 -0.7477
   12CHTO   C45 4902   7.660   8.414   8.359 -0.1299  0.7122  0.3267
   12CHTO   H87 4903   7.581   8.460   8.298  0.1631  1.1139  0.2538
   12CHTO    N8 4904   7.688   8.279   8.305 -0.2437  0.3141  0.0464
   12CHTO   H75 4905   7.668   8.198   8.374  0.5306  0.2022  0.1375
   12CHTO   H76 4906   7.633   8.275   8.212 -1.9748 -2.1149  1.1013
   12CHTO   C43 4907   7.602   8.410   8.517 -0.0295 -0.6895 -0.1938
   12CHTO   H85 4908   7.560   8.510   8.526  3.0470  0.7959 -1.8199
   12CHTO   O29 4909   7.718   8.396   8.604 -0.5453  0.1856  0.6768
   12CHTO   C50 4910   7.804   8.513   8.593 -0.0108 -0.2398  0.1288
   12CHTO   H92 4911   7.779   8.581   8.676  3.3629  0.7747  0.3706
   12CHTO   C54 4912   7.944   8.465   8.630  0.1142 -0.6404  0.4256
   12CHTO   O36 4913   7.962   8.419   8.765  0.1216  0.4032  0.1632
   12CHTO   H72 4914   8.053   8.407   8.786 -0.0376 -1.3169 -0.0967
   12CHTO   O27 4915   7.504   8.308   8.536  0.4465 -0.2077 -0.2765
   12CHTO   C37 4916   7.377   8.311   8.612  0.0911  0.2004 -0.0665
   12CHTO   H79 4917   7.343   8.206   8.611 -0.5714  0.4143 -0.9326
   12CHTO   C38 4918   7.402   8.361   8.758 -0.3764 -0.3477 -1.2055
   12CHTO   H80 4919   7.440   8.464   8.749 -0.7829 -0.1075 -0.2143
   12CHTO   O31 4920   7.507   8.282   8.812  0.2788 -0.1509 -0.7404
   12CHTO   H68 4921   7.592   8.295   8.776 -0.6222  0.1256 -2.8707
   12CHTO   C39 4922   7.269   8.348   8.845  0.5475  0.8319 -0.0519
   12CHTO   H81 4923   7.242   8.243   8.842 -1.6795  1.3169  1.9104
   12CHTO    N7 4924   7.278   8.406   8.987 -0.4365  0.9693 -0.1245
   12CHTO   H73 4925   7.291   8.513   8.986 -0.7547  1.0283  1.1148
   12CHTO   H74 4926   7.191   8.372   9.041 -0.6134  0.6198 -0.6241
   12CHTO   C40 4927   7.155   8.426   8.764  0.1847  0.7755 -0.3205
   12CHTO   H82 4928   7.170   8.534   8.769 -0.7468  0.9121 -0.3045
   12CHTO   O26 4929   7.144   8.378   8.624 -0.2249 -0.5000  0.9546
   12CHTO   C41 4930   7.265   8.396   8.543  0.9722  0.4683 -0.4087
   12CHTO   H83 4931   7.299   8.500   8.531 -0.6458  1.0481 -0.1205
   12CHTO   C52 4932   7.223   8.334   8.413  0.4117 -0.5878 -0.3845
   12CHTO   O35 4933   7.330   8.346   8.291  0.2620 -0.3150  0.1259
   12CHTO   H71 4934   7.399   8.404   8.315 -0.7898  1.7436 -1.6585
   12CHTO   O28 4935   7.019   8.406   8.812  0.1882 -0.2983  0.1055
   12CHTO   C42 4936   6.899   8.472   8.754  0.8227  0.2496  0.3004
   12CHTO   H84 4937   6.826   8.435   8.827  2.1049  1.2759  2.1400
   12CHTO   C44 4938   6.849   8.423   8.615 -0.7717  0.5427  0.2931
   12CHTO   H86 4939   6.935   8.424   8.549  0.0712 -2.2265  1.2790
   12CHTO   O32 4940   6.810   8.288   8.632 -0.3427  0.1121 -0.0276
   12CHTO   H69 4941   6.721   8.279   8.661 -0.4313  0.1204 -0.2994
   12CHTO   C48 4942   6.748   8.519   8.538  0.6189 -0.4879 -0.3142
   12CHTO   H90 4943   6.649   8.503   8.580  0.2272  1.3056 -0.5334
   12CHTO    N9 4944   6.733   8.487   8.394 -0.6997 -0.0589 -0.1924
   12CHTO   H77 4945   6.640   8.523   8.352 -0.0183  1.4127 -0.4525
   12CHTO   H78 4946   6.760   8.385   8.371 -1.9264 -0.0984 -1.4986
   12CHTO   C51 4947   6.784   8.667   8.567 -0.0158 -0.0040  0.1215
   12CHTO   H93 4948   6.877   8.688   8.514  0.1505  2.5594  1.3454
   12CHTO   O30 4949   6.799   8.688   8.708  0.0159  0.2600 -0.3006
   12CHTO   C46 4950   6.904   8.632   8.767 -0.0177 -0.6423  0.8821
   12CHTO   H88 4951   6.990   8.673   8.714 -2.0106  1.6001 -0.7505
   12CHTO   C53 4952   6.904   8.678   8.917  0.6043 -0.3563  0.3578
   12CHTO   O72 4953   7.036   8.660   8.981  0.6942  0.1460  0.3017
   12CHTO  H199 4954   7.045   8.736   9.036 -2.1705 -0.4635  1.7263
   12CHTO   O22 4955   6.680   8.762   8.525  0.1392 -0.1795 -0.4481
   12CHTO   C31 4956   6.529   8.759   8.523 -0.2055 -0.9821 -0.6939
   12CHTO   H59 4957   6.504   8.654   8.501  0.0674 -1.1875 -0.0634
   12CHTO   C29 4958   6.460   8.805   8.656  0.0696  1.1093  1.5400
   12CHTO   H57 4959   6.511   8.900   8.678 -0.9608  2.2473 -0.7624
   12CHTO   O21 4960   6.494   8.708   8.758 -0.0919  0.5305  0.2869
   12CHTO   H37 4961   6.585   8.695   8.774 -0.3159  1.0875  2.0815
   12CHTO   C27 4962   6.307   8.838   8.639  0.2807 -0.3373  0.0713
   12CHTO   H55 4963   6.248   8.746   8.628  0.2103 -0.4398  1.1984
   12CHTO    N5 4964   6.251   8.902   8.763  0.1703  0.5933 -1.1817
   12CHTO   H43 4965   6.196   8.847   8.838  3.2570  0.0495  0.7871
   12CHTO   H44 4966   6.332   8.943   8.822  0.8964 -1.8161 -0.4274
   12CHTO   C25 4967   6.282   8.930   8.518  0.0327  0.0684 -0.8794
   12CHTO   H53 4968   6.326   9.030   8.530 -0.2482  0.5111 -3.2787
   12CHTO   O17 4969   6.332   8.860   8.398  0.2012 -0.1577 -0.2225
   12CHTO   C32 4970   6.473   8.842   8.401 -0.1253 -0.6100  0.2497
   12CHTO   H60 4971   6.521   8.939   8.404 -1.1403 -0.0549 -0.9260
   12CHTO   C36 4972   6.521   8.782   8.264  0.0110 -0.0678  0.0436
   12CHTO   O25 4973   6.453   8.857   8.167  0.3799 -0.2887  0.4398
   12CHTO   H40 4974   6.467   8.815   8.084 -1.7767  0.4950 -0.3291
   12CHTO   O15 4975   6.127   8.973   8.496 -0.5817  0.2160  0.0354
   12CHTO   C19 4976   6.068   9.024   8.380 -0.4252 -0.4077 -0.2833
   12CHTO   H47 4977   5.969   9.063   8.411 -0.6096  1.8119 -3.3895
   12CHTO   C20 4978   6.136   9.150   8.315 -0.8632  0.2590 -0.0949
   12CHTO   H48 4979   6.239   9.125   8.285 -1.4197 -2.2295 -0.0200
   12CHTO   O19 4980   6.143   9.248   8.415 -0.5532  0.1046 -0.5596
   12CHTO   H35 4981   6.192   9.204   8.482 -0.6796 -0.7390 -1.0276
   12CHTO   C21 4982   6.058   9.202   8.188 -0.2412 -0.0929  0.0926
   12CHTO   H49 4983   5.957   9.234   8.213 -0.1929  0.2800 -0.1800
   12CHTO    N4 4984   6.117   9.314   8.117  0.2557  0.9452  0.3215
   12CHTO   H41 4985   6.129   9.298   8.010 -0.0478 -2.1824  0.7295
   12CHTO   H42 4986   6.057   9.402   8.136 -0.2280  0.7101 -0.1006
   12CHTO   C22 4987   6.032   9.083   8.091 -0.1486  0.4938 -0.8435
   12CHTO   H50 4988   6.128   9.044   8.057 -0.5235 -1.3576  0.1675
   12CHTO   O14 4989   5.961   8.974   8.159 -0.1037 -0.0009  0.2550
   12CHTO   C23 4990   6.043   8.918   8.264 -0.4111  0.0859 -0.1071
   12CHTO   H51 4991   6.136   8.876   8.222 -0.5095  1.1095 -1.3794
   12CHTO   C34 4992   5.973   8.793   8.323  0.1186 -0.3743 -0.6527
   12CHTO   O23 4993   5.849   8.838   8.379  0.5339 -1.0724 -0.1796
   12CHTO   H38 4994   5.793   8.765   8.397 -1.4579  0.8989  1.9658
   12CHTO   O16 4995   5.944   9.104   7.975  0.5754 -0.2168  0.2331
   12CHTO   C24 4996   5.966   8.994   7.846 -0.1978  0.0369 -0.6847
   12CHTO   H52 4997   6.024   8.906   7.873  0.1713 -0.2236 -2.2522
   12CHTO   C26 4998   6.024   9.062   7.721 -0.2549  0.3567 -0.0851
   12CHTO   H54 4999   5.967   9.154   7.700 -0.8213  0.1777  0.6476
   12CHTO   O20 5000   6.162   9.110   7.742  0.8843 -0.5282 -0.7003
   12CHTO   H36 5001   6.161   9.173   7.812  2.5641 -0.1807 -0.9834
   12CHTO   C30 5002   6.016   8.969   7.597  0.2901  0.2653  0.7407
   12CHTO   H58 5003   6.087   8.885   7.604  1.7062  1.1456 -2.1483
   12CHTO    N6 5004   6.064   9.038   7.473 -0.2690  0.1564  0.5809
   12CHTO   H45 5005   6.060   9.145   7.484 -0.2099  0.0006  2.2492
   12CHTO   H46 5006   6.167   9.011   7.454 -0.5821 -0.3289 -0.5089
   12CHTO   C33 5007   5.877   8.911   7.582 -0.2207  0.4906 -0.0236
   12CHTO   H61 5008   5.806   8.992   7.557  2.0740  2.0652 -1.6270
   12CHTO   O18 5009   5.828   8.851   7.699  0.0150  0.2912 -0.5821
   12CHTO   C28 5010   5.824   8.945   7.812 -0.2790 -0.6281 -0.3730
   12CHTO   H56 5011   5.763   9.030   7.780 -0.1036  0.3977  1.9405
   12CHTO   C35 5012   5.747   8.878   7.926 -0.8253  0.2718  0.2548
   12CHTO   O24 5013   5.605   8.855   7.896 -0.0927  0.0180  0.2880
   12CHTO   H39 5014   5.586   8.789   7.960  1.2283 -0.1679  0.5072
   12CHTO    O9 5015   5.876   8.818   7.476 -0.1710 -0.7579  0.3397
   12CHTO   C13 5016   5.957   8.683   7.493 -0.0884  0.7421 -0.4590
   12CHTO   H26 5017   6.021   8.691   7.584  0.3358 -0.4352 -0.6494
   12CHTO   C11 5018   6.043   8.651   7.363  0.0183  0.0966 -0.0598
   12CHTO   H24 5019   6.113   8.735   7.351 -0.2291  0.0605 -1.8625
   12CHTO    O8 5020   5.963   8.640   7.242 -0.2890  0.6602  0.4057
   12CHTO    H3 5021   6.004   8.681   7.168  1.0398  2.1552  1.9165
   12CHTO    C9 5022   6.121   8.524   7.405  0.3931  0.5950 -0.0069
   12CHTO   H22 5023   6.179   8.553   7.493  1.6974  0.1133 -0.6986
   12CHTO    N2 5024   6.220   8.477   7.298 -0.1841 -0.0691  0.6581
   12CHTO   H10 5025   6.219   8.530   7.203  1.0854  0.3193  0.8480
   12CHTO   H11 5026   6.206   8.372   7.281  2.4405 -0.2450 -0.7563
   12CHTO    C7 5027   6.020   8.406   7.441  0.5202 -0.8837 -0.8657
   12CHTO   H20 5028   6.090   8.331   7.483  0.8294 -0.1410 -0.0351
   12CHTO    O4 5029   5.927   8.448   7.540  0.4382  0.3354  0.7884
   12CHTO   C14 5030   5.854   8.572   7.538  0.6213 -0.3869 -0.2134
   12CHTO   H27 5031   5.825   8.590   7.644  1.1437 -1.3551  0.0959
   12CHTO   C18 5032   5.722   8.554   7.461 -0.1702 -0.1077 -1.1039
   12CHTO   O13 5033   5.625   8.460   7.516  0.5233 -0.1865  0.4327
   12CHTO    H7 5034   5.609   8.402   7.445 -1.1717  1.2440 -0.3802
   12CHTO    O2 5035   5.947   8.335   7.312  0.5563 -1.2018 -0.2442
   12CHTO    C1 5036   5.932   8.188   7.325 -0.9511  0.2246 -0.6143
   12CHTO   H14 5037   5.913   8.153   7.428 -0.8158  1.1804 -0.2613
   12CHTO    C2 5038   6.073   8.110   7.281  0.0216 -0.5374 -1.0171
   12CHTO   H15 5039   6.099   8.153   7.183 -2.2683 -0.4391 -1.6179
   12CHTO    O6 5040   6.178   8.138   7.379 -0.0009  0.3608 -0.1551
   12CHTO    H1 5041   6.256   8.122   7.331  0.2794 -2.2924  1.0351
   12CHTO    C3 5042   6.060   7.959   7.259  0.8840  0.5998 -0.4064
   12CHTO   H16 5043   6.030   7.925   7.359  1.0735 -2.0382 -1.2013
   12CHTO    N1 5044   6.180   7.883   7.215 -0.5442 -0.3694 -0.1555
   12CHTO    H8 5045   6.248   7.956   7.175 -0.9299 -0.4331 -0.9290
   12CHTO    H9 5046   6.222   7.833   7.302 -3.4437 -2.0147  0.3964
   12CHTO    C4 5047   5.942   7.926   7.161  0.1015  0.0179  0.1094
   12CHTO   H17 5048   5.961   7.969   7.063  3.1051 -0.7200  0.3326
   12CHTO    O1 5049   5.821   7.993   7.210  0.3113  0.1802  0.1384
   12CHTO    C5 5050   5.835   8.138   7.222  0.1249 -0.2969  0.1574
   12CHTO   H18 5051   5.865   8.174   7.124  0.6257 -2.5181 -0.5372
   12CHTO   C16 5052   5.692   8.194   7.256  0.2759 -0.5434 -0.6680
   12CHTO   O11 5053   5.614   8.179   7.139 -0.4217 -0.4760 -0.0373
   12CHTO    H5 5054   5.603   8.264   7.102  0.8704 -0.2024  0.1678
   12CHTO    O3 5055   5.914   7.784   7.149 -0.3379  0.7071 -0.8004
   12CHTO    C6 5056   5.872   7.717   7.022 -0.9952 -0.0070  0.5387
   12CHTO   H19 5057   5.843   7.793   6.949  1.6064 -1.2036 -1.8096
   12CHTO    C8 5058   5.994   7.629   6.971 -0.8845 -0.4868  0.4486
   12CHTO   H21 5059   6.020   7.567   7.057 -2.2867 -2.1923 -0.3298
   12CHTO    O7 5060   6.109   7.716   6.933 -0.4279  0.1731 -0.1433
   12CHTO    H2 5061   6.195   7.686   6.953 -0.5774 -0.7538 -0.8371
   12CHTO   C12 5062   5.960   7.518   6.855  1.2524 -0.1602 -0.8693
   12CHTO   H25 5063   5.947   7.574   6.760 -1.2678  0.3294 -0.2771
   12CHTO    N3 5064   6.073   7.414   6.844 -0.6832 -0.0191  0.4729
   12CHTO   H12 5065   6.168   7.453   6.810 -1.2519 -0.2593 -1.4634
   12CHTO   H13 5066   6.034   7.323   6.801 -2.4784  2.3616 -3.2523
   12CHTO   C15 5067   5.824   7.451   6.895  0.0688 -0.2430 -0.4402
   12CHTO   H28 5068   5.836   7.384   6.980  2.4213 -2.2700 -2.2968
   12CHTO   O10 5069   5.756   7.380   6.783 -0.0215 -0.0989  0.0916
   12CHTO    H4 5070   5.689   7.322   6.814 -0.4944  1.2940  1.7420
   12CHTO    O5 5071   5.720   7.552   6.921 -0.2263 -0.8171 -0.5752
   12CHTO   C10 5072   5.749   7.622   7.042 -0.4677  0.1065 -0.7338
   12CHTO   H23 5073   5.771   7.556   7.125 -2.5831 -0.0775 -0.2862
   12CHTO   C17 5074   5.621   7.694   7.095 -0.3021  0.5332  0.0850
   12CHTO   O12 5075   5.562   7.778   6.996 -0.6241 -0.1264  0.0724
   12CHTO    H6 5076   5.494   7.822   7.043 -0.8871 -0.3733 -0.0785
   13CHTO  H203 5077   7.115   5.221   3.333 -0.9300 -1.9333 -0.9260
   13CHTO   O82 5078   7.104   5.248   3.244 -0.5532 -0.1311 -0.4380
   13CHTO  C123 5079   7.003   5.345   3.241  0.2082  0.3728  0.6121
   13CHTO  H227 5080   6.954   5.347   3.339 -2.6592 -1.2245 -0.7109
   13CHTO   O77 5081   7.070   5.467   3.194 -0.1303  0.6153 -0.1027
   13CHTO  C118 5082   6.979   5.577   3.191 -0.4173  0.4380  0.6848
   13CHTO  H222 5083   6.936   5.595   3.291  1.3650  0.9014  1.3759
   13CHTO  C125 5084   7.064   5.700   3.159  0.4081 -0.2240  0.6197
   13CHTO   O84 5085   7.163   5.729   3.255  0.6536 -0.5045 -0.2222
   13CHTO  H205 5086   7.200   5.813   3.239 -1.5762  0.6108  0.2303
   13CHTO  C114 5087   6.870   5.551   3.082  0.2478  0.6043  0.1372
   13CHTO  H218 5088   6.913   5.515   2.988 -2.4082 -0.2870 -0.8002
   13CHTO  C116 5089   6.791   5.418   3.118  0.7962  0.3757 -0.2126
   13CHTO  H220 5090   6.742   5.442   3.214 -0.2364 -0.9386 -0.3937
   13CHTO   O79 5091   6.690   5.397   3.022  0.0692  0.1061  0.2169
   13CHTO  H201 5092   6.626   5.337   3.054 -0.9707  0.2691 -1.5017
   13CHTO  C120 5093   6.891   5.297   3.139  0.0818 -0.2153  0.3444
   13CHTO  H224 5094   6.937   5.263   3.043  1.8077 -0.4596  1.2337
   13CHTO   N21 5095   6.821   5.178   3.199 -0.3058 -0.2372 -0.1438
   13CHTO  H211 5096   6.731   5.164   3.140 -0.1352 -1.2532 -0.1685
   13CHTO  H212 5097   6.810   5.182   3.306 -0.0157  0.1371 -0.1271
   13CHTO   O75 5098   6.786   5.676   3.068 -0.4888  0.0191  0.3199
   13CHTO  C112 5099   6.699   5.726   3.209 -0.9351  0.0728 -0.3171
   13CHTO  H216 5100   6.770   5.714   3.293 -0.7136 -0.5273 -0.5865
   13CHTO   O73 5101   6.591   5.631   3.227  0.3077  0.2595 -0.2063
   13CHTO  C113 5102   6.525   5.671   3.350  0.7676  0.1802  0.2657
   13CHTO  H217 5103   6.605   5.675   3.427  2.2073  1.4409 -1.2797
   13CHTO  C124 5104   6.433   5.553   3.395  1.0053 -0.3915 -0.0931
   13CHTO   O83 5105   6.496   5.424   3.403  0.5239 -0.6675 -0.0620
   13CHTO  H204 5106   6.433   5.362   3.434 -0.0328  0.5617  1.3015
   13CHTO  C109 5107   6.456   5.810   3.343  0.5711 -0.6728  0.0774
   13CHTO  H213 5108   6.385   5.801   3.259  0.4387 -0.8232  0.2063
   13CHTO  C110 5109   6.569   5.912   3.322  0.1109  0.3707  0.0121
   13CHTO  H214 5110   6.628   5.904   3.413  0.1459 -2.4366 -0.2032
   13CHTO   O78 5111   6.525   6.045   3.297 -0.5699 -0.0682  0.4768
   13CHTO  H200 5112   6.518   6.087   3.381  0.5883 -1.9397  1.5457
   13CHTO  C111 5113   6.659   5.870   3.202 -0.5811  0.4519 -0.0289
   13CHTO  H215 5114   6.602   5.884   3.109  0.8620  0.3116 -0.9442
   13CHTO   N19 5115   6.784   5.958   3.185  0.2479 -0.1119  0.2871
   13CHTO  H207 5116   6.777   6.001   3.086 -2.5576  0.7152  0.8239
   13CHTO  H208 5117   6.769   6.038   3.256 -3.3987 -1.4582  1.0968
   13CHTO   O74 5118   6.385   5.832   3.469 -0.4875  0.3651  0.4452
   13CHTO  C115 5119   6.236   5.882   3.464 -0.0201  0.3273  0.0344
   13CHTO  H219 5120   6.209   5.922   3.366 -0.7199 -1.4195 -0.4925
   13CHTO   O76 5121   6.128   5.755   3.492  0.0100 -0.3918 -0.5211
   13CHTO  C122 5122   6.104   5.745   3.630 -0.3270  0.4182 -0.9817
   13CHTO  H226 5123   6.205   5.715   3.658 -1.9001 -2.8539  1.5456
   13CHTO  C126 5124   6.015   5.618   3.654  0.1471 -0.2167  0.6876
   13CHTO   O85 5125   6.006   5.581   3.791  0.1795 -0.1779  0.2173
   13CHTO  H206 5126   5.949   5.646   3.828 -1.0359 -0.2422 -1.4775
   13CHTO  C121 5127   6.042   5.873   3.699  0.3830 -0.5848 -0.0790
   13CHTO  H225 5128   5.934   5.851   3.716 -0.1207  1.6249 -0.3178
   13CHTO   O81 5129   6.097   5.905   3.828 -0.7395 -0.4273  0.8087
   13CHTO  H202 5130   6.056   5.857   3.898  1.0115 -0.9572  1.5174
   13CHTO  C119 5131   6.060   5.999   3.605  0.6298  0.4544 -0.5618
   13CHTO  H223 5132   6.010   5.974   3.511  1.8775 -0.5561 -0.9601
   13CHTO  C117 5133   6.215   6.004   3.561  1.0246 -0.2597  0.2810
   13CHTO  H221 5134   6.295   5.993   3.634  1.8374 -0.0556 -0.5691
   13CHTO   N20 5135   6.243   6.135   3.491  0.0355 -0.3613 -0.0825
   13CHTO  H209 5136   6.273   6.204   3.568  1.8450  0.2493 -1.3058
   13CHTO  H210 5137   6.308   6.138   3.405  0.8342  0.3632  0.5400
   13CHTO   O80 5138   5.979   6.138   3.653  0.5416 -0.2782 -0.0069
   13CHTO  C103 5139   5.831   6.150   3.639 -0.3162 -0.5363 -0.2621
   13CHTO  H190 5140   5.807   6.256   3.632  1.5509 -0.0227  0.6060
   13CHTO  C101 5141   5.759   6.077   3.522  0.4369 -0.4350 -0.3529
   13CHTO  H188 5142   5.789   5.972   3.531  2.1216  0.1663  1.3802
   13CHTO   O68 5143   5.812   6.124   3.400  0.5905 -0.6062  0.0237
   13CHTO  H168 5144   5.897   6.090   3.380  0.2881 -1.0697 -0.4669
   13CHTO   C99 5145   5.600   6.091   3.539 -0.0691 -0.2719  0.1312
   13CHTO  H186 5146   5.575   6.199   3.539  0.4683 -0.1004 -2.4844
   13CHTO   N17 5147   5.523   6.016   3.433  0.1112  0.2193 -0.4504
   13CHTO  H174 5148   5.420   6.010   3.465  0.8208  1.1963  2.1702
   13CHTO  H175 5149   5.570   5.919   3.436 -2.7641 -1.2033  0.6839
   13CHTO   C97 5150   5.556   6.041   3.678  0.0871 -0.8325 -0.4564
   13CHTO  H184 5151   5.572   5.933   3.691  0.7896 -0.6854 -0.0982
   13CHTO   O64 5152   5.629   6.122   3.773  0.6230 -0.8032 -0.7235
   13CHTO  C104 5153   5.772   6.101   3.768 -0.2036  0.0920 -0.1722
   13CHTO  H191 5154   5.804   5.999   3.790  0.9863  0.7222  1.1579
   13CHTO  C108 5155   5.825   6.187   3.885 -0.0371 -0.6693 -0.1308
   13CHTO   O71 5156   5.772   6.324   3.887 -0.2516 -0.1281  0.7427
   13CHTO  H171 5157   5.809   6.380   3.953 -0.1523  1.2564 -0.4668
   13CHTO   O62 5158   5.416   6.067   3.709  0.1843  0.3931  0.3086
   13CHTO   C91 5159   5.351   5.983   3.811 -0.2247 -0.1291 -0.4568
   13CHTO  H178 5160   5.428   5.924   3.861  0.5617  2.2111  1.1410
   13CHTO   C92 5161   5.261   5.886   3.727 -0.7214 -0.1745 -0.4680
   13CHTO  H179 5162   5.204   5.942   3.652 -0.4164 -0.5194 -0.9538
   13CHTO   O66 5163   5.335   5.811   3.639 -0.0714 -0.5159 -0.0479
   13CHTO  H166 5164   5.317   5.720   3.650  0.9616 -0.6467  0.6764
   13CHTO   C93 5165   5.159   5.802   3.813  0.4313 -0.6429 -0.8953
   13CHTO  H180 5166   5.229   5.737   3.868 -2.1658 -1.3881  1.6774
   13CHTO   N16 5167   5.069   5.719   3.732  0.2109  0.2850  0.3295
   13CHTO  H172 5168   5.109   5.620   3.717  2.3487  1.4280 -1.9061
   13CHTO  H173 5169   4.976   5.715   3.786  0.2878  1.1560  0.5374
   13CHTO   C94 5170   5.083   5.895   3.915  0.5533  0.4861  0.4623
   13CHTO  H181 5171   5.019   5.966   3.863 -2.9066 -2.7494  0.0213
   13CHTO   O61 5172   5.174   5.972   3.999  0.0451  0.3825 -0.1160
   13CHTO   C95 5173   5.263   6.063   3.923  0.2505  0.3745  0.4861
   13CHTO  H182 5174   5.199   6.129   3.864  0.4293  0.0199 -0.1114
   13CHTO  C106 5175   5.362   6.151   4.009 -0.2507  0.2204  0.3773
   13CHTO   O69 5176   5.286   6.214   4.108  0.9842 -0.4866  0.4276
   13CHTO  H169 5177   5.341   6.248   4.176 -0.7792  0.9402  1.1784
   13CHTO   O63 5178   4.984   5.804   4.034 -0.4699  0.1101  0.5469
   13CHTO   C96 5179   4.905   5.881   4.127  0.0476  0.2356  0.2045
   13CHTO  H183 5180   4.876   5.974   4.078 -1.0530 -0.8202 -1.1743
   13CHTO   C98 5181   4.980   5.913   4.263 -0.2929 -0.2967  0.1486
   13CHTO  H185 5182   5.082   5.951   4.249  0.4073 -1.2948  2.3508
   13CHTO   O67 5183   4.909   6.019   4.329  0.1340 -0.6560  0.4593
   13CHTO  H167 5184   4.945   6.099   4.298 -2.3584 -0.0073 -0.9359
   13CHTO  C102 5185   4.980   5.790   4.364  0.1875  0.8278 -0.8585
   13CHTO  H189 5186   5.018   5.829   4.460  1.1630  1.0293 -1.3222
   13CHTO   N18 5187   5.071   5.675   4.325  0.0581 -0.2877 -0.3802
   13CHTO  H176 5188   5.016   5.582   4.321 -1.0755  0.4306 -2.1136
   13CHTO  H177 5189   5.113   5.693   4.227 -1.8340 -1.7854 -1.5031
   13CHTO  C105 5190   4.836   5.737   4.388  0.4628  0.4081 -0.0156
   13CHTO  H192 5191   4.834   5.628   4.387  0.8664  0.4022 -0.4941
   13CHTO   O65 5192   4.734   5.776   4.297 -0.0212  0.2748  0.0429
   13CHTO  C100 5193   4.775   5.790   4.155 -0.6617  0.4293  0.2765
   13CHTO  H187 5194   4.788   5.693   4.105 -0.7298 -0.6050  2.1979
   13CHTO  C107 5195   4.644   5.836   4.087  0.6857 -0.8023 -0.2366
   13CHTO   O70 5196   4.654   5.954   4.010  0.5467 -0.1965 -0.0556
   13CHTO  H170 5197   4.690   6.025   4.061  0.4554  2.0361 -3.0072
   13CHTO   O57 5198   4.805   5.788   4.530 -0.4869 -0.1743 -0.5245
   13CHTO   C85 5199   4.843   5.705   4.641 -1.0248 -0.0276 -0.5433
   13CHTO  H157 5200   4.943   5.666   4.611 -0.8950 -1.7749  2.0345
   13CHTO   C83 5201   4.751   5.577   4.656  0.1302  0.8322 -0.0219
   13CHTO  H155 5202   4.761   5.515   4.566  1.4148 -0.4089  0.9556
   13CHTO   O56 5203   4.621   5.630   4.658 -0.2771  0.1204  0.0866
   13CHTO  H135 5204   4.564   5.556   4.647  1.4833 -1.6374  2.5460
   13CHTO   C81 5205   4.791   5.501   4.783  0.1489  0.0787  0.8479
   13CHTO  H153 5206   4.895   5.470   4.772  0.3543  1.4817 -1.5088
   13CHTO   N14 5207   4.728   5.369   4.794 -0.3069 -0.9406  0.3647
   13CHTO  H141 5208   4.745   5.325   4.889 -0.7172 -1.9042  0.0004
   13CHTO  H142 5209   4.766   5.302   4.720 -2.6220 -1.5945 -0.2794
   13CHTO   C79 5210   4.780   5.595   4.912 -0.3730 -0.5448  0.0921
   13CHTO  H151 5211   4.813   5.537   4.999  0.6341 -1.6155 -0.9832
   13CHTO   O52 5212   4.882   5.699   4.905 -0.3621  0.6238  0.5416
   13CHTO   C86 5213   4.851   5.782   4.789 -0.3438 -0.0716  0.2240
   13CHTO  H158 5214   4.752   5.827   4.809 -0.6164  0.0206 -1.3017
   13CHTO   C90 5215   4.953   5.896   4.788  0.1738 -0.1244  0.0079
   13CHTO   O60 5216   4.923   6.008   4.709  0.3607  0.2563  0.1869
   13CHTO  H138 5217   4.979   6.082   4.723 -1.6016  1.3634  2.5795
   13CHTO   O50 5218   4.652   5.653   4.939 -0.2315  0.4961 -0.2680
   13CHTO   C73 5219   4.548   5.690   5.028  0.0331  0.2619  0.7079
   13CHTO  H145 5220   4.452   5.665   4.981  0.6995 -2.4696  0.6794
   13CHTO   C74 5221   4.552   5.835   5.069 -0.8719 -0.1120  0.6611
   13CHTO  H146 5222   4.543   5.891   4.975 -2.8370 -1.9036 -0.2549
   13CHTO   O54 5223   4.428   5.858   5.142  0.0542 -0.3520  0.1104
   13CHTO  H133 5224   4.374   5.923   5.103  1.8079  1.5867  0.8271
   13CHTO   C75 5225   4.683   5.870   5.147 -0.0402  0.1899  0.4672
   13CHTO  H147 5226   4.768   5.855   5.078  0.3953  1.4312  0.7153
   13CHTO   N13 5227   4.682   6.006   5.201 -0.0155  0.0826 -0.0513
   13CHTO  H139 5228   4.749   6.073   5.150 -1.4767  3.4529  2.2891
   13CHTO  H140 5229   4.584   6.051   5.190 -0.8795 -1.6590  0.2372
   13CHTO   C76 5230   4.712   5.762   5.265 -0.9461 -0.6503  0.3936
   13CHTO  H148 5231   4.675   5.792   5.363 -0.0483  1.5713  0.0761
   13CHTO   O49 5232   4.673   5.625   5.231  0.4135 -0.2249 -0.1305
   13CHTO   C77 5233   4.548   5.604   5.161  0.5808  0.1852 -0.2316
   13CHTO  H149 5234   4.472   5.645   5.226  0.6183  1.3530 -0.9080
   13CHTO   C88 5235   4.528   5.452   5.140 -0.0383  0.2921  0.9961
   13CHTO   O58 5236   4.412   5.407   5.042  0.3937 -0.4495 -0.5230
   13CHTO  H136 5237   4.437   5.440   4.958  1.7206  4.1342  1.5676
   13CHTO   O51 5238   4.853   5.726   5.277 -0.1693 -0.3497  0.2321
   13CHTO   C78 5239   4.929   5.760   5.434 -0.1478  0.2708  0.4421
   13CHTO  H150 5240   4.851   5.756   5.513  0.1183 -1.9187  0.6361
   13CHTO   C80 5241   4.983   5.897   5.433  0.0931  0.3337  0.4782
   13CHTO  H152 5242   5.035   5.915   5.336  1.0952 -2.8042  0.3856
   13CHTO   O55 5243   4.879   5.998   5.446 -0.4840 -0.2388 -0.1498
   13CHTO  H134 5244   4.868   6.030   5.533 -1.4843  1.1311 -0.7591
   13CHTO   C84 5245   5.102   5.918   5.541  0.3201 -0.3690 -0.0496
   13CHTO  H156 5246   5.053   5.935   5.637  0.3290 -0.9669  0.0654
   13CHTO   N15 5247   5.185   6.043   5.524  1.0039  0.0915 -0.0955
   13CHTO  H143 5248   5.282   6.022   5.486  1.1432  1.2942 -0.4097
   13CHTO  H144 5249   5.139   6.113   5.457  1.8934  0.4935 -0.2903
   13CHTO   C87 5250   5.191   5.794   5.554 -0.0848 -0.1650 -0.9367
   13CHTO  H159 5251   5.240   5.778   5.458  3.6446  0.5471  0.7604
   13CHTO   O53 5252   5.095   5.662   5.582 -0.5070  0.0651 -0.0624
   13CHTO   C82 5253   5.026   5.641   5.459 -0.0286  0.1421  0.1998
   13CHTO  H154 5254   5.082   5.634   5.366  0.4956  1.3635  0.4188
   13CHTO   C89 5255   4.947   5.512   5.479  0.4648 -0.0302 -0.0967
   13CHTO   O59 5256   4.890   5.461   5.358  0.1039 -0.0905  0.2485
   13CHTO  H137 5257   4.953   5.438   5.292 -1.2449  0.4226 -1.2356
   13CHTO   O45 5258   5.294   5.802   5.678  0.3288  0.6227 -0.0781
   13CHTO   C67 5259   5.432   5.815   5.645  0.4598  0.4982 -0.7000
   13CHTO  H124 5260   5.442   5.834   5.538 -2.9751  0.2770 -1.1175
   13CHTO   C65 5261   5.496   5.928   5.732  0.2859  0.0129  0.2985
   13CHTO  H122 5262   5.424   5.959   5.808 -0.0584  1.5488 -0.6208
   13CHTO   O44 5263   5.510   6.036   5.636 -0.0977 -0.3214 -0.2375
   13CHTO  H102 5264   5.582   6.091   5.659 -0.8028  0.0222  1.1741
   13CHTO   C63 5265   5.630   5.884   5.800 -0.4101  0.3811  0.6800
   13CHTO  H120 5266   5.603   5.806   5.872  1.0502 -0.8483 -0.0593
   13CHTO   N11 5267   5.694   5.992   5.878  0.1297  0.0290  0.2780
   13CHTO  H108 5268   5.722   6.070   5.810 -1.0506  0.5462  0.3799
   13CHTO  H109 5269   5.768   5.956   5.946  1.3808  1.9473 -0.0222
   13CHTO   C61 5270   5.722   5.809   5.700 -0.3744  0.0918 -0.1533
   13CHTO  H118 5271   5.791   5.753   5.765 -0.9051 -0.2930  0.0826
   13CHTO   O40 5272   5.645   5.707   5.625  0.6066 -0.3055  0.1428
   13CHTO   C68 5273   5.505   5.684   5.666 -0.2869  0.4454  0.2221
   13CHTO  H125 5274   5.505   5.643   5.770  2.6034 -2.1558 -0.7253
   13CHTO   C72 5275   5.457   5.568   5.576 -0.8186  0.2449  0.6534
   13CHTO   O48 5276   5.327   5.518   5.616  0.2776  0.0275  0.5819
   13CHTO  H105 5277   5.293   5.452   5.559 -0.7827  0.1636  1.0362
   13CHTO   O38 5278   5.785   5.898   5.603 -0.5731 -0.0673  0.3542
   13CHTO   C55 5279   5.900   5.836   5.538  0.2637  0.8027 -0.2441
   13CHTO  H112 5280   5.903   5.726   5.547 -0.1704  0.8456  0.5112
   13CHTO   C56 5281   6.025   5.905   5.592  0.2143 -0.3966 -0.0508
   13CHTO  H113 5282   6.005   6.013   5.594  0.8249 -0.2927  0.6986
   13CHTO   O42 5283   6.055   5.868   5.726 -0.1584  0.1449 -0.4892
   13CHTO  H100 5284   5.979   5.850   5.778  2.0381 -0.4150  2.6979
   13CHTO   C57 5285   6.157   5.887   5.501 -0.1700 -0.8658 -0.0494
   13CHTO  H114 5286   6.192   5.789   5.530 -0.5060 -0.6960  0.9285
   13CHTO   N10 5287   6.269   5.978   5.542 -0.5571 -0.3765 -0.1332
   13CHTO  H106 5288   6.367   5.936   5.524  0.8821  1.7867  2.2692
   13CHTO  H107 5289   6.259   6.077   5.500 -1.6196  0.1480  1.3376
   13CHTO   C58 5290   6.119   5.895   5.350 -0.3932  0.6573  0.1571
   13CHTO  H115 5291   6.093   6.000   5.325  1.7364  1.0830 -0.4062
   13CHTO   O37 5292   6.003   5.820   5.328  0.6792  0.1543  0.1670
   13CHTO   C59 5293   5.879   5.862   5.389 -0.2415  0.7666  0.4315
   13CHTO  H116 5294   5.860   5.967   5.365 -0.7151  0.6442  0.2656
   13CHTO   C70 5295   5.754   5.787   5.332  0.1065 -0.4178  0.5422
   13CHTO   O46 5296   5.701   5.836   5.209  0.0175 -0.5076  0.2183
   13CHTO  H103 5297   5.674   5.768   5.150 -0.0641 -0.4601  0.2012
   13CHTO   O39 5298   6.237   5.833   5.263  0.2729  0.7516  0.1047
   13CHTO   C60 5299   6.337   5.925   5.215 -0.8915 -0.1516 -0.3809
   13CHTO  H117 5300   6.329   6.023   5.260  2.1481 -0.9281  2.0285
   13CHTO   C62 5301   6.485   5.869   5.238 -0.3434 -0.7463 -0.1337
   13CHTO  H119 5302   6.505   5.875   5.347  1.7929  1.9087 -0.6128
   13CHTO   O43 5303   6.495   5.735   5.192  0.1634  0.1359 -0.0017
   13CHTO  H101 5304   6.461   5.731   5.104 -3.2718 -1.3130  1.3390
   13CHTO   C66 5305   6.581   5.983   5.174  0.2440 -0.2566 -0.1584
   13CHTO  H123 5306   6.545   6.080   5.210  1.5467  0.4547 -0.7175
   13CHTO   N12 5307   6.725   5.965   5.213  0.0633 -0.5011  0.0528
   13CHTO  H110 5308   6.784   6.024   5.145  0.1316  0.7365  1.1567
   13CHTO  H111 5309   6.738   5.988   5.318  1.6103 -2.4908  0.3204
   13CHTO   C69 5310   6.562   5.985   5.021 -0.8835  0.3517  0.0934
   13CHTO  H126 5311   6.577   5.889   4.968 -0.9838  0.6555 -0.4880
   13CHTO   O41 5312   6.428   6.026   4.989 -0.2682 -0.2054  0.5094
   13CHTO   C64 5313   6.321   5.941   5.058  0.2781 -0.3477  0.2387
   13CHTO  H121 5314   6.317   5.835   5.026 -0.3867  0.2587 -1.7645
   13CHTO   C71 5315   6.190   6.018   5.040  0.2079 -0.3338  0.5199
   13CHTO   O47 5316   6.161   6.018   4.899 -0.0297  0.2764 -0.2701
   13CHTO  H104 5317   6.069   6.037   4.896  0.0458  0.8059  0.5470
   13CHTO   O34 5318   6.660   6.082   4.945  0.1427  0.0010  0.0590
   13CHTO   C49 5319   6.685   6.220   4.877  0.0822 -0.3600  0.6537
   13CHTO   H91 5320   6.747   6.187   4.793  0.0136 -2.1090  1.2626
   13CHTO   C47 5321   6.767   6.299   4.982  0.6737  0.3320 -0.1186
   13CHTO   H89 5322   6.811   6.386   4.930  2.8418  0.8709  2.5197
   13CHTO   O33 5323   6.879   6.217   5.033 -0.0467 -0.4346  0.0298
   13CHTO   H70 5324   6.851   6.143   5.084 -3.9502  0.6549 -0.3317
   13CHTO   C45 5325   6.674   6.351   5.104  0.1432  0.0237 -0.3193
   13CHTO   H87 5326   6.688   6.282   5.188 -0.0136 -1.0714 -1.1765
   13CHTO    N8 5327   6.735   6.479   5.146 -0.1158  0.3221 -0.1414
   13CHTO   H75 5328   6.840   6.467   5.170 -0.1620 -1.8815 -0.8972
   13CHTO   H76 5329   6.733   6.553   5.067  0.0129  1.5921  1.0204
   13CHTO   C43 5330   6.518   6.362   5.063  0.5210 -0.3986  0.8456
   13CHTO   H85 5331   6.486   6.263   5.095  2.7793 -1.0332  1.2728
   13CHTO   O29 5332   6.496   6.387   4.929 -0.1766 -0.0272  0.0839
   13CHTO   C50 5333   6.550   6.296   4.836 -0.4398 -0.4155 -0.9944
   13CHTO   H92 5334   6.470   6.226   4.809  0.6507 -1.5094 -1.4562
   13CHTO   C54 5335   6.572   6.382   4.703  0.5342  0.0043 -0.0004
   13CHTO   O36 5336   6.579   6.301   4.585 -0.3033  0.0531  0.5326
   13CHTO   H72 5337   6.501   6.277   4.539  0.8522 -1.4416 -0.7088
   13CHTO   O27 5338   6.443   6.448   5.146 -0.3581  1.0515  0.0378
   13CHTO   C37 5339   6.323   6.447   5.228 -0.4283  0.4396  0.3016
   13CHTO   H79 5340   6.296   6.550   5.257  0.8178  0.4253  1.5716
   13CHTO   C38 5341   6.205   6.386   5.155 -0.4894 -0.3005  0.1778
   13CHTO   H80 5342   6.233   6.287   5.114 -2.8118 -0.5930 -0.7592
   13CHTO   O31 5343   6.176   6.470   5.042 -0.0766  0.9074  0.5792
   13CHTO   H68 5344   6.148   6.552   5.079 -2.5112  0.3758 -0.0193
   13CHTO   C39 5345   6.069   6.383   5.235  0.4168  0.5556  0.1622
   13CHTO   H81 5346   6.033   6.486   5.238 -0.4990  0.2289  0.4863
   13CHTO    N7 5347   5.955   6.299   5.180  0.3772 -0.3602 -0.0657
   13CHTO   H73 5348   5.873   6.362   5.150  2.1572  1.4590 -1.2240
   13CHTO   H74 5349   6.001   6.244   5.099  1.5179 -0.2530  0.4945
   13CHTO   C40 5350   6.104   6.334   5.383  0.0744  0.1070  0.3374
   13CHTO   H82 5351   6.107   6.226   5.380 -2.1604  0.0106  0.5995
   13CHTO   O26 5352   6.221   6.395   5.438 -0.4865 -0.1657  0.3549
   13CHTO   C41 5353   6.342   6.371   5.358  0.1458 -0.1651  0.0243
   13CHTO   H83 5354   6.348   6.268   5.320 -2.9339 -1.0816  1.8747
   13CHTO   C52 5355   6.475   6.412   5.435  0.6309 -0.0127  1.0454
   13CHTO   O35 5356   6.484   6.330   5.551  0.1739  0.5527 -0.2938
   13CHTO   H71 5357   6.412   6.351   5.608  1.3595 -2.4195  2.4259
   13CHTO   O28 5358   5.991   6.374   5.471  0.5596  0.6049 -0.0469
   13CHTO   C42 5359   5.981   6.462   5.588 -0.1590 -0.3035 -0.6944
   13CHTO   H84 5360   5.876   6.448   5.614  0.0195  0.7613  0.6563
   13CHTO   C44 5361   6.010   6.616   5.570  0.8098  0.6158 -0.1769
   13CHTO   H86 5362   6.118   6.630   5.563  0.7825  0.1987 -1.6051
   13CHTO   O32 5363   5.953   6.642   5.445  0.2859  0.3283  0.0772
   13CHTO   H69 5364   5.861   6.631   5.458  0.0644  0.7511 -1.0367
   13CHTO   C48 5365   5.949   6.683   5.698  0.0487  0.4277 -0.5998
   13CHTO   H90 5366   5.847   6.645   5.710  1.0163 -1.5633  1.8166
   13CHTO    N9 5367   5.938   6.830   5.678 -0.5487 -0.0819  0.2083
   13CHTO   H77 5368   5.896   6.843   5.580 -1.5708 -1.9052  0.3840
   13CHTO   H78 5369   5.869   6.870   5.751 -1.6928 -0.7331 -0.5091
   13CHTO   C51 5370   6.038   6.641   5.824 -0.1950 -0.2465  0.0515
   13CHTO   H93 5371   6.142   6.672   5.817  0.7301 -3.1927  0.3948
   13CHTO   O30 5372   6.027   6.509   5.837  0.0878 -0.1016  0.1621
   13CHTO   C46 5373   6.059   6.415   5.709 -0.3090  0.0432 -0.2247
   13CHTO   H88 5374   6.167   6.421   5.691 -0.2356  1.5501  0.6000
   13CHTO   C53 5375   6.033   6.270   5.730 -0.1894 -0.2093 -0.1588
   13CHTO   O72 5376   6.141   6.229   5.817 -0.5022 -0.2769  0.7591
   13CHTO  H199 5377   6.223   6.232   5.771 -0.9315  1.3901  0.0555
   13CHTO   O22 5378   5.986   6.696   5.945 -0.1297  0.7269  0.0096
   13CHTO   C31 5379   6.044   6.645   6.072 -0.7420 -0.0038 -0.3352
   13CHTO   H59 5380   6.091   6.546   6.049 -1.7352 -0.9583  1.6551
   13CHTO   C29 5381   6.157   6.736   6.131  0.7136  0.4640  0.4344
   13CHTO   H57 5382   6.123   6.841   6.139  1.8922  0.9564 -0.8456
   13CHTO   O21 5383   6.270   6.739   6.044  0.3289  0.4041 -0.1861
   13CHTO   H37 5384   6.254   6.751   5.953 -0.3949 -0.2110 -0.1433
   13CHTO   C27 5385   6.198   6.687   6.274  0.1041 -0.1532 -0.4956
   13CHTO   H55 5386   6.249   6.589   6.272 -2.4562 -1.5461  0.0759
   13CHTO    N5 5387   6.282   6.784   6.341  0.0423 -0.2324  0.3129
   13CHTO   H43 5388   6.378   6.784   6.291 -0.5474 -2.6386 -0.9049
   13CHTO   H44 5389   6.231   6.879   6.352 -0.7712 -0.6961  0.5335
   13CHTO   C25 5390   6.067   6.676   6.363 -0.0324 -0.6095  0.1030
   13CHTO   H53 5391   6.014   6.772   6.375  0.8215 -0.1775  0.4859
   13CHTO   O17 5392   5.981   6.576   6.298  0.0633 -0.5442 -0.2738
   13CHTO   C32 5393   5.934   6.613   6.168  0.3535  0.5000 -0.0441
   13CHTO   H60 5394   5.868   6.699   6.172 -1.1747 -0.6333 -0.1409
   13CHTO   C36 5395   5.847   6.498   6.117  0.9104 -0.0447  0.7758
   13CHTO   O25 5396   5.712   6.519   6.162 -0.6004  0.2855  0.4065
   13CHTO   H40 5397   5.669   6.570   6.096  0.5093 -1.0275 -1.3993
   13CHTO   O15 5398   6.099   6.628   6.524 -0.2764 -0.1046 -0.0643
   13CHTO   C19 5399   6.003   6.684   6.620  0.2816  0.6002  0.2667
   13CHTO   H47 5400   6.036   6.641   6.716 -0.2264 -0.6382 -0.1104
   13CHTO   C20 5401   6.016   6.840   6.629 -0.3281  0.0259 -0.1272
   13CHTO   H48 5402   5.986   6.885   6.533 -1.9007 -1.2448 -0.2548
   13CHTO   O19 5403   6.159   6.873   6.654  0.1924 -0.0210  0.1162
   13CHTO   H35 5404   6.216   6.829   6.594  1.2206  1.6442 -0.1388
   13CHTO   C21 5405   5.917   6.902   6.733  0.4278  0.3841  0.1551
   13CHTO   H49 5406   5.950   6.869   6.831 -0.5958  0.3813  0.5009
   13CHTO    N4 5407   5.915   7.048   6.736 -0.1204 -0.3523  0.8191
   13CHTO   H41 5408   5.864   7.098   6.818 -2.3346  1.5650 -1.6011
   13CHTO   H42 5409   6.012   7.093   6.720  0.8164 -2.6244 -0.0644
   13CHTO   C22 5410   5.779   6.838   6.719  0.2885 -0.4801 -0.3784
   13CHTO   H50 5411   5.740   6.882   6.627  0.0930 -0.6996 -0.4011
   13CHTO   O14 5412   5.771   6.696   6.704 -0.2700  0.3387  0.0973
   13CHTO   C23 5413   5.857   6.638   6.602  0.0628 -0.4105 -0.6372
   13CHTO   H51 5414   5.818   6.658   6.501 -1.0843 -0.0307 -0.1342
   13CHTO   C34 5415   5.846   6.483   6.622 -0.3350 -0.2410 -0.3608
   13CHTO   O23 5416   5.794   6.419   6.505 -0.2837  0.2883 -0.1504
   13CHTO   H38 5417   5.719   6.455   6.464  0.6086  0.6953 -1.4490
   13CHTO   O16 5418   5.689   6.867   6.829  0.0533  0.3260  0.3432
   13CHTO   C24 5419   5.536   6.877   6.778  0.5769  0.2406 -0.2204
   13CHTO   H52 5420   5.520   6.837   6.677 -0.6131 -1.0163  0.4413
   13CHTO   C26 5421   5.483   7.021   6.779  0.0269  0.4092 -0.4570
   13CHTO   H54 5422   5.509   7.067   6.877  1.5505  1.8253 -1.4961
   13CHTO   O20 5423   5.545   7.099   6.678 -0.2754  0.0968 -0.6101
   13CHTO   H36 5424   5.543   7.191   6.698 -0.3193 -0.3771  1.7309
   13CHTO   C30 5425   5.330   7.031   6.765 -0.2665  0.5948  0.5785
   13CHTO   H58 5426   5.302   7.015   6.660 -0.5263 -0.5669  0.8187
   13CHTO    N6 5427   5.285   7.168   6.798 -0.0482  0.2380 -0.0435
   13CHTO   H45 5428   5.276   7.182   6.905  0.0475  0.7580 -0.0998
   13CHTO   H46 5429   5.185   7.175   6.757 -0.7478 -1.3630  1.3611
   13CHTO   C33 5430   5.253   6.933   6.848  0.5495  0.0687 -0.5694
   13CHTO   H61 5431   5.246   6.963   6.954 -0.4980  2.2015 -1.2182
   13CHTO   O18 5432   5.319   6.805   6.835  0.0662 -0.3680  0.2080
   13CHTO   C28 5433   5.456   6.789   6.871 -0.0731  0.1046  0.0582
   13CHTO   H56 5434   5.477   6.820   6.973 -0.2097 -3.2674  1.1599
   13CHTO   C35 5435   5.482   6.640   6.868 -0.1811 -0.0457 -0.2215
   13CHTO   O24 5436   5.495   6.587   6.738  0.1914  0.0542  0.2641
   13CHTO   H39 5437   5.582   6.553   6.728  0.1901 -1.2385  3.9397
   13CHTO    O9 5438   5.113   6.925   6.803 -0.4496 -0.1898 -0.1292
   13CHTO   C13 5439   5.023   6.870   6.892 -0.4233  0.0048 -0.3222
   13CHTO   H26 5440   5.050   6.892   6.997  0.4954  1.0372 -0.7663
   13CHTO   C11 5441   5.025   6.716   6.863 -0.0026 -0.3144 -0.4227
   13CHTO   H24 5442   5.127   6.686   6.893 -0.8208 -0.1541  2.6605
   13CHTO    O8 5443   5.000   6.699   6.720 -0.1771 -0.3206 -0.2172
   13CHTO    H3 5444   4.927   6.642   6.704 -0.1828 -1.3015  2.9046
   13CHTO    C9 5445   4.919   6.649   6.950 -0.1253 -0.2642  0.8038
   13CHTO   H22 5446   4.955   6.672   7.052  0.3072 -0.9160  0.8039
   13CHTO    N2 5447   4.925   6.499   6.944 -0.1757  0.2228 -0.3263
   13CHTO   H10 5448   5.031   6.477   6.947 -0.4319 -1.2675 -1.8526
   13CHTO   H11 5449   4.875   6.464   6.855 -2.6374  0.1789  1.0441
   13CHTO    C7 5450   4.771   6.698   6.913  1.1637  0.5054 -1.4293
   13CHTO   H20 5451   4.711   6.665   7.001 -0.4751  1.4411 -2.1658
   13CHTO    O4 5452   4.767   6.844   6.915 -0.1153  0.1967 -0.5083
   13CHTO   C14 5453   4.878   6.927   6.883 -0.6758  0.0883  0.0152
   13CHTO   H27 5454   4.872   7.015   6.951 -2.7512  0.7675 -0.9853
   13CHTO   C18 5455   4.848   6.988   6.739 -0.0788  0.5409 -0.0409
   13CHTO   O13 5456   4.946   7.080   6.679 -0.1599  0.3346  0.3910
   13CHTO    H7 5457   4.988   7.124   6.750  0.4796  1.8452 -0.9162
   13CHTO    O2 5458   4.700   6.636   6.771 -0.6180 -0.6371  0.5953
   13CHTO    C1 5459   4.558   6.655   6.740  0.1808 -0.8228 -0.2621
   13CHTO   H14 5460   4.547   6.756   6.695 -1.3133 -0.2238  1.4453
   13CHTO    C2 5461   4.445   6.636   6.856 -0.4211  0.5162  0.2241
   13CHTO   H15 5462   4.472   6.545   6.912 -2.2334  0.1146  0.4676
   13CHTO    O6 5463   4.441   6.752   6.944  0.3140 -0.5879 -0.2826
   13CHTO    H1 5464   4.435   6.734   7.036  2.8753  1.0241  0.2218
   13CHTO    C3 5465   4.297   6.613   6.795 -0.4285  0.6699  0.2536
   13CHTO   H16 5466   4.258   6.707   6.754 -2.4645  0.1269  0.8677
   13CHTO    N1 5467   4.199   6.566   6.898  0.1252 -1.0768  0.5099
   13CHTO    H8 5468   4.095   6.562   6.868 -0.2585 -3.1230  2.0608
   13CHTO    H9 5469   4.232   6.473   6.941  3.2753  0.0254  0.5962
   13CHTO    C4 5470   4.302   6.512   6.676  0.7747 -0.6133  0.2945
   13CHTO   H17 5471   4.345   6.418   6.711 -0.5186 -0.9997  0.8425
   13CHTO    O1 5472   4.390   6.574   6.577 -0.2673  0.2416  0.2691
   13CHTO    C5 5473   4.529   6.564   6.609  0.0409 -0.0916  0.4806
   13CHTO   H18 5474   4.565   6.462   6.622  1.5189  0.2294 -0.8472
   13CHTO   C16 5475   4.604   6.627   6.484 -0.3966  0.0092 -0.1498
   13CHTO   O11 5476   4.590   6.551   6.368 -0.0898  0.2120 -0.3755
   13CHTO    H5 5477   4.628   6.467   6.380  0.0895  0.2610 -0.6068
   13CHTO    O3 5478   4.178   6.496   6.601 -0.1168 -0.0953 -0.2078
   13CHTO    C6 5479   4.179   6.373   6.508 -0.6981 -1.2223  1.1413
   13CHTO   H19 5480   4.280   6.342   6.485 -1.5575 -3.7142  0.6435
   13CHTO    C8 5481   4.114   6.245   6.574 -0.1773 -0.0440 -0.4734
   13CHTO   H21 5482   4.020   6.273   6.622 -0.3235  0.5835 -1.1209
   13CHTO    O7 5483   4.210   6.197   6.670 -0.1975  0.0580  0.1070
   13CHTO    H2 5484   4.181   6.114   6.702 -0.6218 -0.3558 -1.3083
   13CHTO   C12 5485   4.070   6.127   6.475 -0.0058 -0.0395  0.5610
   13CHTO   H25 5486   4.160   6.066   6.452 -0.1494  0.3865 -1.1718
   13CHTO    N3 5487   3.981   6.033   6.542 -0.6813 -0.2312 -0.5172
   13CHTO   H12 5488   4.019   5.932   6.543  0.4171  0.1752  0.2855
   13CHTO   H13 5489   3.877   6.048   6.519 -0.7488 -1.2888 -0.9537
   13CHTO   C15 5490   4.014   6.192   6.340 -0.6851  0.2371 -0.3286
   13CHTO   H28 5491   3.914   6.231   6.356 -0.8162 -0.2118 -0.0208
   13CHTO   O10 5492   4.020   6.103   6.228  0.1807  0.2081 -0.2575
   13CHTO    H4 5493   4.081   6.033   6.240  1.4979  1.2378 -0.8936
   13CHTO    O5 5494   4.095   6.296   6.283  0.0863  0.2042  0.0686
   13CHTO   C10 5495   4.109   6.409   6.371 -0.2452 -0.2298  0.4109
   13CHTO   H23 5496   4.009   6.452   6.379 -0.3127  0.2785 -2.7826
   13CHTO   C17 5497   4.186   6.512   6.285 -0.1002  0.0972  0.0339
   13CHTO   O12 5498   4.173   6.646   6.338  0.1764 -0.3326  0.5027
   13CHTO    H6 5499   4.189   6.709   6.270 -1.0936  0.4258  0.8808
   14CHTO  H203 5500   5.313   6.204   4.534 -0.4525  3.8412  0.3946
   14CHTO   O82 5501   5.283   6.185   4.621  0.5432 -0.1730 -0.0230
   14CHTO  C123 5502   5.359   6.075   4.674 -0.4798  0.5621  0.1292
   14CHTO  H227 5503   5.461   6.114   4.691  0.2568 -0.1311 -2.4307
   14CHTO   O77 5504   5.302   6.048   4.799 -0.1159  0.0394  0.2487
   14CHTO  C118 5505   5.372   5.960   4.892  0.0495  0.0192  1.2137
   14CHTO  H222 5506   5.479   5.987   4.888 -0.2228  0.7741 -1.5525
   14CHTO  C125 5507   5.309   5.987   5.042 -0.0376 -0.0168 -0.9719
   14CHTO   O84 5508   5.175   5.938   5.066 -0.4168 -0.7193 -0.1481
   14CHTO  H205 5509   5.127   5.995   5.123  2.2542  1.9061 -0.4087
   14CHTO  C114 5510   5.368   5.819   4.828  0.0584 -0.6748 -0.7920
   14CHTO  H218 5511   5.263   5.791   4.825 -0.1682  0.3181 -3.7011
   14CHTO  C116 5512   5.416   5.820   4.680 -0.7611 -0.5017 -0.5080
   14CHTO  H220 5513   5.527   5.820   4.683 -0.7688  0.9998  1.0574
   14CHTO   O79 5514   5.380   5.692   4.629  0.8526  0.3352 -0.0311
   14CHTO  H201 5515   5.391   5.702   4.536 -4.0620 -1.2111 -0.9504
   14CHTO  C120 5516   5.356   5.935   4.594 -0.4102 -0.4481  0.1585
   14CHTO  H224 5517   5.250   5.908   4.577 -0.7773  1.1736 -0.2386
   14CHTO   N21 5518   5.421   5.940   4.459  0.0474 -0.0434 -0.3509
   14CHTO  H211 5519   5.345   5.966   4.387  0.4767  1.0763 -0.4069
   14CHTO  H212 5520   5.501   6.013   4.463 -0.4445  0.4647  0.4951
   14CHTO   O75 5521   5.447   5.748   4.921  0.0426  0.3794 -0.1133
   14CHTO  C112 5522   5.391   5.590   4.970  0.3201 -0.2579  0.1336
   14CHTO  H216 5523   5.475   5.533   5.012 -1.0607 -0.4105  2.8288
   14CHTO   O73 5524   5.336   5.522   4.857 -0.3388  0.4411 -0.2627
   14CHTO  C113 5525   5.301   5.380   4.876 -0.0483 -0.0960 -0.1433
   14CHTO  H217 5526   5.395   5.331   4.912 -1.2074 -1.0538  1.6775
   14CHTO  C124 5527   5.260   5.314   4.743 -0.2452 -0.1315 -0.1095
   14CHTO   O83 5528   5.362   5.329   4.642 -0.4343 -1.1622 -0.0346
   14CHTO  H204 5529   5.341   5.412   4.605  1.4042 -0.5121  0.3649
   14CHTO  C109 5530   5.188   5.360   4.978 -0.0335 -0.5601  0.3063
   14CHTO  H213 5531   5.094   5.399   4.936 -0.2652  0.5789  1.8352
   14CHTO  C110 5532   5.217   5.450   5.105 -0.5312 -0.3276 -0.4767
   14CHTO  H214 5533   5.280   5.397   5.176  0.1409 -1.5706 -1.9686
   14CHTO   O78 5534   5.089   5.468   5.170 -0.1092  0.3946 -0.2363
   14CHTO  H200 5535   5.044   5.388   5.191 -0.3770  0.5715 -0.1297
   14CHTO  C111 5536   5.277   5.592   5.083  0.3253 -0.1045  0.3620
   14CHTO  H215 5537   5.200   5.656   5.037  0.1512 -2.9564 -3.5782
   14CHTO   N19 5538   5.330   5.650   5.204  0.1513  0.2445 -0.0943
   14CHTO  H207 5539   5.427   5.627   5.247  0.5777  3.3595  0.7434
   14CHTO  H208 5540   5.258   5.672   5.282 -0.4412 -2.4038  0.1437
   14CHTO   O74 5541   5.174   5.223   5.013 -0.0953 -0.3161 -0.1434
   14CHTO  C115 5542   5.034   5.141   4.943 -0.3730 -0.6199  0.1091
   14CHTO  H219 5543   4.974   5.205   4.877  0.7448 -0.3353 -0.6457
   14CHTO   O76 5544   5.081   5.008   4.847 -0.4087 -0.0752 -0.1578
   14CHTO  C122 5545   4.976   4.930   4.793  0.1193 -0.3035 -1.0840
   14CHTO  H226 5546   5.024   4.848   4.739  2.2912  0.9869 -1.1613
   14CHTO  C126 5547   4.899   5.008   4.677 -0.2582  0.0146 -0.3229
   14CHTO   O85 5548   4.979   5.052   4.569  0.4998 -0.4681 -0.0695
   14CHTO  H206 5549   4.933   5.100   4.503  0.1437 -1.9259 -0.9102
   14CHTO  C121 5550   4.864   4.893   4.902  0.7937 -0.6181  0.1165
   14CHTO  H225 5551   4.782   4.853   4.840  1.2408 -2.9289  0.9688
   14CHTO   O81 5552   4.921   4.802   4.997 -0.1011 -0.0772  0.3028
   14CHTO  H202 5553   4.960   4.724   4.962  2.5675 -0.0842  3.0878
   14CHTO  C119 5554   4.815   5.021   4.976  0.4881  0.4579  0.4579
   14CHTO  H223 5555   4.768   5.093   4.910 -0.2101  0.7986  1.3167
   14CHTO  C117 5556   4.931   5.094   5.057 -0.3084  0.4450  0.3689
   14CHTO  H221 5557   4.991   5.032   5.123  0.5736  1.8467  0.9066
   14CHTO   N20 5558   4.875   5.208   5.137  0.0934  0.4224  0.6851
   14CHTO  H209 5559   4.913   5.189   5.236 -0.1933 -1.9738  0.3680
   14CHTO  H210 5560   4.925   5.301   5.117  1.3354 -1.0792 -3.8965
   14CHTO   O80 5561   4.688   4.974   5.072  0.5485  0.6207  0.6526
   14CHTO  C103 5562   4.538   5.043   5.052  0.7977  0.3548 -0.1832
   14CHTO  H190 5563   4.540   5.150   5.034 -0.7575  0.1018 -2.0899
   14CHTO  C101 5564   4.447   4.985   4.939 -0.6633 -0.2767 -0.0370
   14CHTO  H188 5565   4.435   4.877   4.955  0.3974 -0.2666  0.8312
   14CHTO   O68 5566   4.531   4.995   4.812  0.7823  0.2604  0.2523
   14CHTO  H168 5567   4.485   5.045   4.747 -1.3005 -1.0819  0.6412
   14CHTO   C99 5568   4.310   5.065   4.950  0.3021  0.3422  0.6350
   14CHTO  H186 5569   4.329   5.174   4.940 -0.8615  0.4436 -0.5960
   14CHTO   N17 5570   4.206   5.016   4.846  0.6519  0.8959  0.3031
   14CHTO  H174 5571   4.108   5.001   4.889  0.2863 -0.6587 -0.9975
   14CHTO  H175 5572   4.194   5.088   4.767 -3.9779  2.3695  2.2157
   14CHTO   C97 5573   4.249   5.046   5.091 -0.7965 -0.1278  0.0054
   14CHTO  H184 5574   4.214   4.943   5.111 -2.1384  0.5695  1.3782
   14CHTO   O64 5575   4.342   5.091   5.188 -0.1685  0.1557 -0.6826
   14CHTO  C104 5576   4.467   5.020   5.189  0.3916  0.4236  0.1618
   14CHTO  H191 5577   4.454   4.913   5.208 -0.0802  0.1333 -1.7048
   14CHTO  C108 5578   4.556   5.065   5.310 -0.2474  0.2459  0.2760
   14CHTO   O71 5579   4.496   5.041   5.436 -0.0871 -0.1801 -0.1290
   14CHTO  H171 5580   4.507   4.952   5.464  1.4876  0.1057  0.2024
   14CHTO   O62 5581   4.123   5.121   5.102  0.3416 -0.7686 -0.1556
   14CHTO   C91 5582   4.067   5.177   5.221  0.7275  0.6013  0.1105
   14CHTO  H178 5583   4.069   5.116   5.311 -1.0811 -1.8564 -1.4792
   14CHTO   C92 5584   3.918   5.181   5.198  0.1320 -0.6395  0.2991
   14CHTO  H179 5585   3.880   5.081   5.172  1.2009 -0.5568 -1.7590
   14CHTO   O66 5586   3.851   5.226   5.317  0.0949 -0.1699 -0.0173
   14CHTO  H166 5587   3.786   5.291   5.300  0.5741 -0.1568 -1.8458
   14CHTO   C93 5588   3.879   5.277   5.080  0.1881  1.0602 -0.2250
   14CHTO  H180 5589   3.771   5.294   5.095 -0.6455 -3.0225 -1.1767
   14CHTO   N16 5590   3.873   5.216   4.945 -0.1245 -0.4655  0.1664
   14CHTO  H172 5591   3.812   5.127   4.946  0.6873 -1.0600 -1.4361
   14CHTO  H173 5592   3.976   5.188   4.928 -0.1404  0.1129 -0.9311
   14CHTO   C94 5593   3.972   5.409   5.072  0.3386 -0.2970  0.5742
   14CHTO  H181 5594   4.049   5.397   4.996 -1.4962 -0.6842 -1.2606
   14CHTO   O61 5595   4.038   5.432   5.199 -0.1171 -0.2555 -0.8673
   14CHTO   C95 5596   4.123   5.325   5.253  0.8633  0.7536 -0.5484
   14CHTO  H182 5597   4.223   5.336   5.210  0.7127  2.2493 -0.5172
   14CHTO  C106 5598   4.142   5.348   5.407 -0.0060  0.3708 -0.2076
   14CHTO   O69 5599   4.250   5.265   5.461 -0.5540  0.3087  0.1416
   14CHTO  H169 5600   4.218   5.242   5.546 -1.8603  0.0271 -0.4081
   14CHTO   O63 5601   3.881   5.533   5.045  0.0328  0.2230  0.3916
   14CHTO   C96 5602   3.937   5.642   4.941  0.0063  0.3810  0.5814
   14CHTO  H183 5603   3.878   5.733   4.958 -2.1225 -0.9895  0.6675
   14CHTO   C98 5604   3.913   5.579   4.800  0.7191  0.0253 -0.1870
   14CHTO  H185 5605   3.951   5.476   4.791 -0.4514 -0.5356  1.0726
   14CHTO   O67 5606   3.773   5.567   4.781  0.6397 -0.1437  0.7590
   14CHTO  H167 5607   3.736   5.481   4.784 -2.8113  1.2257  0.5726
   14CHTO  C102 5608   3.977   5.684   4.686  0.4552  0.5292  0.1285
   14CHTO  H189 5609   3.922   5.778   4.694 -0.7499 -0.3004  2.0109
   14CHTO   N18 5610   3.958   5.634   4.545  0.5598 -0.4451  0.0813
   14CHTO  H176 5611   4.050   5.614   4.493  0.2077 -2.6831  0.2898
   14CHTO  H177 5612   3.893   5.705   4.495  1.3770  1.3133  1.4508
   14CHTO  C105 5613   4.128   5.711   4.724 -0.9256 -0.9152  0.8383
   14CHTO  H192 5614   4.180   5.615   4.718 -2.4242 -1.7786  1.3738
   14CHTO   O65 5615   4.148   5.761   4.852 -0.2859  0.0593  0.7338
   14CHTO  C100 5616   4.096   5.669   4.957  0.3010  0.5654  0.3356
   14CHTO  H187 5617   4.143   5.571   4.940  2.9377  2.0264 -1.2591
   14CHTO  C107 5618   4.117   5.725   5.097 -0.1936  0.4031 -0.1126
   14CHTO   O70 5619   4.234   5.666   5.158  0.7835  0.1401 -0.2456
   14CHTO  H170 5620   4.306   5.723   5.179  0.2519  0.2766  1.3077
   14CHTO   O57 5621   4.189   5.810   4.631  0.1343 -0.6541  0.3693
   14CHTO   C85 5622   4.327   5.839   4.628 -0.0267  0.4239  0.8411
   14CHTO  H157 5623   4.379   5.751   4.672 -0.7381 -0.4056  0.0404
   14CHTO   C83 5624   4.370   5.962   4.712 -0.5859  0.9347 -0.4952
   14CHTO  H155 5625   4.344   5.942   4.816 -3.9236 -0.8612 -1.6312
   14CHTO   O56 5626   4.288   6.072   4.668  0.4363 -0.6837  0.3117
   14CHTO  H135 5627   4.330   6.153   4.691  0.0002 -0.0341 -1.1000
   14CHTO   C81 5628   4.524   5.991   4.698 -0.6230  0.5718  0.4358
   14CHTO  H153 5629   4.575   5.898   4.722  0.8418  1.6019  1.4833
   14CHTO   N14 5630   4.574   6.091   4.796  0.6712 -0.6925  0.1344
   14CHTO  H141 5631   4.507   6.123   4.874  2.2973 -0.3611  1.4070
   14CHTO  H142 5632   4.665   6.065   4.845  0.8170 -0.6788 -0.1308
   14CHTO   C79 5633   4.544   6.036   4.549  0.6024  0.7763 -0.3132
   14CHTO  H151 5634   4.650   6.039   4.527  0.8579  0.8569  0.8583
   14CHTO   O52 5635   4.506   5.914   4.468 -0.1863 -0.2183  0.1060
   14CHTO   C86 5636   4.370   5.861   4.475  0.5073 -0.3962 -0.3310
   14CHTO  H158 5637   4.303   5.939   4.433  0.6947 -1.2594 -2.2817
   14CHTO   C90 5638   4.338   5.738   4.394 -0.5395  0.7598 -0.1622
   14CHTO   O60 5639   4.430   5.631   4.407 -0.2973  0.0680  0.0642
   14CHTO  H138 5640   4.409   5.580   4.483  0.0437  3.5475  2.6443
   14CHTO   O50 5641   4.462   6.144   4.504 -0.4486  0.0480  0.1810
   14CHTO   C73 5642   4.407   6.263   4.446 -0.3003 -0.3432 -0.3665
   14CHTO  H145 5643   4.342   6.310   4.521 -1.0674 -0.8565 -0.7136
   14CHTO   C74 5644   4.331   6.224   4.318 -0.1335  0.7073 -0.1207
   14CHTO  H146 5645   4.268   6.141   4.354 -0.1766  1.7141  2.1574
   14CHTO   O54 5646   4.256   6.334   4.259 -0.4848  0.2116 -1.0184
   14CHTO  H133 5647   4.176   6.338   4.308  0.5791  0.2421  0.7785
   14CHTO   C75 5648   4.439   6.168   4.218 -0.6558 -0.2185 -0.6262
   14CHTO  H147 5649   4.493   6.082   4.259 -0.0377  0.9116  0.9574
   14CHTO   N13 5650   4.389   6.126   4.080 -0.2233 -0.1549  0.0838
   14CHTO  H139 5651   4.329   6.196   4.024 -2.4408  2.2061  5.0860
   14CHTO  H140 5652   4.458   6.064   4.025 -0.5712 -0.0838 -0.4339
   14CHTO   C76 5653   4.550   6.281   4.188  0.9127  0.4444 -0.8684
   14CHTO  H148 5654   4.491   6.366   4.155 -1.2618 -0.9098 -0.5644
   14CHTO   O49 5655   4.610   6.309   4.314  0.0706  0.0903 -0.0186
   14CHTO   C77 5656   4.521   6.368   4.415 -0.1595 -0.1363  0.4487
   14CHTO  H149 5657   4.469   6.458   4.384  1.3640  0.2595 -1.0344
   14CHTO   C88 5658   4.608   6.404   4.532 -0.1411  0.1319  0.1227
   14CHTO   O58 5659   4.554   6.473   4.625  0.0616 -0.8546  0.1798
   14CHTO  H136 5660   4.620   6.505   4.683  0.3057  0.7625 -0.9667
   14CHTO   O51 5661   4.668   6.232   4.110  0.0150 -0.3486  0.6991
   14CHTO   C78 5662   4.765   6.339   4.031  0.1468 -0.4012 -0.0666
   14CHTO  H150 5663   4.768   6.437   4.082  0.4478 -0.5040  0.1133
   14CHTO   C80 5664   4.715   6.360   3.883  0.3386 -0.2979  0.1973
   14CHTO  H152 5665   4.708   6.259   3.839 -0.1892 -0.3991  0.5168
   14CHTO   O55 5666   4.587   6.427   3.884  0.3243  0.3596 -0.3694
   14CHTO  H134 5667   4.531   6.391   3.817 -3.9402  1.1687  2.5477
   14CHTO   C84 5668   4.819   6.443   3.792 -0.2604  0.9355 -0.2744
   14CHTO  H156 5669   4.812   6.541   3.839  2.0043 -0.2895  2.7806
   14CHTO   N15 5670   4.771   6.455   3.655 -0.3102 -0.9473 -0.0834
   14CHTO  H143 5671   4.704   6.537   3.637  0.2517 -0.2888  0.7563
   14CHTO  H144 5672   4.859   6.465   3.594 -0.8938  0.1207 -0.7651
   14CHTO   C87 5673   4.957   6.376   3.790  0.2639 -0.1795  0.2445
   14CHTO  H159 5674   4.948   6.272   3.757 -0.7979  0.6555 -2.2911
   14CHTO   O53 5675   4.999   6.370   3.939 -0.3881 -0.5742  0.3193
   14CHTO   C82 5676   4.912   6.289   4.028  0.4054  0.3019  0.2614
   14CHTO  H154 5677   4.917   6.183   4.002 -1.3507  0.1838  0.3707
   14CHTO   C89 5678   4.958   6.300   4.176  0.4376 -0.1539 -0.2768
   14CHTO   O59 5679   4.929   6.425   4.248  0.1380  0.0144 -0.0067
   14CHTO  H137 5680   4.973   6.422   4.331  1.8522  0.0184 -0.8831
   14CHTO   O45 5681   5.067   6.474   3.713 -0.2275 -0.1111 -0.6203
   14CHTO   C67 5682   5.184   6.403   3.681  0.1559 -0.4362 -0.2734
   14CHTO  H124 5683   5.199   6.317   3.747  2.6994  1.1667  1.3498
   14CHTO   C65 5684   5.164   6.348   3.545 -0.4409  0.7644  0.0097
   14CHTO  H122 5685   5.060   6.319   3.532  0.1631 -0.8667 -1.5043
   14CHTO   O44 5686   5.225   6.223   3.524 -0.5296  0.2984 -0.0773
   14CHTO  H102 5687   5.170   6.150   3.543 -3.5189  2.3951 -0.2190
   14CHTO   C63 5688   5.178   6.454   3.427  0.5577  0.5070  0.9226
   14CHTO  H120 5689   5.107   6.535   3.441  0.5800  0.6081  0.4552
   14CHTO   N11 5690   5.126   6.407   3.295 -0.4338 -0.3336  0.1148
   14CHTO  H108 5691   5.094   6.306   3.306 -2.3280  0.2819  0.3905
   14CHTO  H109 5692   5.043   6.463   3.256  0.1359  0.5847  0.2063
   14CHTO   C61 5693   5.325   6.511   3.437  0.7082 -0.2644 -0.4099
   14CHTO  H118 5694   5.339   6.597   3.370  0.0414  0.7920  0.7810
   14CHTO   O40 5695   5.361   6.563   3.571  0.3996 -0.0005 -0.4025
   14CHTO   C68 5696   5.318   6.489   3.691  0.1689 -0.4822 -0.1048
   14CHTO  H125 5697   5.282   6.561   3.768  2.9125  0.1074  0.6718
   14CHTO   C72 5698   5.438   6.419   3.754  0.0925 -0.3892  0.6194
   14CHTO   O48 5699   5.555   6.502   3.763  0.1167  0.9339 -0.5595
   14CHTO  H105 5700   5.579   6.523   3.675  0.0176  2.1042 -0.3201
   14CHTO   O38 5701   5.427   6.411   3.397 -0.2332 -0.0712  0.0538
   14CHTO   C55 5702   5.506   6.438   3.283  0.5444  0.3981 -0.6204
   14CHTO  H112 5703   5.485   6.534   3.235  0.6661  0.4731 -0.5260
   14CHTO   C56 5704   5.511   6.312   3.178 -0.2518  0.5152  0.1748
   14CHTO  H113 5705   5.524   6.222   3.241 -1.7215 -0.9198 -1.5011
   14CHTO   O42 5706   5.381   6.290   3.117  0.2799  0.5544 -0.1278
   14CHTO  H100 5707   5.372   6.357   3.052  2.9117 -0.0877 -1.2022
   14CHTO   C57 5708   5.629   6.325   3.070 -0.4999 -0.6018  0.0885
   14CHTO  H114 5709   5.598   6.406   3.004 -0.2974 -0.4176  0.2213
   14CHTO   N10 5710   5.648   6.194   2.995 -0.1465  0.1334 -0.4146
   14CHTO  H106 5711   5.561   6.130   2.987 -0.2819  0.3722 -0.8593
   14CHTO  H107 5712   5.670   6.231   2.896 -3.0062  2.0820 -0.3766
   14CHTO   C58 5713   5.761   6.366   3.133  0.2755 -0.3284  0.0457
   14CHTO  H115 5714   5.804   6.283   3.194 -0.8299 -2.3532 -1.8522
   14CHTO   O37 5715   5.741   6.489   3.214 -0.0652  0.4497 -0.8025
   14CHTO   C59 5716   5.653   6.464   3.325 -0.2178  0.4279 -0.7572
   14CHTO  H116 5717   5.682   6.373   3.378 -0.6384 -0.8124 -2.6168
   14CHTO   C70 5718   5.657   6.590   3.412 -0.3698  0.6179  0.5182
   14CHTO   O46 5719   5.782   6.613   3.478  0.1104 -0.1553 -0.0919
   14CHTO  H103 5720   5.765   6.683   3.538 -1.8070 -0.2651 -0.4516
   14CHTO   O39 5721   5.880   6.425   3.024  0.1167  0.1246  0.4223
   14CHTO   C60 5722   6.021   6.418   3.047  0.3532 -0.7901  0.3442
   14CHTO  H117 5723   6.068   6.478   2.969 -0.0063  0.5597  1.1524
   14CHTO   C62 5724   6.072   6.490   3.177 -0.4260 -0.0194  0.2047
   14CHTO  H119 5725   6.020   6.588   3.173  1.4771  0.9440 -2.1719
   14CHTO   O43 5726   6.023   6.407   3.292 -0.1419  0.6360 -0.1921
   14CHTO  H101 5727   6.019   6.319   3.260  0.2910  0.1909  0.9630
   14CHTO   C66 5728   6.227   6.504   3.170  0.2181 -0.2150  0.1192
   14CHTO  H123 5729   6.256   6.564   3.083  1.2441  0.9541  1.2443
   14CHTO   N12 5730   6.277   6.585   3.283 -1.0304 -0.3862  0.2861
   14CHTO  H110 5731   6.345   6.653   3.235  0.6535 -2.9570 -1.0794
   14CHTO  H111 5732   6.197   6.626   3.344  0.5624 -0.5594  2.5283
   14CHTO   C69 5733   6.291   6.364   3.155 -0.0132 -0.8651  0.4281
   14CHTO  H126 5734   6.282   6.308   3.250 -0.1320 -1.1176  0.2687
   14CHTO   O41 5735   6.224   6.274   3.033  0.7240 -0.5944  0.0020
   14CHTO   C64 5736   6.079   6.280   3.037 -0.3262  0.3727  0.1718
   14CHTO  H121 5737   6.052   6.219   3.126 -0.4904  4.3533  3.0035
   14CHTO   C71 5738   6.021   6.206   2.911 -0.0074  0.4035  0.2252
   14CHTO   O47 5739   6.032   6.065   2.907  0.2880 -0.1587 -0.0383
   14CHTO  H104 5740   5.982   6.011   2.850  1.8143  0.4245 -1.9745
   14CHTO   O34 5741   6.464   6.365   3.127 -0.2370  0.0254  0.0960
   14CHTO   C49 5742   6.606   6.357   3.040 -0.3718  0.5661 -0.3188
   14CHTO   H91 5743   6.678   6.329   3.118 -0.8989  0.3760  0.1085
   14CHTO   C47 5744   6.631   6.494   2.985 -0.0585  0.0828 -0.3362
   14CHTO   H89 5745   6.735   6.488   2.945  0.4071  1.5325  0.6014
   14CHTO   O33 5746   6.631   6.583   3.099  0.0420 -0.7656  0.1363
   14CHTO   H70 5747   6.695   6.652   3.100 -0.8142  0.0501  0.0063
   14CHTO   C45 5748   6.520   6.536   2.878  0.0414 -0.8254 -0.0563
   14CHTO   H87 5749   6.430   6.577   2.926 -1.8670 -1.7046 -2.7598
   14CHTO    N8 5750   6.585   6.651   2.804 -0.6781 -0.3545 -0.0028
   14CHTO   H75 5751   6.505   6.691   2.743  0.4283  1.9803  0.0325
   14CHTO   H76 5752   6.660   6.616   2.735 -1.2110 -0.9836 -0.2714
   14CHTO   C43 5753   6.454   6.415   2.795  0.0903  0.4875 -0.5683
   14CHTO   H85 5754   6.365   6.390   2.853  0.9240 -0.6112  0.2567
   14CHTO   O29 5755   6.548   6.307   2.788 -0.9762  0.2195  0.5732
   14CHTO   C50 5756   6.602   6.259   2.916 -0.0927  0.1294  0.1145
   14CHTO   H92 5757   6.546   6.169   2.943  0.5118 -0.6411 -1.1474
   14CHTO   C54 5758   6.747   6.216   2.875  0.1747 -0.5342 -0.6719
   14CHTO   O36 5759   6.826   6.297   2.789  0.4913  0.1131 -0.8846
   14CHTO   H72 5760   6.912   6.259   2.788  0.6789  0.3662  2.1499
   14CHTO   O27 5761   6.402   6.451   2.660 -0.1812  1.0418 -0.2831
   14CHTO   C37 5762   6.282   6.450   2.588  0.6826  0.0190 -0.2475
   14CHTO   H79 5763   6.308   6.481   2.485  1.9246  0.5057  0.2013
   14CHTO   C38 5764   6.218   6.305   2.584 -0.0656  0.5823  0.2712
   14CHTO   H80 5765   6.210   6.258   2.683 -1.3554  0.2275  0.0043
   14CHTO   O31 5766   6.307   6.221   2.503 -0.2839  0.3815  0.4004
   14CHTO   H68 5767   6.382   6.194   2.553 -0.5001  2.0521  1.6710
   14CHTO   C39 5768   6.078   6.309   2.516 -0.3874  0.4047  0.3906
   14CHTO   H81 5769   6.094   6.343   2.414  0.9998  2.3770  1.2523
   14CHTO    N7 5770   6.012   6.177   2.504  0.2183 -0.6460  0.5734
   14CHTO   H73 5771   5.918   6.183   2.450  0.2831 -0.1293  0.5205
   14CHTO   H74 5772   6.073   6.092   2.476 -0.8445 -1.2133 -0.0672
   14CHTO   C40 5773   5.987   6.420   2.575  0.0439 -0.2689  0.4886
   14CHTO   H82 5774   5.952   6.397   2.676 -1.5407 -0.2411 -0.0551
   14CHTO   O26 5775   6.052   6.544   2.570 -0.1907 -0.0486 -0.6220
   14CHTO   C41 5776   6.179   6.542   2.644  0.4088  0.2711  0.4490
   14CHTO   H83 5777   6.149   6.507   2.744  0.8543  0.3370  0.6038
   14CHTO   C52 5778   6.217   6.689   2.643  0.2088 -0.2373 -0.6835
   14CHTO   O35 5779   6.138   6.786   2.726  0.4302 -0.3744  0.1556
   14CHTO   H71 5780   6.151   6.876   2.702  0.8169 -0.0668  1.4829
   14CHTO   O28 5781   5.862   6.437   2.505  0.0782 -0.3552 -1.3138
   14CHTO   C42 5782   5.751   6.506   2.565  0.6895 -1.0282 -0.1023
   14CHTO   H84 5783   5.683   6.506   2.480 -1.3101  2.5126  1.3888
   14CHTO   C44 5784   5.763   6.657   2.609 -0.1144 -0.4646 -0.2388
   14CHTO   H86 5785   5.834   6.668   2.691  0.0439  0.4767 -0.4826
   14CHTO   O32 5786   5.826   6.724   2.500  0.2452 -0.2941  0.5337
   14CHTO   H69 5787   5.915   6.752   2.509 -0.1611  0.4566  2.3806
   14CHTO   C48 5788   5.632   6.723   2.671 -0.1965  0.5156  0.3055
   14CHTO   H90 5789   5.558   6.731   2.591  0.7671  2.8862 -0.3983
   14CHTO    N9 5790   5.650   6.862   2.718  0.3647  0.7244 -0.7684
   14CHTO   H77 5791   5.724   6.866   2.796 -0.6104 -3.4922  0.5275
   14CHTO   H78 5792   5.688   6.930   2.643 -0.6241  0.2148 -1.7378
   14CHTO   C51 5793   5.570   6.634   2.779  0.3889  0.1598 -0.6688
   14CHTO   H93 5794   5.648   6.626   2.855  0.1994  0.9520 -0.3793
   14CHTO   O30 5795   5.538   6.508   2.719 -0.0141  0.3341 -0.4069
   14CHTO   C46 5796   5.669   6.423   2.682 -0.9501 -0.1460 -0.4868
   14CHTO   H88 5797   5.727   6.418   2.774 -0.9123 -1.1103 -0.5585
   14CHTO   C53 5798   5.628   6.285   2.635  0.1084  0.2225 -0.3565
   14CHTO   O72 5799   5.556   6.286   2.517 -0.2306  0.0790 -0.3061
   14CHTO  H199 5800   5.526   6.201   2.493  2.6662 -2.4499  4.2953
   14CHTO   O22 5801   5.449   6.690   2.836  0.0195 -0.0438 -0.4469
   14CHTO   C31 5802   5.420   6.713   2.980  0.5934 -0.8388 -1.1086
   14CHTO   H59 5803   5.457   6.626   3.038 -3.6779 -1.0659  1.4945
   14CHTO   C29 5804   5.493   6.833   3.038  0.2498  0.8434 -0.2190
   14CHTO   H57 5805   5.498   6.910   2.959  0.5578  0.0947 -0.9364
   14CHTO   O21 5806   5.631   6.800   3.049 -0.4649 -0.1705 -0.1813
   14CHTO   H37 5807   5.660   6.747   2.978 -3.2421 -2.0656  0.0244
   14CHTO   C27 5808   5.446   6.904   3.178 -0.7319  0.3670 -0.8323
   14CHTO   H55 5809   5.481   6.842   3.261 -2.3013  0.0451 -0.4093
   14CHTO    N5 5810   5.504   7.042   3.190 -0.0650 -0.1802 -0.1716
   14CHTO   H43 5811   5.434   7.118   3.221 -0.5975 -1.3885  1.6546
   14CHTO   H44 5812   5.597   7.038   3.245  0.3212  1.7674 -0.6299
   14CHTO   C25 5813   5.292   6.876   3.198 -0.2364 -0.1990  0.3126
   14CHTO   H53 5814   5.228   6.939   3.135 -0.1870 -1.9946 -1.5922
   14CHTO   O17 5815   5.269   6.734   3.155 -0.2010 -0.4177  0.0531
   14CHTO   C32 5816   5.271   6.719   3.016 -0.1053 -0.1811 -0.2344
   14CHTO   H60 5817   5.221   6.799   2.961 -0.8378  0.1900  0.9418
   14CHTO   C36 5818   5.206   6.581   2.983 -0.0494  0.1213 -0.5065
   14CHTO   O25 5819   5.060   6.596   2.980  0.0003  0.9046 -0.7445
   14CHTO   H40 5820   5.013   6.533   3.031  2.9605  1.1688  2.5158
   14CHTO   O15 5821   5.241   6.924   3.350  0.1120 -0.4769  0.5696
   14CHTO   C19 5822   5.249   6.887   3.493  0.2874  0.0858  0.1899
   14CHTO   H47 5823   5.250   6.777   3.489 -0.6837  0.0968 -0.6706
   14CHTO   C20 5824   5.372   6.945   3.562 -0.1612  0.1979 -0.5083
   14CHTO   H48 5825   5.371   7.055   3.558  1.8059  0.1699 -2.8324
   14CHTO   O19 5826   5.490   6.901   3.492  0.0744 -0.0904  0.0006
   14CHTO   H35 5827   5.557   6.966   3.498  0.5979 -0.5065 -1.2494
   14CHTO   C21 5828   5.376   6.896   3.714  0.0181  0.1984  0.0108
   14CHTO   H49 5829   5.377   6.787   3.713 -0.9230  0.1513  1.8003
   14CHTO    N4 5830   5.492   6.930   3.791  0.1741 -0.3776  0.0074
   14CHTO   H41 5831   5.557   7.003   3.745 -0.5737  0.7156  0.6685
   14CHTO   H42 5832   5.460   6.957   3.891 -2.0290 -1.7700 -0.2715
   14CHTO   C22 5833   5.240   6.927   3.785  0.2546  0.1155  1.0015
   14CHTO   H50 5834   5.242   7.035   3.804  1.3236  0.5565 -1.5087
   14CHTO   O14 5835   5.124   6.899   3.706 -0.3281 -0.3858 -0.3718
   14CHTO   C23 5836   5.117   6.929   3.566  0.7059 -0.7803  0.0386
   14CHTO   H51 5837   5.096   7.036   3.550  2.7268 -0.1921  1.2054
   14CHTO   C34 5838   5.000   6.857   3.500  0.1702 -0.3304 -0.3981
   14CHTO   O23 5839   4.989   6.718   3.534  0.2368 -0.0288 -1.0682
   14CHTO   H38 5840   4.936   6.706   3.610  2.5980  0.7525  0.7858
   14CHTO   O16 5841   5.208   6.859   3.909 -0.0755 -0.5476  0.1581
   14CHTO   C24 5842   5.112   6.942   4.018 -0.2145  0.2790  0.6012
   14CHTO   H52 5843   5.037   7.001   3.966 -0.0261 -0.1423 -0.1710
   14CHTO   C26 5844   5.193   7.037   4.108  0.8070  0.9137 -0.0945
   14CHTO   H54 5845   5.285   6.988   4.147  0.4086  0.8803  0.8364
   14CHTO   O20 5846   5.244   7.141   4.026 -0.5095 -0.2527  0.4685
   14CHTO   H36 5847   5.294   7.210   4.065 -2.2141  0.9173  0.6561
   14CHTO   C30 5848   5.113   7.090   4.236 -0.7830 -0.2821 -0.1848
   14CHTO   H58 5849   5.034   7.159   4.202  0.5431  0.7082 -1.3069
   14CHTO    N6 5850   5.202   7.168   4.327 -0.1758 -0.0327 -0.0793
   14CHTO   H45 5851   5.165   7.220   4.415 -0.4689  3.4434 -2.1516
   14CHTO   H46 5852   5.293   7.115   4.352  1.4690  3.3661  1.5084
   14CHTO   C33 5853   5.038   6.971   4.308 -0.8658  1.0736  0.3193
   14CHTO   H61 5854   5.107   6.896   4.350 -1.0009 -0.0151 -1.3588
   14CHTO   O18 5855   4.956   6.901   4.210 -0.0716 -0.2274  0.4930
   14CHTO   C28 5856   5.031   6.838   4.109 -0.3875  0.2629 -0.3796
   14CHTO   H56 5857   5.103   6.775   4.161  1.1185  1.4897 -0.9199
   14CHTO   C35 5858   4.944   6.749   4.012  0.4081 -0.4607  0.4567
   14CHTO   O24 5859   5.012   6.674   3.917 -0.4058 -0.7196  0.0359
   14CHTO   H39 5860   4.957   6.602   3.895  2.3950 -2.9075 -0.1793
   14CHTO    O9 5861   4.958   7.021   4.419 -0.0903 -0.2639 -0.5061
   14CHTO   C13 5862   4.921   6.912   4.526 -0.6535  0.4464 -0.9570
   14CHTO   H26 5863   4.940   6.814   4.478  1.2556  0.2752  0.0778
   14CHTO   C11 5864   4.772   6.931   4.582 -0.2315 -0.8022  0.3036
   14CHTO   H24 5865   4.712   6.901   4.495  0.5046  0.5833 -0.7036
   14CHTO    O8 5866   4.732   7.063   4.602  0.3179  0.0385  0.1380
   14CHTO    H3 5867   4.806   7.120   4.617 -0.1516  0.2762  1.6362
   14CHTO    C9 5868   4.745   6.835   4.703  0.6143  0.1070 -0.2864
   14CHTO   H22 5869   4.752   6.734   4.661 -1.4382 -0.2794  0.2714
   14CHTO    N2 5870   4.607   6.828   4.756 -0.4744 -0.4836 -0.3594
   14CHTO   H10 5871   4.583   6.919   4.809 -3.6669 -0.7231 -1.3101
   14CHTO   H11 5872   4.585   6.735   4.806 -0.6797 -0.2154  0.0521
   14CHTO    C7 5873   4.858   6.850   4.823  0.3149  0.0048 -0.3115
   14CHTO   H20 5874   4.851   6.754   4.878 -0.0876  1.0297  1.4533
   14CHTO    O4 5875   4.993   6.851   4.763  0.0426  0.1478 -0.4534
   14CHTO   C14 5876   5.022   6.925   4.645 -0.1951  0.1959 -0.5329
   14CHTO   H27 5877   5.120   6.891   4.607  0.1287 -0.1149  0.5496
   14CHTO   C18 5878   5.042   7.078   4.681 -0.5547  0.4578  0.2993
   14CHTO   O13 5879   5.160   7.089   4.757 -0.4707  0.3680 -0.3977
   14CHTO    H7 5880   5.199   7.172   4.734  0.2595  0.2078  0.2516
   14CHTO    O2 5881   4.842   6.985   4.914  0.3589  0.3840 -0.5616
   14CHTO    C1 5882   4.831   6.962   5.053  0.5089 -0.0632 -0.1789
   14CHTO   H14 5883   4.823   6.852   5.066 -1.0170  0.1485  0.7930
   14CHTO    C2 5884   4.696   7.031   5.112 -0.2877 -0.1963  0.1933
   14CHTO   H15 5885   4.700   7.138   5.089 -0.3541 -0.0524  0.8319
   14CHTO    O6 5886   4.580   6.975   5.044 -0.0347  0.4874  0.7346
   14CHTO    H1 5887   4.517   6.928   5.095 -1.1101  0.7310 -0.3492
   14CHTO    C3 5888   4.690   7.013   5.269 -0.6769 -0.1974  0.5516
   14CHTO   H16 5889   4.685   6.905   5.287  0.1293 -0.6167 -1.7196
   14CHTO    N1 5890   4.568   7.067   5.335  0.3595 -0.5199 -0.4585
   14CHTO    H8 5891   4.504   7.118   5.264 -0.6529  0.4882  1.1291
   14CHTO    H9 5892   4.514   6.993   5.392 -1.0799  1.9293  1.4590
   14CHTO    C4 5893   4.826   7.063   5.335  0.3351 -0.2358  0.2819
   14CHTO   H17 5894   4.829   7.172   5.331  1.6056 -0.2967 -0.6135
   14CHTO    O1 5895   4.942   6.995   5.274 -0.5318  0.1951 -0.4868
   14CHTO    C5 5896   4.958   7.011   5.130 -0.4097  0.2344 -0.7316
   14CHTO   H18 5897   4.971   7.118   5.113  0.5356 -0.0307 -1.7478
   14CHTO   C16 5898   5.081   6.933   5.083  0.3579  0.2068  0.1206
   14CHTO   O11 5899   5.187   6.982   5.158  0.1152  0.2334  0.2068
   14CHTO    H5 5900   5.264   6.989   5.106  0.9703 -0.7289  1.3185
   14CHTO    O3 5901   4.830   7.047   5.474 -0.2211  0.6264 -0.4577
   14CHTO    C6 5902   4.940   6.997   5.559 -0.1465 -0.7797  0.3907
   14CHTO   H19 5903   5.008   6.926   5.511  0.9090 -0.3468  1.2243
   14CHTO    C8 5904   5.036   7.108   5.614  0.1758 -0.1181 -0.0843
   14CHTO   H21 5905   4.977   7.169   5.683  1.0066  0.7545 -0.1278
   14CHTO    O7 5906   5.093   7.180   5.501  0.0186 -0.2045 -0.4635
   14CHTO    H2 5907   5.036   7.251   5.476 -0.1735 -0.2582 -0.1848
   14CHTO   C12 5908   5.152   7.041   5.704  0.3106 -0.0727  0.3656
   14CHTO   H25 5909   5.207   6.971   5.638  0.0308 -1.8325  1.9804
   14CHTO    N3 5910   5.247   7.139   5.766 -0.8138  0.5550  0.1775
   14CHTO   H12 5911   5.189   7.223   5.802 -0.2423  1.5584 -1.1748
   14CHTO   H13 5912   5.320   7.161   5.689  0.6922 -1.0734  1.1085
   14CHTO   C15 5913   5.080   6.951   5.812  0.0671 -0.1782 -0.0946
   14CHTO   H28 5914   5.029   7.013   5.886 -0.0522 -0.7561  0.3105
   14CHTO   O10 5915   5.158   6.837   5.887 -0.4215 -0.2377 -0.1923
   14CHTO    H4 5916   5.112   6.799   5.960 -2.4541 -1.6304 -2.1182
   14CHTO    O5 5917   4.991   6.870   5.747  0.3721 -1.3199 -0.2904
   14CHTO   C10 5918   4.878   6.926   5.679 -0.5150 -0.5726 -1.3853
   14CHTO   H23 5919   4.829   7.005   5.736  0.7758  0.6079 -1.9033
   14CHTO   C17 5920   4.771   6.822   5.657  0.1299  0.0055  0.2302
   14CHTO   O12 5921   4.649   6.881   5.608 -0.4874 -0.2439  0.2809
   14CHTO    H6 5922   4.631   6.851   5.521 -1.2942  2.0657 -0.3883
   15CHTO  H203 5923   5.390   5.816   4.014  3.1968  0.6156 -0.7278
   15CHTO   O82 5924   5.424   5.764   4.084  0.6793 -0.1328 -0.0081
   15CHTO  C123 5925   5.470   5.632   4.033 -0.5980 -0.5551  0.8305
   15CHTO  H227 5926   5.540   5.588   4.105  1.4840  0.7401 -0.3745
   15CHTO   O77 5927   5.354   5.547   4.023  0.5698  0.2580 -0.7256
   15CHTO  C118 5928   5.355   5.432   3.940  0.3268  0.2009 -0.2343
   15CHTO  H222 5929   5.411   5.353   3.991  0.7626  1.3145  1.0384
   15CHTO  C125 5930   5.203   5.391   3.913  0.0037 -0.0639  0.1694
   15CHTO   O84 5931   5.131   5.357   4.032 -0.6055  0.0211 -0.7701
   15CHTO  H205 5932   5.130   5.263   4.036 -1.6231 -0.0950 -3.2383
   15CHTO  C114 5933   5.431   5.450   3.805  0.2524  0.0360 -0.0170
   15CHTO  H218 5934   5.367   5.505   3.737 -0.4799 -1.0732 -0.2388
   15CHTO  C116 5935   5.570   5.518   3.812  0.2631 -0.8803  0.5478
   15CHTO  H220 5936   5.638   5.446   3.863  2.1208 -0.4341 -1.2618
   15CHTO   O79 5937   5.625   5.521   3.679 -0.2070 -0.1424  0.0803
   15CHTO  H201 5938   5.634   5.610   3.650  2.5810  0.3152  2.1223
   15CHTO  C120 5939   5.543   5.655   3.892 -0.9027  0.2691 -0.8360
   15CHTO  H224 5940   5.473   5.716   3.831 -0.7980 -0.3242 -1.5644
   15CHTO   N21 5941   5.674   5.722   3.915 -0.3203  0.1218 -0.0033
   15CHTO  H211 5942   5.726   5.654   3.981  1.5638 -0.4665 -2.0300
   15CHTO  H212 5943   5.724   5.748   3.823  0.0183  2.5085  0.8135
   15CHTO   O75 5944   5.427   5.318   3.750 -0.3551 -0.1682 -0.3073
   15CHTO  C112 5945   5.553   5.203   3.806  0.4223 -0.5672  0.7199
   15CHTO  H216 5946   5.572   5.227   3.912 -2.2061 -0.6281  1.2366
   15CHTO   O73 5947   5.674   5.207   3.726  0.4019  0.1392 -0.7499
   15CHTO  C113 5948   5.786   5.130   3.781  0.2142  0.5058  0.2910
   15CHTO  H217 5949   5.812   5.155   3.886  3.2903  0.9433 -0.5156
   15CHTO  C124 5950   5.911   5.157   3.708 -0.7915  0.1514 -0.1263
   15CHTO   O83 5951   5.960   5.287   3.721 -0.1387 -0.3613 -0.1728
   15CHTO  H204 5952   6.002   5.289   3.804  0.9164 -2.6008 -0.6054
   15CHTO  C109 5953   5.749   4.975   3.777  0.3396 -0.2706  0.3849
   15CHTO  H213 5954   5.747   4.951   3.670  1.5971  0.9678  0.0592
   15CHTO  C110 5955   5.612   4.949   3.843  0.3713 -0.3083  0.7874
   15CHTO  H214 5956   5.626   4.945   3.951 -0.3653 -0.4355  0.8834
   15CHTO   O78 5957   5.574   4.817   3.810 -0.1908  0.2024  0.2805
   15CHTO  H200 5958   5.501   4.781   3.857  0.8347 -2.0562  0.2158
   15CHTO  C111 5959   5.496   5.048   3.806  0.4176  0.1065 -0.5651
   15CHTO  H215 5960   5.463   5.025   3.703  1.2601 -0.0782 -0.7942
   15CHTO   N19 5961   5.375   5.040   3.889  0.0553  0.1696  0.3289
   15CHTO  H207 5962   5.316   5.130   3.890 -1.2960 -0.6925  0.0562
   15CHTO  H208 5963   5.318   4.948   3.892 -1.0218  0.8607  2.4765
   15CHTO   O74 5964   5.856   4.894   3.833 -0.4544 -0.0182 -0.1712
   15CHTO  C115 5965   5.895   4.768   3.759  0.2994  0.1130 -0.1879
   15CHTO  H219 5966   5.812   4.719   3.707  0.3945 -0.1801 -0.0688
   15CHTO   O76 5967   6.006   4.795   3.645  0.2910  0.3798 -0.3601
   15CHTO  C122 5968   6.059   4.682   3.571 -0.3161  0.3696 -0.1072
   15CHTO  H226 5969   6.153   4.721   3.533  0.9371 -1.3091  1.1661
   15CHTO  C126 5970   5.973   4.652   3.447  0.0610 -0.2141  0.0868
   15CHTO   O85 5971   5.858   4.583   3.488 -0.4177 -0.0667  0.4581
   15CHTO  H206 5972   5.864   4.492   3.466 -0.6044 -0.1051  0.5623
   15CHTO  C121 5973   6.094   4.561   3.673 -0.1502  0.4250 -1.4759
   15CHTO  H225 5974   6.113   4.464   3.621 -0.5642 -0.3723 -0.1651
   15CHTO   O81 5975   6.220   4.599   3.735  0.2584  0.2746 -0.4620
   15CHTO  H202 5976   6.241   4.555   3.816 -2.7188 -0.8180 -0.2408
   15CHTO  C119 5977   5.980   4.535   3.778  0.5946  0.1508  0.2118
   15CHTO  H223 5978   5.890   4.509   3.722  1.1458 -0.7239 -0.2739
   15CHTO  C117 5979   5.950   4.666   3.863  0.2539 -0.0737 -0.2044
   15CHTO  H221 5980   6.033   4.719   3.908  0.6041 -1.8242  1.2495
   15CHTO   N20 5981   5.853   4.638   3.974  0.6036 -0.1044  0.2304
   15CHTO  H209 5982   5.882   4.550   4.030  0.8380 -1.3401 -1.7612
   15CHTO  H210 5983   5.828   4.725   4.032 -0.4393 -0.4786  0.3624
   15CHTO   O80 5984   6.005   4.392   3.873  0.6347 -0.3249 -0.1875
   15CHTO  C103 5985   5.919   4.260   3.833  0.5508  0.2055 -0.0705
   15CHTO  H190 5986   5.948   4.169   3.885  2.8955  1.6574  1.2399
   15CHTO  C101 5987   5.761   4.282   3.863  0.8103 -0.0549  0.0062
   15CHTO  H188 5988   5.725   4.378   3.825  1.2455  1.4267  3.1498
   15CHTO   O68 5989   5.727   4.288   4.008 -0.6130 -0.5140  0.3087
   15CHTO  H168 5990   5.791   4.328   4.063  0.3981 -2.1626  0.3647
   15CHTO   C99 5991   5.674   4.171   3.786 -0.2192 -0.5824  0.9069
   15CHTO  H186 5992   5.711   4.074   3.826 -0.7721 -1.3288 -0.3726
   15CHTO   N17 5993   5.525   4.184   3.813 -0.1999  0.0239  0.5447
   15CHTO  H174 5994   5.492   4.112   3.886 -1.1971 -0.7223 -0.6165
   15CHTO  H175 5995   5.503   4.283   3.849  0.6245  0.6062 -0.5215
   15CHTO   C97 5996   5.710   4.174   3.632  0.0031  0.0422 -0.5790
   15CHTO  H184 5997   5.688   4.279   3.603 -1.6196 -0.4525 -1.2434
   15CHTO   O64 5998   5.849   4.144   3.626  0.5110 -0.1963 -0.0761
   15CHTO  C104 5999   5.936   4.243   3.678 -0.3362  0.0081 -0.1299
   15CHTO  H191 6000   5.912   4.334   3.623  2.8922  1.2069  0.3451
   15CHTO  C108 6001   6.081   4.212   3.640  0.1938 -0.2789  0.7770
   15CHTO   O71 6002   6.139   4.089   3.692 -0.1752 -0.3554  0.4029
   15CHTO  H171 6003   6.082   4.057   3.759  0.3935  0.7960  1.4699
   15CHTO   O62 6004   5.627   4.074   3.557 -0.2070  0.0856  0.2121
   15CHTO   C91 6005   5.514   4.118   3.476  0.4581  0.0599  0.4254
   15CHTO  H178 6006   5.497   4.222   3.502 -2.0846  0.1534 -1.3732
   15CHTO   C92 6007   5.378   4.042   3.511  0.2922 -0.3370  0.4590
   15CHTO  H179 6008   5.378   4.033   3.620  1.4626 -3.9520  0.2353
   15CHTO   O66 6009   5.262   4.128   3.470 -0.1415 -0.1945 -0.4810
   15CHTO  H166 6010   5.231   4.174   3.546  0.3579  2.1307 -1.6332
   15CHTO   C93 6011   5.359   3.901   3.445  0.6018 -0.5291 -0.5484
   15CHTO  H180 6012   5.255   3.872   3.462  0.1978 -0.3711 -2.6846
   15CHTO   N16 6013   5.421   3.781   3.513  0.1283 -0.3545  0.3156
   15CHTO  H172 6014   5.372   3.771   3.608 -1.8085 -0.0151 -0.6247
   15CHTO  H173 6015   5.527   3.795   3.525 -0.3630  2.1146  1.8945
   15CHTO   C94 6016   5.393   3.907   3.289  0.5622 -0.1150 -0.1946
   15CHTO  H181 6017   5.474   3.840   3.261 -0.9374 -1.7335 -0.6517
   15CHTO   O61 6018   5.434   4.041   3.245 -0.9975  0.1351 -0.0913
   15CHTO   C95 6019   5.532   4.109   3.319 -0.2009 -0.1868  0.1115
   15CHTO  H182 6020   5.627   4.056   3.310 -0.5026 -0.5149 -1.2265
   15CHTO  C106 6021   5.560   4.251   3.272  0.4087  0.3950 -0.6280
   15CHTO   O69 6022   5.621   4.263   3.145 -0.1470 -0.0893 -0.2275
   15CHTO  H169 6023   5.695   4.320   3.142 -0.7903  0.9146  1.9727
   15CHTO   O63 6024   5.268   3.872   3.205  0.7368  0.0089 -0.5707
   15CHTO   C96 6025   5.313   3.807   3.060 -0.1499  0.0189 -0.2258
   15CHTO  H183 6026   5.422   3.806   3.055 -0.2257 -1.2250 -2.0488
   15CHTO   C98 6027   5.254   3.894   2.950 -0.3157 -0.1371  0.9220
   15CHTO  H185 6028   5.148   3.914   2.973 -0.5522 -0.0063 -0.2599
   15CHTO   O67 6029   5.327   4.020   2.956  0.2465 -0.1038 -0.0855
   15CHTO  H167 6030   5.321   4.057   3.041  0.2336  1.9793 -0.9683
   15CHTO  C102 6031   5.267   3.828   2.809  0.0101 -0.0911  0.2298
   15CHTO  H189 6032   5.374   3.826   2.782 -0.2676 -1.5867 -0.8253
   15CHTO   N18 6033   5.204   3.903   2.696 -0.7226  0.2388 -0.3129
   15CHTO  H176 6034   5.192   4.009   2.717 -0.7026  0.8452 -3.1673
   15CHTO  H177 6035   5.249   3.881   2.600 -1.1039 -1.5327 -0.0993
   15CHTO  C105 6036   5.216   3.681   2.821 -0.6332  0.5479 -0.4743
   15CHTO  H192 6037   5.109   3.685   2.840 -0.3413  0.7232  1.2249
   15CHTO   O65 6038   5.285   3.604   2.917  0.0021 -0.4110 -0.1726
   15CHTO  C100 6039   5.261   3.658   3.054 -0.6532  0.1485 -0.4073
   15CHTO  H187 6040   5.154   3.672   3.076 -0.6328  2.5951 -1.7003
   15CHTO  C107 6041   5.319   3.558   3.156  0.3691  0.3664 -0.0471
   15CHTO   O70 6042   5.258   3.431   3.145 -0.0295 -0.0313  0.0950
   15CHTO  H170 6043   5.265   3.377   3.221 -1.0707 -0.1094  0.1493
   15CHTO   O57 6044   5.258   3.605   2.664  0.0166 -0.3304  0.2329
   15CHTO   C85 6045   5.201   3.477   2.641 -0.0811  0.5522 -0.3254
   15CHTO  H157 6046   5.121   3.467   2.718 -1.6138  1.4116 -1.7698
   15CHTO   C83 6047   5.311   3.371   2.668 -0.3858  1.0221 -0.2719
   15CHTO  H155 6048   5.344   3.375   2.772  0.0295 -0.1157 -0.3552
   15CHTO   O56 6049   5.417   3.388   2.576  0.1506  0.3018  0.3620
   15CHTO  H135 6050   5.461   3.469   2.593 -2.9938  1.8566  1.4351
   15CHTO   C81 6051   5.244   3.229   2.651  0.1377 -1.1159  0.2767
   15CHTO  H153 6052   5.157   3.218   2.715 -0.6348 -0.7440 -0.7043
   15CHTO   N14 6053   5.334   3.110   2.673 -0.8239 -0.4826 -1.0254
   15CHTO  H141 6054   5.271   3.023   2.681 -0.5098 -0.4504  2.8476
   15CHTO  H142 6055   5.387   3.123   2.765 -0.3454 -2.7997 -0.9244
   15CHTO   C79 6056   5.191   3.224   2.505 -0.0010 -0.3122  0.3925
   15CHTO  H151 6057   5.136   3.130   2.499  1.4321 -1.0910 -0.7947
   15CHTO   O52 6058   5.090   3.327   2.480 -0.4485 -0.1725  0.2363
   15CHTO   C86 6059   5.146   3.460   2.496  0.2206 -0.4264 -0.0172
   15CHTO  H158 6060   5.224   3.474   2.417  1.1876  0.8814  1.1407
   15CHTO   C90 6061   5.030   3.556   2.468 -0.7567 -0.3348 -0.1581
   15CHTO   O60 6062   5.078   3.687   2.426 -0.2401  0.2766  0.4966
   15CHTO  H138 6063   5.109   3.690   2.337 -1.2830  1.5410  0.1615
   15CHTO   O50 6064   5.292   3.230   2.401  0.4035  0.3446  0.0070
   15CHTO   C73 6065   5.299   3.217   2.258  0.0192 -0.4537  0.3636
   15CHTO  H145 6066   5.215   3.266   2.207 -0.0236  0.5366  1.3749
   15CHTO   C74 6067   5.284   3.068   2.225  0.2468  0.1503  0.1026
   15CHTO  H146 6068   5.185   3.044   2.267 -0.5581 -0.5146 -2.1237
   15CHTO   O54 6069   5.285   3.059   2.081  0.2286 -0.3736 -0.1609
   15CHTO  H133 6070   5.249   2.974   2.059  0.6767 -0.9917  1.4675
   15CHTO   C75 6071   5.401   2.996   2.295  0.5118 -0.3633 -0.8651
   15CHTO  H147 6072   5.394   3.013   2.403  0.0684 -2.5742 -0.5162
   15CHTO   N13 6073   5.392   2.852   2.282 -0.0044  0.5255 -0.2291
   15CHTO  H139 6074   5.291   2.815   2.278 -0.5056  1.7082  1.1718
   15CHTO  H140 6075   5.458   2.798   2.215 -0.0362  0.8394 -0.5133
   15CHTO   C76 6076   5.542   3.055   2.247  0.3233 -0.7911  0.3681
   15CHTO  H148 6077   5.545   3.040   2.139 -1.7904  1.0173  0.0358
   15CHTO   O49 6078   5.540   3.206   2.273  0.6322 -0.3436 -0.1925
   15CHTO   C77 6079   5.431   3.268   2.203  0.8873 -0.0793  0.0106
   15CHTO  H149 6080   5.444   3.239   2.098  3.6314  0.2387  0.2191
   15CHTO   C88 6081   5.438   3.422   2.211  0.3319 -0.2847 -0.2211
   15CHTO   O58 6082   5.560   3.487   2.133  0.3178 -0.0959 -0.7529
   15CHTO  H136 6083   5.636   3.440   2.162 -0.1445 -1.0024 -0.9925
   15CHTO   O51 6084   5.675   2.998   2.300  0.7532  0.1408  0.1347
   15CHTO   C78 6085   5.791   3.032   2.221 -0.5169  0.4483  0.3856
   15CHTO  H150 6086   5.763   3.108   2.145 -0.1907  0.2163  0.0311
   15CHTO   C80 6087   5.842   2.899   2.151 -0.6726 -0.7444 -0.1420
   15CHTO  H152 6088   5.833   2.817   2.225 -2.3882 -1.8530 -1.5080
   15CHTO   O55 6089   5.733   2.868   2.055 -0.4067  0.3135 -0.9270
   15CHTO  H134 6090   5.732   2.776   2.035  0.0773  0.1665 -0.2938
   15CHTO   C84 6091   5.989   2.915   2.086  0.0017 -0.6355  0.7321
   15CHTO  H156 6092   5.977   2.983   2.001 -1.4802  0.3715  1.7291
   15CHTO   N15 6093   6.038   2.786   2.031 -0.3426  0.4261 -0.2633
   15CHTO  H143 6094   6.131   2.743   2.062 -0.7164 -0.1417  0.0834
   15CHTO  H144 6095   5.963   2.710   2.037  0.4636 -0.3435  0.2694
   15CHTO   C87 6096   6.082   2.973   2.192 -0.2420  0.1381  0.1313
   15CHTO  H159 6097   6.087   2.903   2.275  1.0099  0.5032  0.3860
   15CHTO   O53 6098   6.026   3.113   2.237 -0.1504  0.2939  0.2429
   15CHTO   C82 6099   5.906   3.089   2.315 -0.6501 -0.6454 -0.2523
   15CHTO  H154 6100   5.926   3.015   2.393 -1.2784  0.9184  1.4082
   15CHTO   C89 6101   5.863   3.220   2.388 -0.1379 -0.8843 -0.4953
   15CHTO   O59 6102   5.744   3.220   2.477 -0.1030 -0.4530 -0.1243
   15CHTO  H137 6103   5.778   3.217   2.564 -0.1282 -0.2691 -0.1097
   15CHTO   O45 6104   6.235   2.999   2.143  0.0108 -0.1990  0.5757
   15CHTO   C67 6105   6.312   3.060   2.249 -0.7288 -0.0624 -0.2510
   15CHTO  H124 6106   6.250   3.130   2.303 -0.8873  0.2140 -0.7881
   15CHTO   C65 6107   6.366   2.944   2.346 -0.8071  0.3061  0.3604
   15CHTO  H122 6108   6.356   2.844   2.304 -1.0437 -0.0465  1.2556
   15CHTO   O44 6109   6.279   2.946   2.458 -0.1467  0.5702 -0.1211
   15CHTO  H102 6110   6.286   2.862   2.499 -1.2242  0.5058 -0.0672
   15CHTO   C63 6111   6.520   2.953   2.371  0.3004  0.1085 -0.1472
   15CHTO  H120 6112   6.574   2.923   2.281 -0.9603  2.2967 -1.6935
   15CHTO   N11 6113   6.575   2.854   2.467 -0.5718  0.3400 -0.2638
   15CHTO  H108 6114   6.529   2.759   2.449 -0.1793  0.5042 -2.1765
   15CHTO  H109 6115   6.555   2.885   2.568  1.3945  1.6888 -0.2751
   15CHTO   C61 6116   6.566   3.102   2.401  0.7235  0.1219  0.4829
   15CHTO  H118 6117   6.675   3.103   2.414  0.9564 -0.6359 -1.1764
   15CHTO   O40 6118   6.533   3.196   2.297  0.2702  0.7510  0.5546
   15CHTO   C68 6119   6.435   3.149   2.190 -0.2710 -0.3186  0.5556
   15CHTO  H125 6120   6.484   3.086   2.112  0.4485  1.1257 -0.1825
   15CHTO   C72 6121   6.379   3.275   2.112 -0.2424 -0.4245 -0.0360
   15CHTO   O48 6122   6.471   3.311   2.007  0.6870 -1.0071  0.4658
   15CHTO  H105 6123   6.433   3.382   1.959 -0.3610 -0.2061  2.4133
   15CHTO   O38 6124   6.498   3.150   2.517 -0.1169 -0.0681  0.0740
   15CHTO   C55 6125   6.521   3.287   2.559 -0.1723  0.3886  0.3547
   15CHTO  H112 6126   6.544   3.349   2.471  1.3733 -0.7777 -0.0771
   15CHTO   C56 6127   6.625   3.309   2.682 -0.0103  0.2440 -0.6187
   15CHTO  H113 6128   6.579   3.254   2.766  0.9091  1.9265  0.9984
   15CHTO   O42 6129   6.759   3.256   2.649 -0.5111 -0.3653  0.4873
   15CHTO  H100 6130   6.829   3.318   2.646 -0.3138 -0.6355 -3.5095
   15CHTO   C57 6131   6.634   3.463   2.719  0.1334  0.0147  0.5852
   15CHTO  H114 6132   6.665   3.518   2.630  1.5760 -0.5441  0.7228
   15CHTO   N10 6133   6.732   3.496   2.823 -0.3472 -0.5949 -0.0427
   15CHTO  H106 6134   6.740   3.604   2.821  4.5326 -0.8336 -0.4345
   15CHTO  H107 6135   6.697   3.464   2.920 -2.3007  2.2266  0.2280
   15CHTO   C58 6136   6.496   3.510   2.760  0.2555  0.2965 -0.4644
   15CHTO  H115 6137   6.468   3.456   2.852  2.2157 -0.6765 -0.4202
   15CHTO   O37 6138   6.401   3.483   2.657 -0.2436  0.1621 -0.0018
   15CHTO   C59 6139   6.385   3.346   2.605 -0.4417  0.4760 -0.0599
   15CHTO  H116 6140   6.348   3.283   2.685  0.9463 -0.5764 -0.2191
   15CHTO   C70 6141   6.277   3.351   2.495  0.3354  0.3507 -0.3694
   15CHTO   O46 6142   6.298   3.438   2.384  0.3562  0.5018  0.3806
   15CHTO  H103 6143   6.215   3.478   2.365 -0.5145 -1.4324  0.0153
   15CHTO   O39 6144   6.478   3.668   2.799  0.0431 -0.4344  0.1818
   15CHTO   C60 6145   6.403   3.688   2.921 -0.2201 -0.8810 -0.3238
   15CHTO  H117 6146   6.326   3.613   2.941 -1.9591  0.8175 -0.5339
   15CHTO   C62 6147   6.507   3.699   3.044 -0.2603  0.4324 -0.0319
   15CHTO  H119 6148   6.550   3.598   3.058 -2.3930 -0.3683  0.9022
   15CHTO   O43 6149   6.610   3.799   3.018  0.6159  0.5335 -0.3431
   15CHTO  H101 6150   6.619   3.824   2.928 -1.4365  0.4642 -0.5988
   15CHTO   C66 6151   6.409   3.728   3.175 -0.0912 -0.1224 -0.2135
   15CHTO  H123 6152   6.330   3.652   3.175  1.9376 -2.3936 -3.6256
   15CHTO   N12 6153   6.491   3.733   3.295 -0.4850  0.0202 -0.8832
   15CHTO  H110 6154   6.422   3.755   3.375  1.0389 -0.0265  0.4649
   15CHTO  H111 6155   6.527   3.634   3.319 -1.5662 -0.7199 -2.3068
   15CHTO   C69 6156   6.328   3.859   3.142  0.1529 -0.1099 -0.2754
   15CHTO  H126 6157   6.399   3.945   3.144 -0.1025  0.1160 -0.8072
   15CHTO   O41 6158   6.257   3.859   3.023 -0.7307 -0.4315  0.1259
   15CHTO   C64 6159   6.336   3.827   2.902 -0.1531 -0.0131  0.1908
   15CHTO  H121 6160   6.416   3.902   2.891  0.6911 -1.1320 -1.4095
   15CHTO   C71 6161   6.243   3.842   2.775  0.1261 -0.1494 -0.1563
   15CHTO   O47 6162   6.181   3.973   2.786  0.8009 -0.3321 -0.4235
   15CHTO  H104 6163   6.110   3.969   2.726  0.1188 -1.6453  0.4439
   15CHTO   O34 6164   6.231   3.877   3.243  0.3097 -0.4907  0.4593
   15CHTO   C49 6165   6.129   4.006   3.300 -0.7395  0.2210  0.1976
   15CHTO   H91 6166   6.194   4.070   3.359 -0.5481  0.2866 -0.0859
   15CHTO   C47 6167   6.022   3.942   3.393 -0.5477  0.7007 -0.2823
   15CHTO   H89 6168   5.969   4.031   3.432 -1.1157 -0.1325  0.8536
   15CHTO   O33 6169   6.093   3.873   3.497 -0.4593  0.2186  0.6275
   15CHTO   H70 6170   6.106   3.935   3.566  0.3242  1.2142 -0.3967
   15CHTO   C45 6171   5.917   3.851   3.313  0.8911  0.4703 -0.0559
   15CHTO   H87 6172   5.960   3.750   3.300 -2.6444 -1.4488  2.2058
   15CHTO    N8 6173   5.792   3.835   3.392 -0.5225  0.0340 -0.1890
   15CHTO   H75 6174   5.792   3.878   3.491 -1.1564  1.2005 -0.6867
   15CHTO   H76 6175   5.768   3.730   3.384  2.6622 -0.6431 -1.7480
   15CHTO   C43 6176   5.908   3.912   3.164  0.0451 -0.1207 -0.6159
   15CHTO   H85 6177   5.989   3.867   3.106  3.5023  3.0089  1.5145
   15CHTO   O29 6178   5.917   4.058   3.166  0.4737 -0.4367 -0.0551
   15CHTO   C50 6179   6.054   4.095   3.192  0.2359  0.5958 -0.1559
   15CHTO   H92 6180   6.119   4.094   3.103  1.9821  0.5204  1.0960
   15CHTO   C54 6181   6.047   4.246   3.221 -0.4343  0.2732 -0.2554
   15CHTO   O36 6182   5.938   4.276   3.319 -0.3363 -0.0529 -0.2376
   15CHTO   H72 6183   5.937   4.220   3.394  1.0906 -2.8538 -2.2356
   15CHTO   O27 6184   5.786   3.885   3.100 -0.2223 -0.2094  0.0298
   15CHTO   C37 6185   5.774   3.809   2.981 -0.7164 -0.3842  0.1706
   15CHTO   H79 6186   5.868   3.774   2.936 -2.6169 -0.3366 -4.0841
   15CHTO   C38 6187   5.707   3.676   3.020  0.8103 -0.6305 -0.3574
   15CHTO   H80 6188   5.612   3.697   3.071  0.1748 -1.4947 -1.1642
   15CHTO   O31 6189   5.790   3.606   3.115  0.5046 -0.1836  0.0053
   15CHTO   H68 6190   5.741   3.530   3.142 -0.5359  0.1079 -1.0473
   15CHTO   C39 6191   5.682   3.596   2.886  0.4798 -0.2233  0.3280
   15CHTO   H81 6192   5.781   3.571   2.849  1.0379 -0.6277  2.0798
   15CHTO    N7 6193   5.607   3.466   2.917  0.6612  0.6311 -0.3365
   15CHTO   H73 6194   5.589   3.451   3.023 -3.2034 -1.1825 -1.1534
   15CHTO   H74 6195   5.654   3.379   2.874 -2.4982 -0.9517 -0.7321
   15CHTO   C40 6196   5.596   3.683   2.783  0.2382 -0.2596  0.4678
   15CHTO   H82 6197   5.499   3.697   2.832 -0.1840  0.7400 -0.6510
   15CHTO   O26 6198   5.665   3.808   2.761 -0.0103 -0.3575 -0.1882
   15CHTO   C41 6199   5.692   3.889   2.878  0.3669 -0.0824 -0.1005
   15CHTO   H83 6200   5.604   3.928   2.931  1.1079 -1.2059  1.9820
   15CHTO   C52 6201   5.791   4.006   2.837 -0.1871  0.2124  0.6415
   15CHTO   O35 6202   5.749   4.127   2.906  0.4645  0.1033  0.0039
   15CHTO   H71 6203   5.788   4.196   2.855  1.3765  0.1243  0.7239
   15CHTO   O28 6204   5.563   3.613   2.661 -0.3605 -0.2575  0.2043
   15CHTO   C42 6205   5.639   3.626   2.535  0.3563  0.1809  0.1482
   15CHTO   H84 6206   5.611   3.538   2.476 -2.8552  0.7999  0.6354
   15CHTO   C44 6207   5.794   3.624   2.548 -0.1142  0.4661  0.4996
   15CHTO   H86 6208   5.824   3.708   2.610  1.7866  0.1228  0.0655
   15CHTO   O32 6209   5.825   3.497   2.604  0.0007  0.0429  0.1667
   15CHTO   H69 6210   5.763   3.474   2.670 -0.0505  1.0113  0.4652
   15CHTO   C48 6211   5.854   3.651   2.402  0.3113 -0.4188 -0.3500
   15CHTO   H90 6212   5.828   3.568   2.336 -0.4099 -1.4692  1.2284
   15CHTO    N9 6213   6.001   3.657   2.410 -0.1592  0.3413 -0.3109
   15CHTO   H77 6214   6.048   3.725   2.480 -0.8059  0.1933  0.2669
   15CHTO   H78 6215   6.059   3.567   2.393  1.4215  1.4279 -0.8787
   15CHTO   C51 6216   5.799   3.788   2.357 -0.2007  0.7779  0.3091
   15CHTO   H93 6217   5.822   3.867   2.428 -0.2974 -0.1918  1.4249
   15CHTO   O30 6218   5.657   3.767   2.338  0.2760 -0.1785  0.3958
   15CHTO   C46 6219   5.591   3.752   2.460 -0.7507 -0.9214  0.4550
   15CHTO   H88 6220   5.622   3.838   2.519  1.6553 -0.6455 -1.1206
   15CHTO   C53 6221   5.439   3.743   2.428  0.1826  0.8606  0.5285
   15CHTO   O72 6222   5.398   3.876   2.387  0.0001 -0.2834  0.4439
   15CHTO  H199 6223   5.304   3.878   2.380 -0.0602 -3.5351 -0.1686
   15CHTO   O22 6224   5.835   3.818   2.220 -0.0992  0.3683  0.1904
   15CHTO   C31 6225   5.816   3.954   2.164 -0.2173 -0.1937 -0.0629
   15CHTO   H59 6226   5.853   3.947   2.059  1.2080 -2.9379  0.5882
   15CHTO   C29 6227   5.666   4.000   2.154 -0.6660  0.1777  0.2379
   15CHTO   H57 6228   5.619   3.983   2.251 -0.2843 -1.8720  0.0864
   15CHTO   O21 6229   5.593   3.909   2.062  0.3706 -0.4267 -0.1046
   15CHTO   H37 6230   5.520   3.862   2.098  1.4410 -0.6815  1.8141
   15CHTO   C27 6231   5.656   4.153   2.113  0.3890  0.5910 -0.1397
   15CHTO   H55 6232   5.691   4.170   2.010  0.1121 -0.8962 -0.4965
   15CHTO    N5 6233   5.516   4.201   2.129 -0.0331 -0.0672  0.5062
   15CHTO   H43 6234   5.489   4.192   2.233  0.1441 -0.9852  0.4861
   15CHTO   H44 6235   5.502   4.303   2.097 -0.1247 -0.7826 -1.8342
   15CHTO   C25 6236   5.759   4.240   2.199 -0.8815 -0.0662  0.0434
   15CHTO   H53 6237   5.735   4.233   2.306  1.9899  0.3510  0.7594
   15CHTO   O17 6238   5.890   4.196   2.175  0.0951  0.0556 -0.3247
   15CHTO   C32 6239   5.907   4.066   2.233 -0.1323 -0.3554 -0.4817
   15CHTO   H60 6240   5.876   4.067   2.337  0.3061 -2.5629 -0.3016
   15CHTO   C36 6241   6.060   4.044   2.219 -0.2159 -0.6528 -1.0011
   15CHTO   O25 6242   6.127   4.137   2.302 -0.5821  0.8700  0.8885
   15CHTO   H40 6243   6.137   4.096   2.386 -0.9306 -1.3023 -0.0983
   15CHTO   O15 6244   5.762   4.375   2.151  0.2769 -0.4513 -0.2741
   15CHTO   C19 6245   5.788   4.511   2.192 -0.3919 -0.1135  0.1690
   15CHTO   H47 6246   5.828   4.559   2.101  1.8928 -0.6504  0.8435
   15CHTO   C20 6247   5.663   4.588   2.253  0.4607 -0.8670  0.0755
   15CHTO   H48 6248   5.609   4.527   2.326  2.2534 -2.9672 -0.2964
   15CHTO   O19 6249   5.579   4.597   2.137 -0.2788  0.0874 -0.1551
   15CHTO   H35 6250   5.512   4.661   2.151 -1.0167 -0.4894 -1.0081
   15CHTO   C21 6251   5.705   4.735   2.307 -0.5161  0.9283  0.4031
   15CHTO   H49 6252   5.745   4.792   2.223 -0.4524 -2.6909 -2.0900
   15CHTO    N4 6253   5.589   4.821   2.353 -0.0139  0.0125  0.5140
   15CHTO   H41 6254   5.502   4.794   2.294  0.6100  0.5187 -0.6591
   15CHTO   H42 6255   5.577   4.796   2.457  1.3946 -0.1750  0.6325
   15CHTO   C22 6256   5.829   4.715   2.405  0.0842  0.7261  0.0017
   15CHTO   H50 6257   5.798   4.648   2.485  1.5517  1.0027  0.8330
   15CHTO   O14 6258   5.939   4.657   2.336  0.0697 -0.0091  0.0069
   15CHTO   C23 6259   5.912   4.523   2.297  0.2484  0.0255 -0.2143
   15CHTO   H51 6260   5.902   4.454   2.382  0.0467 -0.2777 -0.4836
   15CHTO   C34 6261   6.042   4.463   2.236  0.9207 -0.1741  0.3553
   15CHTO   O23 6262   6.160   4.466   2.315 -0.3478 -0.1330 -0.0887
   15CHTO   H38 6263   6.147   4.427   2.400  2.3681 -1.1855 -0.1318
   15CHTO   O16 6264   5.877   4.840   2.463 -0.1099  0.7176 -0.1650
   15CHTO   C24 6265   5.951   4.828   2.620  0.4079  0.4775 -0.0979
   15CHTO   H52 6266   5.935   4.729   2.663 -0.7269  0.6649 -0.0727
   15CHTO   C26 6267   5.894   4.928   2.723 -0.3915 -0.4598 -0.2117
   15CHTO   H54 6268   5.914   5.030   2.686  0.7235 -0.4996  0.2647
   15CHTO   O20 6269   5.752   4.912   2.723  0.1140  0.1053  0.5870
   15CHTO   H36 6270   5.732   4.844   2.785 -0.2808 -1.0598 -0.7905
   15CHTO   C30 6271   5.954   4.916   2.865  0.3648  0.3087 -0.7164
   15CHTO   H58 6272   5.917   4.824   2.912 -2.5708  0.4616 -2.5921
   15CHTO    N6 6273   5.898   5.012   2.968 -0.1546  0.2885 -0.1354
   15CHTO   H45 6274   5.937   4.999   3.068 -0.3763 -2.0645 -0.3149
   15CHTO   H46 6275   5.894   5.117   2.945 -1.2792 -0.0015 -1.2959
   15CHTO   C33 6276   6.113   4.917   2.851 -1.4573 -0.1571 -0.4878
   15CHTO   H61 6277   6.149   5.019   2.831 -1.3969 -0.1806 -0.4943
   15CHTO   O18 6278   6.156   4.825   2.745  0.1406  0.1528  0.0764
   15CHTO   C28 6279   6.105   4.849   2.612  0.3914 -0.0265  0.3327
   15CHTO   H56 6280   6.121   4.954   2.590 -2.1540  0.6816  1.7187
   15CHTO   C35 6281   6.175   4.757   2.507 -0.0736 -0.1983  0.2259
   15CHTO   O24 6282   6.319   4.768   2.508 -0.1938  0.1595  0.1568
   15CHTO   H39 6283   6.352   4.684   2.531  1.0799  0.2636 -1.1825
   15CHTO    O9 6284   6.174   4.880   2.975  0.8085 -0.1822 -0.2843
   15CHTO   C13 6285   6.309   4.952   3.018 -0.0931 -0.3087  0.0876
   15CHTO   H26 6286   6.308   5.058   2.985 -0.2152 -0.0697  0.8531
   15CHTO   C11 6287   6.427   4.874   2.954 -0.1024  0.5570 -0.3679
   15CHTO   H24 6288   6.416   4.890   2.845 -0.5502  0.0971 -0.3896
   15CHTO    O8 6289   6.422   4.730   2.969 -0.3439 -0.3298  0.6879
   15CHTO    H3 6290   6.346   4.698   2.924 -0.4041  0.6776  0.0475
   15CHTO    C9 6291   6.560   4.939   3.007 -0.1331  0.0426  0.1107
   15CHTO   H22 6292   6.540   5.046   2.995  0.4791  0.0763 -0.6420
   15CHTO    N2 6293   6.680   4.913   2.927 -0.3437 -0.2592  0.6125
   15CHTO   H10 6294   6.776   4.920   2.977  0.0087 -1.2702  0.1037
   15CHTO   H11 6295   6.672   4.819   2.874 -2.1387 -0.0881  0.5633
   15CHTO    C7 6296   6.562   4.916   3.162 -0.3962 -0.4046  0.1376
   15CHTO   H20 6297   6.648   4.977   3.196 -2.0688  2.5598 -0.7239
   15CHTO    O4 6298   6.451   4.975   3.225  0.7372  0.1819  0.2543
   15CHTO   C14 6299   6.322   4.964   3.173 -0.1491 -0.1987 -0.1783
   15CHTO   H27 6300   6.288   5.067   3.199 -3.4478 -0.8903 -1.5529
   15CHTO   C18 6301   6.233   4.868   3.258  0.2192 -0.5177  0.4976
   15CHTO   O13 6302   6.242   4.735   3.216 -0.3144 -0.0211  0.4225
   15CHTO    H7 6303   6.173   4.720   3.153  0.1270  1.3099 -0.4039
   15CHTO    O2 6304   6.581   4.765   3.208 -0.0268 -0.3796  0.2012
   15CHTO    C1 6305   6.708   4.727   3.246  0.2284  0.0995 -0.7389
   15CHTO   H14 6306   6.776   4.806   3.208 -1.5213  1.0420 -1.9744
   15CHTO    C2 6307   6.743   4.594   3.176 -0.7463  0.5048 -0.6655
   15CHTO   H15 6308   6.676   4.517   3.214  1.9619 -2.5699 -1.8540
   15CHTO    O6 6309   6.732   4.614   3.036  0.2579  0.2348  0.3323
   15CHTO    H1 6310   6.738   4.532   2.990  1.5668  0.7552 -0.4353
   15CHTO    C3 6311   6.898   4.552   3.208  0.3135  0.1793  0.2444
   15CHTO   H16 6312   6.962   4.636   3.177  0.2887 -0.5967 -1.9306
   15CHTO    N1 6313   6.954   4.433   3.135  0.2138 -0.5997 -0.2068
   15CHTO    H8 6314   6.913   4.348   3.187  0.3462  0.5295  1.8077
   15CHTO    H9 6315   6.926   4.442   3.032  0.9736  0.1262 -0.3585
   15CHTO    C4 6316   6.913   4.547   3.364 -0.7105 -0.4860  0.0072
   15CHTO   H17 6317   6.866   4.456   3.399 -1.7491  1.2841  3.4806
   15CHTO    O1 6318   6.861   4.674   3.427 -0.8278 -0.3747 -0.2832
   15CHTO    C5 6319   6.724   4.712   3.399  0.0812  0.2034 -0.6287
   15CHTO   H18 6320   6.663   4.633   3.441  0.7011  1.1328  2.1398
   15CHTO   C16 6321   6.696   4.844   3.470 -0.4513 -0.2184 -0.4717
   15CHTO   O11 6322   6.554   4.860   3.488 -0.0311 -0.3162 -0.3380
   15CHTO    H5 6323   6.533   4.951   3.478  2.0761  0.2728  0.3185
   15CHTO    O3 6324   7.054   4.557   3.404  0.3952  0.0528 -0.0323
   15CHTO    C6 6325   7.076   4.479   3.533  0.0281 -0.5087  0.4667
   15CHTO   H19 6326   6.984   4.465   3.590  0.2465  0.2451  1.0176
   15CHTO    C8 6327   7.136   4.339   3.504  0.9870 -0.7408 -0.3599
   15CHTO   H21 6328   7.233   4.356   3.457  0.5461  0.6325 -0.8012
   15CHTO    O7 6329   7.038   4.268   3.425 -0.0396  0.1085 -0.3166
   15CHTO    H2 6330   6.966   4.230   3.472  0.6476 -2.9129 -1.5809
   15CHTO   C12 6331   7.174   4.266   3.634 -1.0471 -0.1490  0.5084
   15CHTO   H25 6332   7.083   4.255   3.696 -1.1161  0.9320  0.6110
   15CHTO    N3 6333   7.222   4.130   3.624 -0.3038 -0.4731 -0.3520
   15CHTO   H12 6334   7.272   4.094   3.713  3.6068 -0.2798 -2.4035
   15CHTO   H13 6335   7.282   4.106   3.538 -1.1884 -1.6222 -0.6543
   15CHTO   C15 6336   7.273   4.364   3.723 -0.2759  0.3536 -0.0161
   15CHTO   H28 6337   7.367   4.383   3.671 -1.1831  1.3154 -1.3633
   15CHTO   O10 6338   7.300   4.304   3.881 -0.1318  0.0635 -0.0666
   15CHTO    H4 6339   7.371   4.243   3.874  0.1123  0.5776 -2.4419
   15CHTO    O5 6340   7.193   4.479   3.744  0.4777  0.0808 -0.1856
   15CHTO   C10 6341   7.172   4.559   3.625  0.0035  0.4380 -0.0093
   15CHTO   H23 6342   7.274   4.567   3.587  0.5778 -1.3886  1.0346
   15CHTO   C17 6343   7.126   4.693   3.671  0.4462 -0.0130 -0.5788
   15CHTO   O12 6344   7.226   4.758   3.750 -0.3284 -0.5260  0.3141
   15CHTO    H6 6345   7.286   4.807   3.696 -0.4310 -0.0930  0.5931
   16CHTO  H203 6346   5.147   4.363   2.483  0.5576 -0.5833  0.7014
   16CHTO   O82 6347   5.230   4.399   2.459  0.2110  0.1392  0.5834
   16CHTO  C123 6348   5.318   4.416   2.567  0.5280  0.4722 -0.1351
   16CHTO  H227 6349   5.269   4.383   2.659 -1.7216  1.0607 -1.0745
   16CHTO   O77 6350   5.422   4.330   2.513  0.0505  0.2451 -0.6537
   16CHTO  C118 6351   5.522   4.314   2.618 -0.4591 -0.0842  0.4172
   16CHTO  H222 6352   5.466   4.268   2.700  0.8462 -1.2661  0.6664
   16CHTO  C125 6353   5.630   4.218   2.561  0.0140  0.3861 -0.3632
   16CHTO   O84 6354   5.565   4.097   2.520  0.2755 -0.2692 -0.0057
   16CHTO  H205 6355   5.620   4.022   2.536  2.7638  1.6870  0.9451
   16CHTO  C114 6356   5.589   4.444   2.656 -0.0538 -0.5583  0.4271
   16CHTO  H218 6357   5.660   4.474   2.579 -1.7311  1.8099 -0.2563
   16CHTO  C116 6358   5.498   4.562   2.678  0.0041  0.5662  0.7261
   16CHTO  H220 6359   5.469   4.558   2.785  0.5138 -0.1500  0.8410
   16CHTO   O79 6360   5.580   4.682   2.673 -0.3231 -0.2640  0.3323
   16CHTO  H201 6361   5.547   4.757   2.718 -0.8197 -0.4137  0.2154
   16CHTO  C120 6362   5.370   4.565   2.576 -0.4967  0.0468  0.0329
   16CHTO  H224 6363   5.405   4.600   2.477 -1.2347 -2.3548 -1.1098
   16CHTO   N21 6364   5.259   4.652   2.634 -0.2679  0.0168  0.2163
   16CHTO  H211 6365   5.294   4.746   2.674  2.3949 -1.3178  1.1274
   16CHTO  H212 6366   5.168   4.671   2.579 -0.0556  2.0115  0.5139
   16CHTO   O75 6367   5.664   4.417   2.775 -0.2457  0.1312  0.5676
   16CHTO  C112 6368   5.813   4.472   2.784  0.3690  0.0381 -0.2669
   16CHTO  H216 6369   5.812   4.565   2.725  3.2819 -0.2552 -0.8413
   16CHTO   O73 6370   5.898   4.379   2.724  0.1956 -0.3977  0.1900
   16CHTO  C113 6371   6.037   4.405   2.727 -0.0090 -0.6929  0.7587
   16CHTO  H217 6372   6.049   4.485   2.651  1.5402 -1.6148  0.0037
   16CHTO  C124 6373   6.110   4.286   2.666 -0.1075  0.2269  0.7181
   16CHTO   O83 6374   6.061   4.270   2.537  0.0025  0.1930  0.2225
   16CHTO  H204 6375   6.118   4.201   2.507 -0.9763 -0.7256  0.4274
   16CHTO  C109 6376   6.079   4.412   2.873 -0.0836 -0.4255 -0.1400
   16CHTO  H213 6377   6.052   4.317   2.922 -0.0405 -1.1570 -1.5214
   16CHTO  C110 6378   6.006   4.530   2.941  0.9578 -0.8659  1.0943
   16CHTO  H214 6379   6.030   4.618   2.882 -1.3586 -0.8904  0.0501
   16CHTO   O78 6380   6.063   4.544   3.076 -0.1416 -0.3026  0.3657
   16CHTO  H200 6381   6.016   4.478   3.124  0.4339 -0.3417  0.8723
   16CHTO  C111 6382   5.853   4.496   2.933 -0.5612 -0.5495 -0.1307
   16CHTO  H215 6383   5.842   4.398   2.982  2.7874 -0.4993  0.8508
   16CHTO   N19 6384   5.764   4.600   2.997  0.5386  0.1035 -0.2455
   16CHTO  H207 6385   5.752   4.675   2.920 -0.5342 -0.9009 -1.0690
   16CHTO  H208 6386   5.674   4.551   3.028  0.5064 -0.2406 -0.8668
   16CHTO   O74 6387   6.230   4.444   2.877 -0.4021  0.3746  0.1873
   16CHTO  C115 6388   6.319   4.314   2.913  0.5345 -0.8216 -0.4721
   16CHTO  H219 6389   6.262   4.237   2.965  0.2557 -0.0238  0.4240
   16CHTO   O76 6390   6.375   4.240   2.790  0.0992 -0.5121 -0.0246
   16CHTO  C122 6391   6.522   4.243   2.761 -0.4187  0.0091 -0.8057
   16CHTO  H226 6392   6.541   4.345   2.725 -0.2923  0.0694 -0.5701
   16CHTO  C126 6393   6.551   4.151   2.647 -0.3612 -0.0889  0.5285
   16CHTO   O85 6394   6.504   4.016   2.677 -0.4902 -0.1081  0.2143
   16CHTO  H206 6395   6.566   3.973   2.733 -0.9632  2.7461  3.0546
   16CHTO  C121 6396   6.615   4.218   2.887 -0.5737  0.4042 -0.6880
   16CHTO  H225 6397   6.658   4.116   2.892 -1.1475  0.2312  1.3066
   16CHTO   O81 6398   6.732   4.301   2.879 -0.1486 -0.2305  0.0128
   16CHTO  H202 6399   6.713   4.390   2.902 -1.1914 -0.4351 -0.0261
   16CHTO  C119 6400   6.545   4.251   3.023  0.5319 -0.2621  0.5473
   16CHTO  H223 6401   6.481   4.164   3.035  1.1988 -0.4240  3.2817
   16CHTO  C117 6402   6.442   4.365   3.002 -0.2027  0.2002  0.0369
   16CHTO  H221 6403   6.477   4.455   2.951 -0.8155  0.7616  0.5898
   16CHTO   N20 6404   6.387   4.411   3.133  0.1022  0.1785 -0.4274
   16CHTO  H209 6405   6.289   4.369   3.152 -0.3742  1.9579  1.1836
   16CHTO  H210 6406   6.455   4.409   3.217 -0.6896 -0.0023  0.2168
   16CHTO   O80 6407   6.647   4.240   3.158 -0.4184  0.2749  0.0348
   16CHTO  C103 6408   6.684   4.102   3.224 -0.3942  0.5562  0.2008
   16CHTO  H190 6409   6.636   4.014   3.181 -0.4173  0.0302  1.2957
   16CHTO  C101 6410   6.833   4.063   3.215 -0.0222  0.3495  0.5236
   16CHTO  H188 6411   6.890   4.146   3.256  2.1748 -0.1883 -1.2973
   16CHTO   O68 6412   6.872   4.062   3.065  0.1794 -0.5745 -0.0381
   16CHTO  H168 6413   6.965   4.052   3.050  0.4448  1.8177 -0.0920
   16CHTO   C99 6414   6.872   3.932   3.290  0.1582  0.2894 -0.2533
   16CHTO  H186 6415   6.823   3.849   3.235 -1.6924  1.2931 -0.1421
   16CHTO   N17 6416   7.015   3.901   3.278 -0.0796  0.2936 -0.6536
   16CHTO  H174 6417   7.042   3.809   3.327  0.3147  0.7293 -0.0439
   16CHTO  H175 6418   7.075   3.914   3.190  0.4091 -1.6022 -0.6075
   16CHTO   C97 6419   6.815   3.936   3.436 -0.5124 -0.1982 -0.4770
   16CHTO  H184 6420   6.877   4.010   3.489 -1.7990  0.6167 -0.0873
   16CHTO   O64 6421   6.676   3.980   3.431 -0.1747  0.1222 -0.9321
   16CHTO  C104 6422   6.648   4.109   3.375 -0.0285  0.4797  0.2305
   16CHTO  H191 6423   6.712   4.184   3.421  1.2859  0.6988 -1.9146
   16CHTO  C108 6424   6.506   4.154   3.403  0.0300  0.0313 -0.3497
   16CHTO   O71 6425   6.469   4.132   3.539  1.1219 -0.4445  0.1331
   16CHTO  H171 6426   6.382   4.160   3.560  2.2442  3.1727  0.2574
   16CHTO   O62 6427   6.817   3.805   3.499 -0.0703 -0.6900 -0.2463
   16CHTO   C91 6428   6.833   3.804   3.643 -0.8375  0.2170 -0.4880
   16CHTO  H178 6429   6.912   3.877   3.658 -1.0132  0.3504 -0.2069
   16CHTO   C92 6430   6.885   3.659   3.678 -0.6158  0.1308 -0.2119
   16CHTO  H179 6431   6.963   3.637   3.604 -0.1004 -0.7592  0.5861
   16CHTO   O66 6432   6.955   3.657   3.807 -0.1472  0.2580  0.3969
   16CHTO  H166 6433   7.007   3.580   3.822  1.1647  1.3671  1.8412
   16CHTO   C93 6434   6.771   3.560   3.700  0.5858  0.1384 -0.5979
   16CHTO  H180 6435   6.805   3.482   3.770 -3.1574 -1.4728 -0.4329
   16CHTO   N16 6436   6.736   3.478   3.580  0.8299  0.5825  0.3764
   16CHTO  H172 6437   6.667   3.518   3.507  0.0750 -2.6976 -0.7921
   16CHTO  H173 6438   6.703   3.386   3.626 -2.2329  1.7047  0.5714
   16CHTO   C94 6439   6.646   3.619   3.760 -0.8082 -0.1882 -0.4531
   16CHTO  H181 6440   6.568   3.633   3.686 -0.2599  1.1897 -0.7940
   16CHTO   O61 6441   6.668   3.748   3.826 -0.0602  0.7454  0.3281
   16CHTO   C95 6442   6.698   3.851   3.730 -0.2400 -0.2129  0.3510
   16CHTO  H182 6443   6.618   3.851   3.655 -1.3593 -2.4532  1.5095
   16CHTO  C106 6444   6.729   3.986   3.799 -0.0372  0.8101  0.7581
   16CHTO   O69 6445   6.741   4.103   3.717  0.1242 -0.8078  0.2081
   16CHTO  H169 6446   6.787   4.086   3.638  0.7011  0.5420  0.2351
   16CHTO   O63 6447   6.584   3.513   3.882  0.2949 -0.8458  0.8899
   16CHTO   C96 6448   6.433   3.551   3.896  0.6480 -0.1656 -0.1606
   16CHTO  H183 6449   6.377   3.522   3.807  0.9852 -0.6187 -0.2233
   16CHTO   C98 6450   6.393   3.706   3.923 -0.6657  0.2386  0.2000
   16CHTO  H185 6451   6.455   3.772   3.860 -0.7143 -0.2784 -0.4005
   16CHTO   O67 6452   6.263   3.724   3.868 -0.4490 -0.0627  0.1543
   16CHTO  H167 6453   6.269   3.726   3.774 -1.0785  3.6630  0.1122
   16CHTO  C102 6454   6.392   3.754   4.081  0.2670 -0.1475  0.0206
   16CHTO  H189 6455   6.339   3.850   4.087 -2.1512 -1.4490  0.1075
   16CHTO   N18 6456   6.526   3.785   4.133  0.3787 -0.4836 -0.3340
   16CHTO  H176 6457   6.581   3.692   4.124  1.5585  0.2784 -1.1204
   16CHTO  H177 6458   6.576   3.866   4.082 -0.6264  0.3381 -0.0231
   16CHTO  C105 6459   6.313   3.651   4.164 -0.1174 -0.0684 -0.3401
   16CHTO  H192 6460   6.374   3.610   4.245  0.0901  2.9550  1.1380
   16CHTO   O65 6461   6.271   3.533   4.094 -0.4888  0.9167  0.3378
   16CHTO  C100 6462   6.380   3.466   4.021 -0.0218 -0.1519  0.0673
   16CHTO  H187 6463   6.467   3.464   4.088 -0.5477 -0.4896  0.7550
   16CHTO  C107 6464   6.345   3.324   3.981  0.1152 -0.3379  0.0390
   16CHTO   O70 6465   6.456   3.234   3.954 -0.1814 -0.8502  0.1682
   16CHTO  H170 6466   6.429   3.145   3.966  1.1385 -0.9569  2.5428
   16CHTO   O57 6467   6.194   3.741   4.254 -0.7867  0.1660 -0.3840
   16CHTO   C85 6468   6.103   3.838   4.197  0.3549  0.1911 -0.2070
   16CHTO  H157 6469   6.121   3.833   4.088 -1.4880 -0.9146 -0.4780
   16CHTO   C83 6470   6.139   3.982   4.242  0.2952 -0.0669 -0.1627
   16CHTO  H155 6471   6.242   4.009   4.219  0.0708 -0.7710 -2.1342
   16CHTO   O56 6472   6.133   3.990   4.385 -0.1460 -0.2780 -0.2064
   16CHTO  H135 6473   6.213   3.969   4.428  0.7511  1.6397 -0.8829
   16CHTO   C81 6474   6.048   4.083   4.169 -0.6336  0.0816  0.3820
   16CHTO  H153 6475   6.054   4.072   4.061 -0.9466  0.6145  0.3020
   16CHTO   N14 6476   6.106   4.224   4.187 -0.2051  0.0903 -0.2140
   16CHTO  H141 6477   6.170   4.250   4.106  0.8207 -0.4680  0.4015
   16CHTO  H142 6478   6.168   4.222   4.275 -1.7056 -1.7446  0.8376
   16CHTO   C79 6479   5.900   4.051   4.214  0.2549  0.1689 -0.5473
   16CHTO  H151 6480   5.836   4.108   4.147  0.1797  1.7486  0.8542
   16CHTO   O52 6481   5.869   3.911   4.179  0.4262  0.1653  0.4258
   16CHTO   C86 6482   5.950   3.813   4.235  0.3894  0.5687  0.2000
   16CHTO  H158 6483   5.926   3.823   4.343 -2.1645 -0.8981 -0.1936
   16CHTO   C90 6484   5.907   3.669   4.185  0.1242  0.6449  0.2584
   16CHTO   O60 6485   5.988   3.574   4.248  0.0029 -0.5206 -0.0170
   16CHTO  H138 6486   5.990   3.482   4.229 -0.3272 -1.1534  2.7630
   16CHTO   O50 6487   5.856   4.085   4.343 -0.3070 -0.8793 -0.1290
   16CHTO   C73 6488   5.805   4.098   4.471 -0.0844 -0.6867 -0.1482
   16CHTO  H145 6489   5.885   4.073   4.543 -0.5596  2.0375  1.4408
   16CHTO   C74 6490   5.681   4.008   4.485  0.0706 -0.0145 -0.0059
   16CHTO  H146 6491   5.711   3.908   4.454 -0.2598 -0.3670  0.7811
   16CHTO   O54 6492   5.648   4.002   4.624  0.1550 -0.0604  0.0419
   16CHTO  H133 6493   5.620   3.915   4.644 -1.1234 -0.0251 -1.4931
   16CHTO   C75 6494   5.563   4.068   4.389  0.0871  0.5332  0.2440
   16CHTO  H147 6495   5.603   4.077   4.287  0.2388  2.4402  0.4662
   16CHTO   N13 6496   5.444   3.976   4.384  0.3233 -0.5677  0.5775
   16CHTO  H139 6497   5.451   3.899   4.459  2.8209 -0.8321  0.0868
   16CHTO  H140 6498   5.430   3.948   4.280 -1.5156  0.0929  0.6208
   16CHTO   C76 6499   5.532   4.213   4.426 -0.1592  0.3148  0.4308
   16CHTO  H148 6500   5.477   4.209   4.521 -0.4292  1.7585  0.3580
   16CHTO   O49 6501   5.647   4.298   4.433 -0.2285 -0.0343  0.1304
   16CHTO   C77 6502   5.762   4.244   4.497 -0.5331  0.1792  0.4179
   16CHTO  H149 6503   5.737   4.247   4.603 -0.4080  2.0226  0.4142
   16CHTO   C88 6504   5.873   4.346   4.466  0.4640  0.0828 -0.4556
   16CHTO   O58 6505   5.879   4.413   4.325 -0.5187 -0.4581  0.0581
   16CHTO  H136 6506   5.803   4.466   4.314  0.8409  1.3046 -1.0774
   16CHTO   O51 6507   5.435   4.272   4.302  0.5579  0.0043  0.1532
   16CHTO   C78 6508   5.380   4.425   4.353 -0.2218  0.0240 -0.1653
   16CHTO  H150 6509   5.463   4.480   4.403 -0.0688 -1.2107  0.9471
   16CHTO   C80 6510   5.262   4.417   4.453 -0.4646  0.3217  0.2375
   16CHTO  H152 6511   5.180   4.362   4.402  2.5904  0.3282 -5.1294
   16CHTO   O55 6512   5.291   4.335   4.567 -0.7741  0.4298 -0.2677
   16CHTO  H134 6513   5.319   4.252   4.534  0.0241  0.6591 -0.1638
   16CHTO   C84 6514   5.211   4.561   4.494  0.0009 -0.0887 -0.1718
   16CHTO  H156 6515   5.291   4.604   4.554 -0.9046  2.0548 -0.4500
   16CHTO   N15 6516   5.093   4.570   4.584 -0.1248 -0.3878  0.4412
   16CHTO  H143 6517   5.116   4.540   4.684 -0.7617 -0.4264  0.5788
   16CHTO  H144 6518   5.039   4.662   4.588 -1.0071 -0.8675 -0.1565
   16CHTO   C87 6519   5.193   4.650   4.370  0.5100  0.1755 -0.1548
   16CHTO  H159 6520   5.101   4.627   4.316 -1.2521  1.2362  2.2740
   16CHTO   O53 6521   5.317   4.646   4.268  0.2332  0.0486 -0.1836
   16CHTO   C82 6522   5.344   4.511   4.230 -0.3102  0.2310 -0.0145
   16CHTO  H154 6523   5.265   4.458   4.177  1.1956 -1.0960 -0.9809
   16CHTO   C89 6524   5.469   4.513   4.135  0.2347  0.6900  0.0717
   16CHTO   O59 6525   5.442   4.608   4.038  0.8273 -0.3502 -0.5766
   16CHTO  H137 6526   5.356   4.592   4.004  0.3503  1.6297 -0.3826
   16CHTO   O45 6527   5.167   4.816   4.422 -0.0084  0.2067 -0.0604
   16CHTO   C67 6528   5.281   4.907   4.413  0.4811  0.0067 -0.3411
   16CHTO  H124 6529   5.366   4.859   4.366 -0.0673 -2.6727  1.2840
   16CHTO   C65 6530   5.250   5.033   4.318 -0.3779  0.1151 -0.1036
   16CHTO  H122 6531   5.145   5.056   4.336 -0.6637 -2.2682  1.4585
   16CHTO   O44 6532   5.268   4.981   4.182  0.2361 -0.2777  0.1027
   16CHTO  H102 6533   5.189   4.947   4.145 -0.5726 -1.6337  2.8980
   16CHTO   C63 6534   5.324   5.165   4.365  0.5212  0.7148  0.0417
   16CHTO  H120 6535   5.267   5.206   4.449  2.4199  1.4572  1.0013
   16CHTO   N11 6536   5.322   5.272   4.266  0.3078 -0.0540 -0.1218
   16CHTO  H108 6537   5.385   5.353   4.299 -1.1308  1.9668 -2.1542
   16CHTO  H109 6538   5.229   5.313   4.232 -1.2360  0.0596  3.9386
   16CHTO   C61 6539   5.467   5.131   4.412 -0.9056  0.1600  0.5180
   16CHTO  H118 6540   5.512   5.221   4.456 -1.7242  0.6342  0.3715
   16CHTO   O40 6541   5.464   5.032   4.517 -0.2826 -0.5387 -0.2300
   16CHTO   C68 6542   5.337   4.963   4.546  0.5566  0.8021  0.2442
   16CHTO  H125 6543   5.268   5.036   4.593 -1.2318 -1.4307  1.1969
   16CHTO   C72 6544   5.349   4.851   4.649 -0.4699 -0.2234 -0.4111
   16CHTO   O48 6545   5.419   4.890   4.765  0.0359 -0.5184  0.2506
   16CHTO  H105 6546   5.431   4.982   4.778  2.0222 -1.0098  2.2458
   16CHTO   O38 6547   5.546   5.087   4.299  0.3654  0.6471 -0.0860
   16CHTO   C55 6548   5.691   5.074   4.319 -0.2408 -0.6036  0.7352
   16CHTO  H112 6549   5.727   5.075   4.423 -1.7514  1.5791  1.2946
   16CHTO   C56 6550   5.755   5.196   4.236  1.4240  0.8569  0.3283
   16CHTO  H113 6551   5.700   5.184   4.141  3.2378  0.5666 -0.7123
   16CHTO   O42 6552   5.720   5.321   4.293 -0.2710 -0.7038  0.3355
   16CHTO  H100 6553   5.755   5.331   4.380 -1.0627 -1.0409  0.6961
   16CHTO   C57 6554   5.911   5.186   4.221  0.1901 -0.2216  0.1150
   16CHTO  H114 6555   5.956   5.221   4.314  0.8333  0.4310 -0.4293
   16CHTO   N10 6556   5.971   5.279   4.125  1.1374  0.1060  0.3296
   16CHTO  H106 6557   5.913   5.303   4.037  0.4993  0.5574  0.8621
   16CHTO  H107 6558   5.999   5.373   4.172  2.0052 -0.6548  1.3746
   16CHTO   C58 6559   5.958   5.039   4.187  0.2902 -0.6205  0.4209
   16CHTO  H115 6560   5.928   5.021   4.082 -0.9583 -0.7678  0.7898
   16CHTO   O37 6561   5.889   4.940   4.272  0.1862 -0.2419 -0.2968
   16CHTO   C59 6562   5.746   4.938   4.263 -0.3208 -0.1678 -0.0431
   16CHTO  H116 6563   5.719   4.917   4.159  0.9448  0.6222 -0.5439
   16CHTO   C70 6564   5.705   4.815   4.344  0.0050  0.0145 -0.1273
   16CHTO   O46 6565   5.743   4.691   4.289 -0.1170 -0.1250 -0.0854
   16CHTO  H103 6566   5.716   4.676   4.200 -2.0073 -0.6572  0.5533
   16CHTO   O39 6567   6.137   5.017   4.197 -0.7231  0.4538 -0.0661
   16CHTO   C60 6568   6.189   4.933   4.099  0.4304 -0.9083  0.4677
   16CHTO  H117 6569   6.112   4.874   4.048  0.1991  1.0925 -1.5631
   16CHTO   C62 6570   6.241   5.018   3.983  0.0511  0.4864 -0.4831
   16CHTO  H119 6571   6.156   5.068   3.933 -2.2447 -0.9191  1.9221
   16CHTO   O43 6572   6.341   5.107   4.037 -0.3847 -0.0763 -0.4047
   16CHTO  H101 6573   6.423   5.085   3.998 -0.4870  0.5672 -0.9966
   16CHTO   C66 6574   6.302   4.916   3.873 -0.0685  0.1959 -0.2773
   16CHTO  H123 6575   6.221   4.848   3.843  0.4850 -0.7147  0.2827
   16CHTO   N12 6576   6.329   4.984   3.750 -0.6804 -0.1482 -0.3268
   16CHTO  H110 6577   6.387   4.919   3.686  0.1850  0.9664 -0.6855
   16CHTO  H111 6578   6.245   5.025   3.696 -0.6792 -0.4608 -0.5621
   16CHTO   C69 6579   6.417   4.832   3.926 -0.2146  0.0733  0.2133
   16CHTO  H126 6580   6.487   4.906   3.970 -2.1861  2.4968 -0.5852
   16CHTO   O41 6581   6.370   4.744   4.060  0.4284 -0.3217 -0.4456
   16CHTO   C64 6582   6.292   4.832   4.167  0.1661  0.5571 -0.6047
   16CHTO  H121 6583   6.368   4.895   4.218 -0.7275  1.2920 -0.1694
   16CHTO   C71 6584   6.214   4.752   4.270  0.0764  0.0998 -0.5654
   16CHTO   O47 6585   6.143   4.651   4.203  0.1036 -0.1628 -0.3928
   16CHTO  H104 6586   6.051   4.649   4.222  0.4788  2.1927  1.9935
   16CHTO   O34 6587   6.481   4.733   3.823 -0.4675  0.6873 -0.0161
   16CHTO   C49 6588   6.618   4.662   3.818 -0.7844  0.0815  0.1041
   16CHTO   H91 6589   6.670   4.715   3.737 -0.1671 -0.6488  0.0163
   16CHTO   C47 6590   6.604   4.511   3.783 -0.6426 -0.1439 -0.2280
   16CHTO   H89 6591   6.699   4.460   3.761  0.4799  3.5853 -4.9408
   16CHTO   O33 6592   6.527   4.519   3.661 -0.3328  0.0277  0.1865
   16CHTO   H70 6593   6.499   4.438   3.622  1.6873  0.3559 -2.1041
   16CHTO   C45 6594   6.525   4.444   3.906  0.5359  0.9282  0.0647
   16CHTO   H87 6595   6.431   4.498   3.920  0.8833  1.7304 -0.7127
   16CHTO    N8 6596   6.493   4.300   3.894 -0.0113 -0.4508  0.0844
   16CHTO   H75 6597   6.574   4.232   3.915 -1.0723 -0.9388  2.7874
   16CHTO   H76 6598   6.447   4.282   3.798  1.3718 -2.0914 -0.3020
   16CHTO   C43 6599   6.595   4.467   4.049 -0.2731  0.2162 -0.7410
   16CHTO   H85 6600   6.524   4.433   4.124  0.5826 -1.7990 -0.8171
   16CHTO   O29 6601   6.639   4.607   4.068 -0.2397  0.1176  0.3131
   16CHTO   C50 6602   6.696   4.671   3.952  0.0775  0.5286  0.2726
   16CHTO   H92 6603   6.709   4.780   3.962 -2.4397  1.0489 -1.7405
   16CHTO   C54 6604   6.846   4.635   3.934 -0.1672  0.8922 -0.3350
   16CHTO   O36 6605   6.936   4.706   4.024  0.4915 -0.7278  0.6350
   16CHTO   H72 6606   6.914   4.701   4.115 -2.1657  1.5389  0.1955
   16CHTO   O27 6607   6.713   4.386   4.056  0.4641  0.2797 -0.1218
   16CHTO   C37 6608   6.791   4.305   4.148 -0.3410 -0.5511 -0.0637
   16CHTO   H79 6609   6.867   4.369   4.194 -0.4585  0.8983 -1.8201
   16CHTO   C38 6610   6.707   4.234   4.254 -0.2269 -0.5992 -0.4099
   16CHTO   H80 6611   6.623   4.182   4.206 -1.3531 -0.8579  1.7838
   16CHTO   O31 6612   6.645   4.338   4.339  0.5064 -0.3179  0.1280
   16CHTO   H68 6613   6.682   4.342   4.425  1.2340 -1.0430 -0.1410
   16CHTO   C39 6614   6.792   4.133   4.340 -0.0937  0.0062  0.7510
   16CHTO   H81 6615   6.865   4.182   4.404  0.0879 -0.0382  0.5768
   16CHTO    N7 6616   6.713   4.053   4.437  0.4191 -0.4893  0.5076
   16CHTO   H73 6617   6.792   3.997   4.485  0.9409  0.8552  1.2409
   16CHTO   H74 6618   6.643   3.984   4.394 -1.3899  1.7252 -0.2105
   16CHTO   C40 6619   6.868   4.042   4.250 -0.0276  0.5247 -0.3397
   16CHTO   H82 6620   6.805   3.969   4.200  0.6345  0.2948 -0.8457
   16CHTO   O26 6621   6.945   4.109   4.152  0.7986 -0.2982 -0.3578
   16CHTO   C41 6622   6.864   4.193   4.060 -0.6365 -0.1221  0.0802
   16CHTO   H83 6623   6.784   4.131   4.016 -2.7478  1.5613  1.4101
   16CHTO   C52 6624   6.953   4.249   3.948  0.7401  0.7172 -0.6015
   16CHTO   O35 6625   7.052   4.347   4.008 -0.9731 -0.0024 -0.7414
   16CHTO   H71 6626   7.060   4.422   3.953  1.8934  1.4335  1.4859
   16CHTO   O28 6627   6.981   3.976   4.311 -0.2415  0.1070 -0.1722
   16CHTO   C42 6628   6.993   3.826   4.313 -0.7764  0.1294 -0.3390
   16CHTO   H84 6629   7.098   3.818   4.285 -0.6606  2.2095 -0.5480
   16CHTO   C44 6630   6.914   3.729   4.213 -0.0135  0.4986 -0.1953
   16CHTO   H86 6631   6.809   3.756   4.226 -0.2626 -0.3191 -0.5062
   16CHTO   O32 6632   6.972   3.769   4.089 -0.1954  0.1052 -0.5736
   16CHTO   H69 6633   6.960   3.861   4.073 -2.7362 -0.3325 -1.4511
   16CHTO   C48 6634   6.929   3.577   4.236  0.8046 -0.5826  0.7736
   16CHTO   H90 6635   7.030   3.550   4.205  0.9637  1.7425 -0.8254
   16CHTO    N9 6636   6.833   3.496   4.154 -0.8006  0.0275  0.4431
   16CHTO   H77 6637   6.804   3.561   4.073 -0.4516  1.7117  1.6393
   16CHTO   H78 6638   6.745   3.465   4.208 -1.2494  0.3875 -0.0791
   16CHTO   C51 6639   6.918   3.549   4.385 -0.6605 -0.1758 -1.1373
   16CHTO   H93 6640   6.820   3.583   4.418 -0.1907  0.4215 -0.3184
   16CHTO   O30 6641   7.025   3.628   4.450 -0.3247  0.2152  0.7171
   16CHTO   C46 6642   6.981   3.772   4.460  0.8661 -0.3380 -0.1832
   16CHTO   H88 6643   6.885   3.776   4.510  1.1167 -0.0127  0.2784
   16CHTO   C53 6644   7.075   3.840   4.563 -0.1040 -0.9624 -0.1593
   16CHTO   O72 6645   7.038   3.974   4.603  0.3684  0.3756  0.1654
   16CHTO  H199 6646   6.991   4.027   4.541 -1.0328  1.6395  2.2162
   16CHTO   O22 6647   6.949   3.411   4.418 -0.1788 -0.1062  0.0293
   16CHTO   C31 6648   6.880   3.354   4.537  0.4369 -0.7115  0.0874
   16CHTO   H59 6649   6.923   3.253   4.554 -1.6286 -1.4062  1.2992
   16CHTO   C29 6650   6.910   3.441   4.665  0.7665 -0.7944 -0.0021
   16CHTO   H57 6651   6.885   3.545   4.639  1.2613 -1.2293 -2.3322
   16CHTO   O21 6652   7.050   3.444   4.697  0.2837 -0.6485  0.5566
   16CHTO   H37 6653   7.085   3.488   4.622  0.2861  1.7436  1.8955
   16CHTO   C27 6654   6.818   3.398   4.787 -0.0656  0.3514  0.0080
   16CHTO   H55 6655   6.835   3.293   4.815 -1.7538  0.0564 -0.0576
   16CHTO    N5 6656   6.835   3.486   4.908 -0.3434 -0.2859  0.2522
   16CHTO   H43 6657   6.939   3.471   4.931 -0.0543  1.1493 -0.0877
   16CHTO   H44 6658   6.770   3.455   4.989 -0.3206 -0.1379  0.3265
   16CHTO   C25 6659   6.674   3.384   4.742 -0.0689 -0.0782 -0.1279
   16CHTO   H53 6660   6.628   3.481   4.718  0.1664 -0.0006 -0.2729
   16CHTO   O17 6661   6.667   3.297   4.629  0.1186  0.4821 -0.5640
   16CHTO   C32 6662   6.732   3.334   4.509  0.4797  0.3811  0.3465
   16CHTO   H60 6663   6.682   3.424   4.473 -0.9211 -0.5909 -0.1896
   16CHTO   C36 6664   6.717   3.222   4.401 -0.1825 -0.7003 -0.4254
   16CHTO   O25 6665   6.586   3.219   4.341 -0.2295 -0.0159 -0.2792
   16CHTO   H40 6666   6.592   3.179   4.257  0.5504 -0.9225  0.1987
   16CHTO   O15 6667   6.573   3.319   4.840  0.3414 -0.7458 -0.1894
   16CHTO   C19 6668   6.481   3.330   4.955 -0.1601  0.4599  0.1368
   16CHTO   H47 6669   6.536   3.391   5.028  1.4057 -0.0709 -0.5700
   16CHTO   C20 6670   6.352   3.402   4.921  0.0442 -0.1591 -0.5800
   16CHTO   H48 6671   6.302   3.355   4.835  0.1330  0.3151 -0.8921
   16CHTO   O19 6672   6.386   3.534   4.883 -0.1749 -0.2743  0.2711
   16CHTO   H35 6673   6.310   3.574   4.844  0.5103 -0.5506 -1.4173
   16CHTO   C21 6674   6.259   3.405   5.041  0.9541  0.1216  0.0992
   16CHTO   H49 6675   6.302   3.469   5.118  0.8844 -0.4556  0.6193
   16CHTO    N4 6676   6.124   3.456   5.010  0.6362  0.5688  0.1128
   16CHTO   H41 6677   6.096   3.462   4.906  0.5022 -0.9463  0.0558
   16CHTO   H42 6678   6.108   3.551   5.059  1.9302  0.6754  0.3573
   16CHTO   C22 6679   6.244   3.261   5.104 -0.7435  0.8039 -0.4302
   16CHTO   H50 6680   6.185   3.199   5.036 -1.3413  0.4854  0.3626
   16CHTO   O14 6681   6.377   3.203   5.137 -0.0811  0.1508 -0.2261
   16CHTO   C23 6682   6.460   3.195   5.022  0.5165  0.2198 -0.3544
   16CHTO   H51 6683   6.416   3.125   4.950 -1.8993  2.1127 -0.7786
   16CHTO   C34 6684   6.581   3.116   5.069  0.3498 -0.5578 -0.2366
   16CHTO   O23 6685   6.680   3.079   4.975 -0.2132  0.1945  0.0875
   16CHTO   H38 6686   6.767   3.114   4.986  0.0494 -0.8119  1.2655
   16CHTO   O16 6687   6.172   3.255   5.233 -0.0276  0.1159  0.6315
   16CHTO   C24 6688   6.146   3.113   5.281  0.3623 -0.2753  0.9996
   16CHTO   H52 6689   6.206   3.042   5.224 -1.3630  0.2173 -1.5570
   16CHTO   C26 6690   5.992   3.097   5.255  0.3773 -0.0776  0.3067
   16CHTO   H54 6691   5.941   3.185   5.299  1.3152  0.5847  0.0872
   16CHTO   O20 6692   5.966   3.096   5.114  0.4718 -0.5759 -0.3836
   16CHTO   H36 6693   5.920   3.174   5.090 -0.0263 -1.1414 -1.2974
   16CHTO   C30 6694   5.950   2.965   5.326 -0.4370  0.1208  0.2727
   16CHTO   H58 6695   6.006   2.878   5.287 -0.0425 -1.5748  4.3129
   16CHTO    N6 6696   5.801   2.936   5.315 -0.0292  0.0909 -0.0049
   16CHTO   H45 6697   5.745   2.935   5.407 -1.7089  0.4458 -0.9972
   16CHTO   H46 6698   5.777   2.848   5.258  1.8786 -0.2550 -0.3063
   16CHTO   C33 6699   5.986   2.965   5.481 -0.1000  0.5665  0.2573
   16CHTO   H61 6700   5.935   3.047   5.533  1.2064  1.3676  0.3028
   16CHTO   O18 6701   6.126   2.986   5.485  0.0306 -0.3624  0.4870
   16CHTO   C28 6702   6.182   3.106   5.438  0.2444 -0.5852  0.1604
   16CHTO   H56 6703   6.130   3.182   5.495 -0.7561 -0.7902 -0.4574
   16CHTO   C35 6704   6.338   3.117   5.457 -0.1549  0.8620  0.4230
   16CHTO   O24 6705   6.376   3.091   5.594 -0.7202  0.2664  0.2150
   16CHTO   H39 6706   6.468   3.071   5.603 -0.2744  1.9678 -0.3162
   16CHTO    O9 6707   5.957   2.840   5.552  0.7608 -0.0150 -0.3645
   16CHTO   C13 6708   5.939   2.860   5.718 -0.1073  0.0482 -1.0857
   16CHTO   H26 6709   5.848   2.922   5.725  0.2252  0.4404 -0.1777
   16CHTO   C11 6710   6.057   2.933   5.786  0.1471 -0.1516 -0.5040
   16CHTO   H24 6711   6.061   3.035   5.745  0.7649 -0.2074 -0.5963
   16CHTO    O8 6712   6.181   2.861   5.754 -0.9724 -0.5491  0.5062
   16CHTO    H3 6713   6.200   2.794   5.817 -0.3599 -0.5643  0.3121
   16CHTO    C9 6714   6.025   2.933   5.937  0.1510 -0.3036 -0.7826
   16CHTO   H22 6715   5.924   2.974   5.953  0.1099 -1.3778  2.0353
   16CHTO    N2 6716   6.102   3.035   6.008 -0.3682  0.0089  0.6525
   16CHTO   H10 6717   6.208   3.013   6.002 -0.2476  0.9796 -1.1449
   16CHTO   H11 6718   6.075   3.137   5.984 -3.4737 -1.1529 -0.9485
   16CHTO    C7 6719   6.026   2.790   6.003 -0.3273  0.0905 -0.5403
   16CHTO   H20 6720   5.963   2.797   6.095 -1.4307 -2.6158 -1.0528
   16CHTO    O4 6721   5.965   2.690   5.923  0.4366 -0.2035 -0.6494
   16CHTO   C14 6722   5.922   2.716   5.785  0.0363  0.6885  0.0574
   16CHTO   H27 6723   5.814   2.690   5.791  0.7519 -2.4181 -0.0376
   16CHTO   C18 6724   5.990   2.609   5.700  0.5304  0.5393  0.1715
   16CHTO   O13 6725   5.936   2.479   5.723  0.8735 -0.1251 -0.0135
   16CHTO    H7 6726   5.858   2.469   5.673  1.2157 -0.0568 -0.5648
   16CHTO    O2 6727   6.176   2.745   6.030  0.6591 -0.0462  0.6058
   16CHTO    C1 6728   6.186   2.632   6.115  0.0203  0.4509  0.3942
   16CHTO   H14 6729   6.107   2.556   6.100  0.1102  0.1814  1.2531
   16CHTO    C2 6730   6.182   2.676   6.270 -0.0969 -0.3714  0.5278
   16CHTO   H15 6731   6.242   2.767   6.266 -1.1593  0.2841 -1.1109
   16CHTO    O6 6732   6.042   2.697   6.295  0.5700 -0.1615  0.1887
   16CHTO    H1 6733   6.004   2.749   6.227 -0.7803  0.2590  1.2457
   16CHTO    C3 6734   6.236   2.575   6.380 -0.3244 -0.1962 -0.2812
   16CHTO   H16 6735   6.157   2.504   6.406 -0.8255 -0.2924 -2.0002
   16CHTO    N1 6736   6.264   2.641   6.510  0.0103  0.2480 -0.1357
   16CHTO    H8 6737   6.330   2.727   6.510  2.4556 -1.5699 -1.4233
   16CHTO    H9 6738   6.296   2.570   6.585  1.2349  0.1669 -0.7162
   16CHTO    C4 6739   6.354   2.495   6.326 -1.1480 -0.1342  0.1475
   16CHTO   H17 6740   6.450   2.546   6.332  0.0845 -2.2323 -1.2067
   16CHTO    O1 6741   6.330   2.459   6.191  0.1828  0.8560 -1.0945
   16CHTO    C5 6742   6.322   2.563   6.093  0.4585 -0.0124 -0.0743
   16CHTO   H18 6743   6.398   2.640   6.103 -1.4141  1.8740 -0.0764
   16CHTO   C16 6744   6.329   2.516   5.949 -0.1183 -0.0094  0.3747
   16CHTO   O11 6745   6.232   2.423   5.899 -0.2357  0.0171  0.3683
   16CHTO    H5 6746   6.196   2.444   5.815 -1.0609 -2.8517 -0.0657
   16CHTO    O3 6747   6.369   2.377   6.402 -0.0162  0.3283 -0.1420
   16CHTO    C6 6748   6.473   2.280   6.362 -0.4181 -0.5766 -0.1208
   16CHTO   H19 6749   6.501   2.276   6.257  0.4203 -1.9631  0.1524
   16CHTO    C8 6750   6.614   2.318   6.437  1.1472  0.0208 -0.5190
   16CHTO   H21 6751   6.600   2.333   6.544  1.9117  2.4901 -0.7283
   16CHTO    O7 6752   6.663   2.445   6.390 -0.3424  0.0131  0.1497
   16CHTO    H2 6753   6.622   2.522   6.424  0.7742  1.7106 -2.1718
   16CHTO   C12 6754   6.718   2.199   6.413  0.0569 -0.1609 -0.1799
   16CHTO   H25 6755   6.748   2.208   6.307  0.3134  1.1351 -0.0094
   16CHTO    N3 6756   6.840   2.220   6.500  0.0345  0.8358 -0.3667
   16CHTO   H12 6757   6.801   2.235   6.599 -0.5135  0.3520 -0.5050
   16CHTO   H13 6758   6.903   2.302   6.468 -0.2725  0.8632 -0.9135
   16CHTO   C15 6759   6.656   2.056   6.443  0.1557  0.4207 -0.6928
   16CHTO   H28 6760   6.629   2.038   6.547 -0.2106 -2.1145 -1.2009
   16CHTO   O10 6761   6.760   1.945   6.383  0.4567 -0.0472 -0.4436
   16CHTO    H4 6762   6.755   1.857   6.416  0.6610 -0.4602 -1.5033
   16CHTO    O5 6763   6.531   2.039   6.364  0.4249 -0.1246 -0.3270
   16CHTO   C10 6764   6.428   2.135   6.400  0.0214  0.0887 -0.7056
   16CHTO   H23 6765   6.407   2.130   6.507 -0.0380  0.5390 -0.6966
   16CHTO   C17 6766   6.295   2.098   6.327 -0.1805  0.0304  0.0902
   16CHTO   O12 6767   6.235   1.976   6.341  0.2895  0.2290  0.2702
   16CHTO    H6 6768   6.263   1.935   6.421  0.7464  0.5234  0.2603
   17CHTO  H203 6769   6.205   5.386   7.008 -1.3584  0.6813  1.5664
   17CHTO   O82 6770   6.286   5.416   7.045  0.3808 -0.5775 -1.0583
   17CHTO  C123 6771   6.268   5.517   7.145 -0.5190  0.0061  0.5664
   17CHTO  H227 6772   6.349   5.591   7.142 -2.0568  1.6397 -1.3273
   17CHTO   O77 6773   6.155   5.592   7.096 -0.1049  0.0906  0.4496
   17CHTO  C118 6774   6.129   5.714   7.170 -0.2489 -0.9989  0.3111
   17CHTO  H222 6775   6.226   5.766   7.176  0.0285 -1.2519 -1.6368
   17CHTO  C125 6776   6.026   5.807   7.093 -0.0758  0.1863 -0.2325
   17CHTO   O84 6777   6.085   5.860   6.974  0.3153  0.0113  0.3442
   17CHTO  H205 6778   6.025   5.927   6.949  0.2974  0.5935  1.8730
   17CHTO  C114 6779   6.086   5.682   7.318  0.9661 -0.6234 -0.0412
   17CHTO  H218 6780   5.992   5.628   7.309 -0.3980  2.0911 -2.6046
   17CHTO  C116 6781   6.196   5.585   7.383  0.0111  0.3980  0.0626
   17CHTO  H220 6782   6.285   5.649   7.402  0.7122 -1.1603  2.2956
   17CHTO   O79 6783   6.144   5.545   7.508 -0.1595  0.3006  0.7531
   17CHTO  H201 6784   6.205   5.486   7.549 -0.4892 -2.0866 -2.0014
   17CHTO  C120 6785   6.242   5.460   7.293 -0.1493 -0.6911 -1.1416
   17CHTO  H224 6786   6.157   5.390   7.305  0.5641 -1.3893 -0.0420
   17CHTO   N21 6787   6.365   5.395   7.344  0.3921 -0.2380 -0.1041
   17CHTO  H211 6788   6.428   5.462   7.401  0.1433 -1.1830  1.3210
   17CHTO  H212 6789   6.345   5.295   7.380  0.1140  0.0685  0.6010
   17CHTO   O75 6790   6.061   5.812   7.380  0.0189 -0.2791  0.1664
   17CHTO  C112 6791   6.176   5.890   7.450  0.0544 -0.2124  0.5723
   17CHTO  H216 6792   6.256   5.888   7.374  0.0549 -2.7028  0.6050
   17CHTO   O73 6793   6.214   5.824   7.565 -0.5120 -0.4120 -0.4143
   17CHTO  C113 6794   6.329   5.888   7.627 -0.7592  0.5900  0.2888
   17CHTO  H217 6795   6.398   5.917   7.545  1.1572 -2.1731  0.8540
   17CHTO  C124 6796   6.386   5.795   7.732  0.0995 -0.7100 -0.0640
   17CHTO   O83 6797   6.295   5.781   7.843 -0.5267 -0.0120  0.3199
   17CHTO  H204 6798   6.314   5.850   7.904 -0.9037 -0.3399  0.8167
   17CHTO  C109 6799   6.291   6.030   7.679 -0.5266  0.0881 -0.4385
   17CHTO  H213 6800   6.223   6.021   7.765  0.8589  1.0787  0.7849
   17CHTO  C110 6801   6.224   6.119   7.571  0.1830  0.2133 -0.5905
   17CHTO  H214 6802   6.309   6.165   7.519  0.6887 -1.2550 -1.0770
   17CHTO   O78 6803   6.161   6.227   7.630  0.1699  0.0131 -0.1902
   17CHTO  H200 6804   6.071   6.209   7.651 -0.0089 -0.0182 -0.9824
   17CHTO  C111 6805   6.128   6.038   7.476 -0.0167  0.6557  0.6247
   17CHTO  H215 6806   6.034   6.028   7.532 -0.5640  1.3421 -0.1596
   17CHTO   N19 6807   6.097   6.105   7.353  0.1183 -0.3915  0.4219
   17CHTO  H207 6808   6.019   6.045   7.309  0.7978  0.4243 -1.9757
   17CHTO  H208 6809   6.040   6.191   7.386  1.2419  0.7959 -0.6282
   17CHTO   O74 6810   6.416   6.091   7.722 -0.2827  0.2168 -0.6557
   17CHTO  C115 6811   6.399   6.183   7.859 -0.5529  0.5777 -0.6953
   17CHTO  H219 6812   6.297   6.216   7.876 -0.1693  0.0278  3.1696
   17CHTO   O76 6813   6.427   6.101   7.981  0.0630 -0.2830 -0.3927
   17CHTO  C122 6814   6.573   6.103   8.006  0.5183  0.2156 -0.0524
   17CHTO  H226 6815   6.628   6.060   7.922  0.8279  1.9313 -0.7320
   17CHTO  C126 6816   6.606   6.010   8.128  0.3208  0.6089 -0.7047
   17CHTO   O85 6817   6.603   5.869   8.105 -0.4243  0.1208 -0.0833
   17CHTO  H206 6818   6.659   5.843   8.034  0.4827 -2.1416  1.4119
   17CHTO  C121 6819   6.641   6.245   8.028 -0.4051  0.0798  0.3133
   17CHTO  H225 6820   6.659   6.262   8.137 -0.8776 -1.2232  0.5993
   17CHTO   O81 6821   6.776   6.243   7.966  0.1273  0.3373  0.0106
   17CHTO  H202 6822   6.811   6.329   7.947 -0.2233  0.6196  0.6362
   17CHTO  C119 6823   6.549   6.354   7.971 -0.6571 -0.3442  0.1268
   17CHTO  H223 6824   6.460   6.369   8.033 -0.1724  1.7207  0.3714
   17CHTO  C117 6825   6.491   6.302   7.831 -0.8093 -0.3098  0.3153
   17CHTO  H221 6826   6.567   6.277   7.757  1.6008  0.8140  2.3255
   17CHTO   N20 6827   6.418   6.416   7.764  0.4673  0.7429  1.0249
   17CHTO  H209 6828   6.489   6.471   7.704 -0.6198  0.6149 -0.3903
   17CHTO  H210 6829   6.370   6.475   7.841  1.3213  1.0290  1.3467
   17CHTO   O80 6830   6.613   6.491   7.974 -0.1417 -0.4709  0.2861
   17CHTO  C103 6831   6.613   6.567   8.110 -0.2972 -0.2916 -1.0693
   17CHTO  H190 6832   6.547   6.520   8.183 -1.3363 -0.3646 -2.0273
   17CHTO  C101 6833   6.752   6.573   8.189 -0.6993 -0.1272  0.7211
   17CHTO  H188 6834   6.829   6.602   8.118 -1.2923 -2.1590 -0.7905
   17CHTO   O68 6835   6.784   6.433   8.261 -0.1201 -0.5670  0.0871
   17CHTO  H168 6836   6.750   6.443   8.348  1.8288 -1.1210  0.9462
   17CHTO   C99 6837   6.762   6.698   8.293  0.3667 -1.1225 -0.2680
   17CHTO  H186 6838   6.690   6.690   8.377 -1.4062  1.4024 -1.4953
   17CHTO   N17 6839   6.897   6.732   8.353  0.5784 -0.1205  0.6431
   17CHTO  H174 6840   6.910   6.697   8.455  0.8272  0.9322  0.9719
   17CHTO  H175 6841   6.908   6.839   8.346  0.2063 -0.1246  0.0143
   17CHTO   C97 6842   6.709   6.823   8.217  0.6888  0.6386  0.2853
   17CHTO  H184 6843   6.778   6.843   8.133  0.0816  2.1949  0.1273
   17CHTO   O64 6844   6.572   6.805   8.176  0.2033 -0.1486  0.4219
   17CHTO  C104 6845   6.557   6.715   8.070 -0.3494  0.5790 -0.5615
   17CHTO  H191 6846   6.614   6.758   7.988  0.9565  3.7719  1.9034
   17CHTO  C108 6847   6.415   6.710   8.025 -0.3015 -0.1911  0.3760
   17CHTO   O71 6848   6.368   6.840   7.980 -0.2347 -0.1085 -0.5708
   17CHTO  H171 6849   6.398   6.851   7.892  0.2527 -2.8784 -0.8060
   17CHTO   O62 6850   6.702   6.938   8.304 -0.4834 -0.5794 -0.5999
   17CHTO   C91 6851   6.689   7.063   8.245 -0.0517  0.6843  0.2909
   17CHTO  H178 6852   6.719   7.054   8.140 -0.3309 -1.4225  0.3583
   17CHTO   C92 6853   6.788   7.158   8.323 -0.1309 -0.1988  0.1460
   17CHTO  H179 6854   6.888   7.112   8.321 -0.6590 -1.3513 -0.2162
   17CHTO   O66 6855   6.799   7.279   8.246  0.0659  0.1098 -0.1858
   17CHTO  H166 6856   6.717   7.324   8.237  0.3140  0.8300  1.0477
   17CHTO   C93 6857   6.733   7.191   8.470  0.1769 -0.0951 -0.9154
   17CHTO  H180 6858   6.794   7.276   8.503  1.5919 -2.3613  2.6212
   17CHTO   N16 6859   6.758   7.097   8.582 -0.2383  0.4632  0.2077
   17CHTO  H172 6860   6.761   7.149   8.677  1.8875  2.8322 -1.0742
   17CHTO  H173 6861   6.853   7.048   8.566 -1.1110 -0.8216 -1.0569
   17CHTO   C94 6862   6.581   7.220   8.468  0.3229 -0.8256 -0.6104
   17CHTO  H181 6863   6.525   7.134   8.505  2.0654 -1.0464  1.6173
   17CHTO   O61 6864   6.535   7.233   8.330  0.5774 -0.3778 -0.1878
   17CHTO   C95 6865   6.538   7.125   8.238 -0.6938  0.3247  0.4896
   17CHTO  H182 6866   6.471   7.047   8.273 -0.5094  0.4169  1.0556
   17CHTO  C106 6867   6.508   7.180   8.091  0.3293 -0.0713 -0.0945
   17CHTO   O69 6868   6.519   7.071   7.998 -0.2671  0.2521 -0.0789
   17CHTO  H169 6869   6.561   7.103   7.920  0.0623  1.0035  0.3957
   17CHTO   O63 6870   6.561   7.348   8.544  0.3590  0.4957 -0.1738
   17CHTO   C96 6871   6.403   7.375   8.584  0.2540  0.0005  0.3429
   17CHTO  H183 6872   6.347   7.281   8.588  0.3082 -0.0829 -0.8042
   17CHTO   C98 6873   6.318   7.469   8.497  0.5073 -0.4023  0.3045
   17CHTO  H185 6874   6.364   7.569   8.489  0.3036 -0.2409  1.1704
   17CHTO   O67 6875   6.326   7.414   8.369  0.0069  0.4924 -0.2435
   17CHTO  H167 6876   6.298   7.476   8.305  3.8844 -0.2528 -2.8111
   17CHTO  C102 6877   6.174   7.477   8.550  0.1657  0.4518 -0.2006
   17CHTO  H189 6878   6.135   7.376   8.531 -0.3066  0.5943 -0.0031
   17CHTO   N18 6879   6.080   7.569   8.472  0.1163 -0.3294 -0.1903
   17CHTO  H176 6880   6.136   7.650   8.428  0.2655 -1.0191 -1.2944
   17CHTO  H177 6881   6.005   7.602   8.543  2.2351  1.5310  1.2621
   17CHTO  C105 6882   6.176   7.519   8.703  0.2340 -0.0599 -1.4010
   17CHTO  H192 6883   6.201   7.625   8.700 -1.0714  0.2849 -0.4857
   17CHTO   O65 6884   6.271   7.440   8.787 -0.3135  0.0899  0.2181
   17CHTO  C100 6885   6.402   7.440   8.732 -0.5282  0.3033  0.5343
   17CHTO  H187 6886   6.419   7.547   8.713 -2.0259  0.3944 -0.4370
   17CHTO  C107 6887   6.499   7.383   8.841  0.2194  0.1057 -0.3536
   17CHTO   O70 6888   6.467   7.244   8.863 -0.1058 -0.2173  0.0312
   17CHTO  H170 6889   6.393   7.225   8.916  1.3817 -5.1482  0.5570
   17CHTO   O57 6890   6.026   7.491   8.760  0.2570 -0.1617 -0.4660
   17CHTO   C85 6891   5.947   7.586   8.818  0.3942  0.0740  0.4628
   17CHTO  H157 6892   5.970   7.681   8.766  0.6199  0.4554  1.2547
   17CHTO   C83 6893   5.993   7.610   8.971 -0.2460  0.5788 -0.8942
   17CHTO  H155 6894   6.097   7.642   8.975  0.3303 -1.2255 -0.8208
   17CHTO   O56 6895   5.986   7.483   9.032 -0.3734 -0.3868 -0.5767
   17CHTO  H135 6896   6.022   7.493   9.118 -0.7512  2.9860 -0.7110
   17CHTO   C81 6897   5.903   7.709   9.050 -0.2987 -0.4186  0.1422
   17CHTO  H153 6898   5.925   7.805   9.002  0.5020 -0.7841 -0.2413
   17CHTO   N14 6899   5.925   7.728   9.196  0.5678 -0.2757  0.1367
   17CHTO  H141 6900   5.849   7.666   9.237  0.4174  0.3566  0.8378
   17CHTO  H142 6901   5.910   7.830   9.224 -1.1922 -0.6092  0.4342
   17CHTO   C79 6902   5.744   7.682   9.024 -0.2504 -0.3567  0.5613
   17CHTO  H151 6903   5.694   7.775   9.050 -0.5044 -0.8681  1.9307
   17CHTO   O52 6904   5.716   7.661   8.880  0.0789  0.2140  0.0151
   17CHTO   C86 6905   5.800   7.563   8.812 -0.0795 -0.3522  0.5631
   17CHTO  H158 6906   5.767   7.470   8.863  0.3019 -1.0752 -0.5052
   17CHTO   C90 6907   5.740   7.563   8.666  0.1776 -0.9992  0.1746
   17CHTO   O60 6908   5.609   7.513   8.670  0.2148 -0.4195 -0.1225
   17CHTO  H138 6909   5.559   7.530   8.592 -1.9449  2.1523  1.7589
   17CHTO   O50 6910   5.697   7.563   9.097  0.4650  0.1664 -0.0592
   17CHTO   C73 6911   5.600   7.476   9.155  0.0531  0.6634  0.0930
   17CHTO  H145 6912   5.539   7.540   9.220  0.1041  2.2158 -1.3431
   17CHTO   C74 6913   5.665   7.362   9.232 -0.3047  0.8165  0.4826
   17CHTO  H146 6914   5.735   7.399   9.309  0.8356 -0.5644  0.1199
   17CHTO   O54 6915   5.558   7.300   9.309  0.3403  0.0740  0.4749
   17CHTO  H133 6916   5.555   7.207   9.294 -1.5355  0.5790 -2.5889
   17CHTO   C75 6917   5.747   7.262   9.138 -0.1393  0.0256  0.1423
   17CHTO  H147 6918   5.828   7.316   9.088 -0.7044  0.2111 -0.5881
   17CHTO   N13 6919   5.818   7.146   9.203 -0.1176 -0.6178 -0.1479
   17CHTO  H139 6920   5.871   7.173   9.293 -1.9947 -2.1791  1.4571
   17CHTO  H140 6921   5.890   7.116   9.128  1.2105  2.1342 -0.0578
   17CHTO   C76 6922   5.654   7.211   9.018  0.4850 -0.1206  0.0718
   17CHTO  H148 6923   5.578   7.148   9.064  0.1368  0.3629  0.1615
   17CHTO   O49 6924   5.590   7.333   8.956  0.3851  0.3694 -0.2686
   17CHTO   C77 6925   5.503   7.406   9.053 -1.0695  0.6316  0.1583
   17CHTO  H149 6926   5.434   7.347   9.113 -1.6293 -0.7839 -1.8388
   17CHTO   C88 6927   5.416   7.511   8.981  0.0347 -0.4851  0.4352
   17CHTO   O58 6928   5.302   7.453   8.905  0.3591  0.0673  0.3768
   17CHTO  H136 6929   5.218   7.457   8.947 -0.3545  0.1192 -1.0160
   17CHTO   O51 6930   5.741   7.142   8.884 -0.0803 -0.4533  0.0864
   17CHTO   C78 6931   5.629   7.040   8.811 -0.1998  0.0480 -0.3963
   17CHTO  H150 6932   5.526   7.080   8.819 -0.1433  0.4187 -1.4600
   17CHTO   C80 6933   5.630   6.898   8.869  0.1912 -0.2243  0.1876
   17CHTO  H152 6934   5.736   6.866   8.875 -0.0785 -1.1194  0.2071
   17CHTO   O55 6935   5.569   6.910   9.002  0.1276 -0.5624  0.3096
   17CHTO  H134 6936   5.620   6.865   9.067  1.3120 -0.0331 -0.2241
   17CHTO   C84 6937   5.552   6.794   8.787  0.3520  0.5285 -0.1835
   17CHTO  H156 6938   5.446   6.821   8.790  0.3336  0.2989  2.2900
   17CHTO   N15 6939   5.555   6.656   8.832  0.2139  0.8428  0.0231
   17CHTO  H143 6940   5.656   6.635   8.861  0.3112 -0.8383 -1.4501
   17CHTO  H144 6941   5.525   6.591   8.753  1.0555 -2.9005  2.6430
   17CHTO   C87 6942   5.592   6.804   8.639 -0.2259  0.3033 -0.3850
   17CHTO  H159 6943   5.697   6.776   8.627  0.0682  1.6167 -0.9475
   17CHTO   O53 6944   5.579   6.959   8.585  0.4789  0.0543  0.9611
   17CHTO   C82 6945   5.665   7.038   8.661 -0.8301 -0.5875 -0.3550
   17CHTO  H154 6946   5.767   7.002   8.645 -0.8745 -0.4678 -0.9276
   17CHTO   C89 6947   5.648   7.180   8.599  0.5650  0.5202  0.1231
   17CHTO   O59 6948   5.520   7.253   8.612  0.0865 -0.0562 -0.4327
   17CHTO  H137 6949   5.492   7.263   8.523 -0.8314  0.0556 -0.1415
   17CHTO   O45 6950   5.494   6.716   8.534 -0.4344 -0.3436 -0.1196
   17CHTO   C67 6951   5.558   6.607   8.470  0.1954 -0.7924  0.5046
   17CHTO  H124 6952   5.643   6.570   8.528  0.7028 -0.2960  0.0831
   17CHTO   C65 6953   5.460   6.491   8.440 -0.1910 -0.2000  0.0248
   17CHTO  H122 6954   5.398   6.488   8.530  2.0009  2.0651  1.6770
   17CHTO   O44 6955   5.531   6.373   8.421  0.1345 -0.3028 -0.1883
   17CHTO  H102 6956   5.569   6.352   8.505  1.0075 -0.2112 -0.5589
   17CHTO   C63 6957   5.361   6.523   8.326  0.2538 -0.6536 -0.2778
   17CHTO  H120 6958   5.299   6.607   8.359 -0.5337 -0.4493 -2.2098
   17CHTO   N11 6959   5.249   6.428   8.307  0.2225 -0.7874 -0.2977
   17CHTO  H108 6960   5.252   6.384   8.210 -0.8534  1.1836 -1.2722
   17CHTO  H109 6961   5.251   6.342   8.370  1.2379 -0.2665  0.3893
   17CHTO   C61 6962   5.447   6.563   8.200  0.1864 -0.5236 -0.2706
   17CHTO  H118 6963   5.370   6.592   8.127  1.2383  2.0126 -0.4106
   17CHTO   O40 6964   5.531   6.682   8.222  0.2898 -0.8198  0.7961
   17CHTO   C68 6965   5.619   6.678   8.335 -0.5165  0.1339  0.1499
   17CHTO  H125 6966   5.636   6.785   8.360 -3.3237  1.3699 -2.9661
   17CHTO   C72 6967   5.760   6.623   8.293  0.2614 -0.1030  0.0215
   17CHTO   O48 6968   5.846   6.639   8.405 -0.1061 -0.1517  0.2722
   17CHTO  H105 6969   5.882   6.725   8.392  2.5346 -0.9041  2.2178
   17CHTO   O38 6970   5.518   6.447   8.152 -0.1872  0.1320 -0.3535
   17CHTO   C55 6971   5.547   6.437   8.009  0.3733 -0.4068 -0.0769
   17CHTO  H112 6972   5.630   6.366   7.996  0.4877 -0.0531 -1.3597
   17CHTO   C56 6973   5.580   6.575   7.927 -0.5675 -0.3642  0.6664
   17CHTO  H113 6974   5.515   6.656   7.964  2.9568  2.6267  0.5880
   17CHTO   O42 6975   5.709   6.621   7.965 -0.1105  0.2058 -1.0887
   17CHTO  H100 6976   5.731   6.696   7.914 -0.0595  0.4484 -0.7062
   17CHTO   C57 6977   5.573   6.568   7.769 -0.4705  0.6113 -0.5578
   17CHTO  H114 6978   5.668   6.520   7.746 -0.8632  0.2941 -1.5113
   17CHTO   N10 6979   5.570   6.701   7.708 -0.4564 -0.7421 -0.3606
   17CHTO  H106 6980   5.616   6.706   7.610 -0.3886  4.0643 -0.2084
   17CHTO  H107 6981   5.624   6.775   7.765  1.7778 -1.3563 -1.6102
   17CHTO   C58 6982   5.454   6.484   7.732 -0.0251  0.0634 -0.4497
   17CHTO  H115 6983   5.360   6.539   7.753 -0.9038 -1.3169 -0.6380
   17CHTO   O37 6984   5.445   6.356   7.800 -0.3775  0.2335 -0.3946
   17CHTO   C59 6985   5.423   6.371   7.940 -0.0210  0.0612  0.1331
   17CHTO  H116 6986   5.330   6.425   7.961  0.3567  0.1369  1.6566
   17CHTO   C70 6987   5.398   6.226   7.980  0.7701 -0.0584  0.2271
   17CHTO   O46 6988   5.370   6.207   8.117  0.0492  0.3771 -0.2372
   17CHTO  H103 6989   5.436   6.248   8.169 -0.6885  1.7854 -0.4142
   17CHTO   O39 6990   5.459   6.455   7.549  0.0704  0.4185 -0.6562
   17CHTO   C60 6991   5.334   6.485   7.484 -0.4842  0.2615  0.0295
   17CHTO  H117 6992   5.269   6.538   7.554 -2.0334 -0.6031 -0.7376
   17CHTO   C62 6993   5.337   6.590   7.370 -0.1451 -0.0168 -0.2622
   17CHTO  H119 6994   5.391   6.679   7.410 -0.2623 -0.5400  1.0745
   17CHTO   O43 6995   5.407   6.549   7.251  0.2958 -0.3800 -0.1179
   17CHTO  H101 6996   5.500   6.550   7.256  0.3424  1.6137 -1.1349
   17CHTO   C66 6997   5.191   6.638   7.337 -0.1224  0.5884  0.3510
   17CHTO  H123 6998   5.145   6.667   7.431  1.5232 -0.5680  1.5401
   17CHTO   N12 6999   5.176   6.750   7.239 -0.2353 -0.0195 -0.1399
   17CHTO  H110 7000   5.072   6.766   7.212  0.6414  2.3544 -2.4358
   17CHTO  H111 7001   5.212   6.833   7.298 -2.8457  0.0164  1.4640
   17CHTO   C69 7002   5.110   6.511   7.285  0.6225  1.2615  0.2248
   17CHTO  H126 7003   5.156   6.488   7.186  1.4053 -2.0032  1.2750
   17CHTO   O41 7004   5.120   6.402   7.389  0.3799  0.1571  0.2576
   17CHTO   C64 7005   5.261   6.363   7.441  0.2493  0.4855  0.1586
   17CHTO  H121 7006   5.308   6.319   7.351 -1.5263  0.1930 -0.6477
   17CHTO   C71 7007   5.249   6.260   7.561 -0.5026 -0.2688 -0.0998
   17CHTO   O47 7008   5.161   6.149   7.537  0.8076 -0.4001  0.1944
   17CHTO  H104 7009   5.192   6.097   7.464  1.5829  1.6887 -1.0028
   17CHTO   O34 7010   4.946   6.545   7.265 -0.0308 -0.1689 -0.0863
   17CHTO   C49 7011   4.805   6.601   7.311  0.4855 -0.4112 -0.4141
   17CHTO   H91 7012   4.795   6.703   7.274  1.9245  0.7564  2.2434
   17CHTO   C47 7013   4.803   6.601   7.465 -0.4682 -0.1704 -0.0305
   17CHTO   H89 7014   4.707   6.652   7.488 -0.7029 -0.3206 -0.6854
   17CHTO   O33 7015   4.908   6.683   7.522  0.2975  0.4741  0.0839
   17CHTO   H70 7016   4.909   6.671   7.616  0.4146 -2.2144 -0.2077
   17CHTO   C45 7017   4.807   6.460   7.537  0.2712  0.5538 -0.0784
   17CHTO   H87 7018   4.911   6.438   7.565  0.8710  1.7101 -1.3110
   17CHTO    N8 7019   4.719   6.462   7.659 -0.2521 -0.0152  0.0930
   17CHTO   H75 7020   4.665   6.555   7.668 -1.0120 -0.3903 -0.5035
   17CHTO   H76 7021   4.761   6.428   7.752  0.7069 -2.8045 -1.2858
   17CHTO   C43 7022   4.772   6.346   7.427  0.1956  0.7697 -0.2299
   17CHTO   H85 7023   4.865   6.347   7.369 -0.1305  0.2681 -0.7663
   17CHTO   O29 7024   4.661   6.391   7.351 -0.3534  0.0521 -0.2173
   17CHTO   C50 7025   4.688   6.504   7.262  0.1575  0.3639 -0.8818
   17CHTO   H92 7026   4.722   6.465   7.165 -3.4328  1.1449 -2.5084
   17CHTO   C54 7027   4.558   6.592   7.226 -0.2142  0.0516  0.0155
   17CHTO   O36 7028   4.438   6.510   7.234  0.2120 -0.0707 -0.2739
   17CHTO   H72 7029   4.449   6.452   7.307  0.2118  0.8248  0.4391
   17CHTO   O27 7030   4.748   6.210   7.474 -0.4726 -0.3481  0.1373
   17CHTO   C37 7031   4.831   6.092   7.462 -0.7344 -0.3317 -0.2241
   17CHTO   H79 7032   4.931   6.119   7.500  0.6401 -2.0190 -2.5002
   17CHTO   C38 7033   4.772   5.976   7.550  0.4361 -0.2609  0.3744
   17CHTO   H80 7034   4.675   5.944   7.509 -1.1020  0.2794  3.4292
   17CHTO   O31 7035   4.757   6.029   7.684  0.0642  0.7391  0.3477
   17CHTO   H68 7036   4.699   6.103   7.688  0.0781  0.7234  0.9548
   17CHTO   C39 7037   4.864   5.847   7.548 -0.2889 -0.0578 -1.1658
   17CHTO   H81 7038   4.952   5.877   7.605 -0.7700 -2.0839  0.7019
   17CHTO    N7 7039   4.806   5.718   7.613  0.2861 -0.3645  0.0983
   17CHTO   H73 7040   4.801   5.729   7.720  1.8259  0.8808  0.0504
   17CHTO   H74 7041   4.705   5.697   7.579  0.7856  0.7825 -2.1550
   17CHTO   C40 7042   4.916   5.812   7.400  0.0860  0.1933 -0.2655
   17CHTO   H82 7043   4.833   5.756   7.357  0.1028 -0.7380  0.8893
   17CHTO   O26 7044   4.947   5.925   7.323 -0.3738 -0.7548  0.0414
   17CHTO   C41 7045   4.848   6.029   7.322  0.3951 -0.6572 -0.7228
   17CHTO   H83 7046   4.755   5.986   7.279  0.4862 -1.7526  0.1704
   17CHTO   C52 7047   4.893   6.136   7.219 -0.1454 -0.0972 -0.1705
   17CHTO   O35 7048   5.037   6.161   7.202  0.1583 -0.0349 -1.0121
   17CHTO   H71 7049   5.077   6.087   7.243  0.9589  0.9600  0.0169
   17CHTO   O28 7050   5.031   5.727   7.407 -0.2194 -0.8058  0.1134
   17CHTO   C42 7051   5.168   5.759   7.431 -0.2677 -0.2766 -0.4824
   17CHTO   H84 7052   5.215   5.660   7.427 -1.1180 -0.6204 -2.5602
   17CHTO   C44 7053   5.213   5.816   7.573  0.8652  0.0341  0.2216
   17CHTO   H86 7054   5.166   5.912   7.590 -2.2627 -1.3469 -0.3208
   17CHTO   O32 7055   5.154   5.731   7.677  0.2628 -0.0767  0.1259
   17CHTO   H69 7056   5.060   5.734   7.683  0.2904  2.7761 -0.4439
   17CHTO   C48 7057   5.372   5.819   7.576  0.2635  0.5059 -0.2527
   17CHTO   H90 7058   5.423   5.723   7.573 -1.2294 -0.3348  1.0839
   17CHTO    N9 7059   5.419   5.877   7.706  0.0687  0.5197  0.3376
   17CHTO   H77 7060   5.364   5.831   7.787  1.2259  0.4448  1.0978
   17CHTO   H78 7061   5.527   5.872   7.718  0.6642  2.5144 -3.3968
   17CHTO   C51 7062   5.428   5.902   7.457  0.1162  0.8625  0.5828
   17CHTO   H93 7063   5.403   6.006   7.478 -1.3186  0.5845  0.2717
   17CHTO   O30 7064   5.377   5.856   7.333 -0.5241 -0.0314 -0.3344
   17CHTO   C46 7065   5.231   5.848   7.315 -0.3526 -0.2512 -0.1526
   17CHTO   H88 7066   5.202   5.951   7.332 -0.5222 -0.5025  1.1005
   17CHTO   C53 7067   5.210   5.791   7.170  0.1608  0.2760 -0.2699
   17CHTO   O72 7068   5.222   5.891   7.069  0.3995 -0.1665 -0.4101
   17CHTO  H199 7069   5.304   5.934   7.082 -1.2353  3.0905 -0.4692
   17CHTO   O22 7070   5.567   5.885   7.433  0.1063  0.2977  0.7869
   17CHTO   C31 7071   5.648   6.001   7.387 -0.1864  0.3927  0.5073
   17CHTO   H59 7072   5.750   5.959   7.376 -0.1038  0.2183  1.8535
   17CHTO   C29 7073   5.598   6.058   7.247  0.4774 -0.2070 -0.0423
   17CHTO   H57 7074   5.490   6.077   7.248  0.0941 -2.1509 -1.5957
   17CHTO   O21 7075   5.603   5.941   7.157  0.4826 -0.1382  0.6098
   17CHTO   H37 7076   5.684   5.932   7.111  0.6696  0.5205  0.7980
   17CHTO   C27 7077   5.678   6.182   7.186 -0.0982 -0.6983  0.2736
   17CHTO   H55 7078   5.777   6.144   7.157  1.1893  1.0872  2.1603
   17CHTO    N5 7079   5.608   6.254   7.074 -0.2510  0.5846 -0.1438
   17CHTO   H43 7080   5.689   6.278   7.006 -0.4346  0.2843 -0.4676
   17CHTO   H44 7081   5.520   6.211   7.029  0.2548 -0.9787  0.3184
   17CHTO   C25 7082   5.694   6.289   7.301 -0.3315  0.0109 -0.2935
   17CHTO   H53 7083   5.591   6.324   7.321 -0.1931  0.6454 -0.6808
   17CHTO   O17 7084   5.747   6.220   7.422  0.2453 -0.0036 -0.4315
   17CHTO   C32 7085   5.662   6.118   7.482 -0.2300  0.2434 -1.0108
   17CHTO   H60 7086   5.566   6.167   7.498  0.1261  0.9934 -1.1537
   17CHTO   C36 7087   5.727   6.077   7.612 -0.4559  0.1702 -0.4386
   17CHTO   O25 7088   5.747   6.188   7.704  0.2918 -0.4985 -0.0867
   17CHTO   H40 7089   5.670   6.178   7.757  0.0463  0.6892 -0.1890
   17CHTO   O15 7090   5.783   6.398   7.257  0.1354 -0.0071  0.2670
   17CHTO   C19 7091   5.840   6.524   7.274  0.1742  0.0855 -0.5545
   17CHTO   H47 7092   5.942   6.511   7.236  0.1676  1.0926 -0.9353
   17CHTO   C20 7093   5.762   6.632   7.192 -0.3202 -0.4719  0.1722
   17CHTO   H48 7094   5.656   6.634   7.223  0.7664  1.5033  4.0413
   17CHTO   O19 7095   5.784   6.617   7.050  0.0885  0.1706 -0.1743
   17CHTO   H35 7096   5.737   6.542   7.019 -1.7754  0.0054  2.9294
   17CHTO   C21 7097   5.812   6.777   7.233 -0.7863 -0.0352  0.5833
   17CHTO   H49 7098   5.917   6.791   7.206 -0.5848 -0.9543  0.8800
   17CHTO    N4 7099   5.742   6.893   7.169  0.1609 -0.5497  0.1563
   17CHTO   H41 7100   5.642   6.914   7.205 -0.6881 -3.7991 -0.2013
   17CHTO   H42 7101   5.746   6.890   7.062 -1.6026  0.0949  0.0493
   17CHTO   C22 7102   5.827   6.799   7.383 -0.7177 -0.1886 -0.1948
   17CHTO   H50 7103   5.725   6.796   7.423 -0.5225 -0.3400  0.2986
   17CHTO   O14 7104   5.903   6.687   7.439  0.4399  0.5370 -0.4003
   17CHTO   C23 7105   5.852   6.554   7.424  0.2271 -0.6328  0.5778
   17CHTO   H51 7106   5.757   6.535   7.475 -0.8032  1.4026 -0.5053
   17CHTO   C34 7107   5.962   6.454   7.482  0.2743 -0.1061  0.0948
   17CHTO   O23 7108   5.932   6.431   7.621  0.2676 -0.1984 -0.3174
   17CHTO   H38 7109   5.953   6.509   7.668 -1.5542 -0.6640  1.3281
   17CHTO   O16 7110   5.893   6.919   7.420  0.3049 -0.4076  0.1569
   17CHTO   C24 7111   5.887   6.958   7.577  0.5040  1.0701 -0.3490
   17CHTO   H52 7112   5.829   6.884   7.632 -0.9121  2.6257  0.2800
   17CHTO   C26 7113   5.824   7.091   7.584  1.1384 -1.2347 -0.0448
   17CHTO   H54 7114   5.874   7.156   7.509 -1.9109  0.0307 -1.0878
   17CHTO   O20 7115   5.689   7.073   7.528 -0.0653 -0.0449  0.0091
   17CHTO   H36 7116   5.663   7.151   7.482 -0.7065  1.0835  2.2394
   17CHTO   C30 7117   5.823   7.151   7.724  0.2033  0.7631  0.5220
   17CHTO   H58 7118   5.754   7.092   7.786 -0.2015  1.5069  0.7827
   17CHTO    N6 7119   5.770   7.291   7.735 -0.3085  0.5596  0.0744
   17CHTO   H45 7120   5.838   7.348   7.673 -0.0895 -1.3216 -1.4806
   17CHTO   H46 7121   5.673   7.291   7.686 -0.3277 -2.1897  0.0047
   17CHTO   C33 7122   5.969   7.154   7.782 -0.1490 -0.2240  0.6734
   17CHTO   H61 7123   6.033   7.227   7.731  0.7116 -1.2498  0.2814
   17CHTO   O18 7124   6.035   7.023   7.768  0.1019  0.0220 -0.5205
   17CHTO   C28 7125   6.030   6.956   7.638  0.3412  0.3225 -0.1402
   17CHTO   H56 7126   6.095   7.012   7.570  1.5840  0.3382  1.0418
   17CHTO   C35 7127   6.083   6.812   7.659 -0.4785  0.2282  0.1175
   17CHTO   O24 7128   6.216   6.802   7.698  0.1781  0.5367  0.0367
   17CHTO   H39 7129   6.222   6.719   7.741 -2.2676  0.5265  0.4553
   17CHTO    O9 7130   5.967   7.197   7.922  0.1771 -0.0013 -0.1965
   17CHTO   C13 7131   6.094   7.169   8.006 -0.3524  0.4641 -0.7071
   17CHTO   H26 7132   6.176   7.134   7.940  1.0445 -0.9939  1.7352
   17CHTO   C11 7133   6.059   7.061   8.126  0.6452 -0.3913  0.1394
   17CHTO   H24 7134   6.148   7.000   8.146  1.5588 -0.0217 -2.6677
   17CHTO    O8 7135   5.963   6.974   8.065  0.6174  0.1374 -0.2598
   17CHTO    H3 7136   5.876   7.010   8.072 -0.2166 -1.7823 -0.5968
   17CHTO    C9 7137   6.029   7.130   8.263 -0.2735 -0.5302 -0.9368
   17CHTO   H22 7138   6.124   7.167   8.306  0.4065 -1.8190 -1.3184
   17CHTO    N2 7139   5.967   7.041   8.365 -0.4671 -0.0545  0.2709
   17CHTO   H10 7140   6.048   6.976   8.394  0.1356 -1.6166 -4.4116
   17CHTO   H11 7141   5.880   6.989   8.328 -1.5160  0.9673  1.2796
   17CHTO    C7 7142   5.945   7.262   8.233  0.9966  0.2412  0.1354
   17CHTO   H20 7143   5.915   7.316   8.326  0.7815 -0.9509  0.7634
   17CHTO    O4 7144   6.025   7.350   8.152  0.3716  0.2266 -0.0463
   17CHTO   C14 7145   6.130   7.305   8.069  0.3696  0.3815  0.2644
   17CHTO   H27 7146   6.218   7.292   8.136 -1.2730  2.2069  2.8973
   17CHTO   C18 7147   6.166   7.414   7.972  0.2488 -0.2049  0.0463
   17CHTO   O13 7148   6.199   7.534   8.048 -0.0030 -0.4801  0.0820
   17CHTO    H7 7149   6.274   7.572   8.005 -0.2030 -1.3276 -1.0438
   17CHTO    O2 7150   5.803   7.234   8.148  0.2225  0.8839  0.6694
   17CHTO    C1 7151   5.678   7.223   8.210  0.5075  0.2745  0.1574
   17CHTO   H14 7152   5.700   7.213   8.318  1.6245 -2.1574 -0.2690
   17CHTO    C2 7153   5.592   7.100   8.169 -0.7563 -0.4413  0.1626
   17CHTO   H15 7154   5.593   7.099   8.059 -1.7519 -0.2953  0.1447
   17CHTO    O6 7155   5.654   6.971   8.207  0.4353 -0.0127  0.4610
   17CHTO    H1 7156   5.605   6.903   8.164  2.1033 -0.2160 -1.1884
   17CHTO    C3 7157   5.442   7.105   8.232  0.1244 -0.1157 -0.2013
   17CHTO   H16 7158   5.437   7.076   8.338  2.0782 -1.1921 -0.3740
   17CHTO    N1 7159   5.345   7.013   8.171 -0.2938  0.2471  0.5442
   17CHTO    H8 7160   5.390   6.918   8.148 -1.4571 -0.0222 -0.7038
   17CHTO    H9 7161   5.259   7.004   8.237 -0.6088 -1.9038 -0.1147
   17CHTO    C4 7162   5.384   7.257   8.232 -0.8416  0.5278  0.4347
   17CHTO   H17 7163   5.354   7.283   8.131 -2.0600  0.2445  0.7155
   17CHTO    O1 7164   5.484   7.349   8.278  0.8364  0.2409 -0.0296
   17CHTO    C5 7165   5.596   7.353   8.189  0.5863  0.1709 -0.0652
   17CHTO   H18 7166   5.557   7.371   8.089 -0.2534  0.6355  0.3460
   17CHTO   C16 7167   5.675   7.482   8.234  0.3853  0.3458  0.2926
   17CHTO   O11 7168   5.602   7.599   8.192 -0.1071 -0.1415 -0.5238
   17CHTO    H5 7169   5.603   7.660   8.263  1.8805 -0.2075 -0.4776
   17CHTO    O3 7170   5.279   7.264   8.331 -0.3008  0.5080  0.0914
   17CHTO    C6 7171   5.194   7.380   8.311  0.3366 -0.0030  0.7052
   17CHTO   H19 7172   5.251   7.462   8.267 -0.3850 -0.3118 -0.8681
   17CHTO    C8 7173   5.070   7.358   8.224 -0.5065 -0.7284  0.1904
   17CHTO   H21 7174   5.010   7.280   8.271  0.9480 -0.5287  2.4699
   17CHTO    O7 7175   5.121   7.319   8.089 -0.0320 -0.0980  0.1564
   17CHTO    H2 7176   5.181   7.247   8.094 -0.8956 -0.7863  0.7983
   17CHTO   C12 7177   4.981   7.478   8.222  0.2230 -0.0802  0.6775
   17CHTO   H25 7178   5.043   7.562   8.183 -1.0338  0.9445  0.8441
   17CHTO    N3 7179   4.862   7.474   8.134 -0.3809 -0.2360  0.2408
   17CHTO   H12 7180   4.835   7.578   8.118 -0.5527 -0.2860  0.2043
   17CHTO   H13 7181   4.896   7.435   8.040 -2.4486 -3.2214  0.6818
   17CHTO   C15 7182   4.943   7.506   8.377 -0.3643  0.3825  0.2999
   17CHTO   H28 7183   4.886   7.427   8.426  1.5054 -0.8723  0.5352
   17CHTO   O10 7184   4.870   7.635   8.396  0.0825  0.4966 -0.3207
   17CHTO    H4 7185   4.840   7.666   8.312  1.1923  0.8150 -0.6024
   17CHTO    O5 7186   5.066   7.529   8.460  0.6796  0.1234  0.7562
   17CHTO   C10 7187   5.162   7.425   8.456  0.5522  0.4840  0.1981
   17CHTO   H23 7188   5.124   7.342   8.516 -0.2098  0.0112 -0.9350
   17CHTO   C17 7189   5.288   7.466   8.531  0.8023 -0.3579 -0.7070
   17CHTO   O12 7190   5.342   7.583   8.466 -0.0582  0.3516  0.3400
   17CHTO    H6 7191   5.435   7.583   8.476  0.0378  2.4930 -0.3284
   18CHTO  H203 7192   5.817   8.458   1.614 -2.0414  0.9356  1.3953
   18CHTO   O82 7193   5.831   8.401   1.687  0.6442 -0.1282  0.1139
   18CHTO  C123 7194   5.882   8.277   1.649  0.1391 -0.0377  1.0217
   18CHTO  H227 7195   5.799   8.205   1.645 -0.9947  1.2835  0.4638
   18CHTO   O77 7196   5.931   8.288   1.502 -0.5567  0.0219 -0.7654
   18CHTO  C118 7197   5.996   8.177   1.444 -0.0735 -0.2629 -0.3470
   18CHTO  H222 7198   5.935   8.085   1.442 -1.2072  0.4963 -2.3133
   18CHTO  C125 7199   6.030   8.216   1.295 -0.4399  0.0510  0.1293
   18CHTO   O84 7200   6.085   8.109   1.225 -0.5512  0.0679  0.4312
   18CHTO  H205 7201   6.018   8.068   1.174  0.2686 -0.0229 -0.5888
   18CHTO  C114 7202   6.117   8.145   1.535 -0.6080  0.3678  0.6494
   18CHTO  H218 7203   6.180   8.233   1.530 -1.2691  0.8924  1.4464
   18CHTO  C116 7204   6.078   8.123   1.686 -0.9882  0.2878 -0.2171
   18CHTO  H220 7205   6.023   8.028   1.692 -1.3420  0.4026 -1.4444
   18CHTO   O79 7206   6.202   8.098   1.752 -0.1941 -0.8238 -0.1892
   18CHTO  H201 7207   6.196   8.083   1.845  1.4135 -1.6352 -0.2035
   18CHTO  C120 7208   5.998   8.240   1.754  0.2477 -0.0955 -0.6931
   18CHTO  H224 7209   6.070   8.324   1.758  0.7360 -0.5259 -0.3505
   18CHTO   N21 7210   5.953   8.213   1.893 -0.1960  0.1159  0.0090
   18CHTO  H211 7211   5.868   8.147   1.886 -0.0364 -0.0520 -0.3363
   18CHTO  H212 7212   5.923   8.303   1.945  0.1912  0.2875 -0.0567
   18CHTO   O75 7213   6.173   8.022   1.473 -0.0292  0.2206 -0.1022
   18CHTO  C112 7214   6.325   8.016   1.448 -0.0562  0.0484 -0.5451
   18CHTO  H216 7215   6.371   8.035   1.546  0.4021 -1.8060 -0.3788
   18CHTO   O73 7216   6.362   8.123   1.355  0.0411 -0.1631 -0.1372
   18CHTO  C113 7217   6.499   8.142   1.342 -0.2707  0.1682  0.0795
   18CHTO  H217 7218   6.545   8.171   1.439  1.1156  1.7131 -1.0067
   18CHTO  C124 7219   6.512   8.273   1.259 -0.1121 -0.2967 -0.4101
   18CHTO   O83 7220   6.643   8.318   1.220  0.0671  0.5830  0.9947
   18CHTO  H204 7221   6.656   8.296   1.130 -2.7194 -1.4267  1.0446
   18CHTO  C109 7222   6.572   8.012   1.276  0.1218  0.5069 -0.6891
   18CHTO  H213 7223   6.538   8.008   1.172 -0.2153 -1.6860 -0.5188
   18CHTO  C110 7224   6.527   7.884   1.355  0.4459  0.2381  0.2304
   18CHTO  H214 7225   6.573   7.885   1.454 -0.1295  2.6084  0.5141
   18CHTO   O78 7226   6.561   7.762   1.288 -0.0593  0.5347 -0.4605
   18CHTO  H200 7227   6.496   7.696   1.280 -0.8362  1.3742 -1.1845
   18CHTO  C111 7228   6.371   7.881   1.379  1.7463  0.3026  0.1398
   18CHTO  H215 7229   6.312   7.888   1.287 -2.1881 -0.8583  2.4252
   18CHTO   N19 7230   6.315   7.769   1.449 -0.4090 -0.4952  0.6375
   18CHTO  H207 7231   6.219   7.787   1.497 -1.2063 -0.2191 -1.0145
   18CHTO  H208 7232   6.334   7.675   1.401  3.2920  0.3993  0.2632
   18CHTO   O74 7233   6.720   8.028   1.289  0.3536  0.4059 -0.1979
   18CHTO  C115 7234   6.796   7.961   1.168  0.2743  0.3715 -0.4586
   18CHTO  H219 7235   6.757   7.862   1.146  1.5787 -0.1425 -0.4951
   18CHTO   O76 7236   6.779   8.037   1.039  0.3817 -0.2360 -0.5514
   18CHTO  C122 7237   6.877   8.140   1.021 -0.2461 -1.0585 -0.7662
   18CHTO  H226 7238   6.870   8.196   1.114 -0.9041 -1.8746 -0.3054
   18CHTO  C126 7239   6.816   8.236   0.913  0.1559  0.4464 -0.0347
   18CHTO   O85 7240   6.813   8.163   0.783  0.7611 -0.4690 -1.1530
   18CHTO  H206 7241   6.899   8.147   0.749  1.4025 -0.1009  0.2654
   18CHTO  C121 7242   7.019   8.084   1.000  0.2548  0.5393 -0.1118
   18CHTO  H225 7243   7.029   8.062   0.892 -2.4029  1.0067 -0.4880
   18CHTO   O81 7244   7.122   8.175   1.049 -0.1647 -0.6552 -0.0742
   18CHTO  H202 7245   7.115   8.187   1.141 -1.1321 -0.8449 -0.1216
   18CHTO  C119 7246   7.034   7.952   1.083 -0.4589 -0.3194  0.4821
   18CHTO  H223 7247   7.012   7.868   1.017 -1.6553 -1.4906  2.3179
   18CHTO  C117 7248   6.945   7.947   1.214  0.3251 -0.2082 -0.1681
   18CHTO  H221 7249   6.961   8.028   1.285 -0.5429 -1.5053  1.5748
   18CHTO   N20 7250   6.968   7.822   1.297 -0.1076 -0.3753  0.4628
   18CHTO  H209 7251   7.005   7.737   1.243 -0.8577 -0.8501  0.6898
   18CHTO  H210 7252   7.023   7.842   1.388  0.5858 -1.9253  0.3829
   18CHTO   O80 7253   7.206   7.927   1.108  0.1594  0.1040 -0.2177
   18CHTO  C103 7254   7.304   7.860   1.007  0.4517 -0.4991  0.4837
   18CHTO  H190 7255   7.402   7.854   1.055  0.1441 -1.1567  1.0411
   18CHTO  C101 7256   7.256   7.716   0.954 -0.1547 -0.0021 -0.0460
   18CHTO  H188 7257   7.148   7.707   0.961 -0.1949 -1.3210 -2.1633
   18CHTO   O68 7258   7.307   7.619   1.051  0.1467 -0.2062 -0.1539
   18CHTO  H168 7259   7.393   7.644   1.079  1.2780 -2.1876 -1.7281
   18CHTO   C99 7260   7.306   7.677   0.803 -0.5161  0.2954 -0.0589
   18CHTO  H186 7261   7.415   7.657   0.804 -0.5404  0.1777  1.1895
   18CHTO   N17 7262   7.249   7.543   0.748  0.1548 -0.2471 -0.2872
   18CHTO  H174 7263   7.158   7.514   0.798  0.3791 -1.7363 -0.6954
   18CHTO  H175 7264   7.321   7.463   0.762 -1.7635 -2.1846 -1.2434
   18CHTO   C97 7265   7.288   7.800   0.712  0.4860  0.1147  0.3841
   18CHTO  H184 7266   7.179   7.814   0.704 -0.1164 -3.0945  1.8760
   18CHTO   O64 7267   7.350   7.917   0.764 -0.2294 -0.3261 -0.2367
   18CHTO  C104 7268   7.319   7.966   0.892  0.7133  0.1216  0.2365
   18CHTO  H191 7269   7.228   8.023   0.878  0.3019 -0.1410  1.7889
   18CHTO  C108 7270   7.427   8.064   0.930 -0.0846 -0.0896 -0.5579
   18CHTO   O71 7271   7.566   8.032   0.899 -0.7192 -0.3312 -0.4304
   18CHTO  H171 7272   7.616   8.104   0.865 -1.0906  1.3136  2.3303
   18CHTO   O62 7273   7.345   7.774   0.582 -0.0668 -0.1717 -0.2750
   18CHTO   C91 7274   7.267   7.794   0.471 -0.0007  0.3209  0.8707
   18CHTO  H178 7275   7.179   7.730   0.465  0.9861 -0.8169 -3.0396
   18CHTO   C92 7276   7.362   7.735   0.362  0.0553 -0.6482  0.1895
   18CHTO  H179 7277   7.461   7.781   0.369 -0.7513  1.3608 -1.0080
   18CHTO   O66 7278   7.373   7.595   0.389 -0.1578  0.3571  0.5888
   18CHTO  H166 7279   7.386   7.543   0.311  0.5500  1.6133 -0.1439
   18CHTO   C93 7280   7.312   7.750   0.212  0.7550 -0.5854  0.0181
   18CHTO  H180 7281   7.239   7.669   0.195  0.2835  0.1563 -1.5593
   18CHTO   N16 7282   7.416   7.721   0.103  0.3634 -0.4546 -0.4283
   18CHTO  H172 7283   7.422   7.807   0.038  0.6337  1.2587  1.7857
   18CHTO  H173 7284   7.511   7.703   0.151  0.6245 -0.2216 -0.8522
   18CHTO   C94 7285   7.235   7.886   0.178 -0.2377 -0.3265  0.8732
   18CHTO  H181 7286   7.304   7.969   0.163 -4.0901  2.8152 -0.4674
   18CHTO   O61 7287   7.159   7.926   0.293  0.4581  0.0677  0.0414
   18CHTO   C95 7288   7.221   7.939   0.425 -0.8081  0.0248  0.5672
   18CHTO  H182 7289   7.308   8.004   0.419 -0.4595 -0.5881 -1.0816
   18CHTO  C106 7290   7.114   8.014   0.514 -0.6988  0.0534  0.3988
   18CHTO   O69 7291   7.061   8.130   0.448  0.4113  0.0431 -0.1471
   18CHTO  H169 7292   6.996   8.168   0.504 -0.3976  0.3151 -1.2599
   18CHTO   O63 7293   7.125   7.862   0.058 -0.3485 -0.3062  0.4582
   18CHTO   C96 7294   7.106   7.961  -0.061 -0.4208  0.4840  1.0256
   18CHTO  H183 7295   7.034   7.913  -0.127 -0.3302  1.0074  0.5430
   18CHTO   C98 7296   7.235   8.002  -0.128  0.5907  0.2391  0.8930
   18CHTO  H185 7297   7.308   8.038  -0.054 -1.0164  2.9972  1.1832
   18CHTO   O67 7298   7.288   7.888  -0.196  0.2264 -0.1161  0.0885
   18CHTO  H167 7299   7.223   7.820  -0.200  0.0715 -0.0073  0.7514
   18CHTO  C102 7300   7.221   8.117  -0.236 -0.0517 -0.6059  0.4949
   18CHTO  H189 7301   7.172   8.079  -0.327 -2.1909  3.0612  0.0533
   18CHTO   N18 7302   7.352   8.179  -0.279 -0.3794 -0.1088  0.0549
   18CHTO  H176 7303   7.331   8.227  -0.373  2.5201 -0.3482 -0.7565
   18CHTO  H177 7304   7.392   8.247  -0.204 -1.5833  0.0045  0.6052
   18CHTO  C105 7305   7.128   8.234  -0.186  0.3794 -0.0415 -0.6698
   18CHTO  H192 7306   7.187   8.300  -0.122  0.0563 -0.4446  0.0431
   18CHTO   O65 7307   7.012   8.180  -0.124  0.4628 -0.1647  0.3178
   18CHTO  C100 7308   7.034   8.094  -0.009  0.4949 -0.9365 -0.9140
   18CHTO  H187 7309   7.104   8.135   0.066 -0.1276 -1.1666 -0.1994
   18CHTO  C107 7310   6.896   8.070   0.049  0.2131 -0.4942  0.1350
   18CHTO   O70 7311   6.840   8.200   0.085 -0.0990  0.1539 -0.1795
   18CHTO  H170 7312   6.786   8.225   0.013  0.2531 -1.7270 -1.1394
   18CHTO   O57 7313   7.096   8.316  -0.318  0.2153 -0.0845 -0.3322
   18CHTO   C85 7314   7.053   8.458  -0.326  0.0716 -0.8706  0.1376
   18CHTO  H157 7315   7.141   8.516  -0.290 -1.1715  2.2592 -1.8039
   18CHTO   C83 7316   6.928   8.492  -0.233 -0.2866 -0.2328  0.7582
   18CHTO  H155 7317   6.967   8.483  -0.132  0.9600  0.0317  0.3102
   18CHTO   O56 7318   6.826   8.389  -0.243  0.3389  0.4034  0.2269
   18CHTO  H135 7319   6.790   8.396  -0.329 -0.8042  1.1972  0.7585
   18CHTO   C81 7320   6.879   8.636  -0.268 -0.3918 -0.1011 -0.5609
   18CHTO  H153 7321   6.955   8.709  -0.239  0.4961 -0.2692 -2.3829
   18CHTO   N14 7322   6.778   8.674  -0.167 -0.1724 -0.1332 -0.5393
   18CHTO  H141 7323   6.825   8.682  -0.071 -0.2038  0.4223 -0.5683
   18CHTO  H142 7324   6.721   8.760  -0.193  0.6870  0.4239 -0.6085
   18CHTO   C79 7325   6.839   8.657  -0.415  0.1365  0.2928  0.0997
   18CHTO  H151 7326   6.827   8.764  -0.430  3.8569  0.6134 -1.1019
   18CHTO   O52 7327   6.951   8.628  -0.503 -0.1730  0.5356  0.5868
   18CHTO   C86 7328   7.008   8.497  -0.474 -0.2315  0.1413  0.1886
   18CHTO  H158 7329   6.934   8.424  -0.513 -0.2660 -0.1326  0.7756
   18CHTO   C90 7330   7.129   8.486  -0.571 -0.2664  0.2188  0.0363
   18CHTO   O60 7331   7.240   8.569  -0.528  0.0640 -0.7857 -0.0123
   18CHTO  H138 7332   7.260   8.536  -0.443  1.2227  0.5882  0.2588
   18CHTO   O50 7333   6.728   8.576  -0.456 -0.0348 -0.1426  0.4966
   18CHTO   C73 7334   6.613   8.558  -0.537 -0.3900  0.6602 -0.0419
   18CHTO  H145 7335   6.644   8.531  -0.639  2.8084  1.8328  0.5701
   18CHTO   C74 7336   6.531   8.690  -0.552 -0.2995 -0.1260  0.9143
   18CHTO  H146 7337   6.605   8.767  -0.577 -0.1101  0.1874  2.3680
   18CHTO   O54 7338   6.447   8.676  -0.666  0.1715 -0.6956 -0.3423
   18CHTO  H133 7339   6.389   8.602  -0.657  1.3123 -1.4319  1.3012
   18CHTO   C75 7340   6.460   8.725  -0.414  0.2585 -0.0021 -0.3371
   18CHTO  H147 7341   6.533   8.748  -0.336 -0.9460  1.9694  0.2548
   18CHTO   N13 7342   6.385   8.852  -0.412 -0.1107  0.1706  0.0575
   18CHTO  H139 7343   6.324   8.865  -0.324  2.0734  1.6111  1.4192
   18CHTO  H140 7344   6.322   8.851  -0.500  1.3552 -0.7287 -1.0021
   18CHTO   C76 7345   6.371   8.598  -0.361  0.7172 -0.4499  0.1399
   18CHTO  H148 7346   6.295   8.579  -0.436  0.6091 -0.3901  0.2351
   18CHTO   O49 7347   6.456   8.484  -0.357  0.1697  0.1239  0.2492
   18CHTO   C77 7348   6.523   8.451  -0.482  0.5053  0.1190 -0.6843
   18CHTO  H149 7349   6.444   8.438  -0.556 -0.5038  1.0388  0.1933
   18CHTO   C88 7350   6.597   8.318  -0.462  0.2732 -0.3350 -0.4754
   18CHTO   O58 7351   6.655   8.270  -0.586 -0.1617  0.0934 -0.3903
   18CHTO  H136 7352   6.723   8.328  -0.614 -1.0798  1.6809  0.5625
   18CHTO   O51 7353   6.307   8.622  -0.231  0.4419 -0.0621  0.0245
   18CHTO   C78 7354   6.181   8.508  -0.185 -0.3380  0.1910  0.3954
   18CHTO  H150 7355   6.224   8.414  -0.225  0.4324  0.5337  0.4086
   18CHTO   C80 7356   6.040   8.536  -0.241 -0.0080 -0.8978 -0.7440
   18CHTO  H152 7357   6.016   8.643  -0.224  0.7561 -0.6737 -1.0674
   18CHTO   O55 7358   6.044   8.514  -0.380  0.4476  0.2769  0.1298
   18CHTO  H134 7359   6.094   8.576  -0.429 -0.0764  1.1053  0.6276
   18CHTO   C84 7360   5.932   8.448  -0.179  0.0795 -0.3212  0.8378
   18CHTO  H156 7361   5.941   8.350  -0.224 -1.8929  0.4554 -1.4109
   18CHTO   N15 7362   5.787   8.484  -0.208  0.4104 -0.5223 -0.0446
   18CHTO  H143 7363   5.724   8.407  -0.168 -0.4264 -0.3855 -1.0738
   18CHTO  H144 7364   5.752   8.579  -0.174 -2.3400 -1.1588 -0.9850
   18CHTO   C87 7365   5.950   8.446  -0.025 -0.0655 -0.7655  0.0595
   18CHTO  H159 7366   5.914   8.537   0.022 -0.7177 -1.8568  1.7177
   18CHTO   O53 7367   6.083   8.403   0.011  0.3858 -0.2399 -0.2785
   18CHTO   C82 7368   6.180   8.497  -0.033  0.7391  0.0788  0.2679
   18CHTO  H154 7369   6.157   8.596   0.006  5.7619  0.6075  2.2499
   18CHTO   C89 7370   6.321   8.456   0.026 -0.4257  0.0795 -0.3024
   18CHTO   O59 7371   6.339   8.479   0.165 -0.2638 -0.1981  0.2122
   18CHTO  H137 7372   6.399   8.415   0.198  0.8750  0.9904  0.4799
   18CHTO   O45 7373   5.857   8.324   0.027  0.2981 -0.3560  0.0318
   18CHTO   C67 7374   5.813   8.348   0.163  0.1900  0.1396  0.3590
   18CHTO  H124 7375   5.886   8.411   0.214  2.3086 -1.8446 -0.1218
   18CHTO   C65 7376   5.677   8.421   0.175  0.2846  0.0420  0.3578
   18CHTO  H122 7377   5.603   8.394   0.099  0.3507  0.5610  0.1024
   18CHTO   O44 7378   5.708   8.560   0.159 -0.0345 -0.7762  0.4305
   18CHTO  H102 7379   5.638   8.619   0.180 -0.9828 -1.9411  0.5792
   18CHTO   C63 7380   5.599   8.391   0.310  0.5127  0.1261  1.0933
   18CHTO  H120 7381   5.551   8.294   0.298 -1.5005  1.5142 -3.3233
   18CHTO   N11 7382   5.474   8.479   0.330 -0.0195  0.0999 -0.5948
   18CHTO  H108 7383   5.405   8.479   0.248  1.2885  1.9008 -1.7363
   18CHTO  H109 7384   5.490   8.582   0.355 -3.1091  0.5615 -0.2262
   18CHTO   C61 7385   5.705   8.374   0.422 -0.1279 -0.7721  0.6965
   18CHTO  H118 7386   5.642   8.344   0.508 -0.0478  0.5931  1.2379
   18CHTO   O40 7387   5.793   8.264   0.391  0.8174  0.2486 -0.5340
   18CHTO   C68 7388   5.811   8.219   0.253 -0.5056  0.1373  0.5956
   18CHTO  H125 7389   5.717   8.161   0.237 -0.3579  0.4842 -1.6158
   18CHTO   C72 7390   5.931   8.120   0.231 -0.5346  0.0159  0.3467
   18CHTO   O48 7391   5.900   7.980   0.260  0.1608  0.3520  0.3639
   18CHTO  H105 7392   5.809   7.957   0.268  0.0809 -0.3485 -2.1838
   18CHTO   O38 7393   5.764   8.502   0.455 -0.5048  0.7294 -1.2387
   18CHTO   C55 7394   5.854   8.511   0.561 -0.4249  0.3155 -0.0494
   18CHTO  H112 7395   5.882   8.414   0.606  2.2162  1.1435  0.1876
   18CHTO   C56 7396   5.784   8.598   0.667  0.1618 -0.2502  0.4680
   18CHTO  H113 7397   5.748   8.696   0.635 -2.7801 -0.8834  1.7126
   18CHTO   O42 7398   5.658   8.532   0.698 -0.5380 -0.6596  0.8846
   18CHTO  H100 7399   5.667   8.445   0.732  3.9757 -0.2430  1.0144
   18CHTO   C57 7400   5.880   8.622   0.794  0.3622 -0.1701  0.2601
   18CHTO  H114 7401   5.890   8.523   0.838 -3.6214 -0.9124 -0.3873
   18CHTO   N10 7402   5.823   8.715   0.893  0.2352 -0.1029 -0.0330
   18CHTO  H106 7403   5.890   8.739   0.974  0.3592 -0.0054 -0.1640
   18CHTO  H107 7404   5.791   8.803   0.840 -1.3846 -1.2562 -1.0494
   18CHTO   C58 7405   6.018   8.676   0.748 -1.1784 -0.0436 -0.1632
   18CHTO  H115 7406   6.009   8.782   0.714 -1.5542 -0.9055 -2.8361
   18CHTO   O37 7407   6.071   8.602   0.633 -0.1212  0.0842  0.1967
   18CHTO   C59 7408   5.981   8.578   0.522 -0.4551  0.3543  0.1455
   18CHTO  H116 7409   5.968   8.669   0.464  1.1544  0.8257  0.5074
   18CHTO   C70 7410   6.054   8.482   0.429 -0.1895 -1.0218  0.6711
   18CHTO   O46 7411   6.142   8.382   0.491 -0.2841 -0.1181 -0.1184
   18CHTO  H103 7412   6.105   8.313   0.543 -1.1630  0.7602  0.4497
   18CHTO   O39 7413   6.128   8.664   0.862 -0.9233 -0.6682 -0.3175
   18CHTO   C60 7414   6.194   8.541   0.868 -0.8204  0.2351 -0.3827
   18CHTO  H117 7415   6.119   8.470   0.833 -1.3808 -0.0222  1.2777
   18CHTO   C62 7416   6.322   8.555   0.783  0.2987  0.2753 -0.3157
   18CHTO  H119 7417   6.288   8.602   0.688 -0.7079 -1.8822 -1.0433
   18CHTO   O43 7418   6.411   8.643   0.852  0.1185 -0.1197 -0.6995
   18CHTO  H101 7419   6.392   8.671   0.940  3.9702 -1.0306  0.5560
   18CHTO   C66 7420   6.374   8.409   0.757 -0.1092  0.0320 -0.1459
   18CHTO  H123 7421   6.294   8.352   0.711  0.1943 -2.0218  1.8016
   18CHTO   N12 7422   6.489   8.405   0.669  0.1031  1.0096 -0.1826
   18CHTO  H110 7423   6.532   8.306   0.671 -1.8081  0.2195  2.0331
   18CHTO  H111 7424   6.454   8.427   0.569 -0.2472 -1.6797 -0.6778
   18CHTO   C69 7425   6.402   8.348   0.899  0.1416 -0.4937  0.2555
   18CHTO  H126 7426   6.491   8.403   0.938  0.2355  0.3702 -1.1284
   18CHTO   O41 7427   6.290   8.367   1.004  0.2468 -0.0598  0.2916
   18CHTO   C64 7428   6.223   8.503   1.017 -0.1888  0.6876 -0.8083
   18CHTO  H121 7429   6.296   8.564   1.075  0.2970  0.1406 -0.8487
   18CHTO   C71 7430   6.106   8.488   1.104  0.0058 -0.4821  0.1496
   18CHTO   O47 7431   6.019   8.596   1.109 -0.2084 -0.6176  0.5976
   18CHTO  H104 7432   5.935   8.565   1.082  0.2392 -0.2008 -1.3048
   18CHTO   O34 7433   6.433   8.191   0.890  0.1651 -0.6606 -0.2948
   18CHTO   C49 7434   6.419   8.038   0.868 -0.0548 -0.1377  0.0254
   18CHTO   H91 7435   6.507   7.986   0.906 -0.5730  0.4814  2.1414
   18CHTO   C47 7436   6.408   8.011   0.717  0.1378 -0.5245 -0.6927
   18CHTO   H89 7437   6.432   7.904   0.701  0.0585 -0.4082 -1.5982
   18CHTO   O33 7438   6.507   8.085   0.647  0.1208  0.0746 -0.6791
   18CHTO   H70 7439   6.592   8.071   0.685  0.8599 -2.7134 -3.1641
   18CHTO   C45 7440   6.261   8.048   0.656 -0.5910 -0.2137  0.2734
   18CHTO   H87 7441   6.278   8.139   0.597 -1.0348 -1.5397 -1.9617
   18CHTO    N8 7442   6.217   7.944   0.560 -0.1514  0.6183 -0.2165
   18CHTO   H75 7443   6.295   7.921   0.489 -0.2111  3.1665 -1.1549
   18CHTO   H76 7444   6.181   7.855   0.609 -0.3604  0.8506  0.0602
   18CHTO   C43 7445   6.156   8.078   0.773 -0.1779 -0.5099  0.4000
   18CHTO   H85 7446   6.182   8.175   0.815 -1.6308 -0.4927  1.2895
   18CHTO   O29 7447   6.164   7.978   0.871 -0.1065  0.4085  0.2055
   18CHTO   C50 7448   6.293   7.986   0.940 -0.4830 -1.0780  0.1089
   18CHTO   H92 7449   6.277   8.054   1.024  0.1693 -0.8168  0.0230
   18CHTO   C54 7450   6.300   7.848   1.003 -0.0662 -0.2215 -0.4108
   18CHTO   O36 7451   6.274   7.730   0.926  0.2399  0.1736 -0.2755
   18CHTO   H72 7452   6.321   7.664   0.973 -1.7528 -1.3365 -0.3329
   18CHTO   O27 7453   6.025   8.096   0.730 -0.7537  0.2000  0.3122
   18CHTO   C37 7454   5.896   8.083   0.786  1.1066  0.0487 -1.0234
   18CHTO   H79 7455   5.889   7.997   0.854 -0.6534  0.5540 -0.5381
   18CHTO   C38 7456   5.864   8.211   0.871  0.6055  0.0032 -0.7351
   18CHTO   H80 7457   5.883   8.302   0.812  1.3735 -1.3961 -2.6812
   18CHTO   O31 7458   5.962   8.211   0.977  0.0950 -0.1323  0.3148
   18CHTO   H68 7459   6.030   8.271   0.954 -2.2779  3.0147  1.2260
   18CHTO   C39 7460   5.723   8.210   0.940 -0.1312 -0.8441  0.2337
   18CHTO   H81 7461   5.723   8.120   1.000 -1.3561 -0.5512  0.6841
   18CHTO    N7 7462   5.697   8.330   1.025  0.5220  0.0657  0.2437
   18CHTO   H73 7463   5.765   8.324   1.109  1.7711 -0.2553 -0.7765
   18CHTO   H74 7464   5.711   8.422   0.971  0.8447  0.0108  0.2304
   18CHTO   C40 7465   5.616   8.192   0.824 -0.1172  0.3430 -0.2612
   18CHTO   H82 7466   5.610   8.281   0.761  3.1381 -0.0691 -1.2255
   18CHTO   O26 7467   5.649   8.076   0.745 -0.0915 -0.1724  0.0635
   18CHTO   C41 7468   5.782   8.067   0.686  0.4162  0.4873  0.1223
   18CHTO   H83 7469   5.777   8.151   0.616  2.1366  0.8880  0.4433
   18CHTO   C52 7470   5.794   7.944   0.589 -0.1930  0.0581 -0.6107
   18CHTO   O35 7471   5.695   7.945   0.484 -0.2592 -0.2617 -0.1928
   18CHTO   H71 7472   5.615   7.903   0.508 -0.6748  1.2443  1.0807
   18CHTO   O28 7473   5.481   8.164   0.864  0.2793  0.6086  0.3510
   18CHTO   C42 7474   5.364   8.149   0.775  0.1034  0.2551 -0.1370
   18CHTO   H84 7475   5.278   8.157   0.842  1.0220 -1.7983  1.3283
   18CHTO   C44 7476   5.356   8.007   0.715 -0.0074  1.4003 -0.3763
   18CHTO   H86 7477   5.447   7.988   0.659 -0.0335 -5.4583  1.5144
   18CHTO   O32 7478   5.351   7.908   0.817  0.4681 -0.2057  0.1714
   18CHTO   H69 7479   5.414   7.917   0.886 -1.4516 -1.5339  2.1829
   18CHTO   C48 7480   5.235   7.990   0.614  0.4434  0.5565  0.3585
   18CHTO   H90 7481   5.151   7.999   0.682 -1.1699  1.7303 -1.7577
   18CHTO    N9 7482   5.220   7.846   0.562  0.5441  0.2139 -0.4174
   18CHTO   H77 7483   5.282   7.834   0.474  1.0617 -2.7404  0.3129
   18CHTO   H78 7484   5.122   7.804   0.547  0.9932 -0.9069 -0.2700
   18CHTO   C51 7485   5.236   8.111   0.506 -0.5016 -0.1225 -0.2954
   18CHTO   H93 7486   5.324   8.102   0.442  0.4096 -0.9378  1.0312
   18CHTO   O30 7487   5.234   8.237   0.577 -0.9457  0.2038 -0.0250
   18CHTO   C46 7488   5.347   8.250   0.658  0.1488 -0.0545  0.5454
   18CHTO   H88 7489   5.444   8.258   0.608 -0.3249  0.7736 -0.2704
   18CHTO   C53 7490   5.325   8.382   0.727 -0.3572  0.0355 -0.6455
   18CHTO   O72 7491   5.301   8.487   0.637 -0.4964  0.3987 -0.5560
   18CHTO  H199 7492   5.366   8.554   0.648  0.4069 -0.6747  0.7364
   18CHTO   O22 7493   5.113   8.098   0.443  0.1741 -0.0043  0.2626
   18CHTO   C31 7494   5.095   8.123   0.299  0.8392 -0.7192 -0.5702
   18CHTO   H59 7495   4.986   8.113   0.281  0.2357 -0.5803  2.7200
   18CHTO   C29 7496   5.130   8.268   0.253 -0.7410 -0.2777  0.2359
   18CHTO   H57 7497   5.223   8.288   0.309 -1.8678  1.1752  1.6310
   18CHTO   O21 7498   5.030   8.352   0.304 -0.1221 -0.2951  0.0678
   18CHTO   H37 7499   4.996   8.404   0.234 -0.1152 -1.9329 -1.1878
   18CHTO   C27 7500   5.153   8.284   0.099  0.6472  0.2510 -0.3544
   18CHTO   H55 7501   5.055   8.283   0.050 -0.3455 -0.1486  1.5693
   18CHTO    N5 7502   5.225   8.408   0.069 -0.3874 -0.0940  0.6494
   18CHTO   H43 7503   5.177   8.495   0.112 -1.4237  0.1830 -1.0554
   18CHTO   H44 7504   5.326   8.404   0.107  0.2152 -2.2929 -1.0995
   18CHTO   C25 7505   5.251   8.169   0.064 -0.0381  0.3593 -0.2413
   18CHTO   H53 7506   5.334   8.172   0.136 -0.5939  0.3795  0.4007
   18CHTO   O17 7507   5.165   8.052   0.080 -0.4878  0.0396 -0.0501
   18CHTO   C32 7508   5.166   8.010   0.216 -0.3672 -0.1381 -0.1450
   18CHTO   H60 7509   5.266   7.994   0.256  0.4757  1.0193 -1.7113
   18CHTO   C36 7510   5.097   7.880   0.222  0.5299  0.1408  0.7268
   18CHTO   O25 7511   5.162   7.771   0.149  0.1007 -0.1959  0.2717
   18CHTO   H40 7512   5.115   7.690   0.144  0.1948 -0.2325 -0.0415
   18CHTO   O15 7513   5.303   8.168  -0.089  0.6280  0.7586 -0.2130
   18CHTO   C19 7514   5.399   8.086  -0.175  0.3027  0.0800 -0.0779
   18CHTO   H47 7515   5.352   7.986  -0.180  1.3105 -0.3825 -0.4973
   18CHTO   C20 7516   5.431   8.157  -0.309  0.5081 -0.2676 -0.3545
   18CHTO   H48 7517   5.455   8.263  -0.295 -1.7949  0.1412  0.6847
   18CHTO   O19 7518   5.306   8.163  -0.378 -0.1688  0.0130  0.1971
   18CHTO   H35 7519   5.238   8.223  -0.352 -1.4336 -0.9898 -0.6997
   18CHTO   C21 7520   5.543   8.081  -0.386 -0.5983 -0.1534 -0.7589
   18CHTO   H49 7521   5.507   7.982  -0.413 -0.1506 -1.2523  2.4072
   18CHTO    N4 7522   5.584   8.151  -0.509 -0.1599  0.1161  0.3366
   18CHTO   H41 7523   5.511   8.225  -0.541  0.7184 -0.4739 -3.2905
   18CHTO   H42 7524   5.582   8.073  -0.584  0.9597 -0.0368  0.4591
   18CHTO   C22 7525   5.673   8.060  -0.299  0.0201  0.3255  0.2797
   18CHTO   H50 7526   5.715   8.159  -0.285 -1.2581  1.2543 -2.2205
   18CHTO   O14 7527   5.642   7.997  -0.180 -0.7317 -0.4457  0.2808
   18CHTO   C23 7528   5.538   8.061  -0.098  0.5429  0.3982  0.0341
   18CHTO   H51 7529   5.579   8.154  -0.056  0.5557 -0.1798  1.3312
   18CHTO   C34 7530   5.517   7.964   0.024 -0.7252  0.4008  0.2014
   18CHTO   O23 7531   5.629   7.938   0.102 -0.0457 -0.0410 -0.2414
   18CHTO   H38 7532   5.607   7.961   0.190 -0.5283 -1.8322  0.1399
   18CHTO   O16 7533   5.769   7.973  -0.361 -0.0344  0.3530 -0.2818
   18CHTO   C24 7534   5.919   8.001  -0.300 -0.4476 -0.3107 -0.3680
   18CHTO   H52 7535   5.914   8.050  -0.203 -1.8119 -1.3972  0.1216
   18CHTO   C26 7536   6.009   8.084  -0.399  0.3848  0.2370  0.7485
   18CHTO   H54 7537   6.005   8.019  -0.489  1.9640 -0.3674  1.0960
   18CHTO   O20 7538   5.943   8.208  -0.437  0.5771  0.3250 -0.0793
   18CHTO   H36 7539   5.864   8.221  -0.389 -0.1664 -1.8884 -0.6435
   18CHTO   C30 7540   6.161   8.097  -0.363 -1.2027 -0.5338  0.7239
   18CHTO   H58 7541   6.167   8.181  -0.292 -2.0081 -1.2427  1.6376
   18CHTO    N6 7542   6.252   8.139  -0.478  0.7306  0.1798  0.1937
   18CHTO   H45 7543   6.218   8.231  -0.523 -0.3966 -1.3412 -2.2130
   18CHTO   H46 7544   6.351   8.153  -0.438  0.7206  2.2543 -0.4482
   18CHTO   C33 7545   6.211   7.969  -0.290 -0.0646  0.0669 -0.2996
   18CHTO   H61 7546   6.268   7.904  -0.357 -0.8698  0.2886 -1.2102
   18CHTO   O18 7547   6.115   7.884  -0.224 -0.2200 -0.3099 -0.3937
   18CHTO   C28 7548   5.989   7.864  -0.287 -0.5494  0.0227  0.0190
   18CHTO   H56 7549   5.999   7.822  -0.387 -0.9300 -1.6695  0.6786
   18CHTO   C35 7550   5.911   7.763  -0.198  0.4144 -0.1173  0.1622
   18CHTO   O24 7551   5.787   7.723  -0.246 -0.2303 -0.4388  0.4058
   18CHTO   H39 7552   5.750   7.659  -0.188  1.4368 -1.3159  0.5309
   18CHTO    O9 7553   6.317   8.016  -0.196 -0.1133 -0.6570 -1.1442
   18CHTO   C13 7554   6.451   7.934  -0.169 -0.6205 -0.1508 -0.0297
   18CHTO   H26 7555   6.521   7.952  -0.253 -0.5019  0.4629  0.1981
   18CHTO   C11 7556   6.417   7.784  -0.149 -0.0041  0.0505 -0.0102
   18CHTO   H24 7557   6.360   7.746  -0.235 -0.9023  2.2622 -0.4029
   18CHTO    O8 7558   6.325   7.786  -0.041  0.2852  0.1305 -0.0058
   18CHTO    H3 7559   6.282   7.705  -0.018 -2.0306  1.9942  2.5361
   18CHTO    C9 7560   6.549   7.706  -0.133 -0.3506  0.4581  0.1075
   18CHTO   H22 7561   6.608   7.724  -0.224 -0.2794  0.8177  0.2245
   18CHTO    N2 7562   6.535   7.560  -0.131 -0.1024 -0.3394  0.4965
   18CHTO   H10 7563   6.481   7.530  -0.042 -0.1300 -0.1410  0.5455
   18CHTO   H11 7564   6.494   7.511  -0.218  1.9189 -1.4204  0.1185
   18CHTO    C7 7565   6.628   7.755  -0.008 -0.3220  0.7038 -0.8970
   18CHTO   H20 7566   6.731   7.727  -0.040  0.1010  1.8836 -0.5927
   18CHTO    O4 7567   6.617   7.896   0.016  0.1699  0.7319 -0.2594
   18CHTO   C14 7568   6.535   7.993  -0.044  0.1780 -0.7062 -0.4326
   18CHTO   H27 7569   6.597   8.077  -0.082  0.7695  0.0564  2.1456
   18CHTO   C18 7570   6.438   8.063   0.055 -0.3864  0.0699  0.0804
   18CHTO   O13 7571   6.524   8.121   0.155 -0.3188 -0.0599  0.8019
   18CHTO    H7 7572   6.498   8.112   0.245  0.3476 -0.2850  0.9790
   18CHTO    O2 7573   6.600   7.681   0.128  0.1236  0.4875  0.3370
   18CHTO    C1 7574   6.703   7.691   0.231 -0.0738  0.3046 -0.3127
   18CHTO   H14 7575   6.753   7.790   0.218 -0.6501  0.5584 -0.6293
   18CHTO    C2 7576   6.810   7.575   0.228  0.2973 -0.1538  0.2328
   18CHTO   H15 7577   6.749   7.484   0.220 -1.2357  0.7601  1.2457
   18CHTO    O6 7578   6.884   7.596   0.104  0.1247  0.3261 -0.9619
   18CHTO    H1 7579   6.966   7.555   0.126 -0.7130  0.0853  1.9544
   18CHTO    C3 7580   6.905   7.574   0.353  0.8339  0.2885  0.2550
   18CHTO   H16 7581   6.968   7.664   0.354  1.7635 -0.3405 -0.9722
   18CHTO    N1 7582   6.999   7.457   0.345  0.2520  0.1943  0.2002
   18CHTO    H8 7583   6.966   7.377   0.410  0.0084 -1.2671 -1.6749
   18CHTO    H9 7584   6.992   7.408   0.249 -1.4565  1.0425 -0.1341
   18CHTO    C4 7585   6.820   7.581   0.483 -0.1041 -0.3017 -0.3197
   18CHTO   H17 7586   6.768   7.485   0.493  0.0221 -0.7104 -3.0216
   18CHTO    O1 7587   6.723   7.696   0.491 -0.1704  0.6186 -0.1000
   18CHTO    C5 7588   6.634   7.700   0.371 -0.5028 -0.1683  0.5146
   18CHTO   H18 7589   6.576   7.608   0.381  0.1850 -0.7549 -0.7795
   18CHTO   C16 7590   6.546   7.826   0.390 -0.3912 -0.6340  0.4129
   18CHTO   O11 7591   6.431   7.829   0.302  0.1801  0.1511 -0.2130
   18CHTO    H5 7592   6.371   7.894   0.332 -0.1187  0.8059 -2.1872
   18CHTO    O3 7593   6.908   7.604   0.594 -0.7934  0.4420 -0.7569
   18CHTO    C6 7594   6.846   7.582   0.727 -0.6057  0.3691  0.2686
   18CHTO   H19 7595   6.738   7.585   0.718 -0.7334 -3.5177 -0.2453
   18CHTO    C8 7596   6.882   7.440   0.789 -0.3127  0.2422 -0.2514
   18CHTO   H21 7597   6.991   7.432   0.799 -0.3127  1.2258  0.5635
   18CHTO    O7 7598   6.816   7.346   0.700  0.5894  0.4904 -0.5013
   18CHTO    H2 7599   6.839   7.261   0.732 -0.5459  0.8070  1.2278
   18CHTO   C12 7600   6.824   7.426   0.939  0.2463 -0.7874 -0.6344
   18CHTO   H25 7601   6.714   7.426   0.924  0.1170 -2.4480  0.2988
   18CHTO    N3 7602   6.873   7.302   1.008  0.0129  0.2456 -0.6478
   18CHTO   H12 7603   6.979   7.297   0.987  0.1025  0.5528 -0.2822
   18CHTO   H13 7604   6.855   7.298   1.114  0.4214  2.2542 -0.4717
   18CHTO   C15 7605   6.858   7.561   1.024 -0.1135  0.1254 -0.3433
   18CHTO   H28 7606   6.959   7.554   1.064  0.2403  0.5230 -1.1649
   18CHTO   O10 7607   6.761   7.577   1.129 -0.0697 -0.3038 -0.6050
   18CHTO    H4 7608   6.673   7.597   1.104  0.2573  3.6335  1.0080
   18CHTO    O5 7609   6.827   7.683   0.959  0.5718 -0.1953 -0.4446
   18CHTO   C10 7610   6.890   7.690   0.826 -0.3266 -0.1465 -0.1128
   18CHTO   H23 7611   6.998   7.690   0.844 -0.4324 -0.5082  0.5318
   18CHTO   C17 7612   6.876   7.834   0.768  0.4966 -0.3899 -0.5548
   18CHTO   O12 7613   6.747   7.884   0.760  0.2342 -0.1047  0.5133
   18CHTO    H6 7614   6.728   7.953   0.820 -1.2721 -0.0156 -0.0542
   19CHTO  H203 7615   5.850   9.201   9.824  1.1475 -0.0012  0.2444
   19CHTO   O82 7616   5.863   9.108   9.816  0.0547 -0.0902 -0.6322
   19CHTO  C123 7617   5.784   9.055   9.708 -0.4404  0.6568  0.5619
   19CHTO  H227 7618   5.808   9.108   9.615  0.2481 -1.0141 -0.2409
   19CHTO   O77 7619   5.835   8.917   9.698  0.1482  0.1183  0.1698
   19CHTO  C118 7620   5.787   8.835   9.594 -0.4564  0.6050 -0.9365
   19CHTO  H222 7621   5.812   8.889   9.501 -0.5733  1.1903 -0.6300
   19CHTO  C125 7622   5.864   8.692   9.587 -0.2852  0.3697 -0.5785
   19CHTO   O84 7623   5.851   8.601   9.700  0.0062 -0.3496 -0.2208
   19CHTO  H205 7624   5.868   8.516   9.664  0.6502  0.6220 -2.2781
   19CHTO  C114 7625   5.634   8.813   9.608 -0.2384 -0.6866 -0.0808
   19CHTO  H218 7626   5.610   8.760   9.700 -1.2697 -0.6605 -0.3302
   19CHTO  C116 7627   5.567   8.957   9.619  0.3684  0.5239 -0.5829
   19CHTO  H220 7628   5.583   9.009   9.523  2.0592 -1.6435 -1.4960
   19CHTO   O79 7629   5.425   8.939   9.631  0.1828  0.3031 -0.0139
   19CHTO  H201 7630   5.398   8.876   9.567 -0.7460  0.6874 -0.0041
   19CHTO  C120 7631   5.627   9.048   9.733 -0.5025  1.2887 -0.6794
   19CHTO  H224 7632   5.605   9.007   9.834  1.6042  1.0000 -0.3085
   19CHTO   N21 7633   5.569   9.181   9.740 -0.2048 -0.0614 -0.0862
   19CHTO  H211 7634   5.556   9.215   9.842 -1.9114 -0.3438 -0.1889
   19CHTO  H212 7635   5.627   9.252   9.684  0.6941 -1.9133 -1.5573
   19CHTO   O75 7636   5.596   8.746   9.486  0.5007 -0.1321 -0.7549
   19CHTO  C112 7637   5.478   8.653   9.506  0.9303  0.5624  0.2480
   19CHTO  H216 7638   5.397   8.703   9.562  0.9904  0.8534  0.0760
   19CHTO   O73 7639   5.528   8.534   9.580  0.4807 -0.0028  0.2893
   19CHTO  C113 7640   5.440   8.424   9.599  0.4963  0.1561  0.4403
   19CHTO  H217 7641   5.352   8.466   9.652 -1.1973  0.3729 -2.4337
   19CHTO  C124 7642   5.523   8.320   9.675  0.6289  0.3435 -0.0573
   19CHTO   O83 7643   5.658   8.304   9.627 -0.0053 -0.6139  0.0739
   19CHTO  H204 7644   5.705   8.383   9.646  1.7530 -1.2518 -1.4745
   19CHTO  C109 7645   5.380   8.373   9.471 -0.1286  0.0850  0.4426
   19CHTO  H213 7646   5.460   8.329   9.410 -0.1671  1.9277 -0.9938
   19CHTO  C110 7647   5.310   8.489   9.393 -0.0230  0.4736 -0.0071
   19CHTO  H214 7648   5.240   8.532   9.463  2.0358  0.6849  1.9750
   19CHTO   O78 7649   5.250   8.437   9.274  0.4783 -0.2705  0.1196
   19CHTO  H200 7650   5.208   8.499   9.217  1.3563  0.3059  0.0875
   19CHTO  C111 7651   5.418   8.600   9.371  0.1484  0.0869 -0.2697
   19CHTO  H215 7652   5.495   8.555   9.307  0.1499 -1.1976  0.6288
   19CHTO   N19 7653   5.363   8.711   9.290  0.0299  0.0267  0.2378
   19CHTO  H207 7654   5.354   8.676   9.188  1.6136  1.0877 -0.2787
   19CHTO  H208 7655   5.275   8.759   9.331 -0.8749 -1.5065  0.1484
   19CHTO   O74 7656   5.290   8.263   9.501 -0.4155 -0.3034 -0.2921
   19CHTO  C115 7657   5.271   8.163   9.392  0.1736 -1.0060  0.1120
   19CHTO  H219 7658   5.229   8.214   9.305  2.8924 -1.3764 -1.4918
   19CHTO   O76 7659   5.425   8.098   9.333  0.3240  0.2608  0.0452
   19CHTO  C122 7660   5.460   7.997   9.425 -0.1724  0.1123 -0.2292
   19CHTO  H226 7661   5.472   8.042   9.523  0.0191 -0.9251  0.2375
   19CHTO  C126 7662   5.595   7.934   9.387  0.5259  0.1261  0.0690
   19CHTO   O85 7663   5.702   8.006   9.456  0.6284  0.6835 -0.0416
   19CHTO  H206 7664   5.770   7.944   9.475  0.1686  0.1507 -0.1219
   19CHTO  C121 7665   5.365   7.870   9.435  0.5194  0.0292  0.1868
   19CHTO  H225 7666   5.398   7.785   9.370  2.3692  0.4482  0.5554
   19CHTO   O81 7667   5.359   7.836   9.575  0.2218 -0.1336  0.5690
   19CHTO  H202 7668   5.328   7.911   9.622 -1.0567  0.5052 -1.2302
   19CHTO  C119 7669   5.225   7.905   9.387  0.5732  0.1632 -0.2252
   19CHTO  H223 7670   5.232   7.909   9.278  1.3213  0.8353 -0.1503
   19CHTO  C117 7671   5.179   8.049   9.445 -0.4784  1.1410  0.1916
   19CHTO  H221 7672   5.177   8.043   9.553 -1.3241 -4.0244  0.0285
   19CHTO   N20 7673   5.034   8.081   9.406  0.1297  0.1111  0.3750
   19CHTO  H209 7674   4.973   8.048   9.488  0.8857 -1.7836  0.2134
   19CHTO  H210 7675   5.017   8.187   9.395  1.3524  0.1673 -1.2528
   19CHTO   O80 7676   5.115   7.785   9.397 -0.1597  0.0985  0.4987
   19CHTO  C103 7677   5.138   7.655   9.324 -0.3733 -0.1450 -0.6001
   19CHTO  H190 7678   5.220   7.664   9.252 -0.1139  0.3805 -0.2436
   19CHTO  C101 7679   5.161   7.529   9.412  0.1393 -0.3958  0.3788
   19CHTO  H188 7680   5.076   7.514   9.479  0.1730  0.2129  0.5673
   19CHTO   O68 7681   5.283   7.556   9.498  0.5482  0.0535  0.1301
   19CHTO  H168 7682   5.355   7.579   9.441  0.9201 -0.3274  0.4392
   19CHTO   C99 7683   5.170   7.409   9.318  0.6517 -0.5411  0.3602
   19CHTO  H186 7684   5.249   7.417   9.240 -0.2083 -3.0416 -0.8138
   19CHTO   N17 7685   5.203   7.279   9.385 -0.9663  0.9018 -0.2776
   19CHTO  H174 7686   5.123   7.238   9.445  0.0013 -1.3272 -0.4424
   19CHTO  H175 7687   5.223   7.208   9.307 -2.9174  0.6388 -0.5583
   19CHTO   C97 7688   5.037   7.400   9.231 -0.8560  0.5458  1.1918
   19CHTO  H184 7689   4.946   7.376   9.287 -1.5592 -0.3952 -0.3099
   19CHTO   O64 7690   5.021   7.522   9.148 -0.0485  0.1164  0.8752
   19CHTO  C104 7691   5.006   7.631   9.235  0.2339 -0.0798 -0.0437
   19CHTO  H191 7692   4.923   7.618   9.305 -0.0484 -1.0437 -0.5584
   19CHTO  C108 7693   4.976   7.753   9.148  0.7552 -0.3618  0.1901
   19CHTO   O71 7694   5.078   7.758   9.043 -0.2030 -0.0249 -0.4065
   19CHTO  H171 7695   5.062   7.843   9.008  0.4450  0.6105  0.8321
   19CHTO   O62 7696   5.060   7.309   9.120 -0.3669 -0.3448 -0.6096
   19CHTO   C91 7697   4.981   7.195   9.109  0.2433 -0.5599  0.2313
   19CHTO  H178 7698   4.918   7.173   9.195 -0.8607  1.1652 -0.1159
   19CHTO   C92 7699   5.078   7.075   9.092 -0.8566 -0.6591 -0.0108
   19CHTO  H179 7700   5.170   7.081   9.153 -1.5660  0.3020  0.9932
   19CHTO   O66 7701   5.001   6.956   9.124 -0.5405 -0.2567 -0.7089
   19CHTO  H166 7702   5.065   6.890   9.145  1.6162  1.0961 -2.7143
   19CHTO   C93 7703   5.125   7.060   8.943  0.6380 -1.0507 -0.3486
   19CHTO  H180 7704   5.172   6.960   8.936  3.2729  0.1718 -0.6849
   19CHTO   N16 7705   5.237   7.148   8.903  0.1479 -0.1074 -0.0037
   19CHTO  H172 7706   5.313   7.126   8.977 -0.5834 -2.8905 -0.0488
   19CHTO  H173 7707   5.221   7.255   8.906  2.2142  0.2123  0.1760
   19CHTO   C94 7708   5.005   7.069   8.850  0.6952  0.1695 -0.0686
   19CHTO  H181 7709   5.013   7.153   8.781  0.6852 -1.2865 -1.8707
   19CHTO   O61 7710   4.878   7.100   8.916  0.2273  0.2373 -0.3613
   19CHTO   C95 7711   4.874   7.215   8.994 -0.4500 -0.2142 -0.2427
   19CHTO  H182 7712   4.892   7.306   8.937 -0.4836  1.2499  2.0271
   19CHTO  C106 7713   4.732   7.228   9.057 -0.2704  0.5387  0.3285
   19CHTO   O69 7714   4.706   7.360   9.118 -0.4270 -0.4230  0.7868
   19CHTO  H169 7715   4.733   7.359   9.208 -0.9923  1.9468  1.0031
   19CHTO   O63 7716   4.982   6.949   8.762 -0.4068  0.5138 -0.5910
   19CHTO   C96 7717   5.096   6.914   8.659  0.3699  0.3137 -0.6931
   19CHTO  H183 7718   5.188   6.903   8.716 -0.6081  0.9592  1.0284
   19CHTO   C98 7719   5.125   7.021   8.555 -0.3619 -0.5765  0.2051
   19CHTO  H185 7720   5.128   7.121   8.602  0.2743 -0.7965  0.6383
   19CHTO   O67 7721   5.255   7.002   8.504 -0.3093 -0.0980  0.0255
   19CHTO  H167 7722   5.249   6.961   8.420 -1.5378 -0.6333  0.3765
   19CHTO  C102 7723   5.014   7.015   8.430  0.0296  0.8584 -0.7106
   19CHTO  H189 7724   5.058   7.066   8.343  1.4458 -1.3607 -1.3383
   19CHTO   N18 7725   4.885   7.077   8.458  0.1640  0.4164  0.2955
   19CHTO  H176 7726   4.879   7.101   8.564  0.8025 -0.6791  0.5873
   19CHTO  H177 7727   4.896   7.172   8.408 -2.7310  1.4811  1.5280
   19CHTO  C105 7728   5.003   6.867   8.379  0.5983  1.0539 -0.1894
   19CHTO  H192 7729   4.896   6.845   8.375  0.5580  1.1984  0.0990
   19CHTO   O65 7730   5.070   6.763   8.457 -0.3921  0.0326 -0.6373
   19CHTO  C100 7731   5.063   6.770   8.601 -0.2903  1.0714  0.0902
   19CHTO  H187 7732   4.961   6.743   8.631  0.0860 -1.4531 -0.8094
   19CHTO  C107 7733   5.147   6.663   8.665 -0.3449  0.3780 -0.3932
   19CHTO   O70 7734   5.112   6.529   8.631 -0.2015 -0.3060 -0.7163
   19CHTO  H170 7735   5.186   6.489   8.591 -0.6156 -1.1014 -0.6927
   19CHTO   O57 7736   5.059   6.870   8.210  0.3490 -0.1858  0.6749
   19CHTO   C85 7737   4.980   6.825   8.104 -0.4245  0.0449  0.4838
   19CHTO  H157 7738   4.891   6.771   8.141 -0.9079 -0.0013 -0.7263
   19CHTO   C83 7739   5.065   6.715   8.028 -0.0545 -0.1387  0.8736
   19CHTO  H155 7740   5.092   6.629   8.089  1.3928 -1.2702 -1.3035
   19CHTO   O56 7741   5.188   6.784   7.994  0.2062 -0.1360 -0.1942
   19CHTO  H135 7742   5.176   6.833   7.914 -0.2706 -0.1350 -0.1251
   19CHTO   C81 7743   4.987   6.663   7.904 -0.9732  0.4915 -0.6854
   19CHTO  H153 7744   4.896   6.617   7.941  0.9592 -1.4982  1.7391
   19CHTO   N14 7745   5.065   6.558   7.835 -0.0754 -0.4022 -0.0714
   19CHTO  H141 7746   5.011   6.467   7.816 -1.5642  0.5215 -0.4129
   19CHTO  H142 7747   5.160   6.528   7.874 -1.4422 -1.5063  2.5188
   19CHTO   C79 7748   4.947   6.788   7.805 -0.3709 -0.2286  0.0232
   19CHTO  H151 7749   4.872   6.747   7.737 -0.5044 -2.2802  1.3675
   19CHTO   O52 7750   4.872   6.889   7.872  0.6471  0.3944  0.2609
   19CHTO   C86 7751   4.942   6.940   7.995  0.4124  0.4412 -0.0812
   19CHTO  H158 7752   5.037   6.982   7.956 -0.2798  3.2274  1.1439
   19CHTO   C90 7753   4.868   7.063   8.059 -0.2093 -0.0409  0.0795
   19CHTO   O60 7754   4.866   7.168   7.962 -0.1684  0.0025 -0.3558
   19CHTO  H138 7755   4.923   7.238   7.988 -0.6872  0.5699 -0.7442
   19CHTO   O50 7756   5.055   6.849   7.739 -0.5039  0.0599 -0.6218
   19CHTO   C73 7757   5.134   6.889   7.627  0.1554  0.2612 -0.1976
   19CHTO  H145 7758   5.120   6.816   7.545  2.4441  1.6867 -1.9171
   19CHTO   C74 7759   5.283   6.910   7.671 -0.2371  0.2932  0.0821
   19CHTO  H146 7760   5.323   6.815   7.708 -1.5028 -0.3365 -0.1413
   19CHTO   O54 7761   5.362   6.935   7.547 -0.6709 -0.2231  0.4380
   19CHTO  H133 7762   5.318   6.997   7.493 -1.9969 -0.9362  0.6825
   19CHTO   C75 7763   5.287   7.024   7.779 -0.0555 -0.2190  0.6890
   19CHTO  H147 7764   5.223   6.994   7.864  1.3132 -2.5496  0.9451
   19CHTO   N13 7765   5.422   7.057   7.835  0.2332  0.3858 -0.0881
   19CHTO  H139 7766   5.492   6.981   7.804 -0.6507 -0.2727 -0.4811
   19CHTO  H140 7767   5.434   7.073   7.941  1.1233 -1.2775  0.0639
   19CHTO   C76 7768   5.218   7.159   7.720  0.0289 -0.4533  0.3736
   19CHTO  H148 7769   5.274   7.208   7.641 -0.8300  0.0423  0.0654
   19CHTO   O49 7770   5.084   7.125   7.671 -0.3299  0.1160 -0.0938
   19CHTO   C77 7771   5.069   7.026   7.579 -0.2791 -0.1385 -0.0453
   19CHTO  H149 7772   5.117   7.064   7.488 -0.5178 -0.4088 -0.2846
   19CHTO   C88 7773   4.922   7.018   7.540 -0.6520  0.1977 -0.2151
   19CHTO   O58 7774   4.891   7.138   7.476 -0.4426 -0.8090 -0.3411
   19CHTO  H136 7775   4.814   7.139   7.423 -3.4924  0.7002  3.8536
   19CHTO   O51 7776   5.183   7.260   7.825  0.0759  0.3084  0.2352
   19CHTO   C78 7777   5.189   7.410   7.784  0.6698  0.3653 -0.0249
   19CHTO  H150 7778   5.224   7.408   7.679  4.7855 -1.4020  1.2646
   19CHTO   C80 7779   5.301   7.477   7.868  0.3805  0.1829  0.2431
   19CHTO  H152 7780   5.295   7.447   7.974  1.8613 -0.8109  0.0548
   19CHTO   O55 7781   5.422   7.422   7.823 -0.1878  0.0560  0.1100
   19CHTO  H134 7782   5.454   7.359   7.884 -1.1421 -1.0370 -0.4961
   19CHTO   C84 7783   5.296   7.635   7.847 -0.1053 -0.1583 -0.5771
   19CHTO  H156 7784   5.322   7.649   7.742  2.4216 -1.1855 -0.1167
   19CHTO   N15 7785   5.400   7.716   7.922  0.0214 -0.1791  0.6205
   19CHTO  H143 7786   5.435   7.651   7.999 -0.5019 -1.2499 -0.0458
   19CHTO  H144 7787   5.479   7.740   7.855  0.1534 -0.9204  0.5084
   19CHTO   C87 7788   5.152   7.678   7.878 -0.4003 -0.1084  0.2163
   19CHTO  H159 7789   5.122   7.664   7.982 -0.0539  1.0130  0.4742
   19CHTO   O53 7790   5.059   7.621   7.805  0.2496  0.0928  0.0082
   19CHTO   C82 7791   5.050   7.475   7.807 -0.2316  0.7692  0.3342
   19CHTO  H154 7792   5.015   7.436   7.903  0.6709  0.4854  0.5496
   19CHTO   C89 7793   4.946   7.436   7.696 -0.2236 -0.1398  0.5542
   19CHTO   O59 7794   4.810   7.482   7.729 -0.1409  0.2220 -0.3165
   19CHTO  H137 7795   4.762   7.446   7.657 -0.3316 -0.2464  0.0480
   19CHTO   O45 7796   5.143   7.850   7.859 -0.4243  0.4503 -0.2656
   19CHTO   C67 7797   5.011   7.907   7.886  0.2413  0.2334  0.5478
   19CHTO  H124 7798   4.935   7.836   7.854  0.1506  0.8422 -0.6190
   19CHTO   C65 7799   4.988   7.944   8.033  0.4571 -0.8726  0.8410
   19CHTO  H122 7800   5.085   7.972   8.074  1.4672 -1.9497 -0.7247
   19CHTO   O44 7801   4.958   7.817   8.092 -0.3979  0.1180  0.1871
   19CHTO  H102 7802   4.991   7.817   8.180 -2.0382  2.7059  0.8691
   19CHTO   C63 7803   4.878   8.059   8.044  0.6854  0.0927  0.3734
   19CHTO  H120 7804   4.936   8.152   8.038  0.1154  0.5439  1.6998
   19CHTO   N11 7805   4.806   8.077   8.180 -1.1206  0.1545 -0.0874
   19CHTO  H108 7806   4.865   8.026   8.253 -0.5927 -0.8182 -1.1728
   19CHTO  H109 7807   4.715   8.023   8.166 -1.4140  0.7075 -0.3221
   19CHTO   C61 7808   4.784   8.054   7.916  0.6005  0.1741  0.2139
   19CHTO  H118 7809   4.721   8.141   7.940  1.2352 -0.0889  3.0119
   19CHTO   O40 7810   4.845   8.072   7.791 -0.0173 -0.0734 -0.2216
   19CHTO   C68 7811   4.987   8.038   7.797 -0.7691 -0.1889  0.6230
   19CHTO  H125 7812   5.050   8.122   7.834 -1.2660  0.6394 -0.3845
   19CHTO   C72 7813   5.030   8.017   7.648  0.5056 -0.0630  0.1363
   19CHTO   O48 7814   5.137   8.102   7.600  0.2714 -0.1136 -0.3708
   19CHTO  H105 7815   5.153   8.175   7.657  0.3915 -0.8956  0.6120
   19CHTO   O38 7816   4.713   7.929   7.923 -1.2680 -0.1840  0.2735
   19CHTO   C55 7817   4.600   7.910   7.835  0.4285 -0.3344  0.2723
   19CHTO  H112 7818   4.583   8.005   7.782  0.9690 -0.3760  0.0202
   19CHTO   C56 7819   4.480   7.875   7.930  0.2479  0.3336  0.7570
   19CHTO  H113 7820   4.508   7.781   7.980 -1.7473 -1.2383 -0.9994
   19CHTO   O42 7821   4.466   7.979   8.033  0.2064 -0.1798  0.5056
   19CHTO  H100 7822   4.409   8.043   7.998  1.5517  1.0220  0.4633
   19CHTO   C57 7823   4.343   7.851   7.841  0.4625 -0.5404  0.1452
   19CHTO  H114 7824   4.331   7.940   7.780  1.1629 -0.9978 -0.6725
   19CHTO   N10 7825   4.231   7.819   7.925  0.2242 -0.1650 -0.9428
   19CHTO  H106 7826   4.176   7.911   7.937  0.1014 -0.2743 -0.6573
   19CHTO  H107 7827   4.162   7.749   7.880  0.5688  0.0048 -1.7305
   19CHTO   C58 7828   4.374   7.739   7.736 -0.2440  0.1272  0.3624
   19CHTO  H115 7829   4.397   7.643   7.787 -1.0487 -0.7727 -0.9510
   19CHTO   O37 7830   4.489   7.773   7.656 -0.4340 -0.9167  0.2823
   19CHTO   C59 7831   4.614   7.790   7.730 -0.4915  0.3552 -0.3538
   19CHTO  H116 7832   4.635   7.703   7.792 -1.4294 -0.7666 -1.5916
   19CHTO   C70 7833   4.723   7.801   7.620 -0.5842 -0.5442  0.3213
   19CHTO   O46 7834   4.702   7.901   7.518  0.6077  0.3693 -0.6545
   19CHTO  H103 7835   4.697   7.982   7.564  1.7179  0.1890 -0.2050
   19CHTO   O39 7836   4.232   7.724   7.638  0.1257  0.0010 -0.6376
   19CHTO   C60 7837   4.235   7.618   7.538 -0.6732  0.0576  0.3864
   19CHTO  H117 7838   4.324   7.629   7.476 -1.3463 -1.8481 -0.9738
   19CHTO   C62 7839   4.237   7.471   7.588  0.0496  0.1240  0.5163
   19CHTO  H119 7840   4.329   7.461   7.649  0.2817 -1.0043 -0.0074
   19CHTO   O43 7841   4.132   7.456   7.687 -0.3751 -0.7634 -0.3754
   19CHTO  H101 7842   4.156   7.388   7.746 -0.8510 -0.7272 -0.1338
   19CHTO   C66 7843   4.227   7.365   7.478 -0.1000 -0.3191  0.9384
   19CHTO  H123 7844   4.314   7.373   7.413 -0.9163 -1.1963 -0.2800
   19CHTO   N12 7845   4.234   7.233   7.538  0.9020 -0.4652 -0.1570
   19CHTO  H110 7846   4.203   7.168   7.457  0.1393 -1.9148  1.2569
   19CHTO  H111 7847   4.329   7.214   7.585 -0.3022 -0.4684  2.3565
   19CHTO   C69 7848   4.094   7.405   7.410 -0.1158  0.0106  0.1886
   19CHTO  H126 7849   4.023   7.409   7.495 -0.3255 -1.7619  0.1230
   19CHTO   O41 7850   4.110   7.542   7.346  0.4337  0.2965  0.0884
   19CHTO   C64 7851   4.109   7.638   7.444 -0.1925 -0.6343 -0.4430
   19CHTO  H121 7852   4.014   7.633   7.501  1.1046 -0.0045  1.8610
   19CHTO   C71 7853   4.115   7.781   7.374 -0.0850  0.4239  0.4872
   19CHTO   O47 7854   4.231   7.812   7.294 -0.4451  0.7714 -0.2905
   19CHTO  H104 7855   4.267   7.897   7.313  1.1533 -0.1394  0.9032
   19CHTO   O34 7856   4.049   7.305   7.305  0.2098  0.0791 -0.6540
   19CHTO   C49 7857   4.013   7.275   7.156  0.4157  0.6753  0.4934
   19CHTO   H91 7858   3.915   7.318   7.135  0.5035  1.1164  0.9653
   19CHTO   C47 7859   4.005   7.127   7.154 -0.1091  0.7504 -0.2731
   19CHTO   H89 7860   3.950   7.102   7.061  0.4917  1.5790 -0.8559
   19CHTO   O33 7861   3.919   7.086   7.260 -0.2069  0.2981 -0.3402
   19CHTO   H70 7862   3.954   7.005   7.293  2.0407  1.8584  1.3143
   19CHTO   C45 7863   4.151   7.060   7.157  0.7400  0.9857 -0.4572
   19CHTO   H87 7864   4.190   7.061   7.260 -0.7334  2.1387  0.0949
   19CHTO    N8 7865   4.143   6.920   7.113  0.5295 -0.3161 -0.2400
   19CHTO   H75 7866   4.204   6.906   7.025  1.8797  0.8119  0.4916
   19CHTO   H76 7867   4.167   6.846   7.188 -0.8668 -0.3996  0.1411
   19CHTO   C43 7868   4.262   7.150   7.082  0.3418  0.8253 -0.5526
   19CHTO   H85 7869   4.298   7.208   7.167  1.7172  0.3014 -0.7598
   19CHTO   O29 7870   4.196   7.233   6.985 -0.3371 -0.3071  0.4338
   19CHTO   C50 7871   4.114   7.333   7.053 -0.1832 -0.6222  0.0113
   19CHTO   H92 7872   4.177   7.403   7.111  2.0699 -1.0862 -1.7914
   19CHTO   C54 7873   4.053   7.428   6.947  0.1034  0.3052 -0.2440
   19CHTO   O36 7874   4.157   7.485   6.873 -0.0606  0.0433  0.3686
   19CHTO   H72 7875   4.200   7.416   6.825 -0.4453 -0.3615  0.5961
   19CHTO   O27 7876   4.380   7.082   7.033 -0.3895 -0.5844 -0.3247
   19CHTO   C37 7877   4.514   7.141   7.027  0.0275  0.2150 -0.2440
   19CHTO   H79 7878   4.579   7.074   6.970 -0.1407  1.6819 -2.2422
   19CHTO   C38 7879   4.530   7.274   6.952  0.0969 -0.1979 -0.3128
   19CHTO   H80 7880   4.471   7.354   6.999  2.1015  1.3901 -0.4430
   19CHTO   O31 7881   4.483   7.251   6.818  0.1644  0.6354 -0.1671
   19CHTO   H68 7882   4.392   7.230   6.825  0.1112  0.4832 -1.2161
   19CHTO   C39 7883   4.679   7.324   6.950  0.4521  0.6839 -0.1283
   19CHTO   H81 7884   4.738   7.254   6.891 -0.0474  0.7874 -0.7549
   19CHTO    N7 7885   4.700   7.459   6.898 -0.9296 -0.0510 -0.4919
   19CHTO   H73 7886   4.802   7.493   6.908 -1.6232  1.9521  0.0593
   19CHTO   H74 7887   4.634   7.524   6.953  0.0687  0.1749  0.4677
   19CHTO   C40 7888   4.735   7.311   7.097 -0.0850  0.2508 -0.3873
   19CHTO   H82 7889   4.691   7.394   7.153  1.1634 -0.4028  1.6437
   19CHTO   O26 7890   4.709   7.189   7.161  0.3038  0.0262  0.1342
   19CHTO   C41 7891   4.561   7.151   7.165  0.3361 -0.0925  0.1116
   19CHTO   H83 7892   4.504   7.214   7.235 -0.4578 -0.8554  0.1688
   19CHTO   C52 7893   4.559   7.017   7.246 -0.3133  0.3625  0.4255
   19CHTO   O35 7894   4.621   6.900   7.186  0.8143 -0.3728 -0.3752
   19CHTO   H71 7895   4.626   6.827   7.244 -3.2793  1.0086  1.9046
   19CHTO   O28 7896   4.880   7.307   7.088 -0.1163  0.0650  0.0486
   19CHTO   C42 7897   4.968   7.349   7.202  0.4157  0.4807  0.1032
   19CHTO   H84 7898   4.930   7.298   7.290  1.1285 -1.4845 -0.6845
   19CHTO   C44 7899   4.982   7.502   7.236  0.0619  0.4972 -0.6175
   19CHTO   H86 7900   5.026   7.553   7.151 -0.0982  1.4153 -0.1614
   19CHTO   O32 7901   4.853   7.558   7.265  0.3301  0.2181  0.1309
   19CHTO   H69 7902   4.862   7.606   7.345 -0.9045  0.7304 -0.0374
   19CHTO   C48 7903   5.079   7.533   7.357  0.0116 -0.2645 -0.9820
   19CHTO   H90 7904   5.035   7.486   7.445  0.8927  0.3765 -0.1863
   19CHTO    N9 7905   5.098   7.680   7.387  0.0940 -0.4006  0.2092
   19CHTO   H77 7906   5.174   7.714   7.318  1.1463 -0.7512  1.1939
   19CHTO   H78 7907   5.007   7.738   7.380  1.2850  1.5388  0.5786
   19CHTO   C51 7908   5.213   7.457   7.325  0.5136 -0.4262 -0.3464
   19CHTO   H93 7909   5.252   7.507   7.236  0.7322  0.2311  0.1149
   19CHTO   O30 7910   5.181   7.322   7.302  0.0322  0.5201  0.8406
   19CHTO   C46 7911   5.114   7.292   7.187  0.2212  0.2122 -0.3803
   19CHTO   H88 7912   5.170   7.339   7.106  0.6290  2.3776  1.0907
   19CHTO   C53 7913   5.108   7.143   7.169 -0.2160  0.6210  0.0902
   19CHTO   O72 7914   5.236   7.078   7.158  0.0064  0.8583 -0.0956
   19CHTO  H199 7915   5.294   7.101   7.088  1.5653 -0.1058  0.8324
   19CHTO   O22 7916   5.309   7.452   7.430 -0.0120  0.0225  0.3030
   19CHTO   C31 7917   5.446   7.497   7.407  0.1203  0.3329 -0.6117
   19CHTO   H59 7918   5.457   7.549   7.309 -3.3040 -0.4471 -1.4818
   19CHTO   C29 7919   5.500   7.598   7.509 -0.4076 -0.1729 -0.4217
   19CHTO   H57 7920   5.490   7.545   7.605  0.8166  0.1859 -0.0940
   19CHTO   O21 7921   5.406   7.704   7.507  0.1590  0.0436  0.7412
   19CHTO   H37 7922   5.397   7.736   7.595 -1.6190 -0.7154  0.8533
   19CHTO   C27 7923   5.650   7.648   7.489 -1.1483  0.2543 -0.1062
   19CHTO   H55 7924   5.656   7.719   7.405 -0.1743  1.6506  1.1055
   19CHTO    N5 7925   5.706   7.721   7.601  0.2970  0.0369  0.9576
   19CHTO   H43 7926   5.681   7.826   7.596  0.6321  0.1437  1.4672
   19CHTO   H44 7927   5.812   7.707   7.616  0.2344  0.4805  1.8553
   19CHTO   C25 7928   5.743   7.524   7.442  0.0747  0.2323  0.2219
   19CHTO   H53 7929   5.772   7.461   7.527 -1.9608  0.5623  1.1925
   19CHTO   O17 7930   5.669   7.437   7.349  0.1920  0.6841 -0.1600
   19CHTO   C32 7931   5.549   7.380   7.408 -0.8071 -0.1402 -0.1909
   19CHTO   H60 7932   5.564   7.344   7.510 -0.8344 -0.5559 -0.3357
   19CHTO   C36 7933   5.520   7.277   7.305  0.0618 -0.4355  0.3131
   19CHTO   O25 7934   5.426   7.180   7.353  0.1975 -0.6209 -0.3456
   19CHTO   H40 7935   5.341   7.204   7.322  0.2864  0.9331  0.5333
   19CHTO   O15 7936   5.868   7.579   7.377  0.4222  0.1327 -0.0301
   19CHTO   C19 7937   6.016   7.551   7.394 -0.0864 -0.2568  1.3921
   19CHTO   H47 7938   6.058   7.604   7.308  0.7509  2.4579  3.3833
   19CHTO   C20 7939   6.080   7.601   7.520 -0.2321 -0.2966  0.3960
   19CHTO   H48 7940   6.030   7.564   7.611 -1.0022 -2.0452 -0.7247
   19CHTO   O19 7941   6.040   7.739   7.529 -0.4405  0.0334  0.8182
   19CHTO   H35 7942   6.057   7.780   7.612 -5.5990  0.6451  1.7256
   19CHTO   C21 7943   6.241   7.573   7.533  0.1199 -0.4558 -0.0754
   19CHTO   H49 7944   6.290   7.645   7.467 -2.0528 -1.1810 -2.5613
   19CHTO    N4 7945   6.302   7.606   7.665  0.1270  0.4102  0.5933
   19CHTO   H41 7946   6.409   7.605   7.655  0.0730  0.6718  0.0066
   19CHTO   H42 7947   6.271   7.534   7.740 -0.2940 -1.0800 -0.9771
   19CHTO   C22 7948   6.270   7.429   7.488 -0.6495  0.9328  0.3622
   19CHTO   H50 7949   6.248   7.365   7.573  0.9600  0.4358  0.4309
   19CHTO   O14 7950   6.196   7.389   7.369  0.1378  0.0500  0.3815
   19CHTO   C23 7951   6.048   7.399   7.384 -0.0365 -0.0300  0.1895
   19CHTO   H51 7952   6.018   7.344   7.474 -0.0858 -0.8480 -0.3194
   19CHTO   C34 7953   5.994   7.321   7.262 -0.2647 -0.0302 -0.6115
   19CHTO   O23 7954   6.034   7.184   7.264  0.2349 -0.5435  0.1478
   19CHTO   H38 7955   6.128   7.177   7.264  0.2444 -0.4524  0.8610
   19CHTO   O16 7956   6.415   7.414   7.456  0.5903  0.3205 -0.4547
   19CHTO   C24 7957   6.472   7.257   7.423  0.5670 -0.4761 -0.3660
   19CHTO   H52 7958   6.577   7.249   7.452  0.3430  1.2044  1.0144
   19CHTO   C26 7959   6.462   7.240   7.275  0.7123  0.8553 -0.1497
   19CHTO   H54 7960   6.357   7.250   7.242  0.8340  1.7385 -0.2724
   19CHTO   O20 7961   6.541   7.337   7.212 -0.2298  0.1353  0.3640
   19CHTO   H36 7962   6.571   7.313   7.126  0.6362 -0.3979  0.8105
   19CHTO   C30 7963   6.494   7.094   7.239 -0.3431 -0.0615 -1.3693
   19CHTO   H58 7964   6.602   7.081   7.253 -0.1805  1.2426 -1.3809
   19CHTO    N6 7965   6.472   7.075   7.097  0.4269 -0.4091 -0.0807
   19CHTO   H45 7966   6.379   7.122   7.067  1.2441 -0.4582 -2.8019
   19CHTO   H46 7967   6.550   7.112   7.033  2.4878 -1.9083  1.5230
   19CHTO   C33 7968   6.422   6.986   7.325 -0.3307  0.0639  0.1885
   19CHTO   H61 7969   6.315   6.986   7.303 -0.4789 -0.3869  0.8669
   19CHTO   O18 7970   6.439   7.012   7.467  0.3757 -0.8409  0.2082
   19CHTO   C28 7971   6.392   7.145   7.497  0.4477 -0.3802 -0.5267
   19CHTO   H56 7972   6.285   7.160   7.483  0.5261 -1.0622 -1.9013
   19CHTO   C35 7973   6.399   7.170   7.656  0.4923 -0.0675  0.0978
   19CHTO   O24 7974   6.320   7.081   7.724 -0.1467 -0.9225 -0.3435
   19CHTO   H39 7975   6.256   7.046   7.666 -0.7932 -0.1073 -0.1273
   19CHTO    O9 7976   6.468   6.848   7.287 -0.2482  0.3746 -0.4341
   19CHTO   C13 7977   6.371   6.698   7.346 -0.4930 -0.1080  0.5623
   19CHTO   H26 7978   6.327   6.717   7.446  1.3392 -1.9467  1.7572
   19CHTO   C11 7979   6.478   6.577   7.348 -0.1351  0.0266 -0.8678
   19CHTO   H24 7980   6.553   6.602   7.423 -0.5368  2.2614 -1.1830
   19CHTO    O8 7981   6.550   6.566   7.226  0.3953 -0.4037  0.4600
   19CHTO    H3 7982   6.494   6.531   7.159 -0.1286 -1.9955  1.6906
   19CHTO    C9 7983   6.405   6.447   7.388 -0.3723 -0.6375 -0.2323
   19CHTO   H22 7984   6.363   6.467   7.487 -2.3787  1.8366 -1.5191
   19CHTO    N2 7985   6.503   6.341   7.417 -0.0419 -0.1192  0.3869
   19CHTO   H10 7986   6.538   6.332   7.519 -1.6519  1.3015  1.0784
   19CHTO   H11 7987   6.590   6.346   7.353 -0.0905 -0.0562  0.3272
   19CHTO    C7 7988   6.294   6.414   7.285  0.5869 -0.3120 -0.0327
   19CHTO   H20 7989   6.254   6.319   7.326  0.4132  0.2044  0.9999
   19CHTO    O4 7990   6.196   6.517   7.281  0.4732 -0.1743  0.1851
   19CHTO   C14 7991   6.239   6.658   7.264 -0.8538 -0.0764 -0.7572
   19CHTO   H27 7992   6.160   6.729   7.297 -0.4019 -0.0737  0.3393
   19CHTO   C18 7993   6.270   6.690   7.110 -0.5425  0.2104 -0.0430
   19CHTO   O13 7994   6.148   6.680   7.026  0.4043 -0.1524  0.0809
   19CHTO    H7 7995   6.092   6.606   7.038 -1.5556  1.0374 -1.4885
   19CHTO    O2 7996   6.358   6.389   7.110 -0.5587 -0.3040 -0.1968
   19CHTO    C1 7997   6.297   6.275   7.042  0.1325  0.1436 -0.1976
   19CHTO   H14 7998   6.259   6.204   7.118 -1.9548  1.2527 -0.1613
   19CHTO    C2 7999   6.402   6.205   6.957 -0.2477  0.0088 -0.3204
   19CHTO   H15 8000   6.457   6.282   6.901 -0.3895 -0.2983 -0.8968
   19CHTO    O6 8001   6.506   6.139   7.042 -0.2402 -1.1920  0.1349
   19CHTO    H1 8002   6.586   6.135   6.995  0.0238  0.6967  0.3634
   19CHTO    C3 8003   6.340   6.097   6.858 -1.3196  0.1112 -0.1565
   19CHTO   H16 8004   6.302   6.013   6.918  2.0019  0.1353  2.0973
   19CHTO    N1 8005   6.441   6.036   6.771 -0.3579  0.1526 -0.4011
   19CHTO    H8 8006   6.392   5.951   6.726  0.8626 -0.0235 -1.4128
   19CHTO    H9 8007   6.471   6.112   6.700  3.4121 -1.6319 -0.8036
   19CHTO    C4 8008   6.217   6.156   6.779 -0.3023  0.2165  0.0080
   19CHTO   H17 8009   6.250   6.233   6.709 -0.9444  0.5815  0.1000
   19CHTO    O1 8010   6.126   6.210   6.876  0.3254  1.1182  0.4016
   19CHTO    C5 8011   6.173   6.324   6.953 -0.2001  0.1512  0.2086
   19CHTO   H18 8012   6.213   6.412   6.903  2.1855  0.1957  2.0811
   19CHTO   C16 8013   6.058   6.362   7.040 -0.5043  0.2688  0.1051
   19CHTO   O11 8014   5.951   6.407   6.958  0.2164 -0.0116  0.2883
   19CHTO    H5 8015   5.868   6.372   6.987  0.9946 -1.2801  1.0422
   19CHTO    O3 8016   6.146   6.054   6.712 -0.5026  0.3798 -0.1456
   19CHTO    C6 8017   6.066   6.115   6.607  0.0751  0.2495  0.4388
   19CHTO   H19 8018   6.061   6.224   6.612  1.7460  0.3483  0.3389
   19CHTO    C8 8019   6.133   6.093   6.468 -0.4775  0.1787  0.3392
   19CHTO   H21 8020   6.156   5.989   6.444  2.2456  0.7470  0.2977
   19CHTO    O7 8021   6.257   6.164   6.470 -0.5201 -0.1753 -0.8531
   19CHTO    H2 8022   6.256   6.257   6.485 -2.1087 -0.8099  4.0359
   19CHTO   C12 8023   6.042   6.156   6.349  1.1457 -0.6621 -0.1873
   19CHTO   H25 8024   6.028   6.263   6.375  1.7888 -1.1953  2.5391
   19CHTO    N3 8025   6.109   6.159   6.218 -0.0512  0.6020  0.3694
   19CHTO   H12 8026   6.208   6.200   6.209 -0.1404  0.2710 -2.9394
   19CHTO   H13 8027   6.112   6.063   6.168 -0.9001  0.4990  0.5130
   19CHTO   C15 8028   5.906   6.088   6.357  0.0248  0.0370 -0.4231
   19CHTO   H28 8029   5.915   5.981   6.339 -0.4193  0.0916 -0.9629
   19CHTO   O10 8030   5.790   6.150   6.262 -0.3080 -0.3666 -0.6704
   19CHTO    H4 8031   5.816   6.137   6.173  1.8439 -0.6526 -0.0391
   19CHTO    O5 8032   5.852   6.107   6.490 -0.4986 -0.0464  0.0071
   19CHTO   C10 8033   5.927   6.062   6.599  1.1927  0.0087 -0.5541
   19CHTO   H23 8034   5.925   5.953   6.601  0.4298 -0.0315 -2.3215
   19CHTO   C17 8035   5.847   6.107   6.724 -0.2362  0.2482 -0.2923
   19CHTO   O12 8036   5.719   6.051   6.733  0.4453  0.9058 -0.3309
   19CHTO    H6 8037   5.687   6.030   6.648 -0.3550 -0.7968  0.3691
   20CHTO  H203 8038   5.273   1.840   7.191  2.8871  1.0364 -2.6522
   20CHTO   O82 8039   5.293   1.918   7.239  0.1616  0.1933  0.0334
   20CHTO  C123 8040   5.199   2.001   7.301  0.0217 -0.2235 -0.7409
   20CHTO  H227 8041   5.110   1.944   7.333  0.3073 -0.3818 -0.2396
   20CHTO   O77 8042   5.274   2.054   7.409 -0.1046  0.6219 -0.3445
   20CHTO  C118 8043   5.214   2.150   7.496 -0.4433 -0.3651 -0.8224
   20CHTO  H222 8044   5.126   2.096   7.533 -0.3428 -0.3200 -0.5121
   20CHTO  C125 8045   5.308   2.184   7.621 -0.5437 -0.9117 -0.2615
   20CHTO   O84 8046   5.443   2.240   7.590  0.0591  0.2874 -0.1738
   20CHTO  H205 8047   5.475   2.283   7.667 -0.5777  0.7462 -0.1660
   20CHTO  C114 8048   5.179   2.278   7.417 -0.7917  0.0671  0.6470
   20CHTO  H218 8049   5.274   2.317   7.381 -0.9738  0.1164  0.2159
   20CHTO  C116 8050   5.085   2.238   7.299  0.1281 -0.1761 -0.7794
   20CHTO  H220 8051   4.982   2.215   7.335 -1.1937  2.2391 -2.8463
   20CHTO   O79 8052   5.057   2.353   7.214  0.0346 -0.2726  0.4462
   20CHTO  H201 8053   5.117   2.419   7.241 -1.0757  1.1251 -0.4832
   20CHTO  C120 8054   5.146   2.124   7.209 -0.7993 -0.0861  0.2337
   20CHTO  H224 8055   5.234   2.167   7.156  0.2307 -1.6856  0.6162
   20CHTO   N21 8056   5.048   2.070   7.105  0.2368 -0.8886  0.8814
   20CHTO  H211 8057   4.949   2.077   7.148  0.6153 -0.6924  1.7336
   20CHTO  H212 8058   5.074   1.968   7.078  0.1194 -0.5114 -0.7001
   20CHTO   O75 8059   5.116   2.364   7.517  0.2016  0.4550  0.1587
   20CHTO  C112 8060   5.151   2.513   7.505  0.0115  0.8991  0.3241
   20CHTO  H216 8061   5.200   2.527   7.408  2.2750 -0.9664  1.1279
   20CHTO   O73 8062   5.237   2.546   7.610 -0.1129  0.2971 -0.1623
   20CHTO  C113 8063   5.308   2.664   7.588 -0.7191  0.0937  0.0894
   20CHTO  H217 8064   5.344   2.664   7.483  0.4030 -0.4056  0.4752
   20CHTO  C124 8065   5.439   2.669   7.668  0.4268  0.1214  0.0197
   20CHTO   O83 8066   5.532   2.575   7.619  0.0162  0.3596  0.2947
   20CHTO  H204 8067   5.535   2.509   7.685  1.3134 -0.6086 -0.6867
   20CHTO  C109 8068   5.211   2.791   7.600  0.2156 -0.5244  0.1713
   20CHTO  H213 8069   5.172   2.790   7.703 -0.9649 -1.9117 -0.2831
   20CHTO  C110 8070   5.091   2.767   7.504 -0.0725 -0.4999  0.2021
   20CHTO  H214 8071   5.128   2.788   7.404  1.7673 -1.0039  0.7512
   20CHTO   O78 8072   4.982   2.857   7.533  0.1726 -0.0713 -0.6347
   20CHTO  H200 8073   4.923   2.866   7.461  1.4060  0.6635 -1.5756
   20CHTO  C111 8074   5.034   2.619   7.514  0.2622 -0.7619 -0.4929
   20CHTO  H215 8075   4.994   2.610   7.616  2.1059  0.3355  0.3705
   20CHTO   N19 8076   4.929   2.588   7.414  0.3447  0.4844 -0.7218
   20CHTO  H207 8077   4.885   2.493   7.438  2.2774 -0.0614  0.7816
   20CHTO  H208 8078   4.960   2.591   7.311 -4.2967 -0.8848 -2.2680
   20CHTO   O74 8079   5.276   2.918   7.573 -0.0420  0.5047  0.1347
   20CHTO  C115 8080   5.198   3.039   7.609 -0.0492 -0.6660  1.1627
   20CHTO  H219 8081   5.104   3.013   7.657 -0.6907  0.8071  0.7387
   20CHTO   O76 8082   5.269   3.127   7.716  0.2418  0.2951  0.1514
   20CHTO  C122 8083   5.400   3.163   7.671  0.0736 -0.6093 -0.3561
   20CHTO  H226 8084   5.475   3.088   7.697  0.5189 -0.5990 -1.5695
   20CHTO  C126 8085   5.450   3.296   7.751 -0.6141 -0.1519  0.5325
   20CHTO   O85 8086   5.338   3.382   7.794  0.0976 -0.0695 -0.2762
   20CHTO  H206 8087   5.378   3.458   7.832 -3.6105  1.8463  0.0398
   20CHTO  C121 8088   5.422   3.183   7.511 -0.5737 -0.3230  0.3213
   20CHTO  H225 8089   5.485   3.273   7.495 -2.4501  1.1942  1.2339
   20CHTO   O81 8090   5.466   3.061   7.453  0.6920  0.4370  0.4682
   20CHTO  H202 8091   5.412   3.018   7.390  2.6975 -1.2087 -0.1851
   20CHTO  C119 8092   5.285   3.221   7.442 -0.6801  0.1792 -0.0853
   20CHTO  H223 8093   5.260   3.310   7.499 -1.7267 -0.3588  0.3132
   20CHTO  C117 8094   5.164   3.122   7.474  0.3813 -0.0964  0.2033
   20CHTO  H221 8095   5.161   3.044   7.398  2.2049  0.2445 -0.2466
   20CHTO   N20 8096   5.034   3.198   7.464 -1.0279  0.1938 -0.0426
   20CHTO  H209 8097   5.019   3.261   7.377 -0.1745  1.2186  0.5477
   20CHTO  H210 8098   5.010   3.260   7.549 -0.5132 -0.3484  0.4964
   20CHTO   O80 8099   5.313   3.267   7.303  0.3197  0.1169 -0.0824
   20CHTO  C103 8100   5.304   3.422   7.265 -0.0144 -1.3922  0.2403
   20CHTO  H190 8101   5.203   3.461   7.282  1.0379  1.3458  0.4740
   20CHTO  C101 8102   5.401   3.521   7.342 -0.2222 -0.1261  0.0726
   20CHTO  H188 8103   5.504   3.488   7.332 -0.2856 -0.4915  0.5821
   20CHTO   O68 8104   5.358   3.524   7.502 -0.1229  0.5086 -0.7351
   20CHTO  H168 8105   5.433   3.524   7.558 -1.4111 -2.6702  1.1149
   20CHTO   C99 8106   5.385   3.671   7.275 -0.5376 -0.2619 -0.1942
   20CHTO  H186 8107   5.277   3.695   7.285 -0.0278  2.2645 -0.4726
   20CHTO   N17 8108   5.475   3.772   7.345 -0.1314  0.4020  0.5461
   20CHTO  H174 8109   5.419   3.861   7.369 -0.0274  0.1645  1.6829
   20CHTO  H175 8110   5.517   3.734   7.437  1.4611  0.1533 -0.2717
   20CHTO   C97 8111   5.405   3.659   7.121  0.1404 -0.3811 -1.2052
   20CHTO  H184 8112   5.508   3.621   7.114 -0.1950 -1.4633 -0.2945
   20CHTO   O64 8113   5.310   3.569   7.055 -0.1484  0.0447 -0.5308
   20CHTO  C104 8114   5.330   3.436   7.109 -0.5474 -0.4793  0.5107
   20CHTO  H191 8115   5.432   3.404   7.088  1.0859  3.4448  1.9467
   20CHTO  C108 8116   5.241   3.344   7.026  0.0626  0.1696 -0.0862
   20CHTO   O71 8117   5.297   3.317   6.902 -0.1479 -0.0167 -0.5879
   20CHTO  H171 8118   5.246   3.246   6.868 -1.7220 -1.1123  3.7491
   20CHTO   O62 8119   5.394   3.782   7.044  0.2129  0.4549 -0.0361
   20CHTO   C91 8120   5.468   3.785   6.916 -0.1626  0.6915  0.0448
   20CHTO  H178 8121   5.491   3.682   6.886 -0.8625  0.3111  0.7940
   20CHTO   C92 8122   5.605   3.867   6.924 -0.1253 -0.3239  0.2957
   20CHTO  H179 8123   5.592   3.968   6.965  0.6283 -1.0320  2.3062
   20CHTO   O66 8124   5.680   3.807   7.029  0.5428  0.3895 -0.0154
   20CHTO  H166 8125   5.732   3.736   6.996  0.3859 -0.6489  1.8743
   20CHTO   C93 8126   5.677   3.859   6.776  0.2314 -0.1869  0.2337
   20CHTO  H180 8127   5.708   3.754   6.767  0.8752  0.0591 -0.4875
   20CHTO   N16 8128   5.809   3.927   6.778 -0.4203 -0.6097 -0.0501
   20CHTO  H172 8129   5.796   4.030   6.748  0.6513  0.0434  1.6395
   20CHTO  H173 8130   5.874   3.871   6.713  0.6281  0.6138 -0.0688
   20CHTO   C94 8131   5.582   3.892   6.664 -0.2535 -0.3721  0.7582
   20CHTO  H181 8132   5.560   3.999   6.657  0.5867 -0.2568 -0.4015
   20CHTO   O61 8133   5.448   3.837   6.677 -0.3072 -0.4797 -0.0360
   20CHTO   C95 8134   5.377   3.854   6.804  0.3947 -0.5283 -0.2033
   20CHTO  H182 8135   5.351   3.958   6.822 -4.2779 -1.3405 -1.5034
   20CHTO  C106 8136   5.232   3.784   6.802 -0.0964 -0.3149  0.3829
   20CHTO   O69 8137   5.147   3.831   6.698  0.3158 -0.7714 -0.0607
   20CHTO  H169 8138   5.200   3.849   6.623 -1.3351 -0.8848 -1.2771
   20CHTO   O63 8139   5.665   3.865   6.508  0.0709 -0.4072 -0.1826
   20CHTO   C96 8140   5.682   3.728   6.481  0.2758  0.8596  0.2228
   20CHTO  H183 8141   5.713   3.684   6.575  0.3688  0.4717  0.0126
   20CHTO   C98 8142   5.806   3.692   6.386  0.4884 -0.0861  0.1511
   20CHTO  H185 8143   5.901   3.738   6.418  0.2588  0.9528 -0.6212
   20CHTO   O67 8144   5.819   3.551   6.396 -0.2449  0.4490  0.6871
   20CHTO  H167 8145   5.876   3.509   6.335  1.8895  0.4840  2.5906
   20CHTO  C102 8146   5.778   3.728   6.230  0.8034  0.1020 -0.3822
   20CHTO  H189 8147   5.844   3.663   6.171 -1.2865  0.1353 -2.8040
   20CHTO   N18 8148   5.808   3.871   6.190 -0.0667  0.1380 -0.2959
   20CHTO  H176 8149   5.717   3.928   6.191  0.6252  1.2694 -0.8640
   20CHTO  H177 8150   5.888   3.917   6.247  0.0683  1.7363 -1.7461
   20CHTO  C105 8151   5.627   3.681   6.197 -0.1273 -0.2160 -0.3950
   20CHTO  H192 8152   5.565   3.769   6.180 -2.1230 -1.9706 -2.4165
   20CHTO   O65 8153   5.560   3.607   6.303 -0.2768  0.2278  0.5702
   20CHTO  C100 8154   5.547   3.653   6.436  0.5013  0.7414 -0.8766
   20CHTO  H187 8155   5.463   3.722   6.445 -0.1918 -0.0556 -1.1362
   20CHTO  C107 8156   5.500   3.531   6.520 -0.3460 -0.0620 -0.4029
   20CHTO   O70 8157   5.599   3.430   6.504 -0.2733  0.0501 -0.0572
   20CHTO  H170 8158   5.560   3.351   6.535 -2.2309  0.4608 -1.3225
   20CHTO   O57 8159   5.630   3.583   6.078 -0.1140 -0.2232  0.2040
   20CHTO   C85 8160   5.523   3.584   5.982 -0.2330 -0.5484  0.4071
   20CHTO  H157 8161   5.448   3.658   6.018 -1.2490 -1.2026 -0.3358
   20CHTO   C83 8162   5.445   3.447   5.974 -0.1870  0.9820 -0.2686
   20CHTO  H155 8163   5.407   3.413   6.070  1.6577  1.6166  0.7261
   20CHTO   O56 8164   5.539   3.347   5.949  0.1979 -0.2603  0.0858
   20CHTO  H135 8165   5.500   3.267   5.921  1.7549 -0.7994 -0.5559
   20CHTO   C81 8166   5.333   3.452   5.867 -0.2936  0.2891  0.2301
   20CHTO  H153 8167   5.271   3.540   5.884  0.0114  0.2674  1.5093
   20CHTO   N14 8168   5.233   3.344   5.884 -0.4310 -0.8265  0.4377
   20CHTO  H141 8169   5.159   3.346   5.806 -0.4580 -2.6031  0.4000
   20CHTO  H142 8170   5.281   3.248   5.878 -0.4557 -0.8228  0.1470
   20CHTO   C79 8171   5.398   3.471   5.728 -0.4138  1.2608 -0.1438
   20CHTO  H151 8172   5.317   3.474   5.656 -0.9160 -1.9207  0.2255
   20CHTO   O52 8173   5.467   3.600   5.735  0.3144  0.3253  0.3797
   20CHTO   C86 8174   5.572   3.615   5.842  0.0147  0.1437 -0.0765
   20CHTO  H158 8175   5.647   3.535   5.821 -1.1492 -0.7036 -1.0603
   20CHTO   C90 8176   5.644   3.758   5.844 -0.9041  0.1583  0.5773
   20CHTO   O60 8177   5.711   3.780   5.723  0.2776 -0.3213  0.7049
   20CHTO  H138 8178   5.754   3.863   5.718  1.2277 -0.8314  0.4950
   20CHTO   O50 8179   5.481   3.355   5.684  0.5745 -0.6592  0.0403
   20CHTO   C73 8180   5.548   3.312   5.565 -0.3295 -0.9000  0.4987
   20CHTO  H145 8181   5.588   3.401   5.514  0.4090 -2.6245 -2.0124
   20CHTO   C74 8182   5.451   3.251   5.465  0.8258 -0.0648  0.2346
   20CHTO  H146 8183   5.375   3.327   5.439 -0.7449 -1.6172  0.2588
   20CHTO   O54 8184   5.506   3.224   5.333  0.1724  0.0368 -0.1128
   20CHTO  H133 8185   5.575   3.286   5.318  0.3481 -0.3428 -0.9070
   20CHTO   C75 8186   5.384   3.128   5.526 -0.0207 -0.6866 -0.9347
   20CHTO  H147 8187   5.327   3.162   5.614  1.8293  1.9692 -0.7048
   20CHTO   N13 8188   5.281   3.061   5.438 -0.4487  0.1977 -0.4769
   20CHTO  H139 8189   5.291   2.954   5.439  1.1000  0.3218  0.0356
   20CHTO  H140 8190   5.183   3.084   5.477 -0.0968 -1.7192  1.6960
   20CHTO   C76 8191   5.497   3.028   5.587  0.7942 -0.2100  0.9959
   20CHTO  H148 8192   5.560   2.988   5.507 -1.0759 -1.5080  0.1445
   20CHTO   O49 8193   5.599   3.103   5.672 -0.1777  0.0301  0.1969
   20CHTO   C77 8194   5.662   3.217   5.610  0.7954 -0.6360  0.3042
   20CHTO  H149 8195   5.724   3.182   5.528  1.8961  1.4942  0.2123
   20CHTO   C88 8196   5.767   3.292   5.698  0.4285  0.1231 -0.1367
   20CHTO   O58 8197   5.854   3.201   5.742  0.0763 -0.3304 -0.3397
   20CHTO  H136 8198   5.938   3.206   5.699 -0.2226 -0.4429 -0.9404
   20CHTO   O51 8199   5.425   2.923   5.679 -0.2523  0.3188 -0.2239
   20CHTO   C78 8200   5.508   2.804   5.714  0.5149  0.6474  0.3679
   20CHTO  H150 8201   5.615   2.805   5.685  0.1950  1.7072 -0.8242
   20CHTO   C80 8202   5.441   2.678   5.649  0.0222 -0.7825  0.5977
   20CHTO  H152 8203   5.342   2.659   5.696 -0.2307 -0.0851  0.3553
   20CHTO   O55 8204   5.428   2.707   5.507  0.4855  0.2599  0.5215
   20CHTO  H134 8205   5.509   2.746   5.480 -0.2655  1.4615  0.0043
   20CHTO   C84 8206   5.516   2.547   5.682  0.0660  0.1020  0.4401
   20CHTO  H156 8207   5.617   2.562   5.644  0.2285 -0.4635  0.6453
   20CHTO   N15 8208   5.445   2.419   5.627 -0.0514  0.0506 -0.1472
   20CHTO  H143 8209   5.351   2.414   5.676 -0.6596 -2.8338 -1.4954
   20CHTO  H144 8210   5.436   2.434   5.521  2.8541 -0.1854 -0.4806
   20CHTO   C87 8211   5.523   2.534   5.835  0.2609 -0.1983 -0.0772
   20CHTO  H159 8212   5.434   2.493   5.883  0.3301  1.3836  1.4809
   20CHTO   O53 8213   5.582   2.680   5.902  0.0979 -0.4848 -0.7658
   20CHTO   C82 8214   5.498   2.790   5.866  0.7267 -0.2605  0.7194
   20CHTO  H154 8215   5.393   2.781   5.892  0.2452 -0.8854 -1.3741
   20CHTO   C89 8216   5.551   2.923   5.939 -0.1858 -0.0882 -0.3401
   20CHTO   O59 8217   5.686   2.951   5.906 -0.1544 -0.1031 -0.1568
   20CHTO  H137 8218   5.738   2.957   5.983 -1.4164 -0.1019  0.7059
   20CHTO   O45 8219   5.647   2.422   5.874 -0.1940  0.4152 -0.1694
   20CHTO   C67 8220   5.622   2.363   6.004  0.0913 -0.1055  0.0836
   20CHTO  H124 8221   5.544   2.424   6.050 -0.1551  0.1672 -0.6810
   20CHTO   C65 8222   5.563   2.218   5.986 -0.4733  0.5921  0.1309
   20CHTO  H122 8223   5.604   2.181   5.893  0.7933  1.6265  0.2598
   20CHTO   O44 8224   5.413   2.229   5.970 -0.1844  0.3753  0.8204
   20CHTO  H102 8225   5.370   2.262   6.047 -0.5749 -0.0269  0.7755
   20CHTO   C63 8226   5.605   2.133   6.106 -0.7177  0.3086 -0.1018
   20CHTO  H120 8227   5.709   2.103   6.096 -0.1443  1.5852  1.5837
   20CHTO   N11 8228   5.547   1.995   6.122  0.4500  0.3735  0.4274
   20CHTO  H108 8229   5.522   1.982   6.225  1.1361 -2.6821  0.2469
   20CHTO  H109 8230   5.455   1.982   6.068  0.5885 -1.4820  0.6243
   20CHTO   C61 8231   5.600   2.212   6.236 -0.1915  0.5791  0.5356
   20CHTO  H118 8232   5.643   2.145   6.312 -0.4247  0.2357  0.3679
   20CHTO   O40 8233   5.686   2.335   6.238 -0.6614  0.2607  0.9223
   20CHTO   C68 8234   5.740   2.367   6.108  1.1228  0.4650 -0.4562
   20CHTO  H125 8235   5.819   2.297   6.073  0.4271 -0.0032 -1.1317
   20CHTO   C72 8236   5.801   2.506   6.126  0.2347 -0.5273  0.1817
   20CHTO   O48 8237   5.717   2.616   6.138  0.9726  0.1814 -0.2757
   20CHTO  H105 8238   5.665   2.609   6.061  0.1405 -0.1792  0.3170
   20CHTO   O38 8239   5.463   2.233   6.278  0.1011 -0.4939 -0.6309
   20CHTO   C55 8240   5.443   2.253   6.422  0.8127 -0.5640 -0.9369
   20CHTO  H112 8241   5.534   2.279   6.477  0.9163 -3.8634  0.6163
   20CHTO   C56 8242   5.377   2.119   6.481 -0.0143 -0.3369 -0.6695
   20CHTO  H113 8243   5.297   2.090   6.411  0.9834  0.8973 -2.3604
   20CHTO   O42 8244   5.477   2.019   6.483  0.2558 -0.1838  0.0823
   20CHTO  H100 8245   5.558   2.048   6.445  0.1086  2.2852  1.5109
   20CHTO   C57 8246   5.312   2.141   6.626 -0.3536  0.2104 -0.7715
   20CHTO  H114 8247   5.400   2.158   6.688  0.4955 -3.2703 -0.9432
   20CHTO   N10 8248   5.229   2.029   6.681 -0.2986  0.3648 -0.5547
   20CHTO  H106 8249   5.288   1.939   6.672  0.0616  0.6435 -0.9973
   20CHTO  H107 8250   5.139   2.024   6.622 -1.7628  3.0353  1.3855
   20CHTO   C58 8251   5.230   2.273   6.620 -0.4929  0.5257 -0.0847
   20CHTO  H115 8252   5.143   2.265   6.550 -0.5901 -1.4385  0.2303
   20CHTO   O37 8253   5.311   2.378   6.571  0.3318 -0.2808 -0.1479
   20CHTO   C59 8254   5.344   2.375   6.431  0.2321  0.3754 -0.4641
   20CHTO  H116 8255   5.248   2.361   6.381  0.3985 -0.0313 -0.6649
   20CHTO   C70 8256   5.414   2.506   6.393  0.3722 -0.0932 -0.3217
   20CHTO   O46 8257   5.447   2.514   6.256 -0.3273 -0.5355 -0.2321
   20CHTO  H103 8258   5.498   2.591   6.241 -2.5427  1.1583  0.6178
   20CHTO   O39 8259   5.191   2.312   6.770  0.1476 -0.3337  0.3850
   20CHTO   C60 8260   5.122   2.436   6.783  0.6085 -0.0685 -0.3197
   20CHTO  H117 8261   5.138   2.502   6.697 -1.8307  0.5348 -0.3321
   20CHTO   C62 8262   4.969   2.422   6.791 -0.0066 -0.2152  0.8465
   20CHTO  H119 8263   4.936   2.365   6.702 -0.2694  0.1986  0.6787
   20CHTO   O43 8264   4.932   2.354   6.911  0.3931  0.1264 -0.0441
   20CHTO  H101 8265   4.963   2.268   6.890 -0.0772 -0.3197  1.0375
   20CHTO   C66 8266   4.897   2.565   6.784 -0.5623 -0.4742  0.4880
   20CHTO  H123 8267   4.927   2.606   6.688  1.9388 -2.0294  0.5404
   20CHTO   N12 8268   4.747   2.554   6.787  0.2691  0.1961 -0.0193
   20CHTO  H110 8269   4.711   2.641   6.840  0.4137 -1.2835  2.6141
   20CHTO  H111 8270   4.721   2.561   6.683  0.7376 -1.0219 -0.2213
   20CHTO   C69 8271   4.953   2.661   6.892 -0.1339  0.2402  0.7025
   20CHTO  H126 8272   4.912   2.640   6.992 -0.7737 -0.9754  0.1969
   20CHTO   O41 8273   5.112   2.651   6.896 -0.4664  0.0392 -0.0457
   20CHTO   C64 8274   5.180   2.507   6.907  0.1779  0.0340  0.3097
   20CHTO  H121 8275   5.152   2.451   6.999  0.6461  0.7329  0.8796
   20CHTO   C71 8276   5.332   2.511   6.909 -0.0547  0.1878  0.0638
   20CHTO   O47 8277   5.389   2.386   6.950 -0.2324  0.4398 -0.1525
   20CHTO  H104 8278   5.391   2.383   7.044 -1.3683 -0.4232 -0.1562
   20CHTO   O34 8279   4.900   2.803   6.848 -0.0849 -0.1139  0.6303
   20CHTO   C49 8280   4.885   2.925   6.923 -0.1921 -0.0747 -0.6718
   20CHTO   H91 8281   4.802   2.912   6.993 -0.2989  3.6279 -0.0102
   20CHTO   C47 8282   4.864   3.055   6.845  0.7063  0.4732 -0.4637
   20CHTO   H89 8283   4.860   3.121   6.934  4.2694 -0.1163  0.1855
   20CHTO   O33 8284   4.739   3.054   6.773  0.0397 -0.1947  0.2404
   20CHTO   H70 8285   4.732   3.142   6.742 -0.5813 -0.4754 -0.4435
   20CHTO   C45 8286   4.985   3.080   6.749  1.1006 -0.0549 -0.0112
   20CHTO   H87 8287   4.962   3.044   6.647  2.2801 -2.0762  0.4090
   20CHTO    N8 8288   5.004   3.228   6.740  0.3612  0.0749  0.0840
   20CHTO   H75 8289   4.990   3.284   6.831 -0.3982  0.0993 -0.0489
   20CHTO   H76 8290   5.095   3.253   6.687 -0.1919  0.6226 -0.6221
   20CHTO   C43 8291   5.115   2.994   6.785  0.9353  1.0988  0.4820
   20CHTO   H85 8292   5.100   2.896   6.738 -0.7756  1.3288  0.5007
   20CHTO   O29 8293   5.134   2.980   6.928 -0.0037 -0.6796  0.2530
   20CHTO   C50 8294   5.019   2.941   7.006 -0.4922  0.5037  0.1347
   20CHTO   H92 8295   5.033   2.840   7.047  0.3828  0.6795  0.2841
   20CHTO   C54 8296   5.008   3.040   7.125  0.1268 -0.7553  0.1107
   20CHTO   O36 8297   4.895   3.009   7.211  0.4891 -0.1122  0.4372
   20CHTO   H72 8298   4.879   3.084   7.264  1.2061 -0.9105  1.7955
   20CHTO   O27 8299   5.227   3.056   6.732  0.2515  0.3213 -0.1117
   20CHTO   C37 8300   5.302   3.008   6.615 -0.3924 -0.3571 -0.4280
   20CHTO   H79 8301   5.257   2.912   6.586 -2.2746  1.5328 -4.0662
   20CHTO   C38 8302   5.288   3.105   6.497 -0.3219 -0.1727  0.1489
   20CHTO   H80 8303   5.300   3.207   6.537  0.1412  0.2198 -0.9615
   20CHTO   O31 8304   5.150   3.084   6.450  0.7296  0.6089 -0.0509
   20CHTO   H68 8305   5.134   3.108   6.360 -0.0587 -0.3570 -0.1718
   20CHTO   C39 8306   5.395   3.080   6.380  0.8103  0.0774 -0.0659
   20CHTO   H81 8307   5.362   2.992   6.325 -0.9587  2.0840 -2.3662
   20CHTO    N7 8308   5.392   3.191   6.276 -0.4073 -0.2676 -1.0492
   20CHTO   H73 8309   5.295   3.196   6.228  0.0976  1.0763 -1.9824
   20CHTO   H74 8310   5.426   3.289   6.306 -1.7653  0.0395 -0.4501
   20CHTO   C40 8311   5.538   3.054   6.438  0.3567 -0.0661 -0.3406
   20CHTO   H82 8312   5.597   3.138   6.475 -0.5390  1.9909 -3.3745
   20CHTO   O26 8313   5.528   2.953   6.529  1.2059  0.1823  0.3347
   20CHTO   C41 8314   5.452   2.995   6.646 -0.3333 -0.2699  0.7002
   20CHTO   H83 8315   5.490   3.088   6.691  0.9052 -0.0538 -0.7514
   20CHTO   C52 8316   5.465   2.899   6.758 -0.3093 -0.6255  0.8392
   20CHTO   O35 8317   5.594   2.858   6.793 -0.0462  0.5014  0.0690
   20CHTO   H71 8318   5.630   2.923   6.850 -1.4767  1.4554 -0.1019
   20CHTO   O28 8319   5.621   2.998   6.329 -0.3441 -0.1565  0.5805
   20CHTO   C42 8320   5.769   3.017   6.319  1.2240  0.6713  0.3711
   20CHTO   H84 8321   5.806   2.961   6.233  0.7263  3.0960 -1.4849
   20CHTO   C44 8322   5.848   2.970   6.448  0.1841  0.0103  0.2776
   20CHTO   H86 8323   5.801   3.013   6.536  0.7807 -0.7563  0.9743
   20CHTO   O32 8324   5.829   2.826   6.471 -0.5387  0.2633 -0.5828
   20CHTO   H69 8325   5.855   2.781   6.394  0.9007  1.1599 -0.6521
   20CHTO   C48 8326   5.998   3.013   6.454 -0.1810  0.8674 -0.5726
   20CHTO   H90 8327   6.052   2.952   6.381 -0.3861  2.7591 -2.3428
   20CHTO    N9 8328   6.062   2.980   6.589  0.0140 -0.2260  0.2626
   20CHTO   H77 8329   6.022   3.037   6.672  2.0495 -0.0885  1.1882
   20CHTO   H78 8330   6.170   2.981   6.588  0.0738 -2.7036 -2.3936
   20CHTO   C51 8331   6.015   3.167   6.413 -0.3900  0.2600  0.0404
   20CHTO   H93 8332   5.980   3.230   6.495 -1.1319 -0.6994  0.4758
   20CHTO   O30 8333   5.959   3.192   6.287 -0.2168  0.3493  0.0887
   20CHTO   C46 8334   5.803   3.164   6.290  0.7259 -0.6894 -0.2839
   20CHTO   H88 8335   5.763   3.227   6.370 -0.3399  0.3107 -1.5823
   20CHTO   C53 8336   5.748   3.205   6.155  0.2831 -0.2055 -0.1157
   20CHTO   O72 8337   5.768   3.345   6.127 -0.2915 -0.2499  0.3334
   20CHTO  H199 8338   5.768   3.354   6.034  3.1231  0.1131  0.2770
   20CHTO   O22 8339   6.150   3.208   6.383  0.1556 -0.3853 -0.4075
   20CHTO   C31 8340   6.204   3.345   6.394 -0.3396  0.3621 -0.0582
   20CHTO   H59 8341   6.314   3.336   6.384 -0.2616  0.4599  0.6346
   20CHTO   C29 8342   6.163   3.438   6.284 -0.0912 -0.3386 -0.4304
   20CHTO   H57 8343   6.055   3.457   6.295 -0.4133 -2.8998  1.1545
   20CHTO   O21 8344   6.180   3.373   6.160 -0.4542  0.1873 -0.6987
   20CHTO   H37 8345   6.270   3.374   6.131 -0.5633 -3.2113 -1.3169
   20CHTO   C27 8346   6.239   3.575   6.301  0.3809 -0.3226  0.2853
   20CHTO   H55 8347   6.344   3.561   6.274  0.9764  1.8989  1.2986
   20CHTO    N5 8348   6.185   3.679   6.216 -0.2201 -0.1058  0.2096
   20CHTO   H43 8349   6.109   3.728   6.274 -1.1665 -1.9621  0.5893
   20CHTO   H44 8350   6.255   3.748   6.172  1.1520  0.0216  2.5435
   20CHTO   C25 8351   6.233   3.629   6.456  0.0781  0.2888  0.1788
   20CHTO   H53 8352   6.133   3.669   6.482 -0.1668  0.9092 -1.6460
   20CHTO   O17 8353   6.273   3.521   6.543  0.3856 -0.2032  0.6271
   20CHTO   C32 8354   6.191   3.407   6.539 -0.1246 -0.1301  0.4094
   20CHTO   H60 8355   6.089   3.440   6.558  0.2902  1.9066 -0.7873
   20CHTO   C36 8356   6.234   3.301   6.647  0.3978 -0.5800 -0.4601
   20CHTO   O25 8357   6.374   3.271   6.647 -0.4533  0.3923  0.1167
   20CHTO   H40 8358   6.406   3.288   6.560  0.3796 -1.6077  0.0260
   20CHTO   O15 8359   6.339   3.744   6.477  0.0741  0.2169 -0.2582
   20CHTO   C19 8360   6.394   3.816   6.588  0.6707 -0.6139 -0.4203
   20CHTO   H47 8361   6.465   3.889   6.547 -2.4040  0.7401 -3.5962
   20CHTO   C20 8362   6.279   3.891   6.658  0.1926  0.0898  0.6069
   20CHTO   H48 8363   6.203   3.821   6.697 -0.0076  0.4128  0.8014
   20CHTO   O19 8364   6.210   3.973   6.563  0.2113 -0.1110 -0.2617
   20CHTO   H35 8365   6.211   4.062   6.592  0.6417  0.5663 -2.2831
   20CHTO   C21 8366   6.340   3.974   6.785  0.1066 -0.0358  0.2111
   20CHTO   H49 8367   6.412   4.046   6.747 -2.2331  2.1418 -0.1915
   20CHTO    N4 8368   6.241   4.056   6.856 -0.2416  0.2195  0.0603
   20CHTO   H41 8369   6.181   3.984   6.909  1.2965 -0.8238  0.4170
   20CHTO   H42 8370   6.297   4.116   6.927  0.4261 -1.1014  0.6670
   20CHTO   C22 8371   6.418   3.869   6.873 -0.1099 -0.0938  0.6995
   20CHTO   H50 8372   6.346   3.791   6.899  0.7118 -1.1717 -0.1913
   20CHTO   O14 8373   6.528   3.820   6.788 -0.2972 -0.2643 -0.5649
   20CHTO   C23 8374   6.467   3.726   6.697 -0.2901 -0.8594  0.2301
   20CHTO   H51 8375   6.401   3.653   6.745 -0.6150 -1.1266 -0.6118
   20CHTO   C34 8376   6.576   3.636   6.637  0.2032 -0.4137  0.3166
   20CHTO   O23 8377   6.643   3.564   6.735 -0.4460  0.6439 -0.0272
   20CHTO   H38 8378   6.596   3.573   6.816 -1.5731 -1.2935 -0.4348
   20CHTO   O16 8379   6.483   3.925   6.991 -0.3680 -0.1116  0.3494
   20CHTO   C24 8380   6.565   3.819   7.091 -0.5398 -0.4379  0.2191
   20CHTO   H52 8381   6.567   3.721   7.045 -3.7730 -0.3945 -0.0921
   20CHTO   C26 8382   6.499   3.813   7.227 -0.3976 -0.1285 -0.3847
   20CHTO   H54 8383   6.503   3.912   7.276  0.5827 -0.2819 -0.1538
   20CHTO   O20 8384   6.361   3.788   7.207 -0.2290 -0.1660 -0.3274
   20CHTO   H36 8385   6.344   3.733   7.133 -1.2177 -0.5589  0.1879
   20CHTO   C30 8386   6.566   3.706   7.318 -0.8173  0.0689 -0.3915
   20CHTO   H58 8387   6.537   3.606   7.282 -0.4992 -0.0037 -0.4526
   20CHTO    N6 8388   6.518   3.712   7.464  0.2270 -0.6939  0.1340
   20CHTO   H45 8389   6.416   3.679   7.462  0.1879 -0.5920  0.5121
   20CHTO   H46 8390   6.577   3.648   7.527 -1.2689 -0.5878  1.6574
   20CHTO   C33 8391   6.723   3.721   7.312 -0.5932  0.2618 -0.1489
   20CHTO   H61 8392   6.757   3.800   7.381 -0.6830 -0.6133  0.9154
   20CHTO   O18 8393   6.771   3.745   7.178  0.2769 -0.1039  0.3522
   20CHTO   C28 8394   6.709   3.858   7.112 -0.2401 -0.2070  0.1642
   20CHTO   H56 8395   6.720   3.952   7.166  2.0508  1.4573 -3.0685
   20CHTO   C35 8396   6.787   3.883   6.980 -0.2298 -0.5757 -0.1049
   20CHTO   O24 8397   6.783   3.775   6.884 -0.7726  0.5486  0.1769
   20CHTO   H39 8398   6.703   3.727   6.891 -1.1752  1.4029  1.6143
   20CHTO    O9 8399   6.779   3.599   7.371 -0.5648 -0.1956  0.2679
   20CHTO   C13 8400   6.821   3.452   7.288 -0.3693 -0.9810  0.2388
   20CHTO   H26 8401   6.931   3.449   7.303 -0.0870  1.0956 -1.2487
   20CHTO   C11 8402   6.789   3.448   7.138  1.1408 -0.1006  0.0308
   20CHTO   H24 8403   6.848   3.531   7.098  1.3774 -0.7997 -1.0922
   20CHTO    O8 8404   6.652   3.484   7.103  0.6014  0.1770 -0.2710
   20CHTO    H3 8405   6.650   3.494   7.010  3.3269  2.5709 -0.1725
   20CHTO    C9 8406   6.816   3.306   7.079 -0.1178 -0.1223  0.8250
   20CHTO   H22 8407   6.924   3.291   7.094  0.7162  2.2577 -2.1008
   20CHTO    N2 8408   6.800   3.290   6.928 -0.0190  0.0248 -0.2324
   20CHTO   H10 8409   6.700   3.304   6.891  0.1884  3.7692  0.4128
   20CHTO   H11 8410   6.850   3.211   6.874  0.7624  0.4875 -0.2100
   20CHTO    C7 8411   6.747   3.186   7.156  0.1882 -0.2015  0.0664
   20CHTO   H20 8412   6.796   3.105   7.097  0.0124  2.9211 -4.6892
   20CHTO    O4 8413   6.782   3.196   7.297  0.0591 -0.1873  0.4464
   20CHTO   C14 8414   6.759   3.328   7.359  0.1399  0.2399  0.2310
   20CHTO   H27 8415   6.816   3.302   7.451  1.2598 -0.6678 -0.7027
   20CHTO   C18 8416   6.615   3.357   7.401  0.4079  0.4810  0.2249
   20CHTO   O13 8417   6.575   3.284   7.522 -0.2831 -0.0310 -0.4839
   20CHTO    H7 8418   6.485   3.259   7.514 -0.2236  0.1901 -2.0712
   20CHTO    O2 8419   6.580   3.157   7.142 -0.2446  0.2836 -0.2538
   20CHTO    C1 8420   6.533   3.025   7.126 -0.5380  0.3485  0.8689
   20CHTO   H14 8421   6.428   3.011   7.158  0.3434 -0.9839  3.2851
   20CHTO    C2 8422   6.619   2.917   7.205  0.1438 -0.7442 -0.1354
   20CHTO   H15 8423   6.723   2.925   7.169  0.9589  0.4758  2.3475
   20CHTO    O6 8424   6.614   2.963   7.342  0.3671  0.0587  0.5816
   20CHTO    H1 8425   6.677   2.919   7.396  3.0941  2.8294 -0.2100
   20CHTO    C3 8426   6.559   2.775   7.183  0.6888 -0.2100  0.1247
   20CHTO   H16 8427   6.467   2.763   7.243  1.0117 -1.0528  0.4627
   20CHTO    N1 8428   6.645   2.663   7.239 -0.1589 -0.7012  0.6812
   20CHTO    H8 8429   6.699   2.696   7.326  0.6210 -0.9068  0.2766
   20CHTO    H9 8430   6.713   2.626   7.164 -0.7371 -0.8891  0.2451
   20CHTO    C4 8431   6.514   2.750   7.036  0.0059 -0.6206 -0.5971
   20CHTO   H17 8432   6.604   2.725   6.979  0.2958 -2.0802  0.4672
   20CHTO    O1 8433   6.441   2.857   6.973 -0.6090  0.4429 -0.4910
   20CHTO    C5 8434   6.519   2.981   6.978  0.2570  0.5663  0.4052
   20CHTO   H18 8435   6.621   2.982   6.941  0.3943  1.0231  0.7888
   20CHTO   C16 8436   6.433   3.083   6.897  0.3001  0.5460 -0.1322
   20CHTO   O11 8437   6.312   3.122   6.959 -0.1220 -0.7067  0.0950
   20CHTO    H5 8438   6.256   3.162   6.896  0.2023 -2.0101 -1.0637
   20CHTO    O3 8439   6.404   2.648   7.038  0.1478 -0.1886  0.2617
   20CHTO    C6 8440   6.386   2.560   6.924  0.1574  0.1147  0.3085
   20CHTO   H19 8441   6.397   2.618   6.832 -1.4764 -1.5366 -0.9667
   20CHTO    C8 8442   6.483   2.442   6.929  0.5108 -0.0799  0.2478
   20CHTO   H21 8443   6.466   2.393   7.025  1.5860  1.3778  1.1854
   20CHTO    O7 8444   6.619   2.485   6.926  0.1726 -0.2867 -0.2072
   20CHTO    H2 8445   6.667   2.433   6.988  1.7323  0.9211 -0.3697
   20CHTO   C12 8446   6.455   2.351   6.801  0.5804  0.4308 -0.6432
   20CHTO   H25 8447   6.479   2.396   6.703 -1.7503 -0.6542 -1.7471
   20CHTO    N3 8448   6.524   2.220   6.807  0.0620 -0.0432 -0.3560
   20CHTO   H12 8449   6.620   2.243   6.850 -0.6400 -1.3067  2.0082
   20CHTO   H13 8450   6.538   2.190   6.704 -0.4030  0.3857 -0.5449
   20CHTO   C15 8451   6.297   2.321   6.790 -0.0268 -1.1035 -0.1871
   20CHTO   H28 8452   6.268   2.241   6.857 -1.1514  0.9379  1.8654
   20CHTO   O10 8453   6.250   2.294   6.652  0.1038 -0.5607  0.3380
   20CHTO    H4 8454   6.157   2.304   6.645  0.0115 -1.9417 -0.7652
   20CHTO    O5 8455   6.206   2.428   6.819 -0.5973  0.0297  0.4976
   20CHTO   C10 8456   6.240   2.513   6.926  0.3635  0.9966  0.0472
   20CHTO   H23 8457   6.227   2.455   7.017 -0.9459  0.8027 -0.2620
   20CHTO   C17 8458   6.137   2.621   6.943  0.1242  0.0424  0.7410
   20CHTO   O12 8459   6.130   2.706   6.829 -0.3596 -0.5438 -0.2558
   20CHTO    H6 8460   6.129   2.796   6.856 -1.5107 -0.8120  0.6459
   21GLOH   H03 8461   0.016   4.160   0.364  0.3091 -0.2132  0.0962
   21GLOH    O1 8462  -0.042   4.199   0.296 -0.1362 -0.3496  0.3885
   21GLOH    C1 8463   0.003   4.168   0.162 -0.0601 -0.7333  0.6867
   21GLOH   H02 8464   0.032   4.261   0.113 -0.9033 -0.9647 -0.2738
   21GLOH   H08 8465  -0.074   4.127   0.097 -0.7431  0.3850  0.7679
   21GLOH    C2 8466   0.130   4.082   0.150  0.3416 -0.1390  0.3494
   21GLOH   H04 8467   0.214   4.147   0.178  0.7087  0.4372 -1.9471
   21GLOH    O2 8468   0.121   3.955   0.232 -0.8111 -0.0410 -0.3107
   21GLOH   H05 8469   0.213   3.925   0.244  0.7848  3.7958 -1.7582
   21GLOH    C3 8470   0.146   4.045   0.002  0.1252 -0.4487  0.0177
   21GLOH   H06 8471   0.055   4.000  -0.039 -0.4454  1.0011 -0.3312
   21GLOH   H07 8472   0.218   3.964  -0.010 -0.3199 -0.6812 -1.2491
   21GLOH    O3 8473   0.173   4.159  -0.081  0.1976  0.0445 -0.0162
   21GLOH   H01 8474   0.158   4.139  -0.175  2.5874  1.0706 -0.6668
   22GLOH   H03 8475   7.245   9.760   6.621 -1.4138  1.3152  2.2083
   22GLOH    O1 8476   7.317   9.776   6.684  0.3810 -0.4244  0.6914
   22GLOH    C1 8477   7.314   9.652   6.770  0.8616  0.1935  0.0355
   22GLOH   H02 8478   7.416   9.629   6.801  0.0864  1.2909  3.6573
   22GLOH   H08 8479   7.294   9.563   6.709  0.9481 -0.4106  0.8750
   22GLOH    C2 8480   7.222   9.666   6.888  0.6685  0.2129 -0.5428
   22GLOH   H04 8481   7.264   9.751   6.943  0.4434  0.9996 -1.5741
   22GLOH    O2 8482   7.091   9.700   6.842 -0.0452  0.2667  0.0992
   22GLOH   H05 8483   7.052   9.630   6.787 -1.6736 -0.4058  2.0655
   22GLOH    C3 8484   7.226   9.539   6.979  0.0321 -0.9812 -0.0442
   22GLOH   H06 8485   7.332   9.514   6.990 -0.6051 -2.5753  3.1236
   22GLOH   H07 8486   7.190   9.450   6.928  1.1315 -0.7532 -1.2604
   22GLOH    O3 8487   7.158   9.557   7.105  0.3718 -0.4931  0.4444
   22GLOH   H01 8488   7.110   9.642   7.100  1.6415  0.2692  1.0812
   23GLOH   H03 8489   7.655   7.966   3.224 -0.2538  0.0240  0.4429
   23GLOH    O1 8490   7.653   7.986   3.129 -0.3104 -0.1312  0.4108
   23GLOH    C1 8491   7.764   7.917   3.061  0.0510  0.3881 -0.8420
   23GLOH   H02 8492   7.729   7.818   3.031 -0.6333  0.3233  0.1533
   23GLOH   H08 8493   7.842   7.895   3.133 -2.2799  0.2270  1.7372
   23GLOH    C2 8494   7.814   7.987   2.933 -0.6093  0.0204 -0.3304
   23GLOH   H04 8495   7.727   8.005   2.867  1.8128  0.0838 -3.6543
   23GLOH    O2 8496   7.873   8.114   2.969 -0.0593 -0.7369 -0.3384
   23GLOH   H05 8497   7.906   8.150   2.885 -3.2762  1.7688 -0.6114
   23GLOH    C3 8498   7.904   7.894   2.847 -0.6732 -0.0735  0.1812
   23GLOH   H06 8499   8.002   7.882   2.893  0.6962 -0.7784 -2.7807
   23GLOH   H07 8500   7.927   7.945   2.753  0.7245 -0.8181  0.1054
   23GLOH    O3 8501   7.856   7.767   2.804 -0.6317 -0.9098  0.3209
   23GLOH   H01 8502   7.787   7.789   2.739 -1.0263  0.0860  1.0465
   24GLOH   H03 8503   1.226   0.446   7.551 -0.9198 -1.1913 -0.5402
   24GLOH    O1 8504   1.240   0.428   7.456  0.1059  0.0887 -0.6410
   24GLOH    C1 8505   1.160   0.322   7.411  0.1356  0.5330  0.6593
   24GLOH   H02 8506   1.222   0.232   7.415 -0.2099  0.2975  0.7023
   24GLOH   H08 8507   1.124   0.335   7.309 -2.6338  3.5178  1.9551
   24GLOH    C2 8508   1.029   0.309   7.498 -0.5348 -0.0780  0.3140
   24GLOH   H04 8509   0.965   0.396   7.479 -0.6507 -0.1362  0.4373
   24GLOH    O2 8510   0.953   0.197   7.438 -0.4901  0.2751 -0.2665
   24GLOH   H05 8511   0.924   0.219   7.348 -1.0852  0.6551  0.0135
   24GLOH    C3 8512   1.068   0.296   7.647  0.2689 -0.5211  0.7936
   24GLOH   H06 8513   1.132   0.210   7.665  1.1315 -0.1286 -0.3999
   24GLOH   H07 8514   0.970   0.276   7.691 -0.0662  2.1188  1.3235
   24GLOH    O3 8515   1.120   0.416   7.701  0.5307 -0.3074 -0.3971
   24GLOH   H01 8516   1.082   0.429   7.790 -0.0475 -0.9693 -0.5417
   25GLOH   H03 8517   0.365   4.135   3.147  0.2004 -0.1888 -0.6656
   25GLOH    O1 8518   0.343   4.204   3.212 -0.2287 -0.4415 -0.5399
   25GLOH    C1 8519   0.234   4.287   3.165  0.1588  0.5002  0.7308
   25GLOH   H02 8520   0.218   4.258   3.061 -0.8390 -0.9797  1.2850
   25GLOH   H08 8521   0.263   4.391   3.181 -3.6110  1.1736  4.0025
   25GLOH    C2 8522   0.100   4.274   3.247 -0.2601  0.0899  0.9225
   25GLOH   H04 8523   0.114   4.323   3.344 -1.4295  2.1552  0.0703
   25GLOH    O2 8524  -0.006   4.341   3.175 -0.6473 -0.2200 -0.3650
   25GLOH   H05 8525  -0.015   4.302   3.087  2.1641 -2.3715  0.2246
   25GLOH    C3 8526   0.073   4.121   3.268 -0.3825  0.1681 -0.2109
   25GLOH   H06 8527   0.065   4.081   3.167  0.7335  0.9554 -0.6183
   25GLOH   H07 8528  -0.020   4.102   3.322  0.2100  0.8733  1.0684
   25GLOH    O3 8529   0.183   4.056   3.340  0.9225 -0.1040  0.2967
   25GLOH   H01 8530   0.262   4.111   3.325  0.6699  0.2084  0.1025
   26GLOH   H03 8531   8.130   1.764   3.543 -1.2327  0.3790  0.9277
   26GLOH    O1 8532   8.129   1.845   3.489 -0.2191  0.5148  1.1179
   26GLOH    C1 8533   8.143   1.806   3.349 -0.0090 -0.0796 -0.4591
   26GLOH   H02 8534   8.211   1.721   3.337  1.0144  0.5294  0.9347
   26GLOH   H08 8535   8.187   1.888   3.292 -0.6157  0.7900  0.3150
   26GLOH    C2 8536   8.012   1.781   3.268  0.3606  0.6530  0.1786
   26GLOH   H04 8537   7.971   1.692   3.318  4.2496 -1.1022  0.4387
   26GLOH    O2 8538   7.922   1.890   3.275  0.0606  0.6438 -0.1122
   26GLOH   H05 8539   7.920   1.923   3.367 -0.6238 -1.0916  0.5066
   26GLOH    C3 8540   8.044   1.733   3.126 -0.4034 -0.5849 -0.4535
   26GLOH   H06 8541   8.120   1.807   3.102 -1.4848  0.4281 -0.8012
   26GLOH   H07 8542   7.961   1.744   3.056 -2.0671 -0.7250  1.4542
   26GLOH    O3 8543   8.108   1.610   3.113  0.1409  0.4142 -0.6230
   26GLOH   H01 8544   8.042   1.539   3.118  0.6551 -0.0179  0.3154
   27GLOH   H03 8545   2.599   5.561   7.280 -1.7368  2.8619 -1.9411
   27GLOH    O1 8546   2.508   5.532   7.297 -0.3881 -0.5575  0.2776
   27GLOH    C1 8547   2.497   5.451   7.415 -0.5514 -0.6434  0.4770
   27GLOH   H02 8548   2.419   5.495   7.477 -0.0917  1.1637 -0.2002
   27GLOH   H08 8549   2.580   5.452   7.485 -0.8110  0.5420  0.7799
   27GLOH    C2 8550   2.461   5.312   7.371  0.5868  0.6901 -0.2049
   27GLOH   H04 8551   2.537   5.284   7.296  0.7231  0.6458 -0.0491
   27GLOH    O2 8552   2.463   5.213   7.478  0.1766  0.6563 -0.6117
   27GLOH   H05 8553   2.389   5.210   7.542 -0.5685 -3.3142 -1.5146
   27GLOH    C3 8554   2.322   5.297   7.293  0.4551  0.3946 -0.3191
   27GLOH   H06 8555   2.315   5.197   7.250 -0.3209  0.1414  0.3734
   27GLOH   H07 8556   2.335   5.358   7.204  2.2431 -0.1158 -0.4334
   27GLOH    O3 8557   2.211   5.345   7.367  0.3656  0.6895 -0.3380
   27GLOH   H01 8558   2.209   5.442   7.361 -0.6582  0.8582  1.9521
   28GLOH   H03 8559   6.385   0.774   6.745  1.7803  0.6532 -0.2814
   28GLOH    O1 8560   6.414   0.703   6.805 -0.2396 -0.1964 -0.2476
   28GLOH    C1 8561   6.466   0.766   6.923  0.0184 -0.5669 -0.5069
   28GLOH   H02 8562   6.454   0.875   6.924  0.0745 -0.5607  1.8320
   28GLOH   H08 8563   6.570   0.741   6.942  0.4146  0.8375 -0.7840
   28GLOH    C2 8564   6.389   0.714   7.047 -0.2263  0.8311 -0.5498
   28GLOH   H04 8565   6.289   0.757   7.057 -1.0300 -1.2702  0.8795
   28GLOH    O2 8566   6.393   0.571   7.047  0.2751 -0.2641  0.2569
   28GLOH   H05 8567   6.449   0.552   6.971 -0.3132 -2.5886  0.3548
   28GLOH    C3 8568   6.464   0.779   7.166 -0.2025 -0.9731  0.5473
   28GLOH   H06 8569   6.573   0.770   7.163 -0.0496  1.0337 -1.1668
   28GLOH   H07 8570   6.426   0.734   7.257  1.7737  2.5762  3.2354
   28GLOH    O3 8571   6.445   0.924   7.173  0.2441 -0.2467  0.1404
   28GLOH   H01 8572   6.485   0.951   7.257  0.8052 -1.1205  0.1637
   29GLOH   H03 8573   4.249   6.707   4.906  0.8692 -0.9643 -0.4554
   29GLOH    O1 8574   4.239   6.680   4.813  0.7493 -0.1670 -0.6727
   29GLOH    C1 8575   4.118   6.615   4.791 -0.4962 -0.1428 -0.0126
   29GLOH   H02 8576   4.044   6.690   4.765  1.3389  1.3047 -1.1956
   29GLOH   H08 8577   4.078   6.575   4.883 -0.3089  1.8227  0.9503
   29GLOH    C2 8578   4.129   6.505   4.688 -0.9674  0.5183 -0.1740
   29GLOH   H04 8579   4.216   6.441   4.710 -0.7132  0.3471 -1.6698
   29GLOH    O2 8580   4.018   6.417   4.683  0.7458 -0.5124 -0.0093
   29GLOH   H05 8581   4.010   6.367   4.600 -1.7972  0.6331 -0.5142
   29GLOH    C3 8582   4.154   6.567   4.555 -0.4840 -0.1741 -0.1030
   29GLOH   H06 8583   4.062   6.616   4.521 -0.3983  0.0474 -0.0172
   29GLOH   H07 8584   4.178   6.488   4.484 -0.2032 -0.7089  0.5911
   29GLOH    O3 8585   4.264   6.651   4.555 -0.3167  0.1597 -0.1676
   29GLOH   H01 8586   4.281   6.668   4.650  0.0682  0.2053 -0.2448
   30GLOH   H03 8587   7.959   8.172   0.230  0.9750  0.1276 -0.8631
   30GLOH    O1 8588   7.979   8.140   0.320  0.7319  0.3510 -0.7267
   30GLOH    C1 8589   8.083   8.032   0.328 -0.0517 -0.3056 -0.4935
   30GLOH   H02 8590   8.162   8.043   0.254  1.8243 -0.5450  1.4481
   30GLOH   H08 8591   8.039   7.935   0.304 -1.3025  0.5606 -1.8585
   30GLOH    C2 8592   8.149   8.030   0.466 -0.4835 -0.1894 -0.0605
   30GLOH   H04 8593   8.061   8.030   0.532 -0.1871  2.2073  0.3863
   30GLOH    O2 8594   8.221   7.906   0.484  0.5576 -0.3822  0.0793
   30GLOH   H05 8595   8.246   7.899   0.577  0.7708 -0.2785  0.0308
   30GLOH    C3 8596   8.240   8.155   0.497 -0.2968  0.5552  0.9451
   30GLOH   H06 8597   8.273   8.147   0.601  0.1158  1.0074  0.8511
   30GLOH   H07 8598   8.181   8.246   0.487  0.2789  0.8673  0.2732
   30GLOH    O3 8599   8.339   8.167   0.395 -0.1379  0.3139  0.1238
   30GLOH   H01 8600   8.394   8.087   0.390 -1.5255 -0.6659  0.4667
   31GLOH   H03 8601   4.671   8.603   4.196 -2.3368 -1.4153 -0.9871
   31GLOH    O1 8602   4.630   8.681   4.155 -0.2884  0.1117 -0.2248
   31GLOH    C1 8603   4.727   8.752   4.083  0.6048 -0.1951  0.3221
   31GLOH   H02 8604   4.819   8.756   4.140  0.0904  0.7782  1.1175
   31GLOH   H08 8605   4.692   8.855   4.068  1.6250 -0.1789 -2.1729
   31GLOH    C2 8606   4.760   8.683   3.951 -0.1821 -1.0446 -0.3627
   31GLOH   H04 8607   4.830   8.746   3.894 -0.2780  0.5403  1.1982
   31GLOH    O2 8608   4.837   8.566   3.982 -0.3271  0.4620 -0.4490
   31GLOH   H05 8609   4.922   8.591   4.021  0.5120 -1.7320 -0.7626
   31GLOH    C3 8610   4.632   8.655   3.865  0.1124  0.1072  0.1803
   31GLOH   H06 8611   4.555   8.613   3.930 -0.2811 -0.5382 -0.6915
   31GLOH   H07 8612   4.653   8.583   3.786  2.5527  0.2070  0.6927
   31GLOH    O3 8613   4.577   8.776   3.792 -0.1021  0.4084  0.3252
   31GLOH   H01 8614   4.519   8.827   3.851  0.4128  4.1571 -2.2425
   32GLOH   H03 8615   7.374   6.831   7.967 -1.7653 -0.0594 -0.0088
   32GLOH    O1 8616   7.384   6.843   8.063  0.2327 -1.1207 -0.0722
   32GLOH    C1 8617   7.452   6.736   8.129 -0.4688  0.0695 -0.0863
   32GLOH   H02 8618   7.380   6.655   8.142 -0.7420  0.0771 -1.4941
   32GLOH   H08 8619   7.492   6.763   8.227 -1.2476  0.1768  0.2074
   32GLOH    C2 8620   7.574   6.687   8.044  0.9813 -0.9195 -0.3688
   32GLOH   H04 8621   7.525   6.637   7.959 -1.9671  1.6390 -0.2806
   32GLOH    O2 8622   7.648   6.804   7.990 -0.2285  0.4953 -0.3976
   32GLOH   H05 8623   7.610   6.885   8.026 -0.2708  2.1392 -3.8748
   32GLOH    C3 8624   7.656   6.580   8.125  0.8176 -0.1352  1.0756
   32GLOH   H06 8625   7.672   6.620   8.226 -0.5868  0.7387  0.9664
   32GLOH   H07 8626   7.754   6.575   8.078  1.7715  1.6950  2.7601
   32GLOH    O3 8627   7.603   6.453   8.146  0.0503  0.1814 -0.0363
   32GLOH   H01 8628   7.650   6.395   8.084  1.8534  0.5892  0.9084
   33GLOH   H03 8629   5.842   1.262   1.028  1.5858 -0.7649  0.3305
   33GLOH    O1 8630   5.916   1.320   1.002  0.8551 -0.1014 -0.2940
   33GLOH    C1 8631   5.945   1.390   1.119 -0.1546 -0.1703  0.4592
   33GLOH   H02 8632   5.865   1.464   1.130  2.1793  2.6882 -0.9634
   33GLOH   H08 8633   6.035   1.451   1.110 -0.6214  0.7692  1.9090
   33GLOH    C2 8634   5.953   1.305   1.248 -0.0028 -0.5933 -0.6878
   33GLOH   H04 8635   6.023   1.223   1.226  1.0203  0.0856  0.0163
   33GLOH    O2 8636   5.987   1.381   1.366  0.3544  0.6801 -0.7649
   33GLOH   H05 8637   6.083   1.369   1.377  0.3116  2.1119  1.4212
   33GLOH    C3 8638   5.822   1.225   1.265 -0.1041 -0.0418  0.3184
   33GLOH   H06 8639   5.745   1.302   1.266 -0.6653 -0.5720 -1.0786
   33GLOH   H07 8640   5.817   1.175   1.362  1.0339  0.2589  0.5447
   33GLOH    O3 8641   5.806   1.124   1.165  0.6004  0.1173 -0.4545
   33GLOH   H01 8642   5.720   1.079   1.166 -0.5094  2.1813  0.4397
   34GLOH   H03 8643   8.479   0.701   7.754  0.2595 -1.0767  0.8469
   34GLOH    O1 8644   8.395   0.661   7.729  0.2483 -0.5190 -0.0159
   34GLOH    C1 8645   8.352   0.550   7.807  0.3160  0.2099  0.4429
   34GLOH   H02 8646   8.282   0.577   7.886  0.6320 -1.7336  1.4035
   34GLOH   H08 8647   8.437   0.505   7.858  0.1693 -0.5794  0.0018
   34GLOH    C2 8648   8.289   0.439   7.717 -0.3852  0.0068 -0.1734
   34GLOH   H04 8649   8.280   0.359   7.792  0.5717  0.8116  0.8134
   34GLOH    O2 8650   8.160   0.472   7.670  0.5822  0.0556  0.4872
   34GLOH   H05 8651   8.114   0.492   7.753 -0.7654 -1.5169  0.1450
   34GLOH    C3 8652   8.377   0.399   7.600 -0.1980  0.5401  0.5134
   34GLOH   H06 8653   8.392   0.495   7.550 -0.8611  0.9040  1.0031
   34GLOH   H07 8654   8.322   0.335   7.531 -1.1293  2.1644 -0.2890
   34GLOH    O3 8655   8.504   0.347   7.645 -0.4536 -0.4772 -0.6265
   34GLOH   H01 8656   8.577   0.403   7.614 -1.5286  0.1860 -1.9826
   35GLOH   H03 8657   9.717   7.276   5.697  1.2880  0.0098  1.4042
   35GLOH    O1 8658   9.780   7.320   5.637  0.2683  0.2358  0.4995
   35GLOH    C1 8659   9.711   7.408   5.551  0.6813  0.1214  0.6775
   35GLOH   H02 8660   9.640   7.465   5.610  0.6374 -0.7170  1.4505
   35GLOH   H08 8661   9.651   7.339   5.490  0.1915  2.6639 -1.8234
   35GLOH    C2 8662   9.793   7.506   5.473  0.3572  0.4147 -0.2401
   35GLOH   H04 8663   9.866   7.445   5.417  0.1225  1.0411 -1.2266
   35GLOH    O2 8664   9.709   7.577   5.380  0.2194  0.3766 -0.0736
   35GLOH   H05 8665   9.757   7.604   5.300  0.9407 -2.9520 -0.8537
   35GLOH    C3 8666   9.867   7.594   5.579  0.6741 -0.1993  0.1034
   35GLOH   H06 8667   9.928   7.535   5.648  1.9871  0.6072 -0.3452
   35GLOH   H07 8668   9.792   7.651   5.634 -0.4769 -2.6066  1.1348
   35GLOH    O3 8669   9.962   7.692   5.531 -0.4153  0.4855 -0.3306
   35GLOH   H01 8670  10.031   7.651   5.477 -0.0510  2.6402 -1.5637
   36GLOH   H03 8671   3.926   8.093   7.343 -0.4338 -0.7001  0.3642
   36GLOH    O1 8672   4.020   8.091   7.366 -0.3411  0.3635  0.0947
   36GLOH    C1 8673   4.040   8.116   7.508 -0.1673 -0.1375  0.1912
   36GLOH   H02 8674   4.118   8.051   7.547 -1.3119 -1.1897  0.7896
   36GLOH   H08 8675   3.949   8.084   7.559 -0.8606 -1.7255 -1.9569
   36GLOH    C2 8676   4.093   8.261   7.541 -0.0610  0.4361  0.0539
   36GLOH   H04 8677   4.186   8.266   7.481 -1.5140  4.7474 -2.0136
   36GLOH    O2 8678   4.002   8.358   7.491 -0.0177 -0.4676  0.3861
   36GLOH   H05 8679   3.983   8.332   7.400  2.2645 -1.0155  0.0479
   36GLOH    C3 8680   4.111   8.281   7.694 -0.2504 -0.7624 -0.4618
   36GLOH   H06 8681   4.017   8.319   7.735  1.8546  1.4636  2.5919
   36GLOH   H07 8682   4.179   8.367   7.697 -2.7551  1.2457  1.4997
   36GLOH    O3 8683   4.161   8.168   7.763  0.1578  0.0332  0.5173
   36GLOH   H01 8684   4.258   8.169   7.752  0.2716 -1.7248  1.1446
   37GLOH   H03 8685   5.312   4.025   7.356 -0.7044 -0.2604 -0.0222
   37GLOH    O1 8686   5.271   4.045   7.270 -0.6851  0.2639  0.0904
   37GLOH    C1 8687   5.309   4.172   7.216 -0.4987 -0.3988 -0.3690
   37GLOH   H02 8688   5.407   4.164   7.169 -0.8716 -0.6997 -1.1038
   37GLOH   H08 8689   5.313   4.249   7.292  0.7912 -0.5339 -0.2793
   37GLOH    C2 8690   5.202   4.232   7.118  0.5520  0.2887  0.5400
   37GLOH   H04 8691   5.107   4.232   7.173  0.4404 -2.2874  0.4444
   37GLOH    O2 8692   5.234   4.364   7.074  0.1050 -0.2995  0.2945
   37GLOH   H05 8693   5.159   4.425   7.090  1.5367  0.8898  2.6962
   37GLOH    C3 8694   5.168   4.134   7.005  0.9575  1.1590 -0.1313
   37GLOH   H06 8695   5.252   4.116   6.939 -0.9552 -0.1143 -2.3128
   37GLOH   H07 8696   5.098   4.189   6.942 -2.8856 -0.9598  2.0364
   37GLOH    O3 8697   5.127   4.004   7.049 -0.0373 -0.0599  0.4506
   37GLOH   H01 8698   5.189   3.979   7.120 -0.0045 -1.3783 -0.0256
   38GLOH   H03 8699  -0.033   0.253   5.264  0.2927  0.5639 -0.1858
   38GLOH    O1 8700  -0.099   0.250   5.192 -0.1553 -0.1924  0.2459
   38GLOH    C1 8701  -0.054   0.138   5.109  0.7625 -0.4876  0.0472
   38GLOH   H02 8702  -0.118   0.135   5.020  2.6287 -2.0691 -1.2976
   38GLOH   H08 8703  -0.077   0.044   5.159 -4.6193  1.2676  1.2530
   38GLOH    C2 8704   0.092   0.144   5.058 -0.6850 -0.0185  0.3433
   38GLOH   H04 8705   0.163   0.124   5.140  2.1397  0.6542 -1.8725
   38GLOH    O2 8706   0.124   0.046   4.959 -0.1708  0.0665 -0.4348
   38GLOH   H05 8707   0.159   0.096   4.884  1.0798 -0.0469  0.0618
   38GLOH    C3 8708   0.139   0.279   5.008  0.2396 -0.6017  0.0846
   38GLOH   H06 8709   0.246   0.284   4.985  0.1725 -0.6246 -0.2411
   38GLOH   H07 8710   0.113   0.355   5.081  2.8203  1.5657 -1.1771
   38GLOH    O3 8711   0.060   0.311   4.894  0.7561  0.0312  0.5183
   38GLOH   H01 8712   0.068   0.406   4.878  1.6267 -0.3585 -1.5045
   39GLOH   H03 8713   3.233   8.771   6.720 -0.1532  2.3880  1.6020
   39GLOH    O1 8714   3.162   8.732   6.774 -0.0460 -0.3195 -0.0993
   39GLOH    C1 8715   3.078   8.655   6.692 -0.0856  0.5010  0.0080
   39GLOH   H02 8716   2.998   8.614   6.753  0.5624 -0.6736  0.0787
   39GLOH   H08 8717   3.141   8.576   6.650  0.9285  0.6671  1.2090
   39GLOH    C2 8718   3.004   8.734   6.584  0.0784 -0.4954  0.0225
   39GLOH   H04 8719   2.932   8.798   6.636  0.5712  1.4726 -1.6678
   39GLOH    O2 8720   3.092   8.808   6.501 -0.6172  0.3624  0.2071
   39GLOH   H05 8721   3.051   8.892   6.478 -2.8969 -0.7307  0.1767
   39GLOH    C3 8722   2.918   8.639   6.494 -0.1588  0.1856  0.0069
   39GLOH   H06 8723   2.981   8.561   6.452 -1.0261 -0.1014 -0.7828
   39GLOH   H07 8724   2.871   8.701   6.417 -0.1364 -0.4049 -0.4875
   39GLOH    O3 8725   2.810   8.570   6.562  0.0082  0.1141 -0.0867
   39GLOH   H01 8726   2.743   8.558   6.492 -1.3394 -0.3242  1.2740
   40GLOH   H03 8727   0.865   3.937   3.775  0.9422 -0.1430 -1.1102
   40GLOH    O1 8728   0.873   4.034   3.770  0.1645 -0.0157 -0.0305
   40GLOH    C1 8729   0.879   4.102   3.900 -0.3145  0.5019  0.0638
   40GLOH   H02 8730   0.782   4.132   3.939 -1.4215  0.0048 -2.2412
   40GLOH   H08 8731   0.930   4.198   3.896 -0.4154  0.6386  1.5616
   40GLOH    C2 8732   0.945   4.019   4.012  0.0132  0.2627 -0.1260
   40GLOH   H04 8733   0.901   3.918   4.014  1.7667 -0.5770 -2.1011
   40GLOH    O2 8734   1.077   4.003   3.978 -0.4425 -0.1346  0.5524
   40GLOH   H05 8735   1.113   4.088   3.949  1.3700 -1.9627 -2.7898
   40GLOH    C3 8736   0.928   4.079   4.152 -0.1603 -0.8342 -0.6353
   40GLOH   H06 8737   0.974   4.002   4.214  0.9078 -1.7663 -2.5412
   40GLOH   H07 8738   0.822   4.077   4.180 -0.4311 -0.7914 -1.6354
   40GLOH    O3 8739   0.982   4.213   4.168  0.4288  0.1374  0.1362
   40GLOH   H01 8740   0.964   4.246   4.258 -0.5215 -1.5244  0.5773
   41GLOH   H03 8741   1.025   2.886   3.585 -0.3937  0.0564 -0.9741
   41GLOH    O1 8742   1.071   2.801   3.575 -0.0368  0.1257  0.0200
   41GLOH    C1 8743   1.194   2.819   3.498  0.0792  0.1881 -1.0382
   41GLOH   H02 8744   1.269   2.776   3.564 -2.2393  0.6494  1.9811
   41GLOH   H08 8745   1.214   2.925   3.480  1.5301  0.0304 -0.4210
   41GLOH    C2 8746   1.185   2.729   3.377  0.0957 -0.0723 -0.2582
   41GLOH   H04 8747   1.288   2.733   3.339  0.8555 -0.5432  1.6907
   41GLOH    O2 8748   1.155   2.593   3.408  0.5445  0.1115 -0.1611
   41GLOH   H05 8749   1.095   2.582   3.483 -0.7111 -0.1357 -1.1878
   41GLOH    C3 8750   1.082   2.804   3.284  0.3316 -0.0652 -0.2275
   41GLOH   H06 8751   0.992   2.824   3.342 -0.4030 -0.8308 -1.0804
   41GLOH   H07 8752   1.059   2.735   3.202  0.1782 -0.8384  0.4649
   41GLOH    O3 8753   1.130   2.938   3.241  0.2718 -0.8170  0.4579
   41GLOH   H01 8754   1.059   3.003   3.221  0.3223 -0.4745  1.3736
   42GLOH   H03 8755   2.652   7.437   0.774 -1.4562 -0.9606 -0.8150
   42GLOH    O1 8756   2.600   7.519   0.785  0.1084 -0.0112 -0.3774
   42GLOH    C1 8757   2.690   7.624   0.833  0.7448  0.1325 -0.0570
   42GLOH   H02 8758   2.726   7.696   0.759 -0.9540  1.6593  0.5527
   42GLOH   H08 8759   2.780   7.579   0.873 -0.6278 -1.9853  0.7000
   42GLOH    C2 8760   2.638   7.700   0.959  0.7370 -0.5420 -0.4545
   42GLOH   H04 8761   2.622   7.630   1.042  1.5138 -1.0194 -0.7014
   42GLOH    O2 8762   2.736   7.805   1.006 -0.3437  0.5530 -0.1064
   42GLOH   H05 8763   2.713   7.887   0.960  2.5487  1.5766  0.1704
   42GLOH    C3 8764   2.499   7.758   0.929 -0.6882  0.8799 -0.2254
   42GLOH   H06 8765   2.438   7.667   0.922  1.2636 -0.4259 -0.6306
   42GLOH   H07 8766   2.503   7.802   0.830  0.0159 -1.1176 -1.1195
   42GLOH    O3 8767   2.452   7.844   1.036  0.3120 -0.1353  0.1634
   42GLOH   H01 8768   2.479   7.792   1.114 -1.3082 -0.7209  0.3405
   43GLOH   H03 8769   4.636   8.714   7.830  0.5788  0.3988  0.3193
   43GLOH    O1 8770   4.695   8.642   7.860 -0.8029 -0.8229  0.1728
   43GLOH    C1 8771   4.740   8.563   7.743  0.5031  0.4724  0.4482
   43GLOH   H02 8772   4.778   8.627   7.663 -1.1184  0.3522 -0.4415
   43GLOH   H08 8773   4.656   8.510   7.699  0.6464  1.2864 -0.8392
   43GLOH    C2 8774   4.845   8.451   7.771  0.5593  0.2529 -0.2049
   43GLOH   H04 8775   4.792   8.382   7.839  4.3026 -1.7172  0.8255
   43GLOH    O2 8776   4.893   8.388   7.654 -0.0697 -0.2460 -0.4688
   43GLOH   H05 8777   4.823   8.337   7.611 -0.5307  0.5169 -0.6397
   43GLOH    C3 8778   4.963   8.506   7.848 -0.0077 -0.0341 -0.3144
   43GLOH   H06 8779   5.029   8.566   7.786  0.6061  0.5321  0.8571
   43GLOH   H07 8780   5.028   8.426   7.883 -0.8229 -0.4175  0.3592
   43GLOH    O3 8781   4.917   8.588   7.960 -0.0222  0.4068  0.3316
   43GLOH   H01 8782   4.825   8.607   7.934 -0.0310  1.1910  0.9170
   44GLOH   H03 8783   6.358   3.605   0.148  0.4114  0.4763 -1.7535
   44GLOH    O1 8784   6.451   3.583   0.132  0.5384 -0.4357  0.0353
   44GLOH    C1 8785   6.524   3.678   0.056  0.2926 -0.0576 -0.1543
   44GLOH   H02 8786   6.488   3.778   0.079  2.1675  0.8674 -1.2068
   44GLOH   H08 8787   6.503   3.654  -0.048  0.9877  0.5351 -0.4294
   44GLOH    C2 8788   6.679   3.674   0.082 -0.3241 -0.0058  0.0356
   44GLOH   H04 8789   6.716   3.748   0.010 -2.6986  1.1073 -0.0770
   44GLOH    O2 8790   6.717   3.718   0.213  0.4998  0.1632 -0.3062
   44GLOH   H05 8791   6.650   3.783   0.240  3.5778  1.9701  3.2851
   44GLOH    C3 8792   6.738   3.535   0.043  0.3407  0.0458 -0.2933
   44GLOH   H06 8793   6.698   3.463   0.114 -1.4199  2.0830  0.8164
   44GLOH   H07 8794   6.845   3.546   0.054  0.1863  1.2580  0.0281
   44GLOH    O3 8795   6.704   3.494  -0.088  0.7907 -0.2316 -0.0968
   44GLOH   H01 8796   6.611   3.468  -0.093  0.5978  0.2140  1.0954
   45GLOH   H03 8797   2.244   3.728   1.392 -0.8469 -0.9731  0.9804
   45GLOH    O1 8798   2.207   3.813   1.362  0.6937 -0.6203 -0.0056
   45GLOH    C1 8799   2.074   3.822   1.415 -0.3404  0.4705 -0.6773
   45GLOH   H02 8800   2.070   3.792   1.520  0.5836 -3.4727 -1.6947
   45GLOH   H08 8801   2.005   3.754   1.365  0.0915 -0.1122 -0.4811
   45GLOH    C2 8802   2.012   3.959   1.405  0.3265  0.0533 -0.0813
   45GLOH   H04 8803   2.021   4.005   1.306 -1.7980 -1.1185 -0.8494
   45GLOH    O2 8804   1.876   3.961   1.441  0.0681 -0.0471 -0.4222
   45GLOH   H05 8805   1.826   3.900   1.385 -0.7567  0.2926 -0.0582
   45GLOH    C3 8806   2.092   4.052   1.500 -0.3734 -0.1245  0.2032
   45GLOH   H06 8807   2.049   4.151   1.493 -0.6715 -0.3373 -0.8884
   45GLOH   H07 8808   2.195   4.060   1.464  0.8382  1.4213  3.6713
   45GLOH    O3 8809   2.089   4.024   1.636  0.2816 -0.4153 -0.1461
   45GLOH   H01 8810   1.995   4.006   1.658  0.2515  0.5071  0.4893
   46GLOH   H03 8811   4.471   4.498   5.064 -3.0894 -0.6755  1.6703
   46GLOH    O1 8812   4.483   4.593   5.083  0.0412 -0.8353  0.7630
   46GLOH    C1 8813   4.607   4.650   5.026 -0.0187  0.8128  0.3421
   46GLOH   H02 8814   4.657   4.727   5.085  0.0790  1.4621 -0.5744
   46GLOH   H08 8815   4.584   4.693   4.929 -1.2727  0.0613  0.2954
   46GLOH    C2 8816   4.723   4.546   5.010  0.3792  1.0313 -0.3348
   46GLOH   H04 8817   4.814   4.593   4.971  1.5211 -0.3002  0.6487
   46GLOH    O2 8818   4.761   4.488   5.140  0.3925  0.4223  0.2898
   46GLOH   H05 8819   4.685   4.446   5.183 -0.5276  2.4201  0.6635
   46GLOH    C3 8820   4.676   4.436   4.913 -0.3101 -0.9869  0.1917
   46GLOH   H06 8821   4.766   4.376   4.901 -0.0155 -0.6021  0.4917
   46GLOH   H07 8822   4.646   4.476   4.816 -1.7288 -0.4617  0.8267
   46GLOH    O3 8823   4.562   4.362   4.955  0.1285 -0.5107 -0.8391
   46GLOH   H01 8824   4.592   4.270   4.961 -0.8068 -0.7166  0.9862
   47GLOH   H03 8825   1.957   4.812   6.537  0.5033 -0.2950  0.1387
   47GLOH    O1 8826   1.874   4.848   6.575  0.5353 -0.1863  0.1083
   47GLOH    C1 8827   1.762   4.779   6.511 -0.1531  0.3468 -0.2136
   47GLOH   H02 8828   1.764   4.676   6.548  1.4047  1.0926  1.8689
   47GLOH   H08 8829   1.773   4.763   6.404 -1.3038 -1.7242 -0.0548
   47GLOH    C2 8830   1.627   4.844   6.549 -0.8749  0.8508 -0.4907
   47GLOH   H04 8831   1.613   4.944   6.506 -0.4359  1.0001 -0.2877
   47GLOH    O2 8832   1.516   4.766   6.502  0.1130 -0.5366  0.1508
   47GLOH   H05 8833   1.515   4.758   6.405  2.0907  0.4615  0.0291
   47GLOH    C3 8834   1.616   4.850   6.704  0.1508 -0.0718  1.0120
   47GLOH   H06 8835   1.527   4.908   6.725 -0.3923 -1.0212  1.3521
   47GLOH   H07 8836   1.697   4.917   6.734  0.3346  0.4369 -0.5515
   47GLOH    O3 8837   1.611   4.719   6.763  0.7909  0.2840 -0.4170
   47GLOH   H01 8838   1.549   4.724   6.837  0.6887  0.5001 -0.5165
   48GLOH   H03 8839   7.929   3.739   8.181  0.2794  1.1641  1.7732
   48GLOH    O1 8840   8.025   3.724   8.187  0.1698 -0.4214 -0.0670
   48GLOH    C1 8841   8.086   3.712   8.055 -0.0508 -0.2627 -0.3646
   48GLOH   H02 8842   8.061   3.617   8.009 -0.0223  0.2849 -1.5105
   48GLOH   H08 8843   8.195   3.708   8.059 -0.0762 -1.7375 -0.8036
   48GLOH    C2 8844   8.043   3.823   7.960  0.8643 -0.0794 -0.3091
   48GLOH   H04 8845   8.106   3.826   7.870  0.9533  0.3336 -0.2328
   48GLOH    O2 8846   7.902   3.812   7.922 -0.3698  0.1242 -0.5705
   48GLOH   H05 8847   7.864   3.781   8.005  0.4404  1.3487  0.2637
   48GLOH    C3 8848   8.056   3.959   8.035 -0.1090  0.5483 -0.2077
   48GLOH   H06 8849   7.973   3.960   8.106 -0.2089 -0.0302 -0.3083
   48GLOH   H07 8850   8.034   4.036   7.961  1.7936  1.7738  0.4639
   48GLOH    O3 8851   8.186   4.004   8.087 -0.0167  0.4125 -0.9011
   48GLOH   H01 8852   8.222   4.065   8.019  1.6174  0.9955  0.4612
   49GLOH   H03 8853   4.325   0.517   1.574  0.7888  1.0219 -1.3615
   49GLOH    O1 8854   4.381   0.565   1.637  0.1464  0.1125 -0.0826
   49GLOH    C1 8855   4.303   0.683   1.665 -0.2066  0.0298  0.2910
   49GLOH   H02 8856   4.297   0.687   1.774  0.0092 -0.8553  0.3422
   49GLOH   H08 8857   4.205   0.677   1.618 -0.1611  2.2269 -0.1296
   49GLOH    C2 8858   4.377   0.818   1.629  0.1579  0.7257  0.2884
   49GLOH   H04 8859   4.413   0.809   1.526  1.2153  0.5513  0.6655
   49GLOH    O2 8860   4.282   0.926   1.641 -0.2981 -0.6414  0.2175
   49GLOH   H05 8861   4.308   1.011   1.600 -0.2915  0.5405  2.5732
   49GLOH    C3 8862   4.503   0.836   1.718  0.6123  0.3740  0.2238
   49GLOH   H06 8863   4.478   0.846   1.824  0.6772 -0.7095  0.3437
   49GLOH   H07 8864   4.556   0.926   1.687 -0.1484  0.7533  0.0294
   49GLOH    O3 8865   4.588   0.715   1.706  0.2462  0.1330  0.2787
   49GLOH   H01 8866   4.529   0.642   1.679  3.1745 -1.1215 -3.2442
   50GLOH   H03 8867   4.464   7.344   1.472 -0.2510  4.5420 -1.1618
   50GLOH    O1 8868   4.536   7.323   1.410 -0.1682  0.9035  0.0669
   50GLOH    C1 8869   4.516   7.195   1.349 -0.1822  0.1553 -0.1279
   50GLOH   H02 8870   4.413   7.191   1.314  0.1504 -1.9798 -0.9621
   50GLOH   H08 8871   4.536   7.119   1.424  1.1409  0.7206  0.1153
   50GLOH    C2 8872   4.618   7.171   1.234  0.6883  0.2745 -0.3776
   50GLOH   H04 8873   4.581   7.245   1.162 -0.6425  1.7948  1.8206
   50GLOH    O2 8874   4.757   7.199   1.265  0.2541  1.1313 -0.0445
   50GLOH   H05 8875   4.770   7.290   1.298 -0.2094  0.8955  0.8159
   50GLOH    C3 8876   4.600   7.025   1.190 -0.5558 -0.3431  0.3481
   50GLOH   H06 8877   4.625   6.971   1.281  2.3988  1.0434  0.4160
   50GLOH   H07 8878   4.662   6.999   1.104 -0.7076  2.7308 -0.7641
   50GLOH    O3 8879   4.470   7.000   1.144 -0.1043 -0.2499  0.1906
   50GLOH   H01 8880   4.443   6.912   1.176 -0.3155  0.1928  1.2613
   51GLOH   H03 8881   7.726  10.128   7.912  1.2467  0.3655  0.9583
   51GLOH    O1 8882   7.762  10.042   7.943  0.8479 -0.0822  0.2018
   51GLOH    C1 8883   7.886  10.062   8.012 -0.2776  0.5397 -0.5922
   51GLOH   H02 8884   7.890  10.164   8.050 -1.6710  0.3116  0.1832
   51GLOH   H08 8885   7.975  10.051   7.950 -0.1236 -1.1555 -0.1003
   51GLOH    C2 8886   7.902   9.957   8.126  0.8818  0.1527  0.0728
   51GLOH   H04 8887   8.003   9.962   8.169  1.1423 -1.4688 -0.3060
   51GLOH    O2 8888   7.808   9.965   8.231 -0.6516  0.9296 -0.4803
   51GLOH   H05 8889   7.736  10.024   8.202 -1.0504  1.1410  0.8965
   51GLOH    C3 8890   7.894   9.812   8.074 -0.4709 -0.0798  0.3393
   51GLOH   H06 8891   7.803   9.799   8.016 -1.6132 -1.4921  2.4088
   51GLOH   H07 8892   7.886   9.744   8.158 -1.3871 -3.1576 -2.1677
   51GLOH    O3 8893   8.012   9.784   7.992  0.0208 -0.8999 -0.0221
   51GLOH   H01 8894   7.986   9.788   7.898 -0.3428 -2.4004  0.0029
   52GLOH   H03 8895   7.940   8.538   6.174 -1.8469  0.0434 -2.0885
   52GLOH    O1 8896   7.865   8.517   6.234  0.0042  0.8526  0.6075
   52GLOH    C1 8897   7.754   8.471   6.152  0.0603  0.2401 -0.1364
   52GLOH   H02 8898   7.683   8.413   6.211  0.1571 -0.3893 -0.6219
   52GLOH   H08 8899   7.794   8.402   6.078 -1.5940 -1.1807  0.2626
   52GLOH    C2 8900   7.667   8.580   6.088  0.0138 -0.0964 -0.0552
   52GLOH   H04 8901   7.733   8.661   6.053 -1.0540  1.2384  0.9793
   52GLOH    O2 8902   7.580   8.546   5.977  0.2101 -0.5817  0.2468
   52GLOH   H05 8903   7.568   8.618   5.913 -0.7686 -0.3069  0.7363
   52GLOH    C3 8904   7.586   8.648   6.196 -0.7243  0.0194 -0.6304
   52GLOH   H06 8905   7.508   8.585   6.239 -1.5305  0.9469 -0.7302
   52GLOH   H07 8906   7.533   8.733   6.152 -0.9472 -0.1368 -0.6667
   52GLOH    O3 8907   7.675   8.695   6.293 -0.1386  0.0303  0.2361
   52GLOH   H01 8908   7.727   8.618   6.322 -0.1411 -0.1971 -0.3634
   53GLOH   H03 8909   4.488   1.538   5.740  0.1931  0.1102  2.4094
   53GLOH    O1 8910   4.453   1.623   5.773  0.9216  1.1840  0.4755
   53GLOH    C1 8911   4.561   1.715   5.788  0.4085 -0.4917  0.1210
   53GLOH   H02 8912   4.526   1.817   5.774  0.4096 -0.5819 -0.5812
   53GLOH   H08 8913   4.633   1.698   5.709  0.3756 -0.8554  0.1700
   53GLOH    C2 8914   4.633   1.692   5.924 -0.6949  0.4910  0.1487
   53GLOH   H04 8915   4.661   1.586   5.927  0.4102  0.7759  0.3099
   53GLOH    O2 8916   4.751   1.777   5.929 -0.1826 -0.2603 -0.1617
   53GLOH   H05 8917   4.805   1.765   6.010  1.4154 -0.3255 -1.2151
   53GLOH    C3 8918   4.544   1.719   6.044  0.3589 -0.5575  0.3646
   53GLOH   H06 8919   4.475   1.634   6.043  0.7509 -0.8773  0.1483
   53GLOH   H07 8920   4.486   1.809   6.022  1.4114 -0.6475 -3.1265
   53GLOH    O3 8921   4.604   1.733   6.178 -0.5312  0.4654  0.1624
   53GLOH   H01 8922   4.696   1.702   6.171 -0.2077  1.6328 -0.9725
   54GLOH   H03 8923   5.763   4.808   7.615 -1.6991 -1.2579 -0.9436
   54GLOH    O1 8924   5.706   4.886   7.605 -0.3849 -0.0831  0.4323
   54GLOH    C1 8925   5.737   4.966   7.725 -0.4028  0.9923 -0.0814
   54GLOH   H02 8926   5.713   5.071   7.707 -0.2586  0.6325 -2.5350
   54GLOH   H08 8927   5.843   4.968   7.751 -0.1629  0.5988 -1.0062
   54GLOH    C2 8928   5.663   4.922   7.850  1.1253 -0.0533  0.4092
   54GLOH   H04 8929   5.653   4.812   7.845 -1.4804  0.2120 -0.6155
   54GLOH    O2 8930   5.744   4.954   7.962  0.3352 -0.4294  0.1329
   54GLOH   H05 8931   5.692   4.933   8.041 -2.8573 -1.3174 -2.0853
   54GLOH    C3 8932   5.527   4.991   7.863  0.3360 -0.7328 -0.1123
   54GLOH   H06 8933   5.476   4.995   7.767 -1.0873  1.7636  0.6942
   54GLOH   H07 8934   5.543   5.098   7.876 -2.5329 -0.3073  0.3394
   54GLOH    O3 8935   5.446   4.930   7.967 -0.4494  0.3922 -0.5425
   54GLOH   H01 8936   5.500   4.945   8.047  0.0315 -1.0672 -0.5778
   55GLOH   H03 8937   4.055   8.676   2.160 -0.4162  0.1064 -0.2582
   55GLOH    O1 8938   4.026   8.627   2.080  0.6953  0.0948 -0.6557
   55GLOH    C1 8939   3.940   8.530   2.137  0.0022  0.4373 -0.3353
   55GLOH   H02 8940   3.836   8.562   2.125 -0.2156  0.2451  0.8989
   55GLOH   H08 8941   3.960   8.522   2.244  1.0509 -1.2447 -0.6432
   55GLOH    C2 8942   3.951   8.388   2.081 -0.0304 -0.9068  0.4722
   55GLOH   H04 8943   4.047   8.340   2.107 -0.5894 -3.3716 -1.7328
   55GLOH    O2 8944   3.845   8.306   2.133  0.3195  0.2909  0.9058
   55GLOH   H05 8945   3.873   8.212   2.136 -1.4914 -0.2937  0.2431
   55GLOH    C3 8946   3.977   8.394   1.926  0.2711  0.0061 -0.4885
   55GLOH   H06 8947   3.890   8.445   1.884  0.2465 -0.8505 -1.4923
   55GLOH   H07 8948   3.972   8.295   1.882  1.6786 -0.2821 -0.0283
   55GLOH    O3 8949   4.097   8.457   1.887  0.1298 -0.0656 -0.4290
   55GLOH   H01 8950   4.107   8.521   1.960 -0.9782 -0.7448  0.3372
   56GLOH   H03 8951   1.033   8.991   6.503 -0.4893  1.2027 -0.5151
   56GLOH    O1 8952   1.014   9.010   6.410 -0.3531  0.1718 -0.7658
   56GLOH    C1 8953   1.115   9.085   6.349 -0.3523 -0.9124  0.3485
   56GLOH   H02 8954   1.141   9.170   6.412  0.3514 -1.1884  0.4335
   56GLOH   H08 8955   1.086   9.130   6.254  2.1810  0.5617  0.2317
   56GLOH    C2 8956   1.233   8.999   6.305 -0.0880 -0.3527  0.5910
   56GLOH   H04 8957   1.273   8.949   6.394  0.7423 -0.9037 -0.0916
   56GLOH    O2 8958   1.194   8.903   6.206 -0.2596 -0.1115  0.1016
   56GLOH   H05 8959   1.172   8.955   6.127 -1.6238 -0.3098  0.3347
   56GLOH    C3 8960   1.354   9.087   6.265  0.0865 -0.0024  0.1685
   56GLOH   H06 8961   1.329   9.174   6.203  0.2195  1.7589  2.5104
   56GLOH   H07 8962   1.423   9.018   6.217 -0.7950  0.5868 -1.9949
   56GLOH    O3 8963   1.405   9.148   6.388  0.7709  0.3679 -0.4079
   56GLOH   H01 8964   1.413   9.086   6.462  0.8233 -2.3871 -2.6335
   57GLOH   H03 8965   2.464   7.997   1.041 -1.0766 -0.3621 -0.3321
   57GLOH    O1 8966   2.479   8.093   1.037 -0.0972 -0.5089 -0.2939
   57GLOH    C1 8967   2.407   8.142   0.923 -0.8223 -0.6721 -0.2431
   57GLOH   H02 8968   2.433   8.247   0.911  1.8257 -1.2262  0.4550
   57GLOH   H08 8969   2.300   8.135   0.945 -1.1632  0.5377 -1.4401
   57GLOH    C2 8970   2.452   8.063   0.796 -0.7951  0.0036 -0.1255
   57GLOH   H04 8971   2.416   7.960   0.793  1.4008 -0.7935  0.0448
   57GLOH    O2 8972   2.389   8.128   0.688  0.2425 -0.3473 -0.2043
   57GLOH   H05 8973   2.431   8.117   0.601  0.7877 -0.9289  0.1289
   57GLOH    C3 8974   2.607   8.064   0.769  0.6128  0.6404  0.4827
   57GLOH   H06 8975   2.636   8.164   0.736 -0.9043  0.8728 -0.1910
   57GLOH   H07 8976   2.615   7.997   0.684  1.3236  1.4571 -0.0924
   57GLOH    O3 8977   2.679   8.021   0.884 -0.3110  0.4634  0.3718
   57GLOH   H01 8978   2.669   8.082   0.959  0.1684  1.6483 -0.5104
   58GLOH   H03 8979   1.552   8.844   7.951 -1.5465 -1.2748  0.7699
   58GLOH    O1 8980   1.599   8.789   8.018  0.7038 -0.0434  0.2561
   58GLOH    C1 8981   1.529   8.663   8.014 -0.3140  0.4135 -0.7190
   58GLOH   H02 8982   1.444   8.667   8.081 -2.0312  1.3698 -2.8784
   58GLOH   H08 8983   1.594   8.580   8.042  2.0990  2.4462 -0.1332
   58GLOH    C2 8984   1.475   8.628   7.870  0.6542  0.0267  0.7714
   58GLOH   H04 8985   1.552   8.594   7.799  1.2746  3.6326 -0.3564
   58GLOH    O2 8986   1.376   8.528   7.882 -0.1696 -0.5280  0.3138
   58GLOH   H05 8987   1.352   8.490   7.795  0.1576 -1.0020  0.4275
   58GLOH    C3 8988   1.417   8.752   7.800 -0.5033 -0.1147  1.4433
   58GLOH   H06 8989   1.323   8.775   7.849 -1.4846  3.2046 -1.7285
   58GLOH   H07 8990   1.400   8.746   7.692  0.7021  1.9279  1.1104
   58GLOH    O3 8991   1.481   8.878   7.819  0.7748  0.0803 -0.0646
   58GLOH   H01 8992   1.422   8.948   7.787  0.6250  0.6802  1.4679
   59GLOH   H03 8993   4.957   1.971   6.768 -0.7001  0.8169  0.8944
   59GLOH    O1 8994   4.961   1.877   6.792 -0.1443  0.6753  0.2808
   59GLOH    C1 8995   4.830   1.845   6.845  0.2156 -0.7348 -0.4302
   59GLOH   H02 8996   4.824   1.872   6.951  0.1273  0.9757 -0.8440
   59GLOH   H08 8997   4.822   1.737   6.832 -1.4388 -0.6807 -0.0593
   59GLOH    C2 8998   4.716   1.919   6.768  0.6086 -0.2409 -0.9484
   59GLOH   H04 8999   4.706   1.879   6.666  1.0085 -1.0606 -0.6718
   59GLOH    O2 9000   4.593   1.894   6.845 -0.0579  0.4808  0.2942
   59GLOH   H05 9001   4.514   1.911   6.792 -1.3853  1.7307  2.5945
   59GLOH    C3 9002   4.733   2.065   6.767  0.2911  0.0223 -0.3196
   59GLOH   H06 9003   4.740   2.096   6.871  0.9452  1.7686 -0.8650
   59GLOH   H07 9004   4.648   2.121   6.728 -1.6736 -0.7300  2.6903
   59GLOH    O3 9005   4.855   2.108   6.704  0.4355  0.4700  0.8909
   59GLOH   H01 9006   4.824   2.173   6.637  1.7326 -0.2015 -0.3636
   60GLOH   H03 9007   1.860   0.069   3.766  2.1414 -2.9790  0.5838
   60GLOH    O1 9008   1.906   0.086   3.681 -0.4915  0.9717 -0.1769
   60GLOH    C1 9009   1.848  -0.003   3.585  0.3338  0.0764 -0.3240
   60GLOH   H02 9010   1.867  -0.109   3.598  1.5521  0.4651  1.1523
   60GLOH   H08 9011   1.879   0.010   3.481 -0.0840 -1.2694 -0.6312
   60GLOH    C2 9012   1.689   0.001   3.583 -0.0741 -0.2539 -0.0070
   60GLOH   H04 9013   1.648  -0.052   3.496 -1.5688 -0.8092  1.0218
   60GLOH    O2 9014   1.634  -0.054   3.706 -0.0045  0.1510 -0.1079
   60GLOH   H05 9015   1.552  -0.100   3.684  0.2673 -0.7843  0.7790
   60GLOH    C3 9016   1.634   0.144   3.566 -0.4813  0.2440  0.7343
   60GLOH   H06 9017   1.692   0.202   3.638 -0.9768  0.0701  1.2739
   60GLOH   H07 9018   1.531   0.161   3.595 -0.7934  0.2939 -0.3891
   60GLOH    O3 9019   1.658   0.199   3.431  0.6961  0.4438  0.1373
   60GLOH   H01 9020   1.746   0.236   3.413  0.6285 -0.3069 -1.8095
   61GLOH   H03 9021   3.502  -0.014   2.970  0.7348 -0.7544 -0.0896
   61GLOH    O1 9022   3.444  -0.083   3.006  0.4771 -0.2276  0.5142
   61GLOH    C1 9023   3.335  -0.032   3.088 -0.0551 -0.4957  0.0034
   61GLOH   H02 9024   3.379   0.060   3.129  0.7962 -0.8717 -0.0472
   61GLOH   H08 9025   3.326  -0.106   3.168 -0.3860  0.0237  0.4547
   61GLOH    C2 9026   3.200   0.000   3.019 -0.7058 -0.1036 -0.0819
   61GLOH   H04 9027   3.151  -0.095   2.997 -1.6613  0.0883  1.1418
   61GLOH    O2 9028   3.124   0.093   3.102  1.2602 -0.0698 -0.1195
   61GLOH   H05 9029   3.033   0.060   3.109  1.1660  0.4037  0.8929
   61GLOH    C3 9030   3.221   0.060   2.882  0.3929 -1.0461 -0.5662
   61GLOH   H06 9031   3.125   0.083   2.837  0.0399 -0.1416  0.6195
   61GLOH   H07 9032   3.280  -0.009   2.822  0.7834 -2.5680  1.5351
   61GLOH    O3 9033   3.298   0.185   2.882  0.4135 -0.2623 -0.5116
   61GLOH   H01 9034   3.282   0.230   2.967  0.7078 -0.8579 -0.1365
   62GLOH   H03 9035   0.722   9.945   2.508  1.2052 -0.9436  0.2427
   62GLOH    O1 9036   0.754   9.966   2.418  0.4508 -0.2096  0.1349
   62GLOH    C1 9037   0.772   9.844   2.343 -0.5027 -0.1758  0.1174
   62GLOH   H02 9038   0.705   9.761   2.364 -2.9176  1.8345  0.5451
   62GLOH   H08 9039   0.869   9.805   2.375 -1.6877 -3.3381 -0.0045
   62GLOH    C2 9040   0.764   9.859   2.193  0.4702 -0.5054  0.4022
   62GLOH   H04 9041   0.757   9.759   2.148  1.5140  0.5021 -2.0851
   62GLOH    O2 9042   0.642   9.925   2.150  0.0416 -0.5954 -0.1422
   62GLOH   H05 9043   0.594   9.961   2.227 -0.7145 -0.6454 -0.5863
   62GLOH    C3 9044   0.876   9.938   2.135 -0.1005  0.1747  0.2195
   62GLOH   H06 9045   0.858  10.038   2.175  1.3631  1.2424 -1.7358
   62GLOH   H07 9046   0.871   9.948   2.027  1.4279 -0.4110  0.0915
   62GLOH    O3 9047   1.010   9.904   2.178  0.1484 -0.0273  0.3525
   62GLOH   H01 9048   1.017   9.807   2.175  0.0950 -0.1382  3.1980
   63GLOH   H03 9049   4.997   8.545   2.193 -0.6289 -1.0816 -0.2540
   63GLOH    O1 9050   4.937   8.618   2.167  0.2599 -0.1514  0.2457
   63GLOH    C1 9051   4.868   8.582   2.047 -0.1852  0.4011 -0.1553
   63GLOH   H02 9052   4.777   8.525   2.065 -1.3500  0.7539 -4.3559
   63GLOH   H08 9053   4.936   8.521   1.987  2.3141  1.6854  1.2814
   63GLOH    C2 9054   4.830   8.706   1.970 -0.0503 -0.7395  0.7235
   63GLOH   H04 9055   4.916   8.752   1.919 -1.5367 -0.2263 -1.3975
   63GLOH    O2 9056   4.755   8.663   1.852  0.1840  0.2839  0.2137
   63GLOH   H05 9057   4.747   8.729   1.781  0.6409 -1.1386 -1.1823
   63GLOH    C3 9058   4.757   8.819   2.049  1.1182  0.6406 -0.5218
   63GLOH   H06 9059   4.735   8.906   1.986 -0.3540 -0.5437 -1.6862
   63GLOH   H07 9060   4.823   8.854   2.128  1.5841 -0.8436 -0.2466
   63GLOH    O3 9061   4.632   8.766   2.100 -0.1901  0.5037  0.4617
   63GLOH   H01 9062   4.637   8.726   2.189  0.3683 -1.2597 -0.3457
   64GLOH   H03 9063   5.083   8.421   6.073  1.5228  0.6585  0.4004
   64GLOH    O1 9064   5.076   8.392   6.165  0.2305  0.3680  0.2209
   64GLOH    C1 9065   4.955   8.321   6.180  0.3717  0.1652 -0.3848
   64GLOH   H02 9066   4.878   8.363   6.115  1.2266 -0.8100 -2.0757
   64GLOH   H08 9067   4.915   8.334   6.280  1.3486  2.1157 -0.2393
   64GLOH    C2 9068   4.964   8.164   6.167  0.1833  0.8801  0.0146
   64GLOH   H04 9069   4.963   8.126   6.064 -0.3581  1.1172 -0.0694
   64GLOH    O2 9070   5.089   8.099   6.226  0.0705 -0.3919  0.3396
   64GLOH   H05 9071   5.137   8.151   6.292  0.7456 -2.2178  1.3019
   64GLOH    C3 9072   4.838   8.121   6.245 -0.6966  0.2417 -0.5146
   64GLOH   H06 9073   4.840   8.136   6.353  1.4655 -1.4658 -0.2876
   64GLOH   H07 9074   4.835   8.013   6.248 -0.1551  0.1737 -2.0806
   64GLOH    O3 9075   4.719   8.163   6.170 -0.4079 -0.4242 -0.0089
   64GLOH   H01 9076   4.639   8.122   6.207 -2.2815  0.6410 -2.6889
   65GLOH   H03 9077   4.578   2.140   0.523 -1.9208  0.3181 -0.9599
   65GLOH    O1 9078   4.537   2.169   0.607  0.1961  0.0662  0.2118
   65GLOH    C1 9079   4.422   2.082   0.611  0.1016  0.1432 -0.0579
   65GLOH   H02 9080   4.375   2.083   0.513  0.9267  0.8717 -0.4503
   65GLOH   H08 9081   4.357   2.126   0.686 -0.1176  0.9028 -0.6974
   65GLOH    C2 9082   4.459   1.944   0.654 -0.4464  0.9580 -0.2910
   65GLOH   H04 9083   4.523   1.900   0.576  0.0710  1.2530 -0.0357
   65GLOH    O2 9084   4.540   1.947   0.773  0.3316 -0.1963  0.1300
   65GLOH   H05 9085   4.590   2.030   0.770  0.3651 -0.1421  1.8121
   65GLOH    C3 9086   4.333   1.856   0.667 -0.2700 -0.1988  0.7507
   65GLOH   H06 9087   4.361   1.762   0.715 -0.1956 -0.5439  0.0361
   65GLOH   H07 9088   4.307   1.828   0.565  1.6742  0.2694  0.1215
   65GLOH    O3 9089   4.225   1.919   0.738 -0.3431  0.5229  0.1620
   65GLOH   H01 9090   4.152   1.859   0.713  1.9742 -1.5649 -1.7388
   66GLOH   H03 9091   4.227   1.122   6.382  1.5809 -2.0725  0.3705
   66GLOH    O1 9092   4.229   1.155   6.473 -0.4152 -0.2401 -0.2134
   66GLOH    C1 9093   4.337   1.239   6.508 -1.1615  0.1334  0.4313
   66GLOH   H02 9094   4.311   1.276   6.607  1.0180 -1.5471  1.6863
   66GLOH   H08 9095   4.345   1.322   6.438  1.5301 -0.3713  0.0984
   66GLOH    C2 9096   4.472   1.167   6.515  0.4954  0.0265 -0.0937
   66GLOH   H04 9097   4.494   1.129   6.414 -1.8390  0.5734 -0.8429
   66GLOH    O2 9098   4.575   1.260   6.551  0.4007 -0.0101 -0.3138
   66GLOH   H05 9099   4.653   1.219   6.591 -0.6019 -0.0381  1.7015
   66GLOH    C3 9100   4.458   1.042   6.602  0.1468  0.2178  0.1003
   66GLOH   H06 9101   4.551   0.985   6.591  0.1709  0.3132 -0.1968
   66GLOH   H07 9102   4.388   0.975   6.552  1.5503 -1.6003  0.4976
   66GLOH    O3 9103   4.439   1.063   6.746 -0.2149  0.6023 -0.1172
   66GLOH   H01 9104   4.512   1.025   6.797 -1.2691 -1.2535  0.0655
   67GLOH   H03 9105   7.530   6.003   0.614 -0.1229  0.2644 -3.4268
   67GLOH    O1 9106   7.434   6.020   0.619  0.0286  0.5172 -0.0374
   67GLOH    C1 9107   7.387   5.981   0.746  0.6943  0.6368 -0.0038
   67GLOH   H02 9108   7.348   6.068   0.799  0.8931  0.6884  0.0571
   67GLOH   H08 9109   7.468   5.939   0.806  0.4795  0.7882  0.3989
   67GLOH    C2 9110   7.273   5.876   0.739  0.2681 -0.0413  0.0697
   67GLOH   H04 9111   7.312   5.787   0.687  1.2375  1.1184 -1.2264
   67GLOH    O2 9112   7.228   5.844   0.867  0.0974 -0.0098  0.4838
   67GLOH   H05 9113   7.288   5.852   0.944 -0.3468  0.0810  0.8259
   67GLOH    C3 9114   7.156   5.930   0.654 -0.2391  0.2402  0.1127
   67GLOH   H06 9115   7.124   6.028   0.690 -0.9838 -0.3923  1.2031
   67GLOH   H07 9116   7.067   5.867   0.662  0.3591 -0.5595  0.4563
   67GLOH    O3 9117   7.192   5.957   0.517  0.3051 -0.4105  0.9148
   67GLOH   H01 9118   7.282   5.994   0.509  0.7959 -1.6723  0.3984
   68GLOH   H03 9119   0.094   3.847   4.057  1.9390 -0.7745 -2.1477
   68GLOH    O1 9120   0.138   3.786   4.118  0.4178 -0.1355 -0.3780
   68GLOH    C1 9121   0.060   3.667   4.143  0.4013  0.0388 -1.1207
   68GLOH   H02 9122  -0.030   3.692   4.199  0.3616 -0.5135 -0.9413
   68GLOH   H08 9123   0.114   3.599   4.208 -2.7070 -0.6852  0.8461
   68GLOH    C2 9124   0.034   3.590   4.016 -0.5860  0.2830 -0.0472
   68GLOH   H04 9125   0.126   3.600   3.957 -0.8298  0.2204 -0.4358
   68GLOH    O2 9126   0.005   3.444   4.046 -0.4029  0.4438 -0.2341
   68GLOH   H05 9127  -0.088   3.422   4.068  0.5036 -1.8144  1.5974
   68GLOH    C3 9128  -0.092   3.649   3.945  0.1210  0.4440 -0.2683
   68GLOH   H06 9129  -0.180   3.657   4.009 -0.3310  0.6429 -0.9090
   68GLOH   H07 9130  -0.125   3.581   3.867 -0.2525  0.9328 -0.5350
   68GLOH    O3 9131  -0.069   3.778   3.896 -0.7563  0.9650  0.0400
   68GLOH   H01 9132  -0.016   3.766   3.815  0.4059 -0.8536  1.0226
   69GLOH   H03 9133   1.403   4.310   0.255  2.8523 -0.4276 -1.9914
   69GLOH    O1 9134   1.373   4.217   0.250 -0.2520  0.4148 -0.3682
   69GLOH    C1 9135   1.263   4.201   0.158  0.6802  0.1127 -0.0646
   69GLOH   H02 9136   1.301   4.191   0.056  2.4727 -2.0423  0.7720
   69GLOH   H08 9137   1.189   4.281   0.152  0.8912  0.1900 -1.9132
   69GLOH    C2 9138   1.187   4.070   0.187  0.1932 -0.8165 -0.0977
   69GLOH   H04 9139   1.161   4.088   0.292  2.7521  1.5991  0.1826
   69GLOH    O2 9140   1.061   4.057   0.117  0.7896 -0.0914  0.6558
   69GLOH   H05 9141   1.003   4.114   0.170 -0.8494 -0.2826 -0.9294
   69GLOH    C3 9142   1.280   3.953   0.155  0.1999  0.1105 -0.2706
   69GLOH   H06 9143   1.298   3.952   0.047 -0.6488  0.3749 -0.4188
   69GLOH   H07 9144   1.231   3.863   0.192  0.9556 -0.3858 -0.4737
   69GLOH    O3 9145   1.406   3.973   0.223 -0.9163 -0.2483  0.2859
   69GLOH   H01 9146   1.410   4.067   0.246 -1.2344 -0.5385  1.5951
   70GLOH   H03 9147   7.444   6.251   1.371 -1.0901  1.4903 -1.3338
   70GLOH    O1 9148   7.359   6.227   1.414  0.1159  0.4121  0.4881
   70GLOH    C1 9149   7.331   6.091   1.380 -0.0868  0.1687  0.1536
   70GLOH   H02 9150   7.266   6.079   1.293 -1.1466  0.9465  0.8216
   70GLOH   H08 9151   7.284   6.041   1.465 -0.3890 -2.0715 -1.2908
   70GLOH    C2 9152   7.454   6.000   1.375  0.0676  0.2631  0.7498
   70GLOH   H04 9153   7.502   6.003   1.473 -2.1454 -0.8275  1.9073
   70GLOH    O2 9154   7.409   5.869   1.330 -0.2639  0.0313  0.8493
   70GLOH   H05 9155   7.427   5.803   1.400 -2.7248 -0.9187  0.6265
   70GLOH    C3 9156   7.550   6.061   1.266  0.4658  0.0586  0.4296
   70GLOH   H06 9157   7.518   6.039   1.164  0.9714 -0.9372  0.4732
   70GLOH   H07 9158   7.651   6.019   1.271  0.0881 -1.0793 -1.0049
   70GLOH    O3 9159   7.565   6.201   1.278  0.0773 -0.5660 -0.2130
   70GLOH   H01 9160   7.644   6.228   1.227 -0.7582 -1.5848 -2.1033
   71GLOH   H03 9161   3.881   9.402   4.311 -0.3860  0.7368  2.4345
   71GLOH    O1 9162   3.797   9.355   4.321 -0.1425 -0.1151  0.7035
   71GLOH    C1 9163   3.692   9.428   4.382  0.3835  0.0680  0.0576
   71GLOH   H02 9164   3.598   9.379   4.356  1.2899 -1.4697 -0.3964
   71GLOH   H08 9165   3.677   9.525   4.334 -2.5898 -0.6383 -0.5414
   71GLOH    C2 9166   3.700   9.453   4.535  0.4355 -0.2882  0.0953
   71GLOH   H04 9167   3.646   9.540   4.576 -0.6837 -0.8993 -0.0525
   71GLOH    O2 9168   3.657   9.337   4.607  1.0166  0.3063 -0.7847
   71GLOH   H05 9169   3.676   9.348   4.701  3.8011 -2.4766 -0.9185
   71GLOH    C3 9170   3.849   9.481   4.568 -0.1147 -0.3847  0.4684
   71GLOH   H06 9171   3.876   9.565   4.504 -0.3421 -2.2100 -2.0881
   71GLOH   H07 9172   3.892   9.386   4.537  1.1024 -0.7183  3.0650
   71GLOH    O3 9173   3.879   9.505   4.705  0.5462  0.0564 -0.6352
   71GLOH   H01 9174   3.820   9.580   4.727 -1.8757 -1.9436  0.0326
   72GLOH   H03 9175   1.866   9.303   2.396  0.1631  2.2107 -0.4204
   72GLOH    O1 9176   1.787   9.329   2.447  0.3897  0.3186  0.9391
   72GLOH    C1 9177   1.737   9.211   2.517  0.1314  0.9826 -0.0783
   72GLOH   H02 9178   1.739   9.123   2.453  1.7187  0.4212  0.7221
   72GLOH   H08 9179   1.633   9.225   2.548 -0.4232 -0.4918 -1.2163
   72GLOH    C2 9180   1.814   9.198   2.648 -0.3725  0.7409 -0.4141
   72GLOH   H04 9181   1.836   9.297   2.690  0.2192  0.5943 -0.3771
   72GLOH    O2 9182   1.737   9.118   2.733  0.0445  0.7564 -0.2064
   72GLOH   H05 9183   1.737   9.026   2.701 -0.2852  0.3352  0.9673
   72GLOH    C3 9184   1.958   9.143   2.622  0.6573 -0.2493  0.4469
   72GLOH   H06 9185   2.020   9.212   2.564 -0.0436  2.1817  2.5114
   72GLOH   H07 9186   1.962   9.047   2.570  0.1622  0.1099 -0.2671
   72GLOH    O3 9187   2.032   9.124   2.747 -0.1285  0.0426  0.0621
   72GLOH   H01 9188   2.044   9.027   2.755 -2.1481 -0.2844 -0.5672
   73GLOH   H03 9189   5.845   0.616   3.079  2.3746  1.4962 -0.2657
   73GLOH    O1 9190   5.894   0.543   3.121 -0.1837 -0.1422  0.0322
   73GLOH    C1 9191   5.860   0.512   3.256  0.0990  0.3046  0.0035
   73GLOH   H02 9192   5.912   0.421   3.289  0.7938  0.4704 -0.6245
   73GLOH   H08 9193   5.754   0.491   3.271 -0.1022  0.0216 -1.7484
   73GLOH    C2 9194   5.907   0.627   3.353  0.1673  0.6437  1.1968
   73GLOH   H04 9195   5.867   0.726   3.326 -0.3990  0.6807  2.1210
   73GLOH    O2 9196   5.878   0.593   3.492  0.8468 -0.2032 -0.0842
   73GLOH   H05 9197   5.826   0.512   3.480  0.4629 -0.3608  2.4113
   73GLOH    C3 9198   6.061   0.636   3.333  0.0122 -0.2896 -0.3211
   73GLOH   H06 9199   6.098   0.553   3.394  0.1635 -0.5065 -0.7104
   73GLOH   H07 9200   6.093   0.727   3.382  0.2067 -0.1740 -0.6610
   73GLOH    O3 9201   6.109   0.638   3.200  0.5948  0.1812 -0.1069
   73GLOH   H01 9202   6.052   0.578   3.149 -0.1142 -0.1605  1.0663
   74GLOH   H03 9203   6.685   5.254   0.248  1.4923  2.3974  0.6747
   74GLOH    O1 9204   6.609   5.261   0.309  0.2766  0.0128 -0.5067
   74GLOH    C1 9205   6.629   5.156   0.405 -0.1624  0.0334 -0.1521
   74GLOH   H02 9206   6.730   5.157   0.446 -1.1974  1.8875  2.4842
   74GLOH   H08 9207   6.619   5.058   0.357  1.2375 -0.8272  1.2876
   74GLOH    C2 9208   6.525   5.178   0.510  0.4214  0.2118 -0.4406
   74GLOH   H04 9209   6.429   5.185   0.457 -0.3696 -1.4841  0.7158
   74GLOH    O2 9210   6.523   5.055   0.590 -0.2178 -0.5540  0.1196
   74GLOH   H05 9211   6.479   4.989   0.534 -0.4371 -0.2824 -0.0295
   74GLOH    C3 9212   6.543   5.297   0.606  0.5149 -0.4233 -0.5306
   74GLOH   H06 9213   6.630   5.272   0.666 -0.2063 -2.9489 -0.4989
   74GLOH   H07 9214   6.457   5.305   0.673  0.9127  0.6467 -0.1403
   74GLOH    O3 9215   6.560   5.411   0.526 -0.3194 -0.1240 -0.1710
   74GLOH   H01 9216   6.588   5.387   0.436  0.9362 -0.1389  0.2173
   75GLOH   H03 9217   0.662   2.044   6.681 -1.0931  1.5479  0.0093
   75GLOH    O1 9218   0.597   1.997   6.625  0.1889  0.1754 -0.3696
   75GLOH    C1 9219   0.660   1.891   6.553  0.0206  0.7553  0.0582
   75GLOH   H02 9220   0.593   1.805   6.558 -0.4553  1.1462  0.4606
   75GLOH   H08 9221   0.759   1.865   6.590 -0.3570  0.8260  1.1430
   75GLOH    C2 9222   0.678   1.926   6.407  0.2229 -0.0045 -0.3494
   75GLOH   H04 9223   0.744   1.851   6.361  0.7825 -0.7356  1.6202
   75GLOH    O2 9224   0.555   1.931   6.330 -0.2187 -0.3760 -0.1703
   75GLOH   H05 9225   0.549   2.026   6.310  0.2772 -0.4341 -0.6114
   75GLOH    C3 9226   0.773   2.047   6.396 -0.5496  0.3178 -0.3371
   75GLOH   H06 9227   0.866   2.015   6.443 -0.5842  1.2648  0.4002
   75GLOH   H07 9228   0.724   2.117   6.464  1.8123 -0.1601  1.9426
   75GLOH    O3 9229   0.791   2.087   6.254  0.2839 -0.3467  0.1025
   75GLOH   H01 9230   0.793   2.184   6.251 -0.1295 -0.3612 -1.5103
   76GLOH   H03 9231   6.229   6.808   5.211 -1.0805  0.7161 -0.6517
   76GLOH    O1 9232   6.168   6.787   5.285 -0.1713 -0.2873 -0.1874
   76GLOH    C1 9233   6.132   6.903   5.359  0.2670  0.1050  0.4869
   76GLOH   H02 9234   6.055   6.873   5.431  1.1066  0.2524  1.4513
   76GLOH   H08 9235   6.096   6.990   5.305  1.4289  0.2930  0.0118
   76GLOH    C2 9236   6.253   6.962   5.432  0.4043 -0.9647  0.2691
   76GLOH   H04 9237   6.325   6.993   5.355  0.4442  0.6577  0.9352
   76GLOH    O2 9238   6.215   7.076   5.509 -0.2247  0.1847  0.6273
   76GLOH   H05 9239   6.205   7.150   5.447 -0.1035 -1.2215 -1.1381
   76GLOH    C3 9240   6.317   6.862   5.529 -0.5920 -0.4794 -0.3341
   76GLOH   H06 9241   6.246   6.850   5.611  1.7702  1.1296  2.0027
   76GLOH   H07 9242   6.405   6.909   5.571 -0.8738  0.7114 -1.0516
   76GLOH    O3 9243   6.348   6.736   5.469 -0.6638  0.1196  0.1803
   76GLOH   H01 9244   6.304   6.740   5.382  1.6843 -0.9656 -1.1154
   77GLOH   H03 9245   4.949   8.732   7.486 -1.2874 -0.6058  0.7959
   77GLOH    O1 9246   5.019   8.710   7.550 -0.2265 -0.2324 -0.2197
   77GLOH    C1 9247   5.077   8.822   7.620 -0.2949 -0.9164 -0.2012
   77GLOH   H02 9248   5.090   8.906   7.551  1.3143  1.6863  3.0719
   77GLOH   H08 9249   5.166   8.788   7.672 -0.7748  0.3098  1.4847
   77GLOH    C2 9250   4.986   8.885   7.725  0.4733  0.5198  0.4329
   77GLOH   H04 9251   4.961   8.808   7.799 -1.9396  1.7048  0.8786
   77GLOH    O2 9252   5.053   9.000   7.789 -0.3491 -0.1711 -0.7876
   77GLOH   H05 9253   5.134   9.026   7.742  0.6019  0.8338  1.3288
   77GLOH    C3 9254   4.852   8.935   7.663 -0.0961  0.3339 -0.4880
   77GLOH   H06 9255   4.826   9.005   7.742  0.6959  0.3400 -0.2288
   77GLOH   H07 9256   4.781   8.852   7.668 -0.6231  0.8164  0.1905
   77GLOH    O3 9257   4.861   9.003   7.538  0.3333 -1.2979 -0.2238
   77GLOH   H01 9258   4.916   9.080   7.563 -1.5542  0.7131 -1.9867
   78GLOH   H03 9259   0.435   8.910   3.691 -0.0955 -0.6301  1.0606
   78GLOH    O1 9260   0.338   8.919   3.690 -0.0808 -0.5373 -0.3195
   78GLOH    C1 9261   0.284   8.833   3.798  0.1831 -0.2141  0.3651
   78GLOH   H02 9262   0.356   8.755   3.824  1.2511  0.0106 -1.8105
   78GLOH   H08 9263   0.195   8.786   3.758  0.1753 -0.8080  1.0760
   78GLOH    C2 9264   0.251   8.917   3.926 -0.1105 -0.0456  0.4399
   78GLOH   H04 9265   0.143   8.936   3.920  0.1747  1.4064 -0.0676
   78GLOH    O2 9266   0.279   8.870   4.060  0.0074  0.4705  0.4035
   78GLOH   H05 9267   0.376   8.859   4.068 -0.0701  2.1328  4.5551
   78GLOH    C3 9268   0.319   9.054   3.921  0.9882  0.4150  0.4015
   78GLOH   H06 9269   0.427   9.040   3.916  0.6411 -2.1846 -0.6960
   78GLOH   H07 9270   0.301   9.109   4.013 -1.4185 -0.9302  0.7741
   78GLOH    O3 9271   0.281   9.134   3.807  0.4891 -0.0412  0.1963
   78GLOH   H01 9272   0.271   9.073   3.732  1.7586  0.0619 -0.0660
   79GLOH   H03 9273   3.177   5.097   2.279  0.2775 -0.6843  0.1364
   79GLOH    O1 9274   3.192   5.130   2.370 -0.2125  0.5547 -0.2194
   79GLOH    C1 9275   3.278   5.247   2.362  0.7515 -0.5674  1.1345
   79GLOH   H02 9276   3.264   5.313   2.448  1.2577 -2.1288  2.4339
   79GLOH   H08 9277   3.266   5.305   2.271 -3.6127  3.4004  4.0191
   79GLOH    C2 9278   3.428   5.224   2.360  0.4179 -0.2242 -0.5213
   79GLOH   H04 9279   3.476   5.321   2.339  2.1206 -0.5407  1.7106
   79GLOH    O2 9280   3.483   5.168   2.487  0.0905  0.7542 -0.0321
   79GLOH   H05 9281   3.461   5.230   2.558 -2.4994  1.1515 -1.1223
   79GLOH    C3 9282   3.467   5.134   2.246  0.6556  0.3146  0.7026
   79GLOH   H06 9283   3.439   5.028   2.255 -2.1423  1.0992  1.7869
   79GLOH   H07 9284   3.576   5.124   2.250  0.8905  0.7016 -3.0541
   79GLOH    O3 9285   3.446   5.198   2.120 -0.1333  0.2216 -0.0527
   79GLOH   H01 9286   3.466   5.134   2.049  0.6266  0.3347  0.0550
   80GLOH   H03 9287   7.373   2.337   5.309  0.5899 -0.3625  0.1255
   80GLOH    O1 9288   7.301   2.311   5.249  0.3277 -0.1659  0.3519
   80GLOH    C1 9289   7.187   2.291   5.331  0.6542  0.5519 -0.3933
   80GLOH   H02 9290   7.187   2.360   5.415  0.1752  2.7281 -2.1272
   80GLOH   H08 9291   7.190   2.191   5.373  0.2891 -0.0560 -1.7673
   80GLOH    C2 9292   7.056   2.318   5.246  0.3789  0.3606 -0.2727
   80GLOH   H04 9293   7.056   2.263   5.151  0.3421  1.1168 -0.7146
   80GLOH    O2 9294   6.948   2.283   5.330  0.3626 -0.1123 -0.2378
   80GLOH   H05 9295   6.877   2.250   5.271  0.2805  2.0131 -1.4030
   80GLOH    C3 9296   7.062   2.464   5.198  0.0653  0.0263  0.0835
   80GLOH   H06 9297   6.987   2.484   5.121 -0.1405  0.2269  0.3346
   80GLOH   H07 9298   7.157   2.481   5.146 -0.1601  2.4614  0.4019
   80GLOH    O3 9299   7.058   2.560   5.302 -0.7904  0.4426  0.4968
   80GLOH   H01 9300   7.013   2.643   5.278  0.6391  0.7452 -1.3004
   81GLOH   H03 9301   1.758   3.456   5.284  0.1142  0.3901  0.2864
   81GLOH    O1 9302   1.804   3.418   5.207 -0.6277  0.2267 -0.0831
   81GLOH    C1 9303   1.951   3.414   5.239 -0.3997  0.1462  0.0957
   81GLOH   H02 9304   1.990   3.322   5.282 -0.6207 -0.0633 -0.1495
   81GLOH   H08 9305   1.981   3.498   5.301 -0.0294  1.4524 -1.7999
   81GLOH    C2 9306   2.045   3.441   5.120 -0.4801 -0.3470  0.4785
   81GLOH   H04 9307   2.029   3.356   5.051 -4.5524 -0.5173  1.4849
   81GLOH    O2 9308   2.000   3.563   5.050 -0.3925 -0.6665 -0.7593
   81GLOH   H05 9309   1.926   3.599   5.101  0.2251  2.1374 -1.7041
   81GLOH    C3 9310   2.194   3.434   5.154  0.5248 -1.2470  0.1480
   81GLOH   H06 9311   2.252   3.438   5.061 -0.2753  1.4256 -0.2844
   81GLOH   H07 9312   2.211   3.332   5.188  0.9065 -1.1655  0.1980
   81GLOH    O3 9313   2.252   3.520   5.252 -0.1108  0.4986 -0.3480
   81GLOH   H01 9314   2.259   3.609   5.213  1.2410  0.1841 -0.8490
   82GLOH   H03 9315   5.091   6.998   2.281  0.0057  0.1823  1.5356
   82GLOH    O1 9316   5.083   7.095   2.272 -0.1270  0.0311 -0.2809
   82GLOH    C1 9317   5.039   7.125   2.139 -0.4205 -0.1094 -0.9250
   82GLOH   H02 9318   5.119   7.147   2.068 -0.7925  3.3495 -0.3681
   82GLOH   H08 9319   4.975   7.214   2.140 -0.0763  0.2671 -4.2793
   82GLOH    C2 9320   4.949   7.015   2.082 -0.0428  0.5868 -0.1330
   82GLOH   H04 9321   4.870   7.013   2.159  0.0573  1.5372  0.0046
   82GLOH    O2 9322   4.896   7.064   1.962 -0.2689 -0.1786  0.1533
   82GLOH   H05 9323   4.815   7.024   1.925  0.4034  0.1271 -1.7499
   82GLOH    C3 9324   5.022   6.880   2.065 -0.5895 -0.6365  0.0092
   82GLOH   H06 9325   5.109   6.904   2.005 -0.8217 -0.2418 -0.1744
   82GLOH   H07 9326   4.953   6.807   2.023 -0.8001 -1.0438  1.0233
   82GLOH    O3 9327   5.055   6.825   2.195 -0.5666 -1.0044  0.9562
   82GLOH   H01 9328   4.974   6.786   2.234 -0.1305 -1.5853  1.2814
   83GLOH   H03 9329   9.139   7.563   0.287 -0.8578  0.0839 -0.3020
   83GLOH    O1 9330   9.176   7.654   0.292 -0.9209  0.0954 -0.0168
   83GLOH    C1 9331   9.291   7.673   0.212 -0.5084  0.5054  0.5184
   83GLOH   H02 9332   9.347   7.582   0.194 -0.7768  0.6749 -1.2981
   83GLOH   H08 9333   9.364   7.745   0.250 -1.5238  1.8088  0.0244
   83GLOH    C2 9334   9.255   7.727   0.072 -0.4835 -0.6935 -0.2378
   83GLOH   H04 9335   9.223   7.832   0.081 -0.8207 -0.7708 -0.5560
   83GLOH    O2 9336   9.372   7.719  -0.019  1.3598 -0.1962 -0.1381
   83GLOH   H05 9337   9.339   7.739  -0.109 -0.5073 -2.5683 -0.0529
   83GLOH    C3 9338   9.141   7.649   0.003  0.8634  0.0422  0.0360
   83GLOH   H06 9339   9.153   7.545   0.030  1.4413  0.6303  2.1556
   83GLOH   H07 9340   9.149   7.648  -0.106 -0.6810 -0.5292 -0.0844
   83GLOH    O3 9341   9.010   7.699   0.053  0.0292 -0.2166 -0.6921
   83GLOH   H01 9342   9.022   7.744   0.139  0.9944 -0.6495 -0.5883
   84GLOH   H03 9343   9.569   3.860   3.544  0.2404  0.3616  1.1392
   84GLOH    O1 9344   9.559   3.950   3.509 -0.1166 -0.1361 -0.0872
   84GLOH    C1 9345   9.587   4.042   3.611 -0.1740 -0.1094  0.2852
   84GLOH   H02 9346   9.589   4.147   3.584 -2.0430 -0.0819  0.1831
   84GLOH   H08 9347   9.685   4.020   3.653 -1.5567 -1.1096  3.1560
   84GLOH    C2 9348   9.493   4.025   3.727  0.5830 -0.5708 -0.2470
   84GLOH   H04 9349   9.490   3.919   3.758 -0.1228 -0.4604  0.0642
   84GLOH    O2 9350   9.539   4.104   3.838  0.8558 -0.7136  0.5754
   84GLOH   H05 9351   9.622   4.065   3.868  0.0098 -1.8895  1.4308
   84GLOH    C3 9352   9.355   4.069   3.676  0.3426 -0.5283  0.0618
   84GLOH   H06 9353   9.289   4.078   3.762  0.3045 -1.1519  0.1007
   84GLOH   H07 9354   9.317   3.986   3.617  1.4920  0.4014 -2.0404
   84GLOH    O3 9355   9.354   4.188   3.588  0.1811  0.2115  0.0068
   84GLOH   H01 9356   9.366   4.266   3.647 -0.5715  0.9306 -0.7765
   85GLOH   H03 9357   8.323   8.119   2.510  0.9989  0.1642 -1.8375
   85GLOH    O1 9358   8.381   8.197   2.517  0.6236  0.3275 -0.2472
   85GLOH    C1 9359   8.519   8.147   2.512  0.9720  0.2219  0.2508
   85GLOH   H02 9360   8.526   8.076   2.429  0.9469 -0.4084  0.7841
   85GLOH   H08 9361   8.547   8.087   2.599  1.3187  0.2973  0.1937
   85GLOH    C2 9362   8.624   8.268   2.500  0.4743 -0.1575 -0.1910
   85GLOH   H04 9363   8.603   8.328   2.410  4.2997 -1.5016 -2.0892
   85GLOH    O2 9364   8.612   8.355   2.614 -0.1266  0.5997  0.3799
   85GLOH   H05 9365   8.595   8.302   2.694  0.6744  0.8942  0.7495
   85GLOH    C3 9366   8.763   8.214   2.473 -0.4072 -0.3581  0.7014
   85GLOH   H06 9367   8.830   8.300   2.473  0.8728 -1.1636 -4.9704
   85GLOH   H07 9368   8.767   8.178   2.370 -0.9274  1.3456  0.0621
   85GLOH    O3 9369   8.810   8.113   2.565  0.0665  0.2604 -0.5217
   85GLOH   H01 9370   8.808   8.026   2.521 -0.5441  0.2423 -0.4689
   86GLOH   H03 9371   4.515   3.339   5.404 -1.3384  1.2118  1.7417
   86GLOH    O1 9372   4.558   3.288   5.475  0.1804  0.1338  0.0883
   86GLOH    C1 9373   4.575   3.369   5.593 -0.7575  0.1294  0.0478
   86GLOH   H02 9374   4.484   3.419   5.627  1.0781  5.3894 -2.3447
   86GLOH   H08 9375   4.645   3.447   5.563  1.0638 -1.4687  0.0694
   86GLOH    C2 9376   4.629   3.281   5.708  0.0357  0.3603 -1.0418
   86GLOH   H04 9377   4.734   3.259   5.686  0.8020  0.8120  1.9384
   86GLOH    O2 9378   4.634   3.369   5.823  0.4644 -0.2565  0.0405
   86GLOH   H05 9379   4.676   3.456   5.815 -2.4874  1.2057 -0.3936
   86GLOH    C3 9380   4.556   3.153   5.732  0.1312  0.2148 -0.5074
   86GLOH   H06 9381   4.454   3.183   5.758  0.1997 -1.2318  1.5375
   86GLOH   H07 9382   4.602   3.094   5.812  0.9078 -0.4411 -1.4246
   86GLOH    O3 9383   4.558   3.073   5.611  0.0860  0.6008  0.2913
   86GLOH   H01 9384   4.532   3.141   5.547 -1.4403 -0.9444 -0.7746
   87GLOH   H03 9385   0.609   1.318   2.311  0.2376  0.3100 -0.1569
   87GLOH    O1 9386   0.596   1.408   2.276 -0.1791  0.2181 -0.2469
   87GLOH    C1 9387   0.736   1.449   2.289  0.4592 -0.2469 -0.7168
   87GLOH   H02 9388   0.780   1.447   2.189  2.2080 -0.4419  0.0403
   87GLOH   H08 9389   0.792   1.379   2.351  0.1390  0.4716  0.4000
   87GLOH    C2 9390   0.735   1.589   2.348 -0.0083  0.4649 -0.7165
   87GLOH   H04 9391   0.841   1.609   2.368  0.5933 -1.8650 -1.4104
   87GLOH    O2 9392   0.678   1.695   2.264  0.7056  0.0309 -0.5667
   87GLOH   H05 9393   0.593   1.658   2.235  0.1628 -0.2812  1.3041
   87GLOH    C3 9394   0.668   1.606   2.489  0.7416 -0.0657  0.2665
   87GLOH   H06 9395   0.559   1.599   2.483  0.6752 -1.5657  2.5410
   87GLOH   H07 9396   0.694   1.704   2.528  1.0458  0.4231 -1.1517
   87GLOH    O3 9397   0.711   1.502   2.578  0.7817 -0.3185 -0.2648
   87GLOH   H01 9398   0.650   1.427   2.592  1.5669 -1.0001 -0.5197
   88GLOH   H03 9399   8.930   6.278   1.313 -0.6003  0.7482 -1.6888
   88GLOH    O1 9400   8.842   6.279   1.353 -0.0331  0.0750 -0.3886
   88GLOH    C1 9401   8.852   6.307   1.493  0.6031 -0.6059  0.2247
   88GLOH   H02 9402   8.801   6.398   1.523 -0.1770 -0.1055 -2.4343
   88GLOH   H08 9403   8.955   6.311   1.530  1.2027 -1.1616 -1.3439
   88GLOH    C2 9404   8.783   6.183   1.553  0.3775  0.1312 -0.6151
   88GLOH   H04 9405   8.842   6.094   1.527  1.4784  0.2525  1.3341
   88GLOH    O2 9406   8.796   6.199   1.692  0.5658 -0.1329 -0.2530
   88GLOH   H05 9407   8.791   6.292   1.721  0.6890 -0.0385 -0.5334
   88GLOH    C3 9408   8.636   6.164   1.520 -0.3187 -0.1243 -0.1957
   88GLOH   H06 9409   8.597   6.081   1.579  2.0417 -1.3516 -0.2915
   88GLOH   H07 9410   8.639   6.112   1.424  0.0908 -2.8625  1.2471
   88GLOH    O3 9411   8.548   6.277   1.525  0.5678  0.0207 -0.3419
   88GLOH   H01 9412   8.467   6.258   1.474 -0.6128  3.0877  0.2757
   89GLOH   H03 9413   8.131   9.648   0.824  2.1222  0.9370 -1.1486
   89GLOH    O1 9414   8.096   9.603   0.746 -0.1732  0.3909  0.1595
   89GLOH    C1 9415   7.972   9.661   0.722 -0.0137  0.6503  0.3677
   89GLOH   H02 9416   7.952   9.676   0.615  0.4846 -0.0706  0.1728
   89GLOH   H08 9417   7.960   9.760   0.766 -0.7442  1.4003 -1.4379
   89GLOH    C2 9418   7.851   9.582   0.785 -0.5144  0.1394 -0.7963
   89GLOH   H04 9419   7.859   9.478   0.748  1.2476 -0.0165 -0.0240
   89GLOH    O2 9420   7.854   9.581   0.928 -0.3082 -0.0036 -0.6964
   89GLOH   H05 9421   7.911   9.511   0.964 -1.7028 -1.2977 -0.9225
   89GLOH    C3 9422   7.724   9.656   0.739  0.6262  0.2949  0.0901
   89GLOH   H06 9423   7.723   9.760   0.770 -0.9047 -0.0636  1.3302
   89GLOH   H07 9424   7.640   9.607   0.789  0.1050 -2.1448 -3.0072
   89GLOH    O3 9425   7.704   9.637   0.602 -0.3744 -0.1887  0.1517
   89GLOH   H01 9426   7.702   9.727   0.566  0.5398 -0.4635 -0.6160
   90GLOH   H03 9427   1.405   1.464   5.996  0.6415 -0.6311  0.5251
   90GLOH    O1 9428   1.460   1.407   5.939  0.0646 -0.6131 -0.0639
   90GLOH    C1 9429   1.531   1.314   6.025 -0.6455  0.0950 -0.4105
   90GLOH   H02 9430   1.553   1.355   6.123  3.6858 -2.2566 -0.2682
   90GLOH   H08 9431   1.625   1.286   5.976 -0.8721 -3.3192  0.9685
   90GLOH    C2 9432   1.451   1.180   6.023  0.4085  0.4996 -0.2684
   90GLOH   H04 9433   1.405   1.166   5.924  1.1560  2.7792 -0.9696
   90GLOH    O2 9434   1.540   1.070   6.049 -0.2389 -0.0365  0.0443
   90GLOH   H05 9435   1.618   1.112   6.090 -0.3367  1.3828 -1.1758
   90GLOH    C3 9436   1.345   1.206   6.137 -0.1730  0.4577 -0.1140
   90GLOH   H06 9437   1.386   1.264   6.219 -0.4055 -1.2566  1.2620
   90GLOH   H07 9438   1.326   1.103   6.170  2.3092 -0.7777 -2.3642
   90GLOH    O3 9439   1.234   1.277   6.077 -0.0319  0.5782 -0.4677
   90GLOH   H01 9440   1.184   1.203   6.037 -0.1171  0.9949 -1.1359
   91GLOH   H03 9441   4.462   1.730   2.340 -0.6620 -0.1704 -0.4120
   91GLOH    O1 9442   4.366   1.728   2.358 -0.5793 -0.0278  0.0299
   91GLOH    C1 9443   4.351   1.610   2.449  0.0098 -0.3077 -0.2194
   91GLOH   H02 9444   4.269   1.626   2.518 -0.8166 -3.1894 -0.4839
   91GLOH   H08 9445   4.444   1.596   2.504  2.2257  2.4820 -3.0581
   91GLOH    C2 9446   4.325   1.487   2.367  0.8579  1.0027  0.0666
   91GLOH   H04 9447   4.414   1.478   2.303  2.0745 -2.5159  2.1611
   91GLOH    O2 9448   4.327   1.370   2.454 -0.3828 -0.0929 -0.4264
   91GLOH   H05 9449   4.414   1.365   2.497 -0.6402  2.9495  0.5678
   91GLOH    C3 9450   4.188   1.506   2.306  0.0213  0.1228  0.0828
   91GLOH   H06 9451   4.113   1.504   2.385 -1.8435 -1.0299 -1.6803
   91GLOH   H07 9452   4.169   1.422   2.239  0.7061 -0.7665  0.9863
   91GLOH    O3 9453   4.187   1.632   2.228 -0.2277  0.9256  0.4754
   91GLOH   H01 9454   4.241   1.691   2.282 -0.7659  1.0129  0.9210
   92GLOH   H03 9455   2.192   3.943   6.955  1.0993 -0.8131 -0.7048
   92GLOH    O1 9456   2.246   3.982   7.026  0.2716 -0.2256 -0.3875
   92GLOH    C1 9457   2.251   3.893   7.141 -0.0874  0.0760 -0.1922
   92GLOH   H02 9458   2.333   3.825   7.119  0.4664  0.4142  0.7560
   92GLOH   H08 9459   2.159   3.842   7.168 -0.0740  0.1598  0.0159
   92GLOH    C2 9460   2.282   3.964   7.271 -0.2601  0.0878 -0.1199
   92GLOH   H04 9461   2.213   4.048   7.291  0.7459  1.6592 -3.0188
   92GLOH    O2 9462   2.269   3.878   7.383 -0.2045 -0.3753 -0.9627
   92GLOH   H05 9463   2.173   3.869   7.396 -0.2844 -0.1178 -1.3723
   92GLOH    C3 9464   2.424   4.022   7.253 -0.5399 -0.5556 -0.3732
   92GLOH   H06 9465   2.441   4.069   7.157 -0.0677 -1.8938 -0.9507
   92GLOH   H07 9466   2.490   3.936   7.265  1.4170  1.0949  1.0517
   92GLOH    O3 9467   2.449   4.122   7.351 -0.7017  0.5479  0.3526
   92GLOH   H01 9468   2.543   4.137   7.329 -0.7748  0.5228  0.0239
   93GLOH   H03 9469   2.592   2.383   4.562  3.4149 -3.4970 -1.4682
   93GLOH    O1 9470   2.518   2.320   4.573  0.1130  0.4069  0.3181
   93GLOH    C1 9471   2.548   2.221   4.684  1.3185 -0.1036  0.4964
   93GLOH   H02 9472   2.462   2.177   4.735  0.6417  0.0878 -0.4480
   93GLOH   H08 9473   2.609   2.275   4.757  2.3792  0.5317 -0.8396
   93GLOH    C2 9474   2.641   2.108   4.645 -0.3853 -0.3160 -0.0198
   93GLOH   H04 9475   2.665   2.062   4.741  0.5631  1.0152  0.3958
   93GLOH    O2 9476   2.565   2.011   4.573 -0.4188 -0.3949  0.5870
   93GLOH   H05 9477   2.628   1.938   4.563 -2.1191 -1.8148 -0.0350
   93GLOH    C3 9478   2.758   2.160   4.563  0.0309  0.1920 -0.3174
   93GLOH   H06 9479   2.725   2.212   4.473  1.5275  2.4333  0.4089
   93GLOH   H07 9480   2.821   2.078   4.528  0.1014 -0.6330  1.7024
   93GLOH    O3 9481   2.841   2.243   4.650  0.4648 -0.2245 -0.4540
   93GLOH   H01 9482   2.815   2.336   4.635 -1.5920 -0.3919  1.7582
   94GLOH   H03 9483   6.547   2.214   2.639 -0.6323  0.1174  0.6474
   94GLOH    O1 9484   6.602   2.250   2.711 -0.2822  0.3764  0.2592
   94GLOH    C1 9485   6.540   2.233   2.841 -0.2751  0.5630  0.7465
   94GLOH   H02 9486   6.492   2.135   2.851  1.4558 -0.2638  1.2271
   94GLOH   H08 9487   6.462   2.306   2.859 -0.9598 -0.7336  3.2588
   94GLOH    C2 9488   6.641   2.252   2.956 -0.5589  0.5227  0.6804
   94GLOH   H04 9489   6.685   2.352   2.945  0.2614 -0.0661 -1.5840
   94GLOH    O2 9490   6.576   2.231   3.083  0.8024 -0.6130 -0.3706
   94GLOH   H05 9491   6.525   2.149   3.069  3.4406 -2.7038  1.6747
   94GLOH    C3 9492   6.752   2.147   2.944  0.1968  0.2694  0.4379
   94GLOH   H06 9493   6.701   2.052   2.955  0.6933 -0.0647 -0.1468
   94GLOH   H07 9494   6.817   2.151   3.031  0.2222  1.1695  0.3893
   94GLOH    O3 9495   6.817   2.165   2.816 -0.0491 -0.2987  0.0869
   94GLOH   H01 9496   6.744   2.186   2.754  0.3524 -0.6207 -0.4874
   95GLOH   H03 9497   5.465   1.449   2.953  0.0633 -0.7141 -0.1866
   95GLOH    O1 9498   5.546   1.493   2.922  0.0112  0.1182  0.8064
   95GLOH    C1 9499   5.643   1.403   2.876  0.1511  0.1671  0.4290
   95GLOH   H02 9500   5.717   1.387   2.954 -0.1698 -1.7967  0.3606
   95GLOH   H08 9501   5.708   1.445   2.799  0.7479  0.6881  1.2221
   95GLOH    C2 9502   5.596   1.262   2.838 -0.0655  0.4855 -0.5699
   95GLOH   H04 9503   5.681   1.202   2.802 -0.4016  0.3786 -1.2045
   95GLOH    O2 9504   5.532   1.191   2.945  0.3648 -0.2849  0.4611
   95GLOH   H05 9505   5.450   1.239   2.964  0.8067  1.3883 -1.7285
   95GLOH    C3 9506   5.500   1.277   2.717  0.1169 -0.4897  0.1313
   95GLOH   H06 9507   5.420   1.344   2.749  1.4984  1.7539 -1.0071
   95GLOH   H07 9508   5.459   1.180   2.691 -1.3563 -0.0718  0.8057
   95GLOH    O3 9509   5.565   1.339   2.608  0.0470 -0.3827  0.6610
   95GLOH   H01 9510   5.543   1.292   2.525  0.3238  0.6292  0.0108
   96GLOH   H03 9511  10.073   1.376   2.609  0.2998  1.3419 -0.2538
   96GLOH    O1 9512  10.011   1.440   2.650 -0.0470  0.5663  0.4531
   96GLOH    C1 9513   9.946   1.360   2.754  0.0609 -0.4265  0.5551
   96GLOH   H02 9514  10.024   1.351   2.831 -0.0503 -2.5031  0.4435
   96GLOH   H08 9515   9.905   1.270   2.710  0.3890 -0.7894  0.9822
   96GLOH    C2 9516   9.827   1.438   2.815  0.7672 -0.9059 -0.9986
   96GLOH   H04 9517   9.795   1.379   2.903 -0.1218  0.3854 -0.4377
   96GLOH    O2 9518   9.864   1.566   2.862 -0.1135  0.6074  0.3100
   96GLOH   H05 9519   9.957   1.571   2.893 -1.0097 -1.0127  3.4616
   96GLOH    C3 9520   9.699   1.441   2.724 -0.3627  0.2837 -0.0412
   96GLOH   H06 9521   9.720   1.489   2.628  1.2209  2.2523  1.2548
   96GLOH   H07 9522   9.622   1.509   2.762 -0.6433  0.2121 -0.4735
   96GLOH    O3 9523   9.643   1.311   2.702  0.0010  0.4323  0.6147
   96GLOH   H01 9524   9.571   1.296   2.766  1.2551 -1.2461  1.7113
   97GLOH   H03 9525   7.915   5.981   4.180 -0.4819 -0.6805  1.0204
   97GLOH    O1 9526   7.957   5.898   4.151  0.6305  0.2320 -0.0585
   97GLOH    C1 9527   7.857   5.793   4.154 -0.0227 -0.5159 -0.2144
   97GLOH   H02 9528   7.907   5.696   4.147 -0.4474 -0.8806  1.6213
   97GLOH   H08 9529   7.802   5.799   4.060 -0.1686 -1.3372 -0.1851
   97GLOH    C2 9530   7.758   5.804   4.272 -0.0026  0.5297 -0.3174
   97GLOH   H04 9531   7.696   5.893   4.254  0.6371  0.7577 -1.3814
   97GLOH    O2 9532   7.678   5.683   4.268 -0.2191 -0.2513 -0.1473
   97GLOH   H05 9533   7.593   5.714   4.305  1.0242  0.2703  2.4301
   97GLOH    C3 9534   7.836   5.834   4.407 -0.1615 -0.1508  0.5199
   97GLOH   H06 9535   7.767   5.866   4.485 -1.4488 -1.1529 -0.1829
   97GLOH   H07 9536   7.905   5.913   4.378 -2.2323  1.2495 -0.6784
   97GLOH    O3 9537   7.903   5.715   4.454 -0.0323  0.0119 -0.0591
   97GLOH   H01 9538   7.836   5.645   4.459 -1.3492  1.1342 -1.3807
   98GLOH   H03 9539   5.896   9.054   6.924  0.6821 -0.0826 -0.4086
   98GLOH    O1 9540   5.863   9.021   7.009 -0.5031  0.0759 -0.8027
   98GLOH    C1 9541   5.742   9.086   7.059 -0.0541  0.5548 -0.4309
   98GLOH   H02 9542   5.662   9.081   6.985 -1.5757  0.9379  1.1526
   98GLOH   H08 9543   5.769   9.190   7.074  1.1591 -0.0814  2.0328
   98GLOH    C2 9544   5.685   9.030   7.195 -0.4010 -0.4918  0.4787
   98GLOH   H04 9545   5.764   9.024   7.271 -0.5637 -0.9798  0.6190
   98GLOH    O2 9546   5.574   9.112   7.235 -0.2851  0.1278  0.0396
   98GLOH   H05 9547   5.598   9.200   7.268 -0.9162  1.6449 -3.3486
   98GLOH    C3 9548   5.629   8.889   7.157 -0.3929  0.0287  0.2012
   98GLOH   H06 9549   5.555   8.896   7.077 -1.7131  0.0480  1.4157
   98GLOH   H07 9550   5.576   8.845   7.242 -0.8440 -0.4964 -0.3415
   98GLOH    O3 9551   5.730   8.798   7.110  0.0860 -0.7417 -0.2727
   98GLOH   H01 9552   5.787   8.867   7.072 -3.3271  1.4900 -1.5718
   99GLOH   H03 9553   3.551  10.023   6.492 -0.8706  1.7383 -1.6934
   99GLOH    O1 9554   3.554   9.951   6.427 -0.2851  0.2649 -0.0543
   99GLOH    C1 9555   3.452   9.860   6.469  0.0850 -0.7286 -0.1049
   99GLOH   H02 9556   3.364   9.911   6.506 -1.0842 -0.9438 -2.4746
   99GLOH   H08 9557   3.483   9.795   6.551  1.3662 -0.5539 -0.4293
   99GLOH    C2 9558   3.406   9.768   6.353  0.0111 -0.4270 -0.2691
   99GLOH   H04 9559   3.488   9.700   6.326 -0.1502 -0.9843  0.6118
   99GLOH    O2 9560   3.293   9.688   6.387  0.3832 -0.1651  0.1368
   99GLOH   H05 9561   3.219   9.750   6.402  2.2051  2.1795 -0.3609
   99GLOH    C3 9562   3.376   9.857   6.225 -0.4901  0.3497 -0.9279
   99GLOH   H06 9563   3.370   9.789   6.140  2.9144  0.7436 -1.5540
   99GLOH   H07 9564   3.468   9.912   6.206  0.5374 -1.7305 -2.2139
   99GLOH    O3 9565   3.262   9.946   6.241  0.4054  0.0776 -0.6290
   99GLOH   H01 9566   3.178   9.898   6.248 -0.5479  1.8846  0.5012
  100GLOH   H03 9567   1.101   3.069   4.911 -1.1480 -1.0319 -0.2355
  100GLOH    O1 9568   1.162   3.004   4.871  0.1271 -0.7088  1.1293
  100GLOH    C1 9569   1.273   2.986   4.959 -0.7677 -0.0912  0.4320
  100GLOH   H02 9570   1.240   3.006   5.062  0.1499 -0.9664  0.8977
  100GLOH   H08 9571   1.351   3.058   4.934  1.0601 -1.9053  0.7923
  100GLOH    C2 9572   1.326   2.840   4.968 -0.2017  0.1660  0.4396
  100GLOH   H04 9573   1.416   2.842   5.032  2.0452  1.1927 -2.6080
  100GLOH    O2 9574   1.217   2.758   5.024 -0.0279  0.1984 -0.9848
  100GLOH   H05 9575   1.189   2.800   5.107  1.5196 -0.2816 -0.1922
  100GLOH    C3 9576   1.367   2.783   4.832  0.3058  0.3695  0.6679
  100GLOH   H06 9577   1.277   2.790   4.772  1.3207  2.3544 -0.6658
  100GLOH   H07 9578   1.391   2.677   4.842 -0.3752  0.1389 -0.1325
  100GLOH    O3 9579   1.465   2.859   4.762  0.1047 -0.2839 -0.0520
  100GLOH   H01 9580   1.541   2.884   4.818  1.1036 -2.6566 -0.3000
  101GLOH   H03 9581   3.384   9.173   6.112 -0.0434  0.7856  0.7649
  101GLOH    O1 9582   3.336   9.235   6.054  0.3185  0.0512 -0.3308
  101GLOH    C1 9583   3.425   9.340   6.012 -0.1468 -0.8390  0.1346
  101GLOH   H02 9584   3.378   9.375   5.920  1.8210  2.1025  0.1980
  101GLOH   H08 9585   3.520   9.310   5.968  1.1253  1.2306  1.4056
  101GLOH    C2 9586   3.451   9.455   6.113 -0.2663  0.1855  0.3722
  101GLOH   H04 9587   3.351   9.493   6.138 -0.1892 -1.2669  3.0201
  101GLOH    O2 9588   3.530   9.397   6.225 -0.4596 -0.1987 -0.2217
  101GLOH   H05 9589   3.474   9.414   6.303  0.5654  1.9786  0.0845
  101GLOH    C3 9590   3.520   9.574   6.046  0.5485 -0.1874 -0.8377
  101GLOH   H06 9591   3.624   9.548   6.027  0.4903 -3.6328  2.7049
  101GLOH   H07 9592   3.527   9.652   6.122 -2.1958  0.7207 -1.4565
  101GLOH    O3 9593   3.456   9.637   5.930 -0.0162 -0.0577  0.1481
  101GLOH   H01 9594   3.504   9.603   5.852 -2.1765  0.4830 -1.4552
  102GLOH   H03 9595   9.206   5.356   3.267 -2.1404  0.5117  0.0554
  102GLOH    O1 9596   9.187   5.294   3.194 -0.4400  0.4416 -0.3439
  102GLOH    C1 9597   9.150   5.362   3.071  0.3687 -0.3263 -0.1381
  102GLOH   H02 9598   9.048   5.399   3.079  0.1468 -0.4309 -2.1926
  102GLOH   H08 9599   9.141   5.290   2.990 -0.2886  1.4377 -1.6815
  102GLOH    C2 9600   9.254   5.483   3.040  0.4244  0.3806  0.5171
  102GLOH   H04 9601   9.243   5.511   2.934 -0.4501  2.0810  1.0527
  102GLOH    O2 9602   9.218   5.583   3.137 -0.3752 -0.3005 -0.0265
  102GLOH   H05 9603   9.234   5.570   3.232  2.0413  1.0967 -0.1917
  102GLOH    C3 9604   9.390   5.425   3.071 -0.3690 -0.2062 -0.5366
  102GLOH   H06 9605   9.404   5.402   3.176  0.5675  2.4987 -0.0344
  102GLOH   H07 9606   9.466   5.501   3.054 -0.0697 -0.8302 -2.0938
  102GLOH    O3 9607   9.424   5.314   2.990  0.4690  0.0065  0.4013
  102GLOH   H01 9608   9.422   5.347   2.898  2.1503  0.8476  0.6535
  103GLOH   H03 9609   7.782   6.298   4.499 -2.6024  0.3514  0.1779
  103GLOH    O1 9610   7.792   6.202   4.509  0.4162  0.5963  0.2232
  103GLOH    C1 9611   7.660   6.144   4.506  0.0269 -0.4473  0.1988
  103GLOH   H02 9612   7.661   6.053   4.446 -0.3084  0.4630 -1.2180
  103GLOH   H08 9613   7.593   6.214   4.456  0.2008  0.0112  0.6024
  103GLOH    C2 9614   7.605   6.108   4.647 -0.5519  0.4748 -0.6919
  103GLOH   H04 9615   7.670   6.040   4.703 -1.9243  1.2339  1.8778
  103GLOH    O2 9616   7.597   6.225   4.732 -0.5632 -0.1346  0.5656
  103GLOH   H05 9617   7.544   6.295   4.690  0.9515  0.4833 -0.3561
  103GLOH    C3 9618   7.461   6.052   4.628  0.2787  0.1298  0.6360
  103GLOH   H06 9619   7.401   6.112   4.559  0.0174  0.0969  0.8328
  103GLOH   H07 9620   7.412   6.059   4.725 -0.6601  0.6409  0.1393
  103GLOH    O3 9621   7.457   5.919   4.590 -0.0149 -0.5703 -0.2655
  103GLOH   H01 9622   7.497   5.873   4.666  0.6458 -2.4933 -1.7261
  104GLOH   H03 9623   7.017   9.846  -0.074 -0.3978  0.2393  1.0000
  104GLOH    O1 9624   7.099   9.794  -0.067 -0.4368  0.0346 -0.0128
  104GLOH    C1 9625   7.141   9.769   0.070 -0.3456  0.4371  0.2083
  104GLOH   H02 9626   7.106   9.672   0.102 -0.1876  1.0127  2.1671
  104GLOH   H08 9627   7.098   9.844   0.136 -1.9822  0.9104 -1.3478
  104GLOH    C2 9628   7.294   9.778   0.075  0.1505 -0.4792 -0.1439
  104GLOH   H04 9629   7.322   9.880   0.047  1.8578 -1.0621 -0.6326
  104GLOH    O2 9630   7.350   9.753   0.208 -0.7953  0.1434  0.3342
  104GLOH   H05 9631   7.440   9.714   0.209 -0.9271 -0.1557  0.5721
  104GLOH    C3 9632   7.358   9.675  -0.016  0.1672 -0.2619 -1.1692
  104GLOH   H06 9633   7.308   9.686  -0.112 -1.3815  1.1070 -0.2310
  104GLOH   H07 9634   7.328   9.581   0.031 -2.7184  0.9219 -0.5532
  104GLOH    O3 9635   7.503   9.683  -0.029 -0.5875  0.0722 -0.4092
  104GLOH   H01 9636   7.550   9.663   0.054 -3.6648  0.0018  1.4050
  105GLOH   H03 9637   6.433   1.080   7.513  0.3829  0.0711  0.0937
  105GLOH    O1 9638   6.394   1.130   7.587 -0.2173  0.1289 -0.2534
  105GLOH    C1 9639   6.249   1.133   7.580 -0.4993 -0.0951  0.2373
  105GLOH   H02 9640   6.215   1.103   7.481  1.0489  0.3096 -0.4390
  105GLOH   H08 9641   6.216   1.231   7.614 -0.1236  0.0638  0.1507
  105GLOH    C2 9642   6.182   1.048   7.684 -0.2155  0.4795 -0.2103
  105GLOH   H04 9643   6.231   1.076   7.779 -1.2596  0.0172  0.4722
  105GLOH    O2 9644   6.045   1.098   7.688 -0.1058  0.0667  0.0804
  105GLOH   H05 9645   6.036   1.162   7.760 -1.4351  0.8080 -0.7287
  105GLOH    C3 9646   6.197   0.892   7.670  0.2207 -0.8219  0.2392
  105GLOH   H06 9647   6.292   0.852   7.632  0.2940  0.8597 -1.4253
  105GLOH   H07 9648   6.119   0.865   7.598 -2.5574 -1.1259  3.2559
  105GLOH    O3 9649   6.167   0.835   7.796  0.3021  0.4809 -0.4005
  105GLOH   H01 9650   6.077   0.869   7.814  0.0772  1.0074 -2.4187
  106GLOH   H03 9651   4.108   7.109   3.474 -1.4955  0.0681  0.3680
  106GLOH    O1 9652   4.152   7.190   3.444 -0.2429 -0.5926  0.3870
  106GLOH    C1 9653   4.191   7.178   3.302 -0.9928 -0.2059 -0.4187
  106GLOH   H02 9654   4.096   7.189   3.250 -0.9987 -1.1418 -0.6149
  106GLOH   H08 9655   4.233   7.078   3.289  3.3003  0.6336  4.8809
  106GLOH    C2 9656   4.296   7.285   3.255  0.4697  0.0658  0.4748
  106GLOH   H04 9657   4.377   7.260   3.325  0.2879  0.0952  0.6964
  106GLOH    O2 9658   4.334   7.277   3.120 -0.1952 -0.0828 -0.7687
  106GLOH   H05 9659   4.383   7.356   3.091 -1.5568 -0.2532 -3.7240
  106GLOH    C3 9660   4.251   7.426   3.301 -0.4214 -0.1125  0.3387
  106GLOH   H06 9661   4.201   7.422   3.398 -1.1483  1.3539  0.0404
  106GLOH   H07 9662   4.173   7.460   3.233 -1.9584 -3.7433  0.1752
  106GLOH    O3 9663   4.365   7.517   3.307 -0.1206  0.6947 -0.5855
  106GLOH   H01 9664   4.353   7.581   3.234  0.1995  2.5485  0.9581
  107GLOH   H03 9665   7.736   6.320   4.750  1.9289 -2.1865  2.2593
  107GLOH    O1 9666   7.793   6.393   4.781  0.3528  0.2325 -0.3368
  107GLOH    C1 9667   7.785   6.399   4.924  0.5198  1.2234  0.1932
  107GLOH   H02 9668   7.802   6.306   4.978  0.7353  0.3593 -1.3658
  107GLOH   H08 9669   7.684   6.432   4.949  0.3110 -1.3732  3.0670
  107GLOH    C2 9670   7.888   6.498   4.980  0.7884  0.0167 -0.8702
  107GLOH   H04 9671   7.844   6.599   4.975 -0.9227 -0.6446  0.3274
  107GLOH    O2 9672   7.896   6.492   5.123 -0.3593  0.1159 -0.0951
  107GLOH   H05 9673   7.873   6.578   5.163  3.7440  0.7320  1.2527
  107GLOH    C3 9674   8.029   6.480   4.922  0.2817 -0.5433  0.3257
  107GLOH   H06 9675   8.088   6.555   4.976  0.4464 -0.5168  0.1074
  107GLOH   H07 9676   8.038   6.509   4.818  0.3348  0.4179  0.5896
  107GLOH    O3 9677   8.089   6.348   4.932 -0.2621  0.2506 -0.3891
  107GLOH   H01 9678   8.174   6.377   4.896 -0.5979 -0.0495 -1.4633
  108GLOH   H03 9679   3.997   7.253   4.005 -0.8111  0.3105 -0.8196
  108GLOH    O1 9680   3.991   7.350   3.997 -0.5025  0.3986 -0.0855
  108GLOH    C1 9681   4.123   7.384   3.965  0.4406 -0.5889 -0.6791
  108GLOH   H02 9682   4.178   7.298   3.927  2.0728 -0.3262  0.9829
  108GLOH   H08 9683   4.179   7.411   4.055  1.4512  1.8430 -1.9922
  108GLOH    C2 9684   4.133   7.500   3.867 -0.9028  0.5284  0.0070
  108GLOH   H04 9685   4.083   7.591   3.904 -1.0719  1.2886 -1.9899
  108GLOH    O2 9686   4.275   7.529   3.846 -0.1389 -0.2032 -0.1526
  108GLOH   H05 9687   4.280   7.579   3.763 -1.6320  1.0775  0.5058
  108GLOH    C3 9688   4.063   7.458   3.738  0.1032 -0.7287  0.3741
  108GLOH   H06 9689   4.118   7.381   3.685 -1.0332 -1.6814  0.5373
  108GLOH   H07 9690   4.069   7.546   3.674 -0.1221 -0.4297  0.7636
  108GLOH    O3 9691   3.926   7.423   3.760  0.8147  0.2155  0.2239
  108GLOH   H01 9692   3.925   7.377   3.847 -1.0633  0.1556  0.1810
  109GLOH   H03 9693   4.783   3.589   0.895  1.7133 -2.1757 -0.5221
  109GLOH    O1 9694   4.706   3.540   0.862 -0.0638  0.3800 -0.2908
  109GLOH    C1 9695   4.643   3.476   0.969 -0.5318  0.3412  0.2119
  109GLOH   H02 9696   4.558   3.421   0.930  1.2699 -2.0526 -0.4019
  109GLOH   H08 9697   4.617   3.549   1.046 -2.4324  0.4007 -0.4602
  109GLOH    C2 9698   4.744   3.380   1.039  0.4396 -0.5608 -0.0217
  109GLOH   H04 9699   4.787   3.313   0.963  1.4306  0.6304 -0.5252
  109GLOH    O2 9700   4.857   3.449   1.085 -0.3456 -0.1105 -0.0272
  109GLOH   H05 9701   4.933   3.425   1.030 -0.0755 -0.7750  0.6291
  109GLOH    C3 9702   4.679   3.287   1.144  0.6028 -0.3777 -0.3346
  109GLOH   H06 9703   4.656   3.347   1.232 -0.8208 -0.5019 -0.6113
  109GLOH   H07 9704   4.753   3.214   1.176  1.0591 -0.4789 -1.5955
  109GLOH    O3 9705   4.565   3.228   1.085  0.2993 -0.0532 -0.2933
  109GLOH   H01 9706   4.558   3.137   1.118  2.6895  0.0006  0.4316
  110GLOH   H03 9707   4.508   9.045   4.148 -3.5312 -0.1022  2.5478
  110GLOH    O1 9708   4.454   9.083   4.077  0.0529 -0.0029 -0.2479
  110GLOH    C1 9709   4.371   9.188   4.131 -0.0348 -0.5276  0.0158
  110GLOH   H02 9710   4.283   9.187   4.067  0.9208 -1.2207 -1.3230
  110GLOH   H08 9711   4.420   9.285   4.122 -0.6493 -0.3949 -2.3630
  110GLOH    C2 9712   4.320   9.158   4.273 -0.0820 -0.3939  0.5700
  110GLOH   H04 9713   4.283   9.055   4.266 -0.9012  0.0372 -2.5386
  110GLOH    O2 9714   4.418   9.170   4.383  0.2951 -0.3169  0.6983
  110GLOH   H05 9715   4.374   9.132   4.460 -0.2231  1.4678  1.3145
  110GLOH    C3 9716   4.194   9.240   4.301  0.3030 -0.3574  0.4134
  110GLOH   H06 9717   4.222   9.345   4.309  1.4119 -0.7975  2.5466
  110GLOH   H07 9718   4.156   9.211   4.398 -0.2418  0.1758  0.3623
  110GLOH    O3 9719   4.090   9.225   4.209  0.4393 -0.7458 -0.7144
  110GLOH   H01 9720   4.074   9.130   4.222 -1.0502 -0.3116  0.7235
  111GLOH   H03 9721   8.511   5.301   3.354 -0.2342 -0.0818  3.0801
  111GLOH    O1 9722   8.605   5.274   3.355 -0.0688  0.0655 -0.3024
  111GLOH    C1 9723   8.687   5.377   3.310 -0.7255 -0.5567  0.7176
  111GLOH   H02 9724   8.640   5.474   3.327  0.9744  0.1059  1.7109
  111GLOH   H08 9725   8.699   5.363   3.202 -2.3083  0.4504  0.3864
  111GLOH    C2 9726   8.826   5.376   3.388  0.1684 -0.0249  0.0371
  111GLOH   H04 9727   8.875   5.279   3.371 -2.9031 -1.9337  1.6205
  111GLOH    O2 9728   8.912   5.486   3.342 -0.0514  0.2687  0.1194
  111GLOH   H05 9729   9.005   5.464   3.361  0.1737  0.3931 -0.8178
  111GLOH    C3 9730   8.793   5.383   3.539 -0.3456 -0.5693 -0.1519
  111GLOH   H06 9731   8.741   5.478   3.551 -0.4415 -0.9103  2.4639
  111GLOH   H07 9732   8.878   5.396   3.606 -2.1102  3.3017  1.4651
  111GLOH    O3 9733   8.719   5.268   3.575 -0.3500  0.4970 -1.1890
  111GLOH   H01 9734   8.677   5.252   3.489 -1.5163 -0.5424 -0.4417
  112GLOH   H03 9735   7.073  -0.147   4.881  0.2412 -0.8829  0.3285
  112GLOH    O1 9736   7.055  -0.130   4.975 -0.1605 -0.3701  0.1568
  112GLOH    C1 9737   6.924  -0.083   4.981 -0.4196  0.0159  0.3968
  112GLOH   H02 9738   6.920  -0.049   5.084  0.3214 -0.1546  0.4807
  112GLOH   H08 9739   6.843  -0.155   4.983 -0.7583  0.3409 -0.8088
  112GLOH    C2 9740   6.883   0.025   4.881  0.6953 -0.0336 -0.2527
  112GLOH   H04 9741   6.955   0.108   4.881  0.0063  0.5695  0.6694
  112GLOH    O2 9742   6.882  -0.020   4.747  0.1318 -0.3890 -0.1121
  112GLOH   H05 9743   6.972  -0.035   4.712  1.6182  1.3893  2.7356
  112GLOH    C3 9744   6.744   0.073   4.929 -0.2988  0.8662  0.5973
  112GLOH   H06 9745   6.674  -0.009   4.945  1.4079 -0.5961  0.7037
  112GLOH   H07 9746   6.698   0.121   4.843  0.0782 -1.3408 -0.8836
  112GLOH    O3 9747   6.763   0.150   5.048 -0.4379  0.3043 -0.1305
  112GLOH   H01 9748   6.807   0.236   5.030  0.2505 -0.0278 -0.0776
  113GLOH   H03 9749   6.295   1.860   4.686 -0.0024 -0.2823 -1.6013
  113GLOH    O1 9750   6.286   1.765   4.707 -0.2187  0.1563  0.4008
  113GLOH    C1 9751   6.423   1.725   4.742  0.4342  0.2511  0.8488
  113GLOH   H02 9752   6.420   1.658   4.828  1.3475 -0.7465  0.1314
  113GLOH   H08 9753   6.485   1.811   4.767 -1.4343  2.2033 -1.0136
  113GLOH    C2 9754   6.505   1.663   4.631  0.0016  0.1907  0.1026
  113GLOH   H04 9755   6.511   1.738   4.551  0.4390 -0.2833 -0.3194
  113GLOH    O2 9756   6.634   1.620   4.682 -0.2264 -0.4129  0.0971
  113GLOH   H05 9757   6.688   1.613   4.602  0.7224  0.4945  0.6375
  113GLOH    C3 9758   6.441   1.533   4.572 -0.2780  0.1245  0.4696
  113GLOH   H06 9759   6.450   1.445   4.637  1.7889  0.9794  1.3765
  113GLOH   H07 9760   6.494   1.503   4.482 -0.3768  1.5958 -0.0938
  113GLOH    O3 9761   6.303   1.554   4.537  0.0675 -0.3026 -0.3656
  113GLOH   H01 9762   6.272   1.637   4.577  1.9532  0.5146 -0.5229
  114GLOH   H03 9763   9.417   0.520   5.943  2.9317  0.1512 -0.9388
  114GLOH    O1 9764   9.435   0.547   6.035 -0.1526  0.0664 -0.2264
  114GLOH    C1 9765   9.577   0.525   6.061 -0.2095  0.3991 -0.9627
  114GLOH   H02 9766   9.638   0.551   5.975  0.0564 -2.1884 -1.5816
  114GLOH   H08 9767   9.599   0.423   6.090  2.1138  0.5109 -2.2000
  114GLOH    C2 9768   9.614   0.612   6.180 -0.5236  0.2938 -1.0527
  114GLOH   H04 9769   9.585   0.715   6.155 -0.8822  1.0863  2.4463
  114GLOH    O2 9770   9.533   0.576   6.295  0.3456  0.2830  0.0742
  114GLOH   H05 9771   9.445   0.541   6.278  0.6545 -0.7155  0.4866
  114GLOH    C3 9772   9.768   0.614   6.193 -0.0872  0.1415  0.4116
  114GLOH   H06 9773   9.794   0.513   6.223  1.4347  0.0088 -1.2322
  114GLOH   H07 9774   9.783   0.680   6.279  0.9641 -2.8422  2.5774
  114GLOH    O3 9775   9.846   0.665   6.079 -0.1084 -0.1279 -0.0248
  114GLOH   H01 9776   9.849   0.590   6.017 -0.7401 -1.9298  2.1063
  115GLOH   H03 9777   5.049   5.716   2.888 -1.0745 -1.0238  0.1231
  115GLOH    O1 9778   5.106   5.648   2.848  0.2241  0.0689  0.0876
  115GLOH    C1 9779   5.050   5.520   2.885  1.0634  0.1591 -0.1642
  115GLOH   H02 9780   5.082   5.475   2.979 -2.5607 -1.4992  0.3518
  115GLOH   H08 9781   5.080   5.446   2.811 -0.5280 -1.5214  0.8371
  115GLOH    C2 9782   4.894   5.527   2.883  0.2061  0.2051 -0.3381
  115GLOH   H04 9783   4.864   5.545   2.779  0.1355  1.2287 -0.1485
  115GLOH    O2 9784   4.820   5.408   2.912  0.1581 -0.0329 -0.2908
  115GLOH   H05 9785   4.843   5.378   3.002 -1.1367 -3.1973 -0.9602
  115GLOH    C3 9786   4.842   5.647   2.970  0.2378 -0.2097  0.6441
  115GLOH   H06 9787   4.876   5.635   3.073 -1.0068 -3.7103  0.7149
  115GLOH   H07 9788   4.733   5.649   2.962  0.1387  1.6949  1.9698
  115GLOH    O3 9789   4.892   5.778   2.919 -0.2873 -0.4317  0.3963
  115GLOH   H01 9790   4.822   5.845   2.936  1.9239  1.7788  1.0353
  116GLOH   H03 9791   8.644   6.068   7.380  0.3360  1.4606 -0.6192
  116GLOH    O1 9792   8.675   6.015   7.305 -0.2203  0.0863  0.1144
  116GLOH    C1 9793   8.579   5.911   7.282 -0.4664  0.5210  0.0679
  116GLOH   H02 9794   8.589   5.871   7.181  0.1856 -1.6470  0.9687
  116GLOH   H08 9795   8.476   5.940   7.304 -0.4042  0.7616  0.0491
  116GLOH    C2 9796   8.595   5.793   7.375  0.9756 -0.3758  0.3898
  116GLOH   H04 9797   8.511   5.725   7.350  0.5637  0.0305  0.6683
  116GLOH    O2 9798   8.719   5.731   7.353 -0.0640 -0.1161  0.4367
  116GLOH   H05 9799   8.714   5.649   7.404 -0.2517  0.0081  0.6184
  116GLOH    C3 9800   8.572   5.832   7.523 -0.3857  0.2305  0.0498
  116GLOH   H06 9801   8.655   5.892   7.561 -0.4112 -1.4083  2.8530
  116GLOH   H07 9802   8.580   5.742   7.584  0.1588  0.1129 -0.1999
  116GLOH    O3 9803   8.447   5.902   7.545  0.0544  0.4725  0.1095
  116GLOH   H01 9804   8.454   5.960   7.623  1.3195  0.6123 -0.1048
  117GLOH   H03 9805   3.482   8.805   3.548 -0.5414 -1.9573 -0.2277
  117GLOH    O1 9806   3.529   8.799   3.633  0.5231  0.8079 -0.5615
  117GLOH    C1 9807   3.543   8.662   3.668  0.4122  0.0488  0.1932
  117GLOH   H02 9808   3.452   8.606   3.651  0.3536  0.1940  0.0278
  117GLOH   H08 9809   3.557   8.658   3.776  0.9097  1.3404  0.1840
  117GLOH    C2 9810   3.660   8.588   3.599 -0.4997  0.2633  0.8643
  117GLOH   H04 9811   3.647   8.481   3.623 -1.7973 -0.1421 -1.4877
  117GLOH    O2 9812   3.661   8.596   3.456  0.6448  0.2963  0.4103
  117GLOH   H05 9813   3.695   8.682   3.424 -0.8191  1.6496  2.3868
  117GLOH    C3 9814   3.795   8.639   3.653  0.2552 -0.1711  0.4810
  117GLOH   H06 9815   3.807   8.745   3.628 -0.5096 -0.1703  0.1188
  117GLOH   H07 9816   3.866   8.582   3.593 -1.0289  0.8220 -2.0676
  117GLOH    O3 9817   3.802   8.621   3.793 -0.3396  0.0322  0.1578
  117GLOH   H01 9818   3.805   8.529   3.826 -2.1962  0.1086  0.5945
  118GLOH   H03 9819   7.370   3.386   8.132  1.5713 -0.4806 -0.0413
  118GLOH    O1 9820   7.383   3.476   8.096 -0.1718 -0.0983  0.2747
  118GLOH    C1 9821   7.332   3.565   8.190 -0.1386  0.0311 -0.9215
  118GLOH   H02 9822   7.395   3.556   8.278 -0.0897 -0.4107 -1.0013
  118GLOH   H08 9823   7.234   3.527   8.220 -0.6619  0.9270 -1.4657
  118GLOH    C2 9824   7.316   3.715   8.150 -0.6831  0.2702  0.2356
  118GLOH   H04 9825   7.417   3.755   8.133 -1.5010  2.1381 -0.3612
  118GLOH    O2 9826   7.244   3.731   8.029  0.4345  0.8165 -0.0640
  118GLOH   H05 9827   7.302   3.701   7.957  0.2713  0.4313 -0.0435
  118GLOH    C3 9828   7.233   3.802   8.247  0.3033  0.3200 -0.0369
  118GLOH   H06 9829   7.134   3.758   8.262  0.5437 -0.6062 -1.0401
  118GLOH   H07 9830   7.217   3.899   8.200  0.6124 -0.9352 -2.8840
  118GLOH    O3 9831   7.298   3.810   8.373 -0.0196 -0.0604  0.0170
  118GLOH   H01 9832   7.245   3.873   8.425 -0.1795 -0.1708 -0.0124
  119GLOH   H03 9833   7.518   9.904   2.313  0.7381 -1.5632 -0.6815
  119GLOH    O1 9834   7.544   9.861   2.396 -0.0156 -0.1692  0.3015
  119GLOH    C1 9835   7.585   9.726   2.374  0.2214 -0.3351 -0.0332
  119GLOH   H02 9836   7.690   9.711   2.347  0.7042  0.3358  1.4264
  119GLOH   H08 9837   7.533   9.687   2.287  0.0585  1.9775 -1.0113
  119GLOH    C2 9838   7.557   9.645   2.499  0.2411 -0.0978 -0.1796
  119GLOH   H04 9839   7.585   9.540   2.483  0.9366  0.2549 -1.3759
  119GLOH    O2 9840   7.621   9.689   2.623  0.1678  0.2270  0.8376
  119GLOH   H05 9841   7.589   9.773   2.661 -2.1200 -0.4156  0.3803
  119GLOH    C3 9842   7.405   9.644   2.535 -0.0161  0.5985  0.5097
  119GLOH   H06 9843   7.370   9.747   2.546  2.4024  1.3091  2.0148
  119GLOH   H07 9844   7.392   9.600   2.634 -1.8359 -1.3116 -0.5422
  119GLOH    O3 9845   7.328   9.555   2.445 -0.1442  0.0145 -0.4069
  119GLOH   H01 9846   7.252   9.505   2.480  0.7809 -1.2068 -0.1332
  120GLOH   H03 9847   3.137   9.688   4.002 -1.9205  0.1144  0.2081
  120GLOH    O1 9848   3.116   9.640   3.920  0.0334 -0.1620 -0.1494
  120GLOH    C1 9849   2.983   9.687   3.869 -0.2948 -0.5469  0.1234
  120GLOH   H02 9850   2.989   9.689   3.760  2.0122 -0.7566  0.2075
  120GLOH   H08 9851   2.975   9.794   3.887  0.6593 -0.1424 -1.7197
  120GLOH    C2 9852   2.855   9.622   3.921  0.1019  0.4363  0.2014
  120GLOH   H04 9853   2.868   9.514   3.908  4.9785  0.9820 -0.1818
  120GLOH    O2 9854   2.839   9.643   4.058 -0.5045 -0.1058  0.2254
  120GLOH   H05 9855   2.743   9.641   4.071 -0.5558 -1.4205 -0.2992
  120GLOH    C3 9856   2.726   9.674   3.850 -0.2012 -0.2195  0.2212
  120GLOH   H06 9857   2.715   9.777   3.881 -0.3777 -0.9342  2.6531
  120GLOH   H07 9858   2.641   9.628   3.902 -1.4569  0.2494 -1.3460
  120GLOH    O3 9859   2.720   9.656   3.708 -0.2068 -0.3397  0.3733
  120GLOH   H01 9860   2.648   9.595   3.684  0.2781 -0.7700 -0.0122
  121ACOH    H4 9861   4.478   2.483   2.759  0.5121  0.0819  0.7394
  121ACOH    O2 9862   4.550   2.456   2.700 -0.0097 -0.1836  0.2234
  121ACOH    C2 9863   4.670   2.481   2.759 -0.2979 -0.4437 -0.2090
  121ACOH    O1 9864   4.683   2.527   2.869  0.0165  0.0614  0.3026
  121ACOH    C1 9865   4.778   2.490   2.666  0.1844  0.3494  0.2222
  121ACOH    H1 9866   4.874   2.507   2.713  1.9137 -2.6330 -2.0580
  121ACOH    H2 9867   4.752   2.583   2.614 -0.5189  0.8189  1.4088
  121ACOH    H3 9868   4.784   2.410   2.592 -1.5369  2.6376 -2.5342
  122ACOH    H4 9869   4.659   9.303   0.579 -0.1302  1.7219  1.7056
  122ACOH    O2 9870   4.608   9.274   0.657 -0.8883  0.4399  0.7396
  122ACOH    C2 9871   4.528   9.369   0.704 -0.5565  0.1216 -0.9144
  122ACOH    O1 9872   4.506   9.475   0.644 -0.2649  0.0537  0.0356
  122ACOH    C1 9873   4.436   9.311   0.809  0.7247  0.1506 -0.3250
  122ACOH    H1 9874   4.477   9.221   0.854  0.0809 -0.1232 -0.2883
  122ACOH    H2 9875   4.346   9.282   0.754  0.0621  1.8307 -0.1652
  122ACOH    H3 9876   4.426   9.385   0.888  0.5956 -0.0577 -0.1441
  123ACOH    H4 9877   4.366   7.461   4.709 -1.2316  0.0944  1.1169
  123ACOH    O2 9878   4.395   7.395   4.775  0.4834  0.1878  0.4824
  123ACOH    C2 9879   4.465   7.307   4.699 -0.0835  0.1108 -0.3282
  123ACOH    O1 9880   4.480   7.308   4.577  0.0190  0.2337  0.2080
  123ACOH    C1 9881   4.516   7.198   4.783 -0.4543 -0.1237  0.2609
  123ACOH    H1 9882   4.456   7.196   4.874  2.7971  0.6809  2.5583
  123ACOH    H2 9883   4.618   7.210   4.821  0.2155 -2.0450 -0.8971
  123ACOH    H3 9884   4.504   7.105   4.728 -1.8189  0.5235 -0.5395
  124ACOH    H4 9885   4.584   6.767   4.018 -0.4734 -1.7519 -2.6989
  124ACOH    O2 9886   4.597   6.694   4.081 -0.0959  0.4512 -0.1051
  124ACOH    C2 9887   4.655   6.760   4.181 -0.2436 -0.0348  1.0392
  124ACOH    O1 9888   4.667   6.880   4.186 -0.2491 -0.2877 -0.0914
  124ACOH    C1 9889   4.691   6.675   4.295 -0.4420  0.2215 -0.4725
  124ACOH    H1 9890   4.790   6.712   4.318 -0.3169 -0.6753  0.4601
  124ACOH    H2 9891   4.703   6.572   4.263 -0.3079  0.6364 -1.7826
  124ACOH    H3 9892   4.622   6.679   4.379 -1.3520 -1.4517 -1.1119
  125ACOH    H4 9893   6.630   5.870   6.230  0.5613 -1.9031 -0.7710
  125ACOH    O2 9894   6.544   5.899   6.195  0.2173 -1.0106  0.7596
  125ACOH    C2 9895   6.553   5.944   6.070  0.0688  0.6690  0.9837
  125ACOH    O1 9896   6.655   5.945   5.999 -0.0082  0.2871 -0.2369
  125ACOH    C1 9897   6.429   5.989   6.009  0.2171 -0.1222 -0.3100
  125ACOH    H1 9898   6.347   5.952   6.071  2.6047 -3.8254  0.8444
  125ACOH    H2 9899   6.406   5.946   5.911 -3.9845 -0.5612  0.7474
  125ACOH    H3 9900   6.417   6.097   6.000 -1.4404 -0.1573  1.2304
  126ACOH    H4 9901   5.865   5.405   0.024  0.9677  1.3022  0.8548
  126ACOH    O2 9902   5.897   5.459  -0.050  0.4817  0.1038 -0.2515
  126ACOH    C2 9903   5.983   5.531   0.023  0.3964  0.0131  0.2842
  126ACOH    O1 9904   5.985   5.548   0.142 -0.8600  0.3931 -0.0699
  126ACOH    C1 9905   6.077   5.595  -0.068 -0.2223  0.2837  0.2717
  126ACOH    H1 9906   6.129   5.523  -0.131  0.1436  0.1384  0.7387
  126ACOH    H2 9907   6.142   5.658  -0.006 -0.1811  0.0559  0.4600
  126ACOH    H3 9908   6.019   5.663  -0.131  0.2474 -1.0126 -1.6026
  127ACOH    H4 9909   8.989   3.198   1.237 -2.5768 -1.8855 -1.9730
  127ACOH    O2 9910   8.922   3.229   1.300  0.1282 -0.2103  0.1526
  127ACOH    C2 9911   8.844   3.127   1.338 -0.6283  0.0758  0.6961
  127ACOH    O1 9912   8.819   3.031   1.267 -0.1925 -0.7035  0.0851
  127ACOH    C1 9913   8.762   3.164   1.460  0.1096 -0.7598  0.0363
  127ACOH    H1 9914   8.815   3.143   1.554 -1.0255 -0.1350  0.8224
  127ACOH    H2 9915   8.674   3.100   1.459  0.9962 -2.0230 -2.3744
  127ACOH    H3 9916   8.738   3.270   1.453  0.7349 -0.4651  1.9949
  132ACOH    H4 9917   6.703   4.373   2.018 -0.3323  2.5499 -0.3723
  132ACOH    O2 9918   6.620   4.391   2.064 -0.6009 -0.7603  0.6009
  132ACOH    C2 9919   6.537   4.429   1.965 -0.3602 -0.6099 -0.8330
  132ACOH    O1 9920   6.564   4.459   1.852  0.3090 -0.0500  0.1441
  132ACOH    C1 9921   6.405   4.453   2.030 -0.4861  0.4392 -0.1390
  132ACOH    H1 9922   6.397   4.403   2.126  1.4437  0.5559  0.1170
  132ACOH    H2 9923   6.321   4.417   1.972 -0.7276  1.4368 -0.4207
  132ACOH    H3 9924   6.388   4.558   2.054  0.7047  0.4158  0.9147
  133ACOH    H4 9925   9.312   4.867   1.723 -2.4445 -0.0285  0.0270
  133ACOH    O2 9926   9.289   4.938   1.661 -0.5143  0.4587 -0.1501
  133ACOH    C2 9927   9.161   4.957   1.643  0.1778  0.5980  0.0716
  133ACOH    O1 9928   9.070   4.910   1.711 -0.4917  0.3521 -0.5662
  133ACOH    C1 9929   9.134   5.050   1.534  0.2462 -0.2041 -0.3452
  133ACOH    H1 9930   9.032   5.087   1.532  1.0249  1.9809 -3.1484
  133ACOH    H2 9931   9.149   5.002   1.437  2.6935  1.2445 -0.7334
  133ACOH    H3 9932   9.194   5.139   1.551 -1.3852  1.0645 -1.1458
  134ACOH    H4 9933   7.827   8.947   5.882 -1.9745 -2.2554  1.6885
  134ACOH    O2 9934   7.895   8.928   5.950 -0.1029 -0.1011  0.5105
  134ACOH    C2 9935   7.830   8.952   6.059  0.2581  1.0069 -0.1903
  134ACOH    O1 9936   7.732   9.018   6.078 -0.4512 -0.2101 -0.6777
  134ACOH    C1 9937   7.904   8.889   6.168 -0.3472  0.0647  0.3893
  134ACOH    H1 9938   7.853   8.911   6.262 -0.4678 -0.9753  0.5783
  134ACOH    H2 9939   8.004   8.930   6.164 -0.4350  0.1103 -1.9384
  134ACOH    H3 9940   7.907   8.781   6.148 -0.0361  0.3060 -0.8822
  135ACOH    H4 9941   1.628   2.582   2.477  1.5553  1.2503 -1.1700
  135ACOH    O2 9942   1.584   2.553   2.395 -0.3302  0.9642 -0.0859
  135ACOH    C2 9943   1.510   2.442   2.422  0.4712 -0.0023 -0.2659
  135ACOH    O1 9944   1.476   2.407   2.532  0.3832  0.1170  0.3333
  135ACOH    C1 9945   1.453   2.372   2.307  0.2475 -0.5796  0.9408
  135ACOH    H1 9946   1.345   2.382   2.316  0.2379  0.3211 -0.1666
  135ACOH    H2 9947   1.475   2.265   2.304  0.0397 -0.5742 -1.1991
  135ACOH    H3 9948   1.497   2.415   2.218 -1.9255 -0.0515  0.0859
  136ACOH    H4 9949   5.061   1.748   6.813 -0.2042  0.1719  1.0900
  136ACOH    O2 9950   5.139   1.695   6.837 -0.3595 -0.4106  0.3316
  136ACOH    C2 9951   5.146   1.596   6.743  0.1485 -0.5062 -0.0597
  136ACOH    O1 9952   5.076   1.585   6.644 -0.6163 -0.2085 -0.2770
  136ACOH    C1 9953   5.265   1.502   6.762 -1.4103  0.2226  0.1253
  136ACOH    H1 9954   5.359   1.556   6.751 -1.4604  0.1994 -0.4197
  136ACOH    H2 9955   5.249   1.422   6.691  0.6399 -2.3932  2.5058
  136ACOH    H3 9956   5.267   1.458   6.862 -1.5296 -1.1207 -0.4590
  137ACOH    H4 9957   6.912   9.705   1.286  2.0696 -1.7829  0.6849
  137ACOH    O2 9958   6.968   9.741   1.216  0.3618  0.2833  0.3230
  137ACOH    C2 9959   6.892   9.791   1.118 -0.1244  0.4368 -0.5455
  137ACOH    O1 9960   6.770   9.799   1.132  0.5127 -0.1688  0.1392
  137ACOH    C1 9961   6.977   9.828   1.006 -0.8449  0.3518  0.6481
  137ACOH    H1 9962   7.018   9.737   0.962  3.3506  2.0649  0.7325
  137ACOH    H2 9963   7.060   9.879   1.054  1.3758 -1.5633 -1.0357
  137ACOH    H3 9964   6.936   9.898   0.934  2.7551  0.8466 -1.0363
  138ACOH    H4 9965   3.793   6.954   5.364 -0.5491  1.7511 -1.0458
  138ACOH    O2 9966   3.785   6.869   5.318  0.1688  0.8951  0.3546
  138ACOH    C2 9967   3.908   6.824   5.311  0.6727 -0.4251 -0.5363
  138ACOH    O1 9968   3.992   6.893   5.249  0.0383 -0.5628  0.1832
  138ACOH    C1 9969   3.908   6.674   5.293  0.3964 -0.4393 -0.9136
  138ACOH    H1 9970   3.865   6.622   5.379 -0.7104  4.4327  1.6334
  138ACOH    H2 9971   4.011   6.643   5.280 -0.2375 -2.9183 -0.2518
  138ACOH    H3 9972   3.848   6.646   5.206  3.4463 -0.3720 -3.1227
  139ACOH    H4 9973   3.840   5.920   0.473 -0.1914  0.4508  0.1446
  139ACOH    O2 9974   3.835   6.017   0.469  0.0937  0.4594 -0.0125
  139ACOH    C2 9975   3.921   6.080   0.554  0.2113 -0.4519  0.0281
  139ACOH    O1 9976   3.974   6.036   0.653  0.2881 -0.3556  0.5478
  139ACOH    C1 9977   3.903   6.223   0.525  0.5833  0.2868 -0.1793
  139ACOH    H1 9978   3.796   6.241   0.511 -0.1436 -2.3963  1.5387
  139ACOH    H2 9979   3.961   6.240   0.434  0.6512  1.0122 -0.0084
  139ACOH    H3 9980   3.935   6.284   0.610  1.9152  1.6199 -1.6014
  141ACOH    H4 9981   7.571   3.268   5.210 -4.0415  0.1306  0.5040
  141ACOH    O2 9982   7.583   3.173   5.228 -0.5817  0.4967  0.3240
  141ACOH    C2 9983   7.597   3.109   5.109 -0.8271 -0.3749  0.2347
  141ACOH    O1 9984   7.582   3.158   4.997 -0.0683 -0.5544  0.0404
  141ACOH    C1 9985   7.643   2.969   5.124 -0.3517  0.1345  0.2602
  141ACOH    H1 9986   7.602   2.919   5.212 -0.3198 -1.4090 -0.5940
  141ACOH    H2 9987   7.751   2.955   5.129 -0.5856 -1.1772  2.5247
  141ACOH    H3 9988   7.593   2.908   5.050 -2.0026 -0.1780  1.6087
  142ACOH    H4 9989   7.230   6.351   4.081  0.4267 -1.6066  1.5587
  142ACOH    O2 9990   7.201   6.271   4.035 -0.2851 -0.4748 -0.0043
  142ACOH    C2 9991   7.291   6.243   3.943  0.2178 -0.2980  0.1477
  142ACOH    O1 9992   7.402   6.292   3.928 -0.1213 -0.5862  0.0432
  142ACOH    C1 9993   7.248   6.124   3.872  0.0462 -0.2121 -0.2401
  142ACOH    H1 9994   7.334   6.057   3.868  0.0263 -0.2687  0.3185
  142ACOH    H2 9995   7.225   6.138   3.766  1.2202  0.9442 -0.3436
  142ACOH    H3 9996   7.163   6.073   3.918 -1.5886  1.9947 -0.7360
  143ACOH    H4 9997   7.107   5.912   5.245 -1.3213  0.9439 -1.2109
  143ACOH    O2 9998   7.127   5.873   5.158  0.8949  0.2840 -0.4358
  143ACOH    C2 9999   7.258   5.859   5.154 -0.4327  0.2566  0.1677
  143ACOH    O110000   7.339   5.893   5.234 -0.2261  0.0800  0.1750
  143ACOH    C110001   7.312   5.814   5.019 -0.5786 -0.5962 -0.2462
  143ACOH    H110002   7.270   5.716   4.999 -2.3936 -0.2126  1.5120
  143ACOH    H210003   7.421   5.824   5.020 -0.6488  0.1590 -0.4735
  143ACOH    H310004   7.276   5.886   4.946  1.9978  1.7366  0.6982
  144ACOH    H410005   3.075   8.233   2.426  1.5552 -0.1048 -0.2910
  144ACOH    O210006   3.066   8.313   2.481 -0.2981 -0.0086 -0.7150
  144ACOH    C210007   3.182   8.337   2.542 -0.1525 -1.2279  0.0289
  144ACOH    O110008   3.290   8.282   2.525 -0.0142 -0.2008  0.3326
  144ACOH    C110009   3.167   8.463   2.612 -0.7361  0.0457 -0.4683
  144ACOH    H110010   3.099   8.463   2.697 -2.4671 -1.4745 -1.8351
  144ACOH    H210011   3.138   8.543   2.543 -1.4991  0.5047  0.3762
  144ACOH    H310012   3.268   8.489   2.644 -1.0213  0.6614 -0.0493
  145ACOH    H410013   6.851   2.920   4.749  0.5218 -1.7354 -1.3186
  145ACOH    O210014   6.798   2.870   4.814 -0.2165 -0.2036 -0.7113
  145ACOH    C210015   6.676   2.855   4.757 -0.3935  0.1387  0.3845
  145ACOH    O110016   6.654   2.846   4.640  0.1721 -0.1272 -0.3755
  145ACOH    C110017   6.582   2.793   4.848  0.0489 -0.1480 -0.1666
  145ACOH    H110018   6.628   2.772   4.945  0.2210 -2.8750 -0.7882
  145ACOH    H210019   6.558   2.694   4.809  1.0403  0.0380 -1.3052
  145ACOH    H310020   6.488   2.847   4.852 -0.7533 -1.4929 -0.6943
  146ACOH    H410021   9.812  -0.023   2.586 -0.8398  0.7849 -0.0580
  146ACOH    O210022   9.883   0.024   2.539 -0.0480 -0.1632  0.1588
  146ACOH    C210023   9.814   0.120   2.467  0.2189  0.2778  0.5117
  146ACOH    O110024   9.694   0.124   2.457 -0.7837 -0.7447 -0.7307
  146ACOH    C110025   9.905   0.203   2.396  0.3687  0.1976  0.5344
  146ACOH    H110026   9.845   0.282   2.350  1.5298 -0.0718 -1.4853
  146ACOH    H210027   9.952   0.144   2.318  2.5240  1.6690  0.6826
  146ACOH    H310028   9.980   0.251   2.460  3.1286 -0.2890 -2.1975
  149ACOH    H410029   5.542   7.755   2.522 -0.1198 -0.3265 -1.1485
  149ACOH    O210030   5.636   7.780   2.522 -0.2711  0.2540  0.2326
  149ACOH    C210031   5.703   7.693   2.603  0.4733  0.0766 -0.2224
  149ACOH    O110032   5.660   7.652   2.708 -0.8515 -0.1128  0.0323
  149ACOH    C110033   5.852   7.709   2.579  0.5919 -0.1240  0.0970
  149ACOH    H110034   5.878   7.805   2.624 -0.3582  0.1314  0.1135
  149ACOH    H210035   5.892   7.700   2.478  1.5895  0.4548  0.4293
  149ACOH    H310036   5.905   7.634   2.637  1.8276  0.9326  0.3603
  150ACOH    H410037   0.599   9.613   5.949  0.3550  0.1390  0.2434
  150ACOH    O210038   0.524   9.581   5.896  0.3504 -0.2777  0.5020
  150ACOH    C210039   0.524   9.453   5.874  0.4815 -0.3923  0.3258
  150ACOH    O110040   0.606   9.364   5.894  0.4763 -0.0761 -0.1247
  150ACOH    C110041   0.380   9.416   5.840 -0.1121 -0.6083  0.3769
  150ACOH    H110042   0.309   9.477   5.896  0.6298 -0.6724  1.4010
  150ACOH    H210043   0.366   9.310   5.863  0.0973 -1.1614 -1.8918
  150ACOH    H310044   0.359   9.429   5.734  1.7806 -1.5354 -0.1241
  152ACOH    H410045   6.118   4.604   1.630  2.3810 -1.3946 -1.0583
  152ACOH    O210046   6.179   4.657   1.684 -0.2023  0.5947  0.0106
  152ACOH    C210047   6.103   4.741   1.747  0.9910  0.3491  0.3388
  152ACOH    O110048   5.983   4.722   1.774 -0.5363 -0.0623  0.5172
  152ACOH    C110049   6.182   4.860   1.788  0.3289 -0.7307 -0.1455
  152ACOH    H110050   6.123   4.941   1.830  1.9976  0.4274 -0.0202
  152ACOH    H210051   6.235   4.892   1.698  1.9488 -1.4703  0.5260
  152ACOH    H310052   6.254   4.838   1.866 -1.1680 -0.6079  1.2907
  154ACOH    H410053   4.176   7.180   0.926 -1.0509 -0.7472 -0.1776
  154ACOH    O210054   4.113   7.253   0.934 -0.3577 -0.1188 -0.3560
  154ACOH    C210055   4.030   7.265   0.828  0.0121 -0.4482  0.0116
  154ACOH    O110056   4.036   7.212   0.720  0.2400 -0.2906  0.3086
  154ACOH    C110057   3.923   7.360   0.866 -0.1746  0.7485  0.4907
  154ACOH    H110058   3.927   7.446   0.800  0.8187 -0.0303 -0.4907
  154ACOH    H210059   3.939   7.390   0.970  3.3839 -1.1767  0.5793
  154ACOH    H310060   3.824   7.314   0.859 -0.6742  1.9038 -0.1446
  155ACOH    H410061  -0.145   9.487   4.890  0.6827  0.7500  0.6284
  155ACOH    O210062  -0.051   9.486   4.866  0.5381  0.5889  0.0615
  155ACOH    C210063   0.012   9.412   4.959 -0.0096 -0.2205  0.3657
  155ACOH    O110064  -0.025   9.383   5.070 -0.4968 -0.0488 -0.2251
  155ACOH    C110065   0.158   9.410   4.942  0.3332  0.8178  0.0584
  155ACOH    H110066   0.189   9.306   4.952  0.2201  0.8151  0.3802
  155ACOH    H210067   0.211   9.462   5.022 -1.1002  1.0653  0.8728
  155ACOH    H310068   0.200   9.448   4.848  2.4994 -1.1102  0.2077
  156ACOH    H410069   5.614   5.803   2.230  1.1168  0.7968 -1.9668
  156ACOH    O210070   5.674   5.864   2.276 -0.0387  0.1478  0.5069
  156ACOH    C210071   5.665   5.983   2.217  1.0915 -0.0799 -0.3551
  156ACOH    O110072   5.580   6.013   2.136 -0.4825  0.5332 -0.2890
  156ACOH    C110073   5.748   6.096   2.277 -0.1482  0.2336 -0.6381
  156ACOH    H110074   5.854   6.073   2.267 -0.6583 -1.2117 -3.2511
  156ACOH    H210075   5.727   6.102   2.384  2.2399  0.3622 -0.1387
  156ACOH    H310076   5.727   6.191   2.228 -0.7623  0.9003  0.8941
  157ACOH    H410077   6.394   3.697   1.770 -1.2333 -0.5135  0.6904
  157ACOH    O210078   6.368   3.662   1.683  0.1470  0.1549 -0.0097
  157ACOH    C210079   6.347   3.770   1.604 -0.3221  0.1035  0.7613
  157ACOH    O110080   6.385   3.879   1.637  0.1239  0.0652 -0.2732
  157ACOH    C110081   6.316   3.715   1.467  0.3840  0.7601 -0.1527
  157ACOH    H110082   6.343   3.610   1.462 -0.4052  0.6324 -1.8520
  157ACOH    H210083   6.369   3.774   1.393 -0.2980  0.9728 -0.4797
  157ACOH    H310084   6.208   3.730   1.460  0.1385  0.0821  1.7632
  160ACOH    H410085   6.675   6.655   6.623  0.4477 -1.8899  1.5270
  160ACOH    O210086   6.581   6.636   6.606  0.4182 -0.5324  0.0062
  160ACOH    C210087   6.537   6.529   6.670 -0.4517  0.5031 -0.6508
  160ACOH    O110088   6.586   6.472   6.769  0.1060  1.0096  0.5913
  160ACOH    C110089   6.394   6.520   6.631 -0.0722 -0.5961  0.4422
  160ACOH    H110090   6.382   6.494   6.525 -1.1489 -1.1213  0.6816
  160ACOH    H210091   6.333   6.605   6.659 -1.9627 -2.0124  0.7618
  160ACOH    H310092   6.350   6.436   6.686  0.4000 -0.6219  0.7825
  161ACOH    H410093   5.013   3.692   4.996 -1.7367 -1.0334  0.8392
  161ACOH    O210094   5.055   3.605   5.000  0.8536  0.0740 -0.8377
  161ACOH    C210095   4.976   3.527   5.078  0.7575  0.4494 -0.5578
  161ACOH    O110096   4.886   3.569   5.146 -0.1535  0.1850 -0.8013
  161ACOH    C110097   5.042   3.400   5.097  0.1812 -0.2133  0.5352
  161ACOH    H110098   5.111   3.379   5.015 -0.5456 -0.5592  0.0066
  161ACOH    H210099   4.969   3.318   5.092  1.1594 -1.1316  1.0720
  161ACOH    H310100   5.095   3.395   5.192  2.9248  1.9326 -0.8354
  162ACOH    H410101   5.002   2.641   5.818 -1.5031 -0.3351  3.1144
  162ACOH    O210102   5.065   2.708   5.850  0.2875 -0.3956 -0.1318
  162ACOH    C210103   5.134   2.652   5.952  0.3746 -0.2894 -0.5730
  162ACOH    O110104   5.138   2.535   5.982 -0.2516 -0.4798  0.0709
  162ACOH    C110105   5.182   2.766   6.042  0.0169 -0.1475 -0.2965
  162ACOH    H110106   5.263   2.744   6.112 -2.1342  1.7239  2.9282
  162ACOH    H210107   5.095   2.792   6.102 -0.2278 -2.3138  0.3154
  162ACOH    H310108   5.219   2.853   5.988  1.2115 -1.9313 -2.4367
  163ACOH    H410109   1.409   7.379   3.108  0.1044  2.8303 -1.1899
  163ACOH    O210110   1.337   7.409   3.166 -0.4371  0.3588 -0.5467
  163ACOH    C210111   1.235   7.435   3.090  0.3985 -0.4865 -0.0467
  163ACOH    O110112   1.230   7.434   2.969 -0.0521 -0.1979 -0.6614
  163ACOH    C110113   1.110   7.439   3.169 -0.3720  0.0233  0.2235
  163ACOH    H110114   1.110   7.379   3.260 -0.1298 -0.8985 -0.3833
  163ACOH    H210115   1.030   7.408   3.102  1.9730 -1.0380 -2.1746
  163ACOH    H310116   1.100   7.542   3.203 -0.7261 -0.2524  0.9648
  164ACOH    H410117   0.636   5.333   2.084  1.3549  0.9885 -1.0933
  164ACOH    O210118   0.608   5.271   2.014 -0.0104  0.1191  0.1816
  164ACOH    C210119   0.502   5.200   2.067 -0.1297  0.2738 -0.6647
  164ACOH    O110120   0.448   5.209   2.177 -0.7733 -0.0536  0.0671
  164ACOH    C110121   0.471   5.093   1.975  0.1332  0.0737 -0.2285
  164ACOH    H110122   0.397   5.025   2.015 -0.0313  0.1627 -0.3793
  164ACOH    H210123   0.566   5.043   1.956  0.5097  0.1895  1.3173
  164ACOH    H310124   0.438   5.138   1.881 -1.5564  1.3337  0.9311
  166ACOH    H410125   2.287   2.601   3.365 -0.2934  0.4519  0.4340
  166ACOH    O210126   2.378   2.586   3.396 -0.2937 -0.6420 -0.0427
  166ACOH    C210127   2.392   2.468   3.453 -0.3271  0.0537  0.1003
  166ACOH    O110128   2.296   2.404   3.497 -0.1373 -0.2705  0.1566
  166ACOH    C110129   2.530   2.432   3.485 -0.5653 -0.1745 -0.6788
  166ACOH    H110130   2.516   2.354   3.560 -1.3273  0.1330 -0.4904
  166ACOH    H210131   2.580   2.518   3.529  0.0616 -0.5400 -0.6749
  166ACOH    H310132   2.591   2.394   3.403 -0.0446 -0.3947 -0.1904
  167ACOH    H410133   5.205   2.217   1.141 -1.4729  2.1047  0.1842
  167ACOH    O210134   5.139   2.153   1.174 -0.0998  0.7814  0.4330
  167ACOH    C210135   5.197   2.060   1.251 -0.6794  0.1860 -0.0818
  167ACOH    O110136   5.310   2.061   1.294 -0.1175  0.1173 -0.2189
  167ACOH    C110137   5.111   1.950   1.286 -0.4020 -0.1946 -1.0210
  167ACOH    H110138   5.167   1.857   1.279 -0.2989 -0.2004 -0.2195
  167ACOH    H210139   5.029   1.946   1.214 -1.3018 -1.5215  0.0319
  167ACOH    H310140   5.074   1.952   1.389 -0.5207 -0.0931 -1.0662
  168ACOH    H410141   4.102   7.233   4.792 -1.3693 -0.6643 -0.6167
  168ACOH    O210142   4.159   7.204   4.719  0.4759  0.6191  0.2589
  168ACOH    C210143   4.147   7.070   4.713 -0.3643 -0.2772 -0.0922
  168ACOH    O110144   4.061   7.013   4.772 -0.6920  0.0256 -0.0389
  168ACOH    C110145   4.238   7.009   4.613 -0.1895 -0.4109 -0.3704
  168ACOH    H110146   4.322   7.073   4.588 -1.1526  1.6510  1.4902
  168ACOH    H210147   4.185   6.975   4.523  0.8686 -0.2810 -1.0465
  168ACOH    H310148   4.278   6.917   4.655 -2.2539 -0.6609  1.1512
  170ACOH    H410149   7.652   2.180   1.994  2.1941  2.8488  2.0481
  170ACOH    O210150   7.642   2.233   1.913  0.6855  0.2145  0.4225
  170ACOH    C210151   7.556   2.168   1.831  0.1554 -0.1612 -0.2584
  170ACOH    O110152   7.481   2.073   1.852  0.1622  0.2027 -0.4649
  170ACOH    C110153   7.525   2.260   1.715 -0.3681 -0.2184 -0.1601
  170ACOH    H110154   7.436   2.318   1.738  0.7967  1.6330 -0.2798
  170ACOH    H210155   7.519   2.204   1.622 -0.4369 -0.0266 -0.2697
  170ACOH    H310156   7.602   2.335   1.698 -1.8295  1.2943 -0.1783
  171ACOH    H410157   8.100   8.131   1.361  0.4546  0.6208  2.8942
  171ACOH    O210158   8.104   8.038   1.387 -0.0025 -0.3562 -0.2972
  171ACOH    C210159   8.064   7.966   1.280  1.1680 -0.2931  0.1801
  171ACOH    O110160   8.056   7.993   1.160  0.5102 -0.3112 -0.0979
  171ACOH    C110161   8.075   7.825   1.330 -0.1289  0.1197 -0.3626
  171ACOH    H110162   7.980   7.805   1.378  0.4422 -0.9950  0.3177
  171ACOH    H210163   8.144   7.801   1.411  0.6945  1.3861 -0.6727
  171ACOH    H310164   8.087   7.756   1.247  3.4407 -1.1546  1.1079
  172ACOH    H410165   4.184   7.261   5.476  0.9060  1.5716  0.2522
  172ACOH    O210166   4.179   7.247   5.572 -0.2512 -0.1607 -0.0398
  172ACOH    C210167   4.116   7.133   5.594 -0.0326 -0.7667 -0.4176
  172ACOH    O110168   4.142   7.034   5.526 -0.7207 -0.6271 -0.5635
  172ACOH    C110169   4.046   7.129   5.724  0.1965 -0.5915 -0.6129
  172ACOH    H110170   4.020   7.229   5.758 -0.4198  0.7766 -4.8140
  172ACOH    H210171   4.113   7.077   5.792  1.7748  1.0767 -0.8785
  172ACOH    H310172   3.952   7.076   5.709  0.5013 -0.8105 -1.8026
  173ACOH    H410173   2.235   2.008   4.007  0.1416 -0.0636 -0.3130
  173ACOH    O210174   2.275   1.921   4.024  0.3298  0.0240 -0.3036
  173ACOH    C210175   2.401   1.922   3.973  0.4718 -0.5133  0.4765
  173ACOH    O110176   2.453   2.006   3.900  0.3094  0.2276 -0.1643
  173ACOH    C110177   2.487   1.804   4.009  0.3918 -0.5684  0.0018
  173ACOH    H110178   2.572   1.792   3.941  0.5136 -1.1766  0.2579
  173ACOH    H210179   2.429   1.713   3.991  1.3118 -1.5275  1.8065
  173ACOH    H310180   2.519   1.807   4.113 -3.0444  0.2284  1.0933
  174ACOH    H410181   4.114   7.700   1.139 -0.8819  1.3951 -0.1854
  174ACOH    O210182   4.168   7.736   1.066  0.4678 -0.8615 -0.3253
  174ACOH    C210183   4.278   7.657   1.064  0.3036  0.0334 -0.6123
  174ACOH    O110184   4.317   7.583   1.153  0.2433 -0.4275  0.0828
  174ACOH    C110185   4.352   7.695   0.941  0.6561  0.0062 -0.5701
  174ACOH    H110186   4.395   7.606   0.896 -0.8591 -1.2390  0.3739
  174ACOH    H210187   4.432   7.765   0.965  0.4902  0.0133 -0.0267
  174ACOH    H310188   4.292   7.739   0.862 -0.6089 -2.3412 -0.9808
  175ACOH    H410189   4.873   7.491   1.465  1.1460  2.1786 -0.6827
  175ACOH    O210190   4.825   7.465   1.385  0.5706  0.1848  0.2467
  175ACOH    C210191   4.756   7.572   1.342  0.4188 -0.2197 -0.9877
  175ACOH    O110192   4.752   7.682   1.394  0.3089  0.3379  0.4639
  175ACOH    C110193   4.679   7.551   1.221  0.7889  0.1420 -0.0009
  175ACOH    H110194   4.688   7.446   1.192  2.2044  0.7799 -1.9572
  175ACOH    H210195   4.720   7.614   1.142  2.5224  1.2101  1.7148
  175ACOH    H310196   4.576   7.573   1.250  0.4648 -2.7074  1.1471
  176ACOH    H410197   6.886   5.242   6.566  1.1570 -1.6068  0.4212
  176ACOH    O210198   6.821   5.206   6.503  0.4702  0.1103  0.1315
  176ACOH    C210199   6.840   5.070   6.493  0.0438 -0.4098  0.7249
  176ACOH    O110200   6.886   4.992   6.572  0.1903  0.2248  0.2934
  176ACOH    C110201   6.777   5.032   6.369  0.2397 -0.0965 -0.6727
  176ACOH    H110202   6.673   5.009   6.393  0.2882  1.8961  1.5923
  176ACOH    H210203   6.815   4.934   6.338 -0.2067 -0.6175  0.4021
  176ACOH    H310204   6.781   5.105   6.288 -2.6705  1.6791  0.7317
  177ACOH    H410205   4.209   1.306   6.869 -1.0286 -0.4888 -0.0750
  177ACOH    O210206   4.147   1.354   6.812 -0.3400  0.2589 -0.2030
  177ACOH    C210207   4.212   1.460   6.760 -0.4602 -0.1208  0.2757
  177ACOH    O110208   4.326   1.491   6.791 -0.0802 -0.3294 -0.6667
  177ACOH    C110209   4.105   1.546   6.703  0.1396  0.2919  0.1040
  177ACOH    H110210   4.096   1.533   6.595 -1.8086  0.0560  0.2811
  177ACOH    H210211   4.146   1.645   6.726  1.9942 -0.1905 -0.9841
  177ACOH    H310212   4.017   1.523   6.762 -0.3485  0.2091 -0.6505
  179ACOH    H410213   9.465   9.934   2.517  0.1902 -0.0114 -0.5632
  179ACOH    O210214   9.469   9.861   2.453  0.0334 -0.1605 -0.4055
  179ACOH    C210215   9.339   9.835   2.419 -0.2345 -0.2054  0.0260
  179ACOH    O110216   9.240   9.869   2.477 -0.2935  0.5315 -0.1817
  179ACOH    C110217   9.342   9.722   2.326 -0.2416 -0.2288  0.1282
  179ACOH    H110218   9.281   9.743   2.238  1.7875 -1.4665 -1.6475
  179ACOH    H210219   9.324   9.625   2.372  0.9575 -2.3654 -3.6472
  179ACOH    H310220   9.439   9.707   2.277  0.0621 -0.4906  0.8082
  180ACOH    H410221   4.884   3.764   3.730  0.4621  3.0991  0.1259
  180ACOH    O210222   4.978   3.744   3.713 -0.0877  0.0122  0.4636
  180ACOH    C210223   4.980   3.619   3.662  0.7589  0.8078 -0.7742
  180ACOH    O110224   4.890   3.540   3.645 -0.5358  0.2824 -0.4022
  180ACOH    C110225   5.113   3.579   3.638  0.4944  0.2649 -0.2726
  180ACOH    H110226   5.136   3.569   3.532  2.4289 -1.2902  0.2655
  180ACOH    H210227   5.126   3.485   3.692 -0.7747 -0.2240 -0.7965
  180ACOH    H310228   5.186   3.643   3.688  0.9493  0.5488 -1.2811
  181ACOH    H410229   6.835   2.909   5.987 -2.1431 -0.5285 -0.9445
  181ACOH    O210230   6.796   2.853   6.057  0.1124 -0.2852  0.5617
  181ACOH    C210231   6.890   2.807   6.138 -0.0287  0.0073  0.0241
  181ACOH    O110232   7.005   2.838   6.150  0.2018 -0.7505  0.3479
  181ACOH    C110233   6.823   2.724   6.240 -0.5021 -0.0537 -0.0699
  181ACOH    H110234   6.714   2.722   6.243 -0.5332  2.0520  3.4154
  181ACOH    H210235   6.854   2.760   6.338  0.5509 -1.8883  0.2850
  181ACOH    H310236   6.870   2.626   6.239 -0.0763  0.1571 -1.1185
  182ACOH    H410237   3.706   6.838   5.614 -0.5376 -0.6091 -0.8786
  182ACOH    O210238   3.767   6.764   5.599  0.2676 -0.0850 -0.2185
  182ACOH    C210239   3.786   6.714   5.726 -0.0991 -1.0719 -0.0350
  182ACOH    O110240   3.729   6.752   5.830 -0.0242  0.2466  0.1610
  182ACOH    C110241   3.878   6.595   5.723 -0.0721  0.3041 -0.2535
  182ACOH    H110242   3.896   6.560   5.824 -1.5620  1.4800  0.4348
  182ACOH    H210243   3.970   6.616   5.669 -0.0916 -1.9130 -1.1901
  182ACOH    H310244   3.833   6.518   5.660 -0.7873  0.4699  0.0499
  183ACOH    H410245   5.012   4.326   5.826  1.3230 -0.1796  0.2523
  183ACOH    O210246   5.082   4.307   5.761  0.8309  0.2271 -0.3970
  183ACOH    C210247   5.039   4.195   5.701  0.0363  0.1205  0.0862
  183ACOH    O110248   4.935   4.140   5.720  0.6178 -0.4505  0.0981
  183ACOH    C110249   5.130   4.152   5.592 -0.1930  0.2337 -0.3294
  183ACOH    H110250   5.181   4.237   5.546  1.8796 -1.6504 -1.6324
  183ACOH    H210251   5.077   4.097   5.514 -2.0735  0.4531  0.7790
  183ACOH    H310252   5.209   4.097   5.643 -0.6593  2.0472  2.4581
  185ACOH    H410253   2.831   7.413   1.780 -0.8363 -1.3078  0.4426
  185ACOH    O210254   2.915   7.435   1.824 -0.6521 -0.3814 -0.3409
  185ACOH    C210255   2.895   7.531   1.921  0.8874  0.0792  0.1812
  185ACOH    O110256   2.793   7.596   1.945  0.3269 -0.1564  0.0379
  185ACOH    C110257   3.015   7.549   2.006 -0.2991  0.0545  0.7576
  185ACOH    H110258   3.063   7.452   2.000  2.4229  1.4577 -1.0061
  185ACOH    H210259   2.990   7.572   2.110 -0.4315  0.9237  0.5384
  185ACOH    H310260   3.085   7.619   1.960  0.5239 -1.2198  0.0691
  188ACOH    H410261   5.471   2.374   5.264 -1.5987  0.2516  2.5830
  188ACOH    O210262   5.427   2.456   5.238  0.2839  0.4332 -0.2979
  188ACOH    C210263   5.495   2.541   5.159 -0.3861  0.3328 -0.4229
  188ACOH    O110264   5.588   2.515   5.080 -0.2933  0.3125  0.2316
  188ACOH    C110265   5.428   2.677   5.133 -0.3808 -0.4153  0.6105
  188ACOH    H110266   5.358   2.706   5.212 -1.4091 -0.9592 -0.0755
  188ACOH    H210267   5.389   2.675   5.031  2.3379  1.1621 -0.4781
  188ACOH    H310268   5.515   2.741   5.137 -0.1843 -0.7071  1.0096
  189ACOH    H410269   6.729   4.401   2.406 -3.0903  3.7901 -2.6841
  189ACOH    O210270   6.754   4.469   2.470 -0.0522  0.0167  0.4061
  189ACOH    C210271   6.832   4.424   2.567 -0.5331 -0.2870  0.2347
  189ACOH    O110272   6.865   4.309   2.590 -0.2476  0.2462 -0.4526
  189ACOH    C110273   6.875   4.540   2.656  0.5171 -0.3743  0.3249
  189ACOH    H110274   6.983   4.539   2.645  0.5558  1.3193  0.5533
  189ACOH    H210275   6.847   4.524   2.760  0.6228  1.9435  0.7259
  189ACOH    H310276   6.841   4.639   2.626  1.9054 -0.6622 -2.3425
  190ACOH    H410277   7.813   1.927   6.682  0.4051 -0.4663 -0.3569
  190ACOH    O210278   7.732   1.875   6.669 -0.0723  0.0972  0.2657
  190ACOH    C210279   7.731   1.830   6.539 -0.2283  0.2017 -0.5503
  190ACOH    O110280   7.832   1.810   6.475 -0.2944  0.0669 -0.4170
  190ACOH    C110281   7.600   1.806   6.478  0.2570  0.3340  0.4208
  190ACOH    H110282   7.596   1.714   6.419 -3.3045  0.0429  0.9673
  190ACOH    H210283   7.576   1.894   6.417 -4.4965 -0.8599  0.3753
  190ACOH    H310284   7.521   1.797   6.552 -0.7324  0.8382 -0.5441
  191ACOH    H410285   4.622   8.110   1.065 -1.8727  0.9312  0.8114
  191ACOH    O210286   4.621   8.171   0.989 -0.4939 -0.1248 -0.0952
  191ACOH    C210287   4.523   8.136   0.906 -0.6061  0.5766  0.3301
  191ACOH    O110288   4.444   8.050   0.929 -0.1298  0.1312  0.8670
  191ACOH    C110289   4.511   8.231   0.794 -0.1193 -0.6560  0.6131
  191ACOH    H110290   4.510   8.167   0.706  1.1840  0.2337 -0.0653
  191ACOH    H210291   4.597   8.298   0.797 -1.1819  0.8083 -0.6389
  191ACOH    H310292   4.419   8.289   0.803  1.3311  1.5579  1.5462
  192ACOH    H410293   3.993   1.255   0.718 -0.6144  1.2142  0.1691
  192ACOH    O210294   4.040   1.238   0.802  0.0766  0.0558 -0.4481
  192ACOH    C210295   4.176   1.258   0.793  0.2085  0.0671 -0.0485
  192ACOH    O110296   4.235   1.265   0.688  0.3258  0.5368  0.7964
  192ACOH    C110297   4.237   1.265   0.929  0.3178 -0.5183  0.6345
  192ACOH    H110298   4.281   1.166   0.942  0.5358 -0.8637 -2.4381
  192ACOH    H210299   4.163   1.282   1.008 -0.7566 -0.6512 -0.3316
  192ACOH    H310300   4.305   1.350   0.934 -1.0566  0.5923  0.9370
  193ACOH    H410301   9.346   4.444   6.761 -2.1019 -1.1574 -0.1357
  193ACOH    O210302   9.363   4.362   6.712  0.2877 -0.6098 -0.2767
  193ACOH    C210303   9.379   4.386   6.584  0.0219  0.9403  0.2553
  193ACOH    O110304   9.393   4.492   6.524  0.0267  0.1796  0.0607
  193ACOH    C110305   9.388   4.259   6.508 -0.4876  0.0914 -0.1463
  193ACOH    H110306   9.307   4.262   6.435  0.1509 -1.9640 -0.9730
  193ACOH    H210307   9.366   4.178   6.578  2.5309 -0.0742  0.7111
  193ACOH    H310308   9.483   4.257   6.455 -0.0461  1.9473  0.5504
  194ACOH    H410309   7.676   7.495   5.094  1.3994  1.1024 -0.9642
  194ACOH    O210310   7.640   7.580   5.124 -0.1502  0.0456  0.2756
  194ACOH    C210311   7.660   7.593   5.255 -0.3041 -0.4082 -0.0090
  194ACOH    O110312   7.681   7.492   5.319  0.0744  0.3170 -0.2526
  194ACOH    C110313   7.631   7.726   5.306 -0.5485 -0.5817 -0.0639
  194ACOH    H110314   7.546   7.723   5.374 -2.6130  1.0609 -2.4621
  194ACOH    H210315   7.611   7.785   5.217 -0.9649  1.0094  1.0617
  194ACOH    H310316   7.717   7.767   5.360 -1.1167 -0.5081  0.7984
  195ACOH    H410317   7.721   5.942   2.793 -2.9610 -0.2250  2.8202
  195ACOH    O210318   7.661   6.009   2.756 -0.7199  0.1467 -0.2716
  195ACOH    C210319   7.692   6.136   2.782 -0.0310  0.5990  0.0170
  195ACOH    O110320   7.791   6.164   2.846 -0.6680  0.4543 -0.0814
  195ACOH    C110321   7.586   6.234   2.758 -0.4643 -0.4218  0.1053
  195ACOH    H110322   7.534   6.231   2.853  1.7863 -1.0061  1.3632
  195ACOH    H210323   7.525   6.217   2.669  1.4020 -2.2621 -0.8824
  195ACOH    H310324   7.623   6.336   2.746  0.0550 -0.5644  0.4764
  196ACOH    H410325   5.303   5.858   0.340  0.6067 -0.5773 -0.0607
  196ACOH    O210326   5.247   5.862   0.261  0.0745 -0.2900  0.3239
  196ACOH    C210327   5.211   5.987   0.250  0.5998 -0.7319  0.6104
  196ACOH    O110328   5.208   6.070   0.341  0.0800 -0.2212  0.2353
  196ACOH    C110329   5.134   6.016   0.122  0.0079 -0.0654  0.4549
  196ACOH    H110330   5.201   6.014   0.036  1.4550 -0.1245  1.5527
  196ACOH    H210331   5.099   6.119   0.119 -2.3164 -0.8954 -1.5992
  196ACOH    H310332   5.059   5.939   0.106 -1.3062  0.9419  1.6528
  198ACOH    H410333   4.554   8.472   1.415 -0.0910  2.3423  0.1792
  198ACOH    O210334   4.579   8.478   1.322 -0.3338 -0.0776 -0.0591
  198ACOH    C210335   4.709   8.441   1.323  0.0705 -0.1667 -0.2358
  198ACOH    O110336   4.778   8.432   1.421 -0.6440  0.4676  0.6119
  198ACOH    C110337   4.768   8.432   1.183  0.7613  0.3131  0.4332
  198ACOH    H110338   4.875   8.450   1.191  1.1002 -0.4978 -1.8896
  198ACOH    H210339   4.715   8.507   1.125 -1.1206  0.5886  2.4742
  198ACOH    H310340   4.759   8.331   1.144  2.7953 -0.4129  1.7909
  199ACOH    H410341   4.360   3.133   2.694 -3.6426 -1.1618  0.6284
  199ACOH    O210342   4.358   3.046   2.649  0.0456 -1.0570  0.1577
  199ACOH    C210343   4.425   2.969   2.732  0.5521  0.4148  0.0572
  199ACOH    O110344   4.465   2.993   2.846  0.2115  0.0917  0.2054
  199ACOH    C110345   4.446   2.842   2.653 -0.3165 -0.0421 -0.6965
  199ACOH    H110346   4.504   2.774   2.714 -0.4583 -0.8627 -1.4692
  199ACOH    H210347   4.505   2.866   2.565  0.1058  0.0551 -0.3894
  199ACOH    H310348   4.354   2.795   2.620 -1.8220  1.5760  1.0149
  201ACOH    H410349   6.631   3.628   2.319 -0.7900  1.5978 -0.7050
  201ACOH    O210350   6.574   3.675   2.382 -0.5732  0.1228  0.6271
  201ACOH    C210351   6.460   3.722   2.331 -0.3652  0.6665 -0.6831
  201ACOH    O110352   6.436   3.750   2.214 -0.3852 -0.0827 -0.1853
  201ACOH    C110353   6.368   3.761   2.441 -0.4580  0.5947  0.3117
  201ACOH    H110354   6.285   3.693   2.462 -0.6832  0.8549  0.2782
  201ACOH    H210355   6.336   3.861   2.410  2.5527  1.1763 -1.0978
  201ACOH    H310356   6.425   3.783   2.532 -0.6523  0.5540  0.4448
  203ACOH    H410357   8.025   5.515   3.670 -0.1011  0.2283  0.2984
  203ACOH    O210358   7.975   5.445   3.625  0.4869  0.2886 -0.4473
  203ACOH    C210359   7.888   5.503   3.545  0.1711 -0.5529 -0.9490
  203ACOH    O110360   7.860   5.620   3.548  0.3684  0.0312 -0.8909
  203ACOH    C110361   7.831   5.417   3.439 -0.6664 -0.7436  0.5531
  203ACOH    H110362   7.912   5.392   3.371 -0.1792 -0.2804  0.9671
  203ACOH    H210363   7.747   5.468   3.391 -0.9225 -0.5894  1.1549
  203ACOH    H310364   7.809   5.320   3.484 -0.3655 -1.7927 -1.5062
  204ACOH    H410365   5.264   1.484   0.431  0.5537  0.8055  1.4942
  204ACOH    O210366   5.229   1.397   0.456 -0.2328  0.7182  0.1622
  204ACOH    C210367   5.267   1.295   0.374 -0.5524 -0.1886 -0.1736
  204ACOH    O110368   5.337   1.301   0.274  0.7190 -0.7093  0.0304
  204ACOH    C110369   5.212   1.168   0.414  0.2162  0.1871 -0.6911
  204ACOH    H110370   5.283   1.091   0.385 -1.6412 -1.6166 -0.5591
  204ACOH    H210371   5.113   1.153   0.371  0.3054  0.2069 -0.8992
  204ACOH    H310372   5.210   1.167   0.523 -0.8408  0.8319 -0.6857
  206ACOH    H410373   6.247   8.228   2.580 -0.8898 -0.4920 -0.4707
  206ACOH    O210374   6.258   8.224   2.484  0.0583 -0.0244 -0.3838
  206ACOH    C210375   6.222   8.103   2.443  0.8771 -1.0629  0.2852
  206ACOH    O110376   6.200   8.004   2.510 -0.4108 -0.1410 -0.2296
  206ACOH    C110377   6.197   8.093   2.294 -0.3754  0.3417 -0.3863
  206ACOH    H110378   6.093   8.063   2.289 -0.3068 -0.7567  3.3827
  206ACOH    H210379   6.261   8.023   2.241 -2.7497 -1.4085 -1.0234
  206ACOH    H310380   6.220   8.194   2.260 -1.9280  0.5631 -0.8109
  207ACOH    H410381   0.086   3.146   1.677  0.7712  0.8415  1.4344
  207ACOH    O210382   0.054   3.076   1.736 -0.0530 -0.0050 -0.0055
  207ACOH    C210383   0.117   2.955   1.727 -0.3357  0.3041  0.2921
  207ACOH    O110384   0.219   2.937   1.660 -0.1854 -0.0414 -0.4921
  207ACOH    C110385   0.053   2.854   1.816 -0.3198  0.8890 -0.1913
  207ACOH    H110386   0.033   2.910   1.907 -1.0610  1.0932 -0.4830
  207ACOH    H210387   0.131   2.782   1.842 -1.5761 -0.0195  1.0749
  207ACOH    H310388  -0.038   2.804   1.782  2.1360 -2.6071 -1.9217
  208ACOH    H410389   3.728   7.042   0.400 -1.1510  1.0148  0.2022
  208ACOH    O210390   3.694   7.034   0.309 -0.0607 -0.1946 -0.1251
  208ACOH    C210391   3.781   6.950   0.244 -0.0063 -0.6862 -0.2313
  208ACOH    O110392   3.864   6.880   0.295  0.0773 -0.3192 -0.2012
  208ACOH    C110393   3.773   6.957   0.096  0.2262 -0.1999 -0.2410
  208ACOH    H110394   3.856   7.013   0.052  0.5991  0.5796  1.4311
  208ACOH    H210395   3.681   7.006   0.065  0.2068 -0.7899 -1.1443
  208ACOH    H310396   3.781   6.861   0.044 -0.8013 -0.8282  0.7516
  209ACOH    H410397   5.191   2.867   4.149  2.2705  3.2226 -0.9756
  209ACOH    O210398   5.114   2.895   4.096  0.2524 -0.2337 -0.0336
  209ACOH    C210399   5.141   3.026   4.076  0.6327 -0.7682 -0.4889
  209ACOH    O110400   5.240   3.088   4.096  0.2243 -0.4329 -0.0385
  209ACOH    C110401   5.013   3.093   4.027 -0.3131 -0.5951 -0.3572
  209ACOH    H110402   4.997   3.064   3.923  1.0636  0.0963 -0.7806
  209ACOH    H210403   5.002   3.201   4.026  1.2391 -0.4176  0.8449
  209ACOH    H310404   4.927   3.059   4.084 -0.1059  1.0111  0.9428
  210ACOH    H410405   5.453   7.234   3.582 -0.6178 -0.3957 -0.6296
  210ACOH    O210406   5.550   7.223   3.585 -0.5823 -0.0289 -0.3856
  210ACOH    C210407   5.601   7.246   3.705  0.4352 -0.5887  0.3012
  210ACOH    O110408   5.549   7.310   3.795  0.2868  0.2342 -0.7747
  210ACOH    C110409   5.745   7.211   3.713 -0.6927  0.4021 -0.6959
  210ACOH    H110410   5.779   7.206   3.816  1.5185 -2.6078 -1.5061
  210ACOH    H210411   5.810   7.275   3.652 -1.1210  0.2603 -1.3140
  210ACOH    H310412   5.763   7.111   3.673 -0.8519 -0.5834  1.6447
  211ACOH    H410413   7.965   8.000   0.984  0.1495 -0.7024 -0.0178
  211ACOH    O210414   7.894   8.033   0.927  0.2204 -0.2371  0.1554
  211ACOH    C210415   7.943   8.134   0.855  0.1113  0.6021  0.4000
  211ACOH    O110416   8.067   8.157   0.851 -0.0719  0.1657  0.2028
  211ACOH    C110417   7.849   8.177   0.756  0.1408  0.3249  1.0048
  211ACOH    H110418   7.829   8.283   0.769  2.7042  0.8361  1.1387
  211ACOH    H210419   7.753   8.129   0.775  0.1044  0.9262  2.4741
  211ACOH    H310420   7.881   8.152   0.655 -2.7155 -0.8047  0.3282
  213ACOH    H410421   7.387   8.154   4.408 -1.9993 -0.2125  0.2329
  213ACOH    O210422   7.373   8.157   4.504  0.2369 -0.0912  0.5834
  213ACOH    C210423   7.248   8.198   4.533 -0.1443  0.0741  0.2747
  213ACOH    O110424   7.160   8.198   4.443 -0.7936 -0.7605 -0.1205
  213ACOH    C110425   7.206   8.190   4.674  0.5574 -0.5022  0.3551
  213ACOH    H110426   7.127   8.263   4.690  0.1635 -1.0318  0.8070
  213ACOH    H210427   7.291   8.213   4.739  0.8886  3.8417 -1.4203
  213ACOH    H310428   7.172   8.088   4.691  0.1158 -0.2565  0.9501
  214ACOH    H410429   4.108   7.459   6.306 -3.8105 -2.2794 -0.4039
  214ACOH    O210430   4.113   7.430   6.399  0.1254  0.4134  0.3742
  214ACOH    C210431   4.242   7.413   6.428  0.4770 -0.9356  0.1492
  214ACOH    O110432   4.334   7.449   6.361 -0.0976  0.3177  0.3578
  214ACOH    C110433   4.250   7.360   6.569 -0.5473 -0.0199 -0.0749
  214ACOH    H110434   4.337   7.404   6.619  0.3063 -2.6783  0.8326
  214ACOH    H210435   4.269   7.253   6.574 -2.2783 -0.2926  0.7938
  214ACOH    H310436   4.163   7.390   6.627  0.4134 -0.5188  1.6368
  216ACOH    H410437   4.918   2.952   6.222 -2.5981  0.6268  1.1496
  216ACOH    O210438   4.939   2.885   6.289 -0.4847  0.4067  0.3268
  216ACOH    C210439   4.842   2.905   6.382 -0.1036 -0.1406 -0.5938
  216ACOH    O110440   4.760   2.994   6.385  0.0382 -0.6019 -0.0089
  216ACOH    C110441   4.851   2.795   6.485  0.1007  0.0900  0.5818
  216ACOH    H110442   4.781   2.823   6.564 -0.3393 -1.9065  0.9197
  216ACOH    H210443   4.952   2.782   6.522  0.0932 -0.5080  0.3846
  216ACOH    H310444   4.818   2.700   6.442 -1.6065  0.6251  0.6560
  217ACOH    H410445   4.527   7.536   6.098 -1.8899  1.0004  0.5228
  217ACOH    O210446   4.473   7.524   6.018 -0.5555 -0.2731 -0.2223
  217ACOH    C210447   4.440   7.389   6.017 -0.4705 -0.0283  0.2200
  217ACOH    O110448   4.475   7.298   6.088 -0.1793 -0.0287 -0.2066
  217ACOH    C110449   4.327   7.359   5.919  0.2317 -0.1996 -0.5400
  217ACOH    H110450   4.368   7.353   5.819  2.2780  0.1550  0.2581
  217ACOH    H210451   4.262   7.446   5.910  0.8076  0.4832  1.4643
  217ACOH    H310452   4.275   7.265   5.939 -1.7839  0.3118 -3.0952
  219ACOH    H410453   9.709   2.396   6.360  0.4442 -0.1290 -0.4221
  219ACOH    O210454   9.726   2.371   6.268  1.1314 -0.3156 -0.2438
  219ACOH    C210455   9.647   2.439   6.197  0.3095 -0.4141 -0.3627
  219ACOH    O110456   9.546   2.496   6.226  0.2234  0.1651  0.2548
  219ACOH    C110457   9.687   2.442   6.056  0.1066  0.3051  1.0879
  219ACOH    H110458   9.772   2.374   6.049  0.3062  0.4956  1.6726
  219ACOH    H210459   9.711   2.540   6.016  0.3926 -0.6461 -1.1306
  219ACOH    H310460   9.611   2.393   5.995  1.9984 -0.7161 -0.5000
  220ACOH    H410461   6.188   5.928   0.800  0.6322 -1.8134 -0.7393
  220ACOH    O210462   6.232   5.954   0.717  0.0597 -0.0234 -0.5061
  220ACOH    C210463   6.330   6.047   0.738 -0.1893 -0.1880  0.1574
  220ACOH    O110464   6.385   6.069   0.848 -0.3213 -0.4916  0.0990
  220ACOH    C110465   6.394   6.087   0.610  0.0760 -0.1658  0.1331
  220ACOH    H110466   6.358   6.033   0.522  1.8008  3.4139 -2.9318
  220ACOH    H210467   6.500   6.061   0.602  0.0394  0.1382 -1.7223
  220ACOH    H310468   6.386   6.195   0.593 -0.0363 -0.0926  0.6543
  221ACOH    H410469   7.177   4.062   6.308  0.3780 -0.4469  1.0362
  221ACOH    O210470   7.112   4.130   6.330  0.5451 -0.0085  0.2023
  221ACOH    C210471   7.184   4.247   6.329 -0.4458 -0.9364 -0.4258
  221ACOH    O110472   7.306   4.259   6.326  0.2266 -0.6758  0.1980
  221ACOH    C110473   7.102   4.370   6.336 -0.2055 -0.0863 -0.0914
  221ACOH    H110474   7.039   4.376   6.424 -1.5287 -0.8765 -0.9646
  221ACOH    H210475   7.032   4.373   6.252  1.1336  0.3851 -1.2146
  221ACOH    H310476   7.162   4.461   6.326 -0.8784  0.4958  1.0934
  222ACOH    H410477   7.452   5.201   6.135 -0.8745  1.5864 -0.0708
  222ACOH    O210478   7.423   5.169   6.048 -0.0884  0.5374  0.0534
  222ACOH    C210479   7.437   5.273   5.966  0.1698 -0.0471  0.4501
  222ACOH    O110480   7.474   5.383   5.993  0.1125  0.4950 -0.7097
  222ACOH    C110481   7.389   5.242   5.825 -0.3809  0.2778  0.1203
  222ACOH    H110482   7.467   5.256   5.750  0.0759 -1.3635  0.2613
  222ACOH    H210483   7.302   5.304   5.803  0.1124  0.1705 -2.2233
  222ACOH    H310484   7.353   5.139   5.826  0.3409  0.0309  1.7389
  223ACOH    H410485   7.201   7.418   2.097  3.1886 -0.1081  0.0918
  223ACOH    O210486   7.182   7.345   2.036 -0.7057  1.0677 -0.2658
  223ACOH    C210487   7.215   7.393   1.915 -0.0844 -0.3137 -0.2582
  223ACOH    O110488   7.294   7.491   1.903 -0.7188  0.1156 -0.2091
  223ACOH    C110489   7.178   7.304   1.805  0.0062  0.7037  0.1788
  223ACOH    H110490   7.229   7.328   1.712  0.1220  2.1870  0.6151
  223ACOH    H210491   7.070   7.316   1.796 -0.4041 -0.8660  2.5751
  223ACOH    H310492   7.212   7.202   1.823  2.1051  2.1436  5.3578
  225ACOH    H410493   5.990   1.574   6.306 -1.1718  1.1100 -1.0449
  225ACOH    O210494   5.915   1.602   6.362 -0.5384 -0.0303  0.3873
  225ACOH    C210495   5.960   1.699   6.446  0.1519  0.0124  0.2818
  225ACOH    O110496   6.068   1.752   6.442 -1.0166  0.5208 -0.7850
  225ACOH    C110497   5.849   1.725   6.544 -0.2195  1.0426  0.1450
  225ACOH    H110498   5.896   1.708   6.641 -1.3258  0.8972  0.6764
  225ACOH    H210499   5.763   1.657   6.548  0.0439  0.8026  2.8419
  225ACOH    H310500   5.820   1.830   6.555 -0.2816  1.0290  0.1114
  227ACOH    H410501   5.739   7.277   3.020  0.0241 -1.9829 -0.0239
  227ACOH    O210502   5.652   7.274   2.976  0.0987 -0.2613 -0.3120
  227ACOH    C210503   5.675   7.321   2.855  0.6470 -0.3207  0.9454
  227ACOH    O110504   5.775   7.377   2.816  0.3001 -0.1415 -0.4051
  227ACOH    C110505   5.550   7.310   2.778  0.3593  0.1491 -1.0132
  227ACOH    H110506   5.563   7.300   2.671 -1.5997  1.7948 -1.4386
  227ACOH    H210507   5.493   7.401   2.796  0.9959  0.7288 -1.9272
  227ACOH    H310508   5.492   7.221   2.803  1.2076  0.0709  0.7261
  230ACOH    H410509   7.074   7.321   8.104  0.2865 -0.5973 -0.6313
  230ACOH    O210510   7.113   7.275   8.180 -0.3948  0.1179  0.1535
  230ACOH    C210511   7.095   7.152   8.159  0.0296  0.4812 -0.6461
  230ACOH    O110512   7.026   7.099   8.073 -0.7924 -0.4766 -0.3705
  230ACOH    C110513   7.171   7.073   8.251  0.1487  0.3722 -0.6530
  230ACOH    H110514   7.191   6.972   8.216  0.0453 -0.9049  2.7964
  230ACOH    H210515   7.118   7.069   8.346 -3.8708 -1.3373 -2.8168
  230ACOH    H310516   7.264   7.130   8.258  0.1925  0.1982  0.2533
  232ACOH    H410517   5.120   4.762   2.177  1.8133 -0.1034 -0.1651
  232ACOH    O210518   5.106   4.668   2.158  0.0456  0.1161 -0.0827
  232ACOH    C210519   5.190   4.631   2.062  0.5495 -0.1761 -0.1234
  232ACOH    O110520   5.280   4.693   2.008 -0.8514 -0.3355 -0.2949
  232ACOH    C110521   5.142   4.495   2.011 -0.2443  0.3759  0.9668
  232ACOH    H110522   5.214   4.439   1.952 -0.0021 -0.5205  2.0873
  232ACOH    H210523   5.048   4.498   1.955  0.9593 -1.0597 -1.1909
  232ACOH    H310524   5.114   4.430   2.094  0.0510  0.6558  1.2861
  233ACOH    H410525   1.624   4.064   6.650  2.3750  0.7553  0.6127
  233ACOH    O210526   1.579   4.148   6.630  0.5020 -0.4383 -0.3270
  233ACOH    C210527   1.659   4.246   6.666  0.5588  0.2759 -0.5144
  233ACOH    O110528   1.766   4.248   6.727 -0.0605  0.0962  0.4426
  233ACOH    C110529   1.591   4.375   6.621  0.1732  0.1157 -0.5507
  233ACOH    H110530   1.660   4.456   6.597 -0.9985  1.3702  0.2868
  233ACOH    H210531   1.528   4.412   6.701  1.8282  0.7245  0.4739
  233ACOH    H310532   1.526   4.351   6.537  2.5191 -0.2015 -2.3358
  234ACOH    H410533   6.334   7.106   5.667 -0.9248  2.0985  0.9787
  234ACOH    O210534   6.392   7.090   5.743 -0.3261 -0.2489  0.0692
  234ACOH    C210535   6.315   7.064   5.850  0.4534 -0.6000  0.6066
  234ACOH    O110536   6.193   7.060   5.852  0.2988 -0.4988  0.2276
  234ACOH    C110537   6.392   7.023   5.969 -0.1658 -0.3963  0.2175
  234ACOH    H110538   6.472   7.096   5.989 -0.5436  0.8566 -2.6315
  234ACOH    H210539   6.434   6.927   5.939 -0.1873  0.3996 -2.4579
  234ACOH    H310540   6.332   7.021   6.060 -0.3875  0.6208  0.1022
  235ACOH    H410541   5.892   7.472   5.797 -3.3817 -1.7535 -1.3401
  235ACOH    O210542   5.952   7.417   5.743 -0.5042  0.2514 -0.2916
  235ACOH    C210543   5.860   7.345   5.669  0.0632  0.0061 -0.4183
  235ACOH    O110544   5.740   7.364   5.654 -0.2275  0.0906 -0.0297
  235ACOH    C110545   5.931   7.239   5.601  0.3225  0.0190 -0.5770
  235ACOH    H110546   5.995   7.187   5.673 -0.8754  0.0154  0.4993
  235ACOH    H210547   5.988   7.289   5.523  1.7882  0.0983  0.5071
  235ACOH    H310548   5.865   7.166   5.555 -0.9255  0.3887  0.5651
  236ACOH    H410549   5.729  10.078   4.950 -0.4994  0.3909  0.9295
  236ACOH    O210550   5.648  10.047   4.907  0.0422 -0.5838  0.5959
  236ACOH    C210551   5.655   9.908   4.904 -0.2012 -0.0824 -1.3165
  236ACOH    O110552   5.757   9.840   4.919 -0.1610 -0.0580 -0.1818
  236ACOH    C110553   5.529   9.847   4.858 -0.6751  0.9128  0.5333
  236ACOH    H110554   5.542   9.802   4.759  0.9816 -1.6015  1.8315
  236ACOH    H210555   5.450   9.921   4.848 -0.9871  0.8919  2.6192
  236ACOH    H310556   5.496   9.788   4.944 -3.8533  2.2202  0.2887
  237ACOH    H410557   4.999   3.747   2.072  0.8297 -0.1697  3.6110
  237ACOH    O210558   5.084   3.701   2.060  0.5914  0.2168 -0.0813
  237ACOH    C210559   5.187   3.785   2.028  0.3115  0.2074  0.1201
  237ACOH    O110560   5.192   3.905   2.025 -0.4682  0.0901 -0.6996
  237ACOH    C110561   5.319   3.713   2.028 -0.3242  0.0230  0.2386
  237ACOH    H110562   5.328   3.671   1.928 -0.9755 -0.2984  0.3160
  237ACOH    H210563   5.315   3.623   2.088  2.3696 -0.4143 -0.1398
  237ACOH    H310564   5.405   3.780   2.043  0.6454 -1.5157  1.6977
  238ACOH    H410565   9.681   3.104   0.290 -0.0259 -1.0611  2.5805
  238ACOH    O210566   9.775   3.083   0.279 -0.1667 -0.3394 -0.2886
  238ACOH    C210567   9.841   3.072   0.401  0.0123 -0.6234  0.2494
  238ACOH    O110568   9.957   3.031   0.411  0.0306 -0.7257  0.1155
  238ACOH    C110569   9.767   3.121   0.519 -0.1481  0.2740 -0.6661
  238ACOH    H110570   9.660   3.111   0.506 -0.2386 -0.8963  0.8828
  238ACOH    H210571   9.797   3.226   0.522  0.7204  0.1139 -2.5021
  238ACOH    H310572   9.810   3.074   0.607  2.1892  1.3799 -1.1744
  239ACOH    H410573   1.093   7.656   2.864 -0.5897  2.6013  0.3054
  239ACOH    O210574   1.002   7.624   2.868  0.2578  0.0035 -0.1873
  239ACOH    C210575   0.951   7.689   2.978  0.5658  0.1509 -0.0975
  239ACOH    O110576   1.007   7.775   3.046 -0.7718  0.0821  0.3275
  239ACOH    C110577   0.823   7.622   3.017 -0.7819  0.6758  0.2901
  239ACOH    H110578   0.798   7.647   3.120  1.7142 -1.5503  1.4917
  239ACOH    H210579   0.835   7.514   3.009 -0.2565  0.8047 -0.7440
  239ACOH    H310580   0.735   7.642   2.956 -0.4798  0.8061 -0.0996
  240ACOH    H410581   5.378   6.525   2.034  1.6740  0.3712 -1.4025
  240ACOH    O210582   5.425   6.449   2.071  0.4977  0.1582 -0.3111
  240ACOH    C210583   5.341   6.372   2.134 -0.2291  0.5686 -0.0276
  240ACOH    O110584   5.219   6.377   2.122  1.0636 -0.1571 -0.4162
  240ACOH    C110585   5.408   6.275   2.223  0.8740 -0.5186  0.3346
  240ACOH    H110586   5.414   6.179   2.173  0.6213 -0.9447  1.1222
  240ACOH    H210587   5.344   6.271   2.311  0.2223  1.1940 -0.0377
  240ACOH    H310588   5.507   6.313   2.247 -0.4436  1.4989  2.8479
  242ACOH    H410589   7.444   5.874   4.435 -1.0073  1.9418 -0.9993
  242ACOH    O210590   7.460   5.826   4.352 -0.3311 -0.1044  0.2784
  242ACOH    C210591   7.433   5.921   4.262  0.3975  0.1361 -0.5987
  242ACOH    O110592   7.411   6.038   4.286 -0.6103 -0.5080  0.1911
  242ACOH    C110593   7.422   5.873   4.125 -0.6513  0.1665 -0.1991
  242ACOH    H110594   7.494   5.924   4.061 -1.0066 -1.8470 -2.2371
  242ACOH    H210595   7.321   5.893   4.088 -0.3410  1.9280 -0.1694
  242ACOH    H310596   7.439   5.766   4.130 -0.0406  0.2805  0.4155
  243ACOH    H410597   3.990   6.305   4.277  1.8198 -0.3449 -0.0644
  243ACOH    O210598   3.997   6.213   4.246  0.4940 -0.4808  0.0048
  243ACOH    C210599   4.007   6.140   4.358  0.1039 -0.7743  0.8750
  243ACOH    O110600   4.003   6.188   4.470  0.5277  0.1088 -0.5907
  243ACOH    C110601   4.002   5.991   4.334 -1.0369 -0.0401  0.3439
  243ACOH    H110602   4.044   5.932   4.416  0.5219  1.1212  0.4011
  243ACOH    H210603   4.061   5.966   4.245 -3.2562  0.3489 -1.2858
  243ACOH    H310604   3.899   5.968   4.306  0.2223 -3.2100 -1.9572
  244ACOH    H410605   0.023   1.190   5.775  0.2536  3.1296 -4.0964
  244ACOH    O210606   0.092   1.243   5.818 -0.0365  0.0033  0.6202
  244ACOH    C210607   0.128   1.188   5.934  0.4756 -0.0563  0.1790
  244ACOH    O110608   0.157   1.069   5.944 -0.9873 -0.4656 -0.2061
  244ACOH    C110609   0.194   1.285   6.018 -0.1106 -0.1527  0.7022
  244ACOH    H110610   0.156   1.386   6.004  1.4650  0.7969  2.9318
  244ACOH    H210611   0.303   1.292   6.017  0.0152 -1.2811  3.0434
  244ACOH    H310612   0.177   1.267   6.124 -0.1133 -2.4578  0.3310
  245ACOH    H410613   9.569   1.783   1.568  0.2785 -2.9089  0.0497
  245ACOH    O210614   9.613   1.789   1.654 -0.0047  0.2638  0.0236
  245ACOH    C210615   9.543   1.708   1.740 -0.3022  0.0084  0.4557
  245ACOH    O110616   9.439   1.648   1.713  0.0300 -0.3801  0.1020
  245ACOH    C110617   9.614   1.687   1.868  0.4064 -0.1845  0.0868
  245ACOH    H110618   9.564   1.755   1.937  0.2404  1.0540 -1.2342
  245ACOH    H210619   9.715   1.724   1.852  0.8839 -2.6383 -3.0352
  245ACOH    H310620   9.616   1.582   1.897  1.4492 -0.2411 -0.1676
  246ACOH    H410621   6.339   5.186   1.740 -0.0706  0.3277 -0.4885
  246ACOH    O210622   6.253   5.219   1.771 -0.0322 -0.4412  0.4911
  246ACOH    C210623   6.275   5.353   1.775 -0.9441 -0.3237  0.2080
  246ACOH    O110624   6.386   5.406   1.790  0.6751 -0.1198  0.3119
  246ACOH    C110625   6.145   5.428   1.769 -0.0644 -0.2580  0.1224
  246ACOH    H110626   6.121   5.456   1.667  1.8179 -1.2292 -0.6151
  246ACOH    H210627   6.161   5.524   1.817  0.4855 -0.2389 -0.0913
  246ACOH    H310628   6.058   5.380   1.814 -0.0149 -1.2191 -0.7611
  247ACOH    H410629   4.840   3.701   6.485 -0.7063 -0.4277  0.8692
  247ACOH    O210630   4.928   3.666   6.464 -0.5648  0.2512  0.3227
  247ACOH    C210631   4.964   3.581   6.561 -0.2438  0.0022 -0.4189
  247ACOH    O110632   4.903   3.553   6.664  0.1325 -0.4490 -0.7527
  247ACOH    C110633   5.098   3.512   6.535 -0.0767  0.2695  0.1746
  247ACOH    H110634   5.137   3.467   6.626 -0.9390 -1.1606 -0.1403
  247ACOH    H210635   5.164   3.576   6.477 -0.2568 -0.5247 -0.9194
  247ACOH    H310636   5.082   3.420   6.479 -2.0146  0.9579 -0.4432
  248ACOH    H410637   3.358   5.337   3.434 -0.6191 -1.0999  0.2204
  248ACOH    O210638   3.333   5.426   3.463  0.3872 -0.8489  0.3557
  248ACOH    C210639   3.427   5.501   3.413 -0.4909 -0.2370  0.1733
  248ACOH    O110640   3.506   5.470   3.324 -0.3725 -0.2768  0.5547
  248ACOH    C110641   3.424   5.641   3.463 -0.4489  0.1190  0.4158
  248ACOH    H110642   3.375   5.643   3.560  0.7592  1.3074  1.0290
  248ACOH    H210643   3.362   5.701   3.397  0.3356  0.7159  0.2127
  248ACOH    H310644   3.525   5.683   3.460 -0.6849  0.7478  1.1772
  249ACOH    H410645   6.097   7.335   3.379 -0.1284 -1.2840 -0.4906
  249ACOH    O210646   6.125   7.337   3.286 -0.4083  0.2388 -0.5470
  249ACOH    C210647   6.257   7.374   3.280  0.6681  0.6452 -0.1239
  249ACOH    O110648   6.330   7.403   3.376 -0.1796 -0.8748 -0.2348
  249ACOH    C110649   6.315   7.348   3.147 -0.4246  0.6494  0.0862
  249ACOH    H110650   6.244   7.357   3.065  1.1750 -1.0747 -1.5502
  249ACOH    H210651   6.343   7.245   3.129  0.3187  1.1501 -1.7024
  249ACOH    H310652   6.389   7.425   3.127  0.3782  0.3298  1.7129
  250ACOH    H410653   7.422   8.036   2.213 -0.1819 -1.9528  2.3252
  250ACOH    O210654   7.464   7.985   2.143  0.0579  0.0312  0.9796
  250ACOH    C210655   7.413   7.860   2.138 -0.7200 -0.0629  0.8487
  250ACOH    O110656   7.338   7.816   2.220  0.5519 -0.0500 -0.2980
  250ACOH    C110657   7.463   7.785   2.020  1.6117  0.6412 -0.0820
  250ACOH    H110658   7.403   7.695   2.010  1.2996  0.5663  2.3076
  250ACOH    H210659   7.568   7.759   2.040  1.0331 -1.1805  0.7244
  250ACOH    H310660   7.451   7.849   1.932  0.7246  0.2852 -0.2240
  253ACOH    H410661   4.331   2.346   0.744 -1.4058 -0.5562  0.5373
  253ACOH    O210662   4.276   2.371   0.668 -0.1177 -0.0854 -0.2622
  253ACOH    C210663   4.231   2.498   0.695 -0.7385 -0.2137 -0.1136
  253ACOH    O110664   4.239   2.558   0.803 -0.2436  0.4866  0.5451
  253ACOH    C110665   4.175   2.555   0.572  0.3828  0.6491  0.0082
  253ACOH    H110666   4.247   2.627   0.534  0.6285  0.4415  0.0775
  253ACOH    H210667   4.084   2.610   0.594  1.2963  2.3708 -0.4154
  253ACOH    H310668   4.157   2.484   0.491 -0.6912 -2.6982  3.0285
  255ACOH    H410669   7.133   1.944   6.606  0.1252 -0.2854  0.4818
  255ACOH    O210670   7.107   1.850   6.608  0.4463 -0.3879 -0.2522
  255ACOH    C210671   7.118   1.808   6.478 -0.6626  0.6856 -0.8534
  255ACOH    O110672   7.058   1.712   6.433 -0.4566 -0.2085 -0.0176
  255ACOH    C110673   7.163   1.904   6.378 -0.6212 -0.0213  0.4758
  255ACOH    H110674   7.074   1.947   6.332 -0.2267  1.0955  0.7248
  255ACOH    H210675   7.204   1.848   6.294 -1.9931 -1.6397  0.8677
  255ACOH    H310676   7.235   1.979   6.412 -0.3401 -0.3289  0.5692
  256ACOH    H410677   9.667   3.452   5.967  0.5929 -1.4394 -0.4563
  256ACOH    O210678   9.685   3.411   6.053 -0.1151 -0.2897  0.2553
  256ACOH    C210679   9.738   3.291   6.025  0.1239 -0.5037 -0.5755
  256ACOH    O110680   9.716   3.229   5.928  0.1096 -0.2581  0.0758
  256ACOH    C110681   9.796   3.234   6.152 -0.0859  0.3253 -0.6433
  256ACOH    H110682   9.850   3.313   6.204 -1.0620  0.2130  0.5847
  256ACOH    H210683   9.856   3.145   6.131  1.1653  1.2504 -0.9736
  256ACOH    H310684   9.712   3.204   6.216  1.1488 -2.1732 -0.1208
  257ACOH    H410685   6.815   2.151   5.983 -0.0293  0.3651  0.4084
  257ACOH    O210686   6.888   2.091   6.006 -0.1309  0.1258  0.1063
  257ACOH    C210687   6.828   1.967   6.029 -0.3486  0.2352 -0.9047
  257ACOH    O110688   6.710   1.944   6.043 -0.3463  0.0901  0.2490
  257ACOH    C110689   6.918   1.856   6.063 -0.4220  0.0200 -0.1397
  257ACOH    H110690   6.895   1.762   6.014  0.0718 -0.0341 -0.2761
  257ACOH    H210691   6.910   1.841   6.171 -1.8262 -2.2227 -0.5327
  257ACOH    H310692   7.023   1.887   6.059 -0.2056 -0.6600  0.1056
  258ACOH    H410693   7.847   8.800   2.129  0.0476 -0.7016  0.5731
  258ACOH    O210694   7.944   8.800   2.124  0.0097 -0.2334 -0.1577
  258ACOH    C210695   7.976   8.717   2.023  0.1270  0.7967 -0.1540
  258ACOH    O110696   7.908   8.639   1.958 -0.0177 -0.2101 -0.5820
  258ACOH    C110697   8.117   8.736   1.976 -0.3376  0.1144 -0.2275
  258ACOH    H110698   8.168   8.806   2.041 -1.5836  0.1225  0.7532
  258ACOH    H210699   8.116   8.771   1.873  0.3484  0.5215 -0.1001
  258ACOH    H310700   8.158   8.634   1.976 -0.6821 -0.0492  1.9750
  259ACOH    H410701   6.065   8.122   4.991 -2.7371 -0.4822  1.6884
  259ACOH    O210702   6.013   8.079   4.922 -0.1021 -0.3390 -0.4605
  259ACOH    C210703   5.906   8.158   4.904  0.0361  0.8143  0.1470
  259ACOH    O110704   5.912   8.274   4.923 -0.0069 -0.1432  0.4465
  259ACOH    C110705   5.788   8.106   4.829 -0.1330 -0.1335 -0.2157
  259ACOH    H110706   5.702   8.099   4.897 -1.8319  3.8211 -1.8008
  259ACOH    H210707   5.797   8.007   4.785  0.8545 -0.0840 -0.1339
  259ACOH    H310708   5.751   8.171   4.750 -1.7275  0.7653  1.2398
  260ACOH    H410709   4.194   0.590   6.187  1.2968 -1.2033 -0.4055
  260ACOH    O210710   4.253   0.633   6.251 -0.4035  0.1480  0.3105
  260ACOH    C210711   4.195   0.746   6.303  0.4115 -0.8275 -0.1963
  260ACOH    O110712   4.247   0.832   6.373 -0.2268 -0.5734  0.0826
  260ACOH    C110713   4.064   0.778   6.242  0.1038  0.2798  0.0056
  260ACOH    H110714   4.013   0.839   6.317 -3.0091 -1.5114 -0.5538
  260ACOH    H210715   4.006   0.686   6.235 -1.0322  1.0037 -0.2068
  260ACOH    H310716   4.070   0.813   6.139 -1.2539 -1.8610 -0.8440
  261ACOH    H410717   7.570   3.739   6.691  0.5368 -0.2146  3.1564
  261ACOH    O210718   7.499   3.802   6.711  0.3094  0.6171 -0.0209
  261ACOH    C210719   7.457   3.860   6.595  0.7749  0.5344  0.7198
  261ACOH    O110720   7.460   3.802   6.489  0.0454  0.1255  1.0890
  261ACOH    C110721   7.395   3.993   6.614 -0.0140  0.3316 -0.1488
  261ACOH    H110722   7.293   3.992   6.575 -0.0745 -1.0549  0.0117
  261ACOH    H210723   7.456   4.064   6.559 -1.6824  3.3516  1.7235
  261ACOH    H310724   7.385   4.019   6.720 -0.8927 -1.1753  0.1636
  262ACOH    H410725   7.862   3.846   1.334 -1.0423  0.4546 -1.6249
  262ACOH    O210726   7.845   3.925   1.389  0.0290 -0.1436 -0.3983
  262ACOH    C210727   7.910   4.034   1.339 -0.4306  0.1007 -0.4953
  262ACOH    O110728   7.997   4.032   1.253  0.2296  0.6075 -0.0024
  262ACOH    C110729   7.871   4.155   1.418  0.3611  0.2701  0.3554
  262ACOH    H110730   7.942   4.228   1.379 -0.4587  0.4119 -0.8715
  262ACOH    H210731   7.896   4.132   1.522  2.4124 -1.2183 -0.4309
  262ACOH    H310732   7.768   4.181   1.398  1.1501  0.8387 -3.2940
  263ACOH    H410733   5.203   4.916   5.109 -1.4361  1.3949 -1.5887
  263ACOH    O210734   5.193   4.830   5.065 -0.4696  0.5459 -0.1919
  263ACOH    C210735   5.178   4.727   5.154  1.0223  0.9570  0.2861
  263ACOH    O110736   5.122   4.741   5.262  0.2150 -0.7190  0.0238
  263ACOH    C110737   5.164   4.590   5.079 -0.1919  0.8278 -0.1813
  263ACOH    H110738   5.218   4.512   5.131  1.3316  1.9816  0.0127
  263ACOH    H210739   5.197   4.589   4.974 -0.5819 -2.1343 -0.3017
  263ACOH    H310740   5.059   4.563   5.069  0.4822 -1.5511 -1.2788
  265ACOH    H410741   7.717   5.389   5.773 -2.3057 -0.8871  2.4566
  265ACOH    O210742   7.650   5.439   5.722 -0.1447 -0.0613  0.3027
  265ACOH    C210743   7.642   5.550   5.790 -0.2279  0.7301 -0.0210
  265ACOH    O110744   7.729   5.617   5.841 -0.3697  0.4650 -0.2755
  265ACOH    C110745   7.516   5.618   5.745 -0.3043  0.4256 -0.2088
  265ACOH    H110746   7.500   5.711   5.799 -0.1373  0.3887 -0.0988
  265ACOH    H210747   7.431   5.549   5.739 -0.4829  0.5315  0.9127
  265ACOH    H310748   7.525   5.634   5.637  1.5471  1.3195  0.0674
  266ACOH    H410749   7.426   6.422   4.522  2.0013 -2.0079 -0.5842
  266ACOH    O210750   7.450   6.414   4.616  0.2844  0.0086  0.0614
  266ACOH    C210751   7.418   6.533   4.672 -0.3386  0.1701  0.2097
  266ACOH    O110752   7.361   6.628   4.614 -0.1475  0.1453 -0.3096
  266ACOH    C110753   7.436   6.517   4.823  0.2034 -0.1482 -0.3534
  266ACOH    H110754   7.541   6.532   4.847  0.4655 -2.7212  0.2087
  266ACOH    H210755   7.386   6.427   4.859  0.2228  0.6831  1.8259
  266ACOH    H310756   7.380   6.594   4.876  0.1797  0.4778 -1.2711
  268ACOH    H410757   5.367   1.245   4.180 -0.6611 -0.1078 -0.7962
  268ACOH    O210758   5.341   1.325   4.228 -0.5404 -0.3195 -0.3833
  268ACOH    C210759   5.208   1.323   4.235  0.6908  1.2832 -0.1680
  268ACOH    O110760   5.140   1.231   4.200 -0.0105 -0.1386 -0.2832
  268ACOH    C110761   5.161   1.438   4.309 -0.7449 -0.1114 -0.1433
  268ACOH    H110762   5.090   1.407   4.386  0.9126  2.0928  2.3726
  268ACOH    H210763   5.106   1.501   4.240  0.0554  0.6846 -0.0610
  268ACOH    H310764   5.242   1.495   4.355  0.7785 -2.6476  0.4232
  269ACOH    H410765   7.846   8.582   0.993 -0.6089 -0.1613 -0.1385
  269ACOH    O210766   7.812   8.670   0.969  0.1426  0.2676  0.3688
  269ACOH    C210767   7.748   8.666   0.851 -0.8175 -0.3332  0.3688
  269ACOH    O110768   7.748   8.571   0.779 -0.1166  0.3407  0.6539
  269ACOH    C110769   7.678   8.796   0.843 -0.0586 -0.6939  0.0646
  269ACOH    H110770   7.581   8.781   0.892  0.4882 -0.2778  1.2942
  269ACOH    H210771   7.655   8.827   0.741  2.1711 -0.5119 -0.3998
  269ACOH    H310772   7.735   8.874   0.893  0.0738  0.6534 -2.1092
  270ACOH    H410773   4.594   8.949   0.390 -1.4682  0.1964 -3.0922
  270ACOH    O210774   4.670   8.906   0.346 -0.1704 -0.4161 -0.3762
  270ACOH    C210775   4.644   8.773   0.333  0.7167 -0.8437  0.0776
  270ACOH    O110776   4.540   8.721   0.361 -0.0085  1.1091  0.0029
  270ACOH    C110777   4.744   8.706   0.255 -0.0793  0.0072  0.4071
  270ACOH    H110778   4.705   8.693   0.155 -0.7809  0.3671  0.6320
  270ACOH    H210779   4.752   8.612   0.309 -1.0390  0.4034  1.2646
  270ACOH    H310780   4.839   8.761   0.256  0.2317 -0.5167 -0.4747
  271ACOH    H410781   7.536   2.180   6.455  0.5560 -1.0925 -1.0649
  271ACOH    O210782   7.565   2.180   6.548 -0.1197 -0.2970 -0.8463
  271ACOH    C210783   7.700   2.172   6.542 -0.4092  0.3907 -0.4779
  271ACOH    O110784   7.766   2.181   6.440  0.6923  0.1235  0.5012
  271ACOH    C110785   7.752   2.175   6.677 -0.3123  0.7820 -0.0694
  271ACOH    H110786   7.845   2.117   6.681 -0.9297 -0.1450  1.7204
  271ACOH    H210787   7.692   2.131   6.757  0.2942  0.7113  0.3519
  271ACOH    H310788   7.774   2.279   6.703 -0.0753  0.5257  0.7718
  272ACOH    H410789   4.316   6.685   4.408 -0.4359  0.1599 -0.4899
  272ACOH    O210790   4.354   6.728   4.329  0.0095 -0.1007 -0.4200
  272ACOH    C210791   4.248   6.761   4.255 -0.5009 -0.1171  0.3121
  272ACOH    O110792   4.128   6.723   4.262  0.2821 -0.8015 -0.6314
  272ACOH    C110793   4.305   6.832   4.136 -0.0993 -0.4168  0.4901
  272ACOH    H110794   4.406   6.867   4.156 -0.6914  0.2829  2.4131
  272ACOH    H210795   4.246   6.923   4.119  0.4586 -0.6477 -3.0159
  272ACOH    H310796   4.306   6.764   4.052 -1.1525 -1.0852  0.9932
  273ACOH    H410797   6.237   4.888   0.114  0.4115  0.0973 -0.6637
  273ACOH    O210798   6.259   4.815   0.175  0.3519  0.5494 -0.1005
  273ACOH    C210799   6.275   4.708   0.095  0.4855  0.2513 -0.2753
  273ACOH    O110800   6.224   4.697  -0.016 -0.0890  0.3584  0.3247
  273ACOH    C110801   6.331   4.592   0.172 -0.2125 -0.3304 -0.6157
  273ACOH    H110802   6.264   4.554   0.249  0.6343 -0.2655  0.1651
  273ACOH    H210803   6.416   4.629   0.228 -0.3779 -0.3133 -0.3747
  273ACOH    H310804   6.359   4.513   0.102 -0.3826 -0.3237 -0.6938
  275ACOH    H410805   3.521   7.139   0.405  1.6102 -0.9678  1.2807
  275ACOH    O210806   3.526   7.228   0.445  0.1896 -0.1576 -0.2715
  275ACOH    C210807   3.534   7.322   0.348 -0.3380  0.4733  0.6308
  275ACOH    O110808   3.568   7.305   0.234 -0.2865  0.3595  0.5524
  275ACOH    C110809   3.516   7.451   0.416 -0.0042 -0.0694 -0.2708
  275ACOH    H110810   3.592   7.469   0.492 -1.8141  2.9433  0.9283
  275ACOH    H210811   3.428   7.438   0.479 -0.6201  1.5341 -0.7918
  275ACOH    H310812   3.495   7.536   0.352  3.0073  0.8880 -0.0728
  276ACOH    H410813   3.627   6.414   0.113  0.0227  0.3042  0.3035
  276ACOH    O210814   3.722   6.392   0.116 -0.0533  0.0004  0.4521
  276ACOH    C210815   3.738   6.267   0.159  0.1982 -0.2497  0.1424
  276ACOH    O110816   3.658   6.209   0.226 -0.3564  0.4048  0.1841
  276ACOH    C110817   3.881   6.235   0.141  0.6353  0.1938 -0.6727
  276ACOH    H110818   3.911   6.162   0.216 -0.1429  0.3536 -0.1979
  276ACOH    H210819   3.942   6.323   0.160 -1.5525  1.4907  0.5699
  276ACOH    H310820   3.902   6.183   0.048 -2.0706 -2.8839  0.3244
  277ACOH    H410821   6.226   2.916   4.873 -3.0300 -1.2503 -3.5780
  277ACOH    O210822   6.255   2.991   4.819 -0.5927  0.5041 -0.0668
  277ACOH    C210823   6.212   2.993   4.693 -0.3204 -0.4946  1.4095
  277ACOH    O110824   6.139   2.909   4.641 -0.5123 -0.6220  0.3363
  277ACOH    C110825   6.293   3.084   4.620 -0.3664  0.1502  0.2885
  277ACOH    H110826   6.223   3.119   4.544 -1.0167  0.7113  1.1401
  277ACOH    H210827   6.369   3.027   4.567 -1.9609 -0.2305 -1.6430
  277ACOH    H310828   6.328   3.170   4.677  1.4152 -0.2037 -0.2256
  278ACOH    H410829   6.877   5.265   1.943  0.1301 -1.4944  0.1834
  278ACOH    O210830   6.868   5.316   2.025 -0.4546 -0.3338 -0.5878
  278ACOH    C210831   6.914   5.242   2.127 -0.1671 -0.4335 -0.6658
  278ACOH    O110832   6.952   5.124   2.138 -0.7840  0.2019  0.0235
  278ACOH    C110833   6.884   5.311   2.252 -0.7683  0.4540  0.7727
  278ACOH    H110834   6.779   5.301   2.280 -0.1172  0.6585  3.3700
  278ACOH    H210835   6.907   5.416   2.235 -0.7055 -0.0359 -2.5281
  278ACOH    H310836   6.950   5.265   2.325 -1.1897  0.0094  0.8719
  279ACOH    H410837   8.588   6.402   1.042  3.1870  1.2449 -2.2069
  279ACOH    O210838   8.540   6.399   0.957  0.0086  0.1306 -0.4343
  279ACOH    C210839   8.407   6.431   0.973  0.3452 -0.2845 -0.1075
  279ACOH    O110840   8.337   6.450   0.874 -0.0162 -0.1707 -0.2936
  279ACOH    C110841   8.368   6.469   1.112  0.1077 -0.2315  0.3695
  279ACOH    H110842   8.272   6.522   1.114 -0.0546 -0.3607 -2.3121
  279ACOH    H210843   8.432   6.550   1.146 -1.0430  1.6659 -1.7844
  279ACOH    H310844   8.363   6.389   1.186  1.6460 -0.8899 -0.2308
  280ACOH    H410845   7.434   7.178   1.620  1.2417  0.1153 -1.8217
  280ACOH    O210846   7.377   7.115   1.573 -0.6773 -0.0157  0.5440
  280ACOH    C210847   7.433   7.001   1.602  0.5517  0.8557  1.0995
  280ACOH    O110848   7.552   6.976   1.579  0.0856  0.5960  0.5918
  280ACOH    C110849   7.334   6.902   1.559  0.0035 -0.3898  0.3387
  280ACOH    H110850   7.327   6.901   1.451 -0.3773  4.1540  0.2279
  280ACOH    H210851   7.244   6.923   1.616 -0.7227  1.0230 -1.3357
  280ACOH    H310852   7.376   6.805   1.589 -2.0509 -0.5857  2.7437
  281ACOH    H410853   5.604   2.810   4.786  3.1055  0.8300 -1.2181
  281ACOH    O210854   5.585   2.905   4.790 -0.4026  0.1422  0.7560
  281ACOH    C210855   5.629   2.937   4.908  0.1560 -0.2493 -0.1024
  281ACOH    O110856   5.745   2.916   4.942 -0.2366 -0.1854 -0.6512
  281ACOH    C110857   5.560   3.047   4.971  0.4714 -0.1826 -0.1772
  281ACOH    H110858   5.537   3.027   5.075 -2.3843 -1.1701 -0.9752
  281ACOH    H210859   5.469   3.077   4.919  1.2160  2.9251  0.1896
  281ACOH    H310860   5.623   3.136   4.971  1.0861 -0.5997  1.9233
  284ACOH    H410861   7.044   9.568   5.820  1.8371 -0.5718  0.9283
  284ACOH    O210862   7.100   9.648   5.827  0.1336  0.6822  0.3404
  284ACOH    C210863   7.020   9.757   5.841  0.0751  0.0338  0.6812
  284ACOH    O110864   6.896   9.759   5.835 -0.0602  0.3174  0.0517
  284ACOH    C110865   7.095   9.884   5.880  0.0697 -0.0808  0.1845
  284ACOH    H110866   7.033   9.972   5.868 -0.2248 -0.2361  0.5693
  284ACOH    H210867   7.191   9.895   5.829 -0.1121  0.6541 -0.0127
  284ACOH    H310868   7.117   9.868   5.985 -1.9577 -1.2428  0.4449
  285ACOH    H410869   7.118   7.703   2.710  1.3971 -1.1232  2.9050
  285ACOH    O210870   7.097   7.609   2.697  0.0685 -0.4284 -0.4436
  285ACOH    C210871   7.215   7.552   2.659  1.0183  0.6002 -0.4257
  285ACOH    O110872   7.326   7.600   2.658 -0.3156  0.0107 -0.1838
  285ACOH    C110873   7.189   7.409   2.623  0.6622 -0.0439 -0.4747
  285ACOH    H110874   7.083   7.383   2.616  0.2596  1.2502  0.6763
  285ACOH    H210875   7.236   7.354   2.704  1.2373 -1.7412 -1.9326
  285ACOH    H310876   7.244   7.391   2.531  2.4309  2.5181  0.0324
  286ACOH    H410877   9.335   6.430   4.853 -0.0411  1.2589 -0.7091
  286ACOH    O210878   9.285   6.475   4.923 -0.3805 -0.3745  0.1203
  286ACOH    C210879   9.365   6.451   5.026  0.5608 -0.0555 -0.7654
  286ACOH    O110880   9.465   6.382   5.024  0.2493 -0.1377  0.6085
  286ACOH    C110881   9.284   6.483   5.152 -0.0068  0.4584 -0.0226
  286ACOH    H110882   9.261   6.590   5.150 -0.9026  0.3540  2.7644
  286ACOH    H210883   9.333   6.469   5.248  0.1166  0.5036 -0.0787
  286ACOH    H310884   9.186   6.435   5.148 -0.0248  0.5640 -1.3294
  287ACOH    H410885   0.178   7.253   1.551 -2.1772  0.7093  1.4404
  287ACOH    O210886   0.123   7.293   1.481 -0.2866  0.3213 -0.3136
  287ACOH    C210887   0.072   7.203   1.397 -0.3635  0.1032  0.1877
  287ACOH    O110888   0.050   7.087   1.413  0.5000 -0.0595  0.3086
  287ACOH    C110889   0.012   7.274   1.284 -0.4300  0.4096  0.3201
  287ACOH    H110890  -0.072   7.323   1.332  0.9038  2.3235  0.7640
  287ACOH    H210891  -0.010   7.203   1.205  0.6401  0.3919  0.0198
  287ACOH    H310892   0.090   7.341   1.247  1.7418 -2.0447  0.3113
  288ACOH    H410893   1.550   0.937   5.952  0.6537  0.6627  0.6761
  288ACOH    O210894   1.558   0.855   5.901 -0.6483  0.8099  0.2243
  288ACOH    C210895   1.457   0.773   5.938 -0.2882  1.2504  0.0280
  288ACOH    O110896   1.354   0.805   5.996  0.4666 -0.0480  0.2707
  288ACOH    C110897   1.467   0.638   5.877 -0.1555 -0.1034  0.1003
  288ACOH    H110898   1.422   0.633   5.778 -1.0234 -3.3691  0.5879
  288ACOH    H210899   1.416   0.559   5.933 -3.1291  1.2701 -0.6023
  288ACOH    H310900   1.573   0.617   5.863 -0.5094 -0.8879 -1.4773
  289ACOH    H410901   1.573   8.275   2.619 -1.6637  1.7884  0.3386
  289ACOH    O210902   1.652   8.329   2.633 -0.0963 -0.2399 -0.5385
  289ACOH    C210903   1.638   8.392   2.753 -0.1300  0.0592 -0.2353
  289ACOH    O110904   1.530   8.431   2.793 -0.0104 -0.1418 -0.4094
  289ACOH    C110905   1.764   8.463   2.786  0.4252 -0.4048  0.2873
  289ACOH    H110906   1.831   8.391   2.832  0.1820 -1.7691 -1.4629
  289ACOH    H210907   1.755   8.549   2.852 -1.6327 -0.3085 -0.0840
  289ACOH    H310908   1.807   8.494   2.691 -3.0027  0.2240 -1.1462
  291ACOH    H410909   2.354   9.416   6.148 -0.0461 -0.6476  3.2172
  291ACOH    O210910   2.306   9.500   6.155  0.4675 -0.0909  0.6364
  291ACOH    C210911   2.276   9.513   6.287 -0.3101  0.3246  0.6820
  291ACOH    O110912   2.316   9.441   6.380 -0.4607 -0.2233 -0.6417
  291ACOH    C110913   2.202   9.635   6.305 -0.4415  0.2113 -0.1561
  291ACOH    H110914   2.255   9.695   6.379  3.1804 -1.8109 -1.0203
  291ACOH    H210915   2.108   9.606   6.352  0.9042 -3.3257  0.5169
  291ACOH    H310916   2.200   9.694   6.213  3.0801  1.5229  0.5245
  292ACOH    H410917   7.638   8.031   1.786  0.1191  1.9006  0.6332
  292ACOH    O210918   7.546   8.059   1.776 -0.5676 -0.4360 -0.0208
  292ACOH    C210919   7.544   8.189   1.749  0.0170  0.4808  0.0130
  292ACOH    O110920   7.640   8.259   1.721  0.7685  0.3783  0.2905
  292ACOH    C110921   7.408   8.235   1.752  0.4988  0.3661 -0.2587
  292ACOH    H110922   7.378   8.261   1.853 -0.1851 -3.4152  0.5893
  292ACOH    H210923   7.340   8.158   1.714  0.6416 -0.3639  0.9395
  292ACOH    H310924   7.398   8.320   1.685 -2.1929  0.7185  0.5108
  293ACOH    H410925   9.943   7.817   1.934 -0.3515 -1.7454 -2.3306
  293ACOH    O210926   9.994   7.756   1.989 -0.2820 -0.1061 -0.5405
  293ACOH    C210927   9.919   7.709   2.090 -0.8249 -0.2467  0.3959
  293ACOH    O110928   9.799   7.720   2.113  0.2949  0.6235  0.1710
  293ACOH    C110929  10.011   7.626   2.178  0.3230 -0.1102  0.2310
  293ACOH    H110930  10.018   7.675   2.275 -1.6953 -0.9272  0.8120
  293ACOH    H210931  10.113   7.617   2.140 -0.5170 -2.2973 -1.6361
  293ACOH    H310932   9.973   7.526   2.196 -1.1630  0.2524 -0.8314
  294ACOH    H410933   6.060   3.656   1.189 -0.8434 -0.3593 -0.4133
  294ACOH    O210934   6.001   3.632   1.262 -0.0660 -0.6451  0.1226
  294ACOH    C210935   6.044   3.526   1.332 -0.2971 -0.2421 -0.4239
  294ACOH    O110936   6.121   3.443   1.292  0.5211  0.3348  0.6476
  294ACOH    C110937   5.964   3.509   1.452 -0.3152 -0.4904  0.2993
  294ACOH    H110938   5.982   3.411   1.495  0.5438 -0.6238 -0.3552
  294ACOH    H210939   5.860   3.518   1.421 -0.4699 -0.9380  0.6903
  294ACOH    H310940   5.996   3.589   1.519  0.0104 -2.6007  2.7133
  295ACOH    H410941   4.833   2.555   6.033  1.4338 -0.9071 -2.9587
  295ACOH    O210942   4.825   2.648   6.005 -0.6364  0.0212  0.3618
  295ACOH    C210943   4.709   2.699   6.041  0.0609 -0.3784 -0.2643
  295ACOH    O110944   4.624   2.651   6.109  0.6034  0.3679  0.1980
  295ACOH    C110945   4.688   2.823   5.962 -0.6948 -0.0678 -0.3544
  295ACOH    H110946   4.685   2.913   6.024 -2.1445 -0.1263 -0.3260
  295ACOH    H210947   4.592   2.818   5.911 -0.7298  1.0952 -0.4251
  295ACOH    H310948   4.766   2.836   5.886 -2.6983 -1.4048 -2.7054
  297ACOH    H410949   8.725   0.929   4.395  1.5703 -1.8053  2.1721
  297ACOH    O210950   8.657   0.921   4.464 -0.3565  0.4972  0.6422
  297ACOH    C210951   8.543   0.968   4.413 -0.0090 -0.5360 -0.1149
  297ACOH    O110952   8.539   1.046   4.319 -0.3730 -0.3855  0.3747
  297ACOH    C110953   8.424   0.931   4.490 -0.4615 -0.0743  0.5124
  297ACOH    H110954   8.431   0.826   4.517 -0.2605  0.2298  1.6624
  297ACOH    H210955   8.328   0.950   4.443  0.3329 -0.6638 -1.4208
  297ACOH    H310956   8.426   0.985   4.585  1.0300 -0.6910  0.8504
  298ACOH    H410957   6.798   5.689   6.797  0.5290 -0.8142 -0.9916
  298ACOH    O210958   6.704   5.685   6.775  0.0913  0.1250  0.6396
  298ACOH    C210959   6.687   5.719   6.647 -0.4175  0.3150 -0.9775
  298ACOH    O110960   6.774   5.752   6.569  0.0716  0.3905  0.1899
  298ACOH    C110961   6.544   5.723   6.609 -0.3307  0.0409  0.7149
  298ACOH    H110962   6.520   5.616   6.612  1.3486 -0.3783 -0.0622
  298ACOH    H210963   6.514   5.768   6.515 -0.8605  2.1106  1.8426
  298ACOH    H310964   6.480   5.766   6.686 -0.5878 -2.6718  2.1015
  299ACOH    H410965   5.545   2.051   3.092 -0.0202 -0.2317 -1.0719
  299ACOH    O210966   5.525   2.144   3.070  0.1866  0.0639 -0.0641
  299ACOH    C210967   5.494   2.141   2.945  0.8661  0.5673  0.0383
  299ACOH    O110968   5.456   2.041   2.883  0.0048  0.1494  0.2192
  299ACOH    C110969   5.463   2.281   2.896 -0.0382 -0.0331 -0.1200
  299ACOH    H110970   5.487   2.360   2.967 -0.0802 -0.3050  0.2015
  299ACOH    H210971   5.356   2.282   2.879  0.3027 -1.2988 -2.5920
  299ACOH    H310972   5.515   2.297   2.802 -0.0497 -2.5410 -0.6020
  300ACOH    H410973   4.854   4.466   5.251  2.5718 -0.6239 -1.8474
  300ACOH    O210974   4.905   4.448   5.331  0.6417  0.2601 -0.3758
  300ACOH    C210975   4.893   4.545   5.419  0.2227  0.0921 -0.0952
  300ACOH    O110976   4.795   4.621   5.421  0.2611 -0.3174 -0.1532
  300ACOH    C110977   4.982   4.526   5.535 -0.3206  0.6110 -0.1115
  300ACOH    H110978   4.939   4.445   5.594  3.2400 -0.8349  0.5812
  300ACOH    H210979   4.971   4.618   5.593  0.5310  0.3891  0.4063
  300ACOH    H310980   5.081   4.502   5.499 -0.0531  0.8536  0.4503
  301ACOH    H410981   2.562   7.438   5.062 -0.6103 -0.5682 -1.0583
  301ACOH    O210982   2.479   7.389   5.077 -0.7321 -0.0801 -0.1233
  301ACOH    C210983   2.392   7.438   4.991  0.2002 -1.1878  0.3617
  301ACOH    O110984   2.399   7.540   4.925  0.1190 -0.2180 -0.7172
  301ACOH    C110985   2.275   7.355   4.983 -0.6098  0.0213  0.2181
  301ACOH    H110986   2.306   7.264   4.931 -0.3826  0.8101 -1.0437
  301ACOH    H210987   2.196   7.400   4.924  1.4083  1.7421 -1.2683
  301ACOH    H310988   2.244   7.322   5.082  0.5003  1.0599  0.9350
  302ACOH    H410989   7.515   0.812   2.492  1.7537  0.1180  1.2100
  302ACOH    O210990   7.469   0.843   2.572  0.2795 -0.0676  0.4587
  302ACOH    C210991   7.354   0.892   2.528  0.0305 -0.0669 -0.5226
  302ACOH    O110992   7.295   0.861   2.428  0.0034 -0.1967 -0.0829
  302ACOH    C110993   7.280   0.955   2.634  0.5573  0.3076 -1.0834
  302ACOH    H110994   7.253   1.053   2.594  0.2257  0.9719  0.7310
  302ACOH    H210995   7.332   0.984   2.725  2.8150  0.0028 -2.2344
  302ACOH    H310996   7.194   0.894   2.659 -1.1225  2.6217 -1.0285
  303ACOH    H410997   7.802   5.177   5.741 -1.8976  0.8949 -0.7000
  303ACOH    O210998   7.841   5.127   5.668  0.0505  0.8871  0.3195
  303ACOH    C210999   7.754   5.029   5.632 -0.5029 -1.0264  0.6869
  303ACOH    O111000   7.664   4.984   5.700  0.5510  0.4403  0.0358
  303ACOH    C111001   7.774   4.982   5.495 -0.0738 -0.0026  0.4587
  303ACOH    H111002   7.852   4.905   5.492  0.0502  0.0991  1.0434
  303ACOH    H211003   7.787   5.069   5.430 -0.4165  1.0397  1.7498
  303ACOH    H311004   7.685   4.932   5.458  2.3419 -2.1822 -2.6853
  304ACOH    H411005   1.980   3.083   3.413  0.3221 -0.3724  3.1388
  304ACOH    O211006   2.076   3.091   3.400 -0.0651  0.1757  0.2616
  304ACOH    C211007   2.126   2.998   3.322 -0.2612 -0.2358  0.2942
  304ACOH    O111008   2.060   2.905   3.277 -0.0851  0.1409  0.1803
  304ACOH    C111009   2.273   3.016   3.312 -0.2101  0.7864 -0.0455
  304ACOH    H111010   2.307   3.093   3.243  0.8321 -0.9166 -1.4976
  304ACOH    H211011   2.323   2.922   3.287  0.3109  0.4900  2.0180
  304ACOH    H311012   2.315   3.046   3.408 -1.5196  0.5715  0.5978
  305ACOH    H411013   5.054   4.170   4.242 -0.0882 -1.0717  1.2636
  305ACOH    O211014   5.137   4.123   4.224  0.3515  0.0542  0.3569
  305ACOH    C211015   5.180   4.185   4.109  0.3047 -0.5000  0.1438
  305ACOH    O111016   5.118   4.273   4.050 -0.6154 -0.3704  0.2506
  305ACOH    C111017   5.294   4.121   4.044  0.3008 -0.0419 -0.6193
  305ACOH    H111018   5.384   4.182   4.033  1.7912 -1.6772  1.9527
  305ACOH    H211019   5.266   4.085   3.945 -1.5768  2.1195 -0.9128
  305ACOH    H311020   5.323   4.032   4.101  1.7982  0.8771  0.0819
  306ACOH    H411021   3.021   9.367   2.865  0.0232 -0.0465 -1.1243
  306ACOH    O211022   3.053   9.459   2.873  0.0165 -0.1278 -0.1139
  306ACOH    C211023   3.103   9.488   2.754  0.8153 -0.1250 -0.0788
  306ACOH    O111024   3.110   9.418   2.656 -0.0686  0.6816  0.2117
  306ACOH    C111025   3.170   9.620   2.767  0.2561 -0.1248  0.0273
  306ACOH    H111026   3.258   9.610   2.831  0.1217  0.9831  0.3955
  306ACOH    H211027   3.100   9.697   2.800  0.4312  0.2071 -0.3633
  306ACOH    H311028   3.212   9.654   2.672  0.5981 -2.1922 -0.5765
  308ACOH    H411029   6.223   2.144   3.143 -1.2285  0.7986  0.5773
  308ACOH    O211030   6.153   2.083   3.115 -0.2502 -0.2208  0.3063
  308ACOH    C211031   6.207   2.012   3.017 -0.1271 -0.7209 -0.8059
  308ACOH    O111032   6.321   2.027   2.979 -0.0281 -0.4654  0.0122
  308ACOH    C111033   6.118   1.897   2.988  0.3880 -0.2223  0.0234
  308ACOH    H111034   6.127   1.829   3.073 -1.0415  1.0945  1.2757
  308ACOH    H211035   6.146   1.847   2.895 -0.6254 -0.9946  0.1235
  308ACOH    H311036   6.012   1.922   2.988  0.5812  0.6296 -0.6274
  309ACOH    H411037   4.478   2.031   3.001  0.3341  2.7430  1.5302
  309ACOH    O211038   4.552   2.036   2.938 -0.1887 -0.2186  0.5960
  309ACOH    C211039   4.619   2.146   2.972  0.0270  0.9443  0.6300
  309ACOH    O111040   4.571   2.235   3.040 -0.2520 -0.3276  0.3236
  309ACOH    C111041   4.743   2.167   2.886 -0.4897 -0.1358 -0.3400
  309ACOH    H111042   4.713   2.167   2.781  2.0752 -0.2485 -1.1043
  309ACOH    H211043   4.811   2.082   2.892 -0.0451  0.0392 -2.3705
  309ACOH    H311044   4.804   2.248   2.924  0.2616 -0.6765 -0.3943
  310ACOH    H411045   1.720   9.648   3.493 -2.5141  1.6895  0.9685
  310ACOH    O211046   1.751   9.712   3.428 -0.0174 -0.4980 -0.0910
  310ACOH    C211047   1.701   9.670   3.311  0.2182  0.1901 -0.0932
  310ACOH    O111048   1.639   9.567   3.289  0.3003 -0.0179  0.0285
  310ACOH    C111049   1.759   9.756   3.203  0.7601  0.3471 -0.6768
  310ACOH    H111050   1.866   9.768   3.222  0.8042 -0.3182 -0.5018
  310ACOH    H211051   1.703   9.849   3.193  1.7083  1.2548  2.0737
  310ACOH    H311052   1.755   9.708   3.106 -1.1304  0.0085 -0.4465
  311ACOH    H411053   4.823   3.803   3.355  0.1166  0.0015  3.2624
  311ACOH    O211054   4.909   3.848   3.361 -0.1865  1.1285  0.2698
  311ACOH    C211055   4.910   3.957   3.287  0.6502 -0.6760  0.7161
  311ACOH    O111056   4.815   4.001   3.224 -0.3312 -0.0794  0.5250
  311ACOH    C111057   5.034   4.034   3.317 -0.1910 -0.8475  0.1533
  311ACOH    H111058   5.099   3.965   3.370  0.4634 -0.4953 -0.1798
  311ACOH    H211059   5.015   4.117   3.385 -1.0044  0.3548 -1.5097
  311ACOH    H311060   5.082   4.083   3.232  0.3426 -2.0385 -0.2416
  312ACOH    H411061   5.989   9.657   1.673  0.3655  2.1127  2.8703
  312ACOH    O211062   6.080   9.628   1.694  0.4220 -0.2561 -0.2048
  312ACOH    C211063   6.049   9.503   1.740  0.0346 -0.4366 -0.1081
  312ACOH    O111064   5.947   9.439   1.714 -0.3529  0.4302 -0.4511
  312ACOH    C111065   6.158   9.446   1.818 -0.4675 -0.8487  0.4823
  312ACOH    H111066   6.242   9.514   1.832 -0.5549 -0.1216 -2.1387
  312ACOH    H211067   6.189   9.355   1.766  1.7689  0.7504 -1.0869
  312ACOH    H311068   6.116   9.413   1.913 -1.2859 -0.5997  0.2104
  313ACOH    H411069   5.021   7.383   1.774 -1.1251  2.2819 -1.5761
  313ACOH    O211070   5.098   7.443   1.777  0.1927  0.5330  0.1984
  313ACOH    C211071   5.097   7.501   1.655  0.3009 -0.5189  0.3660
  313ACOH    O111072   5.014   7.493   1.568 -0.6623  0.8909  0.7338
  313ACOH    C111073   5.203   7.608   1.655  0.2718  0.2959  0.2660
  313ACOH    H111074   5.302   7.564   1.659 -0.9692 -2.8288 -1.7371
  313ACOH    H211075   5.188   7.675   1.740  2.0803  1.4548 -0.3089
  313ACOH    H311076   5.197   7.653   1.556 -2.3961  1.6162  0.9591
  314ACOH    H411077   7.662   6.916   2.650 -1.0280  1.0355  0.3480
  314ACOH    O211078   7.585   6.885   2.600 -0.1540 -0.2144 -0.2353
  314ACOH    C211079   7.507   6.994   2.586 -0.7242 -0.3965 -0.3156
  314ACOH    O111080   7.537   7.108   2.618  0.1231  0.8021  0.1632
  314ACOH    C111081   7.393   6.962   2.495  0.5209 -0.3502 -0.3757
  314ACOH    H111082   7.317   6.930   2.566 -0.8860  1.6451 -0.9340
  314ACOH    H211083   7.426   6.881   2.430  0.4971 -0.4593 -0.2510
  314ACOH    H311084   7.354   7.045   2.436  0.2918 -0.7856 -0.8391
  315ACOH    H411085   4.501   7.784   5.704 -1.2611  0.9533 -0.5566
  315ACOH    O211086   4.505   7.809   5.798 -0.0584 -0.1134 -0.3228
  315ACOH    C211087   4.628   7.795   5.844 -0.1667  0.8363  0.1466
  315ACOH    O111088   4.697   7.698   5.802 -0.0057 -0.6159 -0.7530
  315ACOH    C111089   4.657   7.878   5.962 -0.1260 -0.0295  0.0633
  315ACOH    H111090   4.588   7.861   6.046 -0.6600 -0.7113 -0.5045
  315ACOH    H211091   4.652   7.984   5.939 -2.6918  0.4424  2.5004
  315ACOH    H311092   4.759   7.855   5.993 -0.3411  1.1716  1.7275
  318ACOH    H411093   9.963   3.121   1.152  0.4258 -0.8733  1.0002
  318ACOH    O211094   9.911   3.065   1.212 -0.7391 -0.3405  0.5028
  318ACOH    C211095   9.988   3.023   1.315 -0.3516 -0.5528 -0.4366
  318ACOH    O111096  10.093   3.071   1.355  0.3576  0.2915  0.0239
  318ACOH    C111097   9.920   2.912   1.380  0.2465  0.5781  0.1822
  318ACOH    H111098   9.924   2.941   1.485  0.6570 -0.5926  0.4952
  318ACOH    H211099   9.980   2.822   1.369 -0.6295 -0.0523  0.4264
  318ACOH    H311100   9.814   2.900   1.354  0.0582 -0.7755  1.5221
  319ACOH    H411101   7.147   7.755   3.849  2.8811  1.4162 -1.3212
  319ACOH    O211102   7.091   7.805   3.786  0.2710  0.1865 -0.0451
  319ACOH    C211103   7.155   7.926   3.769 -0.0950  0.5025  0.3867
  319ACOH    O111104   7.269   7.952   3.798 -0.3888 -0.0382 -0.0777
  319ACOH    C111105   7.069   8.030   3.707 -0.0607  0.2188 -0.5225
  319ACOH    H111106   7.063   8.122   3.765  1.5285  2.1768 -3.3334
  319ACOH    H211107   6.968   7.995   3.684  0.2489 -0.6509 -0.5706
  319ACOH    H311108   7.111   8.054   3.609 -2.4178  2.7431 -0.9658
  322ACOH    H411109   1.100   1.401   2.546  1.9299 -0.7458 -0.3954
  322ACOH    O211110   1.063   1.356   2.468 -0.2049  0.1314  0.0755
  322ACOH    C211111   1.078   1.224   2.475 -0.0950  0.0599 -0.0459
  322ACOH    O111112   1.165   1.172   2.540  0.0447 -0.1342  0.6755
  322ACOH    C111113   0.996   1.150   2.378 -0.6515 -0.0127 -0.4452
  322ACOH    H111114   1.008   1.041   2.374 -1.0867 -0.0147 -1.7217
  322ACOH    H211115   1.010   1.187   2.276 -1.0029 -0.9807 -0.8517
  322ACOH    H311116   0.894   1.176   2.406  0.3296  0.6795  2.7327
  323ACOH    H411117   1.189   3.961   2.757 -1.3946 -1.3911  2.2082
  323ACOH    O211118   1.244   3.883   2.737 -0.0010  0.2192 -0.3928
  323ACOH    C211119   1.158   3.782   2.710 -0.7060 -0.2850  0.8756
  323ACOH    O111120   1.035   3.783   2.700 -0.6231 -0.0607  0.5448
  323ACOH    C111121   1.243   3.666   2.696 -0.0598 -0.1389 -0.6786
  323ACOH    H111122   1.298   3.631   2.783 -0.2007  0.5846 -0.3011
  323ACOH    H211123   1.329   3.688   2.633  0.6241  0.4994  0.4628
  323ACOH    H311124   1.186   3.579   2.662  1.0538 -0.2147 -2.4276
  324ACOH    H411125   4.038   4.484   5.612 -0.1137 -1.8990  0.2902
  324ACOH    O211126   4.093   4.492   5.692 -0.4384 -0.1246  0.3656
  324ACOH    C211127   4.225   4.455   5.659 -0.0896  0.0267 -0.5482
  324ACOH    O111128   4.259   4.403   5.557  0.2019 -0.0949  0.4711
  324ACOH    C111129   4.305   4.458   5.779 -0.4534  0.3165 -0.4382
  324ACOH    H111130   4.275   4.535   5.850 -1.0877 -0.2624 -0.0802
  324ACOH    H211131   4.410   4.478   5.757 -0.6052  1.6972  0.0191
  324ACOH    H311132   4.306   4.362   5.830 -0.1731  0.2982 -0.4726
  325ACOH    H411133   8.345   6.114   0.564  0.9230  0.1057 -0.7866
  325ACOH    O211134   8.295   6.073   0.492  0.3420 -0.6180  0.0034
  325ACOH    C211135   8.368   5.976   0.440 -0.2230  1.0748  0.2862
  325ACOH    O111136   8.475   5.933   0.484  0.0513 -0.7271  0.0594
  325ACOH    C111137   8.297   5.916   0.322 -0.2012 -0.6996  0.3178
  325ACOH    H111138   8.293   5.982   0.235  1.0953 -0.3592  0.4938
  325ACOH    H211139   8.193   5.906   0.350 -0.7843  2.4953 -0.4734
  325ACOH    H311140   8.331   5.818   0.288 -1.0648 -0.0200 -2.6247
  326ACOH    H411141   4.633   7.207   6.146  0.9739  1.3700  0.0947
  326ACOH    O211142   4.719   7.182   6.184  0.5694  0.3610  0.3638
  326ACOH    C211143   4.810   7.260   6.135  0.1941 -0.0558 -0.1042
  326ACOH    O111144   4.803   7.304   6.022 -0.2330  0.4859 -0.2543
  326ACOH    C111145   4.945   7.218   6.191  0.2619  0.0032  0.7934
  326ACOH    H111146   4.987   7.132   6.138  1.3145  0.1762  1.3324
  326ACOH    H211147   4.932   7.188   6.295  0.5411 -1.8412  0.3125
  326ACOH    H311148   5.023   7.294   6.183  0.0566  0.3107  1.6487
  327ACOH    H411149   7.087   3.489   6.137 -0.0252 -0.7664  1.5783
  327ACOH    O211150   7.039   3.404   6.139 -0.4441 -0.5927  0.1102
  327ACOH    C211151   6.998   3.381   6.011  0.0768  0.6457 -0.0887
  327ACOH    O111152   6.956   3.464   5.933 -0.6900  0.2490  0.4322
  327ACOH    C111153   6.972   3.233   5.994 -0.4503 -0.2628 -0.4743
  327ACOH    H111154   7.022   3.189   5.908 -0.0015 -0.4069 -0.1387
  327ACOH    H211155   6.864   3.223   5.982 -0.9654  1.2230  2.4080
  327ACOH    H311156   7.004   3.182   6.085 -0.0752  0.2606 -0.3109
  328ACOH    H411157   5.057   4.842   5.422  1.9114  2.3367  1.2890
  328ACOH    O211158   4.987   4.852   5.489 -0.3402  0.2722 -0.6537
  328ACOH    C211159   4.963   4.981   5.496 -0.5629 -0.8934  0.5731
  328ACOH    O111160   5.022   5.074   5.438  0.0281  0.1609 -0.3417
  328ACOH    C111161   4.844   5.008   5.577  0.5723 -0.3249  0.7926
  328ACOH    H111162   4.811   4.918   5.628 -1.0913 -0.9776 -1.3364
  328ACOH    H211163   4.761   5.045   5.516  2.5014  0.1108 -1.6391
  328ACOH    H311164   4.860   5.085   5.653 -2.4174  0.8511  0.3171
  329ACOH    H411165   6.965   9.324   1.670  0.4530 -0.6561  1.6028
  329ACOH    O211166   6.959   9.241   1.620  0.1765  0.1106  0.3455
  329ACOH    C211167   7.071   9.239   1.544  0.6002  0.2103  0.1191
  329ACOH    O111168   7.172   9.302   1.556  0.1025 -0.3514 -0.0247
  329ACOH    C111169   7.065   9.130   1.446  0.0231  0.0728  0.0639
  329ACOH    H111170   7.135   9.049   1.467  0.7411  0.7457  0.2603
  329ACOH    H211171   7.097   9.167   1.348  0.3186 -0.6864 -0.1280
  329ACOH    H311172   6.967   9.081   1.441  0.1204 -0.4022  2.3706
  330ACOH    H411173   8.237   1.232   0.338 -0.3421 -1.2575  2.0058
  330ACOH    O211174   8.160   1.204   0.286  0.8345 -0.3581 -0.2992
  330ACOH    C211175   8.195   1.177   0.162 -0.0150 -0.5568  0.3394
  330ACOH    O111176   8.295   1.224   0.111  0.2018 -0.3231 -0.1098
  330ACOH    C111177   8.081   1.118   0.084  0.5459 -0.5935 -0.0017
  330ACOH    H111178   8.047   1.193   0.013 -0.9279 -0.1998  1.0854
  330ACOH    H211179   8.006   1.081   0.155  0.0198  2.6804  1.2424
  330ACOH    H311180   8.124   1.034   0.030  3.2658 -0.7452  2.3037
  331ACOH    H411181   1.559   2.219   0.524 -1.0528  0.7276  0.2034
  331ACOH    O211182   1.632   2.227   0.588 -0.6958  0.4395 -0.1618
  331ACOH    C211183   1.693   2.345   0.560  0.8307  1.5062  0.5078
  331ACOH    O111184   1.697   2.401   0.452 -0.0080  0.0037  0.1842
  331ACOH    C111185   1.785   2.380   0.665 -0.7073 -0.7632 -0.2341
  331ACOH    H111186   1.879   2.329   0.644 -0.6021 -0.2116 -1.1248
  331ACOH    H211187   1.736   2.358   0.760  0.7911  0.3823  0.8325
  331ACOH    H311188   1.808   2.487   0.668 -2.1316 -0.4576  0.3406
  332ACOH    H411189   4.829   8.984   1.401 -0.5445 -0.1850 -1.1313
  332ACOH    O211190   4.922   8.976   1.372 -0.1538  0.7709 -0.1747
  332ACOH    C211191   4.931   8.840   1.371 -0.1904 -0.0476 -0.7553
  332ACOH    O111192   4.839   8.759   1.391 -0.3715 -0.3549  0.0990
  332ACOH    C111193   5.073   8.802   1.333  0.1528  0.4369  0.6202
  332ACOH    H111194   5.125   8.785   1.428 -1.3443  0.7578  1.5188
  332ACOH    H211195   5.124   8.886   1.288  0.9820  0.1698  1.0448
  332ACOH    H311196   5.067   8.719   1.263 -2.0668  1.0846 -0.0041
  333ACOH    H411197   9.102   3.052   6.153 -2.7966  0.0021  0.2393
  333ACOH    O211198   9.082   2.961   6.126 -0.6868 -0.2973 -0.3682
  333ACOH    C211199   9.177   2.924   6.038  0.0864  0.1607  0.3325
  333ACOH    O111200   9.256   2.996   5.987 -0.4046  0.2108 -0.0071
  333ACOH    C111201   9.145   2.789   5.981 -0.5437 -0.2321 -0.8083
  333ACOH    H111202   9.041   2.763   6.001 -0.2745 -1.2977 -0.7680
  333ACOH    H211203   9.207   2.714   6.030  1.0140  0.9930 -0.8293
  333ACOH    H311204   9.161   2.795   5.874  2.9938 -0.2828 -0.3395
  334ACOH    H411205   5.963   0.922   2.168 -0.0869 -1.2309  0.9219
  334ACOH    O211206   5.907   0.880   2.100  0.0786  0.3429 -0.2119
  334ACOH    C211207   5.996   0.815   2.019  0.7523  0.0421 -0.5807
  334ACOH    O111208   6.115   0.798   2.039  0.5760 -0.4694 -0.2973
  334ACOH    C111209   5.942   0.788   1.886 -0.4027  0.3773  0.0279
  334ACOH    H111210   5.977   0.867   1.819  0.4201  0.5740  0.6924
  334ACOH    H211211   5.833   0.799   1.879 -0.2458  0.1634 -3.5093
  334ACOH    H311212   5.973   0.691   1.847  0.6851  0.7156  0.0368
  335ACOH    H411213   5.137   7.074   2.929  0.4062  2.4867 -0.5544
  335ACOH    O211214   5.202   7.051   2.860  0.3509 -0.2380  0.2147
  335ACOH    C211215   5.136   7.005   2.751  0.4092  0.0013 -0.4840
  335ACOH    O111216   5.017   7.001   2.723  0.1559  0.1809  0.1404
  335ACOH    C111217   5.229   6.958   2.656  0.1286 -0.3405 -0.3251
  335ACOH    H111218   5.244   6.850   2.648 -2.7986 -0.7462 -0.7959
  335ACOH    H211219   5.325   7.005   2.678 -0.4143  1.2967 -1.3803
  335ACOH    H311220   5.198   6.994   2.558 -2.0539 -0.0679  0.4311
  336ACOH    H411221   1.743   6.711   1.624 -0.6073  0.1219  0.0081
  336ACOH    O211222   1.825   6.755   1.652 -0.4928 -0.0616 -0.0402
  336ACOH    C211223   1.811   6.886   1.669 -0.1459  0.5090  0.2298
  336ACOH    O111224   1.724   6.960   1.630  0.1546  0.0849  0.3625
  336ACOH    C111225   1.946   6.924   1.716  0.4537 -0.0336  0.2496
  336ACOH    H111226   2.025   6.884   1.652 -0.1443  2.4322 -2.1218
  336ACOH    H211227   1.957   6.887   1.818 -1.6780  0.1502  0.5723
  336ACOH    H311228   1.951   7.032   1.727 -0.8225  0.2536 -1.6962
  338ACOH    H411229   5.505   3.027   4.478 -3.1088 -2.0664 -0.5393
  338ACOH    O211230   5.439   3.098   4.487 -0.2392  0.7434 -0.5403
  338ACOH    C211231   5.322   3.040   4.480  0.3636 -0.1374  0.7609
  338ACOH    O111232   5.308   2.923   4.494  0.3158  0.2512 -0.0660
  338ACOH    C111233   5.201   3.131   4.486  0.3891  0.4531 -0.3199
  338ACOH    H111234   5.159   3.127   4.586 -1.8315  0.0920 -1.2382
  338ACOH    H211235   5.122   3.109   4.415 -1.5733  2.6059  1.1359
  338ACOH    H311236   5.231   3.235   4.469 -1.4863  0.7963 -1.6881
  339ACOH    H411237   5.416   6.676   1.891  1.6720  0.1618  0.4486
  339ACOH    O211238   5.491   6.689   1.830  1.4006  0.0400  0.0844
  339ACOH    C211239   5.490   6.577   1.755 -0.4968 -0.4972 -0.0652
  339ACOH    O111240   5.420   6.480   1.769 -0.0878 -0.4696  0.3434
  339ACOH    C111241   5.597   6.574   1.653  0.1781 -0.2203  0.2833
  339ACOH    H111242   5.690   6.576   1.708 -0.6449 -2.2280  1.7772
  339ACOH    H211243   5.594   6.665   1.592  0.9534  0.0331  0.6167
  339ACOH    H311244   5.595   6.488   1.586 -0.1211  0.5202 -0.6884
  341ACOH    H411245  -0.124   3.161   6.770 -0.9760 -0.3566  2.0187
  341ACOH    O211246  -0.053   3.096   6.783 -0.3638 -0.1149  0.0276
  341ACOH    C211247   0.067   3.158   6.791 -0.0260 -0.8401  0.6745
  341ACOH    O111248   0.084   3.277   6.799  0.1275 -0.3261 -0.4607
  341ACOH    C111249   0.169   3.054   6.795  0.4315 -0.2571  0.2401
  341ACOH    H111250   0.203   3.031   6.694  2.8463 -2.6579  1.5357
  341ACOH    H211251   0.133   2.965   6.846 -1.4794  0.2570 -0.1956
  341ACOH    H311252   0.253   3.097   6.850 -1.1910  2.0368  0.9923
  343ACOH    H411253   6.994   3.222   5.167 -1.9690  1.4996  0.2664
  343ACOH    O211254   7.055   3.297   5.155  0.0013 -0.1369 -0.2023
  343ACOH    C211255   7.131   3.287   5.048  0.5478  0.1247  0.5663
  343ACOH    O111256   7.097   3.249   4.943  0.7535  0.3489  0.0170
  343ACOH    C111257   7.249   3.372   5.058 -0.2433 -0.0687  0.4261
  343ACOH    H111258   7.232   3.463   5.002 -1.7560 -1.0041 -0.6963
  343ACOH    H211259   7.329   3.312   5.015 -1.1236 -1.1843  0.3197
  343ACOH    H311260   7.273   3.401   5.160  0.9930  0.9629 -0.1496
  344ACOH    H411261   3.901   9.705   3.172  0.1448  0.6044 -0.0717
  344ACOH    O211262   3.805   9.699   3.158  0.1596  0.3758 -0.0727
  344ACOH    C211263   3.737   9.664   3.264 -0.2805 -0.4628 -0.1944
  344ACOH    O111264   3.777   9.658   3.377  0.0082  0.1788  0.3643
  344ACOH    C111265   3.591   9.649   3.242  0.4016  0.3127 -0.4751
  344ACOH    H111266   3.535   9.726   3.295  2.5062 -0.5759  3.1280
  344ACOH    H211267   3.560   9.546   3.258  1.4025 -0.0970 -1.1850
  344ACOH    H311268   3.570   9.657   3.135 -1.7701  1.9742  0.0379
  345ACOH    H411269   6.754   2.806   2.086  0.6125  0.5570  0.1922
  345ACOH    O211270   6.684   2.844   2.031  0.1075  0.1856  0.5646
  345ACOH    C211271   6.596   2.741   2.048 -0.1319  0.3964 -0.2531
  345ACOH    O111272   6.628   2.624   2.047  0.5246  0.0444  0.3690
  345ACOH    C111273   6.462   2.787   2.006  0.4614  0.0530  0.8106
  345ACOH    H111274   6.394   2.763   2.087  0.2526 -0.5377  0.4722
  345ACOH    H211275   6.431   2.733   1.916  1.1485  2.0246 -0.6341
  345ACOH    H311276   6.466   2.894   1.987  1.6386  0.3703  2.7683
  346ACOH    H411277   2.552   4.048   3.023 -3.2311 -1.2856 -2.1055
  346ACOH    O211278   2.590   3.958   3.030 -0.0048  0.1201  0.0540
  346ACOH    C211279   2.673   3.951   3.128  0.8043  0.4236 -0.0606
  346ACOH    O111280   2.698   4.031   3.215  0.1801 -0.0697 -0.0381
  346ACOH    C111281   2.746   3.825   3.131  0.9556  0.2965  0.1770
  346ACOH    H111282   2.675   3.748   3.099  0.9073  0.9727 -1.4275
  346ACOH    H211283   2.778   3.802   3.232  1.0643  1.0131  0.3086
  346ACOH    H311284   2.832   3.822   3.064  1.2023  0.0538  0.5056
  347ACOH    H411285   5.810   4.124   1.837  0.9416 -2.5446 -1.0254
  347ACOH    O211286   5.896   4.164   1.856 -0.0943 -0.6557 -0.1355
  347ACOH    C211287   5.893   4.301   1.846 -0.7505  0.2722 -0.2495
  347ACOH    O111288   5.787   4.363   1.843  0.0361  0.4476 -0.1227
  347ACOH    C111289   6.032   4.354   1.849  0.6604 -0.9205 -0.0541
  347ACOH    H111290   6.096   4.293   1.786  0.5618 -0.1523 -0.9107
  347ACOH    H211291   6.074   4.367   1.949  0.1648 -0.2403  0.0691
  347ACOH    H311292   6.039   4.454   1.806 -2.7214 -0.5768  0.0661
  349ACOH    H411293   9.773   0.536   1.707 -0.2176 -0.9476  1.0255
  349ACOH    O211294   9.758   0.566   1.798  0.0234  0.5018  0.5995
  349ACOH    C211295   9.642   0.634   1.794 -0.0931  0.6390 -0.6518
  349ACOH    O111296   9.592   0.681   1.690  0.0738 -0.3185  0.2313
  349ACOH    C111297   9.587   0.673   1.920 -0.1013 -0.7561 -0.4127
  349ACOH    H111298   9.654   0.750   1.959  0.4816 -1.2854 -0.3730
  349ACOH    H211299   9.588   0.592   1.993  0.6484  2.3464  3.1725
  349ACOH    H311300   9.491   0.726   1.916  0.6379  0.8854  2.2285
  350ACOH    H411301   6.626   6.535   6.240 -1.3030 -1.0465 -1.5778
  350ACOH    O211302   6.619   6.449   6.286  0.0482 -0.4005 -0.1337
  350ACOH    C211303   6.520   6.374   6.244 -0.2134 -0.5749  0.3856
  350ACOH    O111304   6.415   6.408   6.181 -0.3443  0.5566 -0.6993
  350ACOH    C111305   6.536   6.234   6.296  0.5428  0.1892 -0.6193
  350ACOH    H111306   6.520   6.230   6.404  5.3733  2.1855  0.3245
  350ACOH    H211307   6.638   6.195   6.295  0.9466  1.2436 -1.9585
  350ACOH    H311308   6.479   6.161   6.238  0.8896 -0.1721 -0.5084
  351ACOH    H411309   4.197   9.508   4.765  1.8916  0.4871  1.4859
  351ACOH    O211310   4.191   9.594   4.721 -0.3614 -0.3005  0.2029
  351ACOH    C211311   4.266   9.587   4.609  0.0570 -0.2013  0.2658
  351ACOH    O111312   4.304   9.481   4.562 -0.8061  0.6736 -0.3184
  351ACOH    C111313   4.257   9.716   4.536 -0.7602  0.0052 -0.1423
  351ACOH    H111314   4.287   9.794   4.607 -0.9529  0.1138 -0.1800
  351ACOH    H211315   4.156   9.729   4.500 -1.4951 -3.2984  0.5634
  351ACOH    H311316   4.327   9.719   4.453  0.2320  0.0282  0.6712
  352ACOH    H411317   7.532   1.311   3.163  2.1797 -3.3145  1.9031
  352ACOH    O211318   7.591   1.307   3.086 -0.0111  0.0174 -0.0779
  352ACOH    C211319   7.555   1.191   3.019 -0.1907 -0.5981 -0.5527
  352ACOH    O111320   7.438   1.165   3.004  1.0179 -0.0846 -0.3763
  352ACOH    C111321   7.658   1.155   2.917  0.0146 -0.5854  0.2914
  352ACOH    H111322   7.618   1.101   2.831  3.2909 -0.7683 -1.1763
  352ACOH    H211323   7.739   1.095   2.959 -0.0696 -1.4985 -0.8399
  352ACOH    H311324   7.702   1.246   2.877  0.4932 -1.1002 -0.3743
  354ACOH    H411325   7.275   3.345   4.165 -1.3493  0.7658 -1.8891
  354ACOH    O211326   7.261   3.423   4.222 -0.3724 -0.2368 -0.2222
  354ACOH    C211327   7.369   3.438   4.300  0.3369  0.0876 -0.1413
  354ACOH    O111328   7.479   3.389   4.276  0.0975 -0.4403  0.0231
  354ACOH    C111329   7.352   3.550   4.398  0.8465  0.3481 -0.1517
  354ACOH    H111330   7.273   3.521   4.468  0.4900 -1.4550 -1.2662
  354ACOH    H211331   7.341   3.647   4.350  0.0741  0.5541  0.4251
  354ACOH    H311332   7.440   3.554   4.462 -0.8394  2.4221  2.1364
  355ACOH    H411333   3.315   2.796   1.545 -0.0309  0.7874  1.0349
  355ACOH    O211334   3.355   2.822   1.460 -0.3392 -0.0594  0.6200
  355ACOH    C211335   3.454   2.914   1.481 -0.0769  0.5908  0.0908
  355ACOH    O111336   3.476   2.960   1.590 -0.5543  0.2285  0.5041
  355ACOH    C111337   3.510   2.944   1.345  0.0182 -0.4310 -0.4684
  355ACOH    H111338   3.506   3.047   1.311  1.5984  0.2558  1.3517
  355ACOH    H211339   3.468   2.887   1.262  1.2732  0.0466 -1.4314
  355ACOH    H311340   3.614   2.913   1.339 -0.6992 -3.0189 -0.0655
  356ACOH    H411341   3.808   5.962   5.040 -1.9519  2.4143 -0.5524
  356ACOH    O211342   3.869   6.005   4.977  0.2064  0.2989  0.0353
  356ACOH    C211343   3.822   5.982   4.856  0.3082  0.0119  0.0920
  356ACOH    O111344   3.707   5.947   4.834  0.3434  0.0133 -0.1976
  356ACOH    C111345   3.902   6.047   4.754 -0.4693  0.3838  0.3631
  356ACOH    H111346   3.903   5.995   4.659 -0.7694  0.2347  0.4423
  356ACOH    H211347   4.005   6.058   4.788 -0.2048 -0.7016 -0.0726
  356ACOH    H311348   3.860   6.146   4.733 -0.5251  0.1419 -0.6731
  358ACOH    H411349   2.534   6.163   6.477  0.9989  1.1002 -0.3866
  358ACOH    O211350   2.487   6.179   6.393 -0.3462  0.3469  0.2099
  358ACOH    C211351   2.562   6.258   6.311 -0.8246 -0.0693  0.0798
  358ACOH    O111352   2.680   6.279   6.317 -0.0455  0.5614  0.0022
  358ACOH    C111353   2.484   6.326   6.202  0.1636  0.0746 -0.6919
  358ACOH    H111354   2.445   6.243   6.144 -2.7797 -0.3670  1.8426
  358ACOH    H211355   2.549   6.392   6.144 -0.4136 -0.2345 -1.6977
  358ACOH    H311356   2.398   6.376   6.245 -0.1440  0.3720 -1.6254
  360ACOH    H411357   6.545   8.982   2.299 -0.4638 -0.8310  1.4429
  360ACOH    O211358   6.603   8.905   2.287  0.0868 -0.2227  0.0625
  360ACOH    C211359   6.534   8.807   2.353  0.8174 -0.7514  0.0830
  360ACOH    O111360   6.453   8.825   2.440  0.2797  0.0616 -0.5580
  360ACOH    C111361   6.598   8.672   2.321  0.1884  0.1512 -0.3891
  360ACOH    H111362   6.694   8.669   2.374 -0.0330  1.3930  0.0997
  360ACOH    H211363   6.613   8.676   2.214 -1.4427 -0.2452 -0.6369
  360ACOH    H311364   6.531   8.589   2.344 -1.9625  2.2939  1.3043
  362ACOH    H411365   5.974   0.976   0.859 -0.9913  0.3743 -0.3851
  362ACOH    O211366   5.989   0.975   0.763  0.8421 -0.0732 -0.1010
  362ACOH    C211367   5.900   0.883   0.717  0.0479 -0.3598 -0.2091
  362ACOH    O111368   5.820   0.826   0.784 -0.4762 -0.0601 -0.4168
  362ACOH    C111369   5.904   0.854   0.574  0.1017 -0.9929  0.3477
  362ACOH    H111370   5.817   0.795   0.545 -0.6679  1.1399 -1.8120
  362ACOH    H211371   6.002   0.811   0.554  0.9204  0.9922 -0.0167
  362ACOH    H311372   5.895   0.950   0.523  0.4793 -0.0666  1.9988
  364ACOH    H411373   5.398   2.056   2.706  4.3788 -0.4826 -0.6816
  364ACOH    O211374   5.383   2.111   2.628 -0.0994  0.3244  0.6056
  364ACOH    C211375   5.325   2.039   2.530 -0.1440 -0.4197  0.1379
  364ACOH    O111376   5.353   1.923   2.505 -0.1056  0.1208  0.4937
  364ACOH    C111377   5.238   2.126   2.449 -0.3111  0.4954 -0.2104
  364ACOH    H111378   5.137   2.088   2.434 -0.4062  0.5956  0.1718
  364ACOH    H211379   5.282   2.132   2.349 -2.8193 -2.5815 -1.5945
  364ACOH    H311380   5.227   2.227   2.490  1.3861  0.8942 -0.6977
  365ACOH    H411381   7.134   9.916   0.727  2.5999  1.8713  1.6171
  365ACOH    O211382   7.204   9.859   0.691  0.0141 -0.3050 -0.1923
  365ACOH    C211383   7.160   9.811   0.572 -0.6756  0.3350  1.0618
  365ACOH    O111384   7.076   9.863   0.502  0.1776  0.4874  0.0860
  365ACOH    C111385   7.263   9.717   0.522  0.7112  0.2786 -0.2132
  365ACOH    H111386   7.259   9.709   0.414 -2.4688 -0.6807 -0.0694
  365ACOH    H211387   7.244   9.618   0.563 -0.3573  0.0744 -1.1664
  365ACOH    H311388   7.363   9.749   0.551  0.8381 -0.9182  0.7466
  366ACOH    H411389   7.859   3.877   4.542  0.3656  3.1849  0.2740
  366ACOH    O211390   7.783   3.871   4.601  0.0986 -0.2130 -0.3524
  366ACOH    C211391   7.746   3.998   4.616 -0.0349  0.0072 -0.4020
  366ACOH    O111392   7.790   4.094   4.551  0.4216 -0.7300 -0.7170
  366ACOH    C111393   7.641   4.012   4.715  0.5301  0.7201 -0.3397
  366ACOH    H111394   7.594   3.919   4.747  2.0396  0.6202  1.6220
  366ACOH    H211395   7.568   4.082   4.673 -0.5176  2.6283  4.3351
  366ACOH    H311396   7.686   4.066   4.798  1.9428 -0.0607 -0.5880
  367ACOH    H411397   2.916   5.380   5.502 -1.5206  0.9125 -0.1640
  367ACOH    O211398   2.913   5.297   5.553 -0.1466  0.5422 -0.6475
  367ACOH    C211399   3.034   5.289   5.620  0.0411  0.2825 -0.2147
  367ACOH    O111400   3.119   5.370   5.642 -0.3524  0.2218  0.0051
  367ACOH    C111401   3.045   5.155   5.677 -0.0033 -0.1223  0.1942
  367ACOH    H111402   3.143   5.130   5.717  0.7819  1.8516 -0.4508
  367ACOH    H211403   3.012   5.078   5.608 -2.1724  0.9864 -0.0629
  367ACOH    H311404   2.969   5.151   5.756  1.2931  1.8141  1.6048
  368ACOH    H411405   5.137   3.362   1.616 -2.5145 -1.7014 -0.9098
  368ACOH    O211406   5.152   3.314   1.699 -0.7067 -0.6992 -0.6203
  368ACOH    C211407   5.168   3.402   1.799 -0.1170  0.4135 -0.6321
  368ACOH    O111408   5.146   3.521   1.791 -0.3620  0.3772  0.1936
  368ACOH    C111409   5.186   3.339   1.933  0.5421 -0.0397  0.1977
  368ACOH    H111410   5.086   3.326   1.974 -0.0070  2.8140 -0.1283
  368ACOH    H211411   5.232   3.414   1.997 -0.3343  0.8817 -0.2371
  368ACOH    H311412   5.242   3.247   1.923 -0.4644 -0.4420 -1.9569
  369ACOH    H411413   7.360   4.904   3.377  0.4294  1.0616  0.2125
  369ACOH    O211414   7.281   4.923   3.430  0.0315 -0.9851  0.4050
  369ACOH    C211415   7.170   4.911   3.346 -0.0014  0.0297  0.1479
  369ACOH    O111416   7.153   4.877   3.229  0.4792  0.1208 -0.2105
  369ACOH    C111417   7.054   4.971   3.417  0.1825 -0.8413  0.0322
  369ACOH    H111418   6.968   4.984   3.351 -0.0945  0.5293  0.6483
  369ACOH    H211419   7.083   5.071   3.451  1.0788 -0.8337 -0.7690
  369ACOH    H311420   7.021   4.910   3.502  0.6908 -0.2592  0.6560
  370ACOH    H411421   6.813   6.181   5.698  2.2825 -3.6660 -0.6149
  370ACOH    O211422   6.730   6.131   5.706 -0.3400  0.5088  0.0382
  370ACOH    C211423   6.749   6.020   5.629 -0.3268 -0.3002 -0.0604
  370ACOH    O111424   6.849   5.995   5.561  0.2395  0.3245 -0.7099
  370ACOH    C111425   6.621   5.955   5.609  0.2375 -0.2780  0.0419
  370ACOH    H111426   6.632   5.846   5.605 -0.0232 -0.2370 -2.8325
  370ACOH    H211427   6.566   5.995   5.524  1.6620  0.3574 -0.5858
  370ACOH    H311428   6.563   5.968   5.700  0.0125  1.7311 -0.3651
  372ACOH    H411429   6.692   7.412   3.256  1.1928 -2.2840  0.4982
  372ACOH    O211430   6.743   7.438   3.178  0.1164 -0.3501  0.4048
  372ACOH    C211431   6.783   7.319   3.131  1.0145  0.4540  0.5934
  372ACOH    O111432   6.736   7.208   3.163 -0.6952 -0.6252  0.0275
  372ACOH    C111433   6.850   7.311   2.996 -0.2061  0.3118 -0.0499
  372ACOH    H111434   6.867   7.410   2.953  2.7979 -1.1982 -2.6099
  372ACOH    H211435   6.788   7.251   2.929 -1.1140 -0.9796  1.9306
  372ACOH    H311436   6.948   7.264   3.002  0.0248  0.6322 -1.1997
  373ACOH    H411437   4.679   7.200   5.886 -0.2718 -0.1044 -0.9606
  373ACOH    O211438   4.629   7.120   5.863 -0.5843 -0.1692 -0.0741
  373ACOH    C211439   4.548   7.150   5.760  0.2144 -0.5823 -0.3388
  373ACOH    O111440   4.570   7.224   5.670  0.8695 -0.1370 -0.1544
  373ACOH    C111441   4.433   7.051   5.765 -0.2157  0.2408  0.0188
  373ACOH    H111442   4.454   6.960   5.707  0.1159 -1.3661  2.5959
  373ACOH    H211443   4.344   7.102   5.730 -1.8597 -2.0181  0.7734
  373ACOH    H311444   4.418   7.028   5.870  0.3272  1.8466  0.4621
  374ACOH    H411445   4.628   3.203   2.181  0.3813 -1.6546 -0.0033
  374ACOH    O211446   4.718   3.217   2.147  0.2654 -0.2432  0.2140
  374ACOH    C211447   4.782   3.311   2.220  0.1792 -0.0499 -0.6234
  374ACOH    O111448   4.730   3.387   2.304 -1.2149 -0.1445 -0.3004
  374ACOH    C111449   4.921   3.308   2.178 -0.6772 -0.3078 -0.1517
  374ACOH    H111450   4.980   3.362   2.252  0.4036 -0.8510 -0.6087
  374ACOH    H211451   4.919   3.357   2.080  0.2735  0.3537  0.1497
  374ACOH    H311452   4.954   3.204   2.175 -1.2938 -0.4607 -2.4131
  375ACOH    H411453   4.870   5.538   3.305  0.0785  0.8519 -0.3572
  375ACOH    O211454   4.965   5.518   3.298 -0.0045  0.5124 -0.5486
  375ACOH    C211455   4.970   5.390   3.248  0.8743 -0.0080 -0.8290
  375ACOH    O111456   4.888   5.340   3.171  0.1038 -0.0820 -0.7409
  375ACOH    C111457   5.107   5.343   3.266 -0.3594  0.3471  0.1184
  375ACOH    H111458   5.132   5.254   3.208  0.0201 -0.8210  2.0199
  375ACOH    H211459   5.122   5.330   3.373 -4.2281  1.2704  0.8209
  375ACOH    H311460   5.179   5.414   3.225 -1.1321  1.1511  0.1665
  377ACOH    H411461   6.252   7.082   4.978 -2.2274 -0.7703  0.0570
  377ACOH    O211462   6.263   7.016   4.908 -0.3213 -0.4039 -0.0050
  377ACOH    C211463   6.309   6.906   4.965 -0.7398  0.0010  0.4947
  377ACOH    O111464   6.335   6.885   5.082  0.4144 -0.6158  0.7243
  377ACOH    C111465   6.332   6.802   4.866  0.0840 -0.0446 -0.2239
  377ACOH    H111466   6.249   6.800   4.796  0.2593  2.4276 -0.5304
  377ACOH    H211467   6.327   6.700   4.904 -1.6431  0.4069  0.8180
  377ACOH    H311468   6.423   6.818   4.807 -0.8895 -0.8390 -1.9879
  378ACOH    H411469   4.670   8.421   6.679  2.4721  1.6795  0.2744
  378ACOH    O211470   4.645   8.480   6.606 -0.3091  0.2265 -0.0298
  378ACOH    C211471   4.656   8.412   6.496  0.7368 -0.2107 -0.4947
  378ACOH    O111472   4.693   8.299   6.495 -0.5622  0.6387 -0.1631
  378ACOH    C111473   4.660   8.501   6.381  0.1881  0.6402  0.1007
  378ACOH    H111474   4.656   8.447   6.286 -0.4555  1.4286 -0.3229
  378ACOH    H211475   4.758   8.549   6.394  0.8580 -1.2490  2.2888
  378ACOH    H311476   4.575   8.569   6.384 -1.0275 -0.8594 -0.2217
  379ACOH    H411477   7.574   4.435   4.156  1.1461  1.0849 -0.9082
  379ACOH    O211478   7.507   4.501   4.131  0.1619 -0.0542 -1.3194
  379ACOH    C211479   7.545   4.560   4.015  0.0182  0.4312  0.1362
  379ACOH    O111480   7.659   4.556   3.974  0.5251  0.2558  0.2406
  379ACOH    C111481   7.452   4.671   3.974 -0.3006  0.0862 -0.3094
  379ACOH    H111482   7.359   4.650   4.025 -0.4607 -2.6651 -1.6455
  379ACOH    H211483   7.421   4.670   3.869 -1.0091 -1.6990 -0.0956
  379ACOH    H311484   7.485   4.772   4.001 -0.9009 -0.1633  1.3613
  382ACOH    H411485   4.794   4.631   3.967 -3.4450  1.1110 -0.4235
  382ACOH    O211486   4.820   4.722   3.990  0.0885  0.0445  0.1129
  382ACOH    C211487   4.953   4.739   3.985 -0.0945 -0.5880 -0.4461
  382ACOH    O111488   5.013   4.845   4.004 -0.2738  0.4485  0.0498
  382ACOH    C111489   5.030   4.624   3.923 -0.1840  0.7816  0.2856
  382ACOH    H111490   5.035   4.534   3.984 -2.8758 -1.7974 -3.0680
  382ACOH    H211491   5.129   4.661   3.896  0.4518 -0.6711  0.5767
  382ACOH    H311492   4.984   4.589   3.830 -1.0511 -1.4028  1.5094
  383ACOH    H411493   7.603   5.678   2.335  0.9171 -0.5307  0.6488
  383ACOH    O211494   7.570   5.648   2.249  0.7208  0.0260  0.5331
  383ACOH    C211495   7.544   5.518   2.263 -0.1712  0.3830 -0.5528
  383ACOH    O111496   7.523   5.448   2.364  0.1800  0.0769  0.1295
  383ACOH    C111497   7.535   5.450   2.134  0.9325  0.1395 -0.0608
  383ACOH    H111498   7.466   5.500   2.066  1.2274  0.1735 -0.3380
  383ACOH    H211499   7.498   5.349   2.148  0.9132 -0.2871 -2.9157
  383ACOH    H311500   7.632   5.448   2.085 -0.2915  0.5144 -2.5964
  384ACOH    H411501   6.210   5.868   1.524  1.7469  0.3465 -1.8730
  384ACOH    O211502   6.265   5.935   1.568 -0.2026  0.7152  0.0869
  384ACOH    C211503   6.388   5.906   1.545  0.0474  0.6670  0.2566
  384ACOH    O111504   6.422   5.792   1.515  0.2804  0.0376  1.0532
  384ACOH    C111505   6.484   6.011   1.576  0.3927  0.1056  0.5411
  384ACOH    H111506   6.436   6.077   1.649 -1.7018 -2.4661  1.5824
  384ACOH    H211507   6.516   6.055   1.482 -0.9687 -1.1705 -0.5432
  384ACOH    H311508   6.571   5.968   1.625 -0.0582  0.0119  1.2639
  385ACOH    H411509   6.617   3.025   5.352  0.4794 -0.5462 -0.1021
  385ACOH    O211510   6.674   3.102   5.369  0.4496 -0.3453 -0.8903
  385ACOH    C211511   6.705   3.100   5.498  0.5180 -0.4195  0.2235
  385ACOH    O111512   6.680   3.013   5.580  0.0034  0.6674 -0.0840
  385ACOH    C111513   6.786   3.212   5.547 -0.2607 -0.0299 -0.3627
  385ACOH    H111514   6.881   3.165   5.576 -1.1219 -1.6471 -0.1053
  385ACOH    H211515   6.744   3.263   5.634 -0.3112  0.5288 -0.7148
  385ACOH    H311516   6.813   3.278   5.465  2.6162  1.2810  1.5177
  387ACOH    H411517   5.378   4.205   0.788 -2.0067 -0.4128 -0.3619
  387ACOH    O211518   5.377   4.113   0.758 -0.1101 -0.7242  0.4277
  387ACOH    C211519   5.255   4.068   0.733 -0.2965 -0.2592  0.5154
  387ACOH    O111520   5.168   4.150   0.705  0.3784 -0.1816 -0.3590
  387ACOH    C111521   5.251   3.933   0.676  0.1921  0.2026 -0.1461
  387ACOH    H111522   5.340   3.884   0.715  0.4944  0.9986  0.1693
  387ACOH    H211523   5.256   3.952   0.569  1.5605  0.9618  0.0461
  387ACOH    H311524   5.154   3.886   0.693 -0.4032  2.6040  3.7587
  388ACOH    H411525   7.426   8.483   1.917 -0.1307 -2.5252 -0.9512
  388ACOH    O211526   7.414   8.526   1.831 -0.1945  0.2994  0.3847
  388ACOH    C211527   7.525   8.610   1.819  0.4841  0.3325  0.1029
  388ACOH    O111528   7.591   8.652   1.908  0.0204 -0.3480  0.2314
  388ACOH    C111529   7.524   8.668   1.682 -0.5072  0.1797  0.1468
  388ACOH    H111530   7.543   8.580   1.622  0.6570  0.2512  0.4034
  388ACOH    H211531   7.600   8.746   1.685  0.5211 -0.8349  1.0801
  388ACOH    H311532   7.421   8.698   1.664  0.0774  1.3869 -1.3632
  389ACOH    H411533  -0.006   3.382   5.573  0.1528 -1.8870  1.5510
  389ACOH    O211534   0.048   3.444   5.624 -0.8816  0.1035  0.3123
  389ACOH    C211535   0.142   3.374   5.690  0.4239  0.0917 -0.6846
  389ACOH    O111536   0.252   3.413   5.724 -0.5409  0.5490  0.3721
  389ACOH    C111537   0.105   3.232   5.712 -0.1868  0.0133 -0.0898
  389ACOH    H111538   0.183   3.178   5.658  0.0117 -1.3244  1.5027
  389ACOH    H211539   0.004   3.201   5.687  0.0041  0.8199 -1.9781
  389ACOH    H311540   0.112   3.209   5.818  0.5038 -1.6533 -0.4884
  390ACOH    H411541   5.912   2.062   5.424  2.1834  1.4554  2.3996
  390ACOH    O211542   5.857   2.024   5.496  0.0649 -0.2511 -0.0336
  390ACOH    C211543   5.806   2.130   5.560  0.5653 -0.1901  0.4771
  390ACOH    O111544   5.813   2.246   5.532 -0.3449 -0.3533 -0.8818
  390ACOH    C111545   5.738   2.089   5.689  0.2508 -0.1308  0.6570
  390ACOH    H111546   5.629   2.085   5.678  0.0264  3.0027  1.2132
  390ACOH    H211547   5.756   2.165   5.765 -0.5299  0.2917  0.4353
  390ACOH    H311548   5.779   1.994   5.721  0.6794  0.1091  0.8163
  392ACOH    H411549   5.023   8.673   8.048  0.6234 -2.0013 -1.4483
  392ACOH    O211550   5.108   8.717   8.064 -0.7222  0.3703 -0.4994
  392ACOH    C211551   5.102   8.779   8.179  0.3180  0.4995 -0.1957
  392ACOH    O111552   5.005   8.777   8.252  0.0282  0.0340  0.0258
  392ACOH    C111553   5.233   8.829   8.228  0.3063 -0.5254 -0.0435
  392ACOH    H111554   5.320   8.765   8.227  1.0501  0.4734 -0.2305
  392ACOH    H211555   5.230   8.870   8.329  0.3965 -3.2442  1.0824
  392ACOH    H311556   5.259   8.913   8.164  0.4229  0.3285  1.1043
  393ACOH    H411557   4.637   5.344   4.210  0.2617 -0.6622 -0.1958
  393ACOH    O211558   4.722   5.375   4.244 -0.0643 -0.2798  0.2683
  393ACOH    C211559   4.789   5.274   4.300 -0.4644 -0.4785  0.3612
  393ACOH    O111560   4.767   5.157   4.277  0.4054  0.0813  0.1493
  393ACOH    C111561   4.911   5.323   4.359  0.1496 -0.4165  0.2586
  393ACOH    H111562   4.885   5.421   4.399 -1.5252 -1.6279  2.2148
  393ACOH    H211563   4.996   5.345   4.294  0.9740  1.3953  1.8663
  393ACOH    H311564   4.945   5.255   4.438  0.8013 -2.2666 -1.5823
  394ACOH    H411565   8.069   9.568   1.119  3.8944  0.3539 -1.6304
  394ACOH    O211566   8.046   9.480   1.085 -0.1819  0.5478  0.3808
  394ACOH    C211567   7.993   9.411   1.187  0.3136 -0.7114  0.2557
  394ACOH    O111568   8.006   9.428   1.308  0.5986  0.3184 -0.0562
  394ACOH    C111569   7.942   9.287   1.135  0.6414  0.4799  0.1257
  394ACOH    H111570   7.896   9.228   1.214 -1.1597 -1.0885 -2.0540
  394ACOH    H211571   8.031   9.234   1.099 -0.2624 -1.5071  0.7300
  394ACOH    H311572   7.871   9.297   1.053  1.5883  1.1828 -0.6238
  395ACOH    H411573   8.381   1.839   6.189  2.3177 -1.8310  1.6086
  395ACOH    O211574   8.345   1.843   6.279 -0.1185 -0.0951  0.6166
  395ACOH    C211575   8.448   1.858   6.365 -1.0980 -0.4014 -0.0130
  395ACOH    O111576   8.570   1.864   6.337  0.0613 -0.4883 -0.2895
  395ACOH    C111577   8.403   1.884   6.504 -0.5582 -0.2000 -0.4880
  395ACOH    H111578   8.298   1.911   6.513  0.1349  1.9747  1.6819
  395ACOH    H211579   8.468   1.966   6.535  0.0398 -0.2866 -1.4894
  395ACOH    H311580   8.411   1.793   6.563 -0.1759 -1.2508 -2.1401
  396ACOH    H411581   4.826   2.407   6.517  0.4384  0.8865  1.3590
  396ACOH    O211582   4.884   2.478   6.487  0.1675  0.4145 -0.4007
  396ACOH    C211583   4.953   2.432   6.383 -0.4927 -0.2810  0.2149
  396ACOH    O111584   4.944   2.324   6.331  0.3792 -0.0775  0.3066
  396ACOH    C111585   5.032   2.544   6.336 -0.0278 -0.3276  0.0660
  396ACOH    H111586   4.958   2.603   6.282  0.1088 -0.0334  0.2031
  396ACOH    H211587   5.109   2.503   6.272  0.4058  2.5440 -1.3193
  396ACOH    H311588   5.084   2.596   6.416  0.4711  0.4815 -0.7768
  397ACOH    H411589   2.690   1.028   1.790  2.2850  0.9140  6.1428
  397ACOH    O211590   2.641   0.945   1.805  1.0194  0.1580 -0.6038
  397ACOH    C211591   2.617   0.891   1.679  0.0037 -0.5185 -0.2179
  397ACOH    O111592   2.674   0.921   1.576  0.6494  0.4673  0.1427
  397ACOH    C111593   2.566   0.756   1.706 -0.5728 -0.8418  0.0831
  397ACOH    H111594   2.531   0.754   1.809  2.5782 -0.3304  1.2152
  397ACOH    H211595   2.634   0.671   1.697  0.2680 -0.0957 -0.7076
  397ACOH    H311596   2.482   0.745   1.637  0.1604  0.7526 -1.0957
  398ACOH    H411597   1.603  -0.103   5.533  0.0820 -1.4482 -1.4728
  398ACOH    O211598   1.700  -0.100   5.532  0.0614  1.2636  0.2052
  398ACOH    C211599   1.724   0.026   5.491 -0.3389 -0.3765  0.1224
  398ACOH    O111600   1.660   0.125   5.519  0.4203  0.1389  0.1011
  398ACOH    C111601   1.867   0.036   5.462  0.0027 -0.3773 -0.6169
  398ACOH    H111602   1.894   0.142   5.460 -0.6524 -0.1728  0.5494
  398ACOH    H211603   1.892  -0.014   5.369  3.9656 -0.6523  0.4915
  398ACOH    H311604   1.932  -0.011   5.536  0.9250 -2.2193 -2.5730
  399ACOH    H411605   4.720   6.644   3.227  0.7064 -2.9753  2.6240
  399ACOH    O211606   4.809   6.678   3.245  0.1097  0.3377 -0.2447
  399ACOH    C211607   4.808   6.775   3.148  0.4268 -0.0890  0.1540
  399ACOH    O111608   4.757   6.778   3.035  0.5083  0.1387  0.0873
  399ACOH    C111609   4.922   6.872   3.160 -0.7845  0.5638 -0.2464
  399ACOH    H111610   4.944   6.924   3.066  0.4888  0.1972 -0.1651
  399ACOH    H211611   5.009   6.812   3.189 -1.1549  0.3058  0.3349
  399ACOH    H311612   4.908   6.948   3.237  2.1768  0.0962  0.8330
  401ACOH    H411613   4.302   0.462   3.562  0.4793  0.0495  0.5316
  401ACOH    O211614   4.306   0.383   3.505 -0.1246  0.3288  0.1031
  401ACOH    C211615   4.199   0.407   3.420 -0.6072  0.9343  0.1956
  401ACOH    O111616   4.115   0.494   3.420  0.3139  0.1312 -0.1506
  401ACOH    C111617   4.179   0.283   3.343 -0.4108  0.3526 -0.1262
  401ACOH    H111618   4.081   0.278   3.295 -0.3937 -1.0637 -0.0245
  401ACOH    H211619   4.201   0.188   3.392 -2.1729 -0.9136 -1.6928
  401ACOH    H311620   4.244   0.290   3.256  0.2905 -1.2098  0.2521
  402ACOH    H411621   7.541   3.910   3.871  0.1450  0.2039  1.2596
  402ACOH    O211622   7.466   3.879   3.925 -0.2645 -0.3006  0.4269
  402ACOH    C211623   7.436   3.750   3.906  0.5182  0.2996  0.1505
  402ACOH    O111624   7.480   3.687   3.811  0.0102  0.1812 -0.4143
  402ACOH    C111625   7.346   3.713   4.015  0.5441  0.3002 -0.1644
  402ACOH    H111626   7.339   3.604   4.021  0.4022  0.2964 -0.4047
  402ACOH    H211627   7.247   3.754   3.997  0.4724  1.3588  2.3828
  402ACOH    H311628   7.383   3.748   4.111 -0.6478  0.6034  0.1994
  403ACOH    H411629   6.955   0.919   6.562  2.6113  3.8083  1.0503
  403ACOH    O211630   7.031   0.859   6.558 -0.4294 -0.1593 -0.6710
  403ACOH    C211631   7.135   0.924   6.495  0.2032  0.1269  0.2032
  403ACOH    O111632   7.114   0.996   6.398  0.3534  0.4841  0.3165
  403ACOH    C111633   7.268   0.862   6.517  0.6376 -0.5537  0.0378
  403ACOH    H111634   7.295   0.889   6.619  1.2647 -1.6564  0.1616
  403ACOH    H211635   7.339   0.895   6.441  0.4846 -1.0037 -0.2986
  403ACOH    H311636   7.261   0.754   6.507 -4.5299 -0.2333 -1.6443
  404ACOH    H411637   6.359   0.621   0.924 -0.3449 -1.0768 -0.3457
  404ACOH    O211638   6.271   0.641   0.888  0.1064 -0.0011 -0.8584
  404ACOH    C211639   6.212   0.531   0.847  0.3933 -0.2993 -0.0677
  404ACOH    O111640   6.235   0.419   0.888  0.5319  0.0344 -0.3415
  404ACOH    C111641   6.088   0.566   0.780 -0.0010  0.0574  0.0570
  404ACOH    H111642   6.090   0.507   0.688  1.0069 -2.0119  1.3673
  404ACOH    H211643   6.085   0.672   0.753 -1.0247 -0.7407 -3.2956
  404ACOH    H311644   6.001   0.532   0.835 -0.4829  0.7312 -0.2708
  405ACOH    H411645   7.329   4.918   6.355 -0.4792 -0.7422 -1.4265
  405ACOH    O211646   7.261   4.891   6.419  0.2646  0.3955 -0.1110
  405ACOH    C211647   7.305   4.775   6.472 -0.3781 -0.0749  0.2751
  405ACOH    O111648   7.362   4.687   6.417 -0.3996  0.1044  0.4281
  405ACOH    C111649   7.260   4.752   6.610 -0.4978 -0.1159  1.3897
  405ACOH    H111650   7.343   4.768   6.679  0.1905  2.7269 -0.0194
  405ACOH    H211651   7.215   4.653   6.621  0.3352 -1.0388 -2.7440
  405ACOH    H311652   7.186   4.828   6.634 -1.0711  1.0192 -3.5091
  406ACOH    H411653   6.151   7.382   4.843  0.1603  0.3993 -0.4299
  406ACOH    O211654   6.139   7.301   4.790 -0.6462  0.3167 -0.1277
  406ACOH    C211655   6.046   7.333   4.697  0.3644 -0.3922  0.0759
  406ACOH    O111656   5.976   7.435   4.691 -0.5418  0.8021 -0.2833
  406ACOH    C111657   6.026   7.222   4.597 -0.3160 -0.2994  0.3634
  406ACOH    H111658   6.070   7.130   4.636  1.1447  0.9079  1.6203
  406ACOH    H211659   6.085   7.245   4.508  0.8526 -1.9035  0.7144
  406ACOH    H311660   5.919   7.211   4.577 -0.3710  0.2415  0.3580
  407ACOH    H411661   9.670   1.075   5.848 -0.2121  1.5135 -1.1984
  407ACOH    O211662   9.698   0.989   5.811 -0.9837  0.6599  0.1575
  407ACOH    C211663   9.820   0.992   5.764 -0.5639  0.0174  0.1575
  407ACOH    O111664   9.890   1.093   5.749 -0.4862  0.6661 -0.0282
  407ACOH    C111665   9.863   0.853   5.730  0.8373 -0.0427 -0.8491
  407ACOH    H111666   9.782   0.781   5.720  1.8505 -1.6126  1.6236
  407ACOH    H211667   9.924   0.824   5.816  0.0851  2.8350  0.6960
  407ACOH    H311668   9.920   0.849   5.637 -0.1717  1.5544 -1.5440
  408ACOH    H411669   5.497   3.459   1.000  0.6566  2.1045  2.2615
  408ACOH    O211670   5.512   3.380   1.055 -0.2025  0.0578 -0.3177
  408ACOH    C211671   5.627   3.404   1.120  0.6168  0.3454 -0.6723
  408ACOH    O111672   5.661   3.519   1.156 -0.1854  0.6114  0.4426
  408ACOH    C111673   5.679   3.283   1.185 -0.7294  0.4969  0.2898
  408ACOH    H111674   5.599   3.231   1.238  0.0230  0.2131  1.1735
  408ACOH    H211675   5.758   3.316   1.253  0.3342  1.2930 -1.3076
  408ACOH    H311676   5.734   3.220   1.115  0.4111  1.9674 -0.1659
  409ACOH    H411677   5.327   6.740   1.307  0.1809  0.3628  1.0018
  409ACOH    O211678   5.333   6.833   1.281 -0.0123  0.0818 -0.0682
  409ACOH    C211679   5.400   6.845   1.166  0.7698 -0.6598 -0.6185
  409ACOH    O111680   5.450   6.757   1.104 -0.4227 -0.1998  0.8583
  409ACOH    C111681   5.416   6.991   1.132  0.3600  0.0629 -1.1437
  409ACOH    H111682   5.390   7.057   1.214 -2.2935 -2.3657  0.0585
  409ACOH    H211683   5.345   7.008   1.051  0.0476  2.8201 -0.3217
  409ACOH    H311684   5.517   7.012   1.096  0.5006  1.4107  0.0092
  410ACOH    H411685   2.457   7.458   0.798  0.1547 -3.0615  0.1611
  410ACOH    O211686   2.360   7.454   0.800 -0.0515  0.5178 -0.0216
  410ACOH    C211687   2.342   7.418   0.928  0.1360  0.9304  0.4500
  410ACOH    O111688   2.425   7.400   1.016 -0.0869 -0.1204 -0.0025
  410ACOH    C111689   2.200   7.397   0.961  0.1649  0.5239 -0.1027
  410ACOH    H111690   2.149   7.494   0.954  1.2415  1.0388 -0.9450
  410ACOH    H211691   2.181   7.360   1.062 -0.1145 -0.4023 -0.4955
  410ACOH    H311692   2.157   7.325   0.891 -0.7990  1.3177 -0.3507
  411ACOH    H411693   6.171   1.765   1.068 -0.8027 -1.0266 -0.9253
  411ACOH    O211694   6.119   1.836   1.026  0.2183  0.1833 -0.1671
  411ACOH    C211695   6.065   1.771   0.922  0.0279 -1.2326  0.0122
  411ACOH    O111696   6.013   1.664   0.921  0.3749 -0.1306 -0.0216
  411ACOH    C111697   6.034   1.869   0.812 -0.0206 -0.1772 -0.2943
  411ACOH    H111698   6.053   1.818   0.718 -0.1330 -0.5007 -0.1437
  411ACOH    H211699   6.092   1.961   0.820  0.9795 -0.8336  0.1944
  411ACOH    H311700   5.927   1.887   0.805  0.3934  2.0215 -1.3701
  412ACOH    H411701   1.036   5.451   0.370 -0.9605  0.3736 -0.9047
  412ACOH    O211702   1.081   5.536   0.355  0.0852 -0.1181 -0.6308
  412ACOH    C211703   1.211   5.513   0.379 -0.7019 -0.8124 -0.2710
  412ACOH    O111704   1.272   5.407   0.393  0.4142  0.1210  0.0918
  412ACOH    C111705   1.290   5.641   0.362  0.1257 -0.1970  0.2276
  412ACOH    H111706   1.253   5.719   0.428 -0.2120  0.1186 -0.3322
  412ACOH    H211707   1.262   5.666   0.260  1.8221 -1.8243 -0.6569
  412ACOH    H311708   1.396   5.630   0.382 -0.1007 -0.3831  1.3735
  413ACOH    H411709   7.953   7.875   6.483  0.4264  0.5959  0.6301
  413ACOH    O211710   7.920   7.961   6.516 -0.1964  0.7150 -0.2790
  413ACOH    C211711   7.816   7.947   6.600  0.8386 -0.0904  0.8146
  413ACOH    O111712   7.768   7.841   6.627 -0.0502 -0.4194  0.1530
  413ACOH    C111713   7.791   8.079   6.668 -0.2890 -0.0893  0.3823
  413ACOH    H111714   7.697   8.076   6.724 -0.1822  1.4472  0.6738
  413ACOH    H211715   7.775   8.156   6.593  0.7874  0.4862  0.7242
  413ACOH    H311716   7.872   8.114   6.733  1.1182 -2.6282  0.0587
  414ACOH    H411717   0.095   0.453   4.541  0.2622  1.0141  0.6569
  414ACOH    O211718   0.048   0.525   4.495 -0.5748  0.1436  0.1395
  414ACOH    C211719   0.152   0.614   4.482  1.1852 -0.1877 -0.1240
  414ACOH    O111720   0.269   0.601   4.510 -0.4399 -0.4486 -0.2045
  414ACOH    C111721   0.115   0.749   4.426 -0.1113 -0.5665  0.0946
  414ACOH    H111722   0.065   0.739   4.329 -0.8103 -0.5834  0.4599
  414ACOH    H211723   0.198   0.818   4.410 -0.6726 -0.3873 -2.3308
  414ACOH    H311724   0.053   0.789   4.505 -2.0799 -1.4222 -0.9877
  416ACOH    H411725   7.969   6.818   0.061  0.0852 -0.2575  1.4852
  416ACOH    O211726   7.958   6.914   0.046  0.4603 -0.5061 -0.6031
  416ACOH    C211727   7.843   6.949   0.110 -0.6944 -0.1347  0.1380
  416ACOH    O111728   7.746   6.880   0.094 -0.2130  0.4356  0.2113
  416ACOH    C111729   7.828   7.099   0.139 -0.8352 -0.2423 -0.0184
  416ACOH    H111730   7.932   7.131   0.133 -0.9937  0.0356 -1.5665
  416ACOH    H211731   7.803   7.105   0.245 -1.4877  0.8510 -0.2204
  416ACOH    H311732   7.762   7.155   0.072  1.0174 -0.1009 -1.7695
  417ACOH    H411733   5.037   3.906   3.689  1.6644 -0.4274  0.3320
  417ACOH    O211734   5.043   3.993   3.646 -0.2008 -0.1237  0.6474
  417ACOH    C211735   5.029   4.073   3.753  0.1889  0.1215 -0.3470
  417ACOH    O111736   4.994   4.038   3.861 -0.0525 -0.0114  0.3042
  417ACOH    C111737   5.046   4.216   3.717 -0.2330 -0.0767 -0.2065
  417ACOH    H111738   4.971   4.279   3.765 -0.0515 -0.4343  0.5510
  417ACOH    H211739   5.021   4.221   3.611  0.8442  0.1692 -0.4524
  417ACOH    H311740   5.146   4.256   3.734  1.0786 -3.0170 -0.7171
  418ACOH    H411741   5.214   6.409   2.605  0.0771  0.4446 -0.3768
  418ACOH    O211742   5.253   6.355   2.676 -0.2119  0.0333 -0.5285
  418ACOH    C211743   5.283   6.230   2.634  0.1645 -0.1769 -0.6179
  418ACOH    O111744   5.267   6.196   2.517 -0.1106 -0.1127  0.0752
  418ACOH    C111745   5.332   6.135   2.743  0.9782 -0.5076 -0.2289
  418ACOH    H111746   5.424   6.089   2.707  0.6230 -1.2834 -0.1536
  418ACOH    H211747   5.255   6.059   2.758  1.8310 -1.4353 -0.4975
  418ACOH    H311748   5.351   6.183   2.839  2.3008 -1.0475 -0.2175
  419ACOH    H411749   8.241   7.598   0.493 -0.7374  1.8259 -2.1864
  419ACOH    O211750   8.150   7.609   0.524 -0.2826  0.1929 -0.1812
  419ACOH    C211751   8.067   7.657   0.431  0.1756  0.3655  0.6700
  419ACOH    O111752   8.102   7.670   0.316 -0.0869 -0.1020 -0.1659
  419ACOH    C111753   7.924   7.665   0.469 -0.4829  0.1720  0.2415
  419ACOH    H111754   7.889   7.751   0.413 -0.0464 -0.6286 -1.2963
  419ACOH    H211755   7.914   7.699   0.572  0.4606  2.8023 -0.5082
  419ACOH    H311756   7.860   7.579   0.450 -1.3596  1.0191 -0.6758
  420ACOH    H411757   4.911   1.246   4.041  0.7038 -0.1606  0.7328
  420ACOH    O211758   4.853   1.218   4.113 -0.0679  0.0367  0.1961
  420ACOH    C211759   4.724   1.246   4.073 -0.6079  0.7895  0.7383
  420ACOH    O111760   4.692   1.335   3.997 -0.4388  0.0765 -0.1501
  420ACOH    C111761   4.628   1.187   4.164 -0.0642 -0.9557 -0.0193
  420ACOH    H111762   4.666   1.093   4.202 -0.9617 -0.9864  0.8395
  420ACOH    H211763   4.529   1.166   4.123  0.7670 -2.6203 -1.2199
  420ACOH    H311764   4.623   1.260   4.245 -0.5039 -0.5261 -0.4243
  422ACOH    H411765   3.290   5.540   4.179 -0.2151 -0.4329 -1.2642
  422ACOH    O211766   3.371   5.555   4.128  0.0198  0.8381 -0.5418
  422ACOH    C211767   3.460   5.465   4.166  0.3852 -0.1402 -0.1762
  422ACOH    O111768   3.451   5.401   4.269  0.1252 -0.3125  0.2676
  422ACOH    C111769   3.577   5.450   4.073  0.0207 -0.4527  0.0475
  422ACOH    H111770   3.532   5.473   3.977 -0.3717 -0.9064  0.1253
  422ACOH    H211771   3.625   5.352   4.073  0.9832  0.0081  0.6766
  422ACOH    H311772   3.657   5.518   4.103 -1.2260  0.8030  0.5834
  423ACOH    H411773   0.184   4.910   4.878 -0.8932 -0.5197 -0.7180
  423ACOH    O211774   0.157   5.003   4.890 -0.2554 -0.4394  0.1032
  423ACOH    C211775   0.244   5.040   4.986  0.1483 -0.6072 -0.2310
  423ACOH    O111776   0.295   4.972   5.071 -0.0344  0.3125 -0.5084
  423ACOH    C111777   0.262   5.184   4.988 -0.4943  0.2190 -0.0680
  423ACOH    H111778   0.246   5.217   5.091  2.7717 -0.6240  0.7648
  423ACOH    H211779   0.191   5.236   4.923 -0.0905 -0.5483 -1.1279
  423ACOH    H311780   0.367   5.201   4.966 -0.2384  1.5983  2.0352
  425ACOH    H411781   7.726   6.384   0.554  0.2877 -0.3917 -0.2470
  425ACOH    O211782   7.708   6.448   0.483 -0.4767 -0.1739  0.1370
  425ACOH    C211783   7.786   6.401   0.384  0.5768 -0.6208  0.5524
  425ACOH    O111784   7.888   6.340   0.392  0.0456  0.0763  0.3661
  425ACOH    C111785   7.747   6.475   0.261 -0.3852  0.7087 -0.3822
  425ACOH    H111786   7.691   6.404   0.201 -0.6934  0.9589 -0.3877
  425ACOH    H211787   7.834   6.504   0.202  1.1333 -0.4800  1.1824
  425ACOH    H311788   7.685   6.563   0.277  1.7840  1.9530  1.6855
  427ACOH    H411789   6.346   6.648   5.590 -1.1487  2.2871  1.0982
  427ACOH    O211790   6.344   6.595   5.671  0.4682  0.4180 -0.0356
  427ACOH    C211791   6.432   6.642   5.762  0.3485 -0.0291 -0.2352
  427ACOH    O111792   6.496   6.744   5.748 -0.0038 -0.0337  0.0437
  427ACOH    C111793   6.453   6.543   5.874  0.9715 -0.0021  0.4939
  427ACOH    H111794   6.363   6.549   5.936  1.1995 -0.0836  0.8335
  427ACOH    H211795   6.539   6.552   5.940  0.9181 -2.0311  0.8862
  427ACOH    H311796   6.461   6.447   5.822  2.1162  0.3112  0.0698
  428ACOH    H411797   4.283   2.850   2.335 -1.4231 -1.5995 -0.8817
  428ACOH    O211798   4.323   2.770   2.371  0.6178 -0.2711 -0.0723
  428ACOH    C211799   4.434   2.740   2.306 -0.0179  0.2334 -0.3303
  428ACOH    O111800   4.492   2.818   2.230  0.0501  0.2508  0.0888
  428ACOH    C111801   4.492   2.619   2.371  0.0650  0.5084  0.0957
  428ACOH    H111802   4.434   2.535   2.333  0.7152 -0.1417  0.5311
  428ACOH    H211803   4.460   2.628   2.475 -0.8801 -0.1803 -0.1257
  428ACOH    H311804   4.598   2.607   2.348  0.1857  0.9054  0.4359
  429ACOH    H411805   3.755   5.540   5.561  1.3609 -2.4645 -1.7409
  429ACOH    O211806   3.662   5.533   5.533  0.6442 -0.0506 -0.1179
  429ACOH    C211807   3.645   5.604   5.424  0.1508  0.3407 -0.0585
  429ACOH    O111808   3.730   5.640   5.349  0.3819  0.0680  0.5341
  429ACOH    C111809   3.505   5.608   5.383  0.8405  0.0655  0.2145
  429ACOH    H111810   3.448   5.669   5.454 -1.2665 -2.1246  0.4486
  429ACOH    H211811   3.465   5.507   5.384 -2.0464  1.1640 -0.5794
  429ACOH    H311812   3.489   5.640   5.280 -0.0198 -0.7721  0.0893
  430ACOH    H411813   7.698   5.374   2.735  1.3901  0.3778  1.2320
  430ACOH    O211814   7.680   5.288   2.776  0.2075 -0.2580 -0.5873
  430ACOH    C211815   7.797   5.230   2.809  0.2993  0.3607 -0.4842
  430ACOH    O111816   7.892   5.286   2.860 -0.0555 -0.1781 -0.1241
  430ACOH    C111817   7.775   5.086   2.811 -0.0159  0.2697 -0.0591
  430ACOH    H111818   7.759   5.059   2.916 -1.4326 -1.0791 -0.6005
  430ACOH    H211819   7.860   5.031   2.770 -0.0252 -0.5807  1.0351
  430ACOH    H311820   7.684   5.065   2.756  0.9139  0.3085 -1.6343
  431ACOH    H411821   4.669   9.736   1.404 -0.4313 -1.6266  1.6433
  431ACOH    O211822   4.603   9.689   1.349 -0.0223 -0.1745 -0.1588
  431ACOH    C211823   4.653   9.665   1.228  0.2100 -0.4350 -1.3031
  431ACOH    O111824   4.770   9.689   1.197  0.1871 -0.0389 -0.3001
  431ACOH    C111825   4.542   9.620   1.140  0.0710 -0.6389 -0.5797
  431ACOH    H111826   4.531   9.691   1.058 -0.9892  0.4176  0.4576
  431ACOH    H211827   4.449   9.616   1.196  0.6205 -0.2836  0.3921
  431ACOH    H311828   4.564   9.517   1.113  1.7958 -0.7550  1.0862
  432ACOH    H411829   6.712   1.523   6.654  0.0503 -0.6120 -1.0036
  432ACOH    O211830   6.696   1.617   6.640 -0.0577 -0.5216 -0.3019
  432ACOH    C211831   6.605   1.644   6.736  0.3858  0.3750  0.2816
  432ACOH    O111832   6.530   1.562   6.790 -0.7293  0.2899  0.1917
  432ACOH    C111833   6.599   1.790   6.747 -0.8639  0.8735  0.6137
  432ACOH    H111834   6.495   1.820   6.733 -0.8701 -0.4150 -2.6606
  432ACOH    H211835   6.674   1.835   6.682  0.5029 -1.2059  0.7105
  432ACOH    H311836   6.619   1.811   6.852 -1.7588  0.6438  0.8331
  433ACOH    H411837   1.315   8.643   4.458 -4.1335  3.5374 -2.3308
  433ACOH    O211838   1.340   8.714   4.520 -0.1539  0.1637  0.2488
  433ACOH    C211839   1.472   8.725   4.539 -0.6221 -0.6869  0.3304
  433ACOH    O111840   1.549   8.652   4.481  0.7607 -0.3048 -0.2464
  433ACOH    C111841   1.507   8.843   4.619 -0.6009  0.0100 -0.5352
  433ACOH    H111842   1.439   8.921   4.584 -0.5818  0.2654 -0.0009
  433ACOH    H211843   1.610   8.878   4.619 -0.6242  0.0785  0.5414
  433ACOH    H311844   1.476   8.816   4.720 -0.2578  1.1465 -0.1228
  435ACOH    H411845   5.627   3.305   4.173 -2.2407  1.8242 -1.5423
  435ACOH    O211846   5.709   3.333   4.129 -0.6211 -0.3293 -0.0119
  435ACOH    C211847   5.809   3.253   4.166  0.9644 -0.1908  0.0756
  435ACOH    O111848   5.792   3.171   4.255  0.1683  0.0300  0.1364
  435ACOH    C111849   5.943   3.272   4.097 -0.4182  0.1609  0.3273
  435ACOH    H111850   5.984   3.177   4.062  1.4000  1.2343 -0.4800
  435ACOH    H211851   6.006   3.316   4.175  0.7591 -2.6490  1.0202
  435ACOH    H311852   5.937   3.343   4.015 -2.9051  1.2775  1.4282
  436ACOH    H411853   2.309   8.645   3.610  0.0508 -0.9762  0.2267
  436ACOH    O211854   2.370   8.643   3.534  0.2629 -0.7447  0.3920
  436ACOH    C211855   2.307   8.658   3.419  0.7043 -0.2165 -0.2219
  436ACOH    O111856   2.190   8.683   3.395 -0.2008 -0.2534 -0.0486
  436ACOH    C111857   2.405   8.626   3.315 -0.1502  0.1199 -0.0115
  436ACOH    H111858   2.354   8.594   3.223  1.2950 -1.1141 -0.3952
  436ACOH    H211859   2.468   8.545   3.353 -0.4769  0.5495  1.4690
  436ACOH    H311860   2.469   8.713   3.305 -0.6778  0.5854  0.6431
  438ACOH    H411861   7.011   6.165  -0.017  0.7884 -0.3004 -0.2029
  438ACOH    O211862   6.946   6.197   0.047  0.4266 -0.1301 -0.6503
  438ACOH    C211863   6.957   6.126   0.160 -0.1550 -0.0734  0.3073
  438ACOH    O111864   7.052   6.057   0.197 -0.1158  0.8282  0.6031
  438ACOH    C111865   6.842   6.149   0.245  0.8442 -0.1230  0.3319
  438ACOH    H111866   6.881   6.179   0.342  1.0102  1.9647 -0.3503
  438ACOH    H211867   6.779   6.061   0.257 -0.0884  0.8513  2.8105
  438ACOH    H311868   6.773   6.226   0.211  0.2767 -0.3776  0.8983
  439ACOH    H411869   6.828   4.138   2.537 -0.7606  0.1981 -0.7553
  439ACOH    O211870   6.808   4.050   2.501 -0.1535 -0.4666  0.5328
  439ACOH    C211871   6.853   3.958   2.595 -0.4992  0.4653  0.0280
  439ACOH    O111872   6.887   3.986   2.704  0.6419 -0.1650  0.4597
  439ACOH    C111873   6.820   3.818   2.564  0.1140 -0.0396  0.4598
  439ACOH    H111874   6.895   3.740   2.580  1.2128  0.6282 -1.2980
  439ACOH    H211875   6.788   3.806   2.460  1.3705 -0.8160  0.1449
  439ACOH    H311876   6.733   3.788   2.623 -0.3078 -0.1183 -0.1929
  441ACOH    H411877   8.108   6.921   0.582 -1.9353  0.5198  0.6707
  441ACOH    O211878   8.068   6.834   0.562 -0.2295 -0.2117  0.3069
  441ACOH    C211879   7.963   6.846   0.485  0.0198  0.0585  0.5941
  441ACOH    O111880   7.912   6.950   0.446 -0.1524  0.2234 -0.2016
  441ACOH    C111881   7.930   6.704   0.441 -0.1326  0.1229  1.1040
  441ACOH    H111882   7.869   6.652   0.515 -0.8307 -1.0603 -0.2798
  441ACOH    H211883   8.019   6.641   0.432  1.2502  2.1499  0.1801
  441ACOH    H311884   7.870   6.701   0.351 -0.3295  1.3730  1.1874
  442ACOH    H411885   4.628   5.229   6.720 -0.0981 -0.1038  0.0421
  442ACOH    O211886   4.680   5.160   6.676  0.1639  0.0394  0.1311
  442ACOH    C211887   4.603   5.126   6.570  0.5733 -0.8268 -0.3444
  442ACOH    O111888   4.510   5.192   6.535  0.0007  0.2638 -0.3398
  442ACOH    C111889   4.665   5.021   6.478 -0.0062  0.0475 -0.2004
  442ACOH    H111890   4.755   4.979   6.522 -1.2751 -1.7704  0.7450
  442ACOH    H211891   4.696   5.068   6.385  4.2789 -1.2308  0.4629
  442ACOH    H311892   4.597   4.938   6.463  0.5683 -0.5832  0.6359
  443ACOH    H411893   3.739   6.353   6.235 -3.0119  0.9526  0.0044
  443ACOH    O211894   3.757   6.449   6.239  0.0847  0.3999  0.4527
  443ACOH    C211895   3.832   6.478   6.132 -0.2521 -0.2774 -0.3051
  443ACOH    O111896   3.879   6.399   6.055 -0.0300  0.6703 -0.3512
  443ACOH    C111897   3.886   6.617   6.134 -0.3785 -0.5919  0.2426
  443ACOH    H111898   3.819   6.691   6.091  2.1106  1.5106 -0.1446
  443ACOH    H211899   3.979   6.632   6.080  0.0082 -0.0472  1.0390
  443ACOH    H311900   3.901   6.644   6.239  0.2120 -0.7715  0.2041
  444ACOH    H411901   4.253   6.866   1.290  0.5691  0.3418 -1.3986
  444ACOH    O211902   4.180   6.929   1.305  0.2771 -0.3052 -0.0194
  444ACOH    C211903   4.183   6.967   1.434 -0.1928 -0.4217  0.0585
  444ACOH    O111904   4.290   6.992   1.489  0.5582  0.2529 -0.3175
  444ACOH    C111905   4.063   7.048   1.454 -0.8096  0.1203  0.5807
  444ACOH    H111906   4.037   7.056   1.560 -1.7124 -1.6454  0.5065
  444ACOH    H211907   3.979   6.997   1.408  0.2089  0.3185 -1.5267
  444ACOH    H311908   4.081   7.147   1.413  1.4773 -0.2297  0.6805
  446ACOH    H411909   4.639   4.368   4.449  1.2951  2.3418 -1.8705
  446ACOH    O211910   4.672   4.409   4.532 -0.0724  0.0547 -0.1592
  446ACOH    C211911   4.634   4.537   4.520  0.0784  0.3014  0.6790
  446ACOH    O111912   4.551   4.580   4.440  0.3017  0.5318  0.2009
  446ACOH    C111913   4.726   4.631   4.587 -0.8695  0.0921  0.3655
  446ACOH    H111914   4.815   4.584   4.629  0.3006  0.9601 -1.0965
  446ACOH    H211915   4.678   4.695   4.661 -1.3271  0.2638 -0.0802
  446ACOH    H311916   4.768   4.697   4.511 -0.3897 -0.6245 -0.0009
  448ACOH    H411917   5.293   5.222   8.196  2.0720 -1.0044  1.4786
  448ACOH    O211918   5.315   5.307   8.237  0.8821  0.3787 -0.6571
  448ACOH    C211919   5.239   5.393   8.172  0.5390 -0.7351  0.2022
  448ACOH    O111920   5.173   5.372   8.074  0.7361 -0.0695 -0.3549
  448ACOH    C111921   5.250   5.524   8.232  0.5964 -0.0924  0.0513
  448ACOH    H111922   5.267   5.601   8.157 -2.4844  2.9092  2.2384
  448ACOH    H211923   5.322   5.522   8.314  0.5778 -0.4613  0.0615
  448ACOH    H311924   5.155   5.551   8.279  0.1148  1.9145 -2.0065
  449ACOH    H411925   1.955   5.485   2.543 -0.0847  0.2944 -0.0901
  449ACOH    O211926   2.009   5.562   2.518  0.3627  0.0793  0.2123
  449ACOH    C211927   2.118   5.545   2.592 -0.6243  0.2347 -0.3350
  449ACOH    O111928   2.137   5.460   2.679 -0.6544 -0.2996 -0.1854
  449ACOH    C111929   2.206   5.655   2.560 -0.0805 -0.1164 -0.0177
  449ACOH    H111930   2.181   5.704   2.466  0.7155  0.4989  0.0846
  449ACOH    H211931   2.311   5.627   2.560  0.0062  0.2118  0.0797
  449ACOH    H311932   2.191   5.731   2.637 -0.5800 -0.2737  0.0442
  450ACOH    H411933   4.779   6.694   0.386 -0.1115  0.1290 -0.3912
  450ACOH    O211934   4.785   6.655   0.297 -0.7848 -0.9890  0.0331
  450ACOH    C211935   4.728   6.537   0.296 -0.0563 -0.5030  0.2896
  450ACOH    O111936   4.717   6.460   0.389  0.3247  0.1704 -0.4296
  450ACOH    C111937   4.702   6.490   0.156  0.4751  0.4947 -0.0588
  450ACOH    H111938   4.725   6.573   0.089 -0.8052  1.8545  1.1654
  450ACOH    H211939   4.599   6.460   0.138  1.0415 -0.9655 -0.9010
  450ACOH    H311940   4.769   6.408   0.133  0.5658  0.7973 -0.8882
  451ACOH    H411941   5.596   8.175   2.214 -0.6630  0.0632 -0.4133
  451ACOH    O211942   5.606   8.197   2.120 -0.0739 -0.1264 -0.3935
  451ACOH    C211943   5.492   8.206   2.053 -0.2247 -0.0807 -0.5441
  451ACOH    O111944   5.380   8.184   2.096 -0.2403 -0.4754  0.1369
  451ACOH    C111945   5.512   8.235   1.908 -0.2278  0.6463  0.2027
  451ACOH    H111946   5.616   8.216   1.881 -0.8029 -0.1458 -1.5009
  451ACOH    H211947   5.487   8.341   1.902 -1.0372  0.4449 -0.0246
  451ACOH    H311948   5.437   8.180   1.852  0.6353 -2.3577  1.8841
  452ACOH    H411949   6.723   0.159   0.658 -1.2119  2.2618 -2.0000
  452ACOH    O211950   6.650   0.158   0.721  0.9327 -0.3411  0.5989
  452ACOH    C211951   6.695   0.145   0.848 -0.0086  0.1099 -0.0096
  452ACOH    O111952   6.813   0.127   0.876 -0.2056  0.2586  0.3053
  452ACOH    C111953   6.589   0.148   0.940  0.8292 -0.9043  0.5722
  452ACOH    H111954   6.529   0.235   0.914 -0.6559 -2.3225 -0.8203
  452ACOH    H211955   6.614   0.161   1.045 -1.4210 -0.7843  1.1057
  452ACOH    H311956   6.525   0.060   0.934  0.1467 -0.4290  0.7790
  453ACOH    H411957   6.089   7.285   4.249 -0.0323 -0.6474 -1.7086
  453ACOH    O211958   6.016   7.224   4.269  0.2606 -0.3865  0.2379
  453ACOH    C211959   5.916   7.263   4.188 -0.3179  0.5186 -0.2754
  453ACOH    O111960   5.918   7.341   4.098 -0.0010  0.0258  0.4078
  453ACOH    C111961   5.805   7.162   4.200 -0.0322 -0.3099 -0.0521
  453ACOH    H111962   5.791   7.096   4.114  0.4192  1.2387 -1.3430
  453ACOH    H211963   5.714   7.219   4.220  0.6959  0.1240  2.1433
  453ACOH    H311964   5.820   7.104   4.291 -0.9377 -1.0153 -0.3363
  454ACOH    H411965   7.599   4.689   5.343  0.4589  0.1363  1.8155
  454ACOH    O211966   7.514   4.712   5.385 -0.3404 -0.3562  0.4869
  454ACOH    C211967   7.428   4.631   5.324  0.1543 -0.3752  0.5272
  454ACOH    O111968   7.444   4.540   5.247 -0.1902  0.3475  0.4496
  454ACOH    C111969   7.296   4.642   5.393 -0.2905 -0.6520  0.4437
  454ACOH    H111970   7.218   4.588   5.340 -0.2749  0.5186 -0.7894
  454ACOH    H211971   7.275   4.748   5.403  0.5862 -0.2697 -1.5689
  454ACOH    H311972   7.292   4.604   5.495  0.6290 -1.6780  0.1185
  455ACOH    H411973   8.044   5.164   4.984 -2.9699  2.0533 -1.2435
  455ACOH    O211974   8.074   5.150   4.893  0.0197 -0.3495 -0.0083
  455ACOH    C211975   8.018   5.032   4.842  0.1270  0.8813  0.0773
  455ACOH    O111976   7.945   4.972   4.918 -0.0340 -0.1353  0.6117
  455ACOH    C111977   8.069   4.996   4.709 -0.1237 -0.2684 -0.2340
  455ACOH    H111978   7.998   4.925   4.668 -0.8001  0.4443 -0.3184
  455ACOH    H211979   8.156   4.931   4.714 -0.3240 -0.7584 -2.5372
  455ACOH    H311980   8.099   5.080   4.645  0.6946  0.7096  1.3912
  456ACOH    H411981   7.182   3.340   3.590 -1.7526  3.0036 -1.0386
  456ACOH    O211982   7.118   3.321   3.661  0.3917  0.2367  0.2536
  456ACOH    C211983   7.161   3.391   3.763 -0.2159  0.1952 -0.4488
  456ACOH    O111984   7.236   3.490   3.762 -0.3625  0.3052 -0.2693
  456ACOH    C111985   7.099   3.351   3.891 -0.0267 -0.6540 -0.0506
  456ACOH    H111986   7.023   3.424   3.921  0.1254 -0.1239 -0.9388
  456ACOH    H211987   7.182   3.343   3.962  0.7631 -1.2378 -1.0259
  456ACOH    H311988   7.040   3.261   3.882 -1.1934 -0.1178  1.9787
  457ACOH    H411989   6.303   7.888   2.800 -0.2731 -1.2034 -5.0356
  457ACOH    O211990   6.396   7.857   2.802 -0.0460 -0.5427  0.0664
  457ACOH    C211991   6.484   7.958   2.831  0.6715  0.4692  0.4686
  457ACOH    O111992   6.448   8.074   2.834  0.7939  0.0745  0.3024
  457ACOH    C111993   6.624   7.904   2.840 -0.4192  0.1072 -0.7427
  457ACOH    H111994   6.699   7.983   2.833 -1.9177  1.5732 -0.5638
  457ACOH    H211995   6.643   7.827   2.765 -1.8949  0.4439 -1.4911
  457ACOH    H311996   6.641   7.862   2.939  0.7786 -1.0651 -1.4317
  458ACOH    H411997   4.796   3.897   2.760 -0.5718  1.2029  2.3241
  458ACOH    O211998   4.815   3.810   2.798 -0.6832  0.2336  0.2261
  458ACOH    C211999   4.792   3.708   2.716  0.6116  0.1607  0.2012
  458ACOH    O112000   4.733   3.717   2.610  0.1713 -0.0124  0.4766
  458ACOH    C112001   4.834   3.583   2.788 -0.3001  0.1114  0.0826
  458ACOH    H112002   4.901   3.524   2.727  0.1762  0.7815 -0.0463
  458ACOH    H212003   4.755   3.513   2.815  0.2752 -1.2761 -1.7514
  458ACOH    H312004   4.894   3.601   2.877  0.6191 -0.0686 -0.5047
  459ACOH    H412005   6.646   3.765   1.435  0.5533 -0.1876  0.5401
  459ACOH    O212006   6.615   3.673   1.449 -0.2903 -0.0446 -0.3297
  459ACOH    C212007   6.663   3.640   1.572 -0.5852 -0.6495 -0.0249
  459ACOH    O112008   6.746   3.704   1.637  0.1379 -0.2560 -0.6150
  459ACOH    C112009   6.635   3.500   1.609 -0.1657  0.2779 -0.5362
  459ACOH    H112010   6.579   3.455   1.528 -0.8942  0.1023  0.0620
  459ACOH    H212011   6.590   3.501   1.709 -0.0474  1.3647 -0.4884
  459ACOH    H312012   6.733   3.456   1.628 -0.9017 -0.3169  2.0660
  460ACOH    H412013   8.018   5.980   3.532 -0.9608  2.2372  0.1345
  460ACOH    O212014   7.980   5.959   3.619 -0.0170  0.3722  0.1202
  460ACOH    C212015   7.847   5.947   3.602  0.1372  0.4203 -0.0216
  460ACOH    O112016   7.780   6.019   3.533 -0.0346  0.0926 -0.5860
  460ACOH    C112017   7.789   5.897   3.731 -0.4727  0.0901  0.1401
  460ACOH    H112018   7.804   5.791   3.754 -1.2104  0.2255  1.2776
  460ACOH    H212019   7.683   5.917   3.743 -0.1382  1.1947  1.4680
  460ACOH    H312020   7.840   5.951   3.811  0.4864  0.7420 -0.8934
  461ACOH    H412021   1.638   3.189   4.744 -0.1087  0.7838 -0.4810
  461ACOH    O212022   1.579   3.140   4.685  0.2437 -0.1288 -0.0799
  461ACOH    C212023   1.471   3.214   4.687  0.2010 -0.3379 -0.3006
  461ACOH    O112024   1.426   3.297   4.762  0.1770 -0.9049 -0.0202
  461ACOH    C112025   1.376   3.158   4.586 -0.1331  0.6319 -0.1762
  461ACOH    H112026   1.288   3.111   4.630  1.2291 -0.1641  1.7694
  461ACOH    H212027   1.421   3.083   4.520 -1.2603  0.7072 -1.0389
  461ACOH    H312028   1.343   3.237   4.520 -0.2607 -0.1586 -1.0734
  462ACOH    H412029   6.456   5.962   0.973  0.0721 -0.3710 -0.4136
  462ACOH    O212030   6.523   5.905   1.014 -0.4934  0.0450  1.1173
  462ACOH    C212031   6.485   5.879   1.140  0.0151 -0.1892 -0.3380
  462ACOH    O112032   6.397   5.933   1.199 -0.3659 -0.1131  0.3485
  462ACOH    C112033   6.591   5.798   1.206  0.1296  0.5379 -0.3945
  462ACOH    H112034   6.568   5.783   1.312  1.4645 -1.1447 -0.3191
  462ACOH    H212035   6.690   5.841   1.194  0.6057 -0.4382  0.0186
  462ACOH    H312036   6.600   5.700   1.159  1.2687  0.8491 -0.8285
  464ACOH    H412037   1.663   4.591   2.531 -3.7676 -0.8390 -0.9113
  464ACOH    O212038   1.648   4.687   2.521  0.4925  0.0235 -0.0474
  464ACOH    C212039   1.761   4.747   2.484 -0.8491 -0.5183 -0.4717
  464ACOH    O112040   1.870   4.687   2.465 -0.6074  0.4172  0.1768
  464ACOH    C112041   1.745   4.891   2.468  0.2092 -0.1373  0.0937
  464ACOH    H112042   1.681   4.905   2.381  0.4380 -2.1481 -0.4313
  464ACOH    H212043   1.843   4.932   2.447  0.4105 -2.2309 -3.3812
  464ACOH    H312044   1.695   4.942   2.551  0.1761 -2.1090  1.3160
  465ACOH    H412045   4.975   5.821   3.111 -1.6624 -1.8897  1.5962
  465ACOH    O212046   5.042   5.789   3.173  0.8396  0.0497 -0.0168
  465ACOH    C212047   5.004   5.798   3.300 -0.4378 -0.3956 -0.3766
  465ACOH    O112048   4.890   5.829   3.338  0.4992 -0.1878 -0.4558
  465ACOH    C112049   5.121   5.778   3.387  0.3756 -0.4701  0.3141
  465ACOH    H112050   5.216   5.775   3.335  1.3422  0.3669  2.0101
  465ACOH    H212051   5.109   5.678   3.429 -1.5101 -0.6645 -0.6142
  465ACOH    H312052   5.122   5.851   3.468 -0.6525  1.3386 -1.2583
  466ACOH    H412053   7.788   9.192   2.001 -0.5839 -0.0900  1.4345
  466ACOH    O212054   7.753   9.105   1.974  0.2407 -0.0209  0.1148
  466ACOH    C212055   7.812   9.059   1.862  0.3942 -0.0840  0.3705
  466ACOH    O112056   7.907   9.100   1.804 -0.1727 -0.7585  0.3570
  466ACOH    C112057   7.735   8.940   1.809  0.7413 -0.5574  0.2897
  466ACOH    H112058   7.740   8.939   1.700  3.3279 -0.3378  0.3978
  466ACOH    H212059   7.631   8.932   1.843  0.0965  1.3216 -1.1175
  466ACOH    H312060   7.785   8.850   1.842  1.0261 -1.1076 -1.6243
  467ACOH    H412061   6.657   4.087   1.884 -0.1580 -0.0052 -0.1236
  467ACOH    O212062   6.572   4.112   1.924 -0.3338 -0.9048  0.0772
  467ACOH    C212063   6.546   4.031   2.027 -0.1168 -0.9194  0.3034
  467ACOH    O112064   6.625   3.960   2.084 -0.1326 -0.2650 -0.5817
  467ACOH    C112065   6.402   4.064   2.071  0.3270 -0.1707  0.0436
  467ACOH    H112066   6.385   4.169   2.049  2.7523  0.1691 -0.3426
  467ACOH    H212067   6.390   4.041   2.176  1.4380 -0.2406  0.1649
  467ACOH    H312068   6.335   4.006   2.007 -0.0070  1.5607 -1.2265
  469ACOH    H412069   4.910   4.280   2.563  0.3288 -0.2223  0.8550
  469ACOH    O212070   4.948   4.342   2.627 -0.1700 -0.3429  1.2633
  469ACOH    C212071   4.854   4.415   2.691  0.4663 -0.7755  0.2903
  469ACOH    O112072   4.738   4.413   2.661  0.0405 -0.4396 -0.5875
  469ACOH    C112073   4.913   4.518   2.781  0.0675 -0.1031  0.4169
  469ACOH    H112074   4.873   4.489   2.878 -2.0494  1.0729 -0.0702
  469ACOH    H212075   4.891   4.621   2.755  1.6750  0.1075 -0.1375
  469ACOH    H312076   5.021   4.506   2.778  0.2307  0.5948  2.7457
  470ACOH    H412077   5.310   7.362   6.067 -0.3092 -1.4903 -0.8812
  470ACOH    O212078   5.340   7.296   6.130 -0.3883 -0.5848  0.1155
  470ACOH    C212079   5.332   7.364   6.246  0.6211  0.1810  0.2215
  470ACOH    O112080   5.251   7.451   6.269  0.0120 -0.1984 -0.3750
  470ACOH    C112081   5.399   7.294   6.357  0.5149  0.3729 -0.0900
  470ACOH    H112082   5.333   7.280   6.442 -0.6105  2.0969 -0.6376
  470ACOH    H212083   5.477   7.358   6.397  1.5996  0.1504 -1.7734
  470ACOH    H312084   5.446   7.201   6.326  2.7368  1.6949 -0.8273
  471ACOH    H412085   5.658   7.176   4.531 -1.9547  0.1721  1.2212
  471ACOH    O212086   5.690   7.105   4.589  0.6056  0.1862 -0.1006
  471ACOH    C212087   5.659   7.154   4.712 -0.0216 -0.3571 -0.7016
  471ACOH    O112088   5.597   7.259   4.740 -0.0756  0.0720 -0.4309
  471ACOH    C112089   5.701   7.058   4.820 -0.5012  0.1150  0.4295
  471ACOH    H112090   5.808   7.061   4.838 -0.2338  3.1025 -1.3706
  471ACOH    H212091   5.666   6.958   4.794  0.5268  0.1081 -1.0241
  471ACOH    H312092   5.654   7.087   4.914  0.0544 -0.2909  0.8349
  472ACOH    H412093   4.996   9.420   1.358 -0.5013  0.8619  0.7133
  472ACOH    O212094   5.071   9.482   1.357  0.0579  0.1748 -0.1998
  472ACOH    C212095   5.185   9.418   1.388 -0.2390 -0.1201  0.2708
  472ACOH    O112096   5.187   9.297   1.409 -0.0041 -0.2321 -0.4270
  472ACOH    C112097   5.304   9.507   1.381  0.3006 -0.0815  0.0207
  472ACOH    H112098   5.356   9.483   1.288  1.3539 -0.3333  0.6628
  472ACOH    H212099   5.366   9.486   1.468 -1.4047  0.0379  1.2829
  472ACOH    H312100   5.260   9.607   1.383 -1.2591 -0.6319 -3.3082
  473ACOH    H412101   7.244   5.699   2.043 -1.2319 -0.6330  0.1334
  473ACOH    O212102   7.255   5.697   2.139 -0.1211  0.1033  0.0341
  473ACOH    C212103   7.154   5.639   2.204  0.5772 -0.0206  0.1009
  473ACOH    O112104   7.049   5.624   2.155  0.1039 -0.2742  0.3756
  473ACOH    C112105   7.186   5.597   2.345 -0.3503 -0.2952  0.5878
  473ACOH    H112106   7.188   5.488   2.345 -1.9267 -0.3329  0.6392
  473ACOH    H212107   7.106   5.633   2.409 -1.4143 -0.5538 -0.5632
  473ACOH    H312108   7.276   5.651   2.374  0.6654 -0.9109 -1.3091
  474ACOH    H412109   4.836   6.111   3.165 -0.5955 -1.5185  0.9851
  474ACOH    O212110   4.927   6.079   3.178  0.0667  0.1235  0.4841
  474ACOH    C212111   4.997   6.133   3.079 -0.3124  0.0738  0.2640
  474ACOH    O112112   4.964   6.222   3.004 -0.0914  0.1882 -0.0812
  474ACOH    C112113   5.125   6.063   3.058  0.3546  0.7497  0.4316
  474ACOH    H112114   5.121   5.991   2.977 -1.1214  0.8708  0.3935
  474ACOH    H212115   5.151   6.016   3.153  1.2629  2.4577  1.0662
  474ACOH    H312116   5.199   6.138   3.030 -0.5921  1.5343 -0.0050
  475ACOH    H412117   5.864   1.932   0.505  0.0302 -0.1530  4.0134
  475ACOH    O212118   5.769   1.915   0.512 -0.3020 -0.4570  0.1328
  475ACOH    C212119   5.724   2.030   0.570 -0.2577  0.3373  0.4847
  475ACOH    O112120   5.785   2.125   0.615 -0.1712  0.1685 -0.7346
  475ACOH    C112121   5.579   2.028   0.576  0.4420 -0.6370  0.4638
  475ACOH    H112122   5.538   2.054   0.479  2.3508  1.0443  0.0991
  475ACOH    H212123   5.551   2.103   0.650 -0.7630 -0.1326 -0.4832
  475ACOH    H312124   5.526   1.936   0.602  0.9807 -1.0908 -0.0284
  476ACOH    H412125   3.777   1.247   4.545 -1.7987  0.1746 -2.0589
  476ACOH    O212126   3.732   1.321   4.590  0.0984  0.1508 -0.0371
  476ACOH    C212127   3.791   1.340   4.709 -0.2922 -0.5358  0.2099
  476ACOH    O112128   3.896   1.302   4.757  0.2339  0.2863  0.4317
  476ACOH    C112129   3.691   1.426   4.783  0.1513  0.1660  0.3926
  476ACOH    H112130   3.657   1.504   4.716 -0.7150 -0.6813 -0.1661
  476ACOH    H212131   3.749   1.482   4.857 -1.9094  0.8711  1.4991
  476ACOH    H312132   3.612   1.372   4.835  0.2259 -0.5983 -0.2856
  477ACOH    H412133   4.945   3.884   6.180  0.1319  1.1513  0.7457
  477ACOH    O212134   5.040   3.902   6.169  0.3149  0.0618  0.4477
  477ACOH    C212135   5.099   3.783   6.155 -0.3116 -0.3288  0.8742
  477ACOH    O112136   5.070   3.698   6.071  0.3373 -0.2531  0.3726
  477ACOH    C112137   5.240   3.795   6.208  0.0370 -0.1615 -0.4398
  477ACOH    H112138   5.307   3.712   6.184  0.2747 -0.0621 -0.1272
  477ACOH    H212139   5.228   3.806   6.315 -1.0453 -0.3886 -0.5329
  477ACOH    H312140   5.275   3.885   6.157 -2.6245  1.3110  0.2558
  478ACOH    H412141   8.860   0.496   6.262  1.3755 -0.4932  0.1918
  478ACOH    O212142   8.910   0.570   6.224  0.1922  0.3929  0.3664
  478ACOH    C212143   9.029   0.535   6.177 -0.1097  0.3754 -0.2066
  478ACOH    O112144   9.075   0.425   6.187  0.0166 -0.4682 -0.1449
  478ACOH    C112145   9.109   0.654   6.138 -0.4615  0.8588  0.1300
  478ACOH    H112146   9.102   0.740   6.205  0.9695 -0.2325  1.7305
  478ACOH    H212147   9.080   0.683   6.037 -1.0002 -0.1456 -0.0151
  478ACOH    H312148   9.213   0.623   6.133 -0.7051 -0.0678  0.5744
  479ACOH    H412149   7.540   3.346   4.977 -0.0193 -0.2420 -0.5754
  479ACOH    O212150   7.544   3.439   4.949  0.2647 -0.0399  0.1096
  479ACOH    C212151   7.520   3.436   4.814 -0.5721 -0.1326  0.6389
  479ACOH    O112152   7.438   3.359   4.764  1.5587 -0.0463 -1.0555
  479ACOH    C112153   7.555   3.560   4.749 -0.0846 -0.4259  0.5373
  479ACOH    H112154   7.638   3.613   4.797 -0.4104 -1.0169  1.7893
  479ACOH    H212155   7.470   3.627   4.740 -0.1279 -0.3987  1.0763
  479ACOH    H312156   7.595   3.535   4.651  0.0616  0.7000  0.3083
  480ACOH    H412157   6.436   2.990   3.720 -1.2754 -0.9042  1.5639
  480ACOH    O212158   6.392   3.075   3.701  0.2981 -0.3647  0.1792
  480ACOH    C212159   6.464   3.144   3.612 -0.5344 -0.1812 -0.6665
  480ACOH    O112160   6.570   3.111   3.567 -0.0344 -0.7246 -0.0736
  480ACOH    C112161   6.397   3.265   3.567 -0.0739  0.3273  0.1078
  480ACOH    H112162   6.353   3.312   3.655  0.8381  3.0723 -0.8329
  480ACOH    H212163   6.316   3.244   3.497  0.3097 -1.3743  0.1652
  480ACOH    H312164   6.463   3.342   3.526  1.3677 -0.3332  1.1683
  481ACOH    H412165   6.736   6.903   5.121 -0.6632 -0.9690 -1.3396
  481ACOH    O212166   6.805   6.943   5.065 -0.2069 -0.1347 -0.1929
  481ACOH    C212167   6.758   6.979   4.936 -0.0594  0.5077 -0.4338
  481ACOH    O112168   6.645   6.979   4.893 -1.1551 -0.7228  0.3215
  481ACOH    C112169   6.873   7.024   4.857  0.1470  0.4512  0.2689
  481ACOH    H112170   6.856   7.068   4.758 -1.8554  0.2193  0.4906
  481ACOH    H212171   6.932   6.934   4.837  2.1442  1.2368  2.4648
  481ACOH    H312172   6.937   7.081   4.924  1.6656  0.0735 -0.8222
  482ACOH    H412173   5.819   4.178   1.303 -0.5618 -0.5849  1.0476
  482ACOH    O212174   5.908   4.142   1.318 -0.1291  0.0442  0.0451
  482ACOH    C212175   5.947   4.169   1.439  0.1193  0.1241 -0.3564
  482ACOH    O112176   5.908   4.261   1.507 -0.6368  1.0579 -0.0749
  482ACOH    C112177   6.056   4.075   1.473 -0.2735 -0.5602 -0.7155
  482ACOH    H112178   6.143   4.123   1.518 -0.0451 -0.5501 -1.1606
  482ACOH    H212179   6.101   4.016   1.393 -0.6767 -1.7762 -0.0710
  482ACOH    H312180   6.014   4.003   1.544 -0.1642 -1.4849 -1.5675
  483ACOH    H412181   5.952   2.610   3.993 -0.0267  0.5917  1.4881
  483ACOH    O212182   6.019   2.679   3.980 -0.0006  0.3160  0.1260
  483ACOH    C212183   6.016   2.746   4.095 -0.6102 -0.9860 -0.6508
  483ACOH    O112184   6.001   2.696   4.204 -0.4466  0.6761  0.0812
  483ACOH    C112185   6.071   2.876   4.070 -0.6759  0.0537 -0.3567
  483ACOH    H112186   6.026   2.912   3.977 -2.8591  0.7279  0.9228
  483ACOH    H212187   6.180   2.879   4.068 -0.5386 -2.5363  1.3301
  483ACOH    H312188   6.034   2.943   4.149  3.5067  1.4573  0.5197
  486ACOH    H412189   6.932   3.506   5.753  0.8595  1.2872 -0.3468
  486ACOH    O212190   6.906   3.513   5.660  0.1913 -0.0758 -0.2629
  486ACOH    C212191   7.011   3.470   5.589 -0.8183  0.0127 -0.0847
  486ACOH    O112192   7.102   3.411   5.643 -0.8027  0.6718 -0.6007
  486ACOH    C112193   7.018   3.502   5.447 -0.2798  0.8613  0.4070
  486ACOH    H112194   7.103   3.565   5.418 -0.5559  0.9835 -0.1386
  486ACOH    H212195   6.922   3.544   5.417  0.7123  1.6216 -1.7843
  486ACOH    H312196   7.032   3.410   5.391  0.5501  0.4035  1.3495
  487ACOH    H412197   7.079   6.710   3.581  3.7047 -2.4230  1.6935
  487ACOH    O212198   7.018   6.662   3.639 -0.3224 -0.4308 -0.6786
  487ACOH    C212199   7.111   6.621   3.723 -0.3132  0.1340  0.8278
  487ACOH    O112200   7.229   6.625   3.718 -0.2911 -0.3609  0.0990
  487ACOH    C112201   7.029   6.546   3.822  0.1453 -0.0826  0.3858
  487ACOH    H112202   6.961   6.473   3.780 -0.4307  0.7903 -0.2297
  487ACOH    H212203   6.965   6.609   3.884  0.1901 -0.7479  1.1071
  487ACOH    H312204   7.097   6.499   3.893  0.5647 -0.0035  0.0424
  488ACOH    H412205   2.087   0.772   0.979 -0.8886 -0.6936  0.1084
  488ACOH    O212206   2.124   0.724   1.056  0.0934  0.4646  0.3814
  488ACOH    C212207   2.026   0.711   1.148  0.3586  0.2704  0.0264
  488ACOH    O112208   1.909   0.713   1.126 -0.4507 -0.3809 -0.0146
  488ACOH    C112209   2.072   0.640   1.264 -0.4433 -0.1380  0.2028
  488ACOH    H112210   2.010   0.553   1.285 -1.4040  0.7575  1.1602
  488ACOH    H212211   2.066   0.712   1.346 -1.2708 -0.4066  0.3804
  488ACOH    H312212   2.177   0.619   1.246 -0.7437 -0.7534 -0.8471
  489ACOH    H412213   9.267   9.933   4.791  2.4751 -1.3551  2.4526
  489ACOH    O212214   9.251   9.849   4.745  0.2429  0.2855  0.0716
  489ACOH    C212215   9.119   9.840   4.730  0.0473 -0.3183 -0.2885
  489ACOH    O112216   9.039   9.915   4.783  0.1865 -0.1107  1.2945
  489ACOH    C112217   9.097   9.722   4.652  0.3506  0.3503  0.0645
  489ACOH    H112218   9.132   9.732   4.549 -0.7547  1.1804 -0.2419
  489ACOH    H212219   8.989   9.704   4.653  0.5660 -1.0321 -0.2057
  489ACOH    H312220   9.144   9.639   4.704 -0.2871  0.0030  0.0926
  491ACOH    H412221   2.679   9.450   5.757  0.3921 -0.9398 -0.3132
  491ACOH    O212222   2.726   9.497   5.686  0.1010  0.1042  0.1701
  491ACOH    C212223   2.714   9.437   5.568  1.0680  0.0126 -0.0564
  491ACOH    O112224   2.673   9.324   5.545 -0.5083 -0.5177 -0.4607
  491ACOH    C112225   2.747   9.532   5.460  0.3316 -0.7324  0.8846
  491ACOH    H112226   2.856   9.541   5.455  0.2346  0.0859  0.0576
  491ACOH    H212227   2.709   9.628   5.495  2.1580  0.5652 -0.6060
  491ACOH    H312228   2.707   9.503   5.363 -1.3576 -2.0289  1.9471
  493ACOH    H412229   6.005   8.852   2.322 -2.4800  0.4589  2.4196
  493ACOH    O212230   6.029   8.762   2.350 -0.0116  0.2812  0.0138
  493ACOH    C212231   6.102   8.779   2.460 -0.3739  0.0501  0.7158
  493ACOH    O112232   6.122   8.881   2.521 -0.5118  0.1694 -0.1406
  493ACOH    C112233   6.160   8.651   2.506  0.4963 -0.8942 -0.0670
  493ACOH    H112234   6.131   8.623   2.608 -2.1447 -2.7723 -1.2722
  493ACOH    H212235   6.268   8.667   2.504  0.2743  0.5681 -2.4229
  493ACOH    H312236   6.131   8.568   2.441 -0.7421 -1.3119  0.9868
  494ACOH    H412237   7.464   6.755   2.849 -1.9191 -0.9133  0.1367
  494ACOH    O212238   7.496   6.664   2.861  0.0621 -0.1850  0.5741
  494ACOH    C212239   7.447   6.619   2.981  0.6269 -0.3065  1.0713
  494ACOH    O112240   7.356   6.661   3.052 -0.0363  0.5134  0.2199
  494ACOH    C112241   7.515   6.491   3.016 -0.3686 -0.8613  0.4399
  494ACOH    H112242   7.471   6.403   2.971  0.4420 -0.3219 -1.4306
  494ACOH    H212243   7.507   6.481   3.125  0.0402  0.5674  0.6181
  494ACOH    H312244   7.616   6.495   2.976  0.2351 -1.3559  1.8664
  495ACOH    H412245   6.425   2.951   1.307  1.1858 -0.4022  0.7354
  495ACOH    O212246   6.389   2.866   1.279  0.4173  0.2300 -0.2146
  495ACOH    C212247   6.475   2.764   1.291 -0.3386 -0.3839  0.0416
  495ACOH    O112248   6.563   2.757   1.373 -0.4132  0.0291  0.5227
  495ACOH    C112249   6.456   2.664   1.186  0.4770 -0.1745  0.3255
  495ACOH    H112250   6.358   2.618   1.189  0.7502 -0.7579  0.2931
  495ACOH    H212251   6.530   2.585   1.200  1.4470  0.6959  0.1913
  495ACOH    H312252   6.459   2.701   1.084 -4.7758 -0.6309 -0.1207
  496ACOH    H412253   2.346   5.904   0.036  1.3477  0.6191  0.2114
  496ACOH    O212254   2.382   5.843   0.102 -0.4769 -0.3610  0.3220
  496ACOH    C212255   2.285   5.749   0.111 -0.6719  0.3680 -0.8742
  496ACOH    O112256   2.173   5.754   0.061  0.6111  0.1993 -0.0011
  496ACOH    C112257   2.325   5.628   0.186  0.7429 -0.1116  0.3414
  496ACOH    H112258   2.421   5.598   0.144 -0.6011 -1.4268 -1.8961
  496ACOH    H212259   2.255   5.548   0.160  0.9487 -0.0585 -0.3894
  496ACOH    H312260   2.327   5.644   0.293 -2.1576 -0.3587  0.4504
  497ACOH    H412261  -0.007   6.849   5.294 -0.0958 -0.2626 -1.2630
  497ACOH    O212262   0.006   6.923   5.232  0.1319  0.6862 -0.1085
  497ACOH    C212263   0.128   6.921   5.175  0.7417  0.5512 -0.2186
  497ACOH    O112264   0.212   6.838   5.195 -0.2520  0.3726 -0.0541
  497ACOH    C112265   0.132   7.036   5.082 -0.2456 -0.2668  0.2919
  497ACOH    H112266   0.234   7.052   5.047 -0.3151 -1.2888 -0.3848
  497ACOH    H212267   0.103   7.129   5.131 -0.2883 -0.1006 -0.0560
  497ACOH    H312268   0.068   7.022   4.995  0.3544  0.0332 -0.1992
  499ACOH    H412269   5.759   6.359   1.036 -0.2210 -0.2152  0.2808
  499ACOH    O212270   5.737   6.448   1.004  0.2958 -0.2468 -0.1668
  499ACOH    C212271   5.853   6.502   0.973  0.2046 -0.1423 -0.2152
  499ACOH    O112272   5.964   6.446   0.977  0.1638 -0.8074 -0.0774
  499ACOH    C112273   5.840   6.648   0.945  0.1747 -0.5068 -0.5130
  499ACOH    H112274   5.762   6.691   1.009  1.1260  3.2425 -1.7666
  499ACOH    H212275   5.817   6.660   0.839 -1.3714  1.3948  0.0012
  499ACOH    H312276   5.927   6.709   0.966  0.3834 -1.6189  2.0508
  500ACOH    H412277   4.246   9.095   0.186 -2.9638 -1.6927  2.2727
  500ACOH    O212278   4.252   9.014   0.131 -0.4493 -0.1173  0.1256
  500ACOH    C212279   4.209   8.921   0.216  0.4277 -0.6054  0.9527
  500ACOH    O112280   4.131   8.938   0.311 -0.7249 -0.2409 -0.8138
  500ACOH    C112281   4.243   8.786   0.174  0.7872  1.0179  0.4806
  500ACOH    H112282   4.348   8.762   0.187  1.0048  2.4280  1.4054
  500ACOH    H212283   4.217   8.772   0.069  0.3174 -0.9466  0.8297
  500ACOH    H312284   4.188   8.705   0.222  0.4823  0.8240 -0.1908
  501ACOH    H412285   0.437   3.170   4.896  0.0276  0.6469  0.9624
  501ACOH    O212286   0.478   3.090   4.932 -0.6775 -0.2284 -0.1813
  501ACOH    C212287   0.479   3.113   5.064  0.0334 -0.0893 -0.1341
  501ACOH    O112288   0.528   3.220   5.107  0.3561 -0.5862  0.2349
  501ACOH    C112289   0.498   2.985   5.137 -0.3011 -0.2153  1.6931
  501ACOH    H112290   0.448   2.984   5.234 -0.5304 -3.5184  1.5782
  501ACOH    H212291   0.601   2.965   5.165 -0.0260 -0.5275  0.4737
  501ACOH    H312292   0.451   2.904   5.082  0.8438  0.5350 -0.4577
  502ACOH    H412293   7.005   3.271   3.139 -1.1624 -1.8994  0.9380
  502ACOH    O212294   6.932   3.325   3.174 -0.1110  0.1586  0.1045
  502ACOH    C212295   6.961   3.457   3.171  0.7915  0.2248  0.0051
  502ACOH    O112296   7.051   3.520   3.117  0.0850 -0.2360  0.5181
  502ACOH    C112297   6.865   3.526   3.261 -0.1610  0.2420  0.0893
  502ACOH    H112298   6.770   3.473   3.269  0.7467 -1.3730  0.4042
  502ACOH    H212299   6.840   3.627   3.228  2.6521  0.6556 -0.9663
  502ACOH    H312300   6.907   3.528   3.362 -0.5570 -2.3504  0.3501
  503ACOH    H412301   5.370   8.680   1.826  1.4349 -0.2680 -1.0451
  503ACOH    O212302   5.342   8.590   1.801  0.2196 -0.1685 -0.1163
  503ACOH    C212303   5.206   8.583   1.778  1.0541 -0.2358 -0.6948
  503ACOH    O112304   5.127   8.674   1.772 -0.0312  0.1327  0.7759
  503ACOH    C112305   5.164   8.444   1.744 -0.5798  0.0441 -0.4898
  503ACOH    H112306   5.058   8.445   1.719 -0.7948 -1.0165  0.3522
  503ACOH    H212307   5.185   8.380   1.830  1.7057  1.2848 -0.1007
  503ACOH    H312308   5.224   8.411   1.660  0.9875  1.1157  0.1877
  504ACOH    H412309   0.117   4.803   3.443  1.5501 -1.0011 -1.7202
  504ACOH    O212310   0.098   4.896   3.426  0.2240 -0.8414  0.5286
  504ACOH    C212311   0.174   4.967   3.520 -0.6956  0.7614 -0.1789
  504ACOH    O112312   0.258   4.924   3.597 -0.1401  0.2478  0.0001
  504ACOH    C112313   0.130   5.109   3.544 -0.2333 -0.3228  0.6114
  504ACOH    H112314   0.022   5.105   3.551 -0.4259 -2.2531 -2.2973
  504ACOH    H212315   0.163   5.167   3.457 -0.6564  0.8518  1.2190
  504ACOH    H312316   0.173   5.151   3.635  0.0090  0.4965  0.1244
  505ACOH    H412317   7.236   6.287   1.352 -1.0206 -0.7606  0.5632
  505ACOH    O212318   7.165   6.323   1.296  0.1261  0.1152 -0.3593
  505ACOH    C212319   7.214   6.443   1.258  0.5293 -0.2228  0.0592
  505ACOH    O112320   7.305   6.498   1.322  0.5792 -0.5500 -0.0863
  505ACOH    C112321   7.125   6.503   1.153 -0.0108  0.3471  0.8182
  505ACOH    H112322   7.170   6.591   1.106 -0.4724 -1.4352 -3.1691
  505ACOH    H212323   7.031   6.528   1.203  0.9637  1.1586  2.2848
  505ACOH    H312324   7.096   6.427   1.080 -3.8435  1.7009  0.7894
  506ACOH    H412325   5.074   1.619   3.549 -0.0785 -0.1761  2.1856
  506ACOH    O212326   4.980   1.610   3.525  0.3903  0.1689  0.1969
  506ACOH    C212327   4.964   1.618   3.391  0.0837  0.4822  0.5467
  506ACOH    O112328   5.057   1.625   3.312 -0.1202  0.2385 -0.3284
  506ACOH    C112329   4.826   1.591   3.354 -0.0713  0.2774  0.1703
  506ACOH    H112330   4.776   1.684   3.326  1.5117  0.5286 -1.8370
  506ACOH    H212331   4.765   1.546   3.433  1.8066  1.1460  2.1546
  506ACOH    H312332   4.816   1.533   3.263 -0.6025 -0.8723  0.9493
  507ACOH    H412333   2.933   8.409   3.346 -0.1196  0.1152  0.8118
  507ACOH    O212334   2.853   8.455   3.377 -0.8034 -0.3036 -0.3367
  507ACOH    C212335   2.845   8.440   3.508 -0.7952 -0.0834  0.3190
  507ACOH    O112336   2.921   8.396   3.587  0.5015 -0.5409 -1.2089
  507ACOH    C112337   2.728   8.524   3.540 -0.5252  0.2061  0.5875
  507ACOH    H112338   2.695   8.527   3.644  1.8105  1.3280  1.3358
  507ACOH    H212339   2.642   8.473   3.498  0.1066 -1.1039  0.8427
  507ACOH    H312340   2.727   8.624   3.498 -1.3619  0.1116  0.3864
  511ACOH    H412341   4.549  10.004   0.500 -2.4339  1.1193 -0.6881
  511ACOH    O212342   4.527   9.915   0.468  0.7916 -0.2925  0.7823
  511ACOH    C212343   4.545   9.924   0.336 -0.3696  0.0846 -0.9820
  511ACOH    O112344   4.586  10.022   0.273  0.0468  0.1260 -0.3914
  511ACOH    C112345   4.507   9.799   0.266 -0.3017 -0.1429 -0.1683
  511ACOH    H112346   4.431   9.824   0.192  1.2528  2.1899 -1.0308
  511ACOH    H212347   4.458   9.735   0.340  1.1929  0.3094  1.2516
  511ACOH    H312348   4.585   9.746   0.210  1.8167  2.4655  0.2019
  512ACOH    H412349   0.078   3.305  -0.169 -0.1535  2.1051 -0.9542
  512ACOH    O212350  -0.002   3.302  -0.113  0.2610 -0.1884 -0.4259
  512ACOH    C212351   0.027   3.331   0.014  0.6807  0.1455  0.3383
  512ACOH    O112352   0.145   3.350   0.043 -0.8848  0.2715  0.1080
  512ACOH    C112353  -0.086   3.338   0.109 -0.2072  0.3037  0.3857
  512ACOH    H112354  -0.085   3.433   0.162  0.0220  0.2540  0.4678
  512ACOH    H212355  -0.067   3.254   0.175  0.3629  1.5781  1.8586
  512ACOH    H312356  -0.182   3.324   0.059 -0.3548 -1.9619  1.2435
  513ACOH    H412357   7.369   2.269   6.725  1.3869 -0.6856 -1.7042
  513ACOH    O212358   7.393   2.199   6.787 -0.1885  0.1250 -0.1171
  513ACOH    C212359   7.351   2.080   6.733  0.0626 -0.2053 -0.0574
  513ACOH    O112360   7.246   2.072   6.671  0.4499  0.0602 -0.1558
  513ACOH    C112361   7.411   1.966   6.808 -0.4919 -0.2445 -0.1766
  513ACOH    H112362   7.342   1.882   6.802  0.7608 -1.1704 -2.5162
  513ACOH    H212363   7.411   1.994   6.913 -3.0402 -0.8375  0.0055
  513ACOH    H312364   7.516   1.954   6.780  0.1410 -0.7498  2.3565
  515ACOH    H412365   1.819   6.526   4.039 -0.5016 -0.3506 -1.6996
  515ACOH    O212366   1.730   6.498   4.065 -0.1823  0.6657  0.5910
  515ACOH    C212367   1.762   6.440   4.186 -0.0344  0.3657  0.5452
  515ACOH    O112368   1.861   6.462   4.252 -0.2142 -0.6873 -0.1975
  515ACOH    C112369   1.661   6.338   4.234 -0.5944  0.3925  0.0607
  515ACOH    H112370   1.578   6.337   4.162 -0.3285  1.2843 -0.2647
  515ACOH    H212371   1.637   6.363   4.337  0.3525  0.8091  0.1845
  515ACOH    H312372   1.701   6.238   4.225 -0.9858  0.4865 -3.4783
  516ACOH    H412373   7.402   2.484   6.625 -0.3925  0.3469 -2.4773
  516ACOH    O212374   7.336   2.413   6.620 -0.4437  0.2229 -0.4439
  516ACOH    C212375   7.256   2.446   6.516 -0.7962 -0.3661 -0.4229
  516ACOH    O112376   7.251   2.559   6.471  0.2230  0.6383  0.2860
  516ACOH    C112377   7.161   2.339   6.486  0.2534 -0.1889 -0.5972
  516ACOH    H112378   7.073   2.376   6.433 -0.4301 -0.3877  0.3824
  516ACOH    H212379   7.139   2.308   6.588  1.1098 -0.7016 -0.5663
  516ACOH    H312380   7.198   2.251   6.434 -0.5978 -1.5473  1.0308
  517ACOH    H412381   6.066   1.774   5.787  1.2894 -1.6506  0.5894
  517ACOH    O212382   6.155   1.798   5.817  0.8432  0.2843  0.3889
  517ACOH    C212383   6.247   1.766   5.725 -0.3605  0.6690  0.0033
  517ACOH    O112384   6.218   1.710   5.621  0.2973  0.3265 -0.0711
  517ACOH    C112385   6.384   1.784   5.770 -0.8377  0.1849  0.5762
  517ACOH    H112386   6.454   1.720   5.715 -1.0333 -1.0558  1.7368
  517ACOH    H212387   6.403   1.754   5.873 -2.1518 -2.4866  0.0830
  517ACOH    H312388   6.423   1.884   5.751 -1.5178  0.1687 -0.9692
  520ACOH    H412389   7.089   7.068   3.064 -0.9201  2.3205 -1.5648
  520ACOH    O212390   7.010   7.014   3.047  0.2024  0.3059 -0.4120
  520ACOH    C212391   6.991   7.003   2.917  0.9764  0.8173 -0.5981
  520ACOH    O112392   7.069   7.037   2.829 -0.5278  0.4319  0.3666
  520ACOH    C112393   6.854   6.954   2.896  0.1930 -0.9380 -0.2869
  520ACOH    H112394   6.863   6.849   2.868 -1.4687 -2.1051  3.1895
  520ACOH    H212395   6.783   7.007   2.833  1.9325 -0.1467 -1.5953
  520ACOH    H312396   6.797   6.954   2.990  0.9339 -1.8636  0.1745
  521ACOH    H412397   5.061   6.900   1.755  1.1086 -1.3649  0.0167
  521ACOH    O212398   5.138   6.958   1.766  0.1481 -0.1060  0.2136
  521ACOH    C212399   5.239   6.920   1.691  0.1062 -0.2202  0.5247
  521ACOH    O112400   5.250   6.808   1.644  0.0171 -0.0428  0.3420
  521ACOH    C112401   5.348   7.020   1.692 -0.1158  0.2806 -0.3447
  521ACOH    H112402   5.354   7.062   1.591 -1.6625  0.6602 -0.2906
  521ACOH    H212403   5.440   6.972   1.726 -1.3614 -2.4343 -0.7101
  521ACOH    H312404   5.325   7.100   1.762  1.2273  1.2732 -1.0134
  522ACOH    H412405   6.618   4.877   2.416  0.4161  1.0075 -1.2237
  522ACOH    O212406   6.577   4.960   2.448 -0.1902  0.2692 -0.0240
  522ACOH    C212407   6.490   4.991   2.348 -0.6366 -0.3308 -0.4321
  522ACOH    O112408   6.522   4.980   2.227  0.3377 -0.8495  0.5532
  522ACOH    C112409   6.390   5.081   2.405  0.0737 -0.7107  0.2937
  522ACOH    H112410   6.290   5.043   2.383  0.2376 -0.4023 -1.0337
  522ACOH    H212411   6.394   5.178   2.356 -5.7105 -0.2190  0.3962
  522ACOH    H312412   6.402   5.087   2.513 -0.5308  0.4005  0.3011
  523ACOH    H412413   5.852   5.628   1.848 -0.8451  1.5067  1.2047
  523ACOH    O212414   5.864   5.608   1.942  0.2902 -0.1516  0.7336
  523ACOH    C212415   5.882   5.717   2.014 -0.4576 -0.0492 -0.3839
  523ACOH    O112416   5.895   5.832   1.981 -0.2795 -0.0625 -0.5736
  523ACOH    C112417   5.893   5.683   2.163  0.0438 -0.7189 -0.0159
  523ACOH    H112418   5.808   5.632   2.209 -0.5870  1.2396  1.0346
  523ACOH    H212419   5.908   5.772   2.224 -0.7442 -1.2557  0.9872
  523ACOH    H312420   5.984   5.627   2.184  0.6489  0.6609  1.1430
  524ACOH    H412421   0.772   5.424   4.786 -0.3511  1.0021  0.0452
  524ACOH    O212422   0.696   5.364   4.794  0.4635 -0.1059 -0.3456
  524ACOH    C212423   0.638   5.365   4.669  0.5211 -0.2461  0.2862
  524ACOH    O112424   0.681   5.406   4.562  0.5332  0.3042 -0.0220
  524ACOH    C112425   0.508   5.302   4.696 -0.6303  0.3067 -0.4550
  524ACOH    H112426   0.445   5.345   4.774 -0.0660 -2.3628  1.5504
  524ACOH    H212427   0.535   5.202   4.729  0.0661  0.8088  0.5146
  524ACOH    H312428   0.449   5.286   4.606 -1.5445 -1.3790  0.4229
  525ACOH    H412429   7.749   6.912   1.255  0.5430  1.7294  0.8865
  525ACOH    O212430   7.767   6.960   1.172  0.2842 -0.1336 -0.2600
  525ACOH    C212431   7.844   7.061   1.200 -0.5805 -0.1933 -0.0579
  525ACOH    O112432   7.917   7.064   1.293 -0.0363 -0.3047  0.2709
  525ACOH    C112433   7.869   7.133   1.072 -0.1751  0.8058  0.0937
  525ACOH    H112434   7.906   7.234   1.091 -1.8881  1.0896  2.0940
  525ACOH    H212435   7.777   7.151   1.016  0.8673 -1.3945 -2.4506
  525ACOH    H312436   7.937   7.078   1.007 -1.0803  2.3767 -2.2481
  526ACOH    H412437   8.224   2.490   2.308  0.5525  1.4041 -0.1069
  526ACOH    O212438   8.153   2.502   2.373  0.1509  0.1804 -0.2942
  526ACOH    C212439   8.192   2.444   2.486 -0.3453 -0.0753  0.5689
  526ACOH    O112440   8.162   2.491   2.592 -0.6347 -0.6262 -0.2587
  526ACOH    C112441   8.246   2.306   2.484  0.0007  0.5567 -0.4096
  526ACOH    H112442   8.323   2.303   2.407  0.5372  4.2417 -0.0946
  526ACOH    H212443   8.172   2.228   2.468 -0.4104  0.6764  0.8620
  526ACOH    H312444   8.306   2.281   2.572 -0.5360  0.9502  0.0678
  527ACOH    H412445   7.852   8.111   0.408  0.2282  0.0565 -0.5753
  527ACOH    O212446   7.761   8.110   0.440  0.4564 -0.0549  0.0757
  527ACOH    C212447   7.717   7.987   0.416  0.2159  0.5617 -0.0564
  527ACOH    O112448   7.742   7.914   0.320 -0.6338 -0.4671 -0.0064
  527ACOH    C112449   7.622   7.940   0.524 -0.1825 -0.2174  0.6586
  527ACOH    H112450   7.613   7.832   0.517 -3.4265  0.0991 -0.9482
  527ACOH    H212451   7.526   7.975   0.485 -0.7341 -0.9802  1.3182
  527ACOH    H312452   7.634   7.984   0.623 -0.3172  1.2991  0.0279
  528ACOH    H412453   3.929   5.273   4.619 -0.0032 -1.8794  0.3687
  528ACOH    O212454   4.024   5.285   4.633 -0.2807  0.4753  0.4549
  528ACOH    C212455   4.080   5.308   4.513  0.2433 -0.1987 -0.6680
  528ACOH    O112456   4.020   5.319   4.409  0.7898 -0.1927  0.4351
  528ACOH    C112457   4.224   5.303   4.518  0.3721  0.4558  0.2432
  528ACOH    H112458   4.273   5.401   4.520  0.6370  0.3149  1.7517
  528ACOH    H212459   4.259   5.243   4.435 -1.3514  0.0779 -0.2269
  528ACOH    H312460   4.241   5.263   4.618 -1.4943  3.6312  1.9109
  529ACOH    H412461   5.070   3.527   4.203 -1.9353 -0.9408  0.1165
  529ACOH    O212462   5.021   3.536   4.120 -0.0454  0.4244 -0.8863
  529ACOH    C212463   4.913   3.464   4.142 -0.6268  0.3212  0.5433
  529ACOH    O112464   4.894   3.381   4.225 -0.2657  0.2361 -0.7623
  529ACOH    C112465   4.818   3.479   4.029  0.3494 -0.0627  0.0916
  529ACOH    H112466   4.740   3.547   4.062 -0.2026 -0.2820 -0.7381
  529ACOH    H212467   4.768   3.386   4.004  0.6052 -0.6916  1.8490
  529ACOH    H312468   4.862   3.508   3.933 -1.2228  0.1200 -0.5793
  530ACOH    H412469   7.052   7.315   4.723  0.2673  4.1823  2.6768
  530ACOH    O212470   7.018   7.360   4.644 -0.1840  0.1828  0.4587
  530ACOH    C212471   6.886   7.327   4.632  0.5648 -0.7860  0.0069
  530ACOH    O112472   6.810   7.315   4.727  0.3031  0.1319  0.6126
  530ACOH    C112473   6.849   7.337   4.490  0.6545  0.7580  0.7208
  530ACOH    H112474   6.741   7.330   4.480  0.7453  0.3443  0.0361
  530ACOH    H212475   6.892   7.254   4.434 -1.0316  0.6248 -0.3976
  530ACOH    H312476   6.885   7.428   4.441 -0.7826  0.6271 -0.6183
  531ACOH    H412477   1.658   6.352   2.227  0.4096  0.3421 -1.1302
  531ACOH    O212478   1.692   6.437   2.261 -0.3574  0.0360  0.4229
  531ACOH    C212479   1.609   6.541   2.233  0.1430  0.2772  0.7706
  531ACOH    O112480   1.519   6.539   2.146 -0.0772  0.4963 -0.6841
  531ACOH    C112481   1.680   6.669   2.266  0.0875  0.2512 -0.3697
  531ACOH    H112482   1.620   6.725   2.338  1.5274 -1.9307  2.6527
  531ACOH    H212483   1.679   6.736   2.180  1.3966 -1.0131 -1.3991
  531ACOH    H312484   1.779   6.647   2.307 -0.8341  0.9118  2.3412
  532ACOH    H412485   6.289   2.087   5.983 -0.5826  0.9313 -1.1090
  532ACOH    O212486   6.208   2.057   6.028  0.2229  0.3460 -0.0391
  532ACOH    C212487   6.100   2.064   5.946  0.3407  0.4858 -0.0705
  532ACOH    O112488   6.107   2.091   5.827  0.1825 -0.8346  0.3566
  532ACOH    C112489   5.973   2.002   6.003  0.2091 -0.3546 -0.2673
  532ACOH    H112490   5.999   1.910   6.054 -1.6694 -0.9147 -0.2674
  532ACOH    H212491   5.908   1.980   5.918  0.0645  0.8758 -0.4790
  532ACOH    H312492   5.929   2.072   6.074  1.9104  0.0864  0.3777
  533ACOH    H412493   5.690   2.204   3.364 -0.5799  1.4056  0.2775
  533ACOH    O212494   5.785   2.204   3.347 -0.5848 -0.5035  0.1332
  533ACOH    C212495   5.845   2.261   3.452 -0.1398 -0.2985 -0.8982
  533ACOH    O112496   5.792   2.340   3.533  0.3571 -0.3387 -0.2617
  533ACOH    C112497   5.994   2.242   3.447 -0.0188  0.2214 -0.4387
  533ACOH    H112498   6.020   2.190   3.539 -0.6201  0.3604 -0.1929
  533ACOH    H212499   6.043   2.340   3.449 -1.5993  1.0757 -1.8341
  533ACOH    H312500   6.024   2.183   3.360  1.5925 -0.5351  0.6037
  534ACOH    H412501   8.885   4.170   0.453  1.7186  0.0413  1.3293
  534ACOH    O212502   8.836   4.136   0.529  0.6564 -0.7901  0.2949
  534ACOH    C212503   8.723   4.078   0.500 -0.0472  0.3312  0.7557
  534ACOH    O112504   8.657   4.104   0.404 -0.5121  0.1463  0.2100
  534ACOH    C112505   8.655   4.018   0.623 -0.2194  0.1635  0.4198
  534ACOH    H112506   8.640   4.099   0.695  0.8793  0.4758  0.3074
  534ACOH    H212507   8.722   3.940   0.658  0.2830  0.2949 -0.2442
  534ACOH    H312508   8.557   3.974   0.604 -0.3815  1.6461 -2.4667
  535ACOH    H412509   5.604   1.658   2.944 -0.3494  0.6730  1.0573
  535ACOH    O212510   5.640   1.745   2.919 -0.3223  0.5067  0.5166
  535ACOH    C212511   5.663   1.760   2.791 -0.5637  0.0361 -0.0832
  535ACOH    O112512   5.664   1.667   2.709  0.1934 -0.0683  0.0494
  535ACOH    C112513   5.724   1.891   2.761  0.2089 -0.5440  0.0266
  535ACOH    H112514   5.800   1.905   2.838 -0.4469  0.7087  0.4552
  535ACOH    H212515   5.656   1.974   2.775 -0.1502 -0.9136  0.5272
  535ACOH    H312516   5.764   1.893   2.660 -2.1254 -0.4566 -0.9318
  537ACOH    H412517   2.329   3.006   3.645  0.6570 -2.1615  2.0405
  537ACOH    O212518   2.233   3.006   3.662  0.3792  0.2901  0.7037
  537ACOH    C212519   2.219   2.967   3.790 -0.4965 -0.3237 -0.0644
  537ACOH    O112520   2.307   2.972   3.878  0.3530  0.0473 -0.5412
  537ACOH    C112521   2.072   2.928   3.813 -0.4324  0.2813  0.5534
  537ACOH    H112522   2.007   3.001   3.765 -0.9231  0.0538  0.8636
  537ACOH    H212523   2.065   2.927   3.922  1.5861  0.0924  0.6958
  537ACOH    H312524   2.054   2.827   3.776  2.1328 -0.2646  0.7374
  538ACOH    H412525   7.728   4.294   5.873 -0.8641 -0.7628 -0.0622
  538ACOH    O212526   7.738   4.361   5.803  0.8127 -0.3068  0.6020
  538ACOH    C212527   7.681   4.472   5.845  0.8468  0.0810  0.7025
  538ACOH    O112528   7.607   4.487   5.941 -0.2628 -0.3660 -0.2227
  538ACOH    C112529   7.704   4.585   5.745  0.6258 -0.3153 -0.0234
  538ACOH    H112530   7.679   4.681   5.790  1.1602  0.4096 -1.2431
  538ACOH    H212531   7.629   4.562   5.669  1.2401 -0.1641 -0.6733
  538ACOH    H312532   7.807   4.581   5.711  0.2152 -2.9543 -1.1352
  540ACOH    H412533   1.064   9.236   0.298 -0.6202 -0.6006  1.3823
  540ACOH    O212534   1.143   9.179   0.297 -0.1669  0.0330  0.1960
  540ACOH    C212535   1.238   9.246   0.363  0.6981 -0.0658  0.0689
  540ACOH    O112536   1.228   9.351   0.424  0.3899  0.3230 -0.3864
  540ACOH    C112537   1.358   9.157   0.370 -0.0937 -0.0057 -0.3657
  540ACOH    H112538   1.341   9.069   0.432  1.4488 -0.6087 -0.7707
  540ACOH    H212539   1.444   9.205   0.416  1.3582 -2.4335 -0.4929
  540ACOH    H312540   1.384   9.114   0.274  2.4112 -0.6543  0.5768
  541ACOH    H412541   7.041   8.689   2.307  1.7902 -3.0969  2.8931
  541ACOH    O212542   7.054   8.643   2.223 -0.1267 -0.0872  0.8711
  541ACOH    C212543   7.128   8.726   2.148  0.0321 -0.6123 -0.0567
  541ACOH    O112544   7.113   8.847   2.146 -0.2805  0.3277  0.3168
  541ACOH    C112545   7.186   8.650   2.032 -0.1566  0.0634 -0.0764
  541ACOH    H112546   7.096   8.605   1.991  0.0169  1.7420 -2.3967
  541ACOH    H212547   7.258   8.578   2.068  0.8022 -0.5608 -3.1200
  541ACOH    H312548   7.236   8.707   1.954 -0.0274 -1.3354 -1.0318
  542ACOH    H412549   3.291   0.102   6.329 -0.9911 -1.2170  2.4441
  542ACOH    O212550   3.342   0.177   6.365 -0.6162 -0.0448 -0.3680
  542ACOH    C212551   3.423   0.211   6.265 -0.1044  0.4436  0.0725
  542ACOH    O112552   3.388   0.202   6.147 -0.5953  0.6773  0.5786
  542ACOH    C112553   3.534   0.298   6.314 -0.9139  1.2276  0.3079
  542ACOH    H112554   3.515   0.401   6.283 -1.9067  0.6443 -1.0716
  542ACOH    H212555   3.626   0.264   6.268 -1.9017  0.2426 -0.9868
  542ACOH    H312556   3.552   0.304   6.421  0.0366  2.8368  0.0733
  544ACOH    H412557   1.086   8.832   4.055  1.5549 -0.6685  1.8382
  544ACOH    O212558   1.069   8.913   4.104 -0.0739 -0.1454  0.4455
  544ACOH    C212559   1.046   9.013   4.014  0.6626  0.3293 -0.5072
  544ACOH    O112560   0.989   8.995   3.908 -0.7493 -0.1782 -0.0541
  544ACOH    C112561   1.042   9.155   4.064  0.0039  0.3849  0.2105
  544ACOH    H112562   1.074   9.168   4.167 -1.0134 -1.9813  0.8581
  544ACOH    H212563   0.942   9.198   4.057 -0.5017 -1.2168 -3.2356
  544ACOH    H312564   1.113   9.206   4.000  0.9705 -1.4486 -0.2089
  545ACOH    H412565   8.026   8.698   8.134  1.8769 -0.7463  1.0907
  545ACOH    O212566   8.020   8.755   8.212  0.0207  0.5020  0.0679
  545ACOH    C212567   7.996   8.878   8.165 -0.6889 -0.1087  0.4512
  545ACOH    O112568   8.021   8.928   8.057 -0.2837  0.1598 -0.0832
  545ACOH    C112569   7.971   8.970   8.278 -0.3527 -0.1593 -0.5953
  545ACOH    H112570   7.944   8.921   8.372 -1.3615 -2.7000 -2.1508
  545ACOH    H212571   7.889   9.035   8.249 -0.4012  0.0160 -0.0613
  545ACOH    H312572   8.054   9.036   8.301 -0.3458 -0.7798  1.2401
  546ACOH    H412573   5.665   7.296   5.305  0.1440  0.6239 -0.7452
  546ACOH    O212574   5.735   7.243   5.263 -0.0585  0.0695 -0.3879
  546ACOH    C212575   5.775   7.314   5.155  0.4817 -1.0333  0.0874
  546ACOH    O112576   5.702   7.382   5.086 -0.1839  0.5492  0.7510
  546ACOH    C112577   5.909   7.258   5.103  0.2884 -0.4650 -0.7611
  546ACOH    H112578   5.983   7.308   5.165  0.0999 -1.8877  0.6346
  546ACOH    H212579   5.932   7.281   4.999  0.3933  0.5109 -0.5219
  546ACOH    H312580   5.928   7.153   5.125  0.2514 -0.3535 -0.1873
  547ACOH    H412581   8.937   0.274   1.486  0.1660 -1.1299 -0.5415
  547ACOH    O212582   8.841   0.270   1.497  0.2173 -0.0025  0.4401
  547ACOH    C212583   8.778   0.374   1.437  0.0829 -0.7583  0.3471
  547ACOH    O112584   8.657   0.377   1.434  0.2734  0.0467  0.4252
  547ACOH    C112585   8.869   0.479   1.394 -0.0526  0.3167  0.8563
  547ACOH    H112586   8.809   0.569   1.387  0.7546  0.8841  1.1870
  547ACOH    H212587   8.913   0.456   1.297  1.0390  1.5607  1.0403
  547ACOH    H312588   8.943   0.501   1.472  1.5059 -0.2471 -0.4301
  548ACOH    H412589   5.168   5.155   5.395 -0.4488  0.3597  3.9190
  548ACOH    O212590   5.252   5.201   5.380 -0.4370 -0.8188 -0.2266
  548ACOH    C212591   5.330   5.132   5.295  0.0693 -0.1387  0.1759
  548ACOH    O112592   5.302   5.028   5.238  0.7382  0.2596  0.4184
  548ACOH    C112593   5.465   5.196   5.272  0.5792  0.3669 -0.0354
  548ACOH    H112594   5.494   5.264   5.351  0.3300  1.3493 -0.7733
  548ACOH    H212595   5.459   5.252   5.178 -1.3308 -0.5137 -0.4675
  548ACOH    H312596   5.544   5.121   5.268  0.4853  0.0617  2.9365
  550ACOH    H412597   7.316   4.742   5.744 -1.2331 -0.8141 -1.4082
  550ACOH    O212598   7.256   4.693   5.804 -0.1667 -0.3994  0.0224
  550ACOH    C212599   7.305   4.741   5.922  0.4470 -0.6450  0.0201
  550ACOH    O112600   7.384   4.837   5.943  0.0522  0.0456 -0.1431
  550ACOH    C112601   7.262   4.654   6.032 -0.2826 -0.2620 -0.4683
  550ACOH    H112602   7.164   4.620   6.000  0.4782 -2.8012 -0.2304
  550ACOH    H212603   7.257   4.705   6.128  0.5510 -1.5640  0.2808
  550ACOH    H312604   7.328   4.567   6.041 -1.4603 -1.2098 -0.8470
  551ACOH    H412605   7.431   9.862   1.195  0.2229  2.3664 -0.8848
  551ACOH    O212606   7.526   9.838   1.199 -0.3685  0.0317 -0.2025
  551ACOH    C212607   7.543   9.741   1.288 -0.5631  0.2418  0.4911
  551ACOH    O112608   7.468   9.700   1.373  0.2214  0.4507 -0.2356
  551ACOH    C112609   7.685   9.687   1.279  0.5346 -0.3363 -0.2381
  551ACOH    H112610   7.730   9.670   1.377 -3.7271  0.3957  1.9794
  551ACOH    H212611   7.756   9.754   1.232  2.3534 -0.6025  2.0224
  551ACOH    H312612   7.681   9.591   1.229  0.2772  0.3209 -1.4818
  552SOL     OW12613   4.190   5.833   1.763 -0.7651  0.3723 -0.3805
  552SOL    HW112614   4.140   5.746   1.766 -0.9799  0.5378  1.2935
  552SOL    HW212615   4.239   5.846   1.849  0.6108  1.1383 -1.2646
  553SOL     OW12616   1.920   6.721   5.780 -0.3778 -0.2995  0.9195
  553SOL    HW112617   1.948   6.731   5.685 -1.8557  2.0263  0.6781
  553SOL    HW212618   1.883   6.629   5.794  1.1471 -1.1288 -0.3945
  554SOL     OW12619   7.075   0.717   3.837 -0.0148  0.1465 -0.3292
  554SOL    HW112620   7.087   0.805   3.884 -2.0019  0.3856 -0.2304
  554SOL    HW212621   6.979   0.705   3.813  0.2537 -1.9918 -0.4155
  555SOL     OW12622   1.116   1.568   3.003  0.5463 -0.2298 -0.1641
  555SOL    HW112623   1.053   1.620   3.061  1.7516 -0.8036  1.6756
  555SOL    HW212624   1.172   1.631   2.950  0.1537  0.3093  0.0565
  557SOL     OW12625   1.189   1.050   2.038  0.3029 -0.3309  0.1112
  557SOL    HW112626   1.113   0.988   2.057 -0.2541  0.4327  0.4065
  557SOL    HW212627   1.176   1.092   1.948 -1.6076  2.6538  1.7204
  558SOL     OW12628   7.819   9.430   3.400  0.8774  0.0037  0.5416
  558SOL    HW112629   7.842   9.333   3.413  0.4158  0.0148  1.4095
  558SOL    HW212630   7.747   9.438   3.331  0.0927 -0.3483  1.3159
  559SOL     OW12631   0.488   9.945   2.954 -0.5409  0.0327  0.2287
  559SOL    HW112632   0.507  10.027   2.901 -1.2806 -0.2615 -0.4982
  559SOL    HW212633   0.541   9.947   3.039 -0.6257  1.3026  0.2596
  561SOL     OW12634   7.638   9.418   3.199  0.3445 -0.9232  0.3294
  561SOL    HW112635   7.550   9.397   3.242 -0.0030 -2.9187 -1.2635
  561SOL    HW212636   7.671   9.338   3.149  1.8938  0.5589 -1.1091
  562SOL     OW12637   0.868   9.633   1.134 -0.0392  0.0781  0.0445
  562SOL    HW112638   0.866   9.703   1.205  0.7120 -0.4333  0.5810
  562SOL    HW212639   0.929   9.663   1.060 -0.6402  0.5061 -0.2857
  563SOL     OW12640   2.667   4.611   1.341 -0.3428 -0.2813 -0.1616
  563SOL    HW112641   2.754   4.642   1.303 -0.2684  0.4062  0.5484
  563SOL    HW212642   2.639   4.674   1.415 -0.2956 -1.8033  1.1726
  564SOL     OW12643   8.438   1.429   5.849 -0.0154  0.2368 -0.0231
  564SOL    HW112644   8.454   1.341   5.805 -0.5412 -0.4315  1.1178
  564SOL    HW212645   8.351   1.427   5.899  0.1431  1.2776  0.3206
  565SOL     OW12646   4.879   0.977   3.187  0.1340  0.2001  0.3026
  565SOL    HW112647   4.934   0.938   3.113  0.0869  1.0680 -0.2079
  565SOL    HW212648   4.914   0.946   3.275  1.5164  0.8397 -0.0118
  566SOL     OW12649   7.256   6.204   5.421  0.4882 -0.2171  0.5621
  566SOL    HW112650   7.303   6.229   5.336  0.9521  1.5176  1.3021
  566SOL    HW212651   7.304   6.246   5.499 -0.4547 -1.0474  1.6040
  568SOL     OW12652   0.469   8.482   0.870  0.2242  0.2376  0.0053
  568SOL    HW112653   0.430   8.556   0.924 -1.2272  0.2017 -0.9671
  568SOL    HW212654   0.497   8.517   0.781  0.3835 -0.2027 -0.1203
  569SOL     OW12655   1.529   1.580   0.105  0.8908 -0.0335  1.0590
  569SOL    HW112656   1.516   1.561   0.008 -1.6456  0.3985  1.2654
  569SOL    HW212657   1.597   1.652   0.117  1.0977  0.0176 -0.4012
  570SOL     OW12658   2.061   9.744   1.387 -0.3479  0.2183 -0.1470
  570SOL    HW112659   2.098   9.653   1.365 -2.3415 -0.2200 -1.8391
  570SOL    HW212660   1.989   9.734   1.456 -1.5714  0.3138 -1.3866
  571SOL     OW12661   0.785   6.072   1.356 -0.1661  0.4802  0.2611
  571SOL    HW112662   0.870   6.020   1.367 -0.0462  0.6054 -0.0750
  571SOL    HW212663   0.790   6.156   1.411 -0.7724 -0.3554  1.6238
  572SOL     OW12664   8.648   8.888   0.383 -0.2398  0.3572 -0.3898
  572SOL    HW112665   8.623   8.874   0.479 -0.9225 -3.7289 -1.0711
  572SOL    HW212666   8.565   8.908   0.329 -0.1550  0.5861 -0.4340
  573SOL     OW12667   5.115   0.569   3.933  0.1379 -0.0942 -0.3171
  573SOL    HW112668   5.046   0.582   3.861 -0.8779 -0.5410  0.5720
  573SOL    HW212669   5.141   0.658   3.970 -0.3117  0.0454 -0.3282
  574SOL     OW12670   1.330   6.908   5.942 -0.5615  0.5949  0.3853
  574SOL    HW112671   1.413   6.930   5.993 -0.5792 -0.2166  0.7734
  574SOL    HW212672   1.250   6.919   6.002 -0.6198  0.0630  0.4024
  575SOL     OW12673   9.147   7.023   1.692  0.3905 -0.1251 -0.5901
  575SOL    HW112674   9.172   6.939   1.740  0.2508 -0.2267 -0.6961
  575SOL    HW212675   9.094   7.001   1.611 -2.2599  0.2176  1.0036
  576SOL     OW12676   7.954   2.242   3.201  0.0650 -0.9020  0.0712
  576SOL    HW112677   8.036   2.186   3.188  0.4515 -0.1268 -0.9289
  576SOL    HW212678   7.952   2.315   3.132 -1.3818 -0.8078  0.1949
  577SOL     OW12679   3.487   4.073   4.626 -0.7178 -0.4199 -0.1776
  577SOL    HW112680   3.565   4.099   4.570  0.7709 -0.9780  1.6036
  577SOL    HW212681   3.505   3.985   4.669 -1.5661  0.2923  1.6797
  578SOL     OW12682   9.918   3.564   0.480  0.6281 -0.0866 -0.7112
  578SOL    HW112683   9.974   3.593   0.402  0.7800  1.4824 -0.0329
  578SOL    HW212684   9.955   3.602   0.564 -1.4586  1.0285 -0.2655
  579SOL     OW12685   9.842   7.855   3.443  0.1933 -0.1309 -0.5108
  579SOL    HW112686   9.808   7.941   3.404  0.3666  0.0430 -0.2800
  579SOL    HW212687   9.767   7.790   3.452  0.1112 -0.0924 -0.9275
  580SOL     OW12688   7.952   1.945   2.727  0.2932 -0.0918 -0.1750
  580SOL    HW112689   8.037   1.895   2.746  0.8260  0.9515  0.2383
  580SOL    HW212690   7.917   1.985   2.812  0.2320  0.7811 -0.6005
  581SOL     OW12691   2.678   3.663   3.608  0.2942  0.0935  0.4613
  581SOL    HW112692   2.714   3.631   3.696 -1.1646 -0.4956  0.8617
  581SOL    HW212693   2.582   3.636   3.600  0.8583 -1.3285 -2.0454
  582SOL     OW12694   5.258   9.711   2.283 -0.5649  0.4611 -0.2107
  582SOL    HW112695   5.268   9.655   2.365 -1.3030 -0.2006 -0.5594
  582SOL    HW212696   5.272   9.654   2.202 -2.1945  0.5586 -0.5943
  583SOL     OW12697   2.534   4.236   0.452 -0.7281 -0.5503  0.4990
  583SOL    HW112698   2.447   4.238   0.502 -0.2264 -0.8074  1.3835
  583SOL    HW212699   2.565   4.142   0.445 -2.2394 -0.8769 -2.8278
  584SOL     OW12700   1.362   0.274   2.607 -0.2936  0.2681  0.1157
  584SOL    HW112701   1.431   0.291   2.537 -0.6342  2.4146  0.2475
  584SOL    HW212702   1.292   0.212   2.571  1.0226 -0.8938 -0.4551
  585SOL     OW12703   0.423   5.603   4.718  0.1291  0.3640 -0.1757
  585SOL    HW112704   0.461   5.696   4.717  0.2218  0.3329  0.2407
  585SOL    HW212705   0.407   5.572   4.624 -0.1453  0.9003 -0.3102
  587SOL     OW12706   9.594   2.065   3.114  0.4434  0.0789 -0.3639
  587SOL    HW112707   9.632   1.973   3.120  1.5854  0.5823  0.2038
  587SOL    HW212708   9.541   2.085   3.197  0.6162  0.1207 -0.2638
  588SOL     OW12709   4.850   2.046   6.012  0.3822  0.1628  0.8083
  588SOL    HW112710   4.924   2.076   5.952 -1.1670  0.9223 -0.7654
  588SOL    HW212711   4.787   1.989   5.960 -2.1491  2.5835  1.1346
  589SOL     OW12712   8.169   2.713   1.167 -0.3608  0.2522  0.6186
  589SOL    HW112713   8.206   2.622   1.182 -1.7850 -0.3730  0.3916
  589SOL    HW212714   8.076   2.718   1.204  0.0847  1.9220  1.5697
  590SOL     OW12715   1.925   3.593   6.459 -0.3335  0.3701 -0.2830
  590SOL    HW112716   1.990   3.519   6.479  0.5665  1.1689 -0.2511
  590SOL    HW212717   1.888   3.580   6.366 -0.1262 -0.0766 -0.3055
  591SOL     OW12718   5.118   1.457   2.644  0.1108  0.2812 -0.3707
  591SOL    HW112719   5.116   1.554   2.665  1.2838  0.1699  0.3338
  591SOL    HW212720   5.121   1.445   2.545  0.2701  0.9798 -0.4557
  592SOL     OW12721   7.652   9.165   4.054 -0.1309  0.5020  0.0046
  592SOL    HW112722   7.614   9.074   4.040  0.4647  0.5502 -2.0363
  592SOL    HW212723   7.751   9.161   4.051 -0.0444  0.9451  1.7500
  594SOL     OW12724   9.562   7.352   1.918 -0.3026 -0.1131  0.1775
  594SOL    HW112725   9.510   7.277   1.879 -0.2504  0.0001 -0.1150
  594SOL    HW212726   9.617   7.319   1.995  0.3657 -0.5521 -0.4836
  595SOL     OW12727   3.449   1.133   5.537 -0.2914 -0.1465 -0.0419
  595SOL    HW112728   3.482   1.227   5.527 -0.6274 -0.0243 -0.0026
  595SOL    HW212729   3.356   1.134   5.574  0.4104 -0.5500  1.7578
  597SOL     OW12730   0.593   5.547   5.098 -0.2429 -0.2604  0.0741
  597SOL    HW112731   0.565   5.588   5.185  1.2144 -1.4334  1.1080
  597SOL    HW212732   0.512   5.512   5.051 -1.3784  2.7811 -0.3320
  598SOL     OW12733   7.982   8.850   4.930  0.3175  0.0801 -0.3329
  598SOL    HW112734   7.978   8.851   4.831  0.9370 -0.1174 -0.3644
  598SOL    HW212735   7.931   8.770   4.965  1.3677 -0.6960 -0.5630
  599SOL     OW12736   0.222   0.134   4.727  0.7625 -0.1519 -0.0438
  599SOL    HW112737   0.208   0.062   4.659  0.6875 -0.3134  0.1426
  599SOL    HW212738   0.196   0.222   4.688 -1.4655 -0.5303  0.5381
  600SOL     OW12739   9.869   8.743   1.727 -0.2665 -0.3831  0.5411
  600SOL    HW112740   9.890   8.687   1.807  0.8678  1.2470  1.4073
  600SOL    HW212741   9.951   8.756   1.671 -0.1567  1.5307  1.0903
  601SOL     OW12742   9.824   5.203   1.467 -0.3709 -0.0493  0.5962
  601SOL    HW112743   9.869   5.293   1.466 -0.0539 -0.2189 -0.9291
  601SOL    HW212744   9.726   5.215   1.479 -0.2555  0.4628  1.0558
  602SOL     OW12745   9.420   5.972   4.965 -0.0966 -0.6786  0.6418
  602SOL    HW112746   9.337   5.937   5.009 -0.7808  0.1449  0.0249
  602SOL    HW212747   9.499   5.958   5.025 -1.1521  1.3018  2.5752
  603SOL     OW12748   2.638   2.746   0.959 -0.3472 -0.1781  0.1233
  603SOL    HW112749   2.694   2.678   1.007  1.4530  0.5028 -0.9844
  603SOL    HW212750   2.586   2.700   0.887  0.1374 -0.5427  0.0008
  604SOL     OW12751   1.919   8.831   1.425 -0.9038  0.0769  0.0080
  604SOL    HW112752   1.978   8.891   1.480 -0.3181  0.8491 -1.4436
  604SOL    HW212753   1.846   8.886   1.384  0.8383  0.2054 -3.0193
  605SOL     OW12754   4.792   2.801   0.113 -1.4068  0.1275  0.2094
  605SOL    HW112755   4.702   2.759   0.122 -1.6059  0.1148 -1.5832
  605SOL    HW212756   4.857   2.733   0.080 -1.4482  0.8819 -1.4738
  607SOL     OW12757   9.153   7.091   1.317  0.0148 -0.4087  0.2397
  607SOL    HW112758   9.115   7.182   1.332  0.2873  0.1820 -2.3982
  607SOL    HW212759   9.096   7.023   1.363 -1.7778  0.8586 -0.0761
  608SOL     OW12760   7.406   0.286   1.430  0.0804  0.4161 -0.1526
  608SOL    HW112761   7.398   0.386   1.433  0.7834  0.4971 -0.9206
  608SOL    HW212762   7.322   0.245   1.466 -0.3347  1.2820 -0.1256
  609SOL     OW12763   9.492   5.902   3.709  0.5234 -0.2280 -0.1601
  609SOL    HW112764   9.502   5.805   3.685 -2.7380 -0.6542 -0.0733
  609SOL    HW212765   9.534   5.958   3.638 -0.6981 -1.6696 -2.0878
  610SOL     OW12766   5.323   1.543   1.516 -0.0531  0.1769 -0.4886
  610SOL    HW112767   5.324   1.621   1.578  1.1247 -0.1917 -0.0430
  610SOL    HW212768   5.284   1.464   1.563 -1.1969  0.4657 -0.9235
  612SOL     OW12769   1.122   5.266   3.060 -0.1529 -0.8104  0.1560
  612SOL    HW112770   1.219   5.252   3.080 -0.0061  0.6043  0.4544
  612SOL    HW212771   1.067   5.223   3.131  0.2686 -0.8550  0.4579
  613SOL     OW12772   4.211   2.216   5.961 -0.0050  0.4632 -0.0585
  613SOL    HW112773   4.121   2.206   6.003 -0.5408 -0.6921 -1.4390
  613SOL    HW212774   4.231   2.313   5.948  0.8992  0.9514  4.3346
  614SOL     OW12775   3.058   8.067   2.376 -0.0247 -0.1839  0.4582
  614SOL    HW112776   3.079   8.031   2.285 -0.4146  0.1667  0.2294
  614SOL    HW212777   3.047   7.990   2.440 -2.5724 -0.6086 -0.3889
  615SOL     OW12778   5.373   0.918   2.072  0.3687 -0.7166 -1.0098
  615SOL    HW112779   5.342   1.004   2.113  0.1899 -0.5272 -1.5294
  615SOL    HW212780   5.471   0.908   2.087  0.2782 -0.7202 -0.4141
  616SOL     OW12781   0.402   1.042   6.396  0.4570 -0.0166 -0.2657
  616SOL    HW112782   0.406   1.140   6.416 -1.5816  0.2160 -0.8876
  616SOL    HW212783   0.356   0.994   6.470  1.2613 -0.5012 -0.0631
  617SOL     OW12784   3.218   4.169   4.591 -0.2907  0.0156  0.3987
  617SOL    HW112785   3.167   4.185   4.675 -0.2295  1.5981  0.1507
  617SOL    HW212786   3.316   4.165   4.611 -0.1145  2.6227  0.1046
  618SOL     OW12787   9.844   8.680   5.505 -0.2509  0.1328 -0.1720
  618SOL    HW112788   9.911   8.618   5.545 -0.6995 -0.1339  0.1654
  618SOL    HW212789   9.840   8.764   5.559 -1.0377 -0.3294  0.4981
  619SOL     OW12790   7.691   3.126   4.378  0.1165  0.1077 -0.2270
  619SOL    HW112791   7.591   3.123   4.377  0.1270  0.0076 -1.4119
  619SOL    HW212792   7.724   3.173   4.296  1.0727 -1.3261 -0.6896
  620SOL     OW12793   9.765   6.965   0.162 -0.3489  0.1950 -0.4365
  620SOL    HW112794   9.816   6.899   0.217 -0.4219  0.3681 -0.1582
  620SOL    HW212795   9.793   7.058   0.187 -0.5584  0.2808 -0.5203
  621SOL     OW12796   2.265   5.785   2.133 -0.4789  0.0685 -0.1254
  621SOL    HW112797   2.334   5.841   2.087 -1.4749  0.2915 -1.4143
  621SOL    HW212798   2.205   5.844   2.187  0.5377 -0.1651  1.2791
  622SOL     OW12799   2.077   6.048   1.573  0.1427  0.6713 -0.2916
  622SOL    HW112800   2.123   6.049   1.485 -1.1334 -1.0108 -1.0003
  622SOL    HW212801   1.993   6.103   1.568  0.2978  0.9390  0.0024
  623SOL     OW12802   7.152   2.791   0.075 -0.0343  0.2148  0.4809
  623SOL    HW112803   7.242   2.818   0.041 -0.0845  0.1136  0.2679
  623SOL    HW212804   7.115   2.864   0.132 -0.7286  1.1533 -1.1366
  624SOL     OW12805   7.659   2.041   5.752 -0.3230  0.3573  0.1577
  624SOL    HW112806   7.634   1.945   5.762 -1.9068  0.6118 -1.1313
  624SOL    HW212807   7.612   2.095   5.822 -1.8986  0.5797 -1.0491
  626SOL     OW12808   7.574   3.973   2.524  0.0154 -0.1831  0.0757
  626SOL    HW112809   7.538   3.881   2.516  0.0050 -0.2118  0.4436
  626SOL    HW212810   7.499   4.039   2.520 -0.1004 -0.2531  1.0639
  627SOL     OW12811   4.053   1.245   1.289  0.0403  0.8133  0.2533
  627SOL    HW112812   3.954   1.227   1.282 -0.3983  3.3164 -0.5121
  627SOL    HW212813   4.103   1.161   1.269 -1.9254 -0.3297 -0.0742
  628SOL     OW12814   2.969   9.017   6.437 -0.8047 -0.0422 -0.1713
  628SOL    HW112815   2.875   8.990   6.457 -0.7192  0.4152  0.8508
  628SOL    HW212816   2.968   9.107   6.392 -0.9220 -0.5692 -1.2539
  629SOL     OW12817   7.908   4.254   1.992  0.1412  0.1345 -0.2998
  629SOL    HW112818   7.983   4.202   2.033  0.3348 -0.4107 -1.3481
  629SOL    HW212819   7.923   4.352   2.008  1.4666  0.0815 -1.1414
  630SOL     OW12820   1.470   8.702   5.607 -0.3186  0.4131  0.3461
  630SOL    HW112821   1.522   8.761   5.669 -0.8297 -0.3694  1.5525
  630SOL    HW212822   1.386   8.673   5.652 -0.6923 -0.1798 -0.7239
  631SOL     OW12823   9.509   4.924   1.993 -0.5470  0.4822  0.4996
  631SOL    HW112824   9.539   4.860   2.063 -2.1165 -1.0442 -0.1768
  631SOL    HW212825   9.446   4.878   1.931 -2.1363  2.8242  0.2991
  632SOL     OW12826   7.877   2.011   2.993  0.3658  0.0766 -0.1869
  632SOL    HW112827   7.920   2.002   3.083  2.2362  0.2561 -1.0348
  632SOL    HW212828   7.802   1.946   2.985  1.4934 -1.3834  0.7813
  633SOL     OW12829   7.294   9.559   1.553  0.0586 -0.0441  0.2500
  633SOL    HW112830   7.376   9.578   1.499  0.7375 -0.6927  1.0280
  633SOL    HW212831   7.269   9.463   1.543 -0.3755  0.0611  0.3162
  634SOL     OW12832   6.321   1.590   6.359 -0.0870 -0.2191  0.3025
  634SOL    HW112833   6.364   1.654   6.296  0.4196  0.9484  1.7994
  634SOL    HW212834   6.222   1.607   6.363 -0.2368 -0.8107 -0.7424
  635SOL     OW12835   9.911   0.665   2.363  0.2862 -0.0294  0.1751
  635SOL    HW112836   9.816   0.644   2.341  0.0098  1.3082 -0.0023
  635SOL    HW212837   9.943   0.604   2.436 -1.1449  0.3958  1.1875
  636SOL     OW12838   4.352   2.373   6.208 -0.3082 -0.2914  0.1025
  636SOL    HW112839   4.401   2.419   6.134  1.7533  0.9532  2.1956
  636SOL    HW212840   4.256   2.401   6.206  0.2015  1.4735 -0.7291
  637SOL     OW12841   9.906   1.470   1.282  0.9946  0.0476  0.5666
  637SOL    HW112842   9.841   1.484   1.357  0.4293 -0.1285  0.1209
  637SOL    HW212843   9.861   1.417   1.209  1.6719 -0.1537  0.2904
  639SOL     OW12844   8.725   8.419   2.079  0.2480  0.1526  0.0511
  639SOL    HW112845   8.706   8.321   2.071  0.2568  0.0368  1.3453
  639SOL    HW212846   8.821   8.436   2.056  0.4151 -0.2282  0.4618
  640SOL     OW12847   7.013   8.373   2.376 -1.2259 -0.3121 -0.4719
  640SOL    HW112848   6.948   8.429   2.427 -1.8985 -0.6429 -0.9448
  640SOL    HW212849   7.024   8.411   2.284 -0.5086 -0.0797 -0.2903
  641SOL     OW12850   8.427   8.352   4.567 -0.0069  0.1190 -0.2999
  641SOL    HW112851   8.465   8.331   4.477 -1.8165 -1.0350 -0.8295
  641SOL    HW212852   8.383   8.442   4.565 -1.5267 -0.6195 -1.0844
  642SOL     OW12853   9.627   2.405   2.089  0.4776 -0.0388  0.3178
  642SOL    HW112854   9.619   2.328   2.026  0.2188 -1.0219  1.5390
  642SOL    HW212855   9.648   2.488   2.037 -0.6673 -0.6450 -1.1661
  644SOL     OW12856   9.811   1.986   1.666 -0.1340 -0.5754  0.2451
  644SOL    HW112857   9.849   1.980   1.758 -0.3268 -2.1069  0.2305
  644SOL    HW212858   9.787   1.895   1.633  0.6526 -0.1377 -1.6326
  646SOL     OW12859   5.339   2.124   3.685 -0.0866 -0.0479 -0.0992
  646SOL    HW112860   5.274   2.184   3.730 -0.0280  0.6642 -0.9484
  646SOL    HW212861   5.291   2.071   3.614 -0.2600 -1.4434  1.0397
  647SOL     OW12862   2.634   8.004   1.786  0.4546 -0.3582  0.2661
  647SOL    HW112863   2.692   7.958   1.852  1.4048  0.6940  0.1826
  647SOL    HW212864   2.660   8.100   1.779 -0.3997 -0.1814 -0.7771
  648SOL     OW12865   9.572   1.208   0.632  0.4748 -0.3119 -0.1403
  648SOL    HW112866   9.589   1.115   0.598 -1.4290 -0.5569 -0.4858
  648SOL    HW212867   9.569   1.271   0.554  0.0357 -0.2552 -0.0820
  649SOL     OW12868   5.150   9.519   4.082 -0.5871 -0.3147  0.0244
  649SOL    HW112869   5.211   9.592   4.111 -0.6331  0.0002 -0.6663
  649SOL    HW212870   5.161   9.440   4.143 -0.0757  0.0326  0.3821
  650SOL     OW12871   0.201   9.699   4.510 -0.0892 -0.0723  0.0223
  650SOL    HW112872   0.124   9.686   4.572  1.8388 -1.6748  2.1729
  650SOL    HW212873   0.168   9.701   4.416 -2.9042  0.8951  0.9709
  652SOL     OW12874   1.307   7.835   3.412  0.8900 -0.4247  0.1724
  652SOL    HW112875   1.213   7.814   3.384  0.6438  0.1808  0.5140
  652SOL    HW212876   1.358   7.751   3.428  0.3314 -0.7546  0.2119
  653SOL     OW12877   7.133   0.996   1.212 -0.2792 -0.3926  0.2540
  653SOL    HW112878   7.143   1.032   1.305 -4.2144  1.3348  0.1128
  653SOL    HW212879   7.106   0.900   1.217  1.5376 -0.8860  0.8358
  654SOL     OW12880   8.349   4.727   5.862 -0.1585  0.2355 -0.1930
  654SOL    HW112881   8.358   4.764   5.769  2.4973 -2.8052 -1.2282
  654SOL    HW212882   8.438   4.728   5.907 -0.4832 -2.4844  0.6134
  655SOL     OW12883   2.951   7.603   2.852  0.4596  0.5395  0.0420
  655SOL    HW112884   3.048   7.597   2.828  0.5987  0.7067  0.5617
  655SOL    HW212885   2.935   7.556   2.939  0.1102  0.6865  0.0579
  656SOL     OW12886   6.919   8.595   3.152 -0.1581  0.1052  0.1641
  656SOL    HW112887   6.862   8.525   3.194 -0.5491  0.6935  0.6010
  656SOL    HW212888   6.869   8.681   3.145  0.4166  0.4239 -0.1243
  657SOL     OW12889   9.727   8.979   4.516  0.2809 -0.1390 -0.2147
  657SOL    HW112890   9.787   8.919   4.463  0.6695  0.6604 -0.6871
  657SOL    HW212891   9.681   8.926   4.587 -0.9625 -1.4314 -1.9198
  661SOL     OW12892   9.321   4.168   4.547 -0.7151 -0.1160  0.2868
  661SOL    HW112893   9.339   4.136   4.454 -0.3679 -0.1920  0.3769
  661SOL    HW212894   9.257   4.245   4.545 -1.8586 -1.0602  0.0978
  662SOL     OW12895   1.946   6.697   5.236  0.2082 -0.1601  0.0461
  662SOL    HW112896   1.915   6.789   5.212  1.6826  0.3935  0.1856
  662SOL    HW212897   1.880   6.654   5.297 -0.7562  0.6009 -0.4499
  663SOL     OW12898   3.195   6.024   0.913  0.7540 -0.1365  0.5338
  663SOL    HW112899   3.264   5.992   0.979  1.1401 -0.4494 -0.0191
  663SOL    HW212900   3.228   6.009   0.820 -0.0904 -0.3285  0.2627
  664SOL     OW12901   8.610   1.798   0.395  0.3394  0.5158 -0.2504
  664SOL    HW112902   8.703   1.781   0.361  0.5137  1.4651 -0.2531
  664SOL    HW212903   8.550   1.823   0.319  0.1708  0.2710 -0.1972
  665SOL     OW12904   9.548   9.378   0.196 -0.2075  0.5892  0.2248
  665SOL    HW112905   9.636   9.365   0.243  0.3900  0.5263 -0.9021
  665SOL    HW212906   9.563   9.420   0.107 -0.9963 -2.2091 -1.3067
  666SOL     OW12907   7.640   2.328   4.985 -0.2326  0.3108  0.5572
  666SOL    HW112908   7.653   2.418   5.027  0.1342  0.5640 -0.0883
  666SOL    HW212909   7.600   2.266   5.051  1.8777  0.2367  1.7960
  667SOL     OW12910   7.141   2.789   5.692 -0.0270 -0.1272  0.7083
  667SOL    HW112911   7.176   2.748   5.776  0.1280  0.0570  0.7339
  667SOL    HW212912   7.162   2.729   5.615  1.7474  0.7032  0.5066
  668SOL     OW12913   7.729   8.609   2.859 -0.5243  0.3078 -0.0126
  668SOL    HW112914   7.774   8.541   2.917 -1.4471  0.2775  0.6980
  668SOL    HW212915   7.640   8.631   2.899 -0.3072  1.7952 -0.3439
  669SOL     OW12916   8.392   8.893   5.574 -0.6667  0.0090  0.0281
  669SOL    HW112917   8.440   8.949   5.642 -2.3318  1.8573 -0.2476
  669SOL    HW212918   8.405   8.933   5.483 -0.6010 -0.9603 -0.3958
  672SOL     OW12919   9.877   2.027   2.985 -0.4180 -0.0114  0.2584
  672SOL    HW112920   9.965   2.020   2.940 -0.8091  1.1286 -0.6953
  672SOL    HW212921   9.815   1.957   2.950  0.3196 -1.2790  1.4499
  673SOL     OW12922   9.946   5.263   3.274 -0.3183  0.5033 -0.3035
  673SOL    HW112923   9.853   5.245   3.306  0.4038 -0.4971  1.2799
  673SOL    HW212924   9.976   5.189   3.215 -0.1118  0.2752  0.0899
  674SOL     OW12925   8.914   8.284   1.243  0.0561 -0.0222 -0.1880
  674SOL    HW112926   8.968   8.335   1.176 -0.7302 -0.5899 -1.2842
  674SOL    HW212927   8.842   8.342   1.279 -0.3419 -0.1048 -0.8363
  675SOL     OW12928   1.593   4.941   1.553  0.3924  0.7572  0.4226
  675SOL    HW112929   1.531   4.989   1.615 -0.4982 -0.4151  0.4568
  675SOL    HW212930   1.540   4.879   1.495  1.4604  0.2620 -0.0312
  677SOL     OW12931   4.491   3.131   2.252 -0.6017  0.9237  0.1299
  677SOL    HW112932   4.453   3.206   2.306  1.6132  0.6300  2.1177
  677SOL    HW212933   4.449   3.045   2.280  0.2351  0.8264  1.0827
  678SOL     OW12934   8.851   7.521   1.324  0.4281 -0.1958  0.0417
  678SOL    HW112935   8.810   7.612   1.321  1.1904  0.2630  2.6190
  678SOL    HW212936   8.795   7.461   1.381  1.0636 -0.7519  0.0890
  681SOL     OW12937   4.159   4.295   0.893 -0.2376 -0.1426 -0.1169
  681SOL    HW112938   4.176   4.310   0.990  0.0091  0.0960 -0.1955
  681SOL    HW212939   4.209   4.363   0.839 -1.1609  0.3609 -0.3645
  682SOL     OW12940   3.948   0.689   4.920 -0.3999 -0.2507 -0.4396
  682SOL    HW112941   3.865   0.700   4.974 -1.6338 -1.7722 -1.9949
  682SOL    HW212942   3.979   0.594   4.926  1.5946  0.4288  0.6122
  683SOL     OW12943   1.034   6.667   4.267  0.1730 -0.2896  0.0507
  683SOL    HW112944   1.118   6.684   4.319  1.5287 -2.6141 -1.3247
  683SOL    HW212945   1.014   6.747   4.211 -0.1996  1.4531  2.5692
  684SOL     OW12946   2.329   9.948   5.892  0.0830 -0.0689  0.2539
  684SOL    HW112947   2.309  10.022   5.957 -0.1115  0.9167 -0.8978
  684SOL    HW212948   2.246   9.927   5.840  1.2627  2.1596 -2.6646
  686SOL     OW12949   9.787   3.217   1.568  0.7150 -0.3600 -0.2229
  686SOL    HW112950   9.870   3.194   1.518  0.6685  0.0497 -0.4939
  686SOL    HW212951   9.783   3.316   1.580 -0.1914 -0.3001 -1.0000
  687SOL     OW12952   9.429   5.878   5.501 -0.0159 -0.0424  0.3879
  687SOL    HW112953   9.481   5.796   5.525 -0.3659 -0.3190  0.1976
  687SOL    HW212954   9.395   5.871   5.407  0.2723  0.4866  0.2389
  688SOL     OW12955   4.801   0.114   2.687 -0.2740 -0.2491 -0.2622
  688SOL    HW112956   4.751   0.045   2.740 -0.2024  0.1922  0.3954
  688SOL    HW212957   4.754   0.202   2.695  0.8135  0.2619  0.6859
  689SOL     OW12958   6.984   7.381   5.731 -0.0859 -0.2696 -0.7904
  689SOL    HW112959   6.961   7.417   5.822  1.3625 -0.7379 -0.2264
  689SOL    HW212960   6.940   7.437   5.661 -0.5705  0.5785  0.1808
  690SOL     OW12961   7.221   1.548   3.667 -0.1610  0.1228 -0.0548
  690SOL    HW112962   7.237   1.642   3.639  0.7639  0.1268  0.4708
  690SOL    HW212963   7.222   1.541   3.767  3.6154 -1.0294 -0.0616
  693SOL     OW12964   9.790   5.868   3.843 -0.6174 -0.3450  0.4599
  693SOL    HW112965   9.753   5.801   3.779  1.5957  0.1643 -1.4526
  693SOL    HW212966   9.716   5.910   3.895 -2.2836 -2.2080 -0.3526
  694SOL     OW12967   0.246   5.078   3.057 -0.1811  0.3075  0.2031
  694SOL    HW112968   0.327   5.072   3.115 -0.6029  4.0232  1.2696
  694SOL    HW212969   0.168   5.035   3.104  0.6986 -1.6377 -0.0542
  695SOL     OW12970   2.556   6.961   5.777 -0.0640  0.1308  0.2333
  695SOL    HW112971   2.513   7.039   5.733  0.8836  0.1843 -0.6156
  695SOL    HW212972   2.635   6.993   5.831  0.4900 -0.2714 -0.3372
  696SOL     OW12973   2.462   9.096   5.756 -1.3219  0.3731  0.3976
  696SOL    HW112974   2.439   9.038   5.834  0.1124 -0.6357  0.1055
  696SOL    HW212975   2.447   9.045   5.671 -1.2743  0.8749  0.0865
  697SOL     OW12976   6.319   0.944   3.781  0.0064  0.3230 -0.2092
  697SOL    HW112977   6.268   1.012   3.833 -0.6564 -0.5913  0.3342
  697SOL    HW212978   6.417   0.967   3.784 -0.0430  0.3799  1.2907
  698SOL     OW12979   8.796   9.335   3.390 -0.2324  0.2697 -0.7210
  698SOL    HW112980   8.859   9.406   3.422 -2.3585  0.9942  1.9924
  698SOL    HW212981   8.728   9.376   3.330  0.0487  0.0280 -1.2109
  699SOL     OW12982   7.735   5.189   0.910  0.3578 -0.4172 -0.5571
  699SOL    HW112983   7.648   5.236   0.895  0.0656 -0.8245 -0.1439
  699SOL    HW212984   7.747   5.118   0.840 -0.5125 -1.6052  0.4835
  700SOL     OW12985   3.337   1.585   0.781 -0.5140 -0.7097 -0.1966
  700SOL    HW112986   3.246   1.621   0.797 -0.4422 -1.6079  2.4967
  700SOL    HW212987   3.401   1.622   0.848  0.8716 -0.9731 -1.3300
  701SOL     OW12988   4.470   1.959   0.248 -0.7551 -0.2352 -0.5574
  701SOL    HW112989   4.457   2.014   0.165 -0.7839 -0.4431 -0.6901
  701SOL    HW212990   4.539   2.002   0.306  0.0395 -0.6611 -1.1799
  702SOL     OW12991   9.011   7.250   4.317  0.0212 -0.2258 -0.3218
  702SOL    HW112992   9.055   7.176   4.265 -0.6431 -1.0536  0.2769
  702SOL    HW212993   8.911   7.241   4.308 -0.0487  0.8904 -0.6465
  703SOL     OW12994   3.076   5.097   0.231  0.2930 -0.0100 -0.0978
  703SOL    HW112995   3.000   5.162   0.223 -0.0823 -0.5865 -1.4573
  703SOL    HW212996   3.056   5.031   0.303 -0.8861 -0.6491 -0.9901
  704SOL     OW12997   4.229   8.503   6.006 -0.0194 -0.3003 -0.5500
  704SOL    HW112998   4.268   8.537   6.091  0.8642 -0.5992 -0.8246
  704SOL    HW212999   4.133   8.477   6.021  0.0856 -0.2093  0.3081
  705SOL     OW13000   8.371   1.426   0.665  0.4875  0.3533  0.0274
  705SOL    HW113001   8.464   1.460   0.653  0.4648 -0.1059 -1.4920
  705SOL    HW213002   8.312   1.500   0.696  0.7310  1.3576 -1.8569
  706SOL     OW13003   4.019   1.803   4.648  0.9656  0.1817 -0.3924
  706SOL    HW113004   4.106   1.848   4.667  0.6380  1.3731 -1.5878
  706SOL    HW213005   3.944   1.864   4.672  0.5095  0.1649 -1.7116
  707SOL     OW13006   7.336   3.128   2.367  0.2065 -0.0846  0.2098
  707SOL    HW113007   7.269   3.202   2.372 -0.4476 -0.6812  0.3332
  707SOL    HW213008   7.336   3.089   2.274 -0.0885 -0.5131  0.3861
  708SOL     OW13009   2.736   3.356   0.951 -0.0607  0.1393 -0.3159
  708SOL    HW113010   2.698   3.267   0.978  0.7874 -0.2431 -0.3739
  708SOL    HW213011   2.828   3.344   0.915  0.5455  1.1939  0.8379
  709SOL     OW13012   0.627   0.072   0.779  0.0432  0.5502  0.4213
  709SOL    HW113013   0.567   0.151   0.788 -0.7400 -0.0437  0.4598
  709SOL    HW213014   0.617   0.033   0.687  0.2103  0.3276  0.4983
  710SOL     OW13015   4.279   7.879   4.664  0.1138  0.1983  0.4375
  710SOL    HW113016   4.250   7.942   4.591 -1.9301 -1.3329 -0.1093
  710SOL    HW213017   4.242   7.911   4.751 -0.5131  0.0199  0.2372
  711SOL     OW13018   8.867   6.178   2.640  0.3710 -0.0357  0.5472
  711SOL    HW113019   8.961   6.158   2.611  0.7891  0.3683  1.5913
  711SOL    HW213020   8.815   6.213   2.562  0.4675 -2.3256 -0.5849
  712SOL     OW13021   9.771   4.861   6.259  0.2563 -0.3586  0.0789
  712SOL    HW113022   9.807   4.769   6.245  1.4142 -0.0035  0.7188
  712SOL    HW213023   9.761   4.878   6.357 -1.2949 -0.3045 -0.0634
  714SOL     OW13024   3.454   5.727   2.291 -0.3398  0.4027  0.2655
  714SOL    HW113025   3.532   5.666   2.301 -0.9466 -0.4800 -0.2932
  714SOL    HW213026   3.432   5.768   2.380  1.8881  2.1013  0.0596
  715SOL     OW13027   3.858   0.572   2.840  0.0300 -0.4919  0.4056
  715SOL    HW113028   3.772   0.591   2.792 -0.0605  0.4227  0.9373
  715SOL    HW213029   3.928   0.547   2.773  0.3614  2.4262 -0.3892
  716SOL     OW13030   4.378   1.392   4.127 -0.2621 -0.1061 -0.1388
  716SOL    HW113031   4.395   1.487   4.153 -1.0087  0.7067 -2.4405
  716SOL    HW213032   4.406   1.331   4.201  1.6989  1.8103  0.7457
  717SOL     OW13033   9.467   5.604   1.833  0.1460  0.4496 -0.2742
  717SOL    HW113034   9.416   5.521   1.857  1.8195  0.2037  2.7754
  717SOL    HW213035   9.413   5.661   1.772 -2.9863 -0.6203  1.4375
  718SOL     OW13036   4.489   3.183   3.081 -0.7909 -0.0098  0.2237
  718SOL    HW113037   4.488   3.112   3.011 -0.0975  0.3512 -0.1541
  718SOL    HW213038   4.526   3.146   3.166 -1.2301 -0.3301  0.2773
  720SOL     OW13039   9.884   0.781   0.002 -0.0931  0.3058  0.1360
  720SOL    HW113040   9.831   0.701  -0.026  1.0247  0.3891 -2.2753
  720SOL    HW213041   9.913   0.769   0.097 -3.5162 -0.1967  1.2046
  721SOL     OW13042   8.063   1.122   4.738 -0.3937  0.1133  0.2606
  721SOL    HW113043   8.027   1.101   4.829  0.7755  0.7270  0.8668
  721SOL    HW213044   8.101   1.039   4.697 -0.4868 -0.0627  0.5270
  723SOL     OW13045   7.387   8.728   4.433  0.0919  1.0422 -0.1734
  723SOL    HW113046   7.304   8.689   4.391  1.0603 -0.8562 -0.3948
  723SOL    HW213047   7.386   8.827   4.422 -0.6321  0.7872 -2.9772
  724SOL     OW13048   6.265   0.836   3.165  0.0490  0.1304  0.1824
  724SOL    HW113049   6.207   0.759   3.190  0.8055 -0.9679 -1.3510
  724SOL    HW213050   6.310   0.871   3.247  0.0119 -1.3332  0.8530
  725SOL     OW13051   3.184   7.469   6.156 -0.6501 -0.2851 -0.4208
  725SOL    HW113052   3.246   7.529   6.206 -1.7966  0.0826  0.5705
  725SOL    HW213053   3.229   7.437   6.072  0.7151  0.3052  0.0777
  726SOL     OW13054   8.508   8.406   1.003 -0.7112 -0.5452  1.4505
  726SOL    HW113055   8.592   8.373   0.961 -0.7415  1.5685 -0.3965
  726SOL    HW213056   8.447   8.329   1.020  0.9253 -1.9122  1.2973
  727SOL     OW13057   1.607   6.193   2.192 -0.4904  0.4104  0.8429
  727SOL    HW113058   1.655   6.106   2.202  0.0473  0.8710  2.3728
  727SOL    HW213059   1.515   6.177   2.156  0.7219 -0.5023 -2.0462
  728SOL     OW13060   3.447   2.948   0.576 -0.1202  0.1819 -0.3175
  728SOL    HW113061   3.499   2.907   0.651  2.1906 -0.1050 -2.0233
  728SOL    HW213062   3.374   2.885   0.548 -0.4038 -0.1117  1.0632
  729SOL     OW13063   4.512   7.428   3.967 -0.1651 -0.3472  0.1787
  729SOL    HW113064   4.425   7.469   3.938  0.3429  0.4580 -0.2160
  729SOL    HW213065   4.496   7.333   3.995 -0.8368 -0.8266 -1.7783
  730SOL     OW13066   2.856   2.026   1.055  0.2595  0.0522 -0.2351
  730SOL    HW113067   2.955   2.028   1.061  0.2423 -1.5233  0.8204
  730SOL    HW213068   2.817   2.102   1.108  0.7970 -1.3104  2.1348
  731SOL     OW13069   7.083   0.386   0.468  0.1197 -0.0391 -0.4250
  731SOL    HW113070   7.077   0.308   0.405  0.8218  0.5248 -1.2007
  731SOL    HW213071   7.134   0.460   0.424  0.3371  0.4784  0.6969
  732SOL     OW13072   9.118   2.916   4.464  0.4845 -0.4603 -0.4559
  732SOL    HW113073   9.070   3.000   4.490  1.0236 -0.4075  0.4103
  732SOL    HW213074   9.052   2.849   4.430 -0.2201 -0.3948  0.7370
  733SOL     OW13075   4.613   0.734   5.504 -0.0640  0.6324  0.4450
  733SOL    HW113076   4.689   0.669   5.496  2.0298  3.1042 -0.3695
  733SOL    HW213077   4.527   0.683   5.510  1.4498 -2.2093 -0.6951
  734SOL     OW13078   9.603   8.690   3.064 -0.0197  0.0986  0.0340
  734SOL    HW113079   9.659   8.611   3.087  2.4568  1.1989 -1.9482
  734SOL    HW213080   9.530   8.663   3.002 -0.4095 -0.9843  0.9644
  735SOL     OW13081   9.161   6.110   3.295  0.0140 -0.2787  0.2361
  735SOL    HW113082   9.075   6.059   3.293 -0.5442  0.5824  1.5693
  735SOL    HW213083   9.149   6.199   3.250  0.4860 -0.5571 -0.4579
  736SOL     OW13084   9.330   1.287   3.388 -0.5132 -0.2050 -0.5515
  736SOL    HW113085   9.418   1.240   3.373 -0.7629 -0.8995  0.1351
  736SOL    HW213086   9.273   1.232   3.449 -0.6449  1.1996  0.6128
  737SOL     OW13087   5.150   8.551   4.340  0.3676 -0.0215 -0.0659
  737SOL    HW113088   5.087   8.503   4.401  0.1469  0.4161  0.0533
  737SOL    HW213089   5.187   8.631   4.387 -1.8625  1.8580 -1.4226
  738SOL     OW13090   9.223   7.782   3.550 -0.6441  0.2642 -0.0383
  738SOL    HW113091   9.268   7.695   3.528 -0.7160  0.2112  0.0256
  738SOL    HW213092   9.288   7.843   3.596  0.0425  1.0486 -1.9895
  739SOL     OW13093   7.403   3.196   0.536  0.5000 -0.0698  0.0857
  739SOL    HW113094   7.369   3.256   0.464  3.0635  1.0973 -0.2247
  739SOL    HW213095   7.354   3.214   0.621 -0.9654  0.1688 -0.8015
  740SOL     OW13096   5.368   1.294   6.250 -0.4806 -0.3954 -0.5506
  740SOL    HW113097   5.396   1.209   6.205  1.2079  0.2880 -0.8601
  740SOL    HW213098   5.361   1.367   6.181  1.9804  0.6308  0.2276
  741SOL     OW13099   0.858   0.876   0.988 -0.4417 -0.0557  0.0253
  741SOL    HW113100   0.837   0.917   0.899  1.2415  1.5847  0.3582
  741SOL    HW213101   0.864   0.948   1.058  2.5196 -0.8214  0.6306
  742SOL     OW13102   5.916   4.879   2.033 -0.5591  0.0041  0.0519
  742SOL    HW113103   5.913   4.812   1.958  2.8427  1.1564 -1.2282
  742SOL    HW213104   5.990   4.855   2.096  0.7351  2.4625 -0.4401
  743SOL     OW13105   2.884   1.669   0.116  0.5504 -0.4349  0.0595
  743SOL    HW113106   2.830   1.745   0.080  0.7283  0.2106  1.1523
  743SOL    HW213107   2.970   1.702   0.153  1.9319 -1.5215 -2.0577
  744SOL     OW13108   8.787   4.678   5.936 -0.2954  0.0639  0.0982
  744SOL    HW113109   8.784   4.593   5.882 -0.0335 -0.5941  1.1061
  744SOL    HW213110   8.755   4.754   5.880 -1.1444 -0.8054 -0.6170
  745SOL     OW13111   6.569   2.002   1.759 -0.5545 -0.2759  0.1993
  745SOL    HW113112   6.474   1.992   1.728 -0.6854 -1.2833  0.8965
  745SOL    HW213113   6.630   1.997   1.680 -1.0876  0.4296 -0.2602
  746SOL     OW13114   0.045   6.231   3.627 -1.1397  0.1233  0.3751
  746SOL    HW113115   0.049   6.263   3.532  0.8029 -2.7815 -0.6373
  746SOL    HW213116  -0.016   6.152   3.633  1.9581 -2.3735  0.5708
  747SOL     OW13117   3.913   4.035   3.897  0.3685  0.2363 -0.0638
  747SOL    HW113118   3.961   4.047   3.983 -0.7995  0.3588  0.5903
  747SOL    HW213119   3.938   4.108   3.834 -0.2014  1.2428  0.8538
  748SOL     OW13120   8.219   2.323   0.128 -0.3080 -0.2455 -0.4549
  748SOL    HW113121   8.174   2.245   0.085 -1.7471  0.9880 -1.2496
  748SOL    HW213122   8.312   2.298   0.153 -0.5708 -2.0449 -1.1960
  751SOL     OW13123   2.481   4.585   1.847 -0.0829 -0.1340  0.0205
  751SOL    HW113124   2.419   4.630   1.783  0.5473 -0.4201 -0.8053
  751SOL    HW213125   2.575   4.613   1.827  0.2062 -0.9741  0.2078
  752SOL     OW13126   2.325   5.963   1.012 -1.1010  0.2086 -0.1563
  752SOL    HW113127   2.310   6.038   0.947 -0.6128 -0.0328 -0.5533
  752SOL    HW213128   2.319   5.876   0.964 -0.2750  0.0451  0.0372
  754SOL     OW13129   7.870   6.634   5.521 -0.2135  0.2151 -0.2117
  754SOL    HW113130   7.772   6.613   5.514 -0.1824  0.7140 -2.7685
  754SOL    HW213131   7.922   6.549   5.518 -0.4972  0.0593 -0.9697
  755SOL     OW13132   1.163   0.190   6.316 -0.3610  0.3570  0.5091
  755SOL    HW113133   1.206   0.125   6.253 -2.8982 -0.3210 -0.5774
  755SOL    HW213134   1.228   0.213   6.389  0.6501 -3.2859  0.8602
  756SOL     OW13135   4.235   9.497   5.278  0.1403 -0.3080  0.4875
  756SOL    HW113136   4.184   9.552   5.212  0.8416 -0.4723 -0.1936
  756SOL    HW213137   4.302   9.555   5.325  0.8385 -0.5484 -0.1898
  758SOL     OW13138   1.923   4.825   3.227 -0.6619  0.5586  0.8123
  758SOL    HW113139   1.872   4.745   3.195  1.0452 -0.7943  1.3692
  758SOL    HW213140   1.994   4.849   3.161 -2.1541  2.6253 -0.1090
  759SOL     OW13141   1.844   5.440   4.665  0.6085  0.2903 -0.1728
  759SOL    HW113142   1.791   5.431   4.749 -1.3910 -0.0573 -1.4362
  759SOL    HW213143   1.831   5.359   4.608  2.0803  0.4400 -0.7571
  760SOL     OW13144   0.956   7.719   2.076 -0.1000 -0.1047  0.0079
  760SOL    HW113145   1.042   7.715   2.128  0.5323  2.2690 -0.7544
  760SOL    HW213146   0.976   7.705   1.979 -0.8668 -1.5601  0.0541
  761SOL     OW13147   0.459   3.921   0.792  0.1168 -0.4233 -0.1044
  761SOL    HW113148   0.458   3.969   0.880 -0.3934 -1.3769  0.4134
  761SOL    HW213149   0.532   3.853   0.792  1.6988  1.2100 -1.3251
  764SOL     OW13150   6.189   8.363   4.785 -0.5422  0.0755  0.0171
  764SOL    HW113151   6.275   8.377   4.835  0.2196  1.1199 -1.5585
  764SOL    HW213152   6.114   8.355   4.851  0.3563  2.0706  1.3537
  765SOL     OW13153   6.848   2.717   5.624 -0.1896  0.3144 -0.1192
  765SOL    HW113154   6.804   2.688   5.709  1.2384 -0.6623  0.3180
  765SOL    HW213155   6.932   2.767   5.645  0.7967 -0.9430 -0.9347
  766SOL     OW13156   4.255   2.219   3.695  0.0831  0.0498 -0.0220
  766SOL    HW113157   4.306   2.158   3.757 -0.2660 -0.4115 -0.1861
  766SOL    HW213158   4.201   2.164   3.631 -0.1297  0.5338 -0.2614
  767SOL     OW13159   3.640   2.397   2.208  0.4260 -0.0915  0.4350
  767SOL    HW113160   3.619   2.300   2.192  0.7892  0.0038 -0.6123
  767SOL    HW213161   3.623   2.449   2.125 -0.8482  0.9382  1.3177
  768SOL     OW13162   8.008   2.718   0.922  0.7599 -0.3267  0.2741
  768SOL    HW113163   8.097   2.706   0.966  0.9538  2.7787  0.7926
  768SOL    HW213164   8.009   2.801   0.866 -2.1988  0.3909  1.2247
  769SOL     OW13165   0.252   2.311   1.267 -0.4279 -0.0475 -0.3407
  769SOL    HW113166   0.221   2.330   1.360  1.2946  1.5339 -0.0578
  769SOL    HW213167   0.316   2.233   1.269  0.1859  0.4594 -0.0876
  770SOL     OW13168   0.329   4.104   1.008  0.0720  0.1174 -0.1017
  770SOL    HW113169   0.302   4.048   1.086  0.8592 -1.0777 -0.6632
  770SOL    HW213170   0.372   4.189   1.040 -3.5836  1.7122  0.7817
  771SOL     OW13171   8.038   4.855   6.301  0.3366  0.0919  0.3795
  771SOL    HW113172   8.008   4.788   6.370 -0.8028 -1.0729 -1.2131
  771SOL    HW213173   8.125   4.825   6.262 -0.4745 -0.8060 -0.7666
  772SOL     OW13174   2.309   1.690   6.250 -0.0462 -0.0900 -0.3094
  772SOL    HW113175   2.320   1.591   6.241 -0.4962 -0.2777  1.1132
  772SOL    HW213176   2.398   1.732   6.265 -0.2758 -0.7280  3.0921
  773SOL     OW13177   6.895   5.609   0.984 -0.1284  0.5181 -0.2321
  773SOL    HW113178   6.858   5.667   0.911 -0.1035 -2.1170 -2.4593
  773SOL    HW213179   6.994   5.598   0.970 -0.4036 -1.3698 -0.8461
  774SOL     OW13180   3.984   8.148   5.094 -0.0459  0.5147 -0.1152
  774SOL    HW113181   4.082   8.171   5.095  0.3160 -0.9014 -0.4689
  774SOL    HW213182   3.930   8.230   5.110  1.1941  1.4151 -0.4378
  775SOL     OW13183   2.766   8.898   0.688 -0.2267  0.9551 -0.1301
  775SOL    HW113184   2.792   8.857   0.776  2.1888  2.0788 -0.2927
  775SOL    HW213185   2.753   8.996   0.700 -0.7790  0.9717 -0.8562
  776SOL     OW13186   8.854   2.507   1.637  0.1021 -0.7901 -0.0212
  776SOL    HW113187   8.832   2.592   1.588  1.7416  0.2761  1.0406
  776SOL    HW213188   8.771   2.474   1.684 -0.5084  0.3506 -0.2617
  777SOL     OW13189   0.693   5.404   2.223  0.1432 -0.4447 -0.0004
  777SOL    HW113190   0.725   5.343   2.296 -0.5800 -1.1463 -0.2574
  777SOL    HW213191   0.646   5.482   2.264  2.1490  0.5956  0.3800
  778SOL     OW13192   8.967   2.577   0.179 -0.3402  0.3186 -0.0904
  778SOL    HW113193   9.040   2.636   0.143  0.6522 -0.7103  0.2185
  778SOL    HW213194   8.937   2.613   0.268  1.5719 -0.6774  0.9891
  779SOL     OW13195   4.134   8.476   4.327  0.1978 -0.6562  0.3306
  779SOL    HW113196   4.100   8.476   4.421 -0.5149  0.0303  0.0849
  779SOL    HW213197   4.224   8.520   4.324  0.6965 -1.6478  0.8495
  780SOL     OW13198   9.252   3.808   5.213 -0.1682  0.1008  0.4927
  780SOL    HW113199   9.219   3.872   5.282  2.0594  1.5874  0.2336
  780SOL    HW213200   9.300   3.732   5.258  1.4166  1.1476  0.6090
  781SOL     OW13201   6.906   6.395   6.094 -0.4747  0.2252  0.2251
  781SOL    HW113202   6.965   6.320   6.064 -1.9677 -2.6180  4.0273
  781SOL    HW213203   6.818   6.388   6.047  0.1204  0.8891 -1.0023
  782SOL     OW13204   3.422   3.804   6.214  0.5508  0.2156 -0.0934
  782SOL    HW113205   3.520   3.819   6.207  0.4358  1.0996  0.0759
  782SOL    HW213206   3.387   3.770   6.127  0.7905  1.2230 -0.5898
  786SOL     OW13207   7.298   2.716   2.345  0.0225  0.5779  0.3394
  786SOL    HW113208   7.368   2.644   2.353 -0.5484  0.0531  0.6738
  786SOL    HW213209   7.235   2.692   2.272  0.4757  1.2992 -0.2912
  788SOL     OW13210   9.140   2.593   3.302  0.2780  0.0416  0.3410
  788SOL    HW113211   9.062   2.636   3.255  0.7323 -0.5082 -0.9466
  788SOL    HW213212   9.141   2.621   3.398 -0.9833  0.7721  0.1508
  789SOL     OW13213   5.949   0.966   1.010  0.2790 -0.1572 -0.0685
  789SOL    HW113214   5.892   1.019   1.074  1.2048  0.8521 -0.0662
  789SOL    HW213215   5.971   0.877   1.051 -1.5341 -0.6768 -0.1881
  790SOL     OW13216   4.392   8.873   1.582 -0.0097  0.5169 -0.0500
  790SOL    HW113217   4.394   8.968   1.549 -1.7150  1.2658  1.8709
  790SOL    HW213218   4.485   8.836   1.583  0.9704  2.8707  1.0605
  791SOL     OW13219   4.799   0.390   1.290 -0.3535 -0.4438 -0.2960
  791SOL    HW113220   4.805   0.301   1.244 -0.3390 -0.3135 -0.5459
  791SOL    HW213221   4.890   0.432   1.294 -0.5523  0.0608 -1.1698
  792SOL     OW13222   3.055   6.945   6.247  0.2203  0.0446 -0.4815
  792SOL    HW113223   2.974   6.967   6.300 -0.0005 -2.1980  0.1742
  792SOL    HW213224   3.051   6.990   6.158 -1.1250  0.9484  0.0328
  793SOL     OW13225   9.209   1.357   5.029  0.3047 -0.6088 -0.3298
  793SOL    HW113226   9.118   1.342   4.991 -0.0611  0.8932 -0.0920
  793SOL    HW213227   9.237   1.452   5.013  1.0217 -0.5276  1.2714
  794SOL     OW13228   7.357   4.004   1.792 -0.2425 -0.0305 -0.0418
  794SOL    HW113229   7.341   4.102   1.783  0.8238  0.0140 -1.5667
  794SOL    HW213230   7.446   3.989   1.836  0.3047 -0.3250 -1.2468
  795SOL     OW13231   5.405   9.612   3.072  0.5833  0.0613 -0.1453
  795SOL    HW113232   5.355   9.527   3.055  0.6028 -0.0768  0.4958
  795SOL    HW213233   5.504   9.593   3.066  0.5972 -0.0447  0.3742
  796SOL     OW13234   1.967   0.255   5.249 -0.4984 -0.5093 -0.4798
  796SOL    HW113235   1.897   0.275   5.318 -2.0773 -1.4727 -1.7601
  796SOL    HW213236   2.058   0.274   5.287 -1.3227 -1.1858  1.9063
  797SOL     OW13237   7.051   0.297   5.889  0.2681 -0.4252  0.1267
  797SOL    HW113238   7.023   0.248   5.806  1.2894 -2.0850  0.7302
  797SOL    HW213239   7.119   0.367   5.865 -1.7313  1.2414 -0.8408
  798SOL     OW13240   2.510   7.070   3.365 -0.0446  0.4855  0.2928
  798SOL    HW113241   2.467   7.119   3.441 -0.2503 -0.9851  1.1360
  798SOL    HW213242   2.505   7.126   3.282 -0.3208  1.8632  1.2264
  800SOL     OW13243   2.539   6.053   5.283  0.3651  0.6294 -0.3364
  800SOL    HW113244   2.574   5.960   5.297  4.0355  1.8197 -1.1088
  800SOL    HW213245   2.525   6.097   5.372 -0.5150 -0.3253  0.0123
  801SOL     OW13246   0.155   1.441   1.842  0.1011 -0.5290 -0.0340
  801SOL    HW113247   0.064   1.409   1.869 -0.3256  0.3266 -0.4335
  801SOL    HW213248   0.185   1.391   1.760 -0.7001  0.2945 -0.8454
  803SOL     OW13249   9.938   0.778   4.734 -0.3752 -0.1462 -0.4443
  803SOL    HW113250   9.868   0.800   4.666 -0.7799 -0.4125 -0.1164
  803SOL    HW213251   9.993   0.859   4.753 -2.4196  0.8215  1.4252
  804SOL     OW13252   3.962   3.477   4.227  0.0396 -0.1687  0.1674
  804SOL    HW113253   3.950   3.512   4.319 -0.9501 -1.3124  0.4955
  804SOL    HW213254   4.022   3.397   4.229 -0.9014 -0.8919 -0.0088
  806SOL     OW13255   3.087   0.727   3.164  0.4191 -0.3692 -0.4328
  806SOL    HW113256   3.175   0.757   3.203  0.2655 -0.2620 -0.1689
  806SOL    HW213257   3.063   0.788   3.089  1.7209 -1.7876 -2.0446
  807SOL     OW13258   2.029   4.425   2.089  0.1504 -0.3797 -0.3843
  807SOL    HW113259   2.020   4.485   2.010 -0.7146  2.3893  1.7399
  807SOL    HW213260   1.943   4.424   2.140  0.9898 -1.3667  1.0506
  809SOL     OW13261   0.948   5.549   0.619 -0.1136  0.3887 -0.0142
  809SOL    HW113262   1.008   5.629   0.618 -2.6420  2.3662 -1.4710
  809SOL    HW213263   0.972   5.488   0.543  0.6989  0.6278  0.0462
  810SOL     OW13264   0.638   5.824   2.852 -0.0046  0.2004 -0.4080
  810SOL    HW113265   0.711   5.793   2.790 -0.3469  0.2621 -0.8472
  810SOL    HW213266   0.592   5.744   2.891 -0.5874  0.1471 -1.1863
  812SOL     OW13267   0.129   9.474   3.423  0.0421 -0.1521 -0.4074
  812SOL    HW113268   0.073   9.392   3.434 -0.7574  0.2408 -1.4120
  812SOL    HW213269   0.133   9.525   3.509  0.0873 -0.9604  0.0655
  815SOL     OW13270   5.793   9.650   5.857 -0.1142  0.0734  0.0027
  815SOL    HW113271   5.713   9.702   5.886  1.8708  2.4072  1.5332
  815SOL    HW213272   5.817   9.584   5.928  0.8027  1.1675  0.7333
  817SOL     OW13273   7.306   3.842   1.006 -0.6585  0.1182 -0.0811
  817SOL    HW113274   7.386   3.784   0.998 -2.2903 -2.3398  0.8559
  817SOL    HW213275   7.330   3.927   1.052  1.0332 -1.3808  1.8772
  819SOL     OW13276   0.948   5.288   3.672 -0.3543 -0.1835 -0.0231
  819SOL    HW113277   1.038   5.330   3.688  0.6559 -2.3864  0.3151
  819SOL    HW213278   0.960   5.192   3.647 -2.6088 -0.3623 -0.5275
  823SOL     OW13279   6.691   1.730   2.257  0.4873 -0.3163 -0.1166
  823SOL    HW113280   6.644   1.795   2.197  1.4914 -0.3446 -0.9408
  823SOL    HW213281   6.661   1.637   2.236  1.0347 -0.3487 -0.7555
  824SOL     OW13282   0.941   2.967   3.853  0.1839  0.5081 -0.6181
  824SOL    HW113283   0.963   2.980   3.756 -2.3361  0.3582 -1.2584
  824SOL    HW213284   0.902   3.052   3.889 -0.2679  0.0960 -0.1423
  825SOL     OW13285   1.938   8.796   1.121  0.5453 -0.4110 -0.1698
  825SOL    HW113286   1.994   8.745   1.186  0.9449  0.7955  0.4524
  825SOL    HW213287   1.874   8.734   1.077  0.8321 -1.3976  0.7678
  826SOL     OW13288   2.696   2.412   4.996 -0.2313  0.0827  0.3283
  826SOL    HW113289   2.711   2.493   4.941 -0.7717  0.8073  1.2302
  826SOL    HW213290   2.598   2.391   4.999 -0.0470 -0.9085 -0.3314
  832SOL     OW13291   7.305   1.864   3.192 -0.5193 -0.2493  0.7065
  832SOL    HW113292   7.327   1.783   3.247 -1.4174 -2.1443 -1.6654
  832SOL    HW213293   7.249   1.837   3.114  1.2078  2.2929 -1.4879
  833SOL     OW13294   1.882   1.628   3.026  0.5174 -0.3744 -0.1566
  833SOL    HW113295   1.976   1.661   3.013 -0.4143  4.3131  3.5240
  833SOL    HW213296   1.874   1.582   3.114 -0.6984 -0.4881 -0.3118
  835SOL     OW13297   0.148   9.568   5.593 -0.9869  0.1057 -0.7959
  835SOL    HW113298   0.205   9.487   5.578  1.4677  1.7901 -0.7775
  835SOL    HW213299   0.129   9.577   5.691  1.4148  1.2985 -0.4212
  836SOL     OW13300   0.033   8.263   3.348  0.1488  0.5663 -0.1049
  836SOL    HW113301   0.049   8.223   3.258 -0.4762  1.3993 -0.5921
  836SOL    HW213302   0.115   8.312   3.378  0.9207 -1.0557  0.4979
  837SOL     OW13303   2.915   0.951   2.275 -0.2404 -0.0438  0.4901
  837SOL    HW113304   2.874   1.033   2.316 -2.2375 -1.1280  0.7204
  837SOL    HW213305   3.014   0.961   2.274 -0.4271  2.1816  0.9479
  838SOL     OW13306   7.931   5.612   0.224  1.0588  0.0197  0.4731
  838SOL    HW113307   8.002   5.575   0.285  0.3856  0.6932  1.6827
  838SOL    HW213308   7.974   5.669   0.154  1.7060  0.4509  1.2188
  839SOL     OW13309   1.507   5.529   4.768  0.0682  0.1711 -0.0710
  839SOL    HW113310   1.492   5.430   4.763  0.0401  0.0966  1.1768
  839SOL    HW213311   1.547   5.561   4.683 -0.9466 -0.7314 -0.9034
  840SOL     OW13312  -0.006   5.615   6.255  0.5075 -0.0963 -0.5320
  840SOL    HW113313   0.063   5.601   6.184  1.0975 -0.8171  0.1843
  840SOL    HW213314   0.036   5.655   6.336 -0.7129  3.7928 -1.6685
  841SOL     OW13315   8.401   7.357   1.407 -0.4506 -0.2541 -0.3211
  841SOL    HW113316   8.328   7.294   1.380 -2.8056  2.4679 -0.4939
  841SOL    HW213317   8.386   7.447   1.366  1.3696  1.2131  2.0442
  842SOL     OW13318   9.723   8.302   2.290  0.4290 -0.3173  0.3833
  842SOL    HW113319   9.739   8.212   2.332 -0.2071 -1.1761 -1.1732
  842SOL    HW213320   9.625   8.321   2.288  0.4637 -0.2166 -0.5553
  844SOL     OW13321   1.290   0.310   5.306  0.0507  0.2394  0.1061
  844SOL    HW113322   1.233   0.368   5.247 -1.5968 -1.2664  0.1584
  844SOL    HW213323   1.306   0.356   5.393  0.8264  1.6328 -0.7464
  845SOL     OW13324   1.041   3.275   3.539 -0.2363  0.3803  0.2487
  845SOL    HW113325   1.102   3.303   3.613 -1.2975  2.6525  0.3086
  845SOL    HW213326   1.079   3.308   3.452 -0.0523 -0.4889 -0.0068
  846SOL     OW13327   2.795   9.861   1.411 -0.3394  0.0013 -0.4696
  846SOL    HW113328   2.706   9.873   1.367 -0.2084 -0.6209 -0.9218
  846SOL    HW213329   2.845   9.947   1.409 -1.2709  0.5724  0.5547
  849SOL     OW13330   7.288   4.265   1.909  0.4847 -0.0142 -0.2835
  849SOL    HW113331   7.299   4.361   1.882 -0.2431  0.9205  2.5122
  849SOL    HW213332   7.366   4.239   1.966 -0.1102 -0.5733  0.2779
  850SOL     OW13333   5.770   2.414   0.363  0.0810 -0.2107 -0.3941
  850SOL    HW113334   5.685   2.433   0.313 -0.5473 -1.0124  0.3655
  850SOL    HW213335   5.846   2.462   0.319 -0.3402 -1.4622 -2.5849
  852SOL     OW13336   5.819   0.680   1.469  0.0232 -0.7012  0.2658
  852SOL    HW113337   5.918   0.678   1.486  0.2418 -0.4266 -0.9217
  852SOL    HW213338   5.781   0.589   1.487  0.2450 -0.4408  2.1171
  853SOL     OW13339   5.154   1.850   4.966  0.0133  0.9615  0.3997
  853SOL    HW113340   5.146   1.759   5.005  0.2212  0.7346 -0.0779
  853SOL    HW213341   5.173   1.916   5.038  3.1944  0.1629  0.3775
  854SOL     OW13342   8.273   3.398   4.062 -0.1040  0.7894 -0.6410
  854SOL    HW113343   8.228   3.372   4.148 -1.4852  0.0994 -1.5512
  854SOL    HW213344   8.298   3.495   4.066 -3.1240  1.6256 -0.6842
  855SOL     OW13345   8.973   4.301   4.159 -0.2124  0.4849  0.8566
  855SOL    HW113346   8.976   4.353   4.244  0.1642  1.3648  0.3053
  855SOL    HW213347   8.898   4.335   4.102  0.5218  0.9592  0.1590
  856SOL     OW13348   6.667   3.497   0.376 -0.6118  0.5187  0.6884
  856SOL    HW113349   6.587   3.456   0.332 -1.7103  1.9732  1.2798
  856SOL    HW213350   6.700   3.573   0.320 -0.2972  0.5926  0.9738
  857SOL     OW13351   4.938   8.338   2.991  0.1921  0.4118 -0.1618
  857SOL    HW113352   4.851   8.335   2.943  0.3886  1.3812 -0.5895
  857SOL    HW213353   4.941   8.417   3.052 -0.0354 -0.7785  1.4406
  858SOL     OW13354   2.541   8.067   6.098 -0.7013 -0.3092 -0.0201
  858SOL    HW113355   2.512   8.032   6.009  0.4274 -0.0714 -0.4933
  858SOL    HW213356   2.494   8.153   6.117  0.2682  0.4830 -1.1389
  859SOL     OW13357   9.890   6.630   1.081  0.3882  0.0646  0.4121
  859SOL    HW113358   9.989   6.639   1.076  0.7333 -2.5149  1.8627
  859SOL    HW213359   9.865   6.578   1.162 -2.1620  0.5195 -0.0262
  860SOL     OW13360   4.519   0.361   0.032 -0.1011  0.0862  0.3234
  860SOL    HW113361   4.581   0.320   0.099 -0.4602  2.7253  2.3815
  860SOL    HW213362   4.560   0.357  -0.059  0.6856 -3.0030  0.7476
  861SOL     OW13363   9.200   6.680   5.942 -0.4581  0.0886  0.3807
  861SOL    HW113364   9.238   6.710   6.029  1.0009 -0.5698 -0.0032
  861SOL    HW213365   9.275   6.664   5.877 -1.4773 -0.1276 -0.7688
  862SOL     OW13366   5.181   6.021   1.087  0.8266  0.3447 -0.1302
  862SOL    HW113367   5.136   6.110   1.095 -0.4368 -0.1920 -1.1218
  862SOL    HW213368   5.178   5.973   1.174 -0.5519  0.3019 -0.2005
  863SOL     OW13369   0.444   2.104   1.205 -0.0175  0.0185 -0.1464
  863SOL    HW113370   0.418   2.097   1.109  2.0239 -1.7367 -0.6110
  863SOL    HW213371   0.440   2.014   1.248 -0.7788  0.7651  1.4073
  864SOL     OW13372   1.116   9.813   4.046 -0.2453  0.1158  0.3381
  864SOL    HW113373   1.126   9.841   3.950 -0.5128  0.0809  0.2981
  864SOL    HW213374   1.163   9.878   4.105 -0.2429  0.2440  0.1959
  865SOL     OW13375   5.406   7.758   3.896  0.1612  0.4692  0.1860
  865SOL    HW113376   5.389   7.762   3.797 -0.7939 -0.6189  0.3009
  865SOL    HW213377   5.347   7.690   3.937  0.0818  1.3941  1.6303
  866SOL     OW13378   8.789   3.794   1.303 -0.3578 -0.2237  0.7363
  866SOL    HW113379   8.878   3.833   1.279  0.4711 -1.6903  1.3353
  866SOL    HW213380   8.737   3.776   1.220  1.2174 -2.3394  0.1710
  867SOL     OW13381   2.136   6.036   3.541  0.0740 -0.2672 -0.7778
  867SOL    HW113382   2.184   6.120   3.563  0.2166 -0.7934  0.9698
  867SOL    HW213383   2.046   6.058   3.502  0.4271  0.6880 -1.0612
  868SOL     OW13384   0.018   0.659   2.848  0.0359 -0.2867 -0.0926
  868SOL    HW113385  -0.056   0.658   2.915 -3.9731  2.3807 -4.2656
  868SOL    HW213386   0.054   0.752   2.840  1.5598 -0.9018 -0.5704
  869SOL     OW13387   1.315   9.512   3.233  0.4088 -0.0107  0.7433
  869SOL    HW113388   1.348   9.599   3.270 -1.9576  1.2396  0.0356
  869SOL    HW213389   1.287   9.453   3.309  0.0553  0.6825  1.1640
  870SOL     OW13390   9.799   1.991   6.363  0.0860 -0.1539  0.1325
  870SOL    HW113391   9.746   2.008   6.279  0.3105 -1.1358 -0.2191
  870SOL    HW213392   9.759   2.042   6.439  0.4094  1.4576 -0.7576
  871SOL     OW13393   5.318   8.049   3.375  0.0886 -0.2625  0.6963
  871SOL    HW113394   5.372   7.994   3.440  0.5045 -0.1489  0.4445
  871SOL    HW213395   5.333   8.015   3.282  0.5901  0.4848  0.5057
  873SOL     OW13396   1.341   8.985   4.357 -0.4497 -0.3764 -0.1667
  873SOL    HW113397   1.268   8.946   4.414  0.6900 -0.1553  1.4932
  873SOL    HW213398   1.367   8.918   4.288 -0.5450 -1.4248  0.7845
  874SOL     OW13399   8.904   8.387   5.926  0.2781  0.1643  0.1342
  874SOL    HW113400   8.952   8.313   5.879  1.2819  0.5250  0.5819
  874SOL    HW213401   8.966   8.464   5.939  0.4119 -0.4066  3.2033
  875SOL     OW13402   0.862   7.073   2.703 -0.2169 -0.4603 -0.1385
  875SOL    HW113403   0.789   7.114   2.647 -0.3304 -0.6471 -0.1255
  875SOL    HW213404   0.910   7.146   2.752  0.3538 -0.2095 -1.0395
  876SOL     OW13405   9.898   5.303   2.423  0.4190 -0.8052  0.2041
  876SOL    HW113406   9.903   5.204   2.409 -1.2333 -0.8153 -0.4948
  876SOL    HW213407   9.824   5.324   2.486  0.6926 -0.0081  0.2627
  877SOL     OW13408   2.030   7.871   2.583 -0.2754  0.4304 -0.5073
  877SOL    HW113409   2.110   7.903   2.532 -0.6620  0.7101 -0.9357
  877SOL    HW213410   1.994   7.946   2.638 -0.4437  0.3943 -0.5686
  878SOL     OW13411   3.651   4.993   5.345 -0.3471  0.6460  0.1738
  878SOL    HW113412   3.676   5.067   5.406  0.6120  0.3464  0.1498
  878SOL    HW213413   3.600   5.030   5.267  3.1168  1.8323 -1.6725
  879SOL     OW13414   9.012   0.317   2.743 -0.5009 -0.0843 -0.5752
  879SOL    HW113415   8.952   0.345   2.818 -0.4150 -0.4194 -0.3783
  879SOL    HW213416   8.969   0.243   2.691 -2.0265  2.3182 -2.8752
  880SOL     OW13417   7.063   9.898   5.564  0.4345  0.4939 -0.2251
  880SOL    HW113418   6.986   9.838   5.545  1.1233  0.2152 -2.3035
  880SOL    HW213419   7.146   9.843   5.578  0.5822  0.8578  0.3592
  881SOL     OW13420   3.881   5.372   4.136  0.4663 -0.1069  0.3718
  881SOL    HW113421   3.902   5.453   4.081  3.6570 -1.6795 -0.8205
  881SOL    HW213422   3.960   5.351   4.195 -0.0930 -2.6649  0.2573
  882SOL     OW13423   8.753   9.989   2.822 -0.5339  0.0991 -0.1760
  882SOL    HW113424   8.853   9.999   2.820 -0.6061  1.4775  1.8455
  882SOL    HW213425   8.722   9.950   2.735  1.8593 -1.3370 -0.4518
  883SOL     OW13426   5.608   1.913   3.150  0.3501 -0.0557 -0.2249
  883SOL    HW113427   5.530   1.859   3.179  1.6052 -1.3720  0.7637
  883SOL    HW213428   5.684   1.853   3.126  2.2506  1.2632  2.2492
  884SOL     OW13429   0.800   3.740   6.276 -0.0099 -0.1389 -0.1579
  884SOL    HW113430   0.900   3.737   6.283 -0.0313  1.2347  0.8377
  884SOL    HW213431   0.760   3.698   6.357 -0.2492 -0.5422 -0.4828
  885SOL     OW13432   8.217   0.594   3.858 -0.1270  0.2997 -0.4199
  885SOL    HW113433   8.299   0.641   3.823 -0.0072  0.5691  0.2212
  885SOL    HW213434   8.191   0.633   3.946 -0.9891  0.2528 -0.6551
  886SOL     OW13435   0.587   3.410   0.257  0.1987  0.0969 -0.1650
  886SOL    HW113436   0.633   3.496   0.232  1.2351 -0.7481 -1.2042
  886SOL    HW213437   0.488   3.424   0.255  0.3565  1.3044 -0.1963
  887SOL     OW13438   0.909   9.936   0.498  0.3082 -0.4264  0.1207
  887SOL    HW113439   0.815   9.946   0.463 -0.0578 -2.8664  0.3008
  887SOL    HW213440   0.934  10.017   0.550 -2.7008 -0.8174  2.2973
  888SOL     OW13441   4.955   0.432   2.712 -0.0878 -0.0872 -0.5001
  888SOL    HW113442   5.025   0.360   2.709 -1.4433 -1.5114  0.8002
  888SOL    HW213443   4.902   0.430   2.628 -0.2962 -0.7978 -0.3550
  891SOL     OW13444   6.407   8.967   4.918 -0.4052  0.4544 -0.0790
  891SOL    HW113445   6.446   8.924   4.836  2.4989  2.7636 -0.0092
  891SOL    HW213446   6.307   8.970   4.910 -0.3909 -2.4607 -1.9367
  892SOL     OW13447   2.413   7.053   3.989 -0.1461 -0.1738  0.3224
  892SOL    HW113448   2.428   7.054   4.088  1.0650  0.2454  0.1551
  892SOL    HW213449   2.435   6.963   3.952  2.5881  0.5471  0.0239
  893SOL     OW13450   2.245   5.538   2.966  0.7675 -0.7302  0.0395
  893SOL    HW113451   2.195   5.547   2.880  0.3679 -2.7834  0.0267
  893SOL    HW213452   2.306   5.616   2.977 -0.4279  0.4293 -1.2692
  894SOL     OW13453   7.221   4.646   1.040  0.6266  0.9976  0.5770
  894SOL    HW113454   7.175   4.635   1.128 -0.4425  0.0580 -0.0789
  894SOL    HW213455   7.270   4.562   1.018 -0.9433  0.4006 -0.7409
  895SOL     OW13456   3.445   4.387   2.028 -0.2076  0.0948 -0.5455
  895SOL    HW113457   3.424   4.291   2.049 -2.0687  0.4077 -0.8939
  895SOL    HW213458   3.421   4.443   2.107  3.7795 -0.0297  0.8655
  897SOL     OW13459   4.804   0.133   4.663 -0.0647 -0.4279 -0.1074
  897SOL    HW113460   4.901   0.120   4.642 -0.0881  0.4077 -0.7618
  897SOL    HW213461   4.751   0.128   4.579 -0.7170 -1.8909  0.3728
  899SOL     OW13462   4.385   9.757   5.473  0.8530  0.5533  0.0133
  899SOL    HW113463   4.417   9.842   5.514  1.6996 -0.0772  0.6896
  899SOL    HW213464   4.346   9.698   5.543  0.0436  0.4851 -0.4913
  900SOL     OW13465   3.050   6.651   1.667  0.0120  0.6827  0.3792
  900SOL    HW113466   3.110   6.599   1.607  0.4730  2.3033 -0.6045
  900SOL    HW213467   2.985   6.590   1.711 -0.2058 -0.5581 -1.6293
  901SOL     OW13468   7.696   8.824   3.058  0.2864  0.2106 -0.3383
  901SOL    HW113469   7.727   8.733   3.085  2.1186  0.5092 -1.3419
  901SOL    HW213470   7.702   8.885   3.137 -0.4993 -0.4147  0.2171
  902SOL     OW13471   4.725   9.936   5.592 -0.0114 -0.1606 -0.2674
  902SOL    HW113472   4.632   9.924   5.624  0.5517 -0.8793  1.1371
  902SOL    HW213473   4.744  10.033   5.579 -0.6089  0.0574  0.4868
  903SOL     OW13474   0.935   1.945   3.463 -0.0497 -0.3446  0.2413
  903SOL    HW113475   0.988   1.875   3.415  0.5471  0.1847  0.1214
  903SOL    HW213476   0.997   2.016   3.497 -0.5278 -0.4330  1.3200
  904SOL     OW13477   1.156   3.551   5.723  0.2983 -0.2725  0.9051
  904SOL    HW113478   1.217   3.625   5.752 -0.5955  0.9831 -0.3547
  904SOL    HW213479   1.108   3.514   5.803  0.4785  0.7606  1.5061
  905SOL     OW13480   5.542   9.238   4.011 -0.2773  0.0292  0.6189
  905SOL    HW113481   5.629   9.189   4.006  0.6424  1.5922  0.9738
  905SOL    HW213482   5.535   9.286   4.099 -1.1740  0.5012  0.3010
  906SOL     OW13483   7.177   1.734   2.985 -0.1958  0.0362  0.3367
  906SOL    HW113484   7.217   1.737   2.893 -1.1921 -1.1808 -0.1479
  906SOL    HW213485   7.094   1.790   2.988 -0.3938 -0.2592  0.3813
  907SOL     OW13486   2.237   0.177   1.500  0.7977 -0.5214 -0.2463
  907SOL    HW113487   2.236   0.235   1.581  0.0894  0.3165 -0.8492
  907SOL    HW213488   2.152   0.188   1.450  0.8084 -1.8234 -0.5536
  908SOL     OW13489   7.449   0.420   6.103  0.2333  0.0471  0.5253
  908SOL    HW113490   7.357   0.382   6.113 -0.2728  1.5550  1.7599
  908SOL    HW213491   7.463   0.451   6.009 -0.0336 -1.4119 -0.0048
  909SOL     OW13492   2.027   1.834   2.136  0.5185 -0.0143 -0.3300
  909SOL    HW113493   2.114   1.849   2.184  0.9292  0.1603 -1.1128
  909SOL    HW213494   2.012   1.736   2.124 -1.2227 -0.2200  3.0858
  910SOL     OW13495   0.250   2.324   0.235 -0.0869  0.5772 -0.2896
  910SOL    HW113496   0.310   2.376   0.175  1.2468  0.7767  1.1775
  910SOL    HW213497   0.243   2.370   0.324  0.3406 -1.2035  0.6986
  911SOL     OW13498   0.350   8.549   2.792 -0.3385 -0.4895 -0.0232
  911SOL    HW113499   0.274   8.495   2.755 -1.1580  1.1746 -0.7927
  911SOL    HW213500   0.353   8.538   2.892  0.6106 -3.3570 -0.3149
  912SOL     OW13501   6.637   2.638   5.415 -0.2604 -0.4479  0.2683
  912SOL    HW113502   6.687   2.682   5.489  1.3812  0.8758 -1.5687
  912SOL    HW213503   6.699   2.579   5.363 -1.1103 -0.5025 -0.7134
  914SOL     OW13504   1.618   0.619   0.500  0.2209 -0.3674 -0.2356
  914SOL    HW113505   1.582   0.622   0.407 -0.4527 -1.5502 -0.0238
  914SOL    HW213506   1.611   0.525   0.535  1.0757 -0.0590  0.7625
  915SOL     OW13507   6.977   3.038   4.196 -0.7203  0.3249 -0.4086
  915SOL    HW113508   6.964   2.981   4.115  2.6413 -1.9925  0.5422
  915SOL    HW213509   6.916   3.007   4.269 -0.8235 -0.3018 -0.7610
  916SOL     OW13510   4.486   9.598   1.631  0.4381 -0.0553  0.1002
  916SOL    HW113511   4.561   9.664   1.628  0.3573  0.0254 -0.3028
  916SOL    HW213512   4.406   9.638   1.585  1.2479 -1.5174 -2.6668
  918SOL     OW13513   5.998   2.099   4.482 -0.0783  0.5235  0.1101
  918SOL    HW113514   6.091   2.111   4.448 -0.0018  0.1581  0.1860
  918SOL    HW213515   6.001   2.077   4.579 -0.2627  0.8676  0.1954
  919SOL     OW13516   3.133   8.401   1.634  0.6115 -0.2383  0.3377
  919SOL    HW113517   3.118   8.427   1.539 -1.6228  1.1188  1.0307
  919SOL    HW213518   3.096   8.472   1.694 -0.9562 -2.6108  2.2531
  920SOL     OW13519   8.965   6.130   0.595  0.1674  0.1746  0.3866
  920SOL    HW113520   9.061   6.156   0.593  0.3378 -0.4870 -0.4151
  920SOL    HW213521   8.947   6.062   0.523 -1.0899  0.9650 -0.0700
  921SOL     OW13522   6.318   1.952   1.188 -0.1834 -0.8889  0.1451
  921SOL    HW113523   6.284   1.961   1.281  0.9942  1.4410  0.3807
  921SOL    HW213524   6.250   1.905   1.132 -1.1883 -1.7021  2.0030
  922SOL     OW13525   3.047   4.727   1.523 -0.2338 -0.1233  0.3303
  922SOL    HW113526   3.122   4.768   1.574  0.1087  0.1855 -0.4072
  922SOL    HW213527   2.990   4.798   1.483 -0.5197 -0.3596  0.3115
  923SOL     OW13528   0.545   0.879   1.483  0.2943 -0.5802  0.0795
  923SOL    HW113529   0.600   0.920   1.556  0.3967  1.7759 -1.2666
  923SOL    HW213530   0.574   0.916   1.394 -2.7835 -0.0084 -0.7517
  924SOL     OW13531   8.844   7.508   2.647 -0.4058 -0.3703  0.5086
  924SOL    HW113532   8.798   7.583   2.601 -1.1262  0.0696  1.9033
  924SOL    HW213533   8.828   7.515   2.746  1.6510 -0.8974  0.9046
  925SOL     OW13534   0.248   3.417   0.302 -0.1657 -0.0286 -0.1488
  925SOL    HW113535   0.232   3.331   0.350  0.0548 -0.6789 -1.2244
  925SOL    HW213536   0.213   3.409   0.209 -0.4875  1.1811 -0.1403
  926SOL     OW13537   2.877   5.556   1.313  0.4059 -0.3686 -0.4170
  926SOL    HW113538   2.955   5.619   1.319  0.2002 -0.2726  1.2916
  926SOL    HW213539   2.895   5.475   1.367 -1.5765  0.6105  1.7868
  927SOL     OW13540   3.262   2.211   0.708 -0.0510  0.3250  0.2136
  927SOL    HW113541   3.172   2.252   0.723 -0.4450  0.3792 -2.1827
  927SOL    HW213542   3.253   2.129   0.653  1.1102 -1.1681  2.1831
  928SOL     OW13543   9.722   7.351   4.871  0.2668 -0.1446  0.3000
  928SOL    HW113544   9.663   7.273   4.848  2.3777 -2.1429  1.5152
  928SOL    HW213545   9.687   7.396   4.953  0.6314 -1.5896  1.2716
  930SOL     OW13546   4.269   9.685   1.404 -0.0702 -0.3251 -0.5030
  930SOL    HW113547   4.185   9.673   1.457 -0.1013  1.5675 -0.0762
  930SOL    HW213548   4.311   9.596   1.388 -2.6832 -1.4060 -1.6054
  931SOL     OW13549   8.287   9.573   2.562  0.0611  0.2511 -0.1921
  931SOL    HW113550   8.196   9.537   2.580 -0.2449  1.7179  1.2700
  931SOL    HW213551   8.280   9.660   2.512  0.6563  0.4733  0.1101
  933SOL     OW13552   0.859   6.474   0.553  0.1669 -0.1669  0.2099
  933SOL    HW113553   0.908   6.388   0.565  0.6096  0.1061  0.3999
  933SOL    HW213554   0.913   6.548   0.593 -0.7176  0.0400  1.0393
  934SOL     OW13555   4.015   8.985   4.247  0.3843 -0.3690 -0.0160
  934SOL    HW113556   4.007   8.969   4.149 -0.8425 -1.2079  0.2033
  934SOL    HW213557   3.926   9.013   4.283  1.0046  0.6477  0.7321
  935SOL     OW13558   1.910   6.919   4.131  0.1205  1.0444  0.2407
  935SOL    HW113559   1.935   6.851   4.200  1.3790  0.4992 -0.7439
  935SOL    HW213560   1.864   6.874   4.055  0.6258  1.3567 -0.2480
  936SOL     OW13561   5.878   0.321   1.434 -0.7869  0.0014 -0.3233
  936SOL    HW113562   5.864   0.356   1.341 -0.7727 -0.4039 -0.4820
  936SOL    HW213563   5.809   0.358   1.495 -2.0897 -1.3524 -0.9300
  937SOL     OW13564   8.519   1.486   3.571  0.4463  0.0560 -0.3904
  937SOL    HW113565   8.529   1.581   3.542  0.2015 -0.3520 -1.8739
  937SOL    HW213566   8.494   1.430   3.492 -2.3568 -0.7594  1.0039
  938SOL     OW13567   1.549   9.917   4.054  0.3252 -0.0980 -0.1773
  938SOL    HW113568   1.548   9.901   3.955 -0.0923 -0.0168 -0.1880
  938SOL    HW213569   1.594   9.840   4.099  0.7192 -0.0282 -0.4483
  939SOL     OW13570   1.699   3.997   3.699  0.1923  0.3712 -0.8162
  939SOL    HW113571   1.743   3.965   3.782 -0.4596  2.7666  0.5174
  939SOL    HW213572   1.766   4.045   3.641  0.3959 -0.3038 -1.1447
  940SOL     OW13573   8.683   7.802   0.238 -0.3471 -0.6780 -0.6589
  940SOL    HW113574   8.780   7.811   0.262 -0.4371  0.8588 -0.8387
  940SOL    HW213575   8.666   7.710   0.203  1.0474 -0.9607 -0.6285
  941SOL     OW13576   2.109   1.000   2.440 -0.0383  0.2618  0.0327
  941SOL    HW113577   2.167   0.931   2.398  0.8842  2.5290 -2.5773
  941SOL    HW213578   2.012   0.977   2.424  0.2715 -0.0372 -1.4778
  942SOL     OW13579   3.805   5.199   2.958  0.7356  0.1750  0.0926
  942SOL    HW113580   3.720   5.208   3.010  1.0991 -1.0331  0.9172
  942SOL    HW213581   3.796   5.126   2.890  0.6024  1.0806 -0.8776
  943SOL     OW13582   3.571   5.927   2.515 -0.2315 -0.4186  0.5519
  943SOL    HW113583   3.551   6.002   2.452 -1.5528 -1.2427 -0.0246
  943SOL    HW213584   3.662   5.940   2.555 -0.5611  1.6175  0.6493
  946SOL     OW13585   7.204   4.296   1.284  0.4584  0.1864  0.0442
  946SOL    HW113586   7.141   4.224   1.312  2.9781 -2.3989 -0.6625
  946SOL    HW213587   7.188   4.320   1.188  0.7618 -0.7103 -0.2326
  947SOL     OW13588   8.816   8.686   6.107 -0.3050 -0.1616 -0.4697
  947SOL    HW113589   8.808   8.786   6.109 -0.0286 -0.1490 -0.0263
  947SOL    HW213590   8.898   8.660   6.057 -0.1400 -0.1536 -0.2046
  948SOL     OW13591   0.579   1.431   0.028 -0.1078 -0.2642 -0.1944
  948SOL    HW113592   0.679   1.435   0.034 -0.0344 -0.8032 -0.9246
  948SOL    HW213593   0.546   1.511  -0.021 -0.0349 -0.0861  0.0455
  950SOL     OW13594   6.327   1.648   2.045 -0.0390 -0.4271  0.1098
  950SOL    HW113595   6.288   1.661   1.953 -0.5074  0.9934  0.4846
  950SOL    HW213596   6.254   1.625   2.109 -0.0013  0.3741  0.4557
  951SOL     OW13597   7.238   2.152   1.182  0.2103  0.1178 -0.2463
  951SOL    HW113598   7.257   2.210   1.261 -0.5048  0.2281 -0.1530
  951SOL    HW213599   7.151   2.104   1.196  0.8562 -1.0889 -0.2462
  952SOL     OW13600   0.455   3.426   6.194  0.1887  0.0132  0.4026
  952SOL    HW113601   0.488   3.442   6.287  1.0927  0.7788 -0.0427
  952SOL    HW213602   0.505   3.484   6.130 -1.3143  0.4391 -0.4196
  953SOL     OW13603   1.456   5.595   2.197 -0.1546 -0.2244  0.1497
  953SOL    HW113604   1.511   5.523   2.154 -0.4900 -0.5978  0.3388
  953SOL    HW213605   1.451   5.674   2.136 -1.2258 -1.0247 -0.8218
  955SOL     OW13606   6.760   3.958   1.168  0.5247  0.8048 -0.4527
  955SOL    HW113607   6.711   4.039   1.134  1.2144  0.7806 -1.5475
  955SOL    HW213608   6.856   3.964   1.141  1.1261  0.8251  1.6348
  956SOL     OW13609   5.589   7.744   5.732  0.4255  0.3159 -0.2236
  956SOL    HW113610   5.648   7.774   5.807 -0.1674  0.9008  0.0130
  956SOL    HW213611   5.613   7.794   5.649  1.6639 -0.9492 -0.6506
  957SOL     OW13612   3.644   4.828   3.950 -0.0119  0.0906  0.0509
  957SOL    HW113613   3.707   4.850   3.875 -0.3781 -0.7870 -0.5180
  957SOL    HW213614   3.693   4.837   4.037  0.8288 -0.3231 -0.3689
  958SOL     OW13615   4.199   7.115   2.941  0.0424  0.0720  0.0041
  958SOL    HW113616   4.255   7.041   2.978  1.7501  1.1396 -0.3941
  958SOL    HW213617   4.204   7.194   3.002 -0.5653  0.3806 -0.3415
  959SOL     OW13618   9.127   6.487   2.840 -0.2746  0.2668  0.2047
  959SOL    HW113619   9.179   6.573   2.835 -2.2280  1.4469 -0.6278
  959SOL    HW213620   9.038   6.505   2.883 -0.6983 -1.3561  0.0347
  960SOL     OW13621   0.659   6.779   3.760 -0.1878  0.1121 -0.1686
  960SOL    HW113622   0.587   6.792   3.692  0.5678 -0.5381 -1.1130
  960SOL    HW213623   0.745   6.758   3.713  0.5977  0.7999  0.9424
  961SOL     OW13624   6.762   2.304   5.629 -0.3972 -0.4048  0.2492
  961SOL    HW113625   6.765   2.210   5.595 -0.1042  0.0182 -0.8863
  961SOL    HW213626   6.844   2.353   5.600 -1.8924  1.0544 -1.6327
  962SOL     OW13627   7.843   7.635   4.781 -0.3284  0.3265  0.3629
  962SOL    HW113628   7.940   7.644   4.759 -0.0868 -0.3994  1.1170
  962SOL    HW213629   7.820   7.700   4.855 -0.6628  1.2563 -0.5473
  963SOL     OW13630   3.747   7.119   3.252 -0.4161  0.5602 -0.2997
  963SOL    HW113631   3.778   7.136   3.345 -1.1101  0.7523 -0.1017
  963SOL    HW213632   3.719   7.205   3.210 -1.6433  0.2462 -0.1281
  964SOL     OW13633   9.665   6.498   5.307  0.1200  0.0537  0.5873
  964SOL    HW113634   9.631   6.412   5.346  0.6304 -1.5415 -2.2894
  964SOL    HW213635   9.760   6.486   5.278  0.5269  1.9360  1.0845
  965SOL     OW13636   0.691   1.711   5.093  0.0816  0.2633 -0.3045
  965SOL    HW113637   0.728   1.799   5.122  0.1217 -0.8358  3.2339
  965SOL    HW213638   0.591   1.716   5.092  0.0646  0.1993  0.4912
  967SOL     OW13639   1.442   9.888   5.503  0.4553 -0.2914 -0.6058
  967SOL    HW113640   1.382   9.952   5.454 -1.0923 -1.6374 -0.5058
  967SOL    HW213641   1.397   9.799   5.512  1.8248 -0.8712  0.9037
  968SOL     OW13642   1.071   1.940   3.057  0.3663 -0.2646  0.2311
  968SOL    HW113643   1.050   2.030   3.096  1.3039 -0.2374  0.7143
  968SOL    HW213644   1.171   1.928   3.054  0.2466 -1.6175  0.9703
  969SOL     OW13645   0.211   4.860   1.697 -0.2428 -0.4599  0.1343
  969SOL    HW113646   0.190   4.950   1.660  1.0000 -0.2237 -0.0286
  969SOL    HW213647   0.140   4.795   1.671 -1.5680  0.6406  0.9282
  970SOL     OW13648   5.563   0.759   6.404 -0.4097  0.1948 -0.0892
  970SOL    HW113649   5.520   0.825   6.342  0.8550  0.5698 -0.5848
  970SOL    HW213650   5.508   0.750   6.487 -0.5124  1.9890  0.0513
  971SOL     OW13651   6.423   9.950   3.561 -0.3040 -0.1370  0.2299
  971SOL    HW113652   6.332   9.983   3.586 -0.7262  0.9486 -2.6047
  971SOL    HW213653   6.492  10.011   3.600 -0.9056  0.7948 -0.1365
  972SOL     OW13654   9.005   0.281   0.418  0.1276 -0.0404 -0.7612
  972SOL    HW113655   9.097   0.317   0.403  0.3352 -0.8148 -1.3755
  972SOL    HW213656   9.004   0.224   0.500 -0.0874  0.9407 -0.0759
  973SOL     OW13657   7.287   8.960   3.236  0.5499  0.0942  0.5135
  973SOL    HW113658   7.342   8.947   3.318  1.6336  1.8155  0.0873
  973SOL    HW213659   7.193   8.982   3.262  0.7660  0.1137  1.2767
  974SOL     OW13660   3.959   7.404   3.094  0.2507  0.1584  0.1339
  974SOL    HW113661   3.924   7.314   3.067  0.0708  0.5734 -1.0408
  974SOL    HW213662   4.036   7.428   3.036  1.6642 -0.1564  1.8364
  975SOL     OW13663   0.565   8.761   1.280 -0.3253  0.1995  0.0106
  975SOL    HW113664   0.563   8.847   1.330 -0.1286  0.2200 -0.0181
  975SOL    HW213665   0.660   8.737   1.258 -0.4432  0.4615 -0.8196
  976SOL     OW13666   0.669   1.750   0.966  0.3547 -0.0835 -0.0748
  976SOL    HW113667   0.732   1.673   0.960 -0.0935 -0.5591  1.1908
  976SOL    HW213668   0.585   1.730   0.916  0.0052 -0.6548  0.7354
  977SOL     OW13669   3.398   9.185   3.344 -0.2664  0.0371  0.6002
  977SOL    HW113670   3.406   9.229   3.434 -2.0357  2.0215 -0.1820
  977SOL    HW213671   3.304   9.195   3.311  0.1636 -1.4470 -1.0989
  979SOL     OW13672   3.712   5.506   1.026 -0.3016 -0.0032  0.0360
  979SOL    HW113673   3.734   5.425   0.972 -0.1354 -0.6545  1.0515
  979SOL    HW213674   3.627   5.491   1.076 -0.0993  0.3092  0.4875
  980SOL     OW13675   4.165   1.111   3.814  0.2327  0.0110 -0.3243
  980SOL    HW113676   4.195   1.207   3.820  1.4642 -0.3572 -0.4216
  980SOL    HW213677   4.223   1.062   3.749 -2.3298 -0.1028 -2.6245
  981SOL     OW13678   3.759   0.393   2.015 -0.4418 -0.2323 -0.1570
  981SOL    HW113679   3.690   0.465   2.009 -0.4569 -0.2304  0.0404
  981SOL    HW213680   3.756   0.338   1.932 -0.2984  0.1143 -0.3940
  982SOL     OW13681   3.818   2.560   0.907  0.1572  0.3701 -0.4121
  982SOL    HW113682   3.728   2.531   0.875 -0.5671  1.1048  0.9003
  982SOL    HW213683   3.813   2.580   1.005  2.5836 -2.9485  0.4778
  983SOL     OW13684   0.868   0.951   2.600  0.1467  0.3777  0.1466
  983SOL    HW113685   0.965   0.928   2.598  0.2505  0.8572 -0.3899
  983SOL    HW213686   0.855   1.032   2.658 -0.1148 -0.5068  1.3574
  984SOL     OW13687   2.212   6.820   2.560  0.1165  0.1665  0.0297
  984SOL    HW113688   2.283   6.752   2.575  0.3092  0.4276  0.3092
  984SOL    HW213689   2.122   6.778   2.575  0.2620  0.1511  0.8888
  986SOL     OW13690   5.009   8.221   2.057  0.1721 -0.1275 -0.0655
  986SOL    HW113691   5.059   8.135   2.052 -0.7660 -0.7171  0.4583
  986SOL    HW213692   4.940   8.224   1.984  1.2786  0.8910 -1.0919
  987SOL     OW13693   0.888   5.458   0.146 -0.6022 -0.0838  0.2344
  987SOL    HW113694   0.944   5.541   0.145 -1.1973  0.3341  1.0624
  987SOL    HW213695   0.896   5.411   0.058  0.4859  0.3469  0.0921
  988SOL     OW13696   8.643   2.371   3.551  0.0227  0.7702  0.7058
  988SOL    HW113697   8.692   2.306   3.609  0.7763  1.7977  1.2451
  988SOL    HW213698   8.560   2.401   3.598  0.9542  2.0878  1.5802
  989SOL     OW13699   0.131   8.699   5.834  0.8155  0.2156 -0.7652
  989SOL    HW113700   0.079   8.773   5.876  1.5879  0.7766 -0.7861
  989SOL    HW213701   0.229   8.714   5.849  1.0514 -0.1067 -1.8941
  990SOL     OW13702   9.866   0.156   0.190 -0.6274  0.7096 -0.5685
  990SOL    HW113703   9.888   0.062   0.219  0.1499  1.0048 -0.1770
  990SOL    HW213704   9.824   0.154   0.099 -0.4344  0.0006 -0.6469
  991SOL     OW13705   0.667   7.267   5.248  0.4177 -0.0999 -0.1249
  991SOL    HW113706   0.613   7.201   5.197 -1.8673 -0.3240  2.4562
  991SOL    HW213707   0.735   7.220   5.303  0.2233 -0.1532  0.0703
  992SOL     OW13708   7.414   8.998   4.146  0.5048  0.2849  0.1040
  992SOL    HW113709   7.324   8.956   4.159  0.0289  1.6566  1.5012
  992SOL    HW213710   7.414   9.089   4.189  2.6590  0.1710  0.3848
  994SOL     OW13711   2.115   2.076   6.191 -0.1647 -0.0433  0.1750
  994SOL    HW113712   2.073   2.005   6.248 -1.2000 -0.7693 -1.4456
  994SOL    HW213713   2.210   2.053   6.173  0.2808  0.3747  1.8821
  995SOL     OW13714   6.374   9.032   2.621  0.0430 -0.7403 -0.0192
  995SOL    HW113715   6.466   9.000   2.595  1.0430 -0.4242  3.0077
  995SOL    HW213716   6.307   8.992   2.558  2.2056 -1.0642 -2.2282
  997SOL     OW13717   7.547   5.732   1.983  0.6366  0.2275 -0.4934
  997SOL    HW113718   7.609   5.810   1.985 -1.4628  1.9602  2.1444
  997SOL    HW213719   7.543   5.691   2.075  2.2020 -3.4619 -1.9748
  998SOL     OW13720   2.904   1.372   5.815  0.0479 -0.0170 -0.0708
  998SOL    HW113721   2.845   1.297   5.845 -1.1763  1.3085  0.8913
  998SOL    HW213722   2.984   1.377   5.876  1.9240 -2.6687 -2.1820
  999SOL     OW13723   5.874   8.426   4.021 -0.1720 -0.0960 -0.3807
  999SOL    HW113724   5.966   8.426   3.983 -0.0684  1.3951 -0.1567
  999SOL    HW213725   5.856   8.339   4.066  1.4893 -0.0127  0.4727
 1000SOL     OW13726   6.988   7.339   6.206  0.0781  0.4024 -0.2267
 1000SOL    HW113727   6.915   7.347   6.138 -0.1554  1.8915  0.1862
 1000SOL    HW213728   6.967   7.261   6.266  0.2708 -0.9005 -1.7975
 1001SOL     OW13729   9.029   2.937   0.975  0.6535  0.0485  0.8181
 1001SOL    HW113730   8.983   2.961   0.889 -1.1294  0.8830  1.9605
 1001SOL    HW213731   9.044   3.020   1.029  1.6115 -0.4889  1.3866
 1002SOL     OW13732   3.015   8.285   0.084 -0.0227  0.1688  0.0878
 1002SOL    HW113733   3.046   8.224   0.157  0.5891  1.4143  0.9001
 1002SOL    HW213734   3.091   8.342   0.053 -0.0337 -1.0449 -2.2511
 1003SOL     OW13735   3.790   2.415   5.940 -0.0563 -0.3325  0.1279
 1003SOL    HW113736   3.849   2.479   5.990 -0.6634  1.4223 -1.3441
 1003SOL    HW213737   3.704   2.460   5.918  0.2753 -0.9961 -2.6661
 1004SOL     OW13738   3.077   0.935   3.396 -0.0243  0.0737  0.2412
 1004SOL    HW113739   3.015   0.979   3.461 -0.2511 -1.4282  1.0549
 1004SOL    HW213740   3.071   0.836   3.406  0.7076 -0.1490 -1.3678
 1005SOL     OW13741   9.275   1.623   4.407  0.5351 -0.0642  0.4791
 1005SOL    HW113742   9.327   1.708   4.411 -0.3198  0.4659  0.4314
 1005SOL    HW213743   9.179   1.643   4.387  0.0155 -0.9225  1.9910
 1006SOL     OW13744   8.058   2.579   3.149 -0.0623 -0.0118  0.3614
 1006SOL    HW113745   8.113   2.638   3.089 -0.0785 -0.2752  0.0875
 1006SOL    HW213746   7.978   2.546   3.098  0.5716 -1.2370  0.1479
 1007SOL     OW13747   1.973   6.172   2.073  0.1587 -0.2955  0.3870
 1007SOL    HW113748   2.002   6.083   2.038  2.4539  0.7927 -0.5876
 1007SOL    HW213749   1.914   6.217   2.006 -0.9018 -1.0364  0.8268
 1008SOL     OW13750   3.594   2.160   2.045  0.1007 -0.1116  0.0056
 1008SOL    HW113751   3.499   2.179   2.021 -0.4908 -1.2671  1.3513
 1008SOL    HW213752   3.649   2.156   1.962 -1.0513  0.4506 -0.7988
 1009SOL     OW13753   3.307   2.201   1.681 -0.2046 -0.0791 -0.3339
 1009SOL    HW113754   3.404   2.197   1.656  0.2749 -1.2761  1.6682
 1009SOL    HW213755   3.286   2.130   1.748 -1.8202  2.0372  1.4848
 1010SOL     OW13756   0.128   4.723   4.617  0.2139  0.6028  0.2732
 1010SOL    HW113757   0.206   4.721   4.555  0.3889 -1.7499  0.5563
 1010SOL    HW213758   0.159   4.717   4.712 -0.3338 -1.0088  0.3604
 1011SOL     OW13759   4.568   2.437   0.420  0.0906  0.6526  0.5770
 1011SOL    HW113760   4.507   2.359   0.432 -1.5766  1.6728 -1.0087
 1011SOL    HW213761   4.652   2.407   0.374  0.2746 -0.5061  1.6173
 1012SOL     OW13762   4.811   7.774   6.244  0.3565 -0.2517  0.0102
 1012SOL    HW113763   4.749   7.707   6.204  1.0287 -1.8286  1.5738
 1012SOL    HW213764   4.777   7.803   6.333  1.7425 -0.9691  0.7844
 1015SOL     OW13765   5.216   9.374   5.220  0.5861 -0.4810  0.3649
 1015SOL    HW113766   5.150   9.449   5.230  1.2168  0.0271  0.7768
 1015SOL    HW213767   5.181   9.307   5.156  0.0063  0.1678 -0.0012
 1016SOL     OW13768   7.126   8.564   5.808  0.3885 -0.2297 -0.1383
 1016SOL    HW113769   7.097   8.540   5.715  0.0240 -0.8630  0.1415
 1016SOL    HW213770   7.157   8.659   5.809 -2.4097  0.7073 -0.2633
 1017SOL     OW13771   0.693   9.190   5.289  0.3886  0.5198  0.1270
 1017SOL    HW113772   0.687   9.095   5.320 -0.8219  0.7267  0.5875
 1017SOL    HW213773   0.607   9.237   5.312  0.5596  1.4258 -1.0719
 1018SOL     OW13774   1.592   5.961   3.573  0.0598 -0.4893  0.1255
 1018SOL    HW113775   1.529   5.953   3.651 -0.2688  0.3016 -0.0544
 1018SOL    HW213776   1.681   5.992   3.604  0.1832 -1.0137  0.2997
 1019SOL     OW13777   7.484   3.651   5.589  0.4755 -0.3821  0.0825
 1019SOL    HW113778   7.538   3.734   5.573 -1.8858  1.2478  0.3518
 1019SOL    HW213779   7.502   3.616   5.681  0.1543  0.8614  0.6244
 1020SOL     OW13780   3.401   9.127   5.660  0.1969  0.4106 -0.1923
 1020SOL    HW113781   3.388   9.061   5.586  0.2218  2.2031 -1.8480
 1020SOL    HW213782   3.471   9.093   5.723 -2.2884 -2.7454  0.9686
 1023SOL     OW13783   0.974   8.090   3.690 -0.6239  0.1650  0.6636
 1023SOL    HW113784   1.065   8.096   3.731  0.0544 -0.2799 -0.7674
 1023SOL    HW213785   0.907   8.131   3.753  0.6194  0.9655  1.4988
 1024SOL     OW13786   0.087   4.136   6.073 -0.2271  0.4252  1.0011
 1024SOL    HW113787   0.042   4.075   6.137 -1.9349 -0.8605 -1.3743
 1024SOL    HW213788   0.021   4.171   6.007  1.7007  0.8218 -0.7690
 1025SOL     OW13789   5.197   5.697   1.645  0.3394 -0.8972 -0.2498
 1025SOL    HW113790   5.141   5.650   1.713  0.8877 -1.0892  0.0773
 1025SOL    HW213791   5.194   5.647   1.558 -1.2816 -0.0298 -0.7187
 1026SOL     OW13792   7.288   8.318   6.128  0.0206 -0.1955 -0.2166
 1026SOL    HW113793   7.314   8.356   6.217  0.2270  0.0294 -0.3716
 1026SOL    HW213794   7.358   8.254   6.098 -0.5745 -1.0934  0.2815
 1027SOL     OW13795   1.643   6.487   6.116 -0.0877  0.2371  0.4748
 1027SOL    HW113796   1.592   6.420   6.061  0.3340  0.3975 -0.1149
 1027SOL    HW213797   1.658   6.570   6.062  1.0536  0.0831  0.5521
 1028SOL     OW13798   0.992   1.347   0.639 -0.4431 -0.1267  0.1975
 1028SOL    HW113799   1.049   1.268   0.616 -0.6819 -0.3848  0.4909
 1028SOL    HW213800   1.035   1.430   0.603  0.9598 -0.1212  1.8281
 1029SOL     OW13801   0.596   8.760   5.164  0.3612 -0.1785  0.1202
 1029SOL    HW113802   0.529   8.690   5.191  0.5270 -1.0055 -1.5393
 1029SOL    HW213803   0.551   8.826   5.104  0.5568  0.3668  0.5741
 1030SOL     OW13804   1.611   7.345   1.425 -0.1288  0.3814  0.3245
 1030SOL    HW113805   1.535   7.402   1.456  0.5678  0.6250  1.6092
 1030SOL    HW213806   1.682   7.403   1.385 -0.7604  0.1234 -1.1836
 1031SOL     OW13807   0.875   6.251   2.552 -0.1246 -0.4030 -0.4808
 1031SOL    HW113808   0.951   6.208   2.504 -0.0512  0.5089 -1.1980
 1031SOL    HW213809   0.859   6.204   2.639  1.8266 -0.0394  0.0924
 1032SOL     OW13810   6.286   0.885   4.934  0.8439 -0.3832  0.3063
 1032SOL    HW113811   6.241   0.868   5.021 -0.8707  0.8101 -0.3362
 1032SOL    HW213812   6.251   0.822   4.865 -0.7927  1.3801 -0.4988
 1033SOL     OW13813   0.715   9.688   3.063 -0.0039  0.3534  0.0080
 1033SOL    HW113814   0.678   9.779   3.043 -0.0310 -0.2366 -2.8520
 1033SOL    HW213815   0.814   9.688   3.046  0.2633  0.2155  1.4639
 1034SOL     OW13816   5.085   1.255   1.814 -0.0519  0.2019  0.0512
 1034SOL    HW113817   5.125   1.263   1.723 -0.1432 -0.6760 -0.0740
 1034SOL    HW213818   5.088   1.159   1.843  0.1386  0.5075  1.0446
 1035SOL     OW13819   6.437   9.643   2.936  0.2262  0.6064 -0.1102
 1035SOL    HW113820   6.445   9.687   3.025 -0.9656  0.8536 -0.1200
 1035SOL    HW213821   6.355   9.676   2.890  1.4127  1.3081 -1.7612
 1036SOL     OW13822   1.204   0.761   3.828  0.3199  0.2001  0.1293
 1036SOL    HW113823   1.240   0.710   3.750 -2.6726 -0.0299 -1.2099
 1036SOL    HW213824   1.238   0.855   3.825  0.4098  0.1327 -1.3552
 1038SOL     OW13825   0.723   6.137   4.383 -0.0499  0.0409 -0.1548
 1038SOL    HW113826   0.766   6.225   4.361 -0.2882  0.4560  1.0059
 1038SOL    HW213827   0.653   6.116   4.314 -0.4442  1.0819 -0.0884
 1039SOL     OW13828   9.627   0.328   4.831  0.0429  0.0697 -0.0744
 1039SOL    HW113829   9.703   0.273   4.795 -0.8901 -0.4395 -1.3088
 1039SOL    HW213830   9.542   0.276   4.823 -0.5540  0.9132  0.6517
 1040SOL     OW13831   0.179   0.307   1.479  0.3375  0.5179  0.2507
 1040SOL    HW113832   0.105   0.298   1.546 -1.1322  1.9229 -1.1446
 1040SOL    HW213833   0.251   0.366   1.516 -1.7068  3.4915 -0.4036
 1041SOL     OW13834   1.995   2.306   4.021 -0.0964  0.2733  0.5900
 1041SOL    HW113835   2.025   2.394   3.985  0.6257  0.2444  1.1212
 1041SOL    HW213836   1.896   2.297   4.008 -0.4050  1.7418  1.7710
 1042SOL     OW13837   1.453   5.849   1.093 -0.4659 -0.0654  0.4207
 1042SOL    HW113838   1.496   5.761   1.074  1.2438  0.1041  3.2705
 1042SOL    HW213839   1.523   5.920   1.097 -1.5592  1.0098  0.6314
 1043SOL     OW13840   8.090   3.772   1.465  0.5385  0.3692 -0.0982
 1043SOL    HW113841   8.064   3.852   1.519 -0.4429 -0.2893  0.4026
 1043SOL    HW213842   8.079   3.689   1.520 -0.5961 -0.3196 -1.3374
 1044SOL     OW13843   2.218   9.383   4.107 -0.0263 -0.8628  0.0324
 1044SOL    HW113844   2.220   9.310   4.038  1.6731 -2.1333  1.4007
 1044SOL    HW213845   2.138   9.371   4.165 -0.4519 -0.8702 -0.5453
 1045SOL     OW13846   1.472   7.196   4.556  0.3973 -0.6188 -0.2000
 1045SOL    HW113847   1.526   7.250   4.491  0.6564 -1.0853 -0.3769
 1045SOL    HW213848   1.378   7.231   4.558  0.7001  0.1882  0.1017
 1046SOL     OW13849   4.613   2.187   4.663 -0.7252  0.1745 -0.1184
 1046SOL    HW113850   4.562   2.238   4.733 -2.6103 -0.4355 -0.9927
 1046SOL    HW213851   4.604   2.234   4.575  0.6685  0.3282 -0.1781
 1047SOL     OW13852   7.470   3.522   5.858 -0.3873 -0.5915 -0.0582
 1047SOL    HW113853   7.476   3.504   5.956 -0.7908 -1.2234 -0.1433
 1047SOL    HW213854   7.374   3.525   5.830 -0.3077  0.9723 -0.1908
 1048SOL     OW13855   9.563   8.709   5.749  0.1598 -0.1259 -0.6429
 1048SOL    HW113856   9.506   8.648   5.803 -0.3279  0.6536 -0.2612
 1048SOL    HW213857   9.517   8.730   5.663 -0.3415  0.8357 -0.1557
 1049SOL     OW13858   9.491   5.014   2.326  0.4252  0.4154 -0.1374
 1049SOL    HW113859   9.534   4.933   2.287  1.8152  0.8242  0.5437
 1049SOL    HW213860   9.408   4.986   2.376 -0.5164 -0.2761 -2.0302
 1050SOL     OW13861   9.475   9.863   5.145 -0.2792  0.6740  0.2491
 1050SOL    HW113862   9.382   9.829   5.129  0.3469 -1.7812  1.6339
 1050SOL    HW213863   9.523   9.872   5.058 -1.7435  1.7873 -0.4614
 1051SOL     OW13864   9.166   6.576   1.236 -0.1655 -0.2434 -0.6166
 1051SOL    HW113865   9.079   6.627   1.241  0.5896  0.9488  0.8233
 1051SOL    HW213866   9.209   6.593   1.148 -0.8679  0.0486 -0.9120
 1055SOL     OW13867   1.402   0.744   3.339 -0.4736 -0.2365 -0.0784
 1055SOL    HW113868   1.373   0.725   3.245 -1.0578 -2.1072  0.4626
 1055SOL    HW213869   1.394   0.842   3.357 -0.0391  0.1835 -2.0830
 1056SOL     OW13870   7.293   3.030   4.417  0.8145  0.7365  0.3319
 1056SOL    HW113871   7.252   3.013   4.506  0.2897 -1.9278 -0.3558
 1056SOL    HW213872   7.373   2.970   4.405  1.0015  1.2171 -0.8919
 1057SOL     OW13873   0.192   5.869   0.750  0.3109  0.5944  1.0559
 1057SOL    HW113874   0.115   5.842   0.692 -1.4536 -2.0968  4.4293
 1057SOL    HW213875   0.167   5.952   0.801  0.9840  1.6384 -0.2747
 1059SOL     OW13876   2.586   8.532   1.600 -0.1076 -0.3031 -0.2513
 1059SOL    HW113877   2.494   8.524   1.638 -0.1795 -1.2493 -0.6193
 1059SOL    HW213878   2.644   8.459   1.637  0.6865  0.7069  0.5170
 1060SOL     OW13879   3.926   7.390   4.375  0.0155  0.1085  0.1670
 1060SOL    HW113880   3.969   7.453   4.310  0.2846  1.1106  1.3050
 1060SOL    HW213881   3.827   7.401   4.373  0.0766  0.7030  0.5074
 1061SOL     OW13882   2.987   4.550   5.274 -0.3121  0.0049 -0.1708
 1061SOL    HW113883   3.044   4.488   5.328  0.2065 -0.1671 -0.9077
 1061SOL    HW213884   3.007   4.644   5.301  0.7392 -0.0224 -0.8201
 1062SOL     OW13885   2.015   0.082   0.783  0.4501  0.1622  0.0379
 1062SOL    HW113886   2.060   0.080   0.872  2.0242  1.0011 -0.7267
 1062SOL    HW213887   2.073   0.130   0.717 -0.6930 -0.4721 -1.4533
 1063SOL     OW13888   0.997   1.984   4.994 -0.0533 -0.1836 -0.4555
 1063SOL    HW113889   0.984   2.079   4.969  0.2936  0.0067  0.0732
 1063SOL    HW213890   0.918   1.952   5.047 -0.4518 -0.3750 -1.1525
 1064SOL     OW13891   0.931   1.955   2.809 -0.4996  0.2478  0.4163
 1064SOL    HW113892   0.982   1.985   2.729 -1.5927  2.5854  0.5238
 1064SOL    HW213893   0.993   1.945   2.887  0.2780 -0.2004 -0.2544
 1065SOL     OW13894   2.831   5.364   3.872  0.1592 -0.0391  0.0108
 1065SOL    HW113895   2.846   5.309   3.789 -0.6519 -1.4269  0.7549
 1065SOL    HW213896   2.807   5.303   3.948  1.4925  1.1637  1.4224
 1066SOL     OW13897   2.664   8.412   2.411 -0.1003 -0.2447 -0.3002
 1066SOL    HW113898   2.608   8.379   2.487 -1.1908  2.0131 -0.0978
 1066SOL    HW213899   2.708   8.334   2.366 -1.6693 -1.8520  0.8941
 1067SOL     OW13900   5.332   6.268   0.926  0.2763 -0.1727 -0.2746
 1067SOL    HW113901   5.239   6.289   0.897 -0.1753 -0.9245  0.5859
 1067SOL    HW213902   5.373   6.350   0.968 -0.1092  0.0685 -0.3651
 1068SOL     OW13903   0.902   3.019   1.981  0.5248  0.2768 -0.3520
 1068SOL    HW113904   0.959   3.088   1.936  0.4111  1.5810  1.4719
 1068SOL    HW213905   0.960   2.953   2.029  0.5946 -0.3239 -1.2457
 1069SOL     OW13906   4.645   3.174   6.020 -0.7542 -0.2350  0.6770
 1069SOL    HW113907   4.653   3.236   5.941  0.8011 -1.9987 -0.6041
 1069SOL    HW213908   4.734   3.161   6.061 -0.9892 -1.9033  0.6951
 1070SOL     OW13909   9.757   2.426   5.633 -0.7365  0.7113  0.6939
 1070SOL    HW113910   9.686   2.375   5.682 -1.0037  1.4207  1.0704
 1070SOL    HW213911   9.735   2.428   5.536 -0.1880 -0.7346  0.5379
 1071SOL     OW13912   6.146   1.360   4.538  0.6159 -0.1469  0.7333
 1071SOL    HW113913   6.062   1.408   4.561  1.1542  1.1867 -0.0160
 1071SOL    HW213914   6.215   1.426   4.508  1.2630 -1.4160 -0.6589
 1072SOL     OW13915   1.977   6.536   3.974 -0.1492 -0.1573 -0.0278
 1072SOL    HW113916   2.042   6.594   3.926 -0.1505  0.5159  0.7614
 1072SOL    HW213917   1.963   6.451   3.924 -0.3647  0.6480 -1.3462
 1073SOL     OW13918   4.058   0.379   1.488 -0.5309  0.2818  0.1852
 1073SOL    HW113919   3.967   0.346   1.515  0.3248 -1.1687  1.3947
 1073SOL    HW213920   4.092   0.324   1.412  0.9230 -1.7499  2.2402
 1075SOL     OW13921   8.261   9.459   4.511  0.1104 -0.0150  0.5038
 1075SOL    HW113922   8.197   9.534   4.495  0.2215 -0.2715 -1.2238
 1075SOL    HW213923   8.341   9.493   4.561  0.0379  0.9500 -0.0320
 1076SOL     OW13924   6.666   1.662   3.338  0.0595  0.4075  0.8525
 1076SOL    HW113925   6.722   1.677   3.257 -0.0508  1.0718  0.9034
 1076SOL    HW213926   6.723   1.625   3.412  0.2732  0.3617  0.6657
 1077SOL     OW13927   2.903   1.013   2.008  0.0826 -0.2986  0.0946
 1077SOL    HW113928   2.974   1.073   1.972 -1.2892  0.4362 -1.4443
 1077SOL    HW213929   2.903   1.018   2.108 -0.1421  2.4046 -0.0085
 1078SOL     OW13930   0.340   0.637   3.093 -0.6965 -0.1053 -0.5800
 1078SOL    HW113931   0.366   0.719   3.144  0.3674  1.3493 -3.3659
 1078SOL    HW213932   0.240   0.625   3.097 -0.6220 -0.0868  1.8691
 1079SOL     OW13933   5.386   8.736   6.176 -0.0610  0.3468  0.4713
 1079SOL    HW113934   5.399   8.710   6.080  1.4772  1.0781  0.4639
 1079SOL    HW213935   5.312   8.681   6.216 -1.0870  0.4339 -1.2846
 1080SOL     OW13936   9.357   9.563   4.360  0.2182 -0.4346  0.3278
 1080SOL    HW113937   9.334   9.659   4.376 -0.0969 -0.0685 -2.1842
 1080SOL    HW213938   9.297   9.526   4.289  1.8402 -1.8504 -0.3293
 1081SOL     OW13939   1.660   1.105   4.105 -0.4886  0.1797  0.6890
 1081SOL    HW113940   1.585   1.117   4.039 -0.1844 -0.6767  0.1751
 1081SOL    HW213941   1.636   1.032   4.170 -0.3334  0.2757  0.8526
 1082SOL     OW13942   3.119   6.422   2.141  0.2231 -0.0133  0.9554
 1082SOL    HW113943   3.100   6.515   2.175  0.6773  0.7259 -0.7448
 1082SOL    HW213944   3.032   6.377   2.119  0.0431  0.4153  0.7672
 1083SOL     OW13945   8.755   2.460   0.449  0.3646 -0.4433  0.1457
 1083SOL    HW113946   8.706   2.418   0.525  0.8861 -0.2849  0.5760
 1083SOL    HW213947   8.854   2.451   0.464  0.4814  0.9384  0.2573
 1085SOL     OW13948   6.743   0.363   5.431 -0.3464  0.6019 -0.1508
 1085SOL    HW113949   6.789   0.290   5.382 -0.7303  0.1963  0.0880
 1085SOL    HW213950   6.788   0.377   5.519  0.2132  1.1878 -0.5284
 1086SOL     OW13951   0.045   2.134   3.388  0.2092  0.1259 -0.2939
 1086SOL    HW113952   0.120   2.182   3.433  0.6305 -0.4593 -0.3655
 1086SOL    HW213953  -0.035   2.130   3.448  1.0977 -1.5506  0.8149
 1087SOL     OW13954   0.689   9.656   6.069 -0.3111  0.3185 -0.2189
 1087SOL    HW113955   0.667   9.704   6.153  0.6808  0.7956 -0.2325
 1087SOL    HW213956   0.780   9.615   6.076  0.1260  1.0644 -1.3585
 1088SOL     OW13957   6.751   7.978   5.811 -0.2313 -0.0023 -0.2733
 1088SOL    HW113958   6.725   7.937   5.899  0.8478 -1.9270 -0.8265
 1088SOL    HW213959   6.771   7.905   5.745  0.7818  1.4315 -1.5749
 1090SOL     OW13960   6.091   2.276   5.158  0.1119 -1.0578  0.0958
 1090SOL    HW113961   6.044   2.358   5.194  1.4371 -0.5636  0.7275
 1090SOL    HW213962   6.158   2.304   5.090  1.5082 -1.4925  1.2813
 1091SOL     OW13963   6.452   0.364   2.208 -0.1219 -0.1290 -0.1262
 1091SOL    HW113964   6.502   0.281   2.234 -0.8715 -0.4815  0.2217
 1091SOL    HW213965   6.374   0.375   2.269  1.1833  2.0255  1.2228
 1092SOL     OW13966   8.945   9.466   0.375  0.5626  0.4271 -0.3134
 1092SOL    HW113967   8.903   9.435   0.289  1.0091  1.9274 -1.0829
 1092SOL    HW213968   9.027   9.412   0.393  0.7796  0.4855 -1.1207
 1093SOL     OW13969   6.993   7.716   4.556  0.1889 -0.3986 -0.1744
 1093SOL    HW113970   7.085   7.720   4.518  0.3597  0.0034  0.2582
 1093SOL    HW213971   6.926   7.716   4.483  0.5468 -1.1715 -0.5022
 1094SOL     OW13972   1.250   8.004   4.245  0.0434 -0.0198 -0.8387
 1094SOL    HW113973   1.241   8.053   4.332 -0.6816  1.1994 -1.5709
 1094SOL    HW213974   1.172   8.028   4.186  1.9959  1.4606 -2.9122
 1095SOL     OW13975   4.876   3.633   4.565 -0.2544  0.2842 -0.5194
 1095SOL    HW113976   4.881   3.728   4.536  2.2986 -0.6685 -3.4349
 1095SOL    HW213977   4.798   3.588   4.521 -1.4858  0.9574  0.8884
 1096SOL     OW13978   7.087   0.010   2.473  0.1929 -0.0230  0.0352
 1096SOL    HW113979   7.173   0.058   2.495  0.8633 -0.7426 -0.9547
 1096SOL    HW213980   7.015   0.077   2.457  1.2154  0.7004 -1.7342
 1097SOL     OW13981   7.478   1.217   3.332  0.3462  0.5646 -0.2386
 1097SOL    HW113982   7.491   1.125   3.370  0.8047  0.9213  0.4753
 1097SOL    HW213983   7.438   1.276   3.402  0.9536  1.1578 -0.3885
 1098SOL     OW13984   1.503   4.226   5.980  0.1843 -0.0984 -0.3222
 1098SOL    HW113985   1.427   4.172   5.941  0.0668 -0.4870  0.4304
 1098SOL    HW213986   1.475   4.321   5.989  0.4617  0.1327 -1.8549
 1099SOL     OW13987   9.931   2.168   4.369 -0.1885  0.0704 -0.7651
 1099SOL    HW113988  10.031   2.159   4.367  0.1025  2.8949 -0.9080
 1099SOL    HW213989   9.892   2.121   4.290  1.0961 -0.2923 -1.1946
 1100SOL     OW13990   1.401   0.612   2.965 -0.8502  0.0486  0.2227
 1100SOL    HW113991   1.401   0.705   3.002 -0.5713 -0.3268  1.1731
 1100SOL    HW213992   1.312   0.592   2.924 -0.7357  0.9210 -0.4667
 1101SOL     OW13993   6.629   9.460   5.034 -0.2046 -0.1139  0.0296
 1101SOL    HW113994   6.609   9.404   4.954 -0.9227 -3.8505  2.6972
 1101SOL    HW213995   6.726   9.448   5.059  0.2452  1.7315 -0.7370
 1102SOL     OW13996   3.644   6.089   2.812  0.3225  0.2413 -0.4949
 1102SOL    HW113997   3.703   6.059   2.737  0.7959 -0.9032  0.3275
 1102SOL    HW213998   3.610   6.181   2.792  0.8080  0.1368 -1.8966
 1103SOL     OW13999   3.516   5.908   3.736 -0.6199 -0.0798 -0.1036
 1103SOL    HW114000   3.427   5.910   3.690 -1.9649 -0.7975  2.4050
 1103SOL    HW214001   3.535   5.815   3.766  0.2495  0.3692  0.7472
 1104SOL     OW14002   2.252   0.475   0.829  0.2022  0.3275  0.3013
 1104SOL    HW114003   2.240   0.451   0.733 -0.7140 -0.0020  0.4915
 1104SOL    HW214004   2.188   0.422   0.885  1.2825 -0.0812  1.1751
 1105SOL     OW14005   7.279   1.574   6.131 -0.7923 -0.1354 -0.3471
 1105SOL    HW114006   7.265   1.651   6.194  0.4150 -0.6257  0.5401
 1105SOL    HW214007   7.276   1.489   6.182  2.0867 -0.4359 -0.6529
 1106SOL     OW14008   8.499   1.508   2.213  0.0042 -0.6088  0.9947
 1106SOL    HW114009   8.431   1.567   2.257 -0.9851 -1.2731  0.3787
 1106SOL    HW214010   8.572   1.564   2.173  0.0256  0.0836  1.9964
 1108SOL     OW14011   0.791   2.363   6.271  0.2171  0.1141 -0.1089
 1108SOL    HW114012   0.747   2.430   6.330  2.4045  0.4964  1.1537
 1108SOL    HW214013   0.853   2.410   6.208  0.1389 -0.5373 -0.6736
 1109SOL     OW14014   2.422   0.533   1.511  0.7464  0.5148  0.2016
 1109SOL    HW114015   2.486   0.490   1.447  0.9666 -0.3588  1.0109
 1109SOL    HW214016   2.429   0.490   1.600 -0.0557  1.2802  0.6450
 1110SOL     OW14017   5.239   8.387   3.039  0.1810  0.0918  0.0325
 1110SOL    HW114018   5.201   8.295   3.054 -0.0598  0.2149  0.1842
 1110SOL    HW214019   5.240   8.406   2.941  0.3306 -0.1163 -0.0074
 1111SOL     OW14020   3.487   0.588   3.556  0.0750  0.2713  0.1089
 1111SOL    HW114021   3.518   0.493   3.560 -0.7496 -0.0015  0.1352
 1111SOL    HW214022   3.562   0.649   3.581 -0.3012 -0.5413  3.5544
 1112SOL     OW14023   0.581   6.061   2.721 -0.1690 -0.2585 -0.7512
 1112SOL    HW114024   0.583   5.980   2.780  0.3077 -0.9590 -1.7221
 1112SOL    HW214025   0.498   6.113   2.739 -0.0620 -0.4940  0.5043
 1113SOL     OW14026   8.653   6.726   1.973 -0.8237  0.1118  0.4508
 1113SOL    HW114027   8.633   6.723   2.071  0.7994  3.4625  0.9477
 1113SOL    HW214028   8.726   6.792   1.956 -1.9262  0.4797 -3.1885
 1114SOL     OW14029   8.154   1.986   5.698 -0.2776 -0.0021 -0.0059
 1114SOL    HW114030   8.183   2.006   5.792 -0.7614  0.5993  0.0198
 1114SOL    HW214031   8.231   1.947   5.648 -0.2544 -1.0908  0.8668
 1115SOL     OW14032   6.015   8.431   6.269  0.5400 -0.5673 -0.2627
 1115SOL    HW114033   6.001   8.525   6.303  0.4106  0.2632 -2.5101
 1115SOL    HW214034   5.983   8.366   6.337  1.8884  0.9823  1.9287
 1116SOL     OW14035   0.625   6.422   0.236 -0.4542  0.3332 -0.3824
 1116SOL    HW114036   0.599   6.427   0.333  2.2478  0.8225  0.3669
 1116SOL    HW214037   0.543   6.424   0.179 -2.1092 -0.3484  1.9078
 1117SOL     OW14038   2.269   6.869   4.225 -0.9751 -0.6107  0.6736
 1117SOL    HW114039   2.172   6.875   4.246 -0.8430  0.9321  0.9101
 1117SOL    HW214040   2.320   6.935   4.280  0.0428 -0.4257 -0.4427
 1118SOL     OW14041   7.859   3.779   5.012 -0.3361  0.0091 -0.2976
 1118SOL    HW114042   7.867   3.730   4.926 -1.2627  0.5688 -0.6979
 1118SOL    HW214043   7.893   3.873   5.001  1.5860 -0.5693  0.5073
 1119SOL     OW14044   9.791   4.016   3.869 -0.0032  0.1576  0.5310
 1119SOL    HW114045   9.873   4.073   3.868 -0.4193  0.7527 -0.5775
 1119SOL    HW214046   9.816   3.922   3.892  1.1582  0.0779 -0.9995
 1120SOL     OW14047   4.792   0.732   2.432 -0.1453 -0.2121  0.1610
 1120SOL    HW114048   4.888   0.755   2.415 -0.2531 -0.7429 -1.2797
 1120SOL    HW214049   4.780   0.633   2.428 -0.6516 -0.1903  0.9542
 1121SOL     OW14050   3.246   4.291   5.619  0.0232  0.4927  0.5399
 1121SOL    HW114051   3.322   4.314   5.679 -0.9998  3.1959  0.8816
 1121SOL    HW214052   3.160   4.313   5.665 -0.8780 -0.3577 -0.7103
 1122SOL     OW14053   4.257   8.750   3.147  0.6175 -0.3214 -0.5785
 1122SOL    HW114054   4.335   8.812   3.149  1.3980 -1.3417  1.7094
 1122SOL    HW214055   4.178   8.794   3.191  0.6061 -0.2097 -0.7096
 1123SOL     OW14056   2.330   1.560   1.683  0.4183  0.5432 -0.2110
 1123SOL    HW114057   2.251   1.592   1.735 -0.5216 -1.1130 -0.5862
 1123SOL    HW214058   2.413   1.572   1.738 -0.4599 -0.5018  1.3906
 1124SOL     OW14059   7.382   4.079   2.877  0.3539 -0.0122  0.1581
 1124SOL    HW114060   7.295   4.030   2.873 -0.9939  2.3701 -0.4874
 1124SOL    HW214061   7.450   4.031   2.821 -1.2046 -0.6059 -1.2632
 1125SOL     OW14062   6.385   2.071   4.287  0.0309 -0.1494 -0.1254
 1125SOL    HW114063   6.483   2.085   4.299 -0.2592  2.9772 -0.9188
 1125SOL    HW214064   6.362   2.078   4.189 -1.4800  3.1299  0.4007
 1126SOL     OW14065   8.424   1.101   2.419  0.4807 -0.1897  0.4046
 1126SOL    HW114066   8.486   1.048   2.477  1.9783  0.2608 -0.7289
 1126SOL    HW214067   8.374   1.040   2.358  0.2956 -0.5084  0.8779
 1127SOL     OW14068   0.890   0.826   5.812  0.5718 -0.4445 -0.1560
 1127SOL    HW114069   0.884   0.753   5.744  0.0569 -1.1985  0.6874
 1127SOL    HW214070   0.862   0.791   5.902 -0.6942  1.0485  0.0605
 1129SOL     OW14071   1.563   3.220   1.847  0.4012  0.4768  0.4044
 1129SOL    HW114072   1.531   3.188   1.758  0.9130  0.6319  0.1634
 1129SOL    HW214073   1.660   3.195   1.859 -0.0571 -0.8904  1.5402
 1130SOL     OW14074   1.489   0.982   6.365  0.1896  0.7822  0.1674
 1130SOL    HW114075   1.521   1.072   6.334  2.4931 -0.4375 -1.1191
 1130SOL    HW214076   1.559   0.939   6.421 -0.8788 -0.2573  0.7257
 1132SOL     OW14077   1.248   3.147   6.127 -0.3879  0.9232 -0.4615
 1132SOL    HW114078   1.290   3.237   6.125  2.1618 -0.1635  1.1670
 1132SOL    HW214079   1.252   3.111   6.221 -2.3119 -0.4494 -0.8807
 1133SOL     OW14080   5.545   4.149   1.501 -0.1062 -0.4599  0.1202
 1133SOL    HW114081   5.543   4.210   1.422 -0.6876  0.2654  0.6931
 1133SOL    HW214082   5.503   4.061   1.477 -0.4121 -0.1907 -0.3312
 1134SOL     OW14083   8.079   2.430   6.193  0.3178 -0.4786  0.3689
 1134SOL    HW114084   8.061   2.333   6.177  0.2453 -0.9581  3.0277
 1134SOL    HW214085   8.178   2.446   6.189  0.3191 -0.6344 -0.2313
 1135SOL     OW14086   4.312   3.867   0.264 -0.4747  0.2934 -0.1093
 1135SOL    HW114087   4.250   3.842   0.189 -0.1255 -0.2365 -0.2256
 1135SOL    HW214088   4.310   3.796   0.334 -0.0945  0.3359 -0.0529
 1136SOL     OW14089   8.148   2.111   3.700  0.0746  0.8137  0.2544
 1136SOL    HW114090   8.195   2.122   3.613  1.1515 -0.5447  0.6345
 1136SOL    HW214091   8.215   2.116   3.775 -0.7648  1.4723  0.9741
 1137SOL     OW14092   3.819   3.807   4.631  0.1408  0.5500 -0.0353
 1137SOL    HW114093   3.796   3.812   4.534  0.2100  0.8939 -0.0334
 1137SOL    HW214094   3.736   3.799   4.685  0.1244 -0.1935 -0.1555
 1138SOL     OW14095   1.641   3.627   2.148  0.0307 -0.3806  0.0318
 1138SOL    HW114096   1.688   3.715   2.154 -0.4103 -0.1288 -0.1855
 1138SOL    HW214097   1.643   3.594   2.054 -0.0324 -0.4765  0.0640
 1139SOL     OW14098   0.153   6.261   4.981  0.5156  0.2684  0.3584
 1139SOL    HW114099   0.090   6.215   5.043 -0.6962  0.8273 -0.4440
 1139SOL    HW214100   0.156   6.212   4.894  1.2178  0.2246  0.4069
 1140SOL     OW14101   4.919   8.025   5.618  0.5517  0.3056 -0.3465
 1140SOL    HW114102   4.978   8.060   5.692  0.6057  0.0874 -0.2823
 1140SOL    HW214103   4.960   7.941   5.581  1.3172  1.2428 -1.6604
 1141SOL     OW14104   4.046   4.487   1.386  0.0105  0.3635 -0.3153
 1141SOL    HW114105   3.976   4.482   1.315 -1.4201 -0.9139  1.1511
 1141SOL    HW214106   4.101   4.403   1.385 -1.3378 -0.5557  1.4061
 1142SOL     OW14107   5.645   8.370   3.442  0.3030 -0.0398 -0.1170
 1142SOL    HW114108   5.582   8.346   3.368  0.5299 -0.7983 -0.0664
 1142SOL    HW214109   5.709   8.440   3.410 -0.9128  1.1625  0.0002
 1143SOL     OW14110   8.134   6.037   2.379 -0.1483 -0.4635  0.0069
 1143SOL    HW114111   8.091   6.068   2.463 -1.6569 -2.2792 -0.0712
 1143SOL    HW214112   8.141   6.114   2.315 -0.1181  0.6334  1.2979
 1144SOL     OW14113   2.900   4.268   5.496  0.3495  0.3706 -0.1488
 1144SOL    HW114114   2.804   4.289   5.478  1.0675  1.9208 -2.3174
 1144SOL    HW214115   2.958   4.327   5.440  2.5742 -0.5275  1.1726
 1146SOL     OW14116   6.433   0.416   1.447 -0.2247  0.1932  0.1516
 1146SOL    HW114117   6.467   0.432   1.355 -0.5613  0.3741  0.0572
 1146SOL    HW214118   6.380   0.332   1.449 -0.6552  0.4598  0.0623
 1147SOL     OW14119   4.246   5.006   0.893  0.0061 -0.0404  0.1605
 1147SOL    HW114120   4.304   5.033   0.970 -1.5472 -0.0054  1.3494
 1147SOL    HW214121   4.300   5.005   0.809  1.4996  0.9023  1.0844
 1149SOL     OW14122   2.454   3.229   1.983  0.3501 -0.1350 -0.4196
 1149SOL    HW114123   2.477   3.190   2.072  0.6718 -0.9153 -0.8392
 1149SOL    HW214124   2.394   3.307   1.996  1.6679  0.7325  0.5815
 1151SOL     OW14125   3.388   3.678   0.173  0.1334  0.1286 -0.1639
 1151SOL    HW114126   3.358   3.696   0.267 -0.8079 -1.7364 -0.0780
 1151SOL    HW214127   3.384   3.580   0.155  1.2400  0.3732 -1.8572
 1152SOL     OW14128   3.767   8.066   1.889  0.1356  0.3452  0.0810
 1152SOL    HW114129   3.714   7.983   1.873 -0.1084  0.6922 -0.9088
 1152SOL    HW214130   3.718   8.146   1.854  0.6167  0.8536  0.5345
 1153SOL     OW14131   7.142   7.604   5.145  0.8986 -0.1455  0.1034
 1153SOL    HW114132   7.224   7.574   5.194  1.3431  0.1985 -0.4139
 1153SOL    HW214133   7.145   7.570   5.051  1.1466  1.0373 -0.3344
 1154SOL     OW14134   9.071   2.369   6.094 -0.5996  0.2607  0.1950
 1154SOL    HW114135   9.026   2.348   6.007 -0.7424  1.1120  0.0538
 1154SOL    HW214136   9.091   2.285   6.143  0.6962 -0.3109 -1.2782
 1155SOL     OW14137   1.276   4.938   4.076  0.2800  0.4782  0.2521
 1155SOL    HW114138   1.363   4.914   4.034  0.2169  0.2783  0.2338
 1155SOL    HW214139   1.205   4.877   4.042 -0.2739  1.9380 -1.2987
 1156SOL     OW14140   2.634   5.759   2.405 -0.1052 -0.2662  0.0093
 1156SOL    HW114141   2.564   5.698   2.369 -1.0380 -0.2498  1.7242
 1156SOL    HW214142   2.591   5.837   2.449  1.0288  0.3949 -0.0189
 1157SOL     OW14143   1.514   8.543   4.125 -0.7810  0.2190 -0.5863
 1157SOL    HW114144   1.486   8.637   4.145 -0.3580  0.5722 -1.6161
 1157SOL    HW214145   1.609   8.529   4.155 -1.1099 -0.1408  0.3287
 1161SOL     OW14146   0.343   3.869   4.630  0.2967  0.9561  0.3454
 1161SOL    HW114147   0.380   3.873   4.538  0.1024 -1.2651  0.1380
 1161SOL    HW214148   0.383   3.941   4.686  0.9130  1.8940 -1.2913
 1163SOL     OW14149   4.895   4.232   0.585 -0.0578  0.2661  0.4717
 1163SOL    HW114150   4.829   4.165   0.553 -0.7173  1.2057 -0.1603
 1163SOL    HW214151   4.976   4.185   0.620  0.5990 -0.8204 -2.3932
 1164SOL     OW14152   5.149   8.912   5.230  0.2167  0.1038 -0.0307
 1164SOL    HW114153   5.179   8.981   5.296  1.4462  1.0628 -1.5654
 1164SOL    HW214154   5.068   8.944   5.182 -0.6835 -0.5993  0.9708
 1165SOL     OW14155   5.611   0.111   5.683  0.7520  0.1172 -0.0360
 1165SOL    HW114156   5.562   0.028   5.656  0.5113  0.3398 -0.2954
 1165SOL    HW214157   5.687   0.087   5.744  2.4023 -0.5965 -2.2898
 1166SOL     OW14158   2.361   1.994   6.091 -0.4549  0.0228 -0.2089
 1166SOL    HW114159   2.343   1.921   6.025 -0.5377 -0.0379 -0.1196
 1166SOL    HW214160   2.378   2.079   6.042  0.6076 -0.2618 -0.3432
 1167SOL     OW14161   7.585   7.455   4.038  0.0055  0.0591  0.3240
 1167SOL    HW114162   7.654   7.421   4.101  1.4659  0.3592 -1.0692
 1167SOL    HW214163   7.621   7.452   3.944 -1.6439  0.8007 -0.3565
 1168SOL     OW14164   1.785   1.902   2.894 -0.3577  0.1468  0.5936
 1168SOL    HW114165   1.726   1.826   2.865 -0.5841  1.5298 -2.8425
 1168SOL    HW214166   1.880   1.872   2.896 -0.4108 -0.1999 -1.0553
 1169SOL     OW14167   2.946   6.226   5.249  0.5473  0.4624  0.8786
 1169SOL    HW114168   2.996   6.189   5.170 -1.0549 -0.6409  0.3452
 1169SOL    HW214169   2.955   6.325   5.251  1.5599  0.4000 -0.0285
 1171SOL     OW14170   3.409   9.407   3.018 -0.0545  0.0685  0.0509
 1171SOL    HW114171   3.371   9.473   3.084 -0.9441 -0.7986  0.4135
 1171SOL    HW214172   3.480   9.352   3.063 -0.8881 -0.7415  0.3764
 1172SOL     OW14173   0.351   4.786   4.090  0.3430  0.7892  0.2987
 1172SOL    HW114174   0.440   4.827   4.108  0.2568  1.0043  0.2380
 1172SOL    HW214175   0.286   4.814   4.161  0.6242 -0.3281  1.0142
 1173SOL     OW14176   9.764   3.053   2.284  0.6106 -0.7453  0.2749
 1173SOL    HW114177   9.840   3.092   2.336  1.2504 -0.5432 -0.7906
 1173SOL    HW214178   9.794   3.035   2.190 -0.8057 -0.1839 -0.2988
 1174SOL     OW14179   0.268   3.642   3.027 -0.4478 -0.3340 -0.6304
 1174SOL    HW114180   0.306   3.575   2.963  2.6390 -0.7026  1.5139
 1174SOL    HW214181   0.323   3.726   3.024  0.7938 -0.9738  2.7440
 1176SOL     OW14182   0.538   7.814   4.122 -0.0988 -0.3002 -0.9630
 1176SOL    HW114183   0.468   7.744   4.139 -3.4433  3.2992  0.8923
 1176SOL    HW214184   0.602   7.818   4.198  0.0519 -1.2445 -1.0376
 1178SOL     OW14185   2.680   4.993   3.302  0.8836  0.0787  0.5890
 1178SOL    HW114186   2.630   4.950   3.377 -1.6331  1.3170 -0.3437
 1178SOL    HW214187   2.706   5.086   3.328  0.4703  0.3249  0.1350
 1179SOL     OW14188   1.554   5.609   2.445 -0.3023 -0.3604 -0.5963
 1179SOL    HW114189   1.649   5.624   2.475 -1.2319  0.5336  1.9999
 1179SOL    HW214190   1.545   5.639   2.350  0.7726  4.9480  0.7779
 1180SOL     OW14191   5.866   3.318   0.891 -0.1155 -0.6939  0.3372
 1180SOL    HW114192   5.959   3.335   0.925 -0.1888  0.4095  0.0111
 1180SOL    HW214193   5.860   3.347   0.795 -0.5295 -1.6906  0.0505
 1181SOL     OW14194   2.191   0.807   4.579  0.2662  0.0329  0.6803
 1181SOL    HW114195   2.098   0.825   4.548 -0.5245 -1.6409  2.0043
 1181SOL    HW214196   2.233   0.893   4.610  0.0355  1.2033 -2.1059
 1182SOL     OW14197   3.114   9.302   0.807 -0.4293  0.2953  0.0589
 1182SOL    HW114198   3.047   9.227   0.813  0.4261 -0.4312  0.7134
 1182SOL    HW214199   3.079   9.381   0.857  0.1382 -0.8105  2.2800
 1183SOL     OW14200   1.593   8.280   0.477  0.3767  0.3329 -0.6853
 1183SOL    HW114201   1.586   8.373   0.514  0.4709  0.2310 -0.4120
 1183SOL    HW214202   1.670   8.275   0.414 -1.5789  1.2939 -3.2126
 1184SOL     OW14203   2.473   8.048   5.759 -0.1249 -0.0148  0.1288
 1184SOL    HW114204   2.519   8.010   5.679 -1.5756  0.4465 -0.9406
 1184SOL    HW214205   2.431   8.136   5.735 -0.5577  0.1395  1.3964
 1185SOL     OW14206   4.497   7.707   2.041  0.3229 -0.3097 -0.4017
 1185SOL    HW114207   4.547   7.704   1.954  0.8641 -2.7491 -0.0505
 1185SOL    HW214208   4.562   7.706   2.117 -0.1845 -0.7499  0.0307
 1186SOL     OW14209   9.887   1.095   2.996 -0.0135  0.4650  0.2677
 1186SOL    HW114210   9.848   1.142   3.076 -1.0546  0.4657 -0.2336
 1186SOL    HW214211   9.821   1.028   2.961  0.8222 -0.2158 -0.0102
 1188SOL     OW14212   7.702   7.490   5.723  0.2320 -0.3413  0.1425
 1188SOL    HW114213   7.628   7.552   5.695 -0.2397 -1.6685 -1.6915
 1188SOL    HW214214   7.764   7.538   5.784 -1.4593  1.1933  0.7232
 1189SOL     OW14215   5.088   0.495   1.611 -0.0950 -0.2248 -0.5279
 1189SOL    HW114216   5.188   0.497   1.610 -0.1128  0.8343 -0.9011
 1189SOL    HW214217   5.055   0.425   1.548  0.4278 -1.1657  0.2482
 1190SOL     OW14218   4.288   7.834   4.160 -0.0412  0.2955  0.0965
 1190SOL    HW114219   4.367   7.876   4.116  0.2150 -0.2109  0.0650
 1190SOL    HW214220   4.224   7.905   4.190  1.9285  0.8877  3.0642
 1191SOL     OW14221   5.036   4.921   0.308  0.7021 -0.1789  0.2508
 1191SOL    HW114222   5.048   4.823   0.322 -1.4806 -0.3549  1.2177
 1191SOL    HW214223   4.944   4.948   0.339  1.1204  2.0944 -0.3671
 1192SOL     OW14224   9.102   6.699   5.540 -0.1615 -0.1858  0.2178
 1192SOL    HW114225   9.124   6.737   5.630 -0.3187 -0.2060  0.2656
 1192SOL    HW214226   9.123   6.767   5.470  0.2657 -0.2916  0.2448
 1193SOL     OW14227   6.100   8.873   3.936  0.6198 -0.3012  0.3402
 1193SOL    HW114228   6.031   8.914   3.876 -0.3715 -0.0897  1.5968
 1193SOL    HW214229   6.134   8.789   3.895  2.3374  1.4901 -2.0525
 1194SOL     OW14230   5.018   7.959   2.771 -0.1405  0.2491 -0.5731
 1194SOL    HW114231   5.038   8.036   2.711 -0.8148 -1.5687 -3.2483
 1194SOL    HW214232   5.019   7.989   2.866  4.6738  2.4690 -1.1817
 1195SOL     OW14233   2.970   7.396   5.860  0.1138  0.2385  0.2626
 1195SOL    HW114234   2.985   7.327   5.930 -0.3966  0.3314  0.4725
 1195SOL    HW214235   2.951   7.352   5.772 -1.0627  0.0984  0.5816
 1196SOL     OW14236   6.527   2.110   5.254  0.7072  0.1235 -0.1037
 1196SOL    HW114237   6.593   2.144   5.187 -0.2997  0.2834 -1.0240
 1196SOL    HW214238   6.438   2.097   5.210  0.5256 -1.6722  0.7308
 1197SOL     OW14239   3.702   6.279   5.792  0.2266  0.0856 -0.6122
 1197SOL    HW114240   3.626   6.261   5.855  0.0823  1.3488 -0.4047
 1197SOL    HW214241   3.778   6.319   5.844  0.7460 -0.4686 -0.9506
 1198SOL     OW14242   6.228   2.601   0.941  0.3064  0.3507  0.4173
 1198SOL    HW114243   6.322   2.585   0.910 -0.1875  2.1669 -2.2158
 1198SOL    HW214244   6.199   2.526   0.999  3.0209 -0.7719  0.4036
 1200SOL     OW14245   8.087   7.932   6.222 -0.7021 -0.6857 -0.3324
 1200SOL    HW114246   8.034   8.010   6.189 -0.0614 -0.1052 -0.0288
 1200SOL    HW214247   8.120   7.878   6.145  1.2941  0.9996 -0.7092
 1201SOL     OW14248   5.400   5.470   1.281  0.0286 -0.5081 -0.0913
 1201SOL    HW114249   5.460   5.545   1.252  2.5107 -1.5914  1.9806
 1201SOL    HW214250   5.318   5.507   1.324  1.6438  1.0684  1.7312
 1202SOL     OW14251   2.482   1.246   4.526  0.5277 -0.4745  0.0854
 1202SOL    HW114252   2.548   1.263   4.453  0.7575  1.4126  0.7075
 1202SOL    HW214253   2.527   1.260   4.615 -0.7888  1.1786  0.5136
 1203SOL     OW14254   1.333   7.038   1.451 -0.4172  0.4530 -0.3436
 1203SOL    HW114255   1.234   7.044   1.462 -0.3342  1.5068 -0.1346
 1203SOL    HW214256   1.364   6.946   1.475 -1.3465  0.1266 -0.4053
 1205SOL     OW14257   8.192   5.668   1.001  0.2714  0.8891 -0.1123
 1205SOL    HW114258   8.170   5.589   1.058 -0.5670  0.7892 -0.5578
 1205SOL    HW214259   8.276   5.711   1.033 -0.5519  1.2425  1.6287
 1207SOL     OW14260   1.941   6.531   0.674 -0.6281 -0.2539  0.0136
 1207SOL    HW114261   1.971   6.588   0.598 -2.6162  1.8451  0.7555
 1207SOL    HW214262   2.016   6.471   0.702  1.2155  1.3121 -1.4066
 1208SOL     OW14263   2.661   6.627   2.390  0.3669  0.3677 -0.3951
 1208SOL    HW114264   2.704   6.665   2.472  0.4564  0.6046 -0.5518
 1208SOL    HW214265   2.668   6.693   2.315  0.4740  0.0649 -0.6523
 1210SOL     OW14266   7.166   3.962   0.555  0.5199 -0.6260 -0.0048
 1210SOL    HW114267   7.146   3.865   0.568  0.3406 -0.5359  0.3843
 1210SOL    HW214268   7.132   3.990   0.465  0.2385 -0.8332  0.0344
 1211SOL     OW14269   2.004   1.959   3.737 -0.2872  1.0734  0.0318
 1211SOL    HW114270   2.043   2.015   3.810 -0.6789  2.6726 -0.9464
 1211SOL    HW214271   1.907   1.942   3.756 -0.0193  0.2346  0.6271
 1213SOL     OW14272   4.196   8.129   0.347  0.5494 -0.0849  0.5484
 1213SOL    HW114273   4.161   8.042   0.312  0.6018 -0.2364  0.8703
 1213SOL    HW214274   4.183   8.133   0.446 -1.3127  1.1186  0.2919
 1214SOL     OW14275   2.010   4.697   4.643 -0.0473 -0.4051  0.1763
 1214SOL    HW114276   2.107   4.692   4.666  0.1363 -1.6089 -0.8266
 1214SOL    HW214277   1.994   4.654   4.554 -1.3909  0.4126  0.0049
 1215SOL     OW14278   4.847   4.436   0.787  0.1854 -0.0962  0.6244
 1215SOL    HW114279   4.902   4.395   0.861  0.2766 -0.5917  0.2826
 1215SOL    HW214280   4.854   4.379   0.705  2.6369  2.1001 -0.7743
 1216SOL     OW14281   7.057   5.307   0.531 -0.2872 -0.2575  0.4451
 1216SOL    HW114282   7.026   5.316   0.436 -0.6794 -1.3212  0.4551
 1216SOL    HW214283   6.991   5.250   0.581  0.3239 -0.3360  1.1591
 1218SOL     OW14284   9.693   5.020   5.551  0.0976  0.0595 -0.0334
 1218SOL    HW114285   9.609   5.033   5.499  0.4251 -1.3752 -0.9530
 1218SOL    HW214286   9.686   5.066   5.639 -1.2750  0.7542 -0.5021
 1219SOL     OW14287   6.811   0.075   3.113  0.6212  0.6518 -0.0163
 1219SOL    HW114288   6.729   0.101   3.061  0.5011  1.8902  0.7786
 1219SOL    HW214289   6.891   0.123   3.076  0.7564  0.5299  0.1164
 1220SOL     OW14290   0.997   4.431   5.886  0.1277  0.3186 -0.4748
 1220SOL    HW114291   1.052   4.379   5.951  0.7310  0.1465 -1.1167
 1220SOL    HW214292   1.022   4.404   5.793 -1.5482 -0.2904 -0.7701
 1221SOL     OW14293   4.340   9.316   5.675  0.0951  0.2657 -0.1031
 1221SOL    HW114294   4.352   9.387   5.743 -0.6499  1.0860 -0.8185
 1221SOL    HW214295   4.257   9.334   5.622  1.1074  0.1078 -1.7779
 1223SOL     OW14296   5.474   2.311   4.190  0.0302 -0.0695 -0.0279
 1223SOL    HW114297   5.521   2.263   4.264 -0.7967  0.5417  0.9169
 1223SOL    HW214298   5.491   2.409   4.197 -2.6432  0.3687  1.3364
 1224SOL     OW14299   2.806   9.040   5.534 -0.0106  0.3354  0.0596
 1224SOL    HW114300   2.877   9.023   5.603  0.5682  1.3698 -0.2694
 1224SOL    HW214301   2.749   9.116   5.563 -1.3202 -0.8068  0.5567
 1225SOL     OW14302   8.488   0.685   1.895 -0.4364  0.1307 -0.0384
 1225SOL    HW114303   8.552   0.759   1.916 -1.5380  1.4686 -1.2967
 1225SOL    HW214304   8.431   0.667   1.975  0.5483 -0.1032  0.6231
 1226SOL     OW14305   4.118   4.081   1.204  0.6162  0.5376 -0.7011
 1226SOL    HW114306   4.035   4.049   1.158 -0.6288  0.2291  1.6487
 1226SOL    HW214307   4.194   4.020   1.181 -0.9216 -2.1217  0.8783
 1227SOL     OW14308   9.144   3.283   0.413  0.2232  0.5699  0.4952
 1227SOL    HW114309   9.142   3.379   0.384 -1.0088 -0.1768 -2.0718
 1227SOL    HW214310   9.123   3.224   0.334 -0.8437 -1.7253  2.4305
 1228SOL     OW14311   7.172   9.772   3.511  0.0782  0.1244  0.4428
 1228SOL    HW114312   7.122   9.763   3.425 -0.4006  0.2687  0.7044
 1228SOL    HW214313   7.182   9.869   3.534  0.7772  0.1089  0.2179
 1229SOL     OW14314   9.274   5.737   2.282 -0.2226  0.0343  0.3670
 1229SOL    HW114315   9.175   5.732   2.274 -0.0515 -0.9674 -1.3741
 1229SOL    HW214316   9.312   5.780   2.200  0.7722  0.6527  1.1404
 1231SOL     OW14317   7.585   5.765   5.246  0.0975  0.3624 -0.0430
 1231SOL    HW114318   7.658   5.774   5.314  1.1091 -2.1854 -0.7546
 1231SOL    HW214319   7.511   5.827   5.270  0.0852 -0.9922  3.8752
 1232SOL     OW14320   0.442   7.557   3.151 -0.5794  0.7305 -0.0449
 1232SOL    HW114321   0.459   7.656   3.148  1.1471  0.5239  1.9715
 1232SOL    HW214322   0.464   7.517   3.062  1.2648  1.7801 -0.0848
 1233SOL     OW14323   0.484   3.987   3.548  0.4877  0.7036 -0.5756
 1233SOL    HW114324   0.550   4.042   3.498  1.6205  2.3662  2.5877
 1233SOL    HW214325   0.418   4.046   3.594 -0.4405 -0.7376  0.0014
 1235SOL     OW14326   3.046   1.894   3.243 -0.1912 -0.5572  0.1896
 1235SOL    HW114327   2.984   1.827   3.202 -0.6491  0.2996 -0.5458
 1235SOL    HW214328   2.998   1.981   3.253  1.5057  0.7233 -2.3534
 1236SOL     OW14329   3.500   8.959   3.001 -0.2441 -0.3985  0.1930
 1236SOL    HW114330   3.518   8.950   3.099  1.6780  1.3036  0.0419
 1236SOL    HW214331   3.435   9.034   2.986 -0.3686 -0.5128  0.1650
 1238SOL     OW14332   7.663   4.142   0.490 -0.3576 -0.6461  0.8559
 1238SOL    HW114333   7.564   4.134   0.503 -0.3110 -0.1488  1.5077
 1238SOL    HW214334   7.706   4.174   0.575  0.1121  1.2570 -0.0755
 1242SOL     OW14335   0.649   9.812   0.858  0.4170 -0.2085 -0.5711
 1242SOL    HW114336   0.659   9.910   0.842  1.6703 -0.0121  1.2660
 1242SOL    HW214337   0.735   9.766   0.835  0.8033 -0.4763  1.3509
 1243SOL     OW14338   5.760   9.296   5.829 -0.0660  0.6017  0.1230
 1243SOL    HW114339   5.837   9.311   5.768  0.2420 -0.8332  0.1499
 1243SOL    HW214340   5.677   9.335   5.789 -0.3800 -2.5330 -2.4412
 1244SOL     OW14341   9.989   6.257   0.003 -0.0988 -0.5212 -0.1400
 1244SOL    HW114342   9.980   6.357   0.002  2.2045 -0.2705 -0.4866
 1244SOL    HW214343   9.901   6.215  -0.016 -1.2432  1.4354  0.5994
 1245SOL     OW14344   3.465   0.617   0.427 -0.7539 -0.0672  0.1567
 1245SOL    HW114345   3.441   0.554   0.354 -0.2086 -1.7522  1.3953
 1245SOL    HW214346   3.563   0.635   0.424 -1.1936  2.2119 -1.3308
 1247SOL     OW14347   8.919   8.037   3.595  0.4700 -0.9072  0.3423
 1247SOL    HW114348   8.939   8.131   3.622  0.9999 -1.5248  2.1211
 1247SOL    HW214349   8.820   8.026   3.585  0.4843  0.1863 -1.2220
 1248SOL     OW14350   3.958   3.118   1.830  0.0421 -0.8686 -0.3546
 1248SOL    HW114351   3.942   3.210   1.795  1.2537 -0.2217  0.7186
 1248SOL    HW214352   3.957   3.052   1.755  0.0903  0.1500 -1.2542
 1249SOL     OW14353   8.952   3.502   2.023 -0.3295 -0.8188  0.4441
 1249SOL    HW114354   9.003   3.435   1.970  0.0747 -0.3726  0.2613
 1249SOL    HW214355   8.978   3.594   1.993 -1.1406 -0.5897  0.4390
 1251SOL     OW14356   9.763   2.575   4.995  0.0010 -0.1606  0.0468
 1251SOL    HW114357   9.684   2.512   4.995  1.2460 -1.7607 -0.5535
 1251SOL    HW214358   9.841   2.530   4.951  1.3191  1.3286  0.8234
 1253SOL     OW14359   9.640   2.544   2.342 -0.1234 -0.0784  0.4318
 1253SOL    HW114360   9.647   2.476   2.269  0.8382 -0.1658  0.6006
 1253SOL    HW214361   9.623   2.634   2.302 -0.1208 -0.2101  0.1321
 1254SOL     OW14362   7.135   9.978   1.683  0.1778  0.1376  0.1810
 1254SOL    HW114363   7.064   9.972   1.754  0.7857  2.7363  1.0642
 1254SOL    HW214364   7.155  10.074   1.665  3.6158 -0.5591  0.0486
 1255SOL     OW14365   8.174   8.403   5.813 -0.0168 -0.1318 -0.9741
 1255SOL    HW114366   8.109   8.479   5.805  0.4426  0.6614  2.1652
 1255SOL    HW214367   8.267   8.436   5.800  0.0650 -0.4382 -1.1708
 1257SOL     OW14368   7.472   8.977   5.956 -0.4534 -0.1210  0.4260
 1257SOL    HW114369   7.417   8.908   6.003 -0.0286 -1.0137 -0.3591
 1257SOL    HW214370   7.555   8.995   6.009 -1.2394  0.8544  1.3553
 1259SOL     OW14371   4.699   3.296   4.738 -0.6334 -0.1251 -0.4811
 1259SOL    HW114372   4.669   3.371   4.797  0.7833  1.2808 -1.5163
 1259SOL    HW214373   4.619   3.247   4.703 -1.6217  1.7354 -0.8597
 1260SOL     OW14374   0.250   8.210   1.802 -0.2436 -0.6284  0.0760
 1260SOL    HW114375   0.256   8.210   1.702 -0.1847  1.2285  0.0501
 1260SOL    HW214376   0.330   8.258   1.840  0.1362 -2.0016  1.0612
 1261SOL     OW14377   4.893   1.499   0.837  0.6230  0.1909  0.0017
 1261SOL    HW114378   4.969   1.492   0.771 -0.0875  3.0910 -1.2096
 1261SOL    HW214379   4.923   1.553   0.915 -0.2171  1.4637 -0.5458
 1262SOL     OW14380   2.132   4.332   6.086 -0.4413 -0.2690 -0.5315
 1262SOL    HW114381   2.134   4.285   6.174  3.3020  0.7850  0.0175
 1262SOL    HW214382   2.119   4.266   6.013  0.0514 -1.5937  0.5541
 1264SOL     OW14383   4.468   8.550   5.042  0.3039 -0.3405  0.4795
 1264SOL    HW114384   4.383   8.498   5.037  1.1618 -1.9137  1.9236
 1264SOL    HW214385   4.532   8.504   5.103  0.9595  2.5967  2.1163
 1265SOL     OW14386   8.527   7.884   3.114 -0.6751  0.2524 -0.0837
 1265SOL    HW114387   8.565   7.891   3.206 -1.0491  2.9462 -0.0949
 1265SOL    HW214388   8.428   7.867   3.120 -0.5623 -0.4107 -0.0122
 1266SOL     OW14389   9.736   3.178   5.097 -0.0238 -0.2381 -0.7719
 1266SOL    HW114390   9.733   3.193   5.196  0.0031  2.8239 -1.1849
 1266SOL    HW214391   9.655   3.128   5.069 -0.5510 -0.2210  0.6560
 1267SOL     OW14392   9.491   3.676   2.645  0.3710 -0.3357 -0.7073
 1267SOL    HW114393   9.437   3.605   2.599  0.1435 -0.8263  0.3124
 1267SOL    HW214394   9.586   3.644   2.655  0.6895  0.2251 -1.8288
 1268SOL     OW14395   7.892   5.488   2.123 -0.2588  0.2341 -0.0268
 1268SOL    HW114396   7.980   5.491   2.076  0.0081  2.6667  0.5818
 1268SOL    HW214397   7.846   5.402   2.102  1.8395 -0.6467 -1.1113
 1269SOL     OW14398   8.262   6.493   2.614 -0.0466  0.1945 -0.7650
 1269SOL    HW114399   8.321   6.573   2.625  2.0121 -1.3566 -0.1798
 1269SOL    HW214400   8.233   6.460   2.704  1.0262 -1.0648 -0.8520
 1271SOL     OW14401   0.392   7.989   4.769 -0.0778  0.0412 -0.3658
 1271SOL    HW114402   0.316   7.974   4.832  0.1981  0.6026  0.1023
 1271SOL    HW214403   0.358   8.031   4.685 -0.3220  0.0665 -0.2543
 1272SOL     OW14404   9.589   7.172   0.184 -0.3260 -0.5458  0.2136
 1272SOL    HW114405   9.510   7.191   0.125 -0.3650 -0.4114  0.3078
 1272SOL    HW214406   9.602   7.073   0.191 -0.7070 -0.5768  0.4874
 1273SOL     OW14407   5.334   4.670   0.315 -0.3734  0.4001 -0.6667
 1273SOL    HW114408   5.331   4.761   0.357 -0.5109 -0.2603  0.8020
 1273SOL    HW214409   5.241   4.641   0.291 -0.4637  0.1625 -0.0432
 1274SOL     OW14410   4.016   0.159   2.716 -0.0807 -0.3389  0.0405
 1274SOL    HW114411   4.105   0.203   2.709 -0.1449 -0.2095  0.0338
 1274SOL    HW214412   3.974   0.183   2.803 -0.2257 -0.1772 -0.0723
 1275SOL     OW14413   7.223   3.730   3.592 -0.1554 -0.1078  0.2403
 1275SOL    HW114414   7.194   3.691   3.505 -0.6868  1.1646 -0.1654
 1275SOL    HW214415   7.251   3.657   3.654  2.6795 -0.9204 -1.8737
 1276SOL     OW14416   4.754   2.610   3.745 -0.3123  0.3259  0.0224
 1276SOL    HW114417   4.825   2.680   3.739  1.5692 -1.4899  0.2638
 1276SOL    HW214418   4.709   2.599   3.656 -0.8288  2.0104  0.0627
 1279SOL     OW14419   4.517   5.188   3.507 -0.0594 -0.1782 -0.2791
 1279SOL    HW114420   4.545   5.147   3.420 -0.5116  2.0841 -1.5256
 1279SOL    HW214421   4.584   5.255   3.536 -0.2460 -0.4427  0.7963
 1281SOL     OW14422   0.346   5.318   3.607 -0.1192  0.4602  0.1623
 1281SOL    HW114423   0.256   5.361   3.607 -0.2951  0.1082 -0.9138
 1281SOL    HW214424   0.417   5.388   3.599 -0.4487  0.5216 -2.9777
 1282SOL     OW14425   1.730   5.401   1.734 -0.1037 -0.0698  0.1129
 1282SOL    HW114426   1.778   5.400   1.647 -1.7914 -1.7583 -0.8293
 1282SOL    HW214427   1.784   5.451   1.802  2.7503 -1.5016 -1.0291
 1283SOL     OW14428   8.237   6.997   5.423  0.0805 -0.3507 -0.2907
 1283SOL    HW114429   8.223   7.090   5.457  0.5654 -0.1837 -0.5404
 1283SOL    HW214430   8.171   6.936   5.465 -1.6720  0.4775 -1.7572
 1285SOL     OW14431   1.426   7.425   0.902  0.2832  0.2680  0.1321
 1285SOL    HW114432   1.416   7.326   0.911  0.7895  0.0147 -1.8111
 1285SOL    HW214433   1.389   7.454   0.814  0.7636  1.7120  0.3984
 1286SOL     OW14434   4.779   2.603   1.231 -0.2731  0.1957 -0.1350
 1286SOL    HW114435   4.846   2.528   1.228  0.1636  0.6248 -2.3317
 1286SOL    HW214436   4.699   2.573   1.283  2.0938  0.1270  3.6803
 1287SOL     OW14437   4.441   8.532   3.670 -0.4649 -0.6137 -0.0275
 1287SOL    HW114438   4.364   8.491   3.620 -0.2391 -1.5496  0.3930
 1287SOL    HW214439   4.439   8.501   3.765  0.3634 -0.5432  0.0125
 1288SOL     OW14440   1.911   0.587   0.518  0.1414 -0.3805 -0.2508
 1288SOL    HW114441   1.924   0.665   0.579  0.9359  3.0585 -4.5808
 1288SOL    HW214442   1.819   0.551   0.531  0.1955  0.4081  2.7444
 1290SOL     OW14443   4.805   3.997   5.994  0.2856  0.3251  0.0273
 1290SOL    HW114444   4.761   3.918   6.037  0.0793  0.6231  0.3597
 1290SOL    HW214445   4.862   3.965   5.917 -1.3405  0.0441 -1.0733
 1293SOL     OW14446   3.428   1.846   5.641  0.0848  0.4245  0.0211
 1293SOL    HW114447   3.382   1.914   5.583  1.5536  1.7371  0.3628
 1293SOL    HW214448   3.389   1.849   5.733  0.2549  0.9298  0.0785
 1294SOL     OW14449   9.469   4.620   3.299  0.2476 -0.2435 -0.6980
 1294SOL    HW114450   9.385   4.671   3.319  0.3862 -0.3053  0.0534
 1294SOL    HW214451   9.452   4.523   3.313  0.5119 -0.2341 -0.3160
 1295SOL     OW14452   1.320   9.248   1.716  0.5388  0.5832 -0.3662
 1295SOL    HW114453   1.351   9.320   1.778 -0.3970  0.4765  0.2427
 1295SOL    HW214454   1.358   9.264   1.625  3.7315 -0.5033  0.7368
 1296SOL     OW14455   0.706   5.482   5.850  0.2185  0.0109  0.4219
 1296SOL    HW114456   0.780   5.421   5.876  0.4399  0.7016  1.4321
 1296SOL    HW214457   0.619   5.449   5.888  0.0349 -0.6607 -0.5534
 1297SOL     OW14458   1.187   8.743   3.926  0.1653 -0.0141 -0.2288
 1297SOL    HW114459   1.138   8.743   3.839 -0.4064 -0.7870  0.0843
 1297SOL    HW214460   1.284   8.727   3.910 -0.0557 -0.9438 -0.6687
 1298SOL     OW14461   4.260   9.204   0.376  0.4687  0.2064 -0.1580
 1298SOL    HW114462   4.203   9.145   0.433  0.5065 -2.2824 -2.5912
 1298SOL    HW214463   4.244   9.300   0.401 -2.7687 -0.5786  1.0236
 1299SOL     OW14464   4.366   4.981   0.641 -0.7146  0.2524  0.5497
 1299SOL    HW114465   4.403   5.069   0.611  0.1279 -0.0838  0.5877
 1299SOL    HW214466   4.271   4.972   0.609 -0.9999  1.4182  1.0581
 1300SOL     OW14467   3.167   4.164   4.038 -0.1664 -0.1289  0.0851
 1300SOL    HW114468   3.201   4.158   4.132  0.3262 -1.1937 -0.1497
 1300SOL    HW214469   3.074   4.201   4.039  0.0062  0.3011  0.9497
 1301SOL     OW14470   3.936   9.175   0.176 -0.5187  0.0187 -0.5903
 1301SOL    HW114471   3.843   9.204   0.154 -0.3144  1.2191  0.0462
 1301SOL    HW214472   3.951   9.183   0.275  0.2463 -0.1943 -0.6840
 1302SOL     OW14473   2.571   2.002   1.864 -0.2337 -0.2583  0.1572
 1302SOL    HW114474   2.539   1.907   1.864  2.9392 -1.3979 -0.6700
 1302SOL    HW214475   2.662   2.006   1.905 -0.8847  2.6775  1.4390
 1303SOL     OW14476   2.808   0.637   4.119  0.3012  0.2627 -0.4370
 1303SOL    HW114477   2.816   0.669   4.024  0.6684 -0.1780 -0.5596
 1303SOL    HW214478   2.712   0.637   4.145  0.1958  0.3915 -0.8123
 1304SOL     OW14479   4.239   8.773   0.625  0.4859  0.2930  0.2859
 1304SOL    HW114480   4.217   8.726   0.710  0.7902 -0.2736  0.0582
 1304SOL    HW214481   4.273   8.706   0.558 -1.0497  0.4886 -0.7387
 1305SOL     OW14482   7.910   1.012   3.585 -0.2562  0.0673 -0.0844
 1305SOL    HW114483   7.832   1.072   3.566  1.0073  1.2556 -1.7187
 1305SOL    HW214484   7.995   1.063   3.570  0.8504 -2.0702 -1.3297
 1306SOL     OW14485   9.645   5.125   0.371 -0.2372  0.1900 -0.1963
 1306SOL    HW114486   9.744   5.112   0.362 -0.0784  1.0182  0.3151
 1306SOL    HW214487   9.623   5.222   0.361 -0.8393  0.1950  1.1382
 1307SOL     OW14488   3.217   4.718   6.392 -0.0934 -0.3466  0.1392
 1307SOL    HW114489   3.284   4.644   6.402 -0.0099 -0.8705 -3.6695
 1307SOL    HW214490   3.137   4.684   6.343 -1.4766  1.3095  1.1843
 1309SOL     OW14491   8.416   7.255   0.198  0.4099 -0.5334  0.7750
 1309SOL    HW114492   8.477   7.227   0.272 -0.6219 -0.7133  1.5835
 1309SOL    HW214493   8.369   7.174   0.162  1.1448 -0.4837 -0.2934
 1310SOL     OW14494   1.928   1.585   5.319 -0.0278  0.1927  0.2211
 1310SOL    HW114495   2.014   1.541   5.342  0.0569 -0.6528 -1.5829
 1310SOL    HW214496   1.941   1.684   5.313  0.2610  0.2950  2.2403
 1312SOL     OW14497   7.110   1.379   4.224 -0.0085 -0.0149 -0.6231
 1312SOL    HW114498   7.031   1.318   4.229  0.2890 -0.5569 -2.3840
 1312SOL    HW214499   7.088   1.457   4.165 -0.2418  1.3903  1.2760
 1313SOL     OW14500   8.808   6.740   2.801  0.2953  0.2106 -0.8726
 1313SOL    HW114501   8.859   6.826   2.806  0.4328  0.1570 -1.3513
 1313SOL    HW214502   8.711   6.761   2.787  0.0509  0.3369  0.8956
 1314SOL     OW14503   6.885   9.911   1.789 -0.2191 -0.0966  0.0407
 1314SOL    HW114504   6.887   9.813   1.809  2.2820 -0.1157 -0.0999
 1314SOL    HW214505   6.848   9.960   1.868 -1.7585 -1.1683 -0.0003
 1315SOL     OW14506   2.443   4.735   6.406 -0.6790  0.4427 -0.4766
 1315SOL    HW114507   2.458   4.762   6.311  0.1932 -0.8803 -0.7247
 1315SOL    HW214508   2.407   4.642   6.409 -1.5616  0.8048  0.4600
 1316SOL     OW14509   1.572   4.063   3.151 -0.4157 -0.3912  0.0634
 1316SOL    HW114510   1.553   4.137   3.216 -1.4192 -0.7451  0.1764
 1316SOL    HW214511   1.640   4.002   3.190 -1.4087 -0.9032  1.0184
 1317SOL     OW14512   9.716   3.152   4.292 -0.6896  0.0709 -0.3805
 1317SOL    HW114513   9.763   3.218   4.233  1.0032  0.8793  1.7880
 1317SOL    HW214514   9.660   3.202   4.358 -1.8019 -0.7981 -0.6516
 1318SOL     OW14515   6.590   0.673   3.922 -0.1484 -0.4053  0.2049
 1318SOL    HW114516   6.624   0.671   4.016 -1.2495  1.1185  0.6515
 1318SOL    HW214517   6.509   0.615   3.915  0.2823 -0.9967  0.0393
 1319SOL     OW14518   8.905   8.774   5.725  0.0252  0.1305  0.0155
 1319SOL    HW114519   8.896   8.872   5.742 -1.4647  0.1364 -0.7285
 1319SOL    HW214520   8.826   8.742   5.674  2.4773 -0.6461 -3.5330
 1320SOL     OW14521   8.846   1.126   6.283 -0.0987 -0.0339 -0.0474
 1320SOL    HW114522   8.747   1.117   6.273 -0.0629 -0.9840  0.3943
 1320SOL    HW214523   8.878   1.065   6.356  0.5348  1.8164  1.2446
 1321SOL     OW14524   0.179   3.081   6.095 -0.3314 -0.0771  0.7412
 1321SOL    HW114525   0.263   3.050   6.051 -0.9555  0.1830 -0.6657
 1321SOL    HW214526   0.148   3.012   6.160  0.2605 -0.7653  0.3023
 1324SOL     OW14527   9.318   6.351   5.733 -0.2239 -0.3163 -0.3431
 1324SOL    HW114528   9.305   6.420   5.662  0.1131  0.0342 -0.0651
 1324SOL    HW214529   9.357   6.268   5.692  2.0688  0.6509 -0.2208
 1325SOL     OW14530   5.862   8.804   5.520 -0.1743 -0.3013  0.2324
 1325SOL    HW114531   5.849   8.836   5.426 -1.7929 -0.9424  0.2345
 1325SOL    HW214532   5.777   8.815   5.571  1.1204  1.4417  2.0569
 1326SOL     OW14533   9.768   0.432   1.574 -0.4514  0.2340 -0.0290
 1326SOL    HW114534   9.810   0.343   1.558  2.2837  1.6903 -1.2340
 1326SOL    HW214535   9.698   0.449   1.504  1.9602  0.7516 -2.4179
 1328SOL     OW14536   0.489   3.445   0.997 -0.0269  0.0081 -0.2310
 1328SOL    HW114537   0.436   3.518   1.040  3.0518  1.6604  0.8940
 1328SOL    HW214538   0.522   3.382   1.068  1.1109  0.0867 -0.6876
 1330SOL     OW14539   2.039   5.111   2.645  0.7794  0.3500  0.1775
 1330SOL    HW114540   2.122   5.120   2.701  0.0274 -0.7669  1.4930
 1330SOL    HW214541   2.062   5.063   2.560  1.8923  1.9210 -0.4506
 1331SOL     OW14542   0.070   2.771   1.016  0.2769  0.1542  0.7396
 1331SOL    HW114543   0.109   2.684   1.048  0.7353 -0.6312 -1.8784
 1331SOL    HW214544   0.142   2.841   1.015  1.2985 -0.8563 -2.3996
 1332SOL     OW14545   3.886   7.890   3.086  0.1273  0.0216  0.0157
 1332SOL    HW114546   3.859   7.961   3.021  0.2418 -0.0850 -0.1509
 1332SOL    HW214547   3.985   7.877   3.081 -0.0273 -0.9665 -0.8084
 1333SOL     OW14548   2.003   4.647   2.858  0.1323 -0.3517  0.1641
 1333SOL    HW114549   1.927   4.703   2.825  0.3892 -1.0339 -1.6434
 1333SOL    HW214550   1.986   4.551   2.836  1.0437 -0.6251  0.6262
 1335SOL     OW14551   7.348   4.431   5.686 -0.1877 -0.2005 -0.4648
 1335SOL    HW114552   7.379   4.504   5.747 -1.1748  0.4467 -0.7198
 1335SOL    HW214553   7.335   4.347   5.739  1.0526 -0.2281 -0.1896
 1337SOL     OW14554   8.484   1.525   6.186  0.0829  0.1689  0.4626
 1337SOL    HW114555   8.479   1.515   6.286 -1.3639  0.9203  0.4897
 1337SOL    HW214556   8.430   1.452   6.143  0.8100 -0.2290  0.2223
 1338SOL     OW14557   4.918   9.892   3.522 -0.1421 -0.5052  0.1843
 1338SOL    HW114558   4.850   9.858   3.456 -0.7295 -0.0054  0.5287
 1338SOL    HW214559   5.007   9.901   3.476  0.0128 -2.4471  0.0790
 1339SOL     OW14560   3.252   2.428   5.497  0.2999  0.0919 -0.0399
 1339SOL    HW114561   3.178   2.478   5.543  1.3512  1.3799  0.2959
 1339SOL    HW214562   3.337   2.480   5.506  1.0775 -0.9784 -1.1205
 1340SOL     OW14563   7.916   2.403   2.964 -0.1874  0.3687 -0.2704
 1340SOL    HW114564   8.012   2.419   2.940 -0.1060 -0.1349 -0.2958
 1340SOL    HW214565   7.857   2.454   2.902  0.0422 -0.2172 -0.9744
 1341SOL     OW14566   2.832   3.165   4.920  0.3938  0.6973 -0.5831
 1341SOL    HW114567   2.814   3.066   4.928 -2.0338  1.1038 -0.4920
 1341SOL    HW214568   2.904   3.191   4.984 -1.2696 -0.4703  1.8461
 1342SOL     OW14569   1.064   9.947   5.491  0.0603  0.0536 -0.2361
 1342SOL    HW114570   1.132  10.012   5.523 -1.0766  0.4929  1.3272
 1342SOL    HW214571   1.035   9.887   5.566 -1.1988 -0.1910 -0.8907
 1344SOL     OW14572   0.402   1.063   3.545 -0.4568  0.1931  0.1159
 1344SOL    HW114573   0.412   0.966   3.523 -1.0967 -0.0327  0.7797
 1344SOL    HW214574   0.492   1.103   3.559 -0.0879  0.1664 -2.1012
 1345SOL     OW14575   7.208   3.586   3.350  0.3219  0.1158  0.0823
 1345SOL    HW114576   7.147   3.587   3.271  0.1038 -0.2023  0.2453
 1345SOL    HW214577   7.303   3.595   3.319  0.3247 -1.0840 -0.3034
 1346SOL     OW14578   8.210   5.923   4.350 -0.6485  0.2276  0.0603
 1346SOL    HW114579   8.278   5.854   4.375  0.4311  1.5102  0.7736
 1346SOL    HW214580   8.126   5.879   4.321 -0.1987 -1.3783  1.1429
 1347SOL     OW14581   9.150   9.322   1.926 -0.3384  0.1612  0.2054
 1347SOL    HW114582   9.229   9.347   1.981 -0.5989  1.0841  0.1759
 1347SOL    HW214583   9.136   9.391   1.854 -0.8227 -0.3000 -0.1505
 1348SOL     OW14584   3.871   3.169   0.187 -0.3089  0.1557  0.3054
 1348SOL    HW114585   3.798   3.221   0.142 -0.0200  0.7757  0.5495
 1348SOL    HW214586   3.876   3.078   0.147  0.8752  1.1507 -1.8880
 1352SOL     OW14587   2.894   7.492   3.348  0.0185  0.2856  0.4894
 1352SOL    HW114588   2.892   7.392   3.337  1.4993  0.3126 -0.2558
 1352SOL    HW214589   2.978   7.518   3.395  0.2094  1.2689 -0.3901
 1353SOL     OW14590   3.208   2.166   3.149  0.4758  0.3800 -0.4563
 1353SOL    HW114591   3.241   2.111   3.225  0.0644  0.6266 -0.0954
 1353SOL    HW214592   3.286   2.211   3.104  0.7890 -0.3471 -0.6413
 1354SOL     OW14593   3.424   2.469   2.597  0.4890  0.0248 -0.0527
 1354SOL    HW114594   3.367   2.419   2.532  0.7125  1.2949 -1.2409
 1354SOL    HW214595   3.373   2.545   2.636  0.5190 -0.4334  0.8851
 1356SOL     OW14596   9.202   7.707   1.902 -0.2367  0.0817  0.0180
 1356SOL    HW114597   9.105   7.686   1.893  0.0945 -1.2399 -0.5810
 1356SOL    HW214598   9.252   7.624   1.929  0.6874  0.8129  0.6016
 1357SOL     OW14599   6.111   1.169   3.318 -0.0606 -0.1077 -0.1483
 1357SOL    HW114600   6.178   1.182   3.245 -0.9251  2.4152 -0.5204
 1357SOL    HW214601   6.137   1.223   3.398 -1.3080  0.3767 -0.0623
 1359SOL     OW14602   9.819   2.859   0.933  0.3416 -0.3655 -0.0416
 1359SOL    HW114603   9.914   2.833   0.953  1.0140  1.7184 -0.4094
 1359SOL    HW214604   9.774   2.886   1.018  0.3720 -0.4140 -0.0091
 1361SOL     OW14605   0.548   0.730   4.606 -0.4803 -0.0373  0.0341
 1361SOL    HW114606   0.470   0.687   4.560  0.2365  0.8727 -2.1191
 1361SOL    HW214607   0.626   0.667   4.606 -0.1818  0.3163 -0.9226
 1362SOL     OW14608   3.193   3.219   3.242 -0.6892 -0.2339 -0.4418
 1362SOL    HW114609   3.143   3.182   3.321  1.3926 -1.4681  0.3228
 1362SOL    HW214610   3.210   3.316   3.256  0.4123 -0.6235  1.0405
 1363SOL     OW14611   5.866   9.584   3.302 -0.0516 -0.0104 -0.3008
 1363SOL    HW114612   5.930   9.564   3.228  0.0714 -0.9328  0.0518
 1363SOL    HW214613   5.916   9.617   3.382  0.1478 -2.0012  0.4359
 1365SOL     OW14614   3.848   5.755   0.532 -0.4061  0.0293 -0.2181
 1365SOL    HW114615   3.811   5.712   0.615  0.1923  0.4159  0.2539
 1365SOL    HW214616   3.862   5.685   0.462 -1.6823 -0.1765 -0.2781
 1366SOL     OW14617   3.129   1.701   1.084  0.5786 -0.1468  0.2592
 1366SOL    HW114618   3.172   1.613   1.104 -0.1083 -0.8798 -1.4603
 1366SOL    HW214619   3.165   1.770   1.147 -0.6901 -2.1329  3.3405
 1367SOL     OW14620   0.340   5.930   3.060  0.4975 -0.5752 -0.3248
 1367SOL    HW114621   0.275   5.938   2.985 -0.4637 -0.9636  0.4550
 1367SOL    HW214622   0.341   5.835   3.093  0.7665 -0.3644  0.2812
 1368SOL     OW14623   2.737   1.120   0.192  0.2486 -0.0480 -0.3706
 1368SOL    HW114624   2.781   1.047   0.140  0.8756 -0.7120  1.0432
 1368SOL    HW214625   2.792   1.203   0.185 -0.6483  0.3983 -2.2680
 1369SOL     OW14626   2.006   9.292   3.272  0.5848 -0.0213 -1.0733
 1369SOL    HW114627   1.933   9.328   3.213 -0.2343  0.9458  0.5225
 1369SOL    HW214628   2.080   9.359   3.278 -0.6778  1.1943  1.4182
 1370SOL     OW14629   8.277   0.470   4.578 -0.4232  0.2750  0.8446
 1370SOL    HW114630   8.342   0.522   4.521 -0.9262 -1.4095 -1.3167
 1370SOL    HW214631   8.324   0.437   4.660  0.3698  2.5566  1.3648
 1371SOL     OW14632   2.972   4.587   6.322  0.4375  0.4769 -0.0066
 1371SOL    HW114633   2.937   4.673   6.361  1.6532  0.2685  1.5920
 1371SOL    HW214634   2.980   4.519   6.395  1.6047 -0.3105 -0.8628
 1372SOL     OW14635   4.881   0.493   6.154 -0.4333 -0.4035 -0.7784
 1372SOL    HW114636   4.781   0.487   6.150 -0.5210  1.7064 -3.1205
 1372SOL    HW214637   4.908   0.535   6.240 -1.4681 -1.8740  0.3115
 1373SOL     OW14638   4.261   1.870   1.773  0.1548 -0.8387  0.5659
 1373SOL    HW114639   4.200   1.871   1.852  0.9205 -0.4861  1.1658
 1373SOL    HW214640   4.293   1.777   1.757 -0.2234 -0.9560  0.5046
 1374SOL     OW14641   3.123   3.429   0.374 -0.5723 -0.0329 -0.6361
 1374SOL    HW114642   3.040   3.389   0.411 -1.5160  0.0655 -2.5727
 1374SOL    HW214643   3.101   3.514   0.325  0.4585 -0.6728 -2.2509
 1375SOL     OW14644   7.889   9.946   1.550  0.2969  0.1643 -1.1323
 1375SOL    HW114645   7.889  10.045   1.564 -1.3881 -0.0315  0.4735
 1375SOL    HW214646   7.798   9.910   1.570  1.6109 -2.0731  1.0818
 1376SOL     OW14647   2.659   8.605   1.905 -0.7726 -0.6372  0.4771
 1376SOL    HW114648   2.577   8.579   1.955 -1.5996  0.4599 -0.3038
 1376SOL    HW214649   2.740   8.578   1.958 -1.6290 -0.3280  1.9626
 1377SOL     OW14650   0.338   2.531   5.523  0.3099 -0.0778 -0.5611
 1377SOL    HW114651   0.288   2.502   5.604  1.4854 -2.6440 -0.7111
 1377SOL    HW214652   0.421   2.476   5.513  1.9930  2.5187 -1.6100
 1378SOL     OW14653   9.587   0.349   3.219  0.0747 -0.1467 -0.4229
 1378SOL    HW114654   9.673   0.299   3.213 -1.2134 -2.4602  0.0427
 1378SOL    HW214655   9.510   0.286   3.212 -1.6196  1.8963 -0.9820
 1380SOL     OW14656   2.181   2.438   0.051 -0.0577  0.7650  0.1467
 1380SOL    HW114657   2.114   2.442   0.125 -0.0706  0.1425  0.1716
 1380SOL    HW214658   2.211   2.343   0.038  1.0478  1.0817  0.3424
 1381SOL     OW14659   0.617   7.876   0.345 -0.1413 -0.3503  0.1770
 1381SOL    HW114660   0.571   7.904   0.429 -1.0258 -0.6253 -0.2201
 1381SOL    HW214661   0.630   7.956   0.286  1.5949  0.0745  1.1020
 1382SOL     OW14662   5.013   1.425   5.422 -0.2417  0.1721 -0.0379
 1382SOL    HW114663   4.969   1.466   5.503 -0.1550  1.2368 -0.5174
 1382SOL    HW214664   5.097   1.379   5.450 -1.1613 -1.0566  0.7474
 1383SOL     OW14665   5.590   0.238   3.230  0.1732 -0.2450  0.1406
 1383SOL    HW114666   5.505   0.274   3.268  0.7538  1.5407 -0.1971
 1383SOL    HW214667   5.648   0.206   3.304 -0.4912 -0.7991  0.4291
 1384SOL     OW14668   4.632   9.968   2.813  0.2500 -0.1590 -0.3744
 1384SOL    HW114669   4.575   9.899   2.769  2.5555 -1.8279 -0.8961
 1384SOL    HW214670   4.647   9.941   2.909  0.3178  0.1376 -0.3033
 1385SOL     OW14671   5.865   2.483   3.964  0.4908  0.5525  0.8690
 1385SOL    HW114672   5.789   2.480   3.899 -0.4862  1.4374  1.9426
 1385SOL    HW214673   5.869   2.397   4.015 -0.3060  0.8261  1.3893
 1386SOL     OW14674   7.214   1.536   0.447  0.2293  0.0102  0.2618
 1386SOL    HW114675   7.277   1.597   0.495 -0.1980 -0.2734  1.1843
 1386SOL    HW214676   7.154   1.490   0.513 -0.9867  0.3133 -0.6098
 1387SOL     OW14677   5.175   5.839   2.379 -0.0218 -0.3254 -0.0319
 1387SOL    HW114678   5.205   5.763   2.437  0.8577 -1.1274 -1.5102
 1387SOL    HW214679   5.137   5.912   2.436  2.2378 -0.4493  1.6617
 1390SOL     OW14680   4.785   6.791   0.986 -0.6085 -0.1092  0.2030
 1390SOL    HW114681   4.837   6.845   1.052 -0.6149  1.6012 -1.1652
 1390SOL    HW214682   4.688   6.813   0.995 -0.6588 -0.2311 -0.0538
 1391SOL     OW14683   0.876   3.316   1.176  0.2082  0.1253  0.1325
 1391SOL    HW114684   0.919   3.227   1.192  0.8519 -0.2169 -3.1024
 1391SOL    HW214685   0.938   3.375   1.124 -2.2675  0.4250 -2.6503
 1392SOL     OW14686   0.079   2.728   0.175  0.4536 -0.3052 -0.4774
 1392SOL    HW114687   0.100   2.680   0.260 -0.3836 -0.4578 -0.3496
 1392SOL    HW214688  -0.014   2.764   0.179  1.3034  1.9724 -0.2855
 1393SOL     OW14689   1.320   4.294   3.575  0.2123 -0.3397  0.8240
 1393SOL    HW114690   1.253   4.353   3.531  0.3569 -0.1219  0.8922
 1393SOL    HW214691   1.275   4.212   3.612 -0.1574  0.2182  1.6283
 1394SOL     OW14692   6.627   0.691   1.682 -0.2492  0.4391 -0.3942
 1394SOL    HW114693   6.629   0.746   1.766  1.7490  0.7018 -0.6033
 1394SOL    HW214694   6.693   0.616   1.690  0.8259  1.1743 -2.2104
 1395SOL     OW14695   9.142   5.728   1.958 -0.1340  0.4596  0.1901
 1395SOL    HW114696   9.225   5.776   1.985  0.4655  0.0101 -0.8239
 1395SOL    HW214697   9.063   5.788   1.969  0.2809  0.7965  1.4371
 1396SOL     OW14698   9.628   1.932   3.691 -0.3292  0.1020 -0.0330
 1396SOL    HW114699   9.671   1.850   3.655  2.0329  0.5027  1.7697
 1396SOL    HW214700   9.591   1.914   3.782  0.7926  1.1850  0.6567
 1397SOL     OW14701   1.084   3.837   3.721 -0.5648  0.4224  0.2477
 1397SOL    HW114702   1.097   3.858   3.818  1.2645  0.7962 -0.0608
 1397SOL    HW214703   1.140   3.759   3.696 -1.1857  0.2071 -0.4673
 1398SOL     OW14704   7.497   7.685   2.896 -0.0964  0.0165  0.1555
 1398SOL    HW114705   7.408   7.676   2.852 -0.2846 -0.0176  0.5366
 1398SOL    HW214706   7.486   7.671   2.995  0.1129  1.2829  0.3636
 1400SOL     OW14707   4.674   0.341   0.254 -0.0168  0.3439 -0.0167
 1400SOL    HW114708   4.665   0.248   0.288 -0.6087 -0.1366 -1.4414
 1400SOL    HW214709   4.699   0.402   0.329 -1.0590 -0.7172  1.2224
 1401SOL     OW14710   8.922   7.868   3.795 -0.2180 -0.4321 -0.2157
 1401SOL    HW114711   8.967   7.899   3.878 -1.6881  0.0575  0.4221
 1401SOL    HW214712   8.936   7.936   3.723  1.1679 -0.9194 -0.4155
 1402SOL     OW14713   3.032   1.072   6.334 -0.1069  0.0381  0.5458
 1402SOL    HW114714   3.084   0.987   6.339 -0.1671 -0.0586 -0.3764
 1402SOL    HW214715   3.058   1.132   6.409  0.7581 -0.3347  0.5445
 1403SOL     OW14716   3.261   5.114   5.285 -0.1281  0.0704 -0.1777
 1403SOL    HW114717   3.227   5.186   5.225  0.3438 -0.4539 -1.0730
 1403SOL    HW214718   3.190   5.044   5.296 -0.5208  0.5638  0.5535
 1404SOL     OW14719   3.724   5.861   5.151  0.3085 -0.1128 -0.5095
 1404SOL    HW114720   3.638   5.908   5.169  0.4591  0.4641 -1.2850
 1404SOL    HW214721   3.742   5.795   5.224 -0.8681 -0.3549 -0.4388
 1405SOL     OW14722   5.186   3.453   0.251 -0.5657 -0.0887 -0.3245
 1405SOL    HW114723   5.131   3.375   0.222 -1.2823 -0.4703  1.9816
 1405SOL    HW214724   5.239   3.428   0.332 -1.2008  1.9730  0.7526
 1406SOL     OW14725   7.048   7.856   5.806 -0.0736  0.5440 -0.2477
 1406SOL    HW114726   7.121   7.811   5.857  0.2436  0.3290 -0.8936
 1406SOL    HW214727   7.011   7.932   5.860  0.0721  0.1435  0.4183
 1407SOL     OW14728   9.976   5.334   3.861  0.0065 -0.2790  0.1927
 1407SOL    HW114729   9.949   5.241   3.885  0.7169 -0.4070  0.5227
 1407SOL    HW214730   9.930   5.400   3.921  1.6111 -0.5827  1.7874
 1410SOL     OW14731   0.074   6.275   3.359  0.0315 -0.1756 -0.3942
 1410SOL    HW114732   0.141   6.213   3.320  0.5937 -0.3024  0.7275
 1410SOL    HW214733   0.095   6.369   3.331  0.7403 -0.2057  0.0050
 1411SOL     OW14734   4.542   2.520   1.385  0.0463 -0.1308  0.1934
 1411SOL    HW114735   4.522   2.430   1.348  2.2307  0.1614 -1.7951
 1411SOL    HW214736   4.560   2.513   1.483 -1.2732 -1.5891  0.3566
 1412SOL     OW14737   7.042   4.462   2.316 -0.3385  0.1481 -0.5205
 1412SOL    HW114738   6.983   4.388   2.284  0.9080 -0.4698 -1.4537
 1412SOL    HW214739   7.076   4.514   2.238  1.1987 -0.1890 -0.1010
 1413SOL     OW14740   4.216   6.385   2.629 -0.0168  0.4397  0.4102
 1413SOL    HW114741   4.302   6.372   2.680 -0.2814  1.1055  1.0347
 1413SOL    HW214742   4.209   6.480   2.599 -0.1262  0.1790 -0.4080
 1414SOL     OW14743   9.763   7.323   6.313 -0.0545  0.5205  0.1096
 1414SOL    HW114744   9.731   7.253   6.377 -0.1579  0.1483 -0.3439
 1414SOL    HW214745   9.853   7.297   6.278 -1.2041 -0.7396 -2.0537
 1415SOL     OW14746   2.175   4.154   6.319  0.4896  0.0542  0.5017
 1415SOL    HW114747   2.211   4.175   6.410 -0.3732  0.3983  0.7665
 1415SOL    HW214748   2.078   4.133   6.326  0.0595  1.6300 -0.5491
 1416SOL     OW14749   7.560   9.503   2.813 -0.0700  0.2451 -0.0756
 1416SOL    HW114750   7.575   9.586   2.758  0.6938  0.7279  0.8344
 1416SOL    HW214751   7.602   9.425   2.767  1.8082  0.8956  0.5024
 1418SOL     OW14752   2.768   1.279   2.771 -0.2658  0.2105 -0.3076
 1418SOL    HW114753   2.717   1.239   2.846 -3.8209  1.3927 -1.9503
 1418SOL    HW214754   2.773   1.214   2.695  1.1173 -0.0673  0.0090
 1419SOL     OW14755   3.678   3.444   0.450  0.2711  0.9699 -0.3407
 1419SOL    HW114756   3.658   3.516   0.518  0.5084  0.3157  0.4219
 1419SOL    HW214757   3.619   3.457   0.371 -1.0753  0.8614  0.6243
 1420SOL     OW14758   8.093   1.186   5.311  0.1994  0.2770 -0.3911
 1420SOL    HW114759   8.077   1.261   5.246 -0.6158  0.5189  0.0774
 1420SOL    HW214760   8.150   1.220   5.386  2.2416 -0.3613 -1.6437
 1421SOL     OW14761   9.905   9.883   2.205 -0.0148 -0.4466 -0.3180
 1421SOL    HW114762   9.908   9.813   2.276  0.2347  2.1815  2.3494
 1421SOL    HW214763   9.813   9.922   2.200  0.8346  1.7712  0.9954
 1422SOL     OW14764   2.593   5.264   1.671  0.6062 -0.3914 -0.5875
 1422SOL    HW114765   2.623   5.359   1.679 -0.4645  0.0565 -1.8330
 1422SOL    HW214766   2.534   5.241   1.749  0.8407 -0.0308 -0.3046
 1423SOL     OW14767   6.001   9.478   4.427  0.3971  1.0151 -0.2298
 1423SOL    HW114768   6.055   9.477   4.511 -0.8897  0.6530  0.6020
 1423SOL    HW214769   6.023   9.560   4.374  1.7319  0.8888  0.1008
 1425SOL     OW14770   8.953   6.668   0.248  0.0579  0.0442  0.5535
 1425SOL    HW114771   8.967   6.571   0.264  1.0017  0.3000  1.3347
 1425SOL    HW214772   9.031   6.719   0.284 -0.7519  1.1437  0.7691
 1426SOL     OW14773   4.209   5.082   3.084  0.3754  0.2162 -0.0877
 1426SOL    HW114774   4.270   5.097   3.161 -0.3559  0.4826  0.4392
 1426SOL    HW214775   4.237   5.000   3.035  1.3311  0.4965 -0.0185
 1430SOL     OW14776   0.712   0.668   5.215  0.1284 -0.0409  0.7739
 1430SOL    HW114777   0.676   0.578   5.239  2.0903 -1.3846 -1.1254
 1430SOL    HW214778   0.659   0.706   5.139  2.1300 -1.7083 -1.5480
 1433SOL     OW14779   6.831   8.231   5.899 -0.7612  0.2679 -0.2847
 1433SOL    HW114780   6.918   8.256   5.942 -1.2888  0.8702  0.4548
 1433SOL    HW214781   6.832   8.134   5.876 -0.3720 -0.0136  0.8822
 1434SOL     OW14782   5.025   2.417   0.228 -0.8359 -0.2538 -0.4099
 1434SOL    HW114783   5.118   2.454   0.226 -1.2913  0.9075 -0.6788
 1434SOL    HW214784   5.001   2.383   0.137 -0.7708 -0.3043 -0.4081
 1436SOL     OW14785   3.910   8.532   3.267 -0.2570 -0.1105  0.0065
 1436SOL    HW114786   3.883   8.610   3.323 -0.4373  0.6935 -1.1876
 1436SOL    HW214787   4.010   8.533   3.256 -0.3453  0.4795 -0.7688
 1437SOL     OW14788   3.509   5.347   5.013 -0.2965  0.2981  0.9185
 1437SOL    HW114789   3.513   5.350   4.913  2.5198 -2.1622  0.8865
 1437SOL    HW214790   3.479   5.436   5.048 -0.0896  1.6022 -2.0491
 1438SOL     OW14791   3.936   1.278   3.498  0.2358 -0.5389  0.2022
 1438SOL    HW114792   3.904   1.356   3.552  2.2729  0.3805  0.1060
 1438SOL    HW214793   3.968   1.310   3.409  3.6010 -1.0982  1.1526
 1439SOL     OW14794   0.217   9.298   1.555  0.3686  0.3559 -0.2141
 1439SOL    HW114795   0.223   9.336   1.647  0.6275  0.4875 -0.2830
 1439SOL    HW214796   0.122   9.299   1.524  0.4956  1.8314 -0.5857
 1440SOL     OW14797   2.808   2.333   1.608 -0.0406  0.0643 -0.3453
 1440SOL    HW114798   2.713   2.364   1.617  0.4753  1.8041 -0.7990
 1440SOL    HW214799   2.860   2.358   1.689  0.0685 -0.7505 -0.1635
 1441SOL     OW14800   4.317   3.888   4.993 -0.0530  0.5257  0.5766
 1441SOL    HW114801   4.248   3.954   4.963  0.3156  1.3415  1.4883
 1441SOL    HW214802   4.401   3.902   4.941  0.0354  0.8077  0.7911
 1442SOL     OW14803   8.198   0.014   1.982  0.1553 -0.2841  0.6850
 1442SOL    HW114804   8.241  -0.058   2.038  1.4180 -0.8550 -0.9696
 1442SOL    HW214805   8.176  -0.023   1.892 -0.3892  1.0616  0.2588
 1444SOL     OW14806   8.994   9.175   6.395 -0.1216 -0.1497  0.3121
 1444SOL    HW114807   8.936   9.112   6.445  1.2387 -1.9514 -0.3117
 1444SOL    HW214808   8.990   9.266   6.437 -0.3262 -1.2067  2.6471
 1445SOL     OW14809   5.054   1.000   4.755 -0.4304  0.0598 -0.0175
 1445SOL    HW114810   5.023   1.003   4.851 -0.1475 -0.5217  0.0926
 1445SOL    HW214811   5.120   0.926   4.744 -1.4623 -0.7214 -0.9621
 1446SOL     OW14812   7.047   9.116   6.152  0.4875 -0.6589  0.1212
 1446SOL    HW114813   7.024   9.201   6.200 -0.6428 -0.8046 -0.1604
 1446SOL    HW214814   7.119   9.134   6.085  1.0911 -0.1695  0.8807
 1448SOL     OW14815   3.940   9.000   3.507 -0.0081  0.2823 -0.0495
 1448SOL    HW114816   3.959   9.011   3.604  0.0155 -0.4900  0.0394
 1448SOL    HW214817   3.975   9.078   3.456  1.7253 -0.2369  0.3267
 1449SOL     OW14818   0.349   5.552   4.963 -0.2588 -0.0183  0.0100
 1449SOL    HW114819   0.357   5.565   4.864 -1.0152 -0.7154 -0.1546
 1449SOL    HW214820   0.291   5.624   5.001  0.4663  0.5606  0.0338
 1450SOL     OW14821   9.502   6.896   1.215 -0.1735 -0.6729  0.2509
 1450SOL    HW114822   9.541   6.985   1.238 -0.3043 -0.7375  0.7137
 1450SOL    HW214823   9.469   6.851   1.297 -0.4728 -0.9810 -0.0344
 1453SOL     OW14824   5.757   2.688   0.119 -0.2967  0.6057 -0.2256
 1453SOL    HW114825   5.818   2.622   0.076 -1.6835 -0.4946 -0.5374
 1453SOL    HW214826   5.765   2.776   0.073 -3.4861 -1.1410 -4.3924
 1454SOL     OW14827   4.037   3.391   0.186 -0.4299 -1.0315 -0.3673
 1454SOL    HW114828   4.051   3.439   0.273  0.0657 -0.5140 -0.7307
 1454SOL    HW214829   3.973   3.316   0.200 -1.3546 -0.1615  0.1679
 1455SOL     OW14830   2.612   5.265   3.660  0.3928 -0.7033  0.0776
 1455SOL    HW114831   2.562   5.349   3.683 -0.1852 -0.4827 -1.9495
 1455SOL    HW214832   2.707   5.287   3.639  1.3375 -1.0826  3.6018
 1456SOL     OW14833   2.856   7.661   5.649 -0.3242 -0.4453  0.0867
 1456SOL    HW114834   2.782   7.594   5.641 -1.0985  0.2627  1.2233
 1456SOL    HW214835   2.819   7.753   5.633  0.6460 -0.2396 -1.0303
 1457SOL     OW14836   5.548   0.158   5.354 -0.0782  0.2282  0.9778
 1457SOL    HW114837   5.568   0.253   5.330  0.9862 -0.2061  0.0819
 1457SOL    HW214838   5.634   0.108   5.364 -0.6588 -0.8484  0.6124
 1460SOL     OW14839   1.619   1.865   0.143  0.4505 -0.1400 -0.7371
 1460SOL    HW114840   1.716   1.853   0.122 -0.0666 -1.8454 -2.2935
 1460SOL    HW214841   1.571   1.898   0.061 -0.5057 -0.6169 -0.3808
 1461SOL     OW14842   2.383   5.489   4.344  0.4162 -0.5078  0.2124
 1461SOL    HW114843   2.378   5.554   4.268  1.1810 -0.6351  0.0560
 1461SOL    HW214844   2.455   5.422   4.326 -1.5704 -2.5116 -0.5001
 1462SOL     OW14845   9.807   1.351   4.247 -0.4374 -0.2467  0.0528
 1462SOL    HW114846   9.756   1.436   4.232 -2.3628 -1.6486 -1.6132
 1462SOL    HW214847   9.744   1.274   4.255  1.3695 -2.2642 -3.5785
 1463SOL     OW14848   2.694   8.878   5.824  0.0809 -0.1541 -0.1434
 1463SOL    HW114849   2.684   8.875   5.725 -1.6769  3.0411 -0.1503
 1463SOL    HW214850   2.683   8.973   5.856 -0.2734 -1.2282  3.1911
 1464SOL     OW14851   1.646   3.562   0.782  0.3356 -0.2544 -0.3116
 1464SOL    HW114852   1.580   3.634   0.805 -0.5066 -0.6301 -1.5338
 1464SOL    HW214853   1.613   3.475   0.818  1.7295  0.0633  1.8468
 1465SOL     OW14854   1.334   7.757   0.691 -0.0996 -0.1650  0.5852
 1465SOL    HW114855   1.295   7.848   0.707  1.0042  0.3491  0.4178
 1465SOL    HW214856   1.413   7.745   0.752  0.0894 -0.7985  0.2097
 1466SOL     OW14857   1.752   3.534   0.016  0.1825  0.1883 -0.4232
 1466SOL    HW114858   1.704   3.499  -0.064 -2.1326 -0.4023  1.1770
 1466SOL    HW214859   1.848   3.505   0.013 -0.1926 -0.9089 -2.3316
 1467SOL     OW14860   2.403   9.970   0.135 -0.6761 -0.0389 -0.7044
 1467SOL    HW114861   2.332  10.004   0.073 -0.4082  0.1259 -0.9239
 1467SOL    HW214862   2.426   9.876   0.110 -1.3631 -0.3570 -0.1449
 1468SOL     OW14863   3.795   4.489   1.232 -0.3705 -0.4279  0.1256
 1468SOL    HW114864   3.738   4.408   1.246 -0.7017 -0.4325 -1.1218
 1468SOL    HW214865   3.817   4.497   1.135  1.6901 -0.3581  0.5749
 1469SOL     OW14866   1.272   4.523   2.229  0.4789 -1.0333  0.4444
 1469SOL    HW114867   1.236   4.544   2.320 -0.6440 -0.5092 -0.1171
 1469SOL    HW214868   1.247   4.595   2.165  3.1538 -0.2760  0.1813
 1470SOL     OW14869   8.353   4.259   0.029 -0.0727  0.0297  0.5059
 1470SOL    HW114870   8.318   4.351   0.047 -2.2851 -1.1782  2.5839
 1470SOL    HW214871   8.399   4.225   0.111  2.2392 -0.1257 -0.7919
 1471SOL     OW14872   2.991   3.727   5.842  0.1454 -0.0205 -0.3842
 1471SOL    HW114873   2.998   3.749   5.745 -1.5184  0.7818 -0.3435
 1471SOL    HW214874   3.059   3.657   5.866  0.6837 -0.0935 -2.0681
 1473SOL     OW14875   3.173   1.149   3.247  0.3055 -0.0667  0.0149
 1473SOL    HW114876   3.146   1.067   3.298  0.1774  0.4953  0.8583
 1473SOL    HW214877   3.265   1.177   3.275 -0.1745  0.8525  0.7233
 1474SOL     OW14878   1.296   3.967   0.893  0.2317 -0.1225 -0.1780
 1474SOL    HW114879   1.357   3.888   0.904 -0.4297 -0.7005 -0.5840
 1474SOL    HW214880   1.255   3.965   0.802  0.2324  0.7138 -0.2030
 1475SOL     OW14881   3.389   2.584   4.006  0.2696  0.0235  0.2917
 1475SOL    HW114882   3.347   2.625   4.087  1.0962 -0.6312  1.0640
 1475SOL    HW214883   3.481   2.551   4.030 -0.2249 -1.9203 -0.4045
 1476SOL     OW14884   8.649   9.784   1.528  0.3780 -0.3505  0.3160
 1476SOL    HW114885   8.609   9.784   1.620  0.0074  0.4359  0.1657
 1476SOL    HW214886   8.613   9.706   1.476 -1.5362  0.7321 -0.0435
 1477SOL     OW14887   1.553   4.235   5.348 -0.4124 -0.3878  0.0105
 1477SOL    HW114888   1.529   4.295   5.271  3.0758  1.0936 -0.0003
 1477SOL    HW214889   1.502   4.263   5.429 -0.9291  0.7995 -0.7020
 1478SOL     OW14890   5.950   0.293   5.850 -0.1755 -0.3623  0.1808
 1478SOL    HW114891   6.043   0.270   5.822  0.3254  1.2583  0.4259
 1478SOL    HW214892   5.947   0.303   5.950 -0.4080  0.3655  0.1083
 1479SOL     OW14893   8.723   8.649   4.866  0.3285 -0.0344 -0.0181
 1479SOL    HW114894   8.645   8.626   4.924 -0.4261  3.5471  0.5089
 1479SOL    HW214895   8.700   8.628   4.770 -0.2856 -1.3829  0.4096
 1481SOL     OW14896   3.571   0.577   3.856 -0.2037  0.4374  0.3719
 1481SOL    HW114897   3.597   0.637   3.780 -1.0784 -1.4133 -1.4164
 1481SOL    HW214898   3.653   0.544   3.902  0.3006  2.8620  1.3219
 1482SOL     OW14899   0.313   2.927   1.033  0.4088 -0.3851  0.7487
 1482SOL    HW114900   0.307   2.925   1.133 -0.8468 -2.1312  0.6483
 1482SOL    HW214901   0.381   2.860   1.002 -2.5357 -3.2499  0.2262
 1483SOL     OW14902   3.089   6.830   3.123  0.1858  0.2801  0.3936
 1483SOL    HW114903   3.161   6.867   3.065  0.8223 -0.9440  0.3934
 1483SOL    HW214904   3.097   6.869   3.215  1.1189 -0.1910  0.5159
 1486SOL     OW14905   7.911   9.898   1.087 -0.7206 -0.1021  0.2888
 1486SOL    HW114906   7.838   9.857   1.032 -2.1035  0.0034  1.9857
 1486SOL    HW214907   7.972   9.951   1.028 -1.8138 -0.4754 -1.2094
 1487SOL     OW14908   8.955   8.894   1.854 -0.1257  0.4215  0.6243
 1487SOL    HW114909   8.940   8.933   1.945  1.4373  0.2912  0.9440
 1487SOL    HW214910   9.026   8.824   1.859 -1.9724 -1.5682 -0.1964
 1488SOL     OW14911   9.250   3.237   4.331  0.4346 -0.0409 -0.0657
 1488SOL    HW114912   9.314   3.195   4.268  2.0459  2.8594 -0.4590
 1488SOL    HW214913   9.173   3.276   4.280 -0.0438 -0.7740  0.0977
 1490SOL     OW14914   0.119   1.678   2.662 -0.3658 -0.6359 -0.4668
 1490SOL    HW114915   0.059   1.599   2.661 -1.4567  0.1749 -0.1914
 1490SOL    HW214916   0.079   1.752   2.608 -0.8609  0.7934  1.7528
 1491SOL     OW14917   0.407   6.165   0.602 -0.6310  0.1375 -0.3551
 1491SOL    HW114918   0.412   6.213   0.514  1.7266  0.5865 -0.0303
 1491SOL    HW214919   0.404   6.067   0.586 -3.5744  0.2965 -0.9889
 1492SOL     OW14920   0.087   4.505   4.222 -0.3420  0.3855  0.6186
 1492SOL    HW114921   0.047   4.584   4.269 -0.3334  1.3054 -0.8846
 1492SOL    HW214922   0.187   4.513   4.224 -0.3326  0.2297  0.7715
 1493SOL     OW14923   5.167   1.533   1.262 -0.3814  0.0445  0.2439
 1493SOL    HW114924   5.169   1.438   1.232  0.5376  0.3483 -0.6874
 1493SOL    HW214925   5.221   1.542   1.346  1.9642  0.2647 -1.2561
 1494SOL     OW14926   9.938   7.851   3.132 -0.1707  0.0927  0.5062
 1494SOL    HW114927   9.871   7.894   3.072 -0.2872 -0.9610 -0.1302
 1494SOL    HW214928   9.920   7.878   3.227 -2.1001 -0.9238  0.4582
 1496SOL     OW14929   9.259   8.102   6.400 -0.1763  0.0015  0.2401
 1496SOL    HW114930   9.260   8.003   6.391  0.7453 -0.0014  0.3848
 1496SOL    HW214931   9.352   8.137   6.405 -0.4922  0.8802  0.1655
 1498SOL     OW14932   4.735   5.061   3.356 -0.0513  0.1518 -0.0606
 1498SOL    HW114933   4.789   5.144   3.340 -0.2727  0.7037  1.9219
 1498SOL    HW214934   4.750   5.029   3.449 -0.3914 -1.7510 -0.6253
 1499SOL     OW14935   1.510   8.779   4.973  0.0373  0.0642  0.4291
 1499SOL    HW114936   1.572   8.718   4.924 -0.0330  0.4233 -0.0983
 1499SOL    HW214937   1.418   8.740   4.972  0.2672 -0.5471  1.3434
 1500SOL     OW14938   3.963   0.240   0.360  0.0706  0.4442 -0.3001
 1500SOL    HW114939   4.050   0.231   0.410 -1.7630 -0.0165  2.9388
 1500SOL    HW214940   3.964   0.177   0.282  2.7614  0.6865 -0.5334
 1501SOL     OW14941   4.686   4.126   6.242  0.0844 -0.2982 -0.4908
 1501SOL    HW114942   4.682   4.076   6.329 -2.3038 -2.1229 -1.5996
 1501SOL    HW214943   4.726   4.067   6.172  0.8788  0.7440 -0.9202
 1503SOL     OW14944   8.653   5.230   5.158  0.4221  0.0116  0.6060
 1503SOL    HW114945   8.677   5.247   5.063  0.0891  1.4099  0.7687
 1503SOL    HW214946   8.564   5.271   5.179  0.6429  0.0022  1.6075
 1505SOL     OW14947   0.409   6.198   5.908 -0.1737 -0.5150 -0.4492
 1505SOL    HW114948   0.479   6.176   5.976 -1.9296 -1.0684  1.2116
 1505SOL    HW214949   0.445   6.179   5.816  1.7852 -0.9525  0.3850
 1506SOL     OW14950   8.455   1.894   0.187  0.2480 -0.0491  0.1992
 1506SOL    HW114951   8.377   1.832   0.180  0.0907  0.1975 -0.2339
 1506SOL    HW214952   8.513   1.884   0.107  0.1282  0.4952  0.0438
 1507SOL     OW14953   5.642   0.111   2.044  0.0201  0.4835  0.0332
 1507SOL    HW114954   5.590   0.196   2.057  0.4593  0.7666 -0.0328
 1507SOL    HW214955   5.655   0.095   1.946 -1.1166 -0.3105  0.0097
 1508SOL     OW14956   1.772   1.442   3.930 -0.3802  0.2042 -0.5145
 1508SOL    HW114957   1.722   1.466   4.014  1.4008  0.8854  0.3771
 1508SOL    HW214958   1.796   1.345   3.933  0.0265  0.3131 -0.0288
 1509SOL     OW14959   8.830   1.280   0.771  0.0566  0.0496 -0.5031
 1509SOL    HW114960   8.837   1.203   0.708  0.4372  1.0387 -1.6954
 1509SOL    HW214961   8.919   1.326   0.776 -0.2117  0.5071  0.0876
 1510SOL     OW14962   2.370   0.601   0.361 -0.2084 -0.2431  0.0447
 1510SOL    HW114963   2.313   0.664   0.309 -0.9384  0.4409  1.6353
 1510SOL    HW214964   2.426   0.547   0.298  1.1495  2.6466 -1.3303
 1511SOL     OW14965   9.386   6.422   4.684  0.1820  0.4883  0.2217
 1511SOL    HW114966   9.306   6.367   4.661 -0.9710  1.6950  1.2644
 1511SOL    HW214967   9.421   6.465   4.601 -0.4301  0.2056 -0.1947
 1512SOL     OW14968   8.039   4.754   1.267  0.1496  0.2760  0.3934
 1512SOL    HW114969   8.115   4.804   1.309 -0.9274  2.3348 -0.0169
 1512SOL    HW214970   7.962   4.753   1.331 -0.8557  1.7803 -0.7783
 1515SOL     OW14971   8.678   4.060   3.582 -0.2287 -0.4752  0.4354
 1515SOL    HW114972   8.687   4.147   3.533 -1.2976  0.1381  1.3165
 1515SOL    HW214973   8.738   3.992   3.540 -0.3469  0.3311 -1.0662
 1517SOL     OW14974   2.898   5.354   3.140  0.8103  0.0907  0.0766
 1517SOL    HW114975   2.844   5.433   3.111 -3.1118 -2.5307 -0.2222
 1517SOL    HW214976   2.908   5.291   3.064  1.5833 -0.9431  1.0214
 1518SOL     OW14977   1.512   4.906   1.835 -0.1371  0.3673 -0.0274
 1518SOL    HW114978   1.589   4.897   1.897  0.0436 -0.7074 -0.3968
 1518SOL    HW214979   1.459   4.988   1.858  0.8147  0.8187  0.5473
 1519SOL     OW14980   0.832   2.390   3.957 -0.3721 -0.3802  0.4001
 1519SOL    HW114981   0.880   2.435   4.032  0.2368 -0.2151 -0.0816
 1519SOL    HW214982   0.892   2.321   3.916 -0.8724 -0.8034  0.3756
 1520SOL     OW14983   8.127   9.860   5.730 -0.1043 -0.1008  0.1881
 1520SOL    HW114984   8.140   9.954   5.700  0.3510 -0.6531 -1.4103
 1520SOL    HW214985   8.217   9.820   5.752 -0.3548  0.0328  1.5015
 1521SOL     OW14986   2.509   4.485   0.620  0.3254 -0.2105 -0.0449
 1521SOL    HW114987   2.576   4.415   0.596  0.2473 -0.4401  0.4089
 1521SOL    HW214988   2.471   4.466   0.710  0.7359  0.7432  0.3351
 1522SOL     OW14989   2.797   3.687   3.855 -0.7340 -0.4783 -0.1057
 1522SOL    HW114990   2.769   3.665   3.948  0.7412  0.8332  0.6718
 1522SOL    HW214991   2.783   3.784   3.838 -0.9470 -0.7022 -1.2397
 1524SOL     OW14992   5.614   8.655   6.287  0.4463 -0.0424 -0.0705
 1524SOL    HW114993   5.523   8.686   6.261 -0.1795 -0.3289  1.7316
 1524SOL    HW214994   5.679   8.677   6.214 -0.6487  2.1528 -0.4253
 1525SOL     OW14995   9.533   7.313   1.209  0.2767  0.0481 -0.0303
 1525SOL    HW114996   9.603   7.241   1.212  0.1290 -0.0876  0.1983
 1525SOL    HW214997   9.508   7.338   1.303  1.1298  1.1745 -0.0892
 1527SOL     OW14998   4.991   7.694   5.121 -0.0287  0.0922 -0.1510
 1527SOL    HW114999   4.968   7.597   5.137 -1.5504  0.1845 -1.5670
 1527SOL    HW215000   5.074   7.699   5.065 -0.1108 -0.4136 -0.3308
 1529SOL     OW15001   2.094   1.761   5.013 -0.4103  0.4979  0.4452
 1529SOL    HW115002   2.127   1.732   5.102 -2.3446 -1.1748  0.6450
 1529SOL    HW215003   2.066   1.857   5.018 -0.2212  0.5001  1.5557
 1530SOL     OW15004   7.771   8.240   4.055  0.0195 -0.3626  0.0044
 1530SOL    HW115005   7.754   8.143   4.040 -2.1153 -0.1782  1.0524
 1530SOL    HW215006   7.684   8.288   4.066  1.0226  1.7918 -1.1446
 1531SOL     OW15007   1.294   8.899   5.336 -0.4464 -0.4831  0.4005
 1531SOL    HW115008   1.232   8.883   5.260  0.2766  0.2914 -0.3736
 1531SOL    HW215009   1.247   8.883   5.422 -1.2237 -1.5363 -0.2188
 1532SOL     OW15010   8.928   8.833   4.773  0.3311 -0.1978  0.1038
 1532SOL    HW115011   8.977   8.767   4.829  0.4983 -1.4494 -1.4805
 1532SOL    HW215012   8.932   8.923   4.816  1.5184 -0.8798  1.4491
 1533SOL     OW15013   9.330   8.577   0.524 -0.4517  0.9291  0.3077
 1533SOL    HW115014   9.428   8.561   0.518 -0.4784  0.2633  1.4830
 1533SOL    HW215015   9.303   8.645   0.456  0.8147  1.0943 -0.0417
 1534SOL     OW15016   1.839   0.550   2.197  0.4588  0.5680  0.0976
 1534SOL    HW115017   1.918   0.600   2.233 -0.3001  0.3044  2.1639
 1534SOL    HW215018   1.755   0.600   2.218 -0.1043 -0.2846 -0.0837
 1535SOL     OW15019   2.776   1.215   2.302 -0.4202 -0.2239  0.2013
 1535SOL    HW115020   2.719   1.156   2.359 -0.4071  0.6351  1.1215
 1535SOL    HW215021   2.802   1.296   2.354  2.0679 -0.8319 -0.0050
 1537SOL     OW15022   3.647   2.566   3.429 -0.2548 -0.0176 -0.1246
 1537SOL    HW115023   3.612   2.514   3.507 -0.1553  0.0081 -0.0621
 1537SOL    HW215024   3.737   2.531   3.403 -0.4280 -0.2383 -0.4355
 1538SOL     OW15025   8.105   1.137   6.158  0.1445 -0.5006 -0.0331
 1538SOL    HW115026   8.204   1.127   6.150  0.3328  0.3248  1.1559
 1538SOL    HW215027   8.065   1.050   6.188  0.1772 -1.6235 -3.0703
 1539SOL     OW15028   8.651   2.084   3.096  0.3818 -0.6578  0.5124
 1539SOL    HW115029   8.718   2.018   3.063  2.5345  0.9064  1.6756
 1539SOL    HW215030   8.608   2.130   3.017  0.2636 -2.0288 -0.2436
 1540SOL     OW15031   4.352   3.160   5.110  0.5170 -0.2165 -0.8182
 1540SOL    HW115032   4.355   3.260   5.109 -2.1112 -0.0749  0.6711
 1540SOL    HW215033   4.265   3.129   5.072  1.3683 -1.9422 -1.3963
 1541SOL     OW15034   9.318   7.542   0.547  0.1875  0.1753 -0.0612
 1541SOL    HW115035   9.366   7.521   0.461 -0.9240 -0.8229 -0.4638
 1541SOL    HW215036   9.317   7.641   0.561  2.4180  0.2091  0.0045
 1542SOL     OW15037   1.285   0.757   1.596  0.0968  0.0152  0.3244
 1542SOL    HW115038   1.239   0.794   1.677  1.4841 -0.4829  1.3653
 1542SOL    HW215039   1.340   0.677   1.622  0.1866 -0.4448 -1.1987
 1543SOL     OW15040   1.794   2.067   3.127 -0.2679 -0.0954 -0.4709
 1543SOL    HW115041   1.796   1.983   3.074  0.7330 -0.0226 -0.5587
 1543SOL    HW215042   1.799   2.046   3.224  0.3340 -0.1281 -0.5068
 1544SOL     OW15043   3.615   6.618   1.197 -0.1668  0.0291 -0.7052
 1544SOL    HW115044   3.713   6.625   1.182 -0.3503  3.1591 -0.7923
 1544SOL    HW215045   3.571   6.580   1.115  1.0029 -1.9585 -0.4328
 1545SOL     OW15046   0.898   5.460   3.956  0.3930  0.3348  0.4192
 1545SOL    HW115047   0.864   5.371   3.925 -0.7073  0.4761  1.1746
 1545SOL    HW215048   0.966   5.447   4.028  1.5293  0.0615 -0.6969
 1546SOL     OW15049   4.956   2.920   5.553 -0.2371  0.0717  0.3229
 1546SOL    HW115050   4.870   2.881   5.586 -0.3222 -0.1335 -0.1416
 1546SOL    HW215051   5.008   2.849   5.504  0.3170  0.1204  0.8300
 1547SOL     OW15052   3.141   4.485   2.128 -0.4133  0.2891  0.0322
 1547SOL    HW115053   3.112   4.571   2.171 -0.0745  0.7774 -0.7027
 1547SOL    HW215054   3.062   4.425   2.117 -0.7593  0.7370  0.0387
 1549SOL     OW15055   8.442   7.252   6.436 -0.0184  0.2933  0.5921
 1549SOL    HW115056   8.530   7.210   6.416 -1.3069 -1.8898 -0.6923
 1549SOL    HW215057   8.391   7.195   6.500 -0.3455  1.7562  1.6602
 1550SOL     OW15058   9.014   8.917   2.179 -0.2350 -0.3509  0.2992
 1550SOL    HW115059   9.112   8.919   2.161 -0.3195  1.8575 -0.0972
 1550SOL    HW215060   8.993   8.983   2.251 -1.5791  0.0958 -0.4900
 1551SOL     OW15061   8.360   8.972   1.846  0.0066  0.1540  0.5948
 1551SOL    HW115062   8.278   9.029   1.849 -0.2362 -0.2509  2.4138
 1551SOL    HW215063   8.393   8.956   1.939  1.0430 -1.2755  0.0069
 1552SOL     OW15064   5.958   8.643   4.196 -0.4913 -0.0094  0.6327
 1552SOL    HW115065   6.052   8.628   4.165 -0.4338  0.8372  0.3740
 1552SOL    HW215066   5.894   8.611   4.127 -0.3825  0.2111  0.4299
 1553SOL     OW15067   8.034   3.613   5.686  0.1368 -0.0202 -0.3450
 1553SOL    HW115068   8.119   3.569   5.654  2.1272  2.1509  1.7617
 1553SOL    HW215069   8.025   3.598   5.785 -0.4696  2.1550 -0.0621
 1554SOL     OW15070   3.582   1.143   2.444 -0.0452 -0.0957  0.2771
 1554SOL    HW115071   3.597   1.119   2.349  0.1273  1.0018  0.0248
 1554SOL    HW215072   3.485   1.163   2.459  0.1388  1.0052  0.0352
 1556SOL     OW15073   0.852   5.062   0.238 -0.2331  0.1101 -0.2849
 1556SOL    HW115074   0.866   5.040   0.141  0.2125  2.5596 -0.8092
 1556SOL    HW215075   0.769   5.117   0.249 -0.6395 -0.7073  0.8075
 1557SOL     OW15076   1.800   0.720   1.437  0.3389 -0.4632  0.2233
 1557SOL    HW115077   1.774   0.750   1.529  1.3363 -2.4046  1.1759
 1557SOL    HW215078   1.721   0.726   1.376 -0.2327  1.2187  1.0970
 1559SOL     OW15079   7.958   9.206   6.318 -0.3052  0.2480 -0.6031
 1559SOL    HW115080   7.878   9.153   6.345 -0.4406  0.9634  0.4006
 1559SOL    HW215081   7.958   9.217   6.218 -2.2751  1.5645 -0.4742
 1561SOL     OW15082   9.453   5.202   0.990 -0.0906 -0.4614  0.5233
 1561SOL    HW115083   9.410   5.266   0.926 -2.5827 -1.0279  1.5944
 1561SOL    HW215084   9.511   5.139   0.938 -0.6862  0.1838 -0.9839
 1562SOL     OW15085   2.068   7.170   0.628 -0.7036  0.1048  0.3077
 1562SOL    HW115086   2.036   7.263   0.645  0.1908  0.1778  1.6974
 1562SOL    HW215087   2.076   7.121   0.715 -0.4256 -1.0308 -0.3423
 1563SOL     OW15088   0.442   8.334   2.575 -0.2664  0.3160  0.5281
 1563SOL    HW115089   0.492   8.410   2.617  0.3684  0.0982  0.1687
 1563SOL    HW215090   0.348   8.363   2.555  0.0462  1.0935  0.1547
 1565SOL     OW15091   2.562   2.132   2.640 -0.6333  0.3292 -0.0534
 1565SOL    HW115092   2.639   2.122   2.577 -0.3071  0.6776  0.2814
 1565SOL    HW215093   2.476   2.125   2.590 -0.4092 -1.6088 -0.2139
 1566SOL     OW15094   9.723   4.201   2.284 -0.2470  0.0229 -0.0519
 1566SOL    HW115095   9.745   4.214   2.187 -0.0772 -0.1901 -0.0441
 1566SOL    HW215096   9.792   4.246   2.340 -0.0515 -0.3059 -0.0287
 1569SOL     OW15097   0.787   0.741   6.066  0.4170  0.0849 -0.4055
 1569SOL    HW115098   0.752   0.832   6.088 -1.4317 -0.7618  0.2658
 1569SOL    HW215099   0.847   0.709   6.139  2.3001  1.3461 -1.3395
 1570SOL     OW15100   2.657   7.072   2.445 -0.0857  1.0981 -0.4950
 1570SOL    HW115101   2.564   7.039   2.428 -0.4351  0.8201  1.8646
 1570SOL    HW215102   2.677   7.066   2.543  2.1617  1.8405 -0.8959
 1571SOL     OW15103   7.683   5.945   0.622 -0.7378 -0.4540  0.0440
 1571SOL    HW115104   7.776   5.966   0.593 -0.7094  0.6821  0.9175
 1571SOL    HW215105   7.674   5.847   0.639  0.4059 -0.5058  0.3498
 1572SOL     OW15106   0.167   6.140   4.708  0.0632  0.7142 -0.0420
 1572SOL    HW115107   0.235   6.150   4.636  0.4580  0.6625  0.3266
 1572SOL    HW215108   0.098   6.212   4.699 -0.1876  0.3865 -0.7980
 1573SOL     OW15109   4.050   9.234   3.392  0.1319  0.2440  0.4130
 1573SOL    HW115110   4.075   9.259   3.485  0.8085  0.6282  0.1314
 1573SOL    HW215111   4.133   9.221   3.337 -0.2448 -0.6373  0.0327
 1574SOL     OW15112   2.522   7.199   5.628  0.1122 -0.0345  0.0854
 1574SOL    HW115113   2.595   7.160   5.571  0.5245  1.5522 -0.4850
 1574SOL    HW215114   2.438   7.206   5.575 -0.0406 -0.4069  0.2754
 1575SOL     OW15115   5.181   8.598   3.189 -0.0640  0.0315  0.2661
 1575SOL    HW115116   5.206   8.519   3.133  1.9133  1.6320 -1.1654
 1575SOL    HW215117   5.189   8.574   3.286  1.7415 -1.1563 -0.1643
 1576SOL     OW15118   2.799   1.137   5.242  0.6798 -0.2682  0.5122
 1576SOL    HW115119   2.870   1.186   5.293  0.6094  0.0542  0.2978
 1576SOL    HW215120   2.731   1.202   5.209 -0.3199 -0.7077  1.6797
 1579SOL     OW15121   9.156   2.933   5.451  0.0198 -0.2989 -0.1669
 1579SOL    HW115122   9.162   2.857   5.516  1.9350  0.5065  0.6479
 1579SOL    HW215123   9.222   2.918   5.376  1.4791  1.2434  0.7684
 1580SOL     OW15124   0.601   4.420   2.678 -0.2587  0.1033 -0.3636
 1580SOL    HW115125   0.603   4.338   2.621 -1.8609 -0.4703  0.3512
 1580SOL    HW215126   0.694   4.448   2.701  0.3147 -1.2760 -0.9654
 1581SOL     OW15127   0.696   7.090   4.924 -0.1583  0.0506  0.0047
 1581SOL    HW115128   0.780   7.138   4.949  0.3657 -0.2766 -1.1255
 1581SOL    HW215129   0.689   7.006   4.978  1.0146 -0.6923 -0.9692
 1584SOL     OW15130   1.561   2.484   5.147  0.1895 -0.0727 -0.0559
 1584SOL    HW115131   1.527   2.484   5.241  0.7584  0.3825  0.1526
 1584SOL    HW215132   1.487   2.458   5.085  0.9711 -5.1322  0.9006
 1585SOL     OW15133   0.349   5.679   3.209 -0.1722  0.0485 -0.7415
 1585SOL    HW115134   0.339   5.583   3.236 -2.0853  0.9020  1.7843
 1585SOL    HW215135   0.400   5.728   3.280 -0.3113  1.1707 -1.4091
 1586SOL     OW15136   6.222   0.915   3.446  0.0264  0.3093 -0.4192
 1586SOL    HW115137   6.183   0.981   3.382  2.6647  3.0535  0.6919
 1586SOL    HW215138   6.238   0.959   3.534  1.0501 -2.0435  0.6190
 1587SOL     OW15139   0.591   9.928   4.131  0.2122 -0.8756 -0.8967
 1587SOL    HW115140   0.524   9.854   4.122 -0.6704 -0.2298  0.2122
 1587SOL    HW215141   0.682   9.893   4.109 -0.1357 -2.4004 -0.0108
 1588SOL     OW15142   9.584   5.871   4.354  0.3583  0.7745  0.5745
 1588SOL    HW115143   9.590   5.818   4.438  0.3909  0.4726  0.3791
 1588SOL    HW215144   9.637   5.956   4.364  0.2449  0.8069  0.9086
 1589SOL     OW15145   0.683   4.938   5.422 -0.1500 -0.1747  0.1039
 1589SOL    HW115146   0.665   5.030   5.388  2.2639  0.3458  0.1470
 1589SOL    HW215147   0.687   4.874   5.345  2.4727  0.5110 -0.3556
 1591SOL     OW15148   4.829   1.754   5.021  0.2626 -0.0384 -0.9515
 1591SOL    HW115149   4.845   1.848   4.990 -2.6670  0.8867  0.2307
 1591SOL    HW215150   4.858   1.745   5.116 -0.2346 -0.0927 -0.8041
 1593SOL     OW15151   3.489   4.247   6.006 -0.0763  0.2740  0.1389
 1593SOL    HW115152   3.475   4.271   5.910  1.5167 -1.6100 -0.6061
 1593SOL    HW215153   3.402   4.215   6.046 -1.5324  4.2729  0.3421
 1594SOL     OW15154   1.340   9.173   1.152  0.2173  0.7300  0.4352
 1594SOL    HW115155   1.313   9.243   1.085  1.2701  1.5522  0.8457
 1594SOL    HW215156   1.430   9.138   1.129  0.0508  0.1099  0.7176
 1595SOL     OW15157   4.847   4.563   4.291  0.5285 -0.5324 -0.2462
 1595SOL    HW115158   4.752   4.534   4.283  0.8479 -1.5132 -0.5806
 1595SOL    HW215159   4.851   4.659   4.321 -0.5587 -0.3825 -0.5702
 1596SOL     OW15160   7.016   4.657   0.304  0.4807  0.0069 -0.3562
 1596SOL    HW115161   6.923   4.628   0.279  0.1188  2.3603 -1.9143
 1596SOL    HW215162   7.048   4.603   0.382 -1.2622 -2.4712 -1.3076
 1597SOL     OW15163   9.301   5.921   5.867  0.0244  0.3153  0.1300
 1597SOL    HW115164   9.206   5.952   5.871  1.0759  3.8610 -0.9747
 1597SOL    HW215165   9.348   5.945   5.952  0.6405  1.0730 -0.4176
 1598SOL     OW15166   2.690   4.704   2.497 -0.5062 -0.1637  0.5140
 1598SOL    HW115167   2.637   4.625   2.465 -0.9823 -0.0997  1.1376
 1598SOL    HW215168   2.636   4.788   2.483 -0.6672 -0.1232  1.3677
 1600SOL     OW15169   0.505   7.039   5.194  0.0693  0.3605  0.0294
 1600SOL    HW115170   0.536   7.010   5.284  2.6056 -1.0050 -1.2134
 1600SOL    HW215171   0.459   6.963   5.148  0.9884  0.2471 -0.7392
 1601SOL     OW15172   0.737   1.844   3.295  0.1753  0.1657  0.5971
 1601SOL    HW115173   0.770   1.775   3.230 -1.0233  1.3706 -1.3567
 1601SOL    HW215174   0.800   1.851   3.372  0.4327 -2.9185  0.7062
 1603SOL     OW15175   1.877   0.117   1.792  0.1174  0.6712 -0.8400
 1603SOL    HW115176   1.833   0.195   1.837  0.3080  1.0108 -1.2342
 1603SOL    HW215177   1.886   0.135   1.694  1.1481  0.6323 -0.7678
 1604SOL     OW15178   9.371   1.612   4.714  0.6223 -0.0478  0.3180
 1604SOL    HW115179   9.428   1.534   4.740  1.6260  0.8174  0.7876
 1604SOL    HW215180   9.348   1.606   4.617  0.9526 -0.7634  0.2794
 1605SOL     OW15181   4.432   1.752   3.963  0.2320 -0.2546  0.0041
 1605SOL    HW115182   4.514   1.698   3.979  0.4793  0.7027  2.0577
 1605SOL    HW215183   4.457   1.839   3.919  0.1212 -0.6533 -0.8637
 1606SOL     OW15184   9.721   2.068   5.780  0.3973  0.2112  0.1591
 1606SOL    HW115185   9.636   2.120   5.780  0.1091 -0.2596 -0.1885
 1606SOL    HW215186   9.786   2.110   5.843 -0.2067  0.3798  0.6677
 1607SOL     OW15187   7.564   0.389   1.686 -0.4929 -0.2795 -0.2227
 1607SOL    HW115188   7.557   0.468   1.626 -1.7851  0.4761  0.8886
 1607SOL    HW215189   7.583   0.307   1.632  0.3184  0.6997 -1.4324
 1608SOL     OW15190   1.571   1.886   1.444 -0.3896 -0.0130  0.1490
 1608SOL    HW115191   1.488   1.942   1.439  0.2102  0.7892 -1.0216
 1608SOL    HW215192   1.577   1.828   1.362 -0.3949 -0.9242  0.7872
 1609SOL     OW15193   2.777   3.150   0.370  0.3266 -0.4870  0.4353
 1609SOL    HW115194   2.731   3.068   0.404 -0.1378 -0.2762  0.3216
 1609SOL    HW215195   2.721   3.231   0.389 -0.9104 -0.5652 -2.5562
 1612SOL     OW15196   4.353   4.761   6.454  0.2851 -0.1086 -0.4262
 1612SOL    HW115197   4.389   4.813   6.377  0.4161  2.0172  1.0157
 1612SOL    HW215198   4.254   4.752   6.445  0.2578  0.4269 -0.6809
 1613SOL     OW15199   1.635   6.628   2.683 -0.2809 -0.1840 -0.0617
 1613SOL    HW115200   1.551   6.607   2.633 -0.1105  1.1384 -0.9241
 1613SOL    HW215201   1.672   6.715   2.651 -0.4099  0.9345  2.7101
 1614SOL     OW15202   1.372   9.902   1.480  0.3049 -0.2397  0.2802
 1614SOL    HW115203   1.331   9.855   1.557  0.1846  0.0003  0.3615
 1614SOL    HW215204   1.426   9.837   1.426 -2.7080 -1.2833 -1.6275
 1615SOL     OW15205   7.384   6.909   2.858 -0.4318  0.1569  0.1352
 1615SOL    HW115206   7.319   6.976   2.821  0.5915  1.3764  0.5058
 1615SOL    HW215207   7.446   6.955   2.922 -0.5649 -1.4193  1.4275
 1616SOL     OW15208   1.339   5.991   1.692 -0.5654 -0.5658 -0.2480
 1616SOL    HW115209   1.419   5.945   1.732 -0.1594  0.1631 -0.2089
 1616SOL    HW215210   1.259   5.974   1.750 -0.2294 -0.4913  0.2407
 1617SOL     OW15211   9.066   9.804   2.037 -0.2853 -0.0826  0.2412
 1617SOL    HW115212   9.001   9.800   2.113 -0.7873  1.8010 -0.0624
 1617SOL    HW215213   9.018   9.834   1.954  0.7863  0.5123 -0.1762
 1618SOL     OW15214   9.148   0.838   3.464 -0.0439  0.5435 -0.3690
 1618SOL    HW115215   9.112   0.899   3.535  0.3710  0.4267 -0.0600
 1618SOL    HW215216   9.221   0.782   3.502 -0.7757 -0.5180 -0.5258
 1621SOL     OW15217   2.451   1.390   3.697  0.4791 -0.2304 -0.0049
 1621SOL    HW115218   2.375   1.440   3.739  0.1160 -0.4240 -0.4258
 1621SOL    HW215219   2.537   1.435   3.721  0.3234 -0.6724  1.4221
 1622SOL     OW15220   5.327   9.074   3.096 -0.1464 -0.3832 -0.1215
 1622SOL    HW115221   5.331   8.978   3.122  2.7548 -0.2702  0.0165
 1622SOL    HW215222   5.337   9.082   2.997 -1.6658 -0.2632 -0.2835
 1624SOL     OW15223   8.577   3.594   1.147  0.3894  0.9940 -0.5877
 1624SOL    HW115224   8.557   3.620   1.241 -1.2151 -0.4468 -0.5021
 1624SOL    HW215225   8.603   3.675   1.094  0.4017  1.9468  0.8592
 1625SOL     OW15226   2.530   7.872   4.647  0.7758 -0.2790  0.2824
 1625SOL    HW115227   2.614   7.820   4.664  0.6415 -0.5207  0.2109
 1625SOL    HW215228   2.472   7.821   4.584  0.9964  0.3273 -0.4275
 1626SOL     OW15229   3.641   2.694   5.572 -0.3527  0.1579  0.3010
 1626SOL    HW115230   3.741   2.693   5.573 -0.3630 -0.0022  1.5894
 1626SOL    HW215231   3.607   2.713   5.664 -1.5274 -1.7053  0.2757
 1627SOL     OW15232   8.279   9.790   3.780 -0.3971  0.1802  0.3778
 1627SOL    HW115233   8.306   9.873   3.828  0.6172  0.0163  0.1065
 1627SOL    HW215234   8.180   9.778   3.786 -0.4352  0.9110  1.2046
 1628SOL     OW15235   1.807   1.094   6.083 -0.3498 -0.2434  0.0735
 1628SOL    HW115236   1.864   1.176   6.078 -1.0402  0.2111 -0.5337
 1628SOL    HW215237   1.807   1.048   5.995 -1.9145  0.4623 -0.3249
 1629SOL     OW15238   1.660   0.505   5.028 -0.4801  0.5602  0.2158
 1629SOL    HW115239   1.717   0.585   5.044  0.5504 -0.2565  0.7112
 1629SOL    HW215240   1.675   0.470   4.936 -1.7593  1.5895 -0.3854
 1631SOL     OW15241   3.091   2.595   5.606  0.0253 -0.1800  0.0027
 1631SOL    HW115242   3.024   2.536   5.650  1.1194 -1.0995  0.4735
 1631SOL    HW215243   3.053   2.687   5.596 -0.9792 -0.4632  1.0386
 1632SOL     OW15244   2.493   8.130   2.848  0.4845 -0.8288 -0.1842
 1632SOL    HW115245   2.520   8.081   2.931  1.4375 -2.2311 -1.2987
 1632SOL    HW215246   2.396   8.115   2.831  0.2314 -0.3615  0.7750
 1634SOL     OW15247   0.907   1.305   6.122 -0.4317 -0.5965 -0.4396
 1634SOL    HW115248   0.960   1.235   6.073  0.0293 -0.1078 -0.6351
 1634SOL    HW215249   0.952   1.326   6.208  0.0477  0.3031 -0.9087
 1635SOL     OW15250   8.004   9.210   4.754  0.1544  0.1142  0.0207
 1635SOL    HW115251   7.990   9.134   4.690  0.4538  0.8072 -0.8832
 1635SOL    HW215252   7.950   9.289   4.725 -1.2374 -0.1761  1.7305
 1636SOL     OW15253   0.645   7.435   4.214  0.3120  0.1527 -0.4580
 1636SOL    HW115254   0.638   7.369   4.139  1.6503  1.2377 -1.5791
 1636SOL    HW215255   0.564   7.493   4.216  0.7458  0.8294 -1.7826
 1637SOL     OW15256   0.929   7.734   5.710 -0.4130  0.1955 -0.0399
 1637SOL    HW115257   0.896   7.825   5.737 -0.3052  0.2248 -0.0053
 1637SOL    HW215258   1.006   7.745   5.648 -0.5057  0.1282 -0.1686
 1638SOL     OW15259   6.984   7.654   3.062  0.5461 -0.2828 -0.1039
 1638SOL    HW115260   6.979   7.637   3.160 -0.3572 -0.7888 -0.2359
 1638SOL    HW215261   7.074   7.625   3.028  1.2156  0.7818  0.7332
 1639SOL     OW15262   4.763   9.619   4.311 -0.0445 -0.5808 -0.5887
 1639SOL    HW115263   4.689   9.570   4.357  0.9534 -1.2345  0.3516
 1639SOL    HW215264   4.833   9.644   4.378  0.8994 -0.5503 -1.5803
 1640SOL     OW15265   0.398   4.415   0.133  0.2913  0.3458 -0.2212
 1640SOL    HW115266   0.330   4.396   0.062  0.0591 -0.6846  0.2643
 1640SOL    HW215267   0.444   4.502   0.113 -0.3877  0.5006 -1.1506
 1641SOL     OW15268   4.003   7.905   5.285 -0.4696  0.2235 -0.0220
 1641SOL    HW115269   3.990   7.976   5.215 -3.1153 -0.1884 -0.0151
 1641SOL    HW215270   4.009   7.949   5.375  1.2385  0.6422 -0.3291
 1642SOL     OW15271   6.151   9.467   2.245  0.4761 -0.1209 -0.3106
 1642SOL    HW115272   6.167   9.489   2.341  2.5117 -1.9298 -0.1918
 1642SOL    HW215273   6.121   9.372   2.237  0.3779 -0.0026 -1.4597
 1643SOL     OW15274   8.085   5.593   1.404  0.1957 -0.0670  0.0637
 1643SOL    HW115275   8.150   5.539   1.350  0.5683 -0.1866  0.6223
 1643SOL    HW215276   8.006   5.617   1.348  0.5835 -0.1861 -0.5303
 1644SOL     OW15277   5.240   9.920   5.966 -0.7455  0.8255  0.5288
 1644SOL    HW115278   5.177   9.951   5.896 -0.9600 -1.0533 -0.1502
 1644SOL    HW215279   5.326   9.970   5.959 -0.9220  0.9426 -0.8034
 1646SOL     OW15280   4.023   1.751   0.710  0.1870  0.0304 -0.9268
 1646SOL    HW115281   3.933   1.753   0.754  1.1200 -3.2996  1.2996
 1646SOL    HW215282   4.012   1.732   0.613 -1.5224 -0.9151 -0.5744
 1647SOL     OW15283   3.540   0.090   0.303  0.3526  0.0600  0.2326
 1647SOL    HW115284   3.596   0.008   0.289  0.9777  0.5086  0.0870
 1647SOL    HW215285   3.573   0.164   0.244 -0.1882  0.4307  0.3839
 1649SOL     OW15286   8.372   9.916   6.021  0.7287 -0.3466  0.2472
 1649SOL    HW115287   8.437   9.850   5.982  0.9326  0.0603 -0.1059
 1649SOL    HW215288   8.287   9.868   6.046  1.4407 -1.0270  1.4304
 1650SOL     OW15289   6.723   4.906   1.037 -0.4188  0.0254 -0.2184
 1650SOL    HW115290   6.673   4.935   1.119 -2.3626 -1.8414 -0.7134
 1650SOL    HW215291   6.791   4.837   1.062 -0.3128  0.1995 -0.0263
 1651SOL     OW15292   8.347   4.975   4.222 -0.3281 -0.0135 -0.7071
 1651SOL    HW115293   8.410   5.044   4.186 -1.4510  2.9926  2.8978
 1651SOL    HW215294   8.261   4.978   4.172  0.1680  0.1074 -1.5613
 1652SOL     OW15295   8.910   2.283   4.529  0.1667  0.1685 -0.0599
 1652SOL    HW115296   8.900   2.305   4.626 -0.9420  0.5773 -0.2512
 1652SOL    HW215297   8.819   2.266   4.490  0.5600  0.5097 -1.1345
 1653SOL     OW15298   1.931   9.819   6.313  0.2530 -0.1859 -0.4054
 1653SOL    HW115299   1.982   9.813   6.399  0.9462  0.7548 -0.7390
 1653SOL    HW215300   1.905   9.914   6.297 -0.6681 -0.4994 -0.7865
 1655SOL     OW15301   0.871   8.569   3.748 -0.1766 -0.5561  0.0020
 1655SOL    HW115302   0.893   8.537   3.840 -1.1004 -0.6191  0.2046
 1655SOL    HW215303   0.882   8.493   3.683 -1.1519 -0.9630  0.3050
 1656SOL     OW15304   3.648   8.623   5.627  0.0965 -0.1881  0.4290
 1656SOL    HW115305   3.706   8.635   5.547  0.6570 -0.6676  0.7616
 1656SOL    HW215306   3.693   8.659   5.708  0.3809 -1.4786  0.8625
 1657SOL     OW15307   8.831   4.758   6.267 -0.0830 -1.0835 -0.3685
 1657SOL    HW115308   8.785   4.744   6.179  0.0337 -2.0907 -0.2722
 1657SOL    HW215309   8.930   4.750   6.254 -0.0855 -1.5805 -0.0875
 1658SOL     OW15310   0.631   0.979   6.034 -0.0162  0.3345  0.4754
 1658SOL    HW115311   0.633   1.049   5.963 -0.2093  0.2902  0.4258
 1658SOL    HW215312   0.640   1.022   6.124  1.3169  0.2949  0.3624
 1659SOL     OW15313   3.058   7.274   2.311 -0.0076  0.2341  0.5014
 1659SOL    HW115314   3.097   7.344   2.371 -1.6212 -0.8048  2.8636
 1659SOL    HW215315   2.963   7.299   2.288 -1.0653 -1.7776  2.4878
 1661SOL     OW15316   6.058   7.886   5.188 -0.1430 -0.1916  0.0284
 1661SOL    HW115317   6.088   7.878   5.283 -0.3923 -1.1302  0.0301
 1661SOL    HW215318   6.022   7.979   5.172 -0.6619 -0.2200  1.0106
 1662SOL     OW15319   4.457   9.656   3.177  0.0218 -0.1893 -0.2906
 1662SOL    HW115320   4.399   9.666   3.258 -2.1363 -1.1736 -1.6737
 1662SOL    HW215321   4.424   9.715   3.104  1.4588  0.0757 -0.7461
 1664SOL     OW15322   1.010   3.627   4.050 -0.0702 -0.8023  0.3044
 1664SOL    HW115323   1.019   3.533   4.082  0.0590 -1.1904 -0.8437
 1664SOL    HW215324   0.968   3.627   3.959  1.0059  0.1779 -0.2038
 1666SOL     OW15325   1.242   8.302   0.189  0.5490 -1.0566 -0.8357
 1666SOL    HW115326   1.183   8.331   0.114 -0.0360  0.2061  0.0754
 1666SOL    HW215327   1.188   8.248   0.254  0.3568  0.1720  0.0413
 1667SOL     OW15328   2.338   4.424   4.528 -0.0223  0.1668 -0.0552
 1667SOL    HW115329   2.387   4.473   4.456 -0.8992 -0.7383 -1.2766
 1667SOL    HW215330   2.315   4.489   4.601 -0.0205  1.3104 -1.0465
 1668SOL     OW15331   9.228   6.573   1.631 -0.4733  0.0940  0.0570
 1668SOL    HW115332   9.273   6.560   1.543 -1.7847 -1.3042 -0.4306
 1668SOL    HW215333   9.210   6.484   1.673 -0.3905  0.7217  1.4696
 1670SOL     OW15334   0.117   8.491   4.984  0.0641 -0.2338 -0.0598
 1670SOL    HW115335   0.040   8.436   5.016 -0.4445  1.5742  1.9420
 1670SOL    HW215336   0.083   8.574   4.940  0.8521 -0.3123 -0.8240
 1671SOL     OW15337   2.903   2.614   4.034 -0.1602 -0.4271 -0.2945
 1671SOL    HW115338   2.837   2.565   3.977 -0.0198 -0.5074 -0.3879
 1671SOL    HW215339   2.941   2.691   3.984 -0.5754 -0.0636 -0.0556
 1672SOL     OW15340   2.050   2.878   1.796  0.5609  0.2344 -0.2186
 1672SOL    HW115341   2.125   2.943   1.807 -0.1919  0.9222  0.9899
 1672SOL    HW215342   1.997   2.901   1.714 -0.3266  1.8058  0.7674
 1674SOL     OW15343   0.199   0.493   2.752  0.1691  0.4836  0.0234
 1674SOL    HW115344   0.238   0.462   2.839 -0.6907 -0.5327  0.0517
 1674SOL    HW215345   0.123   0.554   2.769 -1.4099 -1.4384  0.0290
 1675SOL     OW15346   1.564   7.431   0.264 -0.2264 -0.0556 -0.4505
 1675SOL    HW115347   1.618   7.389   0.191 -1.1476 -1.8401 -0.1238
 1675SOL    HW215348   1.594   7.396   0.352 -0.8904  0.0995 -0.1589
 1676SOL     OW15349   9.081   2.490   1.036 -0.2413 -0.0441  0.3608
 1676SOL    HW115350   9.134   2.547   1.099 -1.7609 -0.9364  2.5168
 1676SOL    HW215351   9.050   2.545   0.959  1.3120  1.1735  0.5742
 1677SOL     OW15352   6.080   3.109   0.753 -0.6200  0.6577 -0.3460
 1677SOL    HW115353   6.135   3.192   0.763 -0.1933  0.4255 -0.7609
 1677SOL    HW215354   6.135   3.030   0.779 -1.6920  0.6743  2.1815
 1678SOL     OW15355   9.066   8.291   6.341 -0.3460 -0.1347 -0.3855
 1678SOL    HW115356   8.996   8.274   6.272 -0.4544  0.0448 -0.3191
 1678SOL    HW215357   9.111   8.205   6.365 -0.1825 -0.1704 -0.8150
 1680SOL     OW15358   2.410   9.433   4.864  0.1464  0.3714  0.1791
 1680SOL    HW115359   2.468   9.370   4.813  0.0929  1.0374 -0.7269
 1680SOL    HW215360   2.363   9.494   4.800 -1.1015  0.2251  0.9383
 1681SOL     OW15361   6.055   9.544   3.093  0.0694 -0.0030 -0.0963
 1681SOL    HW115362   6.119   9.482   3.138 -0.6971 -0.8969 -0.2328
 1681SOL    HW215363   6.106   9.606   3.033  0.7640 -1.0561 -0.6039
 1682SOL     OW15364   3.985   1.020   5.814 -0.1480 -0.7654 -0.3909
 1682SOL    HW115365   4.050   1.009   5.739 -0.6728  1.6245 -1.2376
 1682SOL    HW215366   3.893   0.993   5.782 -0.8414  2.6603 -1.4622
 1683SOL     OW15367   5.840   8.575   5.010  0.2184 -0.2113  0.9643
 1683SOL    HW115368   5.836   8.522   4.926  2.6242 -1.1144  1.3594
 1683SOL    HW215369   5.777   8.652   5.005  1.3406  0.5792 -2.2424
 1684SOL     OW15370   0.296   9.165   6.195 -0.1120  0.3418  0.3154
 1684SOL    HW115371   0.221   9.170   6.129 -1.0813 -0.8678  1.2883
 1684SOL    HW215372   0.275   9.221   6.275 -0.4294 -0.7342  1.0044
 1685SOL     OW15373   0.801   4.299   3.191 -0.3368  0.0124 -0.3064
 1685SOL    HW115374   0.833   4.322   3.099 -1.6815  0.1425 -0.7466
 1685SOL    HW215375   0.791   4.383   3.244  2.6452 -0.2092  0.7314
 1686SOL     OW15376   9.553   6.407   1.245 -0.0385  0.0701 -0.1329
 1686SOL    HW115377   9.565   6.490   1.190 -0.6054 -1.0147 -1.9224
 1686SOL    HW215378   9.480   6.422   1.312 -0.0464  1.0429 -0.3498
 1687SOL     OW15379   5.382   5.362   1.628 -0.7535 -0.2244  0.2755
 1687SOL    HW115380   5.472   5.406   1.618 -1.5091  1.0576 -1.1190
 1687SOL    HW215381   5.364   5.307   1.546 -2.0911  1.1587 -0.3875
 1688SOL     OW15382   9.097   1.750   3.100 -0.0229  0.2058  0.3005
 1688SOL    HW115383   9.063   1.710   3.185 -1.3901  0.5752 -0.0533
 1688SOL    HW215384   9.140   1.838   3.118 -1.9212  1.1421  0.4122
 1689SOL     OW15385   0.134   4.644   5.110  0.0876  0.5424  0.2831
 1689SOL    HW115386   0.165   4.697   5.189 -2.5046 -0.2196  1.8813
 1689SOL    HW215387   0.187   4.559   5.104  1.2483  1.2606  0.3677
 1690SOL     OW15388   9.911   8.375   1.448 -0.0625 -0.1176 -0.1819
 1690SOL    HW115389   9.884   8.329   1.364  0.2258  0.2757 -0.4900
 1690SOL    HW215390   9.991   8.432   1.431  0.0110 -0.0522  0.3637
 1691SOL     OW15391   1.884   1.280   0.156  0.0758  0.2369 -0.4071
 1691SOL    HW115392   1.891   1.304   0.253  2.8641  1.1381 -0.8058
 1691SOL    HW215393   1.946   1.204   0.136  0.7700  1.1571 -1.8338
 1692SOL     OW15394   0.683   7.856   0.824 -0.2079  0.2228 -0.0778
 1692SOL    HW115395   0.587   7.834   0.839 -0.1544 -1.4975 -1.9559
 1692SOL    HW215396   0.701   7.950   0.853 -2.5102  0.6453  0.0748
 1693SOL     OW15397   0.344   5.033   0.708  0.5455  0.4030 -0.1680
 1693SOL    HW115398   0.398   4.949   0.711  0.5236  0.4085  0.5357
 1693SOL    HW215399   0.320   5.054   0.613 -0.2440 -0.8978 -0.2832
 1694SOL     OW15400   1.409   1.033   3.318  0.0068 -0.2041 -0.2586
 1694SOL    HW115401   1.331   1.091   3.293 -0.3296 -1.1610 -1.4737
 1694SOL    HW215402   1.490   1.062   3.267  0.3163  0.4454  0.6005
 1695SOL     OW15403   8.969   6.865   4.498  0.3111 -0.1265  0.7453
 1695SOL    HW115404   8.975   6.934   4.569 -0.2576 -1.0212  1.6760
 1695SOL    HW215405   8.878   6.868   4.456 -0.3962 -1.5894  2.1248
 1697SOL     OW15406   3.955   7.644   1.231  0.0231 -0.5010 -0.4338
 1697SOL    HW115407   3.871   7.697   1.227  0.8146  0.8948  0.9031
 1697SOL    HW215408   3.933   7.549   1.253 -1.2299 -0.2673 -0.6206
 1698SOL     OW15409   6.468   0.496   1.206  0.1627 -0.2855 -0.5887
 1698SOL    HW115410   6.516   0.577   1.241  2.1691 -0.9985 -1.5937
 1698SOL    HW215411   6.481   0.492   1.106 -2.3253 -0.3054 -0.9373
 1699SOL     OW15412   2.735   0.964   4.881 -0.5792 -0.5605  0.0122
 1699SOL    HW115413   2.682   0.940   4.800 -0.1141 -0.0433 -0.4461
 1699SOL    HW215414   2.679   0.949   4.963 -2.4885  2.6759 -0.5986
 1701SOL     OW15415   4.618   2.311   6.257  0.2003  0.0690 -0.2239
 1701SOL    HW115416   4.527   2.352   6.261  0.6003  0.8958  0.5416
 1701SOL    HW215417   4.677   2.354   6.326  0.7916 -1.3959  0.1940
 1702SOL     OW15418   3.733   4.427   0.257 -0.0225 -0.3374  0.2755
 1702SOL    HW115419   3.832   4.438   0.246 -0.0647 -0.4698 -0.2366
 1702SOL    HW215420   3.706   4.337   0.223 -0.1632 -0.7294  1.3863
 1703SOL     OW15421   1.185   1.787   5.082 -0.7548  0.0026 -0.2044
 1703SOL    HW115422   1.104   1.769   5.137 -0.4716  0.2273  0.2879
 1703SOL    HW215423   1.183   1.881   5.048  0.4525  0.7832  1.7818
 1705SOL     OW15424   3.539   2.367   3.609 -0.1640 -0.2528  0.0494
 1705SOL    HW115425   3.440   2.378   3.614 -0.4047 -1.6331 -1.2756
 1705SOL    HW215426   3.578   2.379   3.700 -1.3393  2.0207  0.2908
 1708SOL     OW15427   7.026   9.652   5.141 -0.1303  0.4610  0.5397
 1708SOL    HW115428   7.049   9.712   5.064  0.1031  0.0341  0.2762
 1708SOL    HW215429   7.074   9.684   5.223  2.2437 -1.0127 -0.2295
 1709SOL     OW15430   5.398   8.311   3.298 -0.1130  0.1525  0.2064
 1709SOL    HW115431   5.370   8.215   3.309  0.7704  0.0720  1.8518
 1709SOL    HW215432   5.318   8.370   3.302 -0.4863 -0.3894  0.7648
 1710SOL     OW15433   8.270   0.284   5.105 -0.0730  0.0051 -0.2642
 1710SOL    HW115434   8.319   0.284   5.018 -0.2727  1.3051 -0.3849
 1710SOL    HW215435   8.320   0.228   5.171  1.2252  0.7877 -0.5749
 1711SOL     OW15436   8.333   5.326   1.514  0.2270 -0.0188 -0.4943
 1711SOL    HW115437   8.237   5.306   1.492  0.1363  0.3656 -0.4547
 1711SOL    HW215438   8.387   5.330   1.430 -0.1413  1.5681 -0.6684
 1712SOL     OW15439   3.038   6.345   3.632 -0.0919 -0.5379 -0.3648
 1712SOL    HW115440   3.018   6.306   3.722  1.3693 -0.5506 -0.0378
 1712SOL    HW215441   3.078   6.274   3.574 -1.2565 -0.5951 -1.1180
 1713SOL     OW15442   4.946   8.138   4.908 -0.2112  0.0662  0.1605
 1713SOL    HW115443   5.005   8.182   4.976 -0.7893 -0.2323  0.8615
 1713SOL    HW215444   4.853   8.133   4.943 -0.3327 -0.9019 -0.2802
 1714SOL     OW15445   4.349   3.374   6.328 -0.0314  0.1495 -0.3363
 1714SOL    HW115446   4.348   3.449   6.262 -1.1000 -0.3850 -0.9323
 1714SOL    HW215447   4.438   3.327   6.324  0.7810  1.5907  0.3004
 1715SOL     OW15448   6.168   1.640   3.347  0.0471  0.5378 -0.0385
 1715SOL    HW115449   6.173   1.727   3.397 -0.3608  0.8236 -0.4840
 1715SOL    HW215450   6.087   1.590   3.376 -1.3012  1.6081 -1.8207
 1717SOL     OW15451   1.386   1.947   2.632 -0.4399 -0.7343 -0.2768
 1717SOL    HW115452   1.467   2.005   2.643 -0.7606 -0.4900  0.7870
 1717SOL    HW215453   1.392   1.898   2.545 -0.9365  2.0910 -1.9525
 1718SOL     OW15454   4.460   2.702   5.485  0.1480 -0.4810  0.4388
 1718SOL    HW115455   4.433   2.769   5.416 -0.8600  0.1619  1.4361
 1718SOL    HW215456   4.500   2.622   5.440  0.9901  0.6081 -0.7807
 1719SOL     OW15457   3.237   2.685   3.050 -0.0221 -0.0326 -0.7063
 1719SOL    HW115458   3.195   2.610   3.101 -0.2593 -0.5865 -1.6991
 1719SOL    HW215459   3.282   2.748   3.113  1.4522 -1.7895  0.0276
 1720SOL     OW15460   9.407   5.003   1.337 -0.5110 -0.0513  0.1070
 1720SOL    HW115461   9.311   5.028   1.323 -0.6902 -0.3259  0.7998
 1720SOL    HW215462   9.413   4.904   1.353  0.0879 -0.3268 -1.7319
 1721SOL     OW15463   6.995   3.357   1.950  0.4344 -0.2214  0.0251
 1721SOL    HW115464   7.078   3.412   1.951 -0.0819  0.5512  0.7083
 1721SOL    HW215465   7.012   3.271   1.902  1.5941 -0.0174  0.0753
 1722SOL     OW15466   7.498   0.486   4.771 -0.5604 -0.0154 -0.2689
 1722SOL    HW115467   7.478   0.408   4.711 -2.6323  0.1096  0.2294
 1722SOL    HW215468   7.527   0.452   4.861  2.3018 -0.2014 -1.2090
 1723SOL     OW15469   7.978   6.256   2.017 -0.1966  0.5275 -0.0388
 1723SOL    HW115470   7.912   6.325   1.990  0.0826  0.9352  0.3217
 1723SOL    HW215471   8.060   6.264   1.961  0.4449  1.4719  1.0106
 1725SOL     OW15472   6.200   7.621   4.504  0.3619  0.2059  0.2994
 1725SOL    HW115473   6.212   7.703   4.448  1.5240 -0.7477 -0.9035
 1725SOL    HW215474   6.106   7.616   4.537  0.0230  1.5124 -0.4445
 1726SOL     OW15475   9.680   0.024   1.913  0.1093  0.5229 -0.2380
 1726SOL    HW115476   9.686   0.045   2.011 -1.6014  1.8823 -0.4167
 1726SOL    HW215477   9.601  -0.034   1.896  0.3547  0.3590 -0.8317
 1727SOL     OW15478   5.092   2.370   4.890 -0.5380 -0.2332  0.3046
 1727SOL    HW115479   5.003   2.357   4.846 -0.3445 -1.6084  0.2763
 1727SOL    HW215480   5.120   2.466   4.883 -1.4794 -0.0252 -0.7277
 1728SOL     OW15481   0.137   6.143   0.557  0.1113 -0.4919 -0.0470
 1728SOL    HW115482   0.210   6.153   0.490  0.7728 -1.0092  0.5836
 1728SOL    HW215483   0.125   6.046   0.579 -0.0988 -0.3311  0.5710
 1729SOL     OW15484   1.074   1.094   1.774  0.3657  0.0829  0.1548
 1729SOL    HW115485   1.102   1.096   1.678  0.6591  0.0747  0.2422
 1729SOL    HW215486   1.085   1.001   1.810 -1.2800 -0.3024 -0.2647
 1730SOL     OW15487   4.533   2.560   4.845 -0.2797 -0.2305 -0.2444
 1730SOL    HW115488   4.480   2.644   4.838 -0.0804  0.0743  1.6434
 1730SOL    HW215489   4.615   2.567   4.787  0.4166  1.4012  0.8979
 1731SOL     OW15490   9.880   8.290   0.697 -0.1348 -0.1545  0.5820
 1731SOL    HW115491   9.865   8.380   0.737  0.9161  0.2024  0.1845
 1731SOL    HW215492   9.835   8.220   0.754  0.9838  0.3813  2.1589
 1732SOL     OW15493   0.678   0.427   2.924  0.5543  0.0304 -0.0944
 1732SOL    HW115494   0.705   0.500   2.861  1.4191 -0.9531 -0.8894
 1732SOL    HW215495   0.611   0.462   2.989 -1.0802  0.8283 -2.1475
 1733SOL     OW15496   0.577   0.950   5.566 -0.5419 -0.3652 -0.3488
 1733SOL    HW115497   0.559   0.965   5.663  0.4862  0.0345 -0.2071
 1733SOL    HW215498   0.551   1.032   5.514 -1.3054 -0.6652 -0.4402
 1734SOL     OW15499   2.920   8.521   0.875  0.7892  0.5735 -0.0094
 1734SOL    HW115500   2.883   8.474   0.955  2.2749 -0.8862 -0.1551
 1734SOL    HW215501   2.886   8.477   0.792  1.1338  0.5769 -0.1539
 1735SOL     OW15502   0.908   4.186   0.270 -0.0200  0.1308  0.0844
 1735SOL    HW115503   0.877   4.141   0.353 -1.1032  0.8619  0.0853
 1735SOL    HW215504   0.835   4.244   0.234  0.7891  0.6079 -0.8184
 1737SOL     OW15505   7.288   8.801   6.056  0.2213  0.0102  0.4172
 1737SOL    HW115506   7.202   8.835   6.016 -0.3785 -2.8010 -0.8358
 1737SOL    HW215507   7.267   8.746   6.137  0.9990  0.8027  1.1624
 1738SOL     OW15508   8.832   7.801   4.492 -0.0333 -0.2940 -0.6258
 1738SOL    HW115509   8.929   7.811   4.516  0.1657 -1.6868 -0.7826
 1738SOL    HW215510   8.819   7.715   4.442 -1.3103  0.0160 -0.8451
 1739SOL     OW15511   6.725   9.281   2.885 -0.6240  0.2447 -0.4383
 1739SOL    HW115512   6.727   9.182   2.877  0.9418  0.2697 -0.6223
 1739SOL    HW215513   6.638   9.310   2.924 -0.2581 -1.3730  1.6791
 1741SOL     OW15514   3.647   4.783   1.099  0.2192  0.2427 -0.0119
 1741SOL    HW115515   3.622   4.876   1.071 -1.0045 -0.4021 -1.1176
 1741SOL    HW215516   3.746   4.772   1.095  0.2624  1.0328 -1.3723
 1742SOL     OW15517   9.569   7.021   3.772 -0.2865 -0.2501 -0.3765
 1742SOL    HW115518   9.631   6.971   3.712  0.5365 -1.4979  1.4884
 1742SOL    HW215519   9.614   7.038   3.860 -2.3269 -0.5539  0.7572
 1743SOL     OW15520   0.508   3.694   6.429  0.2433  0.9629  0.3555
 1743SOL    HW115521   0.528   3.601   6.459  1.4266  1.4621  1.1362
 1743SOL    HW215522   0.438   3.691   6.357 -0.5771 -0.4308  1.1874
 1744SOL     OW15523   8.829   9.694   4.173  0.5354 -0.3764 -0.1039
 1744SOL    HW115524   8.749   9.743   4.138 -0.6587 -0.8096  1.9383
 1744SOL    HW215525   8.882   9.658   4.096 -1.6603 -0.7794 -1.4809
 1745SOL     OW15526   4.442   3.308   4.326  0.3092 -0.1380 -0.5098
 1745SOL    HW115527   4.419   3.389   4.381  1.0575 -0.2811  0.0215
 1745SOL    HW215528   4.374   3.236   4.343  1.0759 -0.5283  0.9944
 1747SOL     OW15529   0.253   4.068   2.843 -0.2192  0.0214 -0.0348
 1747SOL    HW115530   0.280   3.996   2.779  0.4664  0.9957 -0.8608
 1747SOL    HW215531   0.307   4.060   2.927 -0.5982 -0.8052  0.1385
 1748SOL     OW15532   0.315   1.400   3.774  0.1425 -0.2760  0.0029
 1748SOL    HW115533   0.389   1.339   3.746  0.0355 -0.2293 -0.3892
 1748SOL    HW215534   0.250   1.411   3.698 -0.0591 -0.0085  0.2122
 1750SOL     OW15535   6.444   1.944   0.122 -0.0922  0.2831  0.1018
 1750SOL    HW115536   6.497   2.018   0.082 -0.1761  0.1583 -0.2405
 1750SOL    HW215537   6.415   1.880   0.051 -0.0007 -0.0926  0.3987
 1751SOL     OW15538   6.826   0.439   2.852 -0.1381 -0.1705  0.1533
 1751SOL    HW115539   6.781   0.425   2.940  1.2879 -0.1514  0.8964
 1751SOL    HW215540   6.877   0.525   2.853 -1.1979  0.4977 -1.1691
 1752SOL     OW15541   2.134   7.861   4.971  0.4871 -0.3317  0.2572
 1752SOL    HW115542   2.136   7.895   5.065  0.4955  0.5806 -0.0688
 1752SOL    HW215543   2.163   7.934   4.909 -0.8635 -0.4849 -0.5753
 1753SOL     OW15544   1.504   6.937   0.340  0.3743  0.1633 -0.2552
 1753SOL    HW115545   1.525   7.009   0.406 -0.2139  1.0421 -1.0118
 1753SOL    HW215546   1.557   6.954   0.256  1.2285 -1.0213  0.0364
 1754SOL     OW15547   0.566   0.186   2.830  0.4786  0.1973 -0.1059
 1754SOL    HW115548   0.611   0.269   2.861 -1.0355  0.5228  1.3048
 1754SOL    HW215549   0.484   0.210   2.777  0.0680 -0.3994  0.2527
 1755SOL     OW15550   8.237   5.291   5.655  0.4311  0.6366 -0.0954
 1755SOL    HW115551   8.159   5.352   5.663 -0.5567 -0.4446 -1.2001
 1755SOL    HW215552   8.321   5.345   5.651 -0.4463  1.9631 -1.3838
 1757SOL     OW15553   1.464   1.096   1.591  0.0142  0.0830  0.5437
 1757SOL    HW115554   1.439   1.112   1.686  1.8540  0.3101  0.9909
 1757SOL    HW215555   1.524   1.168   1.559  0.5781 -0.7729 -0.3525
 1758SOL     OW15556   4.839   5.263   1.278  0.0267 -0.4625 -0.0969
 1758SOL    HW115557   4.756   5.209   1.290  0.5260 -0.7866  2.0264
 1758SOL    HW215558   4.864   5.305   1.365  1.9822 -0.1989 -0.7698
 1760SOL     OW15559   2.894   3.984   5.423 -0.4277  0.2613  0.3593
 1760SOL    HW115560   2.818   3.960   5.363 -1.4435  3.2082  0.3952
 1760SOL    HW215561   2.899   4.083   5.433  2.8098  0.0809  1.1897
 1761SOL     OW15562   8.918   1.729   6.254 -0.1888  0.5555  0.0537
 1761SOL    HW115563   8.853   1.804   6.257  0.1245  0.8017  0.9382
 1761SOL    HW215564   9.011   1.766   6.248 -0.0101  0.2464  0.9215
 1762SOL     OW15565   1.947   7.380   4.701  0.5196 -0.3888  0.0665
 1762SOL    HW115566   2.043   7.355   4.690  0.1729 -1.0170 -1.5762
 1762SOL    HW215567   1.941   7.460   4.762  2.3589  1.7894 -2.4786
 1763SOL     OW15568   4.267   1.745   2.747 -0.3944 -0.0019  0.1366
 1763SOL    HW115569   4.201   1.790   2.807 -1.3189  0.0885 -0.9498
 1763SOL    HW215570   4.303   1.812   2.682 -1.4150 -0.7103 -1.1719
 1764SOL     OW15571   3.133   1.591   4.731 -0.4676 -0.0247  0.3221
 1764SOL    HW115572   3.145   1.566   4.635  1.9828 -0.0072  0.5983
 1764SOL    HW215573   3.151   1.688   4.743 -1.5255  0.1384  0.7002
 1766SOL     OW15574   7.452   3.536   6.425  0.3656  0.2673 -0.0361
 1766SOL    HW115575   7.404   3.520   6.338 -0.8351 -1.1277  0.8732
 1766SOL    HW215576   7.415   3.617   6.469 -0.4391 -0.1963  0.1488
 1768SOL     OW15577   0.094   4.064   3.847  0.4660  0.1478 -0.3775
 1768SOL    HW115578   0.068   4.008   3.768 -0.8803  1.5562 -0.9555
 1768SOL    HW215579   0.181   4.109   3.829  0.8984 -0.6869 -0.4382
 1769SOL     OW15580   6.169   9.110   6.097  0.5497  0.0960  0.2034
 1769SOL    HW115581   6.135   9.183   6.156  0.8070 -0.6012  1.2189
 1769SOL    HW215582   6.094   9.076   6.040  0.7913  2.3090 -1.5374
 1770SOL     OW15583   3.021   3.303   5.732  0.2076  0.3021 -0.7541
 1770SOL    HW115584   3.051   3.209   5.716 -3.0874 -0.6809 -1.4379
 1770SOL    HW215585   2.963   3.332   5.656 -0.6423  2.1112  0.5749
 1773SOL     OW15586   2.239   1.151   3.609 -0.1572 -0.4063  0.3756
 1773SOL    HW115587   2.295   1.156   3.526 -2.2382  1.8618 -0.9698
 1773SOL    HW215588   2.263   1.226   3.670 -1.4084  0.3624 -0.0454
 1774SOL     OW15589   2.945   9.440   0.519 -0.7034  0.1708 -0.2976
 1774SOL    HW115590   2.959   9.343   0.539 -0.2289 -0.1000 -1.8486
 1774SOL    HW215591   2.904   9.449   0.428  0.1872  1.4631 -0.5798
 1775SOL     OW15592   9.673   4.361   0.325 -0.7533 -0.1479  0.2488
 1775SOL    HW115593   9.712   4.316   0.404  0.6305 -0.6299 -0.6870
 1775SOL    HW215594   9.677   4.300   0.246 -0.0048  1.1231 -0.7303
 1776SOL     OW15595   0.372   6.822   1.170  0.3839 -0.4005 -0.5766
 1776SOL    HW115596   0.388   6.847   1.265 -0.5742  0.3368 -0.6058
 1776SOL    HW215597   0.333   6.900   1.121 -2.0600 -1.7482 -0.8145
 1777SOL     OW15598   5.315   0.690   5.104  0.0392 -0.1614 -0.5012
 1777SOL    HW115599   5.290   0.595   5.121 -0.8499 -0.0764 -1.3180
 1777SOL    HW215600   5.380   0.694   5.028 -0.5463 -0.0624 -1.0063
 1778SOL     OW15601   5.788   0.002   5.381  0.0346 -0.0521 -0.3119
 1778SOL    HW115602   5.804   0.007   5.480  1.6683  0.1068 -0.5641
 1778SOL    HW215603   5.876  -0.001   5.334 -0.7483 -0.9763 -1.7242
 1780SOL     OW15604   7.913   4.313   5.578  0.3537  0.8190  0.2168
 1780SOL    HW115605   7.822   4.306   5.537  0.5848 -0.2719 -0.1151
 1780SOL    HW215606   7.904   4.331   5.676 -0.2250  0.0488  0.3069
 1781SOL     OW15607   2.900   2.920   4.609 -0.3645 -0.3339  0.2084
 1781SOL    HW115608   2.975   2.873   4.563 -0.5484  1.3531 -1.8772
 1781SOL    HW215609   2.892   3.014   4.574 -2.9287 -0.2215  0.9625
 1783SOL     OW15610   5.487   1.328   4.668 -0.2593 -0.0761  0.6851
 1783SOL    HW115611   5.400   1.280   4.675  0.0172 -0.5793  0.6270
 1783SOL    HW215612   5.498   1.365   4.576 -0.0556 -0.6743  0.4721
 1784SOL     OW15613   3.273   5.651   6.416 -0.2069  0.1975 -0.4427
 1784SOL    HW115614   3.218   5.669   6.334 -2.5620 -0.2051  1.0021
 1784SOL    HW215615   3.213   5.644   6.495  2.1241  1.5439  1.5038
 1785SOL     OW15616   6.915   1.454   2.692  0.0147  0.3309  0.1476
 1785SOL    HW115617   6.835   1.404   2.724 -0.7720  0.8388 -0.9794
 1785SOL    HW215618   6.933   1.431   2.596 -0.0853  1.8268 -0.2507
 1787SOL     OW15619   3.642   2.175   0.822  0.1638 -0.0711  0.3220
 1787SOL    HW115620   3.624   2.225   0.737  0.7128  1.5373  1.1432
 1787SOL    HW215621   3.728   2.207   0.862 -0.7440  0.1015  2.1724
 1788SOL     OW15622   2.260   1.635   0.979 -0.4168  0.0585  0.0770
 1788SOL    HW115623   2.281   1.674   1.069 -1.5983  0.5258  0.1657
 1788SOL    HW215624   2.199   1.557   0.990  0.8610 -0.9976 -0.2036
 1789SOL     OW15625   6.839   0.668   1.063 -0.7916 -0.1914  0.6926
 1789SOL    HW115626   6.874   0.683   1.155 -0.0538  0.4603  0.3161
 1789SOL    HW215627   6.884   0.589   1.022  0.1221  0.5266  0.2824
 1790SOL     OW15628   4.469   8.531   2.851  0.2459 -0.1457 -0.0739
 1790SOL    HW115629   4.473   8.624   2.814 -1.6598 -0.1251 -0.3315
 1790SOL    HW215630   4.411   8.531   2.933  0.3321 -1.0736 -0.0161
 1791SOL     OW15631   5.892   3.789   0.394  0.6358  0.0287  0.9410
 1791SOL    HW115632   5.978   3.829   0.428 -0.0957  1.7068  0.8581
 1791SOL    HW215633   5.852   3.732   0.466 -0.6176  3.1297  2.7676
 1792SOL     OW15634   0.968   7.092   5.034 -0.6669  0.3591 -0.1891
 1792SOL    HW115635   1.054   7.092   4.984 -0.2942  0.9398  0.4455
 1792SOL    HW215636   0.956   7.180   5.080  0.1422 -0.9532  2.6629
 1794SOL     OW15637   7.100   2.699   4.390 -0.1066  0.2509 -0.1042
 1794SOL    HW115638   7.041   2.752   4.329 -2.6871 -1.0745  1.1518
 1794SOL    HW215639   7.062   2.702   4.483  2.3463  0.1331  0.9271
 1795SOL     OW15640   5.670   5.627   1.220  0.0150  0.4645  0.2516
 1795SOL    HW115641   5.607   5.699   1.192  1.7952  2.3106  0.8800
 1795SOL    HW215642   5.760   5.643   1.179  0.6382 -0.9921  0.9871
 1796SOL     OW15643   1.845   1.616   5.750 -0.1966 -0.2222 -0.2638
 1796SOL    HW115644   1.891   1.535   5.713  0.1367 -0.2212  0.1342
 1796SOL    HW215645   1.862   1.621   5.849  0.9581  1.0973 -0.5161
 1797SOL     OW15646   8.669   8.289   3.363 -0.0673 -0.4356 -0.2482
 1797SOL    HW115647   8.598   8.314   3.297  0.1670  2.4981  0.5644
 1797SOL    HW215648   8.731   8.223   3.321 -2.8565 -2.6132 -1.1946
 1798SOL     OW15649   6.864   2.963   5.842  0.3517 -0.2525 -0.5465
 1798SOL    HW115650   6.954   2.986   5.806  0.2189  0.0862 -0.6603
 1798SOL    HW215651   6.798   2.957   5.767  0.4460 -1.3114 -0.5604
 1799SOL     OW15652   3.904   1.507   0.355 -0.2303 -0.3268 -0.0459
 1799SOL    HW115653   3.919   1.408   0.359 -1.6054 -0.5580 -0.2935
 1799SOL    HW215654   3.992   1.554   0.349  0.3971 -1.5845 -0.9381
 1800SOL     OW15655   3.528   6.228   5.548 -0.0137  0.0853 -0.0862
 1800SOL    HW115656   3.513   6.129   5.547 -0.4458  0.1548 -0.6158
 1800SOL    HW215657   3.538   6.259   5.642 -1.4881 -0.2226  0.1783
 1801SOL     OW15658   3.271   5.701   2.085 -0.6732 -0.0971 -0.1163
 1801SOL    HW115659   3.271   5.611   2.041 -1.2166  0.4522 -1.2620
 1801SOL    HW215660   3.315   5.694   2.175  0.8455 -1.1640 -0.9139
 1803SOL     OW15661   2.915   7.163   0.196 -0.3206 -0.1753 -0.3997
 1803SOL    HW115662   2.855   7.242   0.191  1.2870  1.0111 -1.2088
 1803SOL    HW215663   3.011   7.192   0.192  0.3158 -2.0971 -0.0707
 1804SOL     OW15664   2.372   9.680   8.189  0.0623  0.1770 -0.2925
 1804SOL    HW115665   2.408   9.624   8.114 -0.3513  0.7853 -0.9418
 1804SOL    HW215666   2.315   9.753   8.153 -1.2717 -0.3534  0.7068
 1806SOL     OW15667   2.655   9.459   1.984 -0.0164  0.1188 -0.0181
 1806SOL    HW115668   2.676   9.472   2.081  0.8800  1.3090 -0.3751
 1806SOL    HW215669   2.639   9.361   1.967  0.9163 -0.2422  1.1064
 1807SOL     OW15670   9.064   5.833   4.716  0.3268  0.2475 -0.8132
 1807SOL    HW115671   9.068   5.916   4.771 -1.7966 -0.1370 -0.0294
 1807SOL    HW215672   9.156   5.809   4.685  1.5938  0.3981  2.6899
 1808SOL     OW15673   2.337   5.754   5.152  0.3240  0.0748 -0.4605
 1808SOL    HW115674   2.372   5.661   5.145  1.4677  0.5436 -1.2479
 1808SOL    HW215675   2.293   5.780   5.067  1.3960  0.7914 -0.8038
 1809SOL     OW15676   0.416   9.057   0.839 -0.6375  0.1303 -0.2326
 1809SOL    HW115677   0.328   9.103   0.850  0.3309  2.1288 -0.6859
 1809SOL    HW215678   0.485   9.103   0.894  0.1114 -1.4832  0.1892
 1810SOL     OW15679   9.369   1.210   5.208 -0.3466  0.1715 -0.2452
 1810SOL    HW115680   9.382   1.111   5.203  1.0709  0.2874  0.6858
 1810SOL    HW215681   9.315   1.241   5.130 -1.5791 -1.4508 -0.0524
 1812SOL     OW15682   5.091   4.725   0.656  0.1991 -0.7052  0.0049
 1812SOL    HW115683   5.001   4.727   0.698  1.4776 -2.3486  2.9879
 1812SOL    HW215684   5.127   4.632   0.655  2.9105  0.2545  1.2828
 1813SOL     OW15685   3.538   5.974   6.306 -0.8052 -0.1933 -0.2002
 1813SOL    HW115686   3.508   5.962   6.211 -0.5880  1.2710 -0.4718
 1813SOL    HW215687   3.471   6.028   6.356 -0.8711 -0.8807  0.4607
 1814SOL     OW15688   2.390   0.580   2.159  0.4879 -0.1830  0.1865
 1814SOL    HW115689   2.435   0.644   2.221  1.3069  0.1664 -0.7552
 1814SOL    HW215690   2.397   0.614   2.065 -2.9844  0.5761  0.1587
 1815SOL     OW15691   9.399   3.787   4.655 -0.4855 -0.0156  0.2420
 1815SOL    HW115692   9.481   3.741   4.690 -0.4468 -1.3627 -1.5642
 1815SOL    HW215693   9.408   3.801   4.557 -2.0591  0.6366  0.1807
 1816SOL     OW15694   0.367   1.855   5.656  0.1854  0.4086 -0.1076
 1816SOL    HW115695   0.375   1.948   5.621 -1.0450  0.0967 -1.2619
 1816SOL    HW215696   0.423   1.845   5.738 -0.9922  2.6483  1.0079
 1817SOL     OW15697   7.289   2.506   0.550  0.1124  0.4959  0.6766
 1817SOL    HW115698   7.379   2.462   0.556  0.4010  1.2765  2.7620
 1817SOL    HW215699   7.231   2.456   0.487  1.7452 -0.5020 -0.0733
 1818SOL     OW15700   8.597   1.851   4.342  0.2415  0.2187 -0.3476
 1818SOL    HW115701   8.497   1.862   4.344  0.2003 -0.2100  0.0944
 1818SOL    HW215702   8.621   1.781   4.275  0.2401  0.2795 -0.4115
 1819SOL     OW15703   8.324   3.646   4.264  0.1396 -0.2017  0.1216
 1819SOL    HW115704   8.273   3.641   4.178 -0.6490  1.1732  0.4990
 1819SOL    HW215705   8.269   3.607   4.338  0.9205 -1.6208 -0.0298
 1820SOL     OW15706   9.482   3.142   5.217  0.4213  0.2067  0.1579
 1820SOL    HW115707   9.397   3.106   5.178  0.6780 -0.2500  0.0242
 1820SOL    HW215708   9.467   3.166   5.313 -0.1985  1.2948 -0.2032
 1821SOL     OW15709   8.951   5.716   2.692  0.3018  0.0979  0.1096
 1821SOL    HW115710   8.920   5.623   2.669 -0.5215  0.5704 -0.7576
 1821SOL    HW215711   8.973   5.721   2.789 -1.1747 -0.6003  0.4988
 1822SOL     OW15712   6.647   7.720   4.508 -0.8009  0.4918 -0.0528
 1822SOL    HW115713   6.601   7.665   4.577 -0.5912  0.5619  0.1434
 1822SOL    HW215714   6.598   7.713   4.421 -1.9776  1.7065  0.5113
 1823SOL     OW15715   7.316   0.550   0.064  0.1993 -0.1618 -0.4635
 1823SOL    HW115716   7.292   0.607  -0.014 -0.0756  0.6334  0.1999
 1823SOL    HW215717   7.308   0.603   0.149 -3.1044 -1.9738  0.4864
 1824SOL     OW15718   5.386   4.100   0.368 -0.0571  0.8009  0.2972
 1824SOL    HW115719   5.427   4.164   0.433  1.4286  0.9918 -0.8132
 1824SOL    HW215720   5.440   4.017   0.365  0.8502  1.4486 -1.9258
 1826SOL     OW15721   3.946   9.168   2.288  0.0869  0.8097 -0.2334
 1826SOL    HW115722   3.989   9.183   2.377  1.0726 -2.1166 -0.1851
 1826SOL    HW215723   4.006   9.113   2.230 -2.0590 -0.3453 -1.4405
 1827SOL     OW15724   6.948   9.963   3.632  0.2923 -0.0594 -0.4419
 1827SOL    HW115725   6.900  10.010   3.707 -0.1489 -0.4555 -0.4791
 1827SOL    HW215726   6.885   9.949   3.556  0.9268  0.9869 -1.1754
 1828SOL     OW15727   7.938   6.984   6.148  0.3845 -0.0024 -0.3193
 1828SOL    HW115728   7.910   7.080   6.160 -0.2751 -0.3746  1.3682
 1828SOL    HW215729   8.028   6.981   6.107  0.8928  1.3881  0.6197
 1829SOL     OW15730   3.215   4.756   0.549 -0.4280 -0.4091 -0.1031
 1829SOL    HW115731   3.207   4.694   0.627 -1.9778 -1.1192 -0.7966
 1829SOL    HW215732   3.254   4.707   0.471 -1.8065 -0.5681 -0.7018
 1830SOL     OW15733   8.294   4.000   0.528 -0.1424 -0.6404  0.1464
 1830SOL    HW115734   8.327   3.916   0.571  0.2304 -2.0173 -2.7301
 1830SOL    HW215735   8.324   4.003   0.433 -1.2170  2.1637 -0.1513
 1832SOL     OW15736   4.389   7.654   3.087  0.2739  0.0538 -0.2751
 1832SOL    HW115737   4.293   7.679   3.083  0.9276  2.8331  0.4209
 1832SOL    HW215738   4.436   7.686   3.005  0.7072 -0.7600 -0.3466
 1833SOL     OW15739   8.612   1.074   1.178  0.5022  0.0201 -0.0900
 1833SOL    HW115740   8.680   1.141   1.148  1.0863 -0.9153 -0.8790
 1833SOL    HW215741   8.645   0.982   1.159 -1.2975 -0.4283 -1.1655
 1834SOL     OW15742   2.354   9.758   1.816  0.0888  0.1667  0.4265
 1834SOL    HW115743   2.350   9.660   1.836 -2.6740 -0.2769 -2.0644
 1834SOL    HW215744   2.287   9.806   1.873  0.0288  0.3682  0.1836
 1837SOL     OW15745   1.277   4.658   3.395  0.3591  0.0014  0.0461
 1837SOL    HW115746   1.367   4.700   3.382 -0.2635  1.3578  0.1000
 1837SOL    HW215747   1.262   4.640   3.492  0.6715 -0.4549  0.0110
 1838SOL     OW15748   1.701   9.652   4.110 -0.0494  0.2535 -0.7285
 1838SOL    HW115749   1.791   9.687   4.083  0.4605  0.0775  0.6938
 1838SOL    HW215750   1.665   9.594   4.036  0.3759  1.4232 -1.8810
 1839SOL     OW15751   0.691   0.749   3.603  0.5260 -0.2843 -0.0801
 1839SOL    HW115752   0.734   0.826   3.555 -0.3637  0.0922 -0.2747
 1839SOL    HW215753   0.763   0.691   3.643  1.2307  0.0876 -0.7912
 1840SOL     OW15754   0.742   9.524   2.745  0.4478 -1.0391 -0.2124
 1840SOL    HW115755   0.812   9.530   2.674 -0.1378 -3.6616 -1.0713
 1840SOL    HW215756   0.773   9.462   2.817  0.8108  1.1922  1.6068
 1841SOL     OW15757   2.738   9.984   0.988  0.1719  0.1321  0.1090
 1841SOL    HW115758   2.640   9.964   0.993  0.3623 -0.6986  0.7300
 1841SOL    HW215759   2.779   9.934   0.912  0.0024  0.9894 -0.5560
 1843SOL     OW15760   9.940   1.643   4.394 -0.6182 -0.0647  0.4559
 1843SOL    HW115761   9.853   1.678   4.358 -0.4773  0.7955  0.9375
 1843SOL    HW215762   9.998   1.613   4.319 -1.0605  0.0085  0.0856
 1845SOL     OW15763   1.387   1.209   4.422  0.5891  0.0152  0.0267
 1845SOL    HW115764   1.419   1.115   4.415 -0.4561 -0.4134  0.7733
 1845SOL    HW215765   1.373   1.247   4.331 -0.6829 -1.1585 -0.2919
 1846SOL     OW15766   8.752   2.747   1.559  0.5114 -1.1445 -0.4489
 1846SOL    HW115767   8.765   2.789   1.649 -0.0807 -2.9103  0.4804
 1846SOL    HW215768   8.657   2.759   1.530  1.0959  0.8795 -1.6148
 1847SOL     OW15769   4.919   3.093   6.118  0.2812 -0.2458  1.0277
 1847SOL    HW115770   4.953   3.181   6.152 -0.9408  0.3624  0.6853
 1847SOL    HW215771   4.969   3.069   6.034  0.1844  0.4216  0.7766
 1848SOL     OW15772   3.694   1.244   4.132  0.0154  0.0332 -0.4268
 1848SOL    HW115773   3.779   1.241   4.183 -0.3378 -0.6334  0.1337
 1848SOL    HW215774   3.644   1.158   4.145 -2.3162  1.6470  1.9478
 1849SOL     OW15775   0.403   1.715   3.370 -0.4613 -0.5242 -0.1470
 1849SOL    HW115776   0.306   1.716   3.395 -0.9000  2.2063 -1.7428
 1849SOL    HW215777   0.458   1.751   3.445 -0.6455 -2.0485  0.7475
 1850SOL     OW15778   0.871   5.976   0.708  0.8315 -0.2196 -0.2218
 1850SOL    HW115779   0.790   6.025   0.675  0.2055 -0.8869  0.3294
 1850SOL    HW215780   0.853   5.939   0.799  0.8941 -2.5119 -1.1315
 1851SOL     OW15781   2.595   4.005   1.662  0.3602 -0.3803 -0.1128
 1851SOL    HW115782   2.538   4.060   1.723 -0.4387 -0.6736 -0.5959
 1851SOL    HW215783   2.680   3.980   1.710  1.0898  1.9237 -0.1617
 1852SOL     OW15784   1.479   8.782   0.952 -0.8986  0.0439  0.3692
 1852SOL    HW115785   1.527   8.707   0.997  0.5907  0.7652  0.0224
 1852SOL    HW215786   1.416   8.745   0.883 -0.4312 -0.8921  0.4413
 1853SOL     OW15787   4.103   9.276   2.740  0.5415  0.2573  0.4653
 1853SOL    HW115788   4.135   9.195   2.790 -0.3958  0.8223  2.0151
 1853SOL    HW215789   4.046   9.247   2.663  2.8410 -0.6664 -0.9604
 1854SOL     OW15790   0.506   3.514   3.140  0.5803  0.6238  0.4317
 1854SOL    HW115791   0.467   3.423   3.128  1.4856  0.2025  0.6678
 1854SOL    HW215792   0.567   3.515   3.220  1.5397  1.0987 -0.2887
 1855SOL     OW15793   2.310   2.217   1.559  0.4642 -0.6129 -0.2408
 1855SOL    HW115794   2.296   2.283   1.633  0.7249 -0.5896 -0.2139
 1855SOL    HW215795   2.351   2.262   1.480  3.5904 -1.3680  0.8912
 1857SOL     OW15796   1.302   6.617   4.345 -0.7920 -0.2545  0.7116
 1857SOL    HW115797   1.355   6.675   4.407  2.3548 -2.0398 -0.1965
 1857SOL    HW215798   1.293   6.525   4.385 -2.3983 -0.2505  0.4015
 1858SOL     OW15799   8.731   4.433   5.805 -0.4669 -0.0326  0.3436
 1858SOL    HW115800   8.688   4.377   5.876 -1.0079 -1.1175 -0.8369
 1858SOL    HW215801   8.806   4.382   5.764 -0.3204  0.4986 -0.0497
 1859SOL     OW15802   0.524   9.591   2.303 -0.2150  0.0889  0.1035
 1859SOL    HW115803   0.471   9.675   2.303 -1.0720 -0.4506  0.4347
 1859SOL    HW215804   0.463   9.512   2.290  0.8991 -0.2892 -3.4196
 1861SOL     OW15805   4.537   6.636   2.635 -0.2305  0.1030 -0.2011
 1861SOL    HW115806   4.464   6.704   2.627 -0.6472 -0.6248 -3.1441
 1861SOL    HW215807   4.514   6.572   2.708 -1.5092  1.1232  0.3229
 1862SOL     OW15808   4.634   0.336   4.802 -0.5429 -0.5897  0.2327
 1862SOL    HW115809   4.593   0.385   4.726 -0.1682  0.1048  0.4821
 1862SOL    HW215810   4.733   0.331   4.790 -0.6335 -1.7753 -0.0793
 1863SOL     OW15811   8.279   4.716   5.140  0.1131  0.9420 -0.0918
 1863SOL    HW115812   8.373   4.692   5.113 -0.1001  1.3232 -1.2053
 1863SOL    HW215813   8.267   4.699   5.238  0.2210 -2.6012 -0.6532
 1864SOL     OW15814   3.960   2.941   0.398  0.0550  0.0116 -0.2799
 1864SOL    HW115815   4.045   2.936   0.451  0.4708  0.9866 -0.8278
 1864SOL    HW215816   3.977   2.909   0.305  0.0918  1.1914 -0.6915
 1865SOL     OW15817   1.934   9.044   1.175 -0.3332  0.0245  0.4416
 1865SOL    HW115818   1.950   8.951   1.142 -0.9074  0.6140 -1.5322
 1865SOL    HW215819   1.847   9.048   1.224 -2.2274  0.3148 -2.7978
 1866SOL     OW15820   9.295   1.085   5.782 -0.1303 -0.7795  0.4561
 1866SOL    HW115821   9.279   1.095   5.684  2.1239 -1.4221 -0.0037
 1866SOL    HW215822   9.222   1.029   5.822 -0.9785 -0.6508 -0.8823
 1867SOL     OW15823   9.860   7.683   6.008 -0.2187 -0.1779 -0.4003
 1867SOL    HW115824   9.945   7.711   5.964  0.2098  0.0796  0.5848
 1867SOL    HW215825   9.835   7.591   5.978 -0.2876  0.2556 -1.6972
 1870SOL     OW15826   9.031   8.229   2.174  0.0575  0.2751  0.3133
 1870SOL    HW115827   9.062   8.265   2.086  2.6735  0.7928  1.3844
 1870SOL    HW215828   9.030   8.303   2.241  0.2886 -0.5732  1.2568
 1871SOL     OW15829   2.294   2.150   5.768 -0.3623 -0.4839  0.2641
 1871SOL    HW115830   2.220   2.084   5.761  0.2798 -1.1871  0.0677
 1871SOL    HW215831   2.373   2.118   5.716 -0.2102  0.6664 -0.2425
 1872SOL     OW15832   8.656   5.664   5.226 -0.7556  0.7677 -0.3285
 1872SOL    HW115833   8.678   5.759   5.205  0.5222  0.1441 -1.9193
 1872SOL    HW215834   8.644   5.613   5.140  1.4707 -1.1659  0.4491
 1873SOL     OW15835   0.154   2.112   5.650  0.1122  0.5020  0.3136
 1873SOL    HW115836   0.189   2.044   5.587 -2.0846 -0.4888  0.1171
 1873SOL    HW215837   0.124   2.067   5.735  1.7536  1.6438  1.5413
 1874SOL     OW15838   9.737   3.909   0.235  0.2061 -0.4340 -0.3253
 1874SOL    HW115839   9.833   3.895   0.260  0.3230  1.1109  0.1325
 1874SOL    HW215840   9.682   3.924   0.317  0.0275  1.3136 -0.7421
 1875SOL     OW15841   2.195   7.874   5.558  0.0444 -0.1735 -0.0772
 1875SOL    HW115842   2.148   7.795   5.597  0.6420 -0.7059 -0.4221
 1875SOL    HW215843   2.182   7.953   5.617 -1.3296 -0.2922 -0.1990
 1876SOL     OW15844   2.794   9.041   4.334 -0.1712  0.0159  0.5648
 1876SOL    HW115845   2.761   9.067   4.425  0.5992  1.3094  0.4818
 1876SOL    HW215846   2.889   9.012   4.340 -0.4270 -0.8868  0.3284
 1877SOL     OW15847   0.459   2.356   5.783 -0.0074  0.2231 -0.2029
 1877SOL    HW115848   0.517   2.325   5.859 -0.1748  2.7985  1.0418
 1877SOL    HW215849   0.516   2.389   5.709  0.1612  1.6917  0.5612
 1878SOL     OW15850   3.582   0.161   0.568 -0.6413 -0.6175  0.1218
 1878SOL    HW115851   3.611   0.082   0.622 -0.0692  0.4951  1.5014
 1878SOL    HW215852   3.576   0.136   0.472  4.0573 -1.1871 -0.1592
 1879SOL     OW15853   7.063   1.812   3.889  0.3854  0.0128 -0.0399
 1879SOL    HW115854   7.018   1.839   3.974  0.6681 -1.8106  0.7016
 1879SOL    HW215855   7.135   1.746   3.909  2.2775  1.5916 -1.3999
 1881SOL     OW15856   3.125   4.788   3.990  0.5624 -0.4952 -0.0589
 1881SOL    HW115857   3.133   4.865   3.927 -1.1333 -0.1345  0.1382
 1881SOL    HW215858   3.105   4.705   3.938  1.0031 -0.5363 -0.1591
 1882SOL     OW15859   7.795   3.971   2.081 -0.0803 -0.3215  0.2581
 1882SOL    HW115860   7.874   3.998   2.136  1.4321 -2.5271 -0.7608
 1882SOL    HW215861   7.813   3.990   1.985 -1.0757 -0.1848  0.0935
 1883SOL     OW15862   6.548   0.322   2.500  1.0782  0.6573 -0.0041
 1883SOL    HW115863   6.630   0.309   2.556  2.1325  0.6214 -1.5157
 1883SOL    HW215864   6.573   0.319   2.403 -0.9182 -0.8182 -0.5190
 1884SOL     OW15865   8.673   4.222   6.012 -0.4288 -0.8297 -0.1400
 1884SOL    HW115866   8.710   4.131   5.996 -0.6919 -0.8664 -0.5266
 1884SOL    HW215867   8.601   4.218   6.081  0.1174 -0.7939  0.4424
 1885SOL     OW15868   9.003   0.108   6.232 -0.2751  0.4881  0.3656
 1885SOL    HW115869   8.926   0.131   6.173  0.1628  2.1809  0.4277
 1885SOL    HW215870   9.084   0.157   6.201  0.3831 -0.0085  1.2858
 1886SOL     OW15871   1.714   6.871   1.340 -0.0949  0.3293  0.2074
 1886SOL    HW115872   1.663   6.791   1.309  0.8557  0.1669 -0.9985
 1886SOL    HW215873   1.670   6.910   1.421 -0.8739 -1.0798  0.4702
 1887SOL     OW15874   8.932   9.333   0.988  0.3646 -0.5405 -0.0055
 1887SOL    HW115875   8.860   9.400   1.001  0.9321  0.2886 -1.0993
 1887SOL    HW215876   8.893   9.248   0.953 -0.0667 -0.0504 -0.7128
 1889SOL     OW15877   3.383   7.709   2.035  0.3279  0.9847 -0.0574
 1889SOL    HW115878   3.308   7.766   2.067 -0.8279  0.7004 -2.1557
 1889SOL    HW215879   3.431   7.669   2.113 -1.9937  0.8039  1.3250
 1890SOL     OW15880   9.129   9.659   2.628  0.4862 -0.1519 -0.4619
 1890SOL    HW115881   9.130   9.734   2.694  0.7805 -0.7341  0.2053
 1890SOL    HW215882   9.152   9.693   2.537  0.9172  0.5078 -0.1066
 1891SOL     OW15883   0.012   2.551   0.448  0.8678 -0.1095 -0.1141
 1891SOL    HW115884  -0.085   2.563   0.428  1.1932 -0.0041 -1.6664
 1891SOL    HW215885   0.022   2.507   0.537 -0.6600 -2.4346 -1.0457
 1892SOL     OW15886   8.319   5.771   3.231  0.4653  0.3952 -0.3766
 1892SOL    HW115887   8.340   5.868   3.221  0.7607  0.4430  0.6249
 1892SOL    HW215888   8.397   5.725   3.274 -0.0536 -0.1040  0.0340
 1893SOL     OW15889   9.166   1.996   4.276 -0.0517  0.3696 -0.5906
 1893SOL    HW115890   9.261   2.024   4.296  0.2098 -1.5749  1.0326
 1893SOL    HW215891   9.166   1.905   4.236 -1.2438  0.3681 -0.6045
 1894SOL     OW15892   9.419   5.106   3.610 -0.2894 -0.2539 -0.0947
 1894SOL    HW115893   9.355   5.093   3.685 -0.4993 -0.8478 -0.3744
 1894SOL    HW215894   9.375   5.084   3.523 -0.5845  2.1165 -0.5822
 1896SOL     OW15895   9.851   6.193   0.537 -0.0655  0.1380 -0.2276
 1896SOL    HW115896   9.948   6.190   0.562 -0.7147 -0.4506  2.3460
 1896SOL    HW215897   9.813   6.101   0.542 -1.2913  0.6987  1.0966
 1897SOL     OW15898   0.143   1.010   3.586 -0.4181 -0.3012  0.0332
 1897SOL    HW115899   0.117   1.022   3.682 -1.9254 -1.4187 -0.2185
 1897SOL    HW215900   0.242   1.020   3.577 -0.2643 -0.1354  1.7008
 1899SOL     OW15901   3.225   8.405   6.260  0.1963 -0.1876 -0.8974
 1899SOL    HW115902   3.217   8.477   6.330  0.5234 -0.6559 -0.3701
 1899SOL    HW215903   3.181   8.436   6.176 -1.0385  0.0198 -0.1994
 1900SOL     OW15904   5.780   6.392   1.333 -0.3782 -0.2446  0.0563
 1900SOL    HW115905   5.743   6.484   1.346 -0.1239 -0.0797 -0.4124
 1900SOL    HW215906   5.708   6.325   1.354 -0.7572  0.0664 -0.2407
 1902SOL     OW15907   1.700   6.007   1.060 -0.0626 -0.8030  0.1685
 1902SOL    HW115908   1.757   6.088   1.044 -0.0084 -0.9126 -0.1932
 1902SOL    HW215909   1.728   5.933   0.999  1.3032 -1.8152  1.9980
 1903SOL     OW15910   2.257   1.643   3.026 -0.1953 -0.2930  0.6521
 1903SOL    HW115911   2.338   1.638   3.084  0.0751  0.3829  0.3455
 1903SOL    HW215912   2.199   1.563   3.041  1.0884 -1.3397  0.0420
 1904SOL     OW15913   0.574   3.116   3.695  0.3594 -0.0608  0.4031
 1904SOL    HW115914   0.622   3.033   3.724  0.1635 -0.8601 -1.5120
 1904SOL    HW215915   0.640   3.182   3.659  0.4838  0.5250  1.6770
 1905SOL     OW15916   2.824   6.835   1.295 -0.2414 -0.4221  0.0772
 1905SOL    HW115917   2.809   6.823   1.393 -1.1028  1.2750  0.1636
 1905SOL    HW215918   2.841   6.932   1.275  0.5033 -0.8356 -1.3702
 1907SOL     OW15919   8.915   1.550   5.252 -0.4792 -0.1754 -0.0139
 1907SOL    HW115920   8.847   1.511   5.189  1.0859  0.0956 -1.9122
 1907SOL    HW215921   8.971   1.616   5.203  0.5028  0.3641  1.8014
 1908SOL     OW15922   3.888   2.217   0.060  0.2093  0.3606  0.6075
 1908SOL    HW115923   3.832   2.297   0.084 -1.6265 -0.9639  0.8879
 1908SOL    HW215924   3.858   2.138   0.114  1.5147 -0.7025 -0.1813
 1909SOL     OW15925   8.987   4.604   3.984 -0.2069  0.4828 -0.4934
 1909SOL    HW115926   9.024   4.524   3.937 -0.2284  1.5860 -2.4756
 1909SOL    HW215927   8.888   4.607   3.973 -0.3830  0.0042  0.8542
 1910SOL     OW15928   5.851   8.153   3.408 -0.4487  0.4225  0.0937
 1910SOL    HW115929   5.820   8.239   3.449 -0.4522 -0.0696  1.1539
 1910SOL    HW215930   5.793   8.130   3.330  1.0249  2.6029 -1.7362
 1911SOL     OW15931   7.892   2.017   3.522  0.5309 -0.1205  0.5300
 1911SOL    HW115932   7.989   2.033   3.543  0.0972  2.8442  0.4247
 1911SOL    HW215933   7.840   2.013   3.607  0.4652  0.2467  0.5074
 1912SOL     OW15934   1.509   4.480   3.289  0.2566 -0.0365 -0.0600
 1912SOL    HW115935   1.420   4.498   3.331  0.3062  0.1309 -0.0293
 1912SOL    HW215936   1.503   4.495   3.190 -0.0017 -0.9412 -0.1908
 1913SOL     OW15937   8.066   2.188   1.375  0.2804 -0.5962 -0.0917
 1913SOL    HW115938   8.070   2.132   1.292  1.1671 -0.8237  0.0963
 1913SOL    HW215939   8.149   2.243   1.382  0.2431 -0.6287  0.6784
 1914SOL     OW15940   3.393   2.952   0.968 -0.1053 -0.5156  0.3517
 1914SOL    HW115941   3.438   3.028   0.922  0.9726 -1.1390  0.3569
 1914SOL    HW215942   3.356   2.983   1.055  0.7380 -0.0986  0.5680
 1915SOL     OW15943   8.092   0.914   5.236  0.8737 -0.0884  0.2050
 1915SOL    HW115944   8.095   1.012   5.259  2.4717  0.0896 -0.6494
 1915SOL    HW215945   8.184   0.875   5.245  0.0139 -1.8201  1.7469
 1917SOL     OW15946   2.593   3.574   2.168  0.0569 -0.2135  0.1584
 1917SOL    HW115947   2.647   3.576   2.084  0.9982 -0.3796  0.7576
 1917SOL    HW215948   2.568   3.668   2.193 -1.8833 -0.2969 -1.3532
 1918SOL     OW15949   5.695   0.373   2.557 -0.4483  0.2165 -0.0652
 1918SOL    HW115950   5.779   0.424   2.543  0.0003 -0.7116 -0.8021
 1918SOL    HW215951   5.688   0.346   2.653 -0.1461  0.7036  0.0934
 1919SOL     OW15952   8.690   2.429   2.958  0.0408  0.2571  0.3353
 1919SOL    HW115953   8.785   2.459   2.948  0.0707  0.5270  1.3074
 1919SOL    HW215954   8.645   2.485   3.027 -0.8219  0.1135 -0.1107
 1920SOL     OW15955   4.674   8.429   3.469 -0.0710 -0.3665 -0.1814
 1920SOL    HW115956   4.696   8.519   3.504  0.9833 -1.4395  2.0358
 1920SOL    HW215957   4.575   8.417   3.467 -0.1809  0.2713  1.0604
 1921SOL     OW15958   2.666   5.374   4.591 -0.1562  0.4052 -0.9250
 1921SOL    HW115959   2.662   5.325   4.503 -0.3093  1.2424 -1.3886
 1921SOL    HW215960   2.576   5.370   4.635  0.0882 -0.5712 -0.4921
 1922SOL     OW15961   3.724   1.851   1.143  0.2879  0.1052  0.1180
 1922SOL    HW115962   3.752   1.938   1.183 -0.3767  0.2046  0.3808
 1922SOL    HW215963   3.624   1.845   1.143  0.2097  0.7184 -2.8239
 1923SOL     OW15964   8.067   1.393   5.139 -0.3564 -0.0020  0.0495
 1923SOL    HW115965   7.992   1.371   5.076 -0.6384  0.8122  0.0955
 1923SOL    HW215966   8.052   1.483   5.178 -0.2235 -0.5450  1.3602
 1924SOL     OW15967   8.546   7.326   3.993 -0.2572  0.1549 -0.4437
 1924SOL    HW115968   8.641   7.357   3.988 -0.5329  1.0489 -0.2405
 1924SOL    HW215969   8.536   7.240   3.944  0.6984 -0.0345 -0.3134
 1925SOL     OW15970   3.392   1.404   5.556  0.0033 -0.6128  0.4405
 1925SOL    HW115971   3.366   1.382   5.649  0.5307 -0.0040  0.7413
 1925SOL    HW215972   3.475   1.461   5.557 -0.3185 -0.1124 -0.3692
 1926SOL     OW15973   5.233   0.439   5.708 -0.0404 -0.2935  0.4393
 1926SOL    HW115974   5.238   0.418   5.806  0.4489  1.7393  0.8774
 1926SOL    HW215975   5.296   0.513   5.687 -1.0382  0.1130 -1.2093
 1927SOL     OW15976   8.327   1.901   4.350  0.6648  0.2363  0.4171
 1927SOL    HW115977   8.368   1.983   4.311 -0.4045  0.4544 -0.2628
 1927SOL    HW215978   8.275   1.925   4.432  0.0358  0.3006  0.0032
 1929SOL     OW15979   4.777   8.047   4.497 -0.3997  0.4186 -0.5507
 1929SOL    HW115980   4.855   8.033   4.436  0.7648 -0.2417  1.0682
 1929SOL    HW215981   4.710   7.973   4.483  0.2049 -0.1391 -0.5188
 1931SOL     OW15982   6.949   5.708   1.254  0.4140 -0.4525 -0.3267
 1931SOL    HW115983   6.899   5.633   1.298 -0.9839  0.4337 -0.3769
 1931SOL    HW215984   6.924   5.714   1.158 -0.3090  0.7521 -0.0769
 1932SOL     OW15985   8.914   6.202   3.159 -0.7015  0.3223 -0.1226
 1932SOL    HW115986   8.846   6.128   3.153 -1.0380  0.5322  0.9645
 1932SOL    HW215987   8.913   6.241   3.251  2.2127 -0.9065  0.4757
 1933SOL     OW15988   7.806   1.963   1.725  0.0373  0.1146 -0.8686
 1933SOL    HW115989   7.756   1.877   1.713 -1.5081  1.0171 -0.8587
 1933SOL    HW215990   7.853   1.961   1.814 -0.0277 -0.6896 -0.8413
 1934SOL     OW15991   1.160   9.599   5.628  0.7917 -0.2166  0.7759
 1934SOL    HW115992   1.069   9.606   5.669  0.8549 -0.7997  1.0240
 1934SOL    HW215993   1.210   9.523   5.670  1.6548  0.5422  1.1413
 1936SOL     OW15994   7.125   7.881   2.705  0.2498  0.1410  0.0984
 1936SOL    HW115995   7.200   7.946   2.717  2.5774 -2.4128  0.1672
 1936SOL    HW215996   7.053   7.900   2.771  1.8294  1.3690  1.5272
 1938SOL     OW15997   7.310   9.451   6.386  0.2178 -0.2784 -0.1411
 1938SOL    HW115998   7.254   9.395   6.447 -0.5984 -0.3811 -0.9668
 1938SOL    HW215999   7.256   9.475   6.305  0.7399  1.2178 -0.0660
 1940SOL     OW16000   7.250   5.893   1.656 -0.2327 -0.8109 -0.3701
 1940SOL    HW116001   7.208   5.875   1.567 -0.4645  0.6484 -0.5673
 1940SOL    HW216002   7.247   5.991   1.675  0.3444 -1.0458  0.9879
 1942SOL     OW16003   0.580   9.331   2.905 -0.0510  0.4383 -0.3096
 1942SOL    HW116004   0.537   9.290   2.824 -0.6529 -0.9055  0.6742
 1942SOL    HW216005   0.678   9.315   2.903 -0.1406 -0.0810 -0.4929
 1943SOL     OW16006   3.490   9.040   0.222  0.2996  0.5642 -0.2105
 1943SOL    HW116007   3.555   9.062   0.149 -0.8178  0.0689 -1.3678
 1943SOL    HW216008   3.397   9.045   0.186 -0.1325 -3.1539  0.2067
 1944SOL     OW16009   3.517   3.080   5.457 -0.3745  0.0111 -0.8537
 1944SOL    HW116010   3.502   2.984   5.433  0.4231  0.0941 -1.6934
 1944SOL    HW216011   3.592   3.117   5.402 -1.1969  1.3394 -1.0918
 1945SOL     OW16012   3.299   1.360   3.616 -0.1405  0.0516 -0.0629
 1945SOL    HW116013   3.203   1.358   3.644  0.3810 -0.9869  1.7330
 1945SOL    HW216014   3.336   1.267   3.619  1.0782  0.5291 -0.2143
 1946SOL     OW16015   0.946   4.699   5.143  0.3748 -0.0500  0.4190
 1946SOL    HW116016   0.947   4.645   5.059 -2.4444  0.0036  0.2989
 1946SOL    HW216017   0.998   4.652   5.214 -1.4677 -2.6038  0.1176
 1947SOL     OW16018   1.377   9.420   1.913  0.5495 -0.1515  0.5398
 1947SOL    HW116019   1.421   9.375   1.991  1.4979 -0.1000  0.0374
 1947SOL    HW216020   1.368   9.517   1.931  1.5123 -0.0057  0.2530
 1948SOL     OW16021   4.034   1.327   1.939  0.3286  0.3446 -0.2064
 1948SOL    HW116022   4.013   1.268   2.017  0.5877 -0.5814 -0.8157
 1948SOL    HW216023   3.992   1.288   1.857 -0.8434  1.8719 -0.3634
 1950SOL     OW16024   5.942   1.511   0.278  0.1801 -0.0902  1.2070
 1950SOL    HW116025   6.005   1.499   0.355  2.4079  0.7030 -0.4382
 1950SOL    HW216026   5.994   1.535   0.196 -2.1783 -0.6465 -0.4947
 1952SOL     OW16027   9.414   9.616   3.085  0.6450 -0.2294 -0.0010
 1952SOL    HW116028   9.478   9.540   3.096  1.9854  0.6560 -1.5368
 1952SOL    HW216029   9.457   9.688   3.032 -1.6132  0.4281 -0.9848
 1954SOL     OW16030   8.552   3.634   5.869  0.1993 -0.0450  0.4633
 1954SOL    HW116031   8.603   3.597   5.791 -0.8893  0.1253 -0.3442
 1954SOL    HW216032   8.483   3.568   5.898 -0.2869  0.4456  0.4248
 1955SOL     OW16033   1.015   1.219   2.879 -0.1984  0.3369 -0.3301
 1955SOL    HW116034   1.002   1.273   2.962  0.0680  0.7972 -0.5818
 1955SOL    HW216035   1.019   1.122   2.902  4.3373  0.6800  0.7683
 1956SOL     OW16036   7.731   0.126   1.926 -0.0789  0.0669  0.3424
 1956SOL    HW116037   7.737   0.117   2.025 -1.1943  1.1779  0.5329
 1956SOL    HW216038   7.818   0.101   1.884  0.2758 -0.7741  1.5724
 1957SOL     OW16039   1.183   5.755   0.799  0.1525  0.0162  0.0973
 1957SOL    HW116040   1.168   5.824   0.870 -1.5978 -0.6934  0.4459
 1957SOL    HW216041   1.153   5.790   0.711  0.9715  0.3647 -0.0457
 1958SOL     OW16042   4.356   1.930   0.991  0.0858 -0.0254  0.2520
 1958SOL    HW116043   4.360   1.947   0.892  1.2229  0.6772  0.4155
 1958SOL    HW216044   4.289   1.858   1.009 -2.5566  2.0541 -0.7623
 1959SOL     OW16045   1.561   5.880   0.696 -0.2162  0.4639  0.0585
 1959SOL    HW116046   1.589   5.840   0.783 -0.1690 -0.1919 -0.2504
 1959SOL    HW216047   1.576   5.813   0.622 -0.3357  0.9785 -0.4384
 1960SOL     OW16048   1.420   8.661   3.303  0.0182 -0.0720  0.1546
 1960SOL    HW116049   1.432   8.602   3.223 -0.8357  0.4687 -0.3773
 1960SOL    HW216050   1.456   8.614   3.384  0.1793 -0.9472 -0.4112
 1961SOL     OW16051   9.169   6.252   0.039  0.2146  0.5652 -0.5252
 1961SOL    HW116052   9.075   6.256   0.074 -0.8894  1.1375 -3.4679
 1961SOL    HW216053   9.203   6.345   0.026  0.7861  0.3491 -0.5777
 1962SOL     OW16054   9.843   3.457   4.774  0.3875 -0.2221  0.1596
 1962SOL    HW116055   9.847   3.366   4.731 -0.2036 -0.1382 -0.0748
 1962SOL    HW216056   9.837   3.446   4.873 -0.7571 -0.4603  0.0690
 1963SOL     OW16057   4.976   9.384   2.406 -0.7398  0.1491  0.0718
 1963SOL    HW116058   4.955   9.454   2.338 -0.4453 -0.5082 -0.7089
 1963SOL    HW216059   4.999   9.427   2.493  0.2184  1.0573 -0.6192
 1964SOL     OW16060   0.948   7.283   4.584  0.3635  0.0361 -0.4364
 1964SOL    HW116061   0.884   7.326   4.521  0.6919  1.3093  0.0683
 1964SOL    HW216062   0.967   7.346   4.660  1.5090 -0.6752 -0.1148
 1965SOL     OW16063   0.089   7.670   5.814  0.0453  0.3832 -0.7417
 1965SOL    HW116064   0.140   7.593   5.776 -0.6849 -0.5490  0.1397
 1965SOL    HW216065   0.059   7.731   5.740 -2.6308 -2.1760 -1.8418
 1967SOL     OW16066   8.901   6.053   4.218  0.4604 -0.1260 -0.0829
 1967SOL    HW116067   8.963   5.988   4.175  1.6805  0.8745  0.1506
 1967SOL    HW216068   8.817   6.006   4.245  1.5182 -1.7222  0.4984
 1968SOL     OW16069   9.172   3.978   6.387 -0.1635  0.4837 -0.0896
 1968SOL    HW116070   9.108   3.995   6.312 -1.4287 -0.3008  0.8016
 1968SOL    HW216071   9.264   3.963   6.349 -0.2008  3.0482 -1.2780
 1970SOL     OW16072   8.369   3.215   5.596 -0.6110  0.0324  0.2346
 1970SOL    HW116073   8.397   3.222   5.500 -1.1179 -0.3788  0.0583
 1970SOL    HW216074   8.451   3.216   5.654 -0.2118 -1.2489 -0.2891
 1971SOL     OW16075   7.550   7.365   1.960  0.2044 -0.3052 -0.1138
 1971SOL    HW116076   7.514   7.454   1.988  1.2797  0.2699 -0.5303
 1971SOL    HW216077   7.550   7.358   1.860  0.5013 -0.6140 -0.0949
 1972SOL     OW16078   3.445   4.524   3.008 -0.1084  0.2295  0.0732
 1972SOL    HW116079   3.358   4.513   3.055 -0.7174  1.5733 -0.7199
 1972SOL    HW216080   3.430   4.566   2.918  0.8734 -3.4994 -1.9417
 1973SOL     OW16081   0.855   0.286   5.937 -0.1626 -0.0203  0.5766
 1973SOL    HW116082   0.874   0.384   5.927 -1.4945  0.2343  0.4450
 1973SOL    HW216083   0.864   0.261   6.034  1.1720  0.0077  0.4686
 1974SOL     OW16084   6.756   1.842   4.745  0.0580 -0.0899  0.6008
 1974SOL    HW116085   6.692   1.770   4.719 -1.0103  1.2574 -0.5607
 1974SOL    HW216086   6.848   1.804   4.751 -0.5158 -1.5859  0.1676
 1976SOL     OW16087   2.070   5.554   1.453 -0.1206  0.3272  0.3457
 1976SOL    HW116088   2.039   5.528   1.362 -2.6149 -0.7197  1.4678
 1976SOL    HW216089   2.033   5.644   1.477 -1.2552 -0.3432  1.1640
 1977SOL     OW16090   9.259   8.113   4.136 -0.7857  0.4419 -0.0562
 1977SOL    HW116091   9.268   8.061   4.221  2.5336  0.2677 -0.4497
 1977SOL    HW216092   9.245   8.210   4.157  1.4700  0.6193  0.7176
 1978SOL     OW16093   2.697   6.746   4.837 -0.2495  0.3006  0.0938
 1978SOL    HW116094   2.723   6.650   4.837 -1.7893 -0.1321 -1.4249
 1978SOL    HW216095   2.644   6.767   4.755  1.1950  2.7610 -0.2749
 1980SOL     OW16096   2.031   7.847   5.801  0.1448 -0.1648 -0.1752
 1980SOL    HW116097   1.967   7.900   5.857  0.1322 -0.6314  0.2629
 1980SOL    HW216098   2.125   7.868   5.829  0.1311 -0.5630  0.1740
 1981SOL     OW16099   2.193   1.075   0.359 -0.4133  0.2614  0.3952
 1981SOL    HW116100   2.212   0.980   0.333 -1.0292  0.4353 -0.7167
 1981SOL    HW216101   2.094   1.089   0.363 -0.3304  0.5177  1.8590
 1982SOL     OW16102   5.201   2.794   0.630 -0.2815 -0.5495 -0.1543
 1982SOL    HW116103   5.116   2.788   0.577 -0.6907  0.5472  0.3715
 1982SOL    HW216104   5.187   2.854   0.708  0.7384 -1.0511  0.4152
 1984SOL     OW16105   5.746   0.339   3.496  0.3549 -0.0198  0.1223
 1984SOL    HW116106   5.730   0.246   3.461 -0.5992  0.6304 -1.1927
 1984SOL    HW216107   5.779   0.333   3.590  0.4962 -1.7058 -0.0068
 1986SOL     OW16108   3.405   5.309   0.430 -0.4944  0.2769  0.1024
 1986SOL    HW116109   3.386   5.384   0.493 -0.0585  0.6857 -0.2588
 1986SOL    HW216110   3.500   5.313   0.400  0.3988 -2.1576  2.4070
 1987SOL     OW16111   4.182   8.547   5.630  0.1588 -0.0354  0.3027
 1987SOL    HW116112   4.202   8.603   5.710 -1.7505  1.9910 -0.5848
 1987SOL    HW216113   4.268   8.513   5.591  1.3349  2.0142  1.0369
 1988SOL     OW16114   7.818   7.564   1.642 -0.2023 -0.0195  0.9033
 1988SOL    HW116115   7.910   7.602   1.630  1.1659 -3.0240  1.2749
 1988SOL    HW216116   7.785   7.583   1.734  0.4160  0.3365  1.0547
 1989SOL     OW16117   9.007   5.529   3.778 -0.3686  0.8659  0.1692
 1989SOL    HW116118   9.049   5.453   3.728 -0.9842 -1.0266  2.4466
 1989SOL    HW216119   9.079   5.590   3.812  0.2034  0.6230 -0.5811
 1990SOL     OW16120   1.272   1.970   6.014 -0.5247 -0.3329  0.7103
 1990SOL    HW116121   1.235   2.056   5.981  0.4921 -0.7225 -1.5787
 1990SOL    HW216122   1.198   1.906   6.032 -1.1322 -0.0306 -0.6815
 1991SOL     OW16123   7.015   3.153   0.434 -0.3699 -1.1982 -0.2909
 1991SOL    HW116124   7.002   3.131   0.530 -2.8989 -1.4289 -0.6548
 1991SOL    HW216125   6.968   3.238   0.412  0.1901 -1.1421 -1.3200
 1993SOL     OW16126   8.000   3.797   2.680 -0.1695 -0.0457  0.2163
 1993SOL    HW116127   8.047   3.875   2.721 -0.3596  0.0572  0.2388
 1993SOL    HW216128   8.002   3.720   2.744 -0.1511  0.0019  0.2734
 1994SOL     OW16129   8.251   4.147   4.360 -0.3339 -0.2114  0.5198
 1994SOL    HW116130   8.168   4.124   4.309 -0.4513  1.2826  0.0145
 1994SOL    HW216131   8.312   4.068   4.362 -0.2379 -0.2333 -2.1309
 1995SOL     OW16132   9.287   6.983   2.039  0.5837  0.5505  0.8835
 1995SOL    HW116133   9.217   7.042   2.079  0.6685  0.2772  1.4505
 1995SOL    HW216134   9.345   7.037   1.978 -1.8637  0.1610 -1.8382
 1996SOL     OW16135   5.761   5.267   0.407  0.1071 -0.6859  0.1057
 1996SOL    HW116136   5.663   5.265   0.429  0.4070  1.5670  1.8865
 1996SOL    HW216137   5.809   5.204   0.469  0.0177 -0.3037  0.5655
 1997SOL     OW16138   6.696   2.027   5.727  0.4809 -0.2606  0.1954
 1997SOL    HW116139   6.639   2.031   5.810  0.6060 -1.5554  0.3609
 1997SOL    HW216140   6.770   1.960   5.741  1.2354  0.4152 -0.5169
 1998SOL     OW16141   7.823   1.294   5.010 -0.6312  0.6219  0.2999
 1998SOL    HW116142   7.779   1.226   4.953  0.3328  1.2032 -1.1758
 1998SOL    HW216143   7.805   1.275   5.107 -0.4115 -1.6730 -0.1010
 1999SOL     OW16144   9.386   2.148   5.588  0.4827 -0.0657 -0.0907
 1999SOL    HW116145   9.429   2.192   5.509 -1.0829 -0.0294 -0.9337
 1999SOL    HW216146   9.369   2.052   5.566  0.3895 -0.1487  0.3536
 2000SOL     OW16147   3.911   4.253   3.556 -0.7830 -0.4655  0.4694
 2000SOL    HW116148   3.980   4.272   3.625 -0.9354  0.2052  0.4408
 2000SOL    HW216149   3.822   4.285   3.589 -0.5761  1.4441 -0.7484
 2001SOL     OW16150   2.145   3.620   1.774 -0.0483 -0.0569  0.7636
 2001SOL    HW116151   2.050   3.604   1.747  0.1678 -1.5407  0.8507
 2001SOL    HW216152   2.200   3.638   1.692 -0.3489  0.5178  0.6868
 2003SOL     OW16153   9.509   9.666   2.717  0.2460  0.2715 -0.1083
 2003SOL    HW116154   9.455   9.583   2.703  0.5438  0.3712 -2.0636
 2003SOL    HW216155   9.587   9.666   2.654  2.2154  0.4228  2.2409
 2004SOL     OW16156   9.703   3.650   0.062  0.1181 -0.2437  0.2427
 2004SOL    HW116157   9.739   3.720   0.123  1.1931  0.3672 -1.0624
 2004SOL    HW216158   9.642   3.590   0.113 -1.8283  2.3746  1.0893
 2005SOL     OW16159   0.910   1.681   3.132 -0.0177 -0.0957  0.3865
 2005SOL    HW116160   0.832   1.618   3.132  0.7625 -1.1289 -2.0369
 2005SOL    HW216161   0.900   1.747   3.057  0.9599  0.3682  0.6527
 2006SOL     OW16162   1.964   3.267   4.303 -0.3818 -0.1252 -0.3587
 2006SOL    HW116163   1.977   3.227   4.393 -0.5241 -1.7817 -1.0485
 2006SOL    HW216164   1.866   3.278   4.285 -0.3926 -0.6770 -0.6672
 2007SOL     OW16165   7.344   5.497   1.693  0.5550 -0.3890 -0.0374
 2007SOL    HW116166   7.412   5.569   1.680 -0.5523  0.4598 -1.1888
 2007SOL    HW216167   7.304   5.471   1.605 -0.2476 -1.2313  0.5576
 2008SOL     OW16168   1.850   6.475   1.413 -0.4444  1.0699  0.3543
 2008SOL    HW116169   1.789   6.420   1.470  0.2022 -0.2905 -0.2590
 2008SOL    HW216170   1.798   6.514   1.337 -0.2592 -1.3939 -1.0836
 2009SOL     OW16171   0.088   4.098   4.606 -0.3749  0.0611 -0.1776
 2009SOL    HW116172   0.066   4.172   4.543 -0.8452 -0.9357 -1.2124
 2009SOL    HW216173   0.156   4.038   4.563 -1.3443 -1.1031 -0.1024
 2010SOL     OW16174   9.761   6.128   4.406 -0.0017 -0.3991 -0.1910
 2010SOL    HW116175   9.831   6.113   4.476  0.8475 -0.3223 -1.0323
 2010SOL    HW216176   9.703   6.205   4.434  0.9664  0.2921 -0.0589
 2012SOL     OW16177   1.906   1.992   0.729  0.1542  0.2863 -0.0332
 2012SOL    HW116178   2.002   1.981   0.752  0.5207  0.5486 -1.4088
 2012SOL    HW216179   1.896   1.999   0.630 -1.3690 -0.6806  0.0323
 2014SOL     OW16180   6.926   2.264   0.793  0.0670  0.0451 -0.4435
 2014SOL    HW116181   6.903   2.353   0.755 -1.3127 -0.5351 -0.9925
 2014SOL    HW216182   7.012   2.270   0.844  1.1630  1.1750 -2.3943
 2015SOL     OW16183   2.748   4.344   0.119  0.3345  0.1459 -0.3710
 2015SOL    HW116184   2.821   4.292   0.075  0.4492  1.9809 -2.4460
 2015SOL    HW216185   2.659   4.307   0.092  0.4476 -0.7973  0.5191
 2017SOL     OW16186   0.526   3.674   3.835  0.3757  0.3081 -0.3619
 2017SOL    HW116187   0.459   3.621   3.782 -0.7946  0.8776  0.5160
 2017SOL    HW216188   0.480   3.718   3.911  1.5661  1.6375 -0.3929
 2018SOL     OW16189   5.382   9.654   4.148  0.0465  0.8966 -0.2609
 2018SOL    HW116190   5.435   9.639   4.065 -2.6520  0.3726 -1.9497
 2018SOL    HW216191   5.400   9.580   4.213 -0.1582 -0.3943 -1.6454
 2019SOL     OW16192   0.624   6.819   2.011 -0.6271 -0.3655 -0.1514
 2019SOL    HW116193   0.627   6.895   1.946 -2.3276  1.0753  1.3932
 2019SOL    HW216194   0.598   6.854   2.101 -1.1439 -2.7430  0.6426
 2020SOL     OW16195   3.995   6.766   2.812 -0.0023 -0.1021  0.2321
 2020SOL    HW116196   4.037   6.846   2.855  0.1812  0.1939 -0.5048
 2020SOL    HW216197   3.987   6.780   2.714 -2.5376  0.1452  0.4583
 2022SOL     OW16198   7.085   5.626   0.294 -0.0283 -0.4266 -0.2330
 2022SOL    HW116199   7.125   5.655   0.207  0.1320 -0.3351 -0.1293
 2022SOL    HW216200   7.001   5.575   0.277 -0.3226  0.1162 -0.4146
 2023SOL     OW16201   9.370   8.173   2.701  0.3587  0.6436  0.1697
 2023SOL    HW116202   9.310   8.093   2.692  1.9747 -0.5894  0.0114
 2023SOL    HW216203   9.320   8.248   2.744 -0.6532 -1.1048  2.1206
 2024SOL     OW16204   0.934   7.344   2.842 -0.0677 -0.5883  0.1704
 2024SOL    HW116205   1.013   7.404   2.853 -0.3417 -0.6334  2.6182
 2024SOL    HW216206   0.862   7.392   2.792 -0.0226  0.8896  1.5033
 2026SOL     OW16207   3.337   1.292   2.492 -0.2603  0.0106 -0.1971
 2026SOL    HW116208   3.298   1.334   2.410  0.3502  0.3196 -0.3338
 2026SOL    HW216209   3.370   1.364   2.553 -2.4804 -0.1358  1.2234
 2027SOL     OW16210   8.891   7.637   1.905 -0.0757 -0.6389  0.0515
 2027SOL    HW116211   8.833   7.599   1.834 -0.2292 -1.7288  0.7544
 2027SOL    HW216212   8.854   7.726   1.934 -0.0086 -0.1876 -1.2068
 2029SOL     OW16213   5.553   5.244   2.314 -0.1741 -0.3732 -0.2734
 2029SOL    HW116214   5.597   5.184   2.247 -0.9726 -1.7116  0.3902
 2029SOL    HW216215   5.455   5.226   2.316 -0.0447 -0.9869  1.8861
 2030SOL     OW16216   3.024   5.873   2.822  0.1516 -0.4226 -0.2348
 2030SOL    HW116217   2.999   5.832   2.734 -0.5522 -0.8089  0.1412
 2030SOL    HW216218   3.114   5.841   2.850  0.2046 -0.6106 -0.6232
 2032SOL     OW16219   8.541   2.049   3.357 -0.1084  0.6863 -0.3403
 2032SOL    HW116220   8.568   2.086   3.268  0.5216 -0.5904 -0.6897
 2032SOL    HW216221   8.619   2.047   3.418 -0.4439  1.1637  0.1056
 2033SOL     OW16222   8.813   3.911   4.920  0.3172  0.5752  0.2040
 2033SOL    HW116223   8.906   3.876   4.923  0.4902  0.8431 -1.4554
 2033SOL    HW216224   8.758   3.867   4.991  0.6077 -2.8954 -1.5848
 2034SOL     OW16225   2.457   5.391   4.014  0.0538 -0.0974 -0.4252
 2034SOL    HW116226   2.408   5.475   4.038  0.5859  0.4283 -1.1494
 2034SOL    HW216227   2.458   5.380   3.915  2.5130  0.6183 -0.5227
 2035SOL     OW16228   2.300   3.061   1.696  0.1037  0.3433 -0.2277
 2035SOL    HW116229   2.241   3.042   1.618 -0.7153 -1.1602  0.7391
 2035SOL    HW216230   2.252   3.121   1.761  0.3043  0.5379 -0.2564
 2036SOL     OW16231   7.837   3.294   0.570 -0.2171 -0.4149 -0.3597
 2036SOL    HW116232   7.936   3.295   0.580 -0.1668 -0.7727 -0.8123
 2036SOL    HW216233   7.805   3.200   0.557 -0.7915 -0.4869  1.4236
 2037SOL     OW16234   4.270   6.519   1.169  0.2039 -0.3912 -0.1893
 2037SOL    HW116235   4.217   6.470   1.238  1.6577  0.4066  1.5228
 2037SOL    HW216236   4.329   6.455   1.120  0.7166 -0.6474  0.7582
 2038SOL     OW16237   6.998   1.832   3.514  0.8917  0.3804 -0.0150
 2038SOL    HW116238   7.000   1.889   3.432 -0.4759 -0.4640 -0.6493
 2038SOL    HW216239   7.091   1.822   3.549  1.6260  0.0135 -1.9835
 2039SOL     OW16240   6.648   1.494   4.925 -0.2091 -0.0953 -0.6390
 2039SOL    HW116241   6.628   1.547   4.842 -0.1678 -0.4091 -0.8487
 2039SOL    HW216242   6.747   1.485   4.936 -0.1603  1.4065  0.3679
 2040SOL     OW16243   5.932   9.970   5.631  0.3283 -0.6030 -0.4739
 2040SOL    HW116244   5.891  10.017   5.709  1.3175 -1.3842  0.5178
 2040SOL    HW216245   6.011  10.021   5.598  1.2528 -1.4279  0.4458
 2043SOL     OW16246   1.745   8.726   1.820 -0.1141 -0.0372  0.1793
 2043SOL    HW116247   1.804   8.751   1.897  0.9412  0.7391 -0.8649
 2043SOL    HW216248   1.677   8.660   1.850 -0.7037  1.4281  2.1581
 2044SOL     OW16249   3.741   0.193   5.929  0.0999 -0.0439  0.4543
 2044SOL    HW116250   3.647   0.170   5.953  0.6752 -1.6632  1.2036
 2044SOL    HW216251   3.793   0.212   6.012  0.4844  0.6888  0.0550
 2045SOL     OW16252   8.931   2.598   5.727 -0.2795  0.4696  0.2927
 2045SOL    HW116253   8.865   2.585   5.652 -0.0051  0.0546  0.1269
 2045SOL    HW216254   8.881   2.604   5.814 -0.6956  2.1074 -0.0413
 2046SOL     OW16255   4.362   5.011   1.519  0.0220 -0.0645 -0.7142
 2046SOL    HW116256   4.393   5.062   1.600 -1.4575 -0.9674  0.4712
 2046SOL    HW216257   4.288   5.062   1.475 -1.1717 -0.9331  0.2295
 2047SOL     OW16258   6.492   2.496   4.677  0.1228 -0.2067 -0.2781
 2047SOL    HW116259   6.432   2.457   4.607 -0.0259  0.0992 -0.3225
 2047SOL    HW216260   6.585   2.503   4.641  0.2242 -0.8481 -0.1466
 2049SOL     OW16261   3.123   7.413   1.610  0.6721 -0.0329 -0.1276
 2049SOL    HW116262   3.128   7.468   1.527 -0.4848 -0.1870 -0.3020
 2049SOL    HW216263   3.143   7.317   1.587 -0.2525 -0.1770 -0.3332
 2050SOL     OW16264   0.791   2.830   1.756  0.4890  0.9034  0.2682
 2050SOL    HW116265   0.821   2.917   1.794  1.3122  1.2767 -1.2244
 2050SOL    HW216266   0.796   2.832   1.656  0.0395 -0.6720  0.1880
 2051SOL     OW16267   4.435   1.894   6.305 -0.1696  0.2483  0.1644
 2051SOL    HW116268   4.396   1.978   6.266  0.2404  0.3916  0.0628
 2051SOL    HW216269   4.475   1.839   6.231  1.2302  0.8450  0.4516
 2052SOL     OW16270   1.001   5.688   5.223 -0.0052  0.0404 -0.4345
 2052SOL    HW116271   0.939   5.612   5.208 -0.6513  0.6196 -0.7547
 2052SOL    HW216272   0.983   5.760   5.156  1.0898  0.1725 -0.6035
 2053SOL     OW16273   4.076   3.070   5.044  1.0010 -0.1577 -0.2186
 2053SOL    HW116274   4.064   3.068   5.143  0.6075  0.8116 -0.2417
 2053SOL    HW216275   4.006   3.128   5.003 -0.8541 -3.0971 -1.3800
 2054SOL     OW16276   1.163   8.471   4.668  0.2734  0.1652  0.1491
 2054SOL    HW116277   1.166   8.539   4.742  1.6254 -1.1134  1.3113
 2054SOL    HW216278   1.121   8.511   4.587 -1.9453  1.3662  1.8566
 2055SOL     OW16279   0.075   8.227   0.122 -0.3227  0.4800  0.3245
 2055SOL    HW116280   0.019   8.182   0.192 -0.6461 -0.0474 -0.2715
 2055SOL    HW216281   0.022   8.237   0.038  0.0304  1.2095  0.1812
 2056SOL     OW16282   2.672   3.976   2.697 -0.3277 -0.2233 -0.0934
 2056SOL    HW116283   2.698   3.952   2.790 -1.6778 -1.0777  0.0798
 2056SOL    HW216284   2.605   3.910   2.663 -0.5943  0.6510 -1.3171
 2057SOL     OW16285   5.382   9.069   3.784  0.0580  0.2945  0.7378
 2057SOL    HW116286   5.314   8.997   3.768  0.0999  0.3247  0.4085
 2057SOL    HW216287   5.362   9.115   3.870 -0.5509  0.5422  0.4642
 2058SOL     OW16288   0.062   9.029   0.017  0.5920  0.4635 -0.2107
 2058SOL    HW116289   0.012   8.942   0.023  1.7424 -0.1412  0.8391
 2058SOL    HW216290   0.032   9.079  -0.064 -0.3859 -0.7217 -0.6005
 2059SOL     OW16291   2.160   5.791   3.359 -0.1075 -0.4096 -0.3558
 2059SOL    HW116292   2.086   5.744   3.311 -0.0099  0.0926 -1.0115
 2059SOL    HW216293   2.126   5.878   3.395  0.8519  1.1111 -3.0403
 2060SOL     OW16294   0.907   0.033   4.981 -0.1671  0.1669 -0.5750
 2060SOL    HW116295   0.851   0.034   5.063 -1.3881  1.7627 -1.4088
 2060SOL    HW216296   0.857  -0.011   4.907  0.3166  0.1534 -0.9005
 2061SOL     OW16297   2.753   5.635   4.747  0.3417 -0.3349  0.2806
 2061SOL    HW116298   2.727   5.562   4.683  2.1422 -0.4036 -0.3980
 2061SOL    HW216299   2.725   5.723   4.711 -0.4217 -0.5465  0.3470
 2062SOL     OW16300   1.509   0.017   5.990 -0.3045 -0.0788  0.8246
 2062SOL    HW116301   1.503   0.108   5.950  1.3065  0.0560  0.8723
 2062SOL    HW216302   1.477   0.020   6.085  0.5631  0.6191  1.0988
 2064SOL     OW16303   2.033   0.354   2.085  0.1775 -0.4842 -0.3205
 2064SOL    HW116304   1.955   0.399   2.042  0.3570  0.5012  0.3611
 2064SOL    HW216305   2.002   0.275   2.137 -0.4466  0.3074  0.5083
 2065SOL     OW16306   7.155   3.682   0.533  0.2653 -0.8134 -0.2262
 2065SOL    HW116307   7.203   3.622   0.597 -1.1642 -1.2496  0.4526
 2065SOL    HW216308   7.159   3.642   0.441  1.7685 -0.5072 -0.3040
 2067SOL     OW16309   3.688   8.932   1.543  0.1432  0.1222  0.0988
 2067SOL    HW116310   3.775   8.931   1.592  0.5421  1.7576 -0.5334
 2067SOL    HW216311   3.614   8.909   1.606  0.8854  0.1360  0.9858
 2069SOL     OW16312   7.666   1.257   5.904  0.5484 -0.2257 -0.0864
 2069SOL    HW116313   7.603   1.255   5.982  0.0964  0.3467 -0.4350
 2069SOL    HW216314   7.705   1.166   5.891 -1.4715 -1.0125 -0.8911
 2070SOL     OW16315   9.923   3.384   4.418  0.3005 -0.2030  0.1088
 2070SOL    HW116316   9.914   3.480   4.445  0.0899  0.0667 -0.9001
 2070SOL    HW216317  10.016   3.368   4.384 -0.2411  0.1104 -1.5297
 2071SOL     OW16318   2.369   8.358   0.439  0.4389  0.0796 -0.0999
 2071SOL    HW116319   2.381   8.259   0.436  1.2364  0.1904 -0.9362
 2071SOL    HW216320   2.443   8.402   0.389 -0.4809  1.0580 -0.6308
 2073SOL     OW16321   0.204   2.179   4.275  0.2915  0.0066  0.1502
 2073SOL    HW116322   0.273   2.107   4.277  0.6836  0.3760  0.1370
 2073SOL    HW216323   0.224   2.245   4.348  0.9121  0.9898 -0.8986
 2074SOL     OW16324   2.441   5.341   1.910 -0.2130  0.2591  0.5790
 2074SOL    HW116325   2.534   5.352   1.944  0.9977 -3.3261 -1.2533
 2074SOL    HW216326   2.395   5.268   1.961 -1.1531  0.3635 -0.1056
 2075SOL     OW16327   4.425   1.528   1.197  0.2811  0.6078  0.0364
 2075SOL    HW116328   4.344   1.587   1.193 -0.7089 -0.7285  0.0206
 2075SOL    HW216329   4.458   1.511   1.104 -1.9672 -2.2534 -0.3059
 2078SOL     OW16330   3.817   4.236   2.486  0.4205 -0.4398 -0.5953
 2078SOL    HW116331   3.867   4.258   2.570 -0.6364  0.1670 -0.1114
 2078SOL    HW216332   3.859   4.283   2.408  0.1505  0.6765 -0.0706
 2079SOL     OW16333   8.416   5.890   2.144 -0.0719  0.1335  0.4098
 2079SOL    HW116334   8.475   5.890   2.224  1.8269  0.7396 -0.9481
 2079SOL    HW216335   8.442   5.815   2.083 -1.8954 -0.6959  0.6271
 2081SOL     OW16336   6.955   7.085   5.752  0.0394 -0.0930  0.7306
 2081SOL    HW116337   7.000   7.171   5.731 -2.5060  1.2827  0.7761
 2081SOL    HW216338   6.910   7.091   5.841 -0.6846 -1.2586  0.4552
 2083SOL     OW16339   9.005   7.889   2.945  0.5476  0.1731 -0.2139
 2083SOL    HW116340   9.020   7.959   2.876 -1.9579  1.9053  0.9513
 2083SOL    HW216341   9.022   7.927   3.036 -1.0328 -0.6408  0.4499
 2084SOL     OW16342   1.750   0.068   2.949  0.2143 -0.1893 -0.3257
 2084SOL    HW116343   1.769   0.084   2.852  0.5328 -1.1500 -0.4175
 2084SOL    HW216344   1.691  -0.012   2.959 -1.5375  1.1133  0.1424
 2085SOL     OW16345   8.857   9.027   1.644  0.4791  0.4402 -0.6480
 2085SOL    HW116346   8.910   8.974   1.712  1.8699  0.1707 -1.9129
 2085SOL    HW216347   8.776   9.065   1.688  1.6035  0.6803  1.3096
 2087SOL     OW16348   6.586   9.322   6.031  0.1550 -0.3249 -0.3189
 2087SOL    HW116349   6.576   9.256   5.957 -1.9399  0.9278 -1.1792
 2087SOL    HW216350   6.585   9.274   6.119 -0.2418 -1.5227 -0.9751
 2088SOL     OW16351   9.834   6.733   4.967 -0.0989  0.7335  0.4681
 2088SOL    HW116352   9.886   6.660   5.012 -1.3692 -0.2297  0.3939
 2088SOL    HW216353   9.867   6.744   4.874  0.8690  1.0467  0.8361
 2089SOL     OW16354   6.310   1.085   6.337 -0.1146  0.6216 -0.3740
 2089SOL    HW116355   6.288   1.102   6.433  1.6846 -1.1382  0.3731
 2089SOL    HW216356   6.247   1.016   6.301  0.1873  0.1656 -0.0299
 2090SOL     OW16357   0.889   9.906   3.759 -0.2927  0.6584  0.2355
 2090SOL    HW116358   0.821   9.867   3.698 -1.5181  1.8030  0.8454
 2090SOL    HW216359   0.905  10.002   3.735 -1.8119  1.5413  2.5270
 2091SOL     OW16360   1.545   2.391   5.768  0.2476  0.9823 -0.6276
 2091SOL    HW116361   1.451   2.397   5.732 -1.0693 -0.2482  2.4435
 2091SOL    HW216362   1.592   2.315   5.724 -0.9896  0.1409 -0.5422
 2092SOL     OW16363   6.697   9.842   4.381  0.0603 -0.4040  0.3461
 2092SOL    HW116364   6.668   9.934   4.405  1.7110  0.3282 -0.4335
 2092SOL    HW216365   6.696   9.785   4.463  0.8534  0.7966  1.2039
 2093SOL     OW16366   2.916   8.332   2.814 -0.3326 -0.7301  0.4138
 2093SOL    HW116367   3.011   8.307   2.792 -0.0267  0.0793  0.7730
 2093SOL    HW216368   2.854   8.278   2.758  0.2537 -2.9849  1.8410
 2094SOL     OW16369   5.867   5.129   1.217 -0.5046  0.0509 -0.1058
 2094SOL    HW116370   5.850   5.047   1.272 -1.0006 -0.1941 -0.6158
 2094SOL    HW216371   5.785   5.151   1.164 -0.4147  0.9552  0.1267
 2095SOL     OW16372   4.415   0.905   0.719  0.3106 -0.8228  0.2085
 2095SOL    HW116373   4.474   0.841   0.769  0.1212 -1.9868 -1.0267
 2095SOL    HW216374   4.450   0.998   0.730  0.8787 -1.1798  1.6176
 2096SOL     OW16375   2.198   2.808   5.911  0.0565  0.5126 -0.1021
 2096SOL    HW116376   2.211   2.781   6.006 -1.6516 -0.6986 -0.1833
 2096SOL    HW216377   2.282   2.847   5.875  1.4487 -1.2043  1.1989
 2097SOL     OW16378   9.530   2.930   2.438  0.3097  0.0809  0.0844
 2097SOL    HW116379   9.537   2.993   2.516 -1.6527  0.2614  0.1206
 2097SOL    HW216380   9.596   2.958   2.368  0.9676  0.8756  0.9962
 2098SOL     OW16381   3.565   7.943   1.162  0.1091 -0.3304  0.6918
 2098SOL    HW116382   3.603   7.851   1.175  0.1521 -0.4788 -0.4509
 2098SOL    HW216383   3.487   7.955   1.223  0.6997 -0.7766  1.5498
 2099SOL     OW16384   9.862   4.845   2.264  0.3233  0.0719 -0.3260
 2099SOL    HW116385   9.835   4.879   2.174 -0.3296 -0.7561 -0.4498
 2099SOL    HW216386   9.921   4.765   2.254 -0.7295 -0.7704 -0.0306
 2102SOL     OW16387   9.410   8.746   0.063 -0.1299 -0.2653  0.0215
 2102SOL    HW116388   9.348   8.808   0.014 -0.1243 -0.8782 -0.7644
 2102SOL    HW216389   9.497   8.793   0.079 -1.1683  1.0030  2.1415
 2103SOL     OW16390   7.338   7.185   3.699  0.3258  0.4266 -0.5631
 2103SOL    HW116391   7.340   7.252   3.772 -1.5681 -1.2373  1.0703
 2103SOL    HW216392   7.247   7.145   3.692  1.4675 -2.2104 -1.2546
 2104SOL     OW16393   8.327   2.769   5.679 -0.0447  0.7992  0.1346
 2104SOL    HW116394   8.349   2.675   5.703 -1.7355  0.1117 -0.8707
 2104SOL    HW216395   8.270   2.770   5.597 -1.5793  2.5802  1.1707
 2105SOL     OW16396   5.540   7.441   3.170  0.2533 -0.0307 -0.5339
 2105SOL    HW116397   5.575   7.371   3.109  0.7441 -0.3976  0.1554
 2105SOL    HW216398   5.588   7.436   3.258 -0.2263  0.6806 -0.2204
 2106SOL     OW16399   1.392   6.876   5.440 -0.0815  0.6004  0.4198
 2106SOL    HW116400   1.294   6.882   5.418  0.0699  0.1412 -0.4043
 2106SOL    HW216401   1.445   6.923   5.369  0.3223  0.5151  0.6651
 2107SOL     OW16402   1.306   6.003   3.241 -0.7464 -0.7806 -0.6042
 2107SOL    HW116403   1.238   5.942   3.199 -0.1329 -1.3358 -0.8020
 2107SOL    HW216404   1.342   5.960   3.323 -2.3901  0.5726  0.8561
 2108SOL     OW16405   7.055   6.827   5.081  0.2238 -0.5898 -0.2683
 2108SOL    HW116406   6.969   6.878   5.088  0.8382  0.3337  0.7713
 2108SOL    HW216407   7.045   6.738   5.127  0.6252  0.6301  2.2642
 2109SOL     OW16408   4.656   8.070   5.532 -0.0315 -1.2056 -0.3830
 2109SOL    HW116409   4.738   8.013   5.539  1.7879  1.2163 -1.3830
 2109SOL    HW216410   4.659   8.142   5.601 -2.0111 -1.8803  0.4558
 2110SOL     OW16411   8.241   6.620   4.170  0.1603 -0.8663 -0.3184
 2110SOL    HW116412   8.292   6.542   4.134 -0.0155 -1.6525  1.1079
 2110SOL    HW216413   8.183   6.591   4.246  0.6013  0.7586  0.6823
 2112SOL     OW16414   6.073   0.623   6.014  0.3340 -0.6926  0.1571
 2112SOL    HW116415   5.985   0.591   5.980  0.5119 -0.0031 -0.9889
 2112SOL    HW216416   6.079   0.723   6.004  1.2944 -0.7508  0.0850
 2113SOL     OW16417   4.579   8.053   2.035 -0.0478  0.3066 -0.1886
 2113SOL    HW116418   4.534   8.122   2.092 -0.7484  0.4159 -0.8626
 2113SOL    HW216419   4.565   8.075   1.939 -2.3097 -2.0304 -0.4456
 2114SOL     OW16420   9.369   8.559   3.697  0.2017  0.4207 -0.1684
 2114SOL    HW116421   9.439   8.562   3.626 -1.0984  1.4750 -1.4455
 2114SOL    HW216422   9.280   8.580   3.656 -0.5808  0.9694  1.7673
 2115SOL     OW16423   2.235   8.163   1.727 -0.2497 -0.0321 -0.6674
 2115SOL    HW116424   2.296   8.194   1.654 -0.8239  2.2872 -0.2031
 2115SOL    HW216425   2.140   8.176   1.700 -0.4654  1.4415  0.6936
 2117SOL     OW16426   8.471   8.571   2.508  0.4788 -0.3962 -0.1084
 2117SOL    HW116427   8.509   8.659   2.480 -0.3620 -0.1922 -0.6240
 2117SOL    HW216428   8.542   8.518   2.554  0.7055  0.9533  1.1331
 2118SOL     OW16429   3.840   3.203   5.468 -0.2804  0.8037  0.2321
 2118SOL    HW116430   3.807   3.187   5.375 -1.1245 -1.8636  0.9558
 2118SOL    HW216431   3.789   3.277   5.510 -3.6004 -1.4868  0.3982
 2119SOL     OW16432   6.553   4.850   1.634  0.0509 -0.1975  0.5479
 2119SOL    HW116433   6.637   4.801   1.655 -1.0955 -2.0692  0.9034
 2119SOL    HW216434   6.491   4.790   1.585 -1.2914  1.0066  0.7301
 2120SOL     OW16435   2.870   8.015   4.143 -0.4766 -0.7131 -0.5418
 2120SOL    HW116436   2.819   7.939   4.101 -1.2736 -0.9870  0.9013
 2120SOL    HW216437   2.818   8.052   4.219 -0.3084  1.6440 -1.5331
 2121SOL     OW16438   2.095   5.455   0.774 -0.2735  0.3730  0.1836
 2121SOL    HW116439   2.182   5.424   0.738 -0.4145 -0.3490  0.4622
 2121SOL    HW216440   2.037   5.488   0.699 -0.1330 -0.0562 -0.1111
 2122SOL     OW16441   3.328   7.197   3.692 -0.1137  0.1069 -0.0576
 2122SOL    HW116442   3.234   7.232   3.702 -0.3271 -0.3289 -0.5145
 2122SOL    HW216443   3.371   7.192   3.782 -0.9032 -0.7135  0.2858
 2123SOL     OW16444   3.172   3.052   5.676  0.4224 -0.9745  0.4213
 2123SOL    HW116445   3.260   3.090   5.705  0.9760 -2.0811  0.2157
 2123SOL    HW216446   3.175   3.032   5.578 -1.0414  1.6465 -0.2081
 2124SOL     OW16447   7.109   7.538   6.387  0.4356  0.0093 -0.1927
 2124SOL    HW116448   7.060   7.470   6.333  0.5979  2.4107 -3.5314
 2124SOL    HW216449   7.179   7.583   6.330  0.2537  3.0418  1.8128
 2125SOL     OW16450   4.245   4.292   3.559 -0.2979 -0.1882 -0.2828
 2125SOL    HW116451   4.235   4.347   3.477  0.5201 -1.2352 -1.1000
 2125SOL    HW216452   4.264   4.351   3.637  2.3861  0.5605 -1.4443
 2126SOL     OW16453   3.765   4.702   1.476  0.1442  0.0033 -0.3142
 2126SOL    HW116454   3.776   4.659   1.387 -0.4539 -0.1538 -0.3122
 2126SOL    HW216455   3.851   4.694   1.528  0.5066  0.1430 -0.8876
 2127SOL     OW16456   2.305   8.411   0.719  0.7717  0.1321 -0.0482
 2127SOL    HW116457   2.379   8.474   0.695  1.1151 -0.5147 -0.6997
 2127SOL    HW216458   2.324   8.321   0.680  0.6819 -0.6019  1.5264
 2128SOL     OW16459   7.111   5.947   5.705  0.1253 -0.4087 -0.0231
 2128SOL    HW116460   7.101   5.938   5.606  0.3229  0.6500 -0.1433
 2128SOL    HW216461   7.022   5.966   5.746  0.3750  1.2111 -0.2269
 2129SOL     OW16462   6.240   2.197   4.469  0.0389 -0.7293  0.5468
 2129SOL    HW116463   6.304   2.156   4.404 -0.4825  0.0373 -0.4574
 2129SOL    HW216464   6.214   2.289   4.438 -1.1188 -0.8125  1.2193
 2130SOL     OW16465   8.991   6.380   2.392  0.0743  0.0755 -0.7913
 2130SOL    HW116466   9.032   6.453   2.446  0.1862 -1.1436  0.8221
 2130SOL    HW216467   8.893   6.375   2.411 -0.1547  0.5549 -1.7983
 2131SOL     OW16468   8.575   7.794   4.072 -0.1154  0.3197 -0.4880
 2131SOL    HW116469   8.599   7.876   4.123 -1.4294  1.0607 -1.0465
 2131SOL    HW216470   8.658   7.757   4.029  0.6442  0.8115  0.5266
 2132SOL     OW16471   0.573   5.506   4.241  0.1732 -0.4464 -0.3801
 2132SOL    HW116472   0.514   5.479   4.317  0.5121 -0.5333 -0.1435
 2132SOL    HW216473   0.569   5.436   4.169 -0.0028 -0.4592 -0.3567
 2135SOL     OW16474   1.341   4.471   0.297  0.0383  0.1366  0.0200
 2135SOL    HW116475   1.288   4.503   0.375  0.7703 -0.2214  0.6764
 2135SOL    HW216476   1.333   4.536   0.222  0.1239  0.9861  0.7368
 2136SOL     OW16477   0.028   5.476   1.802  0.4705 -0.1677  0.1619
 2136SOL    HW116478  -0.071   5.476   1.784  0.2408  3.0126  1.0201
 2136SOL    HW216479   0.070   5.396   1.759 -2.1411 -0.3807 -2.1569
 2137SOL     OW16480   4.096   2.384   1.065  0.4792 -0.1296  0.4320
 2137SOL    HW116481   4.165   2.446   1.029  0.8589 -1.2704 -0.8609
 2137SOL    HW216482   4.141   2.310   1.116  0.3242 -1.4536 -1.2874
 2138SOL     OW16483   9.207   4.864   0.075  0.4368  0.0011 -0.0321
 2138SOL    HW116484   9.224   4.954   0.037  0.8403  1.2394  2.9902
 2138SOL    HW216485   9.112   4.859   0.108  0.1710 -0.9595 -0.9209
 2140SOL     OW16486   9.818   3.357   3.009 -0.2171  0.2953 -0.2209
 2140SOL    HW116487   9.794   3.288   3.078 -0.7632  2.3780  1.7409
 2140SOL    HW216488   9.773   3.443   3.032  0.5787  1.3655 -2.5460
 2141SOL     OW16489   4.994   0.596   4.931  0.5502 -0.3509  0.2109
 2141SOL    HW116490   4.919   0.585   4.865 -1.1242  1.3762  1.7720
 2141SOL    HW216491   5.057   0.666   4.899  1.4397 -1.6829 -1.0216
 2143SOL     OW16492   4.156   2.032   5.250  0.0477  0.8727 -0.1007
 2143SOL    HW116493   4.233   1.969   5.249  0.1739  1.0429 -0.8218
 2143SOL    HW216494   4.073   1.983   5.280  0.1639  0.3959 -0.5565
 2144SOL     OW16495   9.960   1.214   1.586  0.2287 -0.1695 -0.2869
 2144SOL    HW116496   9.949   1.116   1.572  0.0046 -0.2635  0.5075
 2144SOL    HW216497  10.055   1.235   1.610  0.4373 -0.1014 -1.1474
 2145SOL     OW16498   2.356   3.082   0.158  0.9343 -0.3117 -0.2985
 2145SOL    HW116499   2.411   3.035   0.088 -0.6866 -1.5485 -0.7856
 2145SOL    HW216500   2.262   3.046   0.156  0.7160  0.0397  2.1458
 2146SOL     OW16501   0.917   6.771   3.653  0.2653  0.8734  0.3975
 2146SOL    HW116502   1.008   6.730   3.649 -0.2976 -0.2290 -1.9418
 2146SOL    HW216503   0.925   6.870   3.641  1.2077  0.8919  1.1047
 2147SOL     OW16504   6.548   1.728   0.469  0.5750  0.7302 -0.4451
 2147SOL    HW116505   6.483   1.771   0.533 -0.9746 -1.4397 -0.5122
 2147SOL    HW216506   6.502   1.706   0.384  1.2963 -1.1490 -0.3766
 2149SOL     OW16507   3.463   9.065   6.215  0.5559  0.6207  0.2842
 2149SOL    HW116508   3.457   9.117   6.300  0.0275 -0.5245  0.9580
 2149SOL    HW216509   3.412   8.979   6.225 -1.7293  1.6307 -2.0675
 2150SOL     OW16510   7.398   2.900   0.095 -0.4952  0.2150 -0.2425
 2150SOL    HW116511   7.358   2.947   0.173 -1.6078 -1.5672  0.3014
 2150SOL    HW216512   7.479   2.849   0.125 -1.2873 -0.9869 -0.0756
 2151SOL     OW16513   0.217   2.135   4.973  0.3857  0.1102 -0.2847
 2151SOL    HW116514   0.267   2.165   4.891 -0.1633  1.7390 -0.0303
 2151SOL    HW216515   0.247   2.188   5.052  0.8510 -1.4034  0.5800
 2152SOL     OW16516   0.255   1.210   1.223  0.1007  0.1112 -0.4069
 2152SOL    HW116517   0.187   1.137   1.224  1.1549 -0.8858  0.7496
 2152SOL    HW216518   0.217   1.291   1.269 -0.5418 -0.1994 -0.3849
 2153SOL     OW16519   9.879   1.969   1.049  0.1274  0.2272 -0.5376
 2153SOL    HW116520   9.963   1.927   1.015  0.2362  0.8177 -1.0094
 2153SOL    HW216521   9.848   1.921   1.131 -0.9540 -2.1540 -2.3008
 2154SOL     OW16522   9.791   8.224   1.253  0.3295  0.4604 -0.5781
 2154SOL    HW116523   9.851   8.157   1.211  0.7556  0.1572  0.4953
 2154SOL    HW216524   9.696   8.202   1.232  0.3708 -1.4203  1.1079
 2156SOL     OW16525   9.627   0.112   2.178 -0.2305  0.9957  0.3363
 2156SOL    HW116526   9.573   0.194   2.157 -1.2546  0.6751  1.6503
 2156SOL    HW216527   9.598   0.075   2.266  1.4214  0.2024  0.5670
 2157SOL     OW16528   4.147   2.036   3.503 -0.4310  0.5838  0.4166
 2157SOL    HW116529   4.167   1.938   3.493 -2.3833  0.1515  0.5982
 2157SOL    HW216530   4.098   2.068   3.422 -0.5888  1.2086  0.7595
 2158SOL     OW16531   9.727   5.680   1.574 -0.0756 -0.0927 -0.2375
 2158SOL    HW116532   9.790   5.756   1.558 -1.3931  0.6749 -1.9095
 2158SOL    HW216533   9.638   5.702   1.535 -1.1924 -1.4690  1.4695
 2159SOL     OW16534   8.630   3.009   4.662 -0.5781  0.2210  0.4980
 2159SOL    HW116535   8.607   2.963   4.748  0.8231 -0.0689  0.7203
 2159SOL    HW216536   8.722   2.982   4.633 -0.5050  1.3954 -0.3749
 2160SOL     OW16537   0.828   9.787   4.076 -0.2457 -0.2530 -0.5634
 2160SOL    HW116538   0.927   9.788   4.059 -0.0215 -0.8363  0.7091
 2160SOL    HW216539   0.802   9.700   4.116 -1.5559 -0.7628 -2.4522
 2162SOL     OW16540   1.960   2.572   6.091  0.0752 -0.1783 -0.2482
 2162SOL    HW116541   2.054   2.541   6.099  0.8984  2.1542 -0.4964
 2162SOL    HW216542   1.941   2.600   5.997 -0.3547  0.8992  0.1491
 2163SOL     OW16543   5.055   0.774   2.415 -0.6005 -0.2597  0.1389
 2163SOL    HW116544   5.083   0.836   2.488 -1.3797  0.4880 -0.1943
 2163SOL    HW216545   5.132   0.714   2.392  0.8712  1.9549 -0.9658
 2164SOL     OW16546   6.897   3.663   1.298  0.0525 -0.2535  0.2115
 2164SOL    HW116547   6.883   3.757   1.327 -0.3467  0.3773 -1.9318
 2164SOL    HW216548   6.986   3.653   1.255 -0.8903 -0.2532 -1.8046
 2165SOL     OW16549   7.790   7.222   3.224  0.4085  0.0154 -0.5946
 2165SOL    HW116550   7.850   7.251   3.149  0.3729 -2.8917 -1.8119
 2165SOL    HW216551   7.695   7.241   3.201  0.3953 -0.9238 -1.3363
 2166SOL     OW16552   1.582   8.481   3.471  0.5563 -1.0933 -0.0213
 2166SOL    HW116553   1.631   8.568   3.466  1.6812 -1.7113  0.1806
 2166SOL    HW216554   1.570   8.455   3.567 -0.3937 -0.8282 -0.0590
 2167SOL     OW16555   4.463   3.463   0.554 -0.1609  0.4374  0.1675
 2167SOL    HW116556   4.410   3.475   0.638  0.3476  0.9876  0.4133
 2167SOL    HW216557   4.559   3.449   0.577 -0.0370  0.4835 -0.3195
 2168SOL     OW16558   4.144   4.109   2.450  0.3194  0.5224 -0.3554
 2168SOL    HW116559   4.155   4.174   2.524  2.4548  1.2026 -1.2169
 2168SOL    HW216560   4.168   4.017   2.482  1.6906  0.8856 -0.3013
 2170SOL     OW16561   7.145   2.267   4.533 -0.3171  0.8574 -0.4381
 2170SOL    HW116562   7.174   2.351   4.487 -0.4659  0.9683 -0.3271
 2170SOL    HW216563   7.077   2.289   4.603 -2.0464  0.4111 -1.9160
 2171SOL     OW16564   4.141   7.359   5.330 -0.1844  0.6276 -0.4268
 2171SOL    HW116565   4.043   7.347   5.317 -0.5298 -0.4771  2.7767
 2171SOL    HW216566   4.190   7.315   5.255 -2.0762 -0.9737 -0.7709
 2172SOL     OW16567   5.639   8.217   5.742  0.1118  0.2443 -0.2984
 2172SOL    HW116568   5.703   8.173   5.678 -0.8163  0.0059 -1.0804
 2172SOL    HW216569   5.642   8.169   5.830 -0.2330 -0.8307 -0.8637
 2173SOL     OW16570   9.912   1.458   0.273 -0.2985  0.1202 -0.3370
 2173SOL    HW116571   9.966   1.487   0.194  0.4063  2.1208  0.8307
 2173SOL    HW216572   9.967   1.397   0.330  0.4537  1.4730  0.4054
 2174SOL     OW16573   8.422   0.426   4.850  0.1238  0.3653  0.0703
 2174SOL    HW116574   8.365   0.490   4.900  0.5073  0.9787 -0.2681
 2174SOL    HW216575   8.518   0.453   4.858  0.5145 -1.3855  1.7090
 2175SOL     OW16576   0.986   3.333   0.797 -0.6450 -0.0069  0.1102
 2175SOL    HW116577   1.043   3.258   0.831 -0.2906  0.5636  0.7993
 2175SOL    HW216578   0.914   3.297   0.738  0.4862 -0.7331 -0.8390
 2176SOL     OW16579   0.111   4.622   3.125 -0.0090  0.3929 -0.5743
 2176SOL    HW116580   0.015   4.640   3.144 -0.2897 -1.7344  0.1711
 2176SOL    HW216581   0.156   4.590   3.208  0.6257 -1.4363 -1.5882
 2178SOL     OW16582   7.899   9.432   4.346 -0.6165  0.2311 -0.1665
 2178SOL    HW116583   7.948   9.445   4.260 -1.9046  0.9246 -0.8266
 2178SOL    HW216584   7.829   9.361   4.335  1.0666 -1.6873  1.1400
 2179SOL     OW16585   9.133   0.708   0.718  0.3364 -0.0864  0.2223
 2179SOL    HW116586   9.190   0.693   0.799 -1.0232  0.7529  1.3409
 2179SOL    HW216587   9.144   0.803   0.687  1.4046 -0.5940 -1.0312
 2180SOL     OW16588   0.419   4.152   2.073  0.2174 -0.0317  0.2555
 2180SOL    HW116589   0.415   4.146   1.973  0.5867  0.3008  0.2212
 2180SOL    HW216590   0.331   4.186   2.108  0.5124  1.0514 -0.0424
 2181SOL     OW16591   2.291   2.049   5.112  0.2210 -0.4985  0.1413
 2181SOL    HW116592   2.203   2.039   5.065 -0.8863  0.3395  1.9833
 2181SOL    HW216593   2.282   2.018   5.207  1.1794  2.0487  1.1004
 2182SOL     OW16594   1.097   0.882   1.339  0.1734  0.7851 -0.1550
 2182SOL    HW116595   1.172   0.931   1.295 -0.8689  1.2607 -1.4696
 2182SOL    HW216596   1.083   0.794   1.294  1.8522 -0.6428  2.0168
 2183SOL     OW16597   4.338   7.738   3.673  0.3932 -0.2428  0.2978
 2183SOL    HW116598   4.403   7.801   3.630 -0.2494 -1.0611 -1.9704
 2183SOL    HW216599   4.280   7.789   3.737  2.9631  0.5557  2.0791
 2186SOL     OW16600   2.313   5.096   2.037 -0.4415  1.2842 -0.5530
 2186SOL    HW116601   2.217   5.106   2.063 -0.2520  1.3935  0.1192
 2186SOL    HW216602   2.355   5.022   2.091 -0.2189  1.0488 -1.0397
 2188SOL     OW16603   8.067   1.668   3.900 -0.0725  0.3157  0.0330
 2188SOL    HW116604   8.120   1.730   3.958  0.9974 -1.3655  0.9024
 2188SOL    HW216605   8.058   1.580   3.946 -0.3599 -0.6269 -1.8014
 2189SOL     OW16606   5.995   2.397   0.927 -0.3469  0.2310  0.0026
 2189SOL    HW116607   5.991   2.495   0.945  1.1952  0.2844  0.1176
 2189SOL    HW216608   5.912   2.368   0.878 -0.5327  1.6771 -0.5490
 2190SOL     OW16609   4.626   0.554   5.148  0.2653 -0.4673 -0.3741
 2190SOL    HW116610   4.593   0.589   5.061  0.2765  2.2504  0.6418
 2190SOL    HW216611   4.723   0.578   5.158 -0.4370  1.7953  1.5499
 2191SOL     OW16612   1.663   1.053   3.206 -0.1805  0.2726  0.2468
 2191SOL    HW116613   1.691   0.958   3.226 -1.2415  0.1789  1.3502
 2191SOL    HW216614   1.700   1.080   3.118  0.5386 -1.0173  0.1297
 2192SOL     OW16615   8.724   4.305   4.304 -0.5951  0.0841 -0.9728
 2192SOL    HW116616   8.678   4.220   4.331  1.0499 -0.7599 -0.7819
 2192SOL    HW216617   8.657   4.367   4.262 -2.0564 -0.8068  0.0010
 2193SOL     OW16618   3.756   0.048   1.917  0.0783 -0.5594 -0.0004
 2193SOL    HW116619   3.788   0.059   2.011 -0.2560 -1.3356  0.2110
 2193SOL    HW216620   3.720  -0.045   1.905 -0.7140 -0.1781 -0.6399
 2194SOL     OW16621   6.528   0.680   5.879  0.2304  0.4531 -0.5493
 2194SOL    HW116622   6.437   0.645   5.854  0.0125  0.0307  0.7986
 2194SOL    HW216623   6.521   0.736   5.961  1.2914 -0.1472 -0.0342
 2195SOL     OW16624   8.780   3.069   3.781 -0.0532  0.0305  0.2351
 2195SOL    HW116625   8.852   3.001   3.765 -0.5911 -0.5004  0.0839
 2195SOL    HW216626   8.693   3.023   3.796 -0.3677  0.6780  0.3964
 2197SOL     OW16627   2.864   5.098   5.995 -0.1903  0.5728 -0.1958
 2197SOL    HW116628   2.810   5.107   5.911  1.8803  0.7527 -1.5567
 2197SOL    HW216629   2.877   5.188   6.037  0.6280  0.8096 -0.9230
 2198SOL     OW16630   8.491   5.563   3.555 -0.5851 -0.4637  0.2066
 2198SOL    HW116631   8.447   5.644   3.594  0.5536  0.2756 -0.0037
 2198SOL    HW216632   8.547   5.519   3.625 -0.4475 -0.5132  0.0655
 2199SOL     OW16633   8.226   9.190   4.101 -0.3119  0.2019  0.1386
 2199SOL    HW116634   8.283   9.194   4.183  1.0785  0.8389 -0.8328
 2199SOL    HW216635   8.283   9.167   4.022 -1.5841 -0.1460 -0.7010
 2200SOL     OW16636   5.836   5.236   0.852 -0.6401 -0.3512  0.1433
 2200SOL    HW116637   5.906   5.182   0.899  0.0660  1.2492  0.9873
 2200SOL    HW216638   5.881   5.301   0.791 -1.4830 -0.7939 -0.9548
 2201SOL     OW16639   9.484   1.035   5.986 -0.2992 -0.2363 -0.1082
 2201SOL    HW116640   9.418   0.988   5.928 -1.1318  1.5665 -0.6646
 2201SOL    HW216641   9.449   1.125   6.011  2.2218  1.0537 -0.9748
 2202SOL     OW16642   3.510   3.447   0.234  0.3702 -0.3293 -0.3388
 2202SOL    HW116643   3.457   3.370   0.199  0.5592  0.0600 -1.5191
 2202SOL    HW216644   3.588   3.464   0.173  1.8264 -0.8698  1.3517
 2203SOL     OW16645   0.972   5.307   0.465  0.3253  0.0893 -0.1173
 2203SOL    HW116646   0.884   5.262   0.478  0.4134 -0.7008 -2.0346
 2203SOL    HW216647   1.045   5.247   0.499  0.1784  0.4300  0.8038
 2204SOL     OW16648   2.681   4.977   4.991  0.2128 -0.3024  0.2879
 2204SOL    HW116649   2.730   4.932   4.916  1.0045  1.7151 -0.4253
 2204SOL    HW216650   2.585   4.947   4.989 -0.1639  0.9103 -2.5256
 2205SOL     OW16651   2.323   0.985   5.426 -0.2854 -0.3012 -1.2826
 2205SOL    HW116652   2.399   0.986   5.492 -1.3740 -0.5651  0.0082
 2205SOL    HW216653   2.338   0.911   5.360  0.3468 -0.6589 -0.7559
 2206SOL     OW16654   9.805   6.593   3.462 -0.1754  0.0935  0.1293
 2206SOL    HW116655   9.800   6.580   3.561 -2.3292 -1.0433 -0.1014
 2206SOL    HW216656   9.898   6.621   3.437  0.6162 -0.4101  2.3678
 2207SOL     OW16657   0.754   8.115   0.936  0.7040 -0.3643 -0.1934
 2207SOL    HW116658   0.840   8.165   0.951 -0.4318  0.7925  2.7320
 2207SOL    HW216659   0.699   8.166   0.870  1.3125  0.0793 -0.3745
 2208SOL     OW16660   4.135   4.466   3.989  0.6066 -0.5176  0.0070
 2208SOL    HW116661   4.206   4.471   3.918 -2.2393 -0.7595 -2.9551
 2208SOL    HW216662   4.119   4.557   4.026  1.3671 -0.2010 -0.4253
 2209SOL     OW16663   2.754   7.875   3.402 -0.3670  0.0529  0.0295
 2209SOL    HW116664   2.815   7.884   3.323 -1.4620  0.5930 -0.7751
 2209SOL    HW216665   2.780   7.794   3.455  0.8273  0.0816 -0.4843
 2210SOL     OW16666   6.556   0.944   2.619  0.4404 -0.1799  0.0722
 2210SOL    HW116667   6.594   1.035   2.598  0.3393 -0.2963 -0.6272
 2210SOL    HW216668   6.522   0.944   2.712 -0.3389  0.7707 -0.1969
 2212SOL     OW16669   4.516   0.585   1.066 -0.3744  0.0095 -0.5996
 2212SOL    HW116670   4.599   0.552   1.110 -1.3114 -0.8513  0.5423
 2212SOL    HW216671   4.475   0.511   1.013 -0.5980  0.3432 -0.8944
 2213SOL     OW16672   5.543   5.600   0.525  0.3319  0.0160 -0.3514
 2213SOL    HW116673   5.522   5.528   0.591  1.5162  0.2370  0.2871
 2213SOL    HW216674   5.632   5.581   0.484  1.0869  1.5968  0.5126
 2214SOL     OW16675   4.703   4.023   0.607 -0.1479  0.2493 -0.6151
 2214SOL    HW116676   4.656   3.947   0.562 -0.6801 -0.7017  1.4823
 2214SOL    HW216677   4.637   4.081   0.654  0.6485 -0.9613  2.1634
 2216SOL     OW16678   2.470   6.770   2.850  0.4105  0.2914  0.2090
 2216SOL    HW116679   2.407   6.739   2.779 -0.7033 -1.0595  1.7598
 2216SOL    HW216680   2.434   6.745   2.940  2.0831  1.4747  1.2299
 2217SOL     OW16681   7.180   9.357   4.161  0.4060 -0.1366  0.3193
 2217SOL    HW116682   7.082   9.375   4.168  0.1384 -0.8215 -1.3282
 2217SOL    HW216683   7.227   9.442   4.136 -0.0711 -0.2908 -1.1706
 2218SOL     OW16684   8.320   4.997   3.710  0.0413 -0.0456  0.1709
 2218SOL    HW116685   8.402   5.052   3.725  0.2029 -0.6637  1.6399
 2218SOL    HW216686   8.289   4.960   3.797 -2.1638  0.6870 -0.2755
 2220SOL     OW16687   0.010   1.581   6.125  0.1758 -0.3102  0.1682
 2220SOL    HW116688   0.024   1.561   6.222  0.0700 -1.9736 -0.1500
 2220SOL    HW216689  -0.073   1.536   6.093 -1.2108  2.3194 -0.1009
 2221SOL     OW16690   4.455   0.835   2.609 -0.3031  0.3813  0.7570
 2221SOL    HW116691   4.431   0.755   2.554 -1.9269  1.4364 -0.1114
 2221SOL    HW216692   4.444   0.917   2.554 -1.2794  1.4169  2.4628
 2222SOL     OW16693   8.398   8.856   0.272  0.0509  0.3915  0.5032
 2222SOL    HW116694   8.338   8.782   0.240  2.7131 -1.4481 -0.3891
 2222SOL    HW216695   8.426   8.912   0.194 -0.1053  0.9629  0.8553
 2223SOL     OW16696   2.246   5.377   3.559  0.1989 -0.0712  0.6893
 2223SOL    HW116697   2.216   5.389   3.464  2.7516  0.9071 -0.0609
 2223SOL    HW216698   2.301   5.294   3.566 -0.1734 -0.2642  1.3665
 2224SOL     OW16699   4.671   4.071   5.610 -0.0061 -0.1590 -0.3339
 2224SOL    HW116700   4.602   4.066   5.682  1.4372 -0.5640  1.0605
 2224SOL    HW216701   4.759   4.098   5.650  1.2268 -2.0936 -1.6574
 2225SOL     OW16702   4.483   4.656   3.902 -0.4650  0.0332  0.2575
 2225SOL    HW116703   4.452   4.667   3.997  1.2949  0.6397  0.7790
 2225SOL    HW216704   4.569   4.607   3.901 -0.3724  0.2084 -1.0311
 2226SOL     OW16705   4.074   1.666   6.084 -0.6392 -0.1916  0.1186
 2226SOL    HW116706   3.989   1.616   6.101 -1.9251  0.7758 -2.9900
 2226SOL    HW216707   4.131   1.613   6.021  1.2543 -0.9763  2.4334
 2227SOL     OW16708   8.393   0.119   1.286 -0.3136  0.1249  0.0979
 2227SOL    HW116709   8.391   0.204   1.235  1.4139  0.0057 -0.2107
 2227SOL    HW216710   8.486   0.104   1.321 -1.0529 -0.6717  1.7618
 2229SOL     OW16711   1.138   8.218   1.204 -0.3740  0.2732 -0.2471
 2229SOL    HW116712   1.193   8.135   1.193 -1.6099 -0.6764  0.5842
 2229SOL    HW216713   1.183   8.280   1.267  0.0481 -0.2224 -0.0633
 2230SOL     OW16714   8.016   5.846   0.616  0.7463  0.2899  0.0527
 2230SOL    HW116715   7.999   5.915   0.546 -3.3200 -0.6059  0.0651
 2230SOL    HW216716   8.010   5.755   0.576 -0.5844 -0.2017  1.3155
 2232SOL     OW16717   8.680   7.066   2.072 -0.6673  0.1103  0.2214
 2232SOL    HW116718   8.688   7.165   2.072 -0.8056  0.1233  0.5306
 2232SOL    HW216719   8.583   7.040   2.077 -0.6074 -0.0412  0.5798
 2233SOL     OW16720   0.408   6.135   2.037  0.1819 -0.3136  0.9557
 2233SOL    HW116721   0.340   6.180   2.095  0.8795  1.3151  0.5280
 2233SOL    HW216722   0.499   6.148   2.075  0.7861  1.8322 -1.1251
 2234SOL     OW16723   6.866   2.742   5.254  0.5696 -0.4192  0.7139
 2234SOL    HW116724   6.872   2.744   5.154  3.2258  0.4990  0.8652
 2234SOL    HW216725   6.770   2.734   5.281 -0.4281  2.0296 -1.8775
 2236SOL     OW16726   1.006   6.018   4.662 -0.2235 -0.3064 -0.1049
 2236SOL    HW116727   0.915   5.994   4.630 -0.3373 -2.1633  1.5134
 2236SOL    HW216728   1.014   6.118   4.670 -2.9184 -0.2321  2.0747
 2237SOL     OW16729   1.878   1.985   3.392  0.0958  0.8495 -0.2475
 2237SOL    HW116730   1.849   1.897   3.428  0.4232  1.2204  0.9409
 2237SOL    HW216731   1.959   2.017   3.442  0.2665  1.5915 -0.9872
 2238SOL     OW16732   9.043   1.426   1.045  0.1504 -0.7920  0.5873
 2238SOL    HW116733   8.997   1.477   0.972  0.6046 -0.3644  0.5991
 2238SOL    HW216734   9.086   1.345   1.006 -0.0302 -0.8284  0.4624
 2239SOL     OW16735   6.992   9.029   3.547  0.0766 -0.1711  0.1538
 2239SOL    HW116736   7.000   9.101   3.479 -0.4514  0.1010  0.3743
 2239SOL    HW216737   7.069   9.034   3.611  0.7048 -0.5815 -0.5649
 2240SOL     OW16738   8.561   2.214   2.834 -0.2771 -0.1956  0.1323
 2240SOL    HW116739   8.471   2.215   2.878 -0.5123  0.9643 -0.3440
 2240SOL    HW216740   8.618   2.285   2.875 -0.5125  0.9237 -1.4417
 2241SOL     OW16741   8.823   5.212   0.432 -0.2063  0.2893  0.0220
 2241SOL    HW116742   8.905   5.246   0.478  0.0581  0.3514 -0.4963
 2241SOL    HW216743   8.752   5.282   0.436  0.8519  1.5489 -2.4177
 2242SOL     OW16744   7.091   0.721   5.168  0.3568 -0.1286  0.0492
 2242SOL    HW116745   7.133   0.631   5.173  0.7308  0.1120  1.3299
 2242SOL    HW216746   7.086   0.761   5.259 -1.4090  0.4145 -0.2510
 2243SOL     OW16747   3.073   3.048   3.507  0.7116 -0.0892 -0.1372
 2243SOL    HW116748   3.027   3.005   3.584  1.3668 -0.3942  0.0898
 2243SOL    HW216749   3.172   3.029   3.512  0.5786 -1.3302 -1.8273
 2244SOL     OW16750   1.370   9.574   5.479  0.4124  0.2116  0.6103
 2244SOL    HW116751   1.275   9.583   5.510  0.1537  1.1127 -0.3948
 2244SOL    HW216752   1.371   9.545   5.383  1.1749 -0.9998  0.9711
 2245SOL     OW16753   4.752   9.368   3.632  0.1052  0.3359  0.0340
 2245SOL    HW116754   4.808   9.449   3.649  2.1398 -1.2572  1.1474
 2245SOL    HW216755   4.737   9.319   3.718 -0.1106 -1.1083 -0.8095
 2246SOL     OW16756   3.259   7.706   4.799 -0.1112  0.3275 -0.3651
 2246SOL    HW116757   3.170   7.695   4.755 -0.7146  0.9718  0.6614
 2246SOL    HW216758   3.297   7.616   4.822 -0.4610  0.0518 -0.8668
 2247SOL     OW16759   2.385   6.992   2.424  0.2520  0.4565  0.0953
 2247SOL    HW116760   2.342   6.997   2.334  0.9019 -2.7004 -0.4585
 2247SOL    HW216761   2.340   6.920   2.478  2.8516 -0.8161  0.6165
 2248SOL     OW16762   8.755   4.391   2.580  0.2392 -0.5370 -1.3495
 2248SOL    HW116763   8.670   4.394   2.634  0.3805  0.9611 -1.1973
 2248SOL    HW216764   8.733   4.374   2.484 -0.1388 -1.3609 -1.1290
 2249SOL     OW16765   1.663   8.136   1.025 -0.1560  0.1330 -0.2134
 2249SOL    HW116766   1.680   8.145   0.927 -2.3256  1.7299 -0.4965
 2249SOL    HW216767   1.612   8.052   1.043  0.7108 -0.4370 -0.3579
 2250SOL     OW16768   1.462   0.056   1.196 -0.1338  0.3880 -0.2810
 2250SOL    HW116769   1.441   0.061   1.098  1.8791  0.6793 -0.7350
 2250SOL    HW216770   1.411   0.127   1.245 -0.4816  0.8239 -1.2562
 2251SOL     OW16771   5.462   0.866   6.003 -0.1712 -0.1306  0.0437
 2251SOL    HW116772   5.377   0.859   5.950 -0.6591  0.1308  0.7906
 2251SOL    HW216773   5.517   0.784   5.987  0.8383  1.0672 -2.8342
 2252SOL     OW16774   9.575   4.745   2.191 -0.6740 -0.0754 -0.0631
 2252SOL    HW116775   9.481   4.723   2.215 -0.7987  0.1237 -0.3720
 2252SOL    HW216776   9.637   4.678   2.232 -0.8510  0.5324  1.1947
 2253SOL     OW16777   5.501   8.011   3.954  0.0542 -0.1464 -0.1137
 2253SOL    HW116778   5.582   7.999   4.011  0.0644 -0.5144 -0.2052
 2253SOL    HW216779   5.457   7.922   3.938 -1.5057  0.2805  1.6226
 2254SOL     OW16780   9.966   6.457   5.289  0.1365  0.7389 -0.1536
 2254SOL    HW116781  10.061   6.443   5.262 -0.0901 -0.1624 -0.5290
 2254SOL    HW216782   9.925   6.368   5.312 -2.0501  0.3742 -4.8895
 2255SOL     OW16783   8.116   3.865   6.430  0.1187  0.0369 -0.3650
 2255SOL    HW116784   8.095   3.912   6.515 -0.6436  0.3624 -0.7233
 2255SOL    HW216785   8.031   3.847   6.380  0.2156 -3.3496  0.6078
 2256SOL     OW16786   1.128   1.703   6.226  0.0410 -0.2260  0.1469
 2256SOL    HW116787   1.116   1.744   6.135  1.3680  0.8606  0.4428
 2256SOL    HW216788   1.129   1.775   6.295  0.4167 -0.9355  0.8925
 2258SOL     OW16789   2.779   8.726   1.667 -0.1761 -0.4835  0.0005
 2258SOL    HW116790   2.739   8.705   1.756 -2.0636  0.6413 -0.5732
 2258SOL    HW216791   2.732   8.675   1.596  1.1561 -1.1765 -0.4072
 2259SOL     OW16792   1.098   1.139   4.308  0.1749 -0.2565  0.0348
 2259SOL    HW116793   1.115   1.113   4.403  0.5819  0.3966  0.1424
 2259SOL    HW216794   1.008   1.182   4.301  1.1166  1.8791  0.5666
 2260SOL     OW16795   5.289   4.804   1.532  0.1226 -0.9909  0.6706
 2260SOL    HW116796   5.320   4.826   1.625 -0.5072 -1.3432  0.9696
 2260SOL    HW216797   5.198   4.842   1.517  0.9329  0.5588 -0.4206
 2261SOL     OW16798   9.939   0.741   1.202  0.2305  0.2306 -0.0252
 2261SOL    HW116799   9.913   0.825   1.155  2.5401 -0.2041 -2.2073
 2261SOL    HW216800   9.910   0.662   1.148  1.1192 -0.3031  0.2634
 2262SOL     OW16801   8.510   4.168   4.035 -0.3373  0.3974 -0.3653
 2262SOL    HW116802   8.600   4.176   3.991 -0.8317  1.0997 -1.2644
 2262SOL    HW216803   8.472   4.259   4.051 -1.4714  0.0922 -1.2146
 2263SOL     OW16804   3.587   3.402   1.933 -0.2031  0.5231  0.1256
 2263SOL    HW116805   3.608   3.333   1.864 -3.0065 -0.4070  0.1384
 2263SOL    HW216806   3.576   3.357   2.022 -0.2570  1.2530  0.4891
 2264SOL     OW16807   0.237   4.741   4.853  0.7863 -0.2124  0.0435
 2264SOL    HW116808   0.320   4.687   4.844  1.2347  0.5243 -0.2723
 2264SOL    HW216809   0.184   4.708   4.931  0.9898 -1.1889 -0.2347
 2265SOL     OW16810   8.143   7.120   3.745 -0.1616 -0.0593 -0.3798
 2265SOL    HW116811   8.058   7.128   3.692 -0.7225 -1.8731  0.1930
 2265SOL    HW216812   8.125   7.146   3.840  0.0556  0.1184 -0.3896
 2266SOL     OW16813   5.836   8.952   3.784 -0.0809  0.2494  0.1141
 2266SOL    HW116814   5.754   8.916   3.740  0.1219 -1.8284  1.3749
 2266SOL    HW216815   5.915   8.942   3.723 -0.2600 -0.2577 -0.0304
 2267SOL     OW16816   5.342   8.980   2.731 -0.0948  0.2160  0.4680
 2267SOL    HW116817   5.440   8.990   2.746 -0.0935  0.6804  0.1716
 2267SOL    HW216818   5.310   9.054   2.672 -0.3736 -0.7507 -0.5848
 2268SOL     OW16819   0.023   2.812   2.617  0.1490  0.0695 -0.3101
 2268SOL    HW116820  -0.019   2.878   2.679  1.9929  0.3573  0.6732
 2268SOL    HW216821  -0.046   2.776   2.554 -2.0833 -1.3076  2.8176
 2269SOL     OW16822   1.000   9.220   2.208  0.1154 -0.1759  0.3895
 2269SOL    HW116823   1.040   9.228   2.116  0.4854 -1.7767  0.3847
 2269SOL    HW216824   0.917   9.165   2.202 -0.5541  0.7749  0.8373
 2270SOL     OW16825   7.074   4.281   0.051  0.5742 -0.5062  0.4431
 2270SOL    HW116826   7.112   4.304  -0.038 -1.5843 -0.2458 -0.4389
 2270SOL    HW216827   7.115   4.196   0.084  1.5899 -0.4590 -0.6758
 2272SOL     OW16828   9.620   0.730   2.483 -0.4897 -0.1455 -0.0644
 2272SOL    HW116829   9.702   0.779   2.512 -0.4853 -0.9443  1.3416
 2272SOL    HW216830   9.643   0.668   2.408 -0.3930  1.5995 -1.5076
 2273SOL     OW16831   2.255   2.631   5.003 -0.1092  0.0410 -0.0096
 2273SOL    HW116832   2.178   2.672   4.954  0.6550  1.4756 -0.0421
 2273SOL    HW216833   2.341   2.658   4.959  0.3532 -3.1663 -1.1760
 2274SOL     OW16834   9.982   7.130   3.173  0.2751  0.6000 -0.2769
 2274SOL    HW116835  10.064   7.121   3.115 -1.4814  0.3501 -2.7865
 2274SOL    HW216836   9.999   7.199   3.244  3.3351 -0.8491  0.4866
 2275SOL     OW16837   1.314   0.043   0.129 -0.6016 -0.5733 -0.3628
 2275SOL    HW116838   1.219   0.067   0.107 -0.4143  0.2860 -0.2436
 2275SOL    HW216839   1.366   0.034   0.044 -0.7457 -0.8598 -0.4211
 2277SOL     OW16840   9.476   7.777   6.126 -0.5333  0.4645 -0.0183
 2277SOL    HW116841   9.554   7.828   6.161 -0.1795  0.9187 -1.4377
 2277SOL    HW216842   9.509   7.693   6.083 -0.8795  0.3899 -0.1368
 2278SOL     OW16843   4.555   2.257   1.314  0.0221 -0.1123 -0.3960
 2278SOL    HW116844   4.500   2.223   1.391 -0.2396  0.1422 -0.4702
 2278SOL    HW216845   4.521   2.218   1.229  0.0848 -0.1156 -0.4188
 2280SOL     OW16846   3.274   2.630   5.097 -0.4101 -0.1501  0.3499
 2280SOL    HW116847   3.228   2.551   5.139  0.7986 -0.3093  1.4054
 2280SOL    HW216848   3.305   2.605   5.005 -1.8453 -0.2440 -0.1132
 2281SOL     OW16849   7.167   9.206   5.420  0.0567  0.2521  0.0792
 2281SOL    HW116850   7.102   9.221   5.495  1.6903  0.7156  1.4443
 2281SOL    HW216851   7.237   9.278   5.422  1.0508 -0.6683 -0.8768
 2282SOL     OW16852   1.224   0.118   5.651  0.1636  0.2212  0.6360
 2282SOL    HW116853   1.174   0.204   5.652 -0.6827 -0.2812  2.4004
 2282SOL    HW216854   1.316   0.133   5.687  0.3825  0.6047 -0.0795
 2283SOL     OW16855   3.398   0.500   0.662 -0.2049  0.2152  0.5772
 2283SOL    HW116856   3.435   0.525   0.573 -1.5542 -0.0981 -0.0806
 2283SOL    HW216857   3.435   0.411   0.689  0.0791  0.2320  0.2464
 2284SOL     OW16858   0.183   9.965   4.523 -0.2689 -0.2004  0.3248
 2284SOL    HW116859   0.248   9.999   4.455 -0.1442 -0.6760  0.2075
 2284SOL    HW216860   0.170   9.867   4.510 -2.0223  0.1335 -0.5036
 2285SOL     OW16861   7.728   2.830   4.676 -0.3883 -0.0431 -0.8346
 2285SOL    HW116862   7.640   2.853   4.718  0.6899  0.5138  1.2494
 2285SOL    HW216863   7.719   2.748   4.621 -2.3181  0.2755 -1.0220
 2286SOL     OW16864   2.611   2.449   0.212  0.4043 -0.5101 -0.2874
 2286SOL    HW116865   2.694   2.401   0.185  0.0564 -1.0003 -0.4895
 2286SOL    HW216866   2.547   2.453   0.135  0.6562  0.7863 -0.4549
 2287SOL     OW16867   1.971   9.140   4.147 -0.5471 -0.1025 -0.0888
 2287SOL    HW116868   1.998   9.082   4.224 -1.4297 -0.4880 -0.0696
 2287SOL    HW216869   1.920   9.219   4.180 -1.6395 -0.6959 -0.3508
 2288SOL     OW16870   3.425   0.752   0.752 -0.4657 -0.2071  0.0206
 2288SOL    HW116871   3.397   0.657   0.735 -0.4134 -0.1018 -0.6631
 2288SOL    HW216872   3.359   0.814   0.709 -0.5267  0.0680  0.5105
 2290SOL     OW16873   9.336   0.322   4.723 -0.2647 -0.2838  0.1494
 2290SOL    HW116874   9.347   0.347   4.626  3.0201 -0.9090  0.2983
 2290SOL    HW216875   9.332   0.222   4.731  0.1883 -0.2580  0.7036
 2291SOL     OW16876   9.362   7.108   3.203 -0.0865  0.1066 -0.2660
 2291SOL    HW116877   9.264   7.111   3.225 -0.0480  1.1286 -0.2150
 2291SOL    HW216878   9.414   7.146   3.279  0.3279 -0.1472 -0.4270
 2292SOL     OW16879   1.973   5.782   1.540 -0.4079  0.2290 -0.3112
 2292SOL    HW116880   2.030   5.855   1.578  0.2209 -0.1856 -0.4537
 2292SOL    HW216881   1.890   5.822   1.501  0.4711  0.9969 -1.4193
 2293SOL     OW16882   4.367   9.812   0.864  0.2639 -0.2906  0.3625
 2293SOL    HW116883   4.308   9.816   0.783  0.2959 -0.5715  0.3233
 2293SOL    HW216884   4.344   9.887   0.926  0.0085 -0.2751  0.2505
 2294SOL     OW16885   3.351   0.524   5.301  0.3777  0.5128 -0.1675
 2294SOL    HW116886   3.346   0.512   5.202  2.3211  2.1476 -0.4836
 2294SOL    HW216887   3.261   0.552   5.336 -0.2530  0.1742 -1.4833
 2295SOL     OW16888   8.402   3.414   5.931  0.6526  0.2599 -0.8761
 2295SOL    HW116889   8.317   3.377   5.894  0.0585 -0.3517  1.0546
 2295SOL    HW216890   8.458   3.340   5.967  1.0828  0.8802 -0.2703
 2298SOL     OW16891   8.978   9.141   6.127 -0.8150 -0.0895  0.4857
 2298SOL    HW116892   8.978   9.236   6.095  0.1850  0.5244  2.2414
 2298SOL    HW216893   8.999   9.139   6.225  0.2868 -2.2034  0.2359
 2299SOL     OW16894   4.483   8.689   5.718 -0.2199 -0.1954  0.2958
 2299SOL    HW116895   4.458   8.638   5.636 -0.1344  1.1402 -0.5808
 2299SOL    HW216896   4.401   8.708   5.771 -0.4872  0.2830 -0.2812
 2302SOL     OW16897   1.900   7.438   2.161  0.3185  0.4685 -0.1625
 2302SOL    HW116898   1.851   7.378   2.098 -1.9227  1.3843  0.6696
 2302SOL    HW216899   1.933   7.385   2.239 -1.7139  0.2700  0.6063
 2303SOL     OW16900   8.911   4.341   3.399  0.0777 -0.2434  0.0711
 2303SOL    HW116901   8.840   4.319   3.331 -1.1626 -1.1737  1.6420
 2303SOL    HW216902   8.905   4.438   3.423  0.1595 -0.0330 -0.7229
 2304SOL     OW16903   2.481   4.853   4.508 -0.2010  0.2190  0.3806
 2304SOL    HW116904   2.503   4.856   4.410 -3.1711 -0.7743 -0.3742
 2304SOL    HW216905   2.420   4.929   4.531 -2.6478 -1.7709  0.5939
 2306SOL     OW16906   0.055   7.209   5.665 -0.5681  0.3000 -0.7730
 2306SOL    HW116907  -0.025   7.268   5.677 -0.6651 -0.2925  1.8032
 2306SOL    HW216908   0.040   7.147   5.588 -1.5544  1.8489 -1.8485
 2307SOL     OW16909   3.555   0.956   5.918 -0.1526 -0.1198 -0.1537
 2307SOL    HW116910   3.601   0.934   6.004 -0.5317 -1.1507 -0.1973
 2307SOL    HW216911   3.463   0.915   5.919 -0.0520 -0.3794 -1.1615
 2308SOL     OW16912   0.905   1.311   3.739  0.3483  0.4399  0.0462
 2308SOL    HW116913   0.928   1.348   3.649  0.0762 -0.5064 -0.4166
 2308SOL    HW216914   0.981   1.327   3.802  0.9296  0.2623 -0.6057
 2309SOL     OW16915   2.783   2.550   1.089 -0.5374  0.4165 -0.2123
 2309SOL    HW116916   2.872   2.511   1.067 -1.6477 -2.0135 -0.6447
 2309SOL    HW216917   2.756   2.522   1.181 -1.2831  0.2831 -0.4631
 2310SOL     OW16918   3.491   5.842   1.640  0.0970 -0.2339 -0.0282
 2310SOL    HW116919   3.392   5.833   1.630 -0.1522  1.9815  0.1216
 2310SOL    HW216920   3.513   5.938   1.659  2.2312 -0.8046  0.4241
 2311SOL     OW16921   5.563   3.838   0.336  0.1615  0.1007  0.4720
 2311SOL    HW116922   5.589   3.823   0.432  0.4888 -0.7781  0.2565
 2311SOL    HW216923   5.540   3.750   0.295  0.8322  0.3777 -0.4970
 2312SOL     OW16924   8.089   9.234   1.549 -0.3611  0.0182  0.7788
 2312SOL    HW116925   8.001   9.188   1.560 -0.1633 -0.8112 -0.9423
 2312SOL    HW216926   8.076   9.321   1.502 -0.3934  0.4222  1.5343
 2313SOL     OW16927   6.608   1.044   2.259  0.4465 -0.4840 -0.3279
 2313SOL    HW116928   6.542   0.969   2.248 -0.6677  0.4786 -0.3566
 2313SOL    HW216929   6.585   1.096   2.341  1.4774 -0.4316 -0.0717
 2315SOL     OW16930   1.805   4.653   6.185  0.7694  0.1745  0.1769
 2315SOL    HW116931   1.845   4.727   6.132  1.0382  0.2658  0.5055
 2315SOL    HW216932   1.877   4.592   6.218  0.4670 -0.7510 -0.8693
 2316SOL     OW16933   4.390   7.518   1.783  0.3636  0.0427 -0.4691
 2316SOL    HW116934   4.368   7.475   1.870 -0.3300 -1.3988 -1.3306
 2316SOL    HW216935   4.312   7.573   1.751  0.5665  0.4619 -0.2453
 2318SOL     OW16936   7.476   1.333   6.375 -0.4755  0.1932  0.1411
 2318SOL    HW116937   7.472   1.341   6.276 -0.1375 -3.7273 -0.2989
 2318SOL    HW216938   7.558   1.380   6.410  0.8717 -0.6803 -1.7667
 2319SOL     OW16939   2.275   1.053   1.046  0.2427  0.0128 -0.3734
 2319SOL    HW116940   2.306   1.146   1.028 -0.5022  0.3047 -0.1884
 2319SOL    HW216941   2.244   1.045   1.141  1.2966 -0.7089 -0.0879
 2320SOL     OW16942   8.188   6.894   4.314 -0.0587  0.2314  0.5174
 2320SOL    HW116943   8.244   6.924   4.236  0.6947  0.2329  1.0518
 2320SOL    HW216944   8.183   6.794   4.314 -0.5627  0.2549  0.1217
 2322SOL     OW16945   8.932   1.394   1.905  0.1295 -0.2491  0.0173
 2322SOL    HW116946   8.925   1.479   1.958  0.4200  0.3145 -0.8534
 2322SOL    HW216947   8.845   1.376   1.860  0.2855 -0.0473 -0.3633
 2323SOL     OW16948   9.154   6.814   1.871 -0.1471 -0.1329 -0.2159
 2323SOL    HW116949   9.110   6.739   1.921  1.3770 -1.8027 -1.2950
 2323SOL    HW216950   9.179   6.887   1.935  0.4864 -1.6092  1.2669
 2324SOL     OW16951   4.000   0.600   1.204  0.2090  0.1692  0.8087
 2324SOL    HW116952   3.953   0.618   1.118  1.2769 -1.2199 -0.1110
 2324SOL    HW216953   4.098   0.616   1.192  0.8154 -3.0987  0.7848
 2325SOL     OW16954   5.818   9.685   5.593 -0.4205  0.3493 -0.7398
 2325SOL    HW116955   5.888   9.749   5.562 -0.4741  0.6152 -0.3305
 2325SOL    HW216956   5.824   9.675   5.693  1.6499 -2.7621 -1.1263
 2326SOL     OW16957   7.151   3.710   2.438  0.2017  0.4637  0.2601
 2326SOL    HW116958   7.113   3.685   2.349  0.8743 -1.1540  0.3977
 2326SOL    HW216959   7.162   3.809   2.444 -1.1195  0.6959 -0.9284
 2327SOL     OW16960   4.693   5.951   1.683 -0.3273  0.5701  0.0339
 2327SOL    HW116961   4.599   5.934   1.652 -0.6144  0.0675  1.1644
 2327SOL    HW216962   4.692   6.023   1.752  0.1222  0.5341  0.0762
 2328SOL     OW16963   0.583   8.943   3.637  0.2324 -0.4561 -0.1313
 2328SOL    HW116964   0.627   8.867   3.591  1.8834  0.7734 -0.6146
 2328SOL    HW216965   0.539   9.002   3.569 -1.9280 -1.5026  0.3185
 2330SOL     OW16966   4.576   4.188   2.861 -0.3842  0.3860 -0.2088
 2330SOL    HW116967   4.541   4.182   2.768 -1.8145  2.9689  0.1001
 2330SOL    HW216968   4.502   4.167   2.926  0.4412 -0.7998  0.3702
 2331SOL     OW16969   9.831   0.715   3.050 -0.4752 -0.5524  0.2762
 2331SOL    HW116970   9.749   0.658   3.040 -0.7134 -0.1315 -0.1946
 2331SOL    HW216971   9.836   0.748   3.144 -0.5970 -0.9606  0.4265
 2332SOL     OW16972   1.933   1.685   1.360 -0.1651  0.0762  0.2922
 2332SOL    HW116973   1.978   1.596   1.351  1.0908  0.8330 -1.0035
 2332SOL    HW216974   1.834   1.671   1.367  0.2753 -1.7011  4.6903
 2333SOL     OW16975   8.072   2.982   4.946  0.2267 -0.1118  0.0684
 2333SOL    HW116976   8.056   3.074   4.982 -0.6689 -0.0416 -0.4998
 2333SOL    HW216977   8.089   2.919   5.023 -2.9979 -0.2288  0.7708
 2334SOL     OW16978   1.224   1.858   1.943 -0.1034 -0.2463 -0.1883
 2334SOL    HW116979   1.240   1.767   1.980  0.2664  0.2184  0.8141
 2334SOL    HW216980   1.142   1.897   1.986  0.1926  0.2059 -0.0312
 2335SOL     OW16981   2.626   6.634   4.261 -0.0165  0.0200  0.1452
 2335SOL    HW116982   2.615   6.681   4.173 -0.6140  1.4201  0.9356
 2335SOL    HW216983   2.549   6.659   4.321 -0.2968 -1.9380  0.6111
 2337SOL     OW16984   7.683   3.682   2.983  0.4336 -0.0430  0.2689
 2337SOL    HW116985   7.773   3.683   2.940 -0.4113  1.3579 -1.5274
 2337SOL    HW216986   7.665   3.771   3.025  0.1295 -0.5222  1.1683
 2338SOL     OW16987   0.094   1.848   3.220 -0.0915  0.7007  0.6679
 2338SOL    HW116988   0.115   1.877   3.313 -1.7127 -0.8135  1.5636
 2338SOL    HW216989  -0.006   1.845   3.208  0.0730 -0.6922 -0.5689
 2339SOL     OW16990   3.645   6.135   1.461 -0.0714  0.1696  0.9196
 2339SOL    HW116991   3.578   6.131   1.387  1.1196  0.2434 -0.1943
 2339SOL    HW216992   3.600   6.120   1.548 -1.6197  0.8380  0.2432
 2340SOL     OW16993   1.370   9.358   2.601 -0.0757 -0.4742 -0.1548
 2340SOL    HW116994   1.364   9.300   2.682  1.2519 -1.9658 -1.0728
 2340SOL    HW216995   1.301   9.330   2.534  0.7688 -1.2378 -0.7256
 2343SOL     OW16996   3.760   9.734   4.740 -0.2094 -0.1512  0.3446
 2343SOL    HW116997   3.745   9.811   4.678  1.4630 -1.9400 -2.3549
 2343SOL    HW216998   3.673   9.710   4.784 -2.1856 -0.8628 -3.7166
 2344SOL     OW16999   6.041   0.504   5.257  0.3039 -0.2085 -0.1899
 2344SOL    HW117000   6.076   0.564   5.329 -0.3534 -0.2411  0.1615
 2344SOL    HW217001   6.067   0.410   5.277 -0.0252 -0.2396  0.0997
 2345SOL     OW17002   1.554   4.704   4.935 -0.4290  0.1810 -0.0483
 2345SOL    HW117003   1.624   4.640   4.966 -1.1228 -0.5468  0.0163
 2345SOL    HW217004   1.534   4.687   4.838 -0.1870  0.6909 -0.1884
 2346SOL     OW17005   2.364   3.894   5.948 -0.2509  0.6552  0.4154
 2346SOL    HW117006   2.362   3.924   6.043 -0.4391 -2.8799  1.6285
 2346SOL    HW217007   2.271   3.870   5.919  0.1279 -0.5354  0.1513
 2347SOL     OW17008   0.014   2.797   5.717 -0.2746  0.3315 -0.2253
 2347SOL    HW117009   0.112   2.806   5.735 -0.2754  0.8430 -0.4753
 2347SOL    HW217010  -0.012   2.700   5.724  0.1956  0.2241  0.0878
 2348SOL     OW17011   6.901   8.804   4.580  0.0161 -0.2684  0.0777
 2348SOL    HW117012   6.978   8.864   4.602  0.7122 -0.6604 -1.2336
 2348SOL    HW217013   6.815   8.848   4.607  0.6801  0.2761  1.3202
 2349SOL     OW17014   3.863   5.117   0.497 -0.0646  0.3491 -0.8272
 2349SOL    HW117015   3.817   5.125   0.585 -0.6500 -2.2461 -0.8740
 2349SOL    HW217016   3.796   5.127   0.423  0.0697  0.3905 -0.9440
 2350SOL     OW17017   7.750   0.773   1.731 -0.1562 -0.0356 -0.1059
 2350SOL    HW117018   7.822   0.826   1.686  1.3700 -1.8602  0.1767
 2350SOL    HW217019   7.772   0.761   1.828 -1.8980  1.1992  0.4733
 2351SOL     OW17020   5.887   1.928   3.328 -0.2438 -0.1594  0.1756
 2351SOL    HW117021   5.986   1.931   3.343 -0.2731  0.4097  0.2806
 2351SOL    HW217022   5.858   2.012   3.283 -0.7029 -0.2567  0.2894
 2352SOL     OW17023   9.484   8.049   2.438  0.0582  0.3557 -0.1737
 2352SOL    HW117024   9.420   7.992   2.490 -1.6754  2.1043 -0.3613
 2352SOL    HW217025   9.495   8.138   2.483  0.0925  1.1451 -1.7171
 2353SOL     OW17026   2.757   7.395   2.570  0.0188  0.8458 -0.6483
 2353SOL    HW117027   2.701   7.386   2.487  1.3772 -1.0300 -1.3893
 2353SOL    HW217028   2.706   7.360   2.648  0.5225 -1.9301 -1.5052
 2354SOL     OW17029   4.839   1.820   0.412  0.3800 -0.4072  0.6358
 2354SOL    HW117030   4.923   1.801   0.463  0.6251  0.0422  0.4064
 2354SOL    HW217031   4.773   1.747   0.428  0.1893  0.0761  2.1557
 2355SOL     OW17032   3.650   4.109   1.783  0.2266 -0.8254 -0.1662
 2355SOL    HW117033   3.717   4.035   1.779  0.2538 -0.7048 -3.5612
 2355SOL    HW217034   3.695   4.196   1.760 -0.0623  0.1079  2.5990
 2356SOL     OW17035   1.103   3.559   2.075  0.1472  0.3293  0.1265
 2356SOL    HW117036   1.077   3.564   1.978 -1.1411  1.5446  0.5224
 2356SOL    HW217037   1.089   3.466   2.109 -0.1240  0.0839 -0.6452
 2357SOL     OW17038   2.819   9.335   0.207  0.2277  0.0460 -0.1738
 2357SOL    HW117039   2.873   9.263   0.166  0.8430 -0.6331  1.7662
 2357SOL    HW217040   2.761   9.297   0.279  0.4439  1.4263  0.7710
 2359SOL     OW17041   3.325   0.862   6.027  0.3044 -0.1164  0.6169
 2359SOL    HW117042   3.274   0.780   6.003  1.0362  0.4288 -3.0422
 2359SOL    HW217043   3.262   0.931   6.063 -0.2346 -2.3858  4.3100
 2360SOL     OW17044   4.141   6.189   1.149 -0.3091 -0.1120  0.3290
 2360SOL    HW117045   4.076   6.113   1.157 -0.8295  0.4297  1.3272
 2360SOL    HW217046   4.092   6.271   1.120 -0.1419  0.3864  1.4222
 2361SOL     OW17047   6.702   8.177   5.392  1.2478  0.8586  0.0220
 2361SOL    HW117048   6.733   8.084   5.414  2.6170  1.1730 -0.5843
 2361SOL    HW217049   6.753   8.243   5.447  0.3410  1.2747  0.3805
 2363SOL     OW17050   2.956   2.575   4.302  0.3762  0.3469  0.5329
 2363SOL    HW117051   3.008   2.491   4.317 -0.0418  0.2493  1.4976
 2363SOL    HW217052   2.949   2.593   4.204 -0.1283 -1.1098  0.2942
 2364SOL     OW17053   3.939   2.248   4.045  0.5404  0.0706  0.1966
 2364SOL    HW117054   3.866   2.260   4.112  0.6511 -0.0971  0.3444
 2364SOL    HW217055   3.908   2.283   3.956  0.8488  1.4701  0.6297
 2365SOL     OW17056   1.865   2.288   0.237 -0.0205 -0.4187 -0.3180
 2365SOL    HW117057   1.949   2.315   0.285  1.0019 -2.9635 -0.6286
 2365SOL    HW217058   1.787   2.300   0.297  1.1129 -2.4666  1.6378
 2366SOL     OW17059   0.215   8.761   0.121 -0.0785  0.4404 -0.4078
 2366SOL    HW117060   0.119   8.765   0.094 -0.2006 -0.8309 -0.1842
 2366SOL    HW217061   0.222   8.764   0.221  0.2673  3.1148 -0.4576
 2367SOL     OW17062   8.989   3.575   3.910 -0.2406 -0.2011  0.2960
 2367SOL    HW117063   9.044   3.628   3.974 -1.1767  2.4028 -0.9752
 2367SOL    HW217064   8.931   3.512   3.961  0.7837  0.0935  1.8707
 2368SOL     OW17065   9.584   4.058   4.801 -0.2589  0.3774  0.0753
 2368SOL    HW117066   9.486   4.059   4.821  0.0554  1.6188  1.6503
 2368SOL    HW217067   9.629   3.987   4.856 -0.1713  0.2464 -0.1628
 2369SOL     OW17068   0.345   7.683   5.235  0.2088  0.2082  0.0112
 2369SOL    HW117069   0.433   7.710   5.272 -0.3008  2.5895 -0.4027
 2369SOL    HW217070   0.353   7.668   5.136  0.9335 -3.2614  0.5581
 2373SOL     OW17071   4.792   0.163   1.124  0.1875  0.1360  0.3515
 2373SOL    HW117072   4.742   0.161   1.038  0.7956  0.2317 -0.0049
 2373SOL    HW217073   4.890   0.154   1.106  0.1808 -1.7633  1.1438
 2375SOL     OW17074   6.801   0.786   0.386 -0.2400 -0.0010  0.0504
 2375SOL    HW117075   6.867   0.860   0.378  0.0692 -0.1120  1.3852
 2375SOL    HW217076   6.745   0.801   0.468 -0.8486 -0.7098 -0.2346
 2377SOL     OW17077   6.359   3.060   0.904 -0.1159  0.1897 -0.9349
 2377SOL    HW117078   6.289   3.032   0.970  1.1104 -1.4846 -0.2924
 2377SOL    HW217079   6.321   3.129   0.842 -1.9264  0.2510  0.2006
 2378SOL     OW17080   5.292   5.242   0.601  0.1182 -0.0820 -0.2520
 2378SOL    HW117081   5.228   5.189   0.657  0.7884 -0.4310  0.1937
 2378SOL    HW217082   5.246   5.271   0.517 -0.5782 -0.4612 -0.0110
 2379SOL     OW17083   9.691   5.534   4.686 -0.6827  0.5024 -0.3353
 2379SOL    HW117084   9.665   5.626   4.654 -0.6273  0.7173  0.2237
 2379SOL    HW217085   9.757   5.494   4.623 -0.0888  1.1760 -0.1555
 2380SOL     OW17086   8.417   2.881   2.640 -0.5909 -0.2463  0.1680
 2380SOL    HW117087   8.484   2.820   2.683  0.6118  0.1932 -1.0202
 2380SOL    HW217088   8.406   2.854   2.544  0.0654  1.4681 -0.4068
 2381SOL     OW17089   8.846   6.606   0.911 -0.6872 -0.1580 -0.1463
 2381SOL    HW117090   8.858   6.695   0.956 -0.3090  0.3079 -1.1592
 2381SOL    HW217091   8.930   6.552   0.921 -0.4969  0.0628 -0.5506
 2382SOL     OW17092   8.808   2.887   1.793  0.3094  0.2322 -0.4799
 2382SOL    HW117093   8.714   2.896   1.826  0.1563  0.3207 -0.9330
 2382SOL    HW217094   8.871   2.929   1.859 -0.1151  1.7754 -1.0300
 2384SOL     OW17095   6.768   0.570   0.027  0.0108  0.2019  0.1682
 2384SOL    HW117096   6.729   0.662   0.026  0.0486  0.2097 -1.1219
 2384SOL    HW217097   6.843   0.565  -0.039  1.6795 -0.0329  2.0459
 2385SOL     OW17098   1.200   3.664   4.463  0.3210  0.3626 -0.2324
 2385SOL    HW117099   1.212   3.732   4.535 -0.2135  0.5637 -0.3246
 2385SOL    HW217100   1.107   3.628   4.467  0.5060 -0.1279 -0.3876
 2386SOL     OW17101   6.376   9.196   5.484 -0.2957 -0.5341  0.3033
 2386SOL    HW117102   6.463   9.207   5.436 -0.9298 -0.4828 -0.8691
 2386SOL    HW217103   6.380   9.242   5.572 -0.3138  2.5500 -1.2456
 2387SOL     OW17104   0.981   3.796   5.083 -0.1642 -0.2910  0.4323
 2387SOL    HW117105   0.950   3.858   5.155 -0.2382  0.2985 -0.0992
 2387SOL    HW217106   0.904   3.741   5.051 -0.5448  0.7125 -0.4304
 2388SOL     OW17107   1.558   3.297   0.873 -0.0573 -0.6494  0.5860
 2388SOL    HW117108   1.516   3.224   0.819  1.3898  0.9292 -2.8748
 2388SOL    HW217109   1.646   3.267   0.908  1.6543  0.0821 -2.8455
 2389SOL     OW17110   5.911   5.645   1.113 -0.6263  0.3088 -0.2595
 2389SOL    HW117111   5.945   5.560   1.072  2.9183  1.1452  0.7423
 2389SOL    HW217112   5.909   5.717   1.043  1.0228  0.5858 -0.0420
 2391SOL     OW17113   5.695   0.621   3.778 -0.2588  0.3034  0.3917
 2391SOL    HW117114   5.689   0.677   3.695 -1.2010  0.2834  0.4355
 2391SOL    HW217115   5.682   0.678   3.859  0.4186  0.2829  0.5159
 2392SOL     OW17116   6.552   1.439   5.669  0.2937 -0.4780 -0.6271
 2392SOL    HW117117   6.593   1.516   5.620  0.5528 -0.0972  0.1764
 2392SOL    HW217118   6.454   1.433   5.647  0.4309 -0.3723 -1.2614
 2394SOL     OW17119   2.458   8.035   4.277  0.5348  0.3009  0.4137
 2394SOL    HW117120   2.430   7.951   4.230 -0.4547  2.2593 -2.6849
 2394SOL    HW217121   2.380   8.074   4.325  0.1927  0.9983 -0.6788
 2395SOL     OW17122   0.713   9.795   3.558  0.3356 -0.1980 -0.3718
 2395SOL    HW117123   0.688   9.720   3.496 -0.6062 -0.2615  0.0752
 2395SOL    HW217124   0.725   9.879   3.505 -1.9904  0.0951 -0.4932
 2396SOL     OW17125   8.812   4.911   4.940  0.3607 -0.0184 -0.4007
 2396SOL    HW117126   8.848   4.834   4.992  0.4599 -0.4174 -1.0597
 2396SOL    HW217127   8.886   4.977   4.923 -0.0180  0.9017  1.3472
 2397SOL     OW17128   8.688   4.334   3.222  0.6384 -1.0573 -0.2812
 2397SOL    HW117129   8.681   4.317   3.124  1.4657 -1.3548 -0.2883
 2397SOL    HW217130   8.654   4.426   3.242  1.7040 -0.4903 -1.0264
 2398SOL     OW17131   4.165   6.139   1.493 -0.1004  0.1485 -0.4274
 2398SOL    HW117132   4.074   6.099   1.482  0.1910 -0.9625  1.0191
 2398SOL    HW217133   4.230   6.091   1.433  0.2736 -1.7100  1.3986
 2399SOL     OW17134   7.356   2.341   6.107  0.4274  0.4573  0.0919
 2399SOL    HW117135   7.267   2.315   6.068  1.2718 -1.1646 -0.8244
 2399SOL    HW217136   7.363   2.441   6.111 -0.0504  0.6984 -3.2204
 2402SOL     OW17137   7.682   9.505   2.192  0.2299  0.3005  0.1799
 2402SOL    HW117138   7.589   9.469   2.195  0.5947 -0.6146  0.9329
 2402SOL    HW217139   7.680   9.600   2.161 -0.6926 -0.5494 -2.5218
 2403SOL     OW17140   9.605   6.131   0.731 -0.3110  0.0682 -0.0650
 2403SOL    HW117141   9.672   6.138   0.804  0.4448 -3.1905 -0.3617
 2403SOL    HW217142   9.635   6.184   0.652  1.8097 -1.1019 -0.0749
 2404SOL     OW17143   0.144   8.350   2.818  0.0839 -0.0108 -0.3065
 2404SOL    HW117144   0.044   8.345   2.815  0.1027 -0.0267 -1.1422
 2404SOL    HW217145   0.182   8.264   2.784  0.3810 -0.5102  1.2745
 2406SOL     OW17146   8.404   7.560   4.082  0.0657  0.0687 -0.2505
 2406SOL    HW117147   8.448   7.649   4.090  0.3145  0.0446 -1.3766
 2406SOL    HW217148   8.472   7.488   4.093  0.3218  0.0325 -2.0637
 2407SOL     OW17149   9.881   3.743   3.463 -1.0923 -0.0605  0.0420
 2407SOL    HW117150   9.789   3.714   3.487 -0.0307 -0.4673  3.9836
 2407SOL    HW217151   9.902   3.831   3.506 -0.0810  0.7243 -1.9452
 2408SOL     OW17152   2.118   8.590   6.416  0.6002 -0.0141  0.8812
 2408SOL    HW117153   2.107   8.550   6.325 -1.2505  1.3510  0.4746
 2408SOL    HW217154   2.063   8.539   6.482  0.3756  0.2178  0.8715
 2409SOL     OW17155   8.758   5.284   5.801 -0.9483 -0.2758 -0.2477
 2409SOL    HW117156   8.821   5.213   5.833 -0.5319  0.0731 -0.2830
 2409SOL    HW217157   8.719   5.256   5.713 -0.2133 -0.1240 -0.6258
 2411SOL     OW17158   1.838   6.086   6.007 -0.1016 -0.3953  0.1821
 2411SOL    HW117159   1.863   5.990   5.994 -0.7369 -0.3339 -1.6165
 2411SOL    HW217160   1.918   6.144   5.991 -0.1734 -0.5161 -0.6519
 2412SOL     OW17161   8.268   5.865   0.752 -0.4203  0.0718  0.0001
 2412SOL    HW117162   8.314   5.777   0.767 -2.5432 -0.7778  1.8282
 2412SOL    HW217163   8.171   5.849   0.734 -0.5490  1.9734 -1.0709
 2413SOL     OW17164   2.319   5.157   3.703 -0.3273 -0.0487  0.4154
 2413SOL    HW117165   2.274   5.210   3.775 -1.0860  1.1398 -0.9070
 2413SOL    HW217166   2.413   5.190   3.691 -0.2083 -0.2326  0.8384
 2414SOL     OW17167   2.695   3.699   5.622 -0.3175  0.5952  0.3249
 2414SOL    HW117168   2.598   3.723   5.622 -0.5666 -0.4066  0.6727
 2414SOL    HW217169   2.749   3.780   5.642 -1.0958  1.1070  0.3801
 2415SOL     OW17170   9.932   8.715   3.840  0.1537  0.3202  0.2009
 2415SOL    HW117171   9.847   8.664   3.855 -0.7439  1.2945 -1.3380
 2415SOL    HW217172  10.003   8.653   3.807 -0.0412 -0.4519  1.2119
 2416SOL     OW17173   9.459   9.550   4.772  0.0786 -0.2574  0.4657
 2416SOL    HW117174   9.437   9.494   4.692  0.4862  0.4981 -0.1940
 2416SOL    HW217175   9.390   9.537   4.842 -0.2944 -0.9298 -0.0210
 2418SOL     OW17176   1.193   1.151   0.552  0.1045 -0.2357  0.3474
 2418SOL    HW117177   1.176   1.060   0.516  1.6201  0.0632 -1.1884
 2418SOL    HW217178   1.244   1.144   0.638 -0.5709 -0.8551  0.6993
 2419SOL     OW17179   1.945   4.246   4.597 -0.1772 -0.4336  0.0700
 2419SOL    HW117180   1.904   4.219   4.684  2.0889  2.7296  2.2138
 2419SOL    HW217181   2.041   4.217   4.595  0.5407  1.8864 -0.1997
 2420SOL     OW17182   1.718   0.793   1.697  0.3182 -0.0359 -0.2616
 2420SOL    HW117183   1.625   0.764   1.674  1.5664 -3.3710 -1.4761
 2420SOL    HW217184   1.751   0.739   1.774  1.3199  0.9732  0.0150
 2421SOL     OW17185   1.769   7.383   1.111  0.2415 -0.4705 -1.2215
 2421SOL    HW117186   1.797   7.436   1.191  1.1914  0.4119 -2.1142
 2421SOL    HW217187   1.730   7.296   1.140  1.2592 -0.4743  0.1706
 2423SOL     OW17188   2.638   4.430   1.096  0.3569  0.7933  0.7656
 2423SOL    HW117189   2.637   4.481   1.182  1.7293  0.3513  1.0519
 2423SOL    HW217190   2.676   4.487   1.024  1.3626  0.3953  0.9644
 2424SOL     OW17191   1.094   4.561   3.226 -0.2595 -0.1296 -0.3545
 2424SOL    HW117192   1.165   4.572   3.296 -0.5202 -0.7327  0.0121
 2424SOL    HW217193   1.075   4.649   3.184 -0.4944  0.3427  0.7244
 2426SOL     OW17194   3.381   1.987   4.147 -0.1101 -0.1580  0.2792
 2426SOL    HW117195   3.361   2.076   4.107  0.6710 -0.0571  0.1098
 2426SOL    HW217196   3.407   1.923   4.075  1.9029  0.1873  0.6588
 2427SOL     OW17197   0.566   2.101   5.073 -0.0120  0.1949  0.0528
 2427SOL    HW117198   0.493   2.099   5.141  0.4462 -0.4703  0.5243
 2427SOL    HW217199   0.532   2.144   4.989 -0.5456  1.0984  0.7276
 2428SOL     OW17200   8.180   4.663   2.251 -0.0651  0.1771 -0.5305
 2428SOL    HW117201   8.107   4.600   2.226 -0.8078  0.4882  0.8246
 2428SOL    HW217202   8.172   4.746   2.196 -0.6980  0.1908 -0.4216
 2430SOL     OW17203   2.756   4.397   0.524  0.2176  0.0203 -0.3341
 2430SOL    HW117204   2.811   4.335   0.580  0.6374  0.8712  0.2198
 2430SOL    HW217205   2.685   4.346   0.476 -1.9717 -0.3730  3.1827
 2431SOL     OW17206   6.725   2.118   1.185  0.0343 -0.1346 -0.2349
 2431SOL    HW117207   6.714   2.217   1.193  2.6066  0.2478 -1.0180
 2431SOL    HW217208   6.649   2.080   1.132 -1.7356  1.1956  1.2966
 2432SOL     OW17209   8.609   2.371   5.838  0.3805 -0.0735 -0.1684
 2432SOL    HW117210   8.624   2.301   5.907 -1.2807  1.1324  1.4626
 2432SOL    HW217211   8.637   2.336   5.748 -0.5372 -2.8735  0.5908
 2434SOL     OW17212   8.109   1.530   6.024  0.2968 -0.1642 -0.0544
 2434SOL    HW117213   8.015   1.495   6.019  0.8470 -1.5370 -1.4139
 2434SOL    HW217214   8.115   1.616   5.974 -0.1690 -0.2665 -0.2877
 2436SOL     OW17215   8.680   6.503   6.017  1.0344 -0.3629 -0.3804
 2436SOL    HW117216   8.774   6.531   5.998  0.5444  1.3118 -0.3955
 2436SOL    HW217217   8.624   6.584   6.034 -0.0829 -1.4301  1.1445
 2437SOL     OW17218   7.505   4.349   2.100 -0.0165 -0.1438 -0.0669
 2437SOL    HW117219   7.574   4.403   2.052  0.8844 -1.6838 -0.5384
 2437SOL    HW217220   7.463   4.405   2.172  0.9519  1.1401 -0.4757
 2438SOL     OW17221   1.082   1.150   5.049  0.2616 -0.4506 -0.4110
 2438SOL    HW117222   0.992   1.107   5.058  0.2456 -0.2537  0.3823
 2438SOL    HW217223   1.101   1.168   4.952 -0.9963  0.4713 -0.4935
 2439SOL     OW17224   2.591   2.905   2.090  0.1097 -0.0204  0.3361
 2439SOL    HW117225   2.597   2.913   1.991 -0.6415 -1.3260  0.1823
 2439SOL    HW217226   2.543   2.985   2.127  0.5302  0.5425 -0.3326
 2440SOL     OW17227   3.582   3.172   4.660  1.0595  0.0452 -0.3562
 2440SOL    HW117228   3.557   3.084   4.619  1.4228  0.3419 -1.2105
 2440SOL    HW217229   3.503   3.210   4.708  0.9117 -0.7668  0.0557
 2441SOL     OW17230   2.294   3.950   3.096 -0.5744  0.0220  0.3880
 2441SOL    HW117231   2.225   3.967   3.026  0.4507 -0.9480 -0.8732
 2441SOL    HW217232   2.382   3.931   3.053  1.1239  3.7627  2.0033
 2443SOL     OW17233   9.073   1.072   4.919  0.2065 -0.3485 -0.0208
 2443SOL    HW117234   9.025   1.027   4.844  1.3506 -0.9193 -0.4111
 2443SOL    HW217235   9.006   1.120   4.977 -1.0124 -2.3070  0.2475
 2445SOL     OW17236   3.709   3.731   4.373  0.4663 -0.5185  0.2820
 2445SOL    HW117237   3.733   3.746   4.277  0.9544 -1.2378  0.2947
 2445SOL    HW217238   3.610   3.745   4.384  0.2938 -1.1310 -0.4585
 2446SOL     OW17239   2.434   8.770   2.069  0.0426  0.0600  0.2056
 2446SOL    HW117240   2.530   8.790   2.089  0.6328 -1.5190 -0.9877
 2446SOL    HW217241   2.376   8.818   2.135  1.5811  2.0490  0.1621
 2448SOL     OW17242   4.606   8.918   4.529  0.4668 -0.2388 -0.6877
 2448SOL    HW117243   4.518   8.949   4.565 -0.0819 -1.4774 -0.9278
 2448SOL    HW217244   4.677   8.928   4.599 -0.0150  0.0727 -0.2434
 2449SOL     OW17245   0.643   7.911   6.066 -0.4115 -0.5242  0.1678
 2449SOL    HW117246   0.638   7.880   5.970  0.7464 -0.1525 -0.0196
 2449SOL    HW217247   0.609   7.839   6.126 -0.5754 -0.9943 -0.4841
 2450SOL     OW17248   2.260   4.562   3.311 -0.1755 -0.5317  0.1047
 2450SOL    HW117249   2.237   4.542   3.406  1.7962  0.8337  0.9134
 2450SOL    HW217250   2.208   4.642   3.281  0.7042  0.2857  0.7180
 2451SOL     OW17251   7.489   1.942   2.643 -0.2412  0.1021 -0.1976
 2451SOL    HW117252   7.494   2.004   2.721  2.8816 -0.3190 -0.0266
 2451SOL    HW217253   7.496   1.847   2.675  2.3490 -0.0308 -1.0375
 2452SOL     OW17254   0.666   5.285   0.241  0.3347  0.2333 -0.4276
 2452SOL    HW117255   0.722   5.368   0.231 -0.9551  1.2612  0.6089
 2452SOL    HW217256   0.613   5.271   0.158  2.1371 -0.7905 -1.4503
 2453SOL     OW17257   2.058   2.992   5.573  0.3579 -0.0062  0.4521
 2453SOL    HW117258   2.148   3.036   5.574  0.2735  0.1540  1.3468
 2453SOL    HW217259   2.069   2.893   5.575  0.5034  0.0300  1.8073
 2454SOL     OW17260   4.306   4.897   2.316  0.3795  0.2586  0.2198
 2454SOL    HW117261   4.274   4.869   2.406 -0.6771  0.1794 -0.1757
 2454SOL    HW217262   4.398   4.936   2.324 -0.0715  1.0791  1.4491
 2455SOL     OW17263   2.929   7.672   3.904 -0.0509  0.1697  0.0153
 2455SOL    HW117264   2.946   7.644   3.999  1.6180 -0.7036 -0.5195
 2455SOL    HW217265   2.842   7.720   3.898 -0.1113  0.3348  2.0182
 2456SOL     OW17266   0.217   1.690   1.449 -0.2121 -0.0021 -0.4300
 2456SOL    HW117267   0.153   1.766   1.437  0.2425  0.7765  1.9296
 2456SOL    HW217268   0.166   1.604   1.454 -0.7865  0.2132 -2.2710
 2457SOL     OW17269   4.025   3.283   3.026 -0.0946 -0.1259  0.3407
 2457SOL    HW117270   4.120   3.310   3.009 -0.1871 -0.1516 -0.2447
 2457SOL    HW217271   4.008   3.193   2.987 -0.3229 -0.1818  0.5678
 2458SOL     OW17272   2.024   9.024   3.367  0.3568  0.0346 -0.1973
 2458SOL    HW117273   2.124   9.028   3.355  0.2735  0.5279 -0.7321
 2458SOL    HW217274   1.985   9.114   3.347 -0.0621  0.1943  1.2535
 2459SOL     OW17275   8.944   6.533   5.981 -0.0604 -0.1458  0.2748
 2459SOL    HW117276   8.973   6.451   5.931  0.4334 -0.9162  1.8040
 2459SOL    HW217277   9.021   6.596   5.990 -0.0366 -0.1949  0.4204
 2460SOL     OW17278   8.344   4.597   3.165  0.1448 -0.7588 -0.4404
 2460SOL    HW117279   8.296   4.509   3.165  0.0018 -0.7209  2.4540
 2460SOL    HW217280   8.277   4.671   3.168  0.2948 -0.6603  1.0486
 2461SOL     OW17281   8.002   3.157   4.220  0.0038 -0.1372  0.1984
 2461SOL    HW117282   7.930   3.094   4.248 -0.5345  0.1613 -0.5092
 2461SOL    HW217283   8.087   3.106   4.208 -0.5921 -0.8545 -1.0630
 2462SOL     OW17284   1.077   3.776   6.329 -0.6825 -0.2849  0.5945
 2462SOL    HW117285   1.088   3.686   6.373 -2.3690 -0.4609  0.6924
 2462SOL    HW217286   1.164   3.803   6.287  0.0804 -1.5728  1.2906
 2463SOL     OW17287   9.105   2.703   3.548 -0.0230 -0.2457  0.4477
 2463SOL    HW117288   9.066   2.782   3.501 -0.6042 -0.6960  0.1639
 2463SOL    HW217289   9.035   2.659   3.603  0.1442 -0.8980  0.1515
 2464SOL     OW17290   9.830   3.799   2.908  0.1357  0.2665 -0.4220
 2464SOL    HW117291   9.903   3.763   2.967  1.0327 -0.3510 -1.8798
 2464SOL    HW217292   9.782   3.722   2.865  0.3928  0.7375 -1.5619
 2465SOL     OW17293   2.138   5.897   4.468 -0.6044 -0.6594 -0.3308
 2465SOL    HW117294   2.102   5.971   4.410  0.6930 -0.7386 -1.2416
 2465SOL    HW217295   2.189   5.937   4.544 -0.2199 -0.6138 -0.6138
 2466SOL     OW17296   5.684   4.056   1.767 -0.3126 -0.1830  0.3801
 2466SOL    HW117297   5.644   4.092   1.682 -0.1576 -0.3387  0.2427
 2466SOL    HW217298   5.615   4.004   1.817 -0.2106 -0.6489  0.0279
 2467SOL     OW17299   3.253   9.791   0.619  0.3366  0.4476  0.4333
 2467SOL    HW117300   3.232   9.694   0.605  1.6460  0.0303  1.2364
 2467SOL    HW217301   3.254   9.838   0.531 -0.6785 -0.1775  0.0676
 2469SOL     OW17302   8.350   3.959   6.339  0.4561 -0.3099 -0.1568
 2469SOL    HW117303   8.263   3.961   6.388  0.8888  2.5635  0.5283
 2469SOL    HW217304   8.332   3.960   6.240 -0.2956 -0.8775 -0.0301
 2470SOL     OW17305   1.832   2.396   2.590 -0.3032  0.3485  0.0493
 2470SOL    HW117306   1.821   2.305   2.631 -0.0723 -0.3814 -1.4550
 2470SOL    HW217307   1.871   2.458   2.657 -0.6088 -0.6180  1.1557
 2471SOL     OW17308   7.862   2.263   5.790 -0.1360 -0.0171  0.1195
 2471SOL    HW117309   7.837   2.166   5.794  0.6632 -0.1776  2.1656
 2471SOL    HW217310   7.957   2.273   5.820  0.1713  1.2773 -1.2514
 2472SOL     OW17311   8.160   8.114   5.494  0.2373  0.2486  0.5039
 2472SOL    HW117312   8.104   8.081   5.418  3.0153 -0.5024 -1.2918
 2472SOL    HW217313   8.112   8.189   5.540 -2.2252 -0.3733 -0.9307
 2473SOL     OW17314   1.025   3.195   5.730  0.0212  0.0342  0.1745
 2473SOL    HW117315   1.099   3.262   5.734 -0.1529  0.2633 -0.4296
 2473SOL    HW217316   1.020   3.146   5.817  1.4812 -0.6196 -0.0869
 2476SOL     OW17317   1.099   1.610   0.577 -0.2078  0.5274 -0.0135
 2476SOL    HW117318   1.198   1.612   0.569 -0.2747  0.6332 -0.8751
 2476SOL    HW217319   1.073   1.608   0.674  0.6436 -0.5793  0.2005
 2477SOL     OW17320   7.806   2.924   2.660  0.0498 -0.0158  0.3226
 2477SOL    HW117321   7.712   2.905   2.686  0.2108 -0.8719  0.2813
 2477SOL    HW217322   7.866   2.906   2.738  0.1092  1.2511  0.5883
 2478SOL     OW17323   1.287   4.277   0.531 -0.1404 -0.1342 -0.3381
 2478SOL    HW117324   1.295   4.352   0.596  0.9768  0.8388 -1.5703
 2478SOL    HW217325   1.325   4.305   0.442 -2.5747 -1.0587 -1.7230
 2479SOL     OW17326   3.700   5.585   2.311 -0.3311 -0.4877 -0.0524
 2479SOL    HW117327   3.735   5.558   2.401  2.2969  1.2708 -0.5109
 2479SOL    HW217328   3.684   5.503   2.256  2.3875 -1.4318  0.4600
 2480SOL     OW17329   8.614   2.823   3.613 -0.3682 -0.3215  0.1345
 2480SOL    HW117330   8.616   2.759   3.536 -1.4292  0.3694 -0.4680
 2480SOL    HW217331   8.546   2.792   3.680  0.2675 -0.6978  0.6211
 2481SOL     OW17332   3.732   8.722   0.197 -0.4135 -0.7274 -0.4859
 2481SOL    HW117333   3.808   8.781   0.168 -1.2990  0.4746 -0.3732
 2481SOL    HW217334   3.705   8.664   0.121  1.3109 -1.9220 -0.2203
 2482SOL     OW17335   9.511   7.479   3.830  0.1215 -0.0648  0.3613
 2482SOL    HW117336   9.422   7.433   3.826  0.6293 -0.9497 -1.0695
 2482SOL    HW217337   9.583   7.413   3.813  1.0527  0.7264  1.1724
 2484SOL     OW17338   1.992   7.644   5.612 -0.0690 -0.0617  0.5146
 2484SOL    HW117339   1.898   7.612   5.597  0.3928 -2.3663  2.1235
 2484SOL    HW217340   1.990   7.726   5.668 -1.1824  0.8181 -0.7858
 2485SOL     OW17341   2.299   0.721   0.718 -0.6141 -0.1999 -0.4989
 2485SOL    HW117342   2.268   0.630   0.745 -0.6167 -0.5013 -1.4980
 2485SOL    HW217343   2.248   0.790   0.770  0.0370 -0.7760  0.9194
 2486SOL     OW17344   2.198   7.475   1.583 -0.4000  0.2366  0.4484
 2486SOL    HW117345   2.203   7.556   1.642  1.8225  0.6982 -0.3306
 2486SOL    HW217346   2.243   7.494   1.496  1.2582 -2.2083  0.7144
 2488SOL     OW17347   3.601   9.888   3.962  0.0157  0.3328  0.0535
 2488SOL    HW117348   3.681   9.879   3.902  0.3953  0.5378  0.5321
 2488SOL    HW217349   3.621   9.846   4.051 -1.1898 -1.6553 -0.5697
 2489SOL     OW17350   3.364   1.670   1.414  0.2736 -0.2063 -0.2179
 2489SOL    HW117351   3.276   1.649   1.458  0.2376  0.3001 -0.0451
 2489SOL    HW217352   3.378   1.608   1.337 -0.5222  0.1091 -0.6267
 2490SOL     OW17353   7.455   4.785   5.645  0.2902 -0.4587  0.6553
 2490SOL    HW117354   7.460   4.771   5.546  1.0217  0.3760  0.5703
 2490SOL    HW217355   7.527   4.847   5.674  0.7030 -1.4876  1.8743
 2491SOL     OW17356   0.046   9.956   1.645  0.0391  0.2546  0.4918
 2491SOL    HW117357   0.130   9.913   1.677 -0.6949 -1.1324  0.5987
 2491SOL    HW217358  -0.033   9.905   1.680 -0.8147  0.4342 -1.1391
 2492SOL     OW17359   9.242   5.215   5.334  0.1056  0.0627  0.0590
 2492SOL    HW117360   9.252   5.277   5.257 -0.7240  1.5068  1.0840
 2492SOL    HW217361   9.183   5.139   5.309  0.0197  0.4078 -0.7858
 2494SOL     OW17362   8.668   9.817   2.617 -0.0839 -0.1792  0.3862
 2494SOL    HW117363   8.737   9.750   2.645 -0.3189  0.4083  2.4945
 2494SOL    HW217364   8.579   9.791   2.654 -0.4814  0.4578 -0.1146
 2495SOL     OW17365   6.851   0.384   4.995  0.2254  0.5159 -0.1972
 2495SOL    HW117366   6.827   0.441   5.074  1.8250  2.5171 -1.0874
 2495SOL    HW217367   6.777   0.385   4.929 -1.0387 -0.9987  1.1710
 2497SOL     OW17368   5.516   4.307   0.131 -0.4450 -0.9387  0.0811
 2497SOL    HW117369   5.571   4.334   0.209  0.2528  0.1584 -0.7821
 2497SOL    HW217370   5.547   4.218   0.097  1.4254  0.0850 -0.9649
 2498SOL     OW17371   5.280   0.507   4.401  0.2587 -0.0173 -0.2894
 2498SOL    HW117372   5.234   0.432   4.354 -0.5295  0.8723 -0.9842
 2498SOL    HW217373   5.224   0.590   4.392  1.9164  1.0372 -0.9814
 2499SOL     OW17374   1.441   8.173   4.156  0.2156  0.0694 -0.3189
 2499SOL    HW117375   1.426   8.268   4.183 -0.6661  0.2369 -1.3541
 2499SOL    HW217376   1.373   8.115   4.200 -0.5862  0.2116 -1.3302
 2501SOL     OW17377   2.278   6.105   1.763  0.2250 -0.8932  0.6177
 2501SOL    HW117378   2.331   6.186   1.737  0.7871 -1.2153  0.7543
 2501SOL    HW217379   2.198   6.097   1.704  0.3494 -0.4278  0.3838
 2502SOL     OW17380   0.962   3.085   3.128  0.0668 -0.3379  0.5405
 2502SOL    HW117381   0.900   3.164   3.134 -1.0735 -1.2387  0.7229
 2502SOL    HW217382   0.917   3.011   3.078  1.2695 -0.7620  0.0662
 2503SOL     OW17383   9.350   3.878   1.512 -0.5810 -0.0247 -0.2304
 2503SOL    HW117384   9.295   3.958   1.490  2.1337  1.2087 -2.9002
 2503SOL    HW217385   9.304   3.796   1.476 -1.1528  0.8784 -1.6230
 2504SOL     OW17386   0.539   8.027   4.327  0.3087 -0.1968  0.3131
 2504SOL    HW117387   0.441   8.006   4.335  0.5308 -1.4777 -0.2609
 2504SOL    HW217388   0.554   8.085   4.248 -0.1299  0.9821  1.0801
 2505SOL     OW17389   7.518   4.584   1.543  0.5275  0.2601  0.6769
 2505SOL    HW117390   7.483   4.643   1.470  0.6269 -0.6177 -0.0988
 2505SOL    HW217391   7.450   4.515   1.566 -0.0874  1.4306  2.4654
 2506SOL     OW17392   1.439   2.327   6.031  0.2045  0.1172  0.7730
 2506SOL    HW117393   1.507   2.257   6.010 -1.1177 -1.4104  1.4964
 2506SOL    HW217394   1.439   2.396   5.958  0.1136 -1.7028 -0.9882
 2507SOL     OW17395   7.984   5.246   1.847 -0.7209  0.3566  0.1232
 2507SOL    HW117396   8.028   5.326   1.886 -1.2742 -0.5650  2.7345
 2507SOL    HW217397   8.051   5.172   1.839 -1.1429 -0.2098  1.6267
 2508SOL     OW17398   2.246   9.398   0.825  0.0384 -0.1053 -0.0957
 2508SOL    HW117399   2.307   9.325   0.795  1.7703  0.9813  0.7316
 2508SOL    HW217400   2.264   9.419   0.921 -0.2729  1.5910 -0.4026
 2509SOL     OW17401   8.109   9.659   4.807  0.0911  0.9122  0.0966
 2509SOL    HW117402   8.161   9.574   4.803 -0.7112  0.4247 -0.0467
 2509SOL    HW217403   8.012   9.638   4.822 -0.5110  1.6648 -2.5388
 2510SOL     OW17404   2.105   3.747   4.913 -0.2115 -0.0221  0.3855
 2510SOL    HW117405   2.070   3.669   4.966 -1.1134 -0.2622 -0.5505
 2510SOL    HW217406   2.029   3.790   4.863  0.7010 -0.1179 -1.1126
 2511SOL     OW17407   2.919   6.889   2.774 -0.1715  0.5552 -0.6114
 2511SOL    HW117408   2.822   6.886   2.748 -0.5569  0.0881  0.8468
 2511SOL    HW217409   2.972   6.833   2.710 -0.9476  0.2620 -1.0092
 2512SOL     OW17410   2.287   9.620   3.659 -0.5084  0.0670 -0.6068
 2512SOL    HW117411   2.286   9.522   3.677  0.1158  0.1952  0.1965
 2512SOL    HW217412   2.360   9.641   3.594  0.9524  0.2679  1.0366
 2513SOL     OW17413   2.617   9.309   3.948  0.0817  0.7635 -0.1991
 2513SOL    HW117414   2.681   9.339   4.019 -1.5098  1.4839  0.9786
 2513SOL    HW217415   2.571   9.225   3.978 -0.2525  0.8083 -0.5816
 2515SOL     OW17416   8.560   7.973   0.438  0.1821  0.2670 -0.3533
 2515SOL    HW117417   8.594   8.057   0.480  1.3007 -0.8395  0.9907
 2515SOL    HW217418   8.635   7.908   0.427 -0.5861 -0.4160 -1.7875
 2516SOL     OW17419   2.490   1.546   2.702  0.1099 -0.2122  0.5060
 2516SOL    HW117420   2.562   1.607   2.669 -1.0086  0.2358 -1.1687
 2516SOL    HW217421   2.461   1.485   2.629 -0.9295 -0.6611  1.2689
 2517SOL     OW17422   7.506   8.539   3.073 -0.2766  0.3307  0.2386
 2517SOL    HW117423   7.416   8.582   3.063 -0.9937 -0.9041  1.2716
 2517SOL    HW217424   7.556   8.583   3.147 -1.2245 -0.9247  1.6602
 2518SOL     OW17425   2.052   7.202   3.104 -0.3060 -0.3906  0.4882
 2518SOL    HW117426   2.090   7.210   3.196  0.6001  0.3680  0.0546
 2518SOL    HW217427   2.123   7.170   3.041 -0.8947 -0.8153  0.0328
 2520SOL     OW17428   0.062   8.507   0.194 -0.1930 -0.7608  0.2848
 2520SOL    HW117429   0.132   8.545   0.134 -1.4929  0.4814 -0.4490
 2520SOL    HW217430   0.048   8.410   0.171  0.1905 -0.6171 -0.5829
 2521SOL     OW17431   3.738   7.903   5.854 -0.0788 -0.2504 -0.4809
 2521SOL    HW117432   3.641   7.915   5.877  0.0243  1.4066 -0.8649
 2521SOL    HW217433   3.780   7.841   5.920 -1.4157 -1.0707 -0.3643
 2522SOL     OW17434   3.350   8.288   1.941 -0.1736  0.3444 -0.1159
 2522SOL    HW117435   3.359   8.355   2.014  1.0552  0.9691 -0.8118
 2522SOL    HW217436   3.402   8.318   1.861  0.0839 -1.2442 -0.5778
 2523SOL     OW17437   8.265   4.175   3.231  0.0045 -0.3177  0.1247
 2523SOL    HW117438   8.350   4.156   3.182 -0.5796  0.2424 -1.1377
 2523SOL    HW217439   8.212   4.091   3.241  0.5357 -0.5990  0.5875
 2524SOL     OW17440   1.180   2.382   4.817 -0.1113 -0.3945  0.5060
 2524SOL    HW117441   1.248   2.399   4.745 -0.7586 -0.5385 -0.1363
 2524SOL    HW217442   1.120   2.461   4.825 -1.0743 -1.0395 -0.2467
 2525SOL     OW17443   8.787   2.022   3.482 -0.1453  0.2000 -0.0143
 2525SOL    HW117444   8.879   2.018   3.444 -0.0257  0.6286  0.2295
 2525SOL    HW217445   8.779   2.101   3.543 -0.7159  0.2453 -0.1440
 2526SOL     OW17446   7.716   6.606   2.534 -0.0321  0.1344 -0.5163
 2526SOL    HW117447   7.783   6.654   2.591  0.5139  2.7756 -3.2888
 2526SOL    HW217448   7.637   6.665   2.519 -1.2449 -1.4741 -0.5196
 2527SOL     OW17449   2.526   0.728   0.550  0.5808 -0.1673 -0.4341
 2527SOL    HW117450   2.457   0.756   0.617  1.9713  2.6268 -0.0821
 2527SOL    HW217451   2.483   0.674   0.478 -1.0459 -2.8589  2.4019
 2528SOL     OW17452   1.745   3.768   3.515  0.0401 -0.5685  0.2665
 2528SOL    HW117453   1.816   3.727   3.571  1.3923 -1.3003 -1.9027
 2528SOL    HW217454   1.718   3.856   3.553  2.1226 -0.2729  1.1043
 2529SOL     OW17455   7.262   7.418   5.761  0.4556 -0.0162 -0.0725
 2529SOL    HW117456   7.168   7.383   5.755 -0.0229  1.1749  0.4770
 2529SOL    HW217457   7.270   7.480   5.839  1.0281  1.9508 -1.6734
 2530SOL     OW17458   7.750   0.162   0.903 -0.2462 -0.1853  0.0013
 2530SOL    HW117459   7.704   0.075   0.919 -1.0550  0.0913 -0.8044
 2530SOL    HW217460   7.701   0.235   0.950 -0.0854 -0.0324 -0.0679
 2531SOL     OW17461   9.879   9.230   2.308 -0.6105 -0.0256  0.0241
 2531SOL    HW117462   9.892   9.156   2.242 -0.8264 -0.0457  0.0047
 2531SOL    HW217463   9.782   9.238   2.331 -0.5478  0.0412  0.2705
 2533SOL     OW17464   9.591   1.769   5.315  0.0507 -0.5647  0.2924
 2533SOL    HW117465   9.653   1.707   5.363 -0.1299 -1.4264 -0.5639
 2533SOL    HW217466   9.501   1.765   5.359 -0.1169 -1.3531 -0.1143
 2534SOL     OW17467   7.683   1.739   1.389  0.4425 -0.4549  0.8893
 2534SOL    HW117468   7.636   1.655   1.363  1.5929 -1.0925  0.8636
 2534SOL    HW217469   7.633   1.818   1.353  0.9304 -1.2428 -1.5886
 2535SOL     OW17470   2.532   7.428   6.317  0.1755 -0.4031 -0.2566
 2535SOL    HW117471   2.601   7.355   6.318  0.8305  0.2136 -0.1271
 2535SOL    HW217472   2.443   7.389   6.341  0.4916 -1.1878 -0.3223
 2536SOL     OW17473   4.057   1.962   3.786 -0.8743 -0.0657  0.9623
 2536SOL    HW117474   4.081   2.009   3.701 -0.2102  0.9694  1.7019
 2536SOL    HW217475   3.986   2.015   3.833 -1.4115 -0.7628  0.9341
 2537SOL     OW17476   6.819   9.123   4.634  0.5457  0.2870 -0.1012
 2537SOL    HW117477   6.802   9.162   4.725  1.2835 -0.4164  0.3534
 2537SOL    HW217478   6.744   9.063   4.609  1.5453 -1.5425  1.1849
 2538SOL     OW17479   1.187   2.097   3.445  0.3858  0.7661 -0.0051
 2538SOL    HW117480   1.243   2.171   3.484  3.0816 -1.0339 -0.3646
 2538SOL    HW217481   1.171   2.115   3.348  3.0062 -0.2173 -0.6590
 2539SOL     OW17482   0.659   3.724   1.632  0.8533  0.8785  0.4245
 2539SOL    HW117483   0.630   3.702   1.539  0.5953 -0.3282  0.7798
 2539SOL    HW217484   0.751   3.763   1.629  1.0989  0.2763 -0.2907
 2540SOL     OW17485   3.738   9.225   0.656 -0.2350  0.0964  1.0274
 2540SOL    HW117486   3.788   9.144   0.685 -0.8709 -1.1374 -1.1878
 2540SOL    HW217487   3.654   9.198   0.609 -0.0818  2.0132 -0.4350
 2541SOL     OW17488   2.204   6.263   3.748 -0.3310  0.4373 -0.1356
 2541SOL    HW117489   2.208   6.189   3.814  1.0368 -1.0093 -1.7932
 2541SOL    HW217490   2.235   6.348   3.791 -1.1743 -0.1008  1.5585
 2543SOL     OW17491   2.141   6.409   2.107 -0.1364 -0.3547 -0.1340
 2543SOL    HW117492   2.097   6.328   2.070  0.9620 -1.4455  0.9149
 2543SOL    HW217493   2.195   6.454   2.035 -0.4128 -0.7717 -0.6015
 2544SOL     OW17494   0.436   4.554   3.418 -0.1592 -0.3931  0.3402
 2544SOL    HW117495   0.473   4.461   3.415 -1.9378 -1.1107 -0.0985
 2544SOL    HW217496   0.511   4.620   3.409  1.1996 -1.7592  1.3123
 2545SOL     OW17497   5.046   8.807   3.579  0.3083 -0.1286  0.1141
 2545SOL    HW117498   4.989   8.888   3.570  2.0304  0.9550 -1.2719
 2545SOL    HW217499   5.129   8.817   3.524  1.2551 -2.2048  1.0754
 2547SOL     OW17500   7.971   1.250   4.432  0.0058  0.2603 -0.3481
 2547SOL    HW117501   8.056   1.288   4.468  0.5414  0.0087 -1.3135
 2547SOL    HW217502   7.925   1.197   4.502  0.5771  0.5185  0.2216
 2548SOL     OW17503   3.654   3.965   1.389 -0.6192 -0.2312  0.2085
 2548SOL    HW117504   3.659   3.942   1.292  1.4446 -0.4848  0.3513
 2548SOL    HW217505   3.616   3.887   1.440  0.7065 -1.0851 -0.0805
 2549SOL     OW17506   1.619   3.181   0.111  0.2131 -0.4340  0.0271
 2549SOL    HW117507   1.678   3.250   0.069 -0.3048  1.1897  1.9038
 2549SOL    HW217508   1.528   3.219   0.126 -0.8683 -2.4238 -1.4015
 2550SOL     OW17509   2.219   9.168   1.530  0.1952  0.2367 -0.0777
 2550SOL    HW117510   2.141   9.223   1.500 -0.2898 -0.9912 -1.1031
 2550SOL    HW217511   2.278   9.147   1.452 -0.9662 -2.7915 -0.2076
 2551SOL     OW17512   4.644   8.456   3.192 -0.4548 -0.2961  0.1247
 2551SOL    HW117513   4.575   8.522   3.222 -0.3782 -0.2806  0.2679
 2551SOL    HW217514   4.735   8.493   3.211 -0.4332 -1.1233  1.6525
 2552SOL     OW17515   8.227   7.049   0.608  0.6361 -0.2319 -0.7611
 2552SOL    HW117516   8.256   7.049   0.704 -0.2233  0.2079 -0.4943
 2552SOL    HW217517   8.259   7.132   0.563  0.6381 -0.2132 -0.7258
 2554SOL     OW17518   5.659   7.879   5.077  0.4621  0.5588  1.1600
 2554SOL    HW117519   5.596   7.940   5.029  0.6494 -1.1374 -1.3594
 2554SOL    HW217520   5.740   7.930   5.106  1.5343  1.2091 -2.6360
 2556SOL     OW17521   9.073   7.280   5.104  0.5114  0.1480  0.4968
 2556SOL    HW117522   9.169   7.261   5.085  0.0990 -1.5890  0.0647
 2556SOL    HW217523   9.020   7.277   5.019  0.3318  2.8072  0.4803
 2557SOL     OW17524   9.125   8.573   3.515 -0.7588 -0.1621  0.1985
 2557SOL    HW117525   9.148   8.629   3.435  1.1321 -0.3501  0.5925
 2557SOL    HW217526   9.033   8.536   3.504 -1.1109  1.0643 -1.1787
 2559SOL     OW17527   3.077   0.936   0.949  0.0307  0.7782  0.2838
 2559SOL    HW117528   3.169   0.932   0.908 -0.8446  1.1586 -1.7689
 2559SOL    HW217529   3.034   0.846   0.941  0.2837  0.5527  1.4117
 2560SOL     OW17530   0.665   2.860   3.210 -0.2660  0.4437 -0.3569
 2560SOL    HW117531   0.580   2.846   3.159  0.1550 -3.2033 -0.1787
 2560SOL    HW217532   0.743   2.840   3.150  0.3993  1.2418  0.2321
 2561SOL     OW17533   1.800   9.384   6.273  0.3729  0.0742  0.6949
 2561SOL    HW117534   1.712   9.415   6.309  0.0546 -0.0151  0.0208
 2561SOL    HW217535   1.831   9.448   6.202 -0.1226 -0.9377 -0.4660
 2562SOL     OW17536   4.281   3.268   0.468 -0.3350  0.0297 -0.3820
 2562SOL    HW117537   4.277   3.183   0.522 -0.4295 -0.2995 -0.9038
 2562SOL    HW217538   4.357   3.324   0.500  0.4986 -0.8180 -0.8437
 2563SOL     OW17539   7.322   7.435   5.265 -0.1455  0.1768 -0.2645
 2563SOL    HW117540   7.357   7.459   5.356 -0.7169  0.5830 -0.1456
 2563SOL    HW217541   7.236   7.384   5.274 -0.9071  1.3695 -0.5900
 2564SOL     OW17542   7.740   9.029   5.770  0.1113  0.4049  1.0648
 2564SOL    HW117543   7.767   9.125   5.773  0.2564  0.3750  0.6986
 2564SOL    HW217544   7.647   9.021   5.734 -0.7264  0.5789  3.0917
 2565SOL     OW17545   9.695   7.109   1.227 -0.3022 -0.6089  0.1664
 2565SOL    HW117546   9.741   7.057   1.155  0.9305  0.2754  0.2936
 2565SOL    HW217547   9.723   7.075   1.316  1.1691  0.7946  0.2618
 2566SOL     OW17548   4.604   1.214   5.508  0.2241 -0.2209  0.1684
 2566SOL    HW117549   4.526   1.172   5.461 -0.4558  0.5629  0.5748
 2566SOL    HW217550   4.675   1.236   5.441 -0.2569 -0.1576 -0.3293
 2567SOL     OW17551   7.996   1.679   0.178  0.7829  0.2599 -0.3065
 2567SOL    HW117552   8.033   1.587   0.165 -2.8302 -1.2094 -0.9905
 2567SOL    HW217553   7.963   1.688   0.272  1.2633  0.8830 -0.2032
 2569SOL     OW17554   3.801   9.984   5.717  0.1337  0.0292 -0.1040
 2569SOL    HW117555   3.708   9.993   5.682 -0.0706 -0.9107  0.2074
 2569SOL    HW217556   3.812  10.043   5.798 -0.3724 -0.3456  0.2367
 2571SOL     OW17557   1.750   6.559   4.853 -0.2539 -0.4413 -0.0756
 2571SOL    HW117558   1.802   6.530   4.933 -1.2660  2.5333  1.7432
 2571SOL    HW217559   1.772   6.500   4.775  0.8709 -3.2838  2.3338
 2572SOL     OW17560   6.042   9.997   4.515  0.4577  0.2202  0.2023
 2572SOL    HW117561   6.057   9.898   4.504 -2.3409 -0.1007 -1.1722
 2572SOL    HW217562   6.034  10.019   4.612  2.1467 -0.7359  0.5700
 2573SOL     OW17563   4.216   4.657   1.969  0.0105 -0.0373  0.1558
 2573SOL    HW117564   4.124   4.627   1.995 -1.0914  0.0119 -3.5224
 2573SOL    HW217565   4.283   4.588   1.996 -1.3155 -0.9667  1.0873
 2574SOL     OW17566   9.456   9.626   3.504 -0.0674  1.2452  0.7061
 2574SOL    HW117567   9.393   9.551   3.485  1.0516  0.6727 -0.9358
 2574SOL    HW217568   9.464   9.684   3.423  1.9370  0.9695  0.6772
 2576SOL     OW17569   7.710   6.437   4.457 -0.1035  0.1846 -0.0045
 2576SOL    HW117570   7.721   6.511   4.523 -0.3933  0.6841 -0.5102
 2576SOL    HW217571   7.685   6.475   4.368  0.4530 -0.4686 -0.4468
 2577SOL     OW17572   8.011   8.634   5.793  0.1746 -0.5034 -0.5436
 2577SOL    HW117573   7.914   8.646   5.771 -0.2806 -0.0564  1.6433
 2577SOL    HW217574   8.066   8.690   5.731 -0.9885 -0.3260 -1.4395
 2578SOL     OW17575   0.592   7.560   2.422 -0.8789 -0.5491 -0.1562
 2578SOL    HW117576   0.530   7.605   2.357 -1.7314 -0.5819  0.6311
 2578SOL    HW217577   0.558   7.573   2.515  0.1639 -0.7881  0.2663
 2579SOL     OW17578   0.882   5.923   3.045  0.2040 -0.8076  0.2706
 2579SOL    HW117579   0.800   5.885   3.087  0.2394  0.4679  1.5558
 2579SOL    HW217580   0.864   5.945   2.949 -1.4334  0.8519  0.9379
 2581SOL     OW17581   7.592   8.663   4.882 -0.8675  0.0224  0.1343
 2581SOL    HW117582   7.532   8.656   4.961  0.1457 -1.4221  0.7871
 2581SOL    HW217583   7.536   8.666   4.799 -1.8788  0.0694  0.7965
 2582SOL     OW17584   2.180   8.894   2.740 -0.2280  0.5540 -0.1564
 2582SOL    HW117585   2.208   8.910   2.835  1.0686 -0.1531 -0.4083
 2582SOL    HW217586   2.243   8.941   2.678 -0.2561 -0.1042 -0.6963
 2583SOL     OW17587   6.606   2.162   0.038 -1.3679  0.0853  0.2109
 2583SOL    HW117588   6.608   2.165  -0.062 -2.7130  0.6542  0.1901
 2583SOL    HW217589   6.662   2.237   0.074 -0.9392 -0.0751 -0.1135
 2584SOL     OW17590   0.774   3.569   2.296  0.3036  0.4173 -0.0107
 2584SOL    HW117591   0.827   3.516   2.362  0.0622  0.1484 -0.0296
 2584SOL    HW217592   0.832   3.639   2.254  0.3243  0.9175  0.8478
 2585SOL     OW17593   8.402   6.025   3.193 -0.1860 -0.8236 -0.2037
 2585SOL    HW117594   8.426   6.021   3.096  3.4288  0.9269  0.5121
 2585SOL    HW217595   8.395   6.121   3.221 -0.8750 -1.3182  1.3502
 2586SOL     OW17596   2.869   2.644   6.202  0.2674  0.1516 -0.4477
 2586SOL    HW117597   2.904   2.628   6.294  2.5046 -0.4620 -1.3760
 2586SOL    HW217598   2.889   2.738   6.174 -0.6532  0.4211 -0.2108
 2587SOL     OW17599   3.347   4.416   3.424  0.1433 -0.7481  0.4433
 2587SOL    HW117600   3.285   4.474   3.371 -0.3922 -0.8647  0.9405
 2587SOL    HW217601   3.313   4.322   3.424  0.0110 -0.6994  1.2016
 2588SOL     OW17602   5.809   8.652   3.736  0.7372 -0.2770  0.3796
 2588SOL    HW117603   5.779   8.712   3.810  0.7773 -1.6685  1.5397
 2588SOL    HW217604   5.792   8.557   3.761 -0.7975 -0.7105 -2.0857
 2589SOL     OW17605   8.821   3.843   3.464  0.2491 -0.0448  0.1974
 2589SOL    HW117606   8.918   3.867   3.460  0.0973  0.4347 -0.6497
 2589SOL    HW217607   8.785   3.834   3.371 -0.5140 -0.2504  0.5081
 2591SOL     OW17608   1.464   4.779   4.308  0.3780  0.1293 -0.0136
 2591SOL    HW117609   1.374   4.738   4.298 -0.4922  2.3754 -1.8997
 2591SOL    HW217610   1.457   4.863   4.362  1.2983  0.3593 -0.2306
 2592SOL     OW17611   5.072   1.817   5.561 -0.3653  0.4598  0.3146
 2592SOL    HW117612   5.037   1.807   5.655 -0.0362 -0.0588  0.3871
 2592SOL    HW217613   4.995   1.812   5.497 -0.5996  0.8756  0.5583
 2593SOL     OW17614   6.348   0.878   4.647  0.4073 -0.4712  0.4919
 2593SOL    HW117615   6.329   0.961   4.698 -0.2988  0.1319 -0.7177
 2593SOL    HW217616   6.307   0.885   4.556  0.8188 -1.9101  0.1804
 2595SOL     OW17617   2.537   4.447   6.014  0.1638  0.3035 -0.2799
 2595SOL    HW117618   2.442   4.463   5.986  0.1607 -0.0108 -0.4447
 2595SOL    HW217619   2.551   4.350   6.033  0.8372  0.1163 -1.6830
 2596SOL     OW17620   9.080   2.675   4.729 -0.4238  0.0412  0.2867
 2596SOL    HW117621   9.155   2.658   4.664 -1.5165  1.1209 -1.3042
 2596SOL    HW217622   8.996   2.695   4.678 -1.6066 -0.3484  2.0544
 2597SOL     OW17623   2.777   9.414   3.429 -0.1182 -0.0582 -0.1255
 2597SOL    HW117624   2.853   9.470   3.396  0.3998 -1.1631 -0.8136
 2597SOL    HW217625   2.811   9.343   3.491 -0.8664  0.8410  1.3490
 2598SOL     OW17626   1.814   8.560   0.958 -0.2420 -0.2395 -0.4652
 2598SOL    HW117627   1.857   8.478   0.922 -0.4110 -0.8312  0.6887
 2598SOL    HW217628   1.719   8.541   0.982 -0.0546  0.0830  0.5564
 2599SOL     OW17629   9.550   1.108   3.893 -0.0785 -0.3401  0.7798
 2599SOL    HW117630   9.476   1.140   3.834  0.8805  0.2190 -0.1268
 2599SOL    HW217631   9.617   1.058   3.839  1.4982  1.3372  1.1257
 2600SOL     OW17632   3.660   7.986   5.324 -0.7179  0.5429  0.3567
 2600SOL    HW117633   3.687   8.015   5.232 -1.1989  2.4708  0.7921
 2600SOL    HW217634   3.601   7.905   5.318  0.3417 -0.1497 -0.9393
 2601SOL     OW17635   2.627   7.414   0.409  0.0867 -0.1883  0.2497
 2601SOL    HW117636   2.620   7.314   0.413  1.4140 -0.2569  1.0153
 2601SOL    HW217637   2.677   7.448   0.488  0.2242  1.0336 -0.3419
 2602SOL     OW17638   9.244   8.730   1.559  0.2890  0.5240  0.8652
 2602SOL    HW117639   9.274   8.809   1.506 -0.1842 -0.0626 -0.2892
 2602SOL    HW217640   9.239   8.650   1.500 -2.1399  0.2761  1.3550
 2603SOL     OW17641   3.456   9.922   0.929 -0.1650 -0.9757  0.0859
 2603SOL    HW117642   3.539   9.973   0.953 -0.7979 -0.3024  0.8689
 2603SOL    HW217643   3.431   9.943   0.834 -0.4805  0.2769  0.4301
 2605SOL     OW17644   0.588   3.024   4.635 -0.0404  0.0733  0.4597
 2605SOL    HW117645   0.658   2.956   4.612 -0.6775 -0.5952  0.4614
 2605SOL    HW217646   0.512   2.979   4.680 -1.1326  0.5503 -0.8735
 2606SOL     OW17647   0.537   0.106   5.062  0.0902  0.1763 -0.1252
 2606SOL    HW117648   0.575   0.197   5.049 -0.9603  0.5569 -0.5801
 2606SOL    HW217649   0.605   0.047   5.105  0.9430  1.0361 -0.2923
 2607SOL     OW17650   6.746   2.764   4.181  0.2775  0.2461  0.3052
 2607SOL    HW117651   6.653   2.743   4.149  1.2438 -1.7729 -1.2971
 2607SOL    HW217652   6.800   2.800   4.105  1.3476 -0.3441  0.7783
 2608SOL     OW17653   0.891   6.095   1.793 -0.2143 -0.2331 -0.2100
 2608SOL    HW117654   0.852   6.009   1.825  0.7468  0.1992  2.2011
 2608SOL    HW217655   0.860   6.170   1.851 -0.7642  1.0284 -2.0777
 2609SOL     OW17656   7.734   1.095   1.593  0.9071 -0.1359  0.0564
 2609SOL    HW117657   7.689   1.125   1.677  0.7990  0.6430 -0.2716
 2609SOL    HW217658   7.819   1.048   1.616  0.1800 -1.1827  0.6545
 2610SOL     OW17659   1.818   7.520   1.345 -0.7135  0.2077 -0.0131
 2610SOL    HW117660   1.913   7.551   1.339 -0.4362 -0.2245  1.9320
 2610SOL    HW217661   1.759   7.595   1.373 -0.3939 -0.3696  2.3190
 2612SOL     OW17662   4.167   9.283   1.013 -0.1129 -0.3125  0.2267
 2612SOL    HW117663   4.186   9.381   1.011  0.3191 -0.4113 -1.1151
 2612SOL    HW217664   4.071   9.268   1.036  0.0211  0.3903  1.2821
 2613SOL     OW17665   2.884   1.419   1.913  0.3401  0.0285 -0.4205
 2613SOL    HW117666   2.826   1.365   1.974 -0.1506  1.0927  0.0773
 2613SOL    HW217667   2.868   1.516   1.930  3.1281  0.3580  0.5594
 2614SOL     OW17668   7.991   4.521   2.021  0.0822 -0.6606 -0.1463
 2614SOL    HW117669   7.959   4.577   1.945  0.8130 -0.2370 -0.1420
 2614SOL    HW217670   7.916   4.508   2.087  0.2142  1.2039  0.3895
 2617SOL     OW17671   8.438   5.505   0.213 -0.1462  0.3467 -0.2165
 2617SOL    HW117672   8.531   5.512   0.177  0.0724 -2.0459 -0.2145
 2617SOL    HW217673   8.384   5.445   0.154 -1.0703 -0.0122  0.9790
 2618SOL     OW17674   2.044   2.784   0.514  0.3501 -0.2727 -0.0680
 2618SOL    HW117675   2.128   2.787   0.460 -0.7148 -0.4111 -1.7863
 2618SOL    HW217676   1.979   2.721   0.471 -2.4226  3.3730 -1.4752
 2619SOL     OW17677   4.672   3.035   3.984 -0.2555 -0.2388 -0.3232
 2619SOL    HW117678   4.727   2.965   4.029  2.7659  1.9515 -0.4223
 2619SOL    HW217679   4.593   3.058   4.041  1.6162  0.0484  2.2165
 2621SOL     OW17680   6.382   4.662   1.484 -0.3875 -0.0977  0.3985
 2621SOL    HW117681   6.352   4.591   1.547  2.7067  0.9722  3.2187
 2621SOL    HW217682   6.479   4.649   1.463 -0.2769  2.1407 -0.6351
 2622SOL     OW17683   7.614   2.438   1.141  0.2479 -0.1596  0.1731
 2622SOL    HW117684   7.543   2.508   1.132 -1.5629 -1.7339  1.9386
 2622SOL    HW217685   7.697   2.469   1.093 -1.7644  1.4646 -2.4118
 2623SOL     OW17686   7.618   9.357   3.848  0.4418  0.0490  0.3495
 2623SOL    HW117687   7.618   9.291   3.924  2.4757 -1.9576 -1.3323
 2623SOL    HW217688   7.591   9.310   3.764 -0.2714  1.9095 -0.4757
 2624SOL     OW17689   2.036   6.551   1.652  1.0178 -0.1740 -0.3791
 2624SOL    HW117690   2.095   6.488   1.602  2.0861  1.0127 -0.6446
 2624SOL    HW217691   2.003   6.622   1.589  2.0015  1.0695  0.4909
 2625SOL     OW17692   8.150   2.575   2.854 -0.3850 -0.5398 -0.5629
 2625SOL    HW117693   8.156   2.516   2.773 -1.4621  0.1331 -1.1453
 2625SOL    HW217694   8.084   2.648   2.837 -0.3839 -0.2057  0.8120
 2626SOL     OW17695   9.414   6.117   2.105 -1.0150  0.2425 -0.1029
 2626SOL    HW117696   9.369   6.183   2.045 -3.8004  1.4202  3.0925
 2626SOL    HW217697   9.448   6.165   2.186  0.7420 -1.6316  0.2984
 2627SOL     OW17698   0.215   6.311   2.160  0.0104 -0.3552  0.5253
 2627SOL    HW117699   0.219   6.406   2.192 -1.2612  0.7147 -2.2875
 2627SOL    HW217700   0.120   6.280   2.160  0.0534 -0.5426 -1.4663
 2628SOL     OW17701   9.616   5.066   0.807  0.6557  0.1654 -0.1677
 2628SOL    HW117702   9.585   5.050   0.713 -0.9801  0.2770  0.3369
 2628SOL    HW217703   9.716   5.065   0.810  0.7253  0.6101 -1.9830
 2630SOL     OW17704   0.776   7.598   5.922 -0.1922  0.2858 -0.7256
 2630SOL    HW117705   0.677   7.601   5.904 -0.2369  0.0856 -0.5141
 2630SOL    HW217706   0.825   7.637   5.844 -0.4669  0.9223 -0.5846
 2631SOL     OW17707   1.073   5.936   0.316 -0.5321  0.0493 -0.0912
 2631SOL    HW117708   1.024   6.023   0.308  2.0726  1.6809  1.0889
 2631SOL    HW217709   1.169   5.954   0.339 -0.7925 -3.2578  4.0908
 2632SOL     OW17710   1.147   5.667   4.514 -0.3106 -0.5735  0.0027
 2632SOL    HW117711   1.054   5.700   4.527 -0.1805 -0.6829  1.2745
 2632SOL    HW217712   1.164   5.652   4.417 -0.6999  2.1066 -0.4999
 2633SOL     OW17713   0.902   4.267   1.809 -0.1378 -0.3230 -0.4664
 2633SOL    HW117714   0.873   4.300   1.899  0.7807  1.8340 -0.9316
 2633SOL    HW217715   0.836   4.297   1.740  0.1614 -0.3585 -0.7686
 2634SOL     OW17716   0.538   6.748   1.765  0.1988 -0.0299 -0.5011
 2634SOL    HW117717   0.482   6.665   1.762 -1.5618  1.1036  0.4370
 2634SOL    HW217718   0.547   6.779   1.859  0.2071  1.2547 -0.9166
 2635SOL     OW17719   2.836   9.943   1.725 -0.0440 -0.0670  0.2964
 2635SOL    HW117720   2.850   9.860   1.779  0.9644 -0.9025 -1.2023
 2635SOL    HW217721   2.741   9.948   1.695 -0.3300 -0.1909  1.1668
 2636SOL     OW17722   5.046   2.051   3.525 -0.2066  0.1476 -0.4994
 2636SOL    HW117723   5.062   2.060   3.426 -0.2812 -1.1389 -0.6285
 2636SOL    HW217724   4.948   2.046   3.542 -0.2862  2.4155 -0.1769
 2637SOL     OW17725   1.180   8.672   0.954 -0.6172  0.0826 -0.0032
 2637SOL    HW117726   1.170   8.771   0.966 -1.6774  0.2113 -1.7892
 2637SOL    HW217727   1.224   8.633   1.035  1.8320  2.3023 -0.2109
 2638SOL     OW17728   4.493   0.666   4.910  0.5463 -0.2377 -0.1452
 2638SOL    HW117729   4.513   0.762   4.894  0.6638 -0.2619 -0.1496
 2638SOL    HW217730   4.406   0.657   4.958  0.6383 -0.1187  0.0461
 2640SOL     OW17731   3.424   8.300   5.218 -0.1726  0.0754  0.1517
 2640SOL    HW117732   3.455   8.374   5.158 -1.2176  1.7017  1.5836
 2640SOL    HW217733   3.494   8.282   5.287  0.1658 -0.4018 -0.3172
 2641SOL     OW17734   3.649   3.884   5.396  0.0714 -0.5144 -0.4919
 2641SOL    HW117735   3.677   3.957   5.334 -0.7292 -0.3450 -0.6509
 2641SOL    HW217736   3.593   3.921   5.470  1.8443 -0.5484  0.9266
 2642SOL     OW17737   5.285   6.664   1.997  0.2460  0.2382  0.1775
 2642SOL    HW117738   5.204   6.606   1.987  1.0447 -0.9549  0.4810
 2642SOL    HW217739   5.257   6.756   2.024 -1.0478  0.0250 -0.3911
 2643SOL     OW17740   6.239   9.071   3.642  0.7105 -0.4725  0.1147
 2643SOL    HW117741   6.316   9.017   3.608  0.5814  0.1441 -1.1898
 2643SOL    HW217742   6.273   9.155   3.683  0.7709 -0.5140  0.1499
 2644SOL     OW17743   1.424   1.823   5.678 -0.5635  0.1628  0.6144
 2644SOL    HW117744   1.483   1.749   5.709 -1.0834  0.2243  1.7961
 2644SOL    HW217745   1.350   1.786   5.621 -0.1239 -0.0663  0.1915
 2645SOL     OW17746   8.147   1.596   4.870  0.3079  0.6901 -0.3516
 2645SOL    HW117747   8.105   1.539   4.941  2.4363 -2.2460 -1.3430
 2645SOL    HW217748   8.083   1.667   4.842 -2.1233 -0.6670  1.5644
 2646SOL     OW17749   8.107   3.066   2.508 -0.1251 -0.1752  0.3348
 2646SOL    HW117750   8.144   3.120   2.583  1.0494  2.0740 -1.7812
 2646SOL    HW217751   8.026   3.111   2.471 -0.2793 -0.8704 -0.1993
 2649SOL     OW17752   6.394   7.933   4.984  0.7338 -0.1651  0.3720
 2649SOL    HW117753   6.478   7.881   4.967  0.8117  0.2990 -0.6865
 2649SOL    HW217754   6.329   7.917   4.909  1.1771  2.1045 -0.5328
 2650SOL     OW17755   2.820   8.350   3.060  0.1095  0.2108 -0.5839
 2650SOL    HW117756   2.840   8.352   2.962  0.5459 -0.0931 -0.5014
 2650SOL    HW217757   2.905   8.354   3.112 -0.1843  1.6289 -0.1960
 2651SOL     OW17758   1.861   5.100   3.337 -0.1503 -0.0603 -0.5429
 2651SOL    HW117759   1.848   5.102   3.436  0.3451  0.9931 -0.4855
 2651SOL    HW217760   1.909   5.016   3.311  3.0602  1.3487  0.5664
 2652SOL     OW17761   3.548   2.569   1.586 -0.2361  0.3429  0.3059
 2652SOL    HW117762   3.628   2.591   1.641  0.8908 -0.8714 -0.8246
 2652SOL    HW217763   3.569   2.582   1.489 -1.5956  0.5879  0.0275
 2654SOL     OW17764   8.641   2.678   4.744  0.0060 -0.2854  0.1292
 2654SOL    HW117765   8.625   2.581   4.727  1.4378 -0.8405  1.7541
 2654SOL    HW217766   8.554   2.724   4.760 -0.5574 -1.7514  1.4637
 2656SOL     OW17767   8.827   9.817   4.433 -0.1713  0.0220 -0.0546
 2656SOL    HW117768   8.914   9.854   4.467 -0.4398 -0.8960  1.6612
 2656SOL    HW217769   8.841   9.778   4.342  1.3461 -0.6484  0.4545
 2657SOL     OW17770   0.929   8.774   6.061  0.2001  0.4018  0.6987
 2657SOL    HW117771   0.942   8.675   6.051 -0.3072  0.1557  2.2781
 2657SOL    HW217772   0.834   8.793   6.085 -0.0955  1.4210 -1.1762
 2659SOL     OW17773   0.405   2.705   0.385  0.6238 -0.6149  0.4396
 2659SOL    HW117774   0.322   2.758   0.403  0.8053  0.2460 -1.1838
 2659SOL    HW217775   0.450   2.740   0.303  1.5291 -2.3614  0.1637
 2660SOL     OW17776   1.080   4.220   5.413  0.7420  0.2112  0.1272
 2660SOL    HW117777   0.990   4.239   5.451  0.9639 -0.1376  0.8409
 2660SOL    HW217778   1.110   4.297   5.357 -0.3190  0.0153 -0.7299
 2661SOL     OW17779   0.973   6.189   0.303 -0.1258 -0.7261  0.4360
 2661SOL    HW117780   1.045   6.229   0.361 -0.1376 -2.4898  1.7041
 2661SOL    HW217781   0.972   6.235   0.214  1.0935  0.8106  1.1980
 2663SOL     OW17782   5.632   0.691   4.053  0.0635  0.7133  0.7576
 2663SOL    HW117783   5.727   0.720   4.069 -0.8799  3.3929  1.8326
 2663SOL    HW217784   5.612   0.612   4.110  2.3102 -1.3313 -1.1800
 2664SOL     OW17785   2.235   8.561   5.259 -0.0221  0.1172  0.9685
 2664SOL    HW117786   2.242   8.660   5.250  1.0931 -0.0957 -0.7570
 2664SOL    HW217787   2.314   8.518   5.215 -1.0810 -1.5796  0.7026
 2665SOL     OW17788   4.663   9.396   4.817 -0.3301 -0.0823 -0.0703
 2665SOL    HW117789   4.628   9.483   4.784  0.1464  0.2224  0.2224
 2665SOL    HW217790   4.763   9.399   4.820 -0.3734  0.8829  4.0021
 2666SOL     OW17791   7.645   3.102   0.595 -0.7107  0.6252  0.3524
 2666SOL    HW117792   7.557   3.144   0.573 -0.8745  0.1139  0.0125
 2666SOL    HW217793   7.637   3.051   0.681 -1.0085 -0.1907 -0.1502
 2667SOL     OW17794   4.785   1.733   3.671  0.5017  0.0861 -0.3424
 2667SOL    HW117795   4.746   1.683   3.749  0.1108  0.9042 -0.0096
 2667SOL    HW217796   4.842   1.671   3.618  0.9264 -0.4329  0.7033
 2668SOL     OW17797   6.757   0.785   3.453 -0.3859 -0.5403  0.4074
 2668SOL    HW117798   6.814   0.858   3.415 -1.8717 -0.8668 -2.5154
 2668SOL    HW217799   6.703   0.822   3.529 -0.3537  1.1218 -0.3601
 2669SOL     OW17800   5.213   8.122   3.017  0.1801 -0.4119 -0.4227
 2669SOL    HW117801   5.273   8.049   3.050  2.3742  2.8904  3.2946
 2669SOL    HW217802   5.118   8.101   3.042  0.8422 -1.7759  1.0439
 2670SOL     OW17803   3.599   1.227   5.270 -0.2290 -0.2965  0.2598
 2670SOL    HW117804   3.630   1.288   5.343 -0.0594  0.7939 -0.7038
 2670SOL    HW217805   3.512   1.260   5.234 -0.6844 -1.2592  0.4775
 2671SOL     OW17806   1.462   9.719   4.714  0.4206 -0.0663  0.6209
 2671SOL    HW117807   1.515   9.747   4.634  0.3436  0.9642  0.9350
 2671SOL    HW217808   1.508   9.747   4.797 -0.8731  1.3262  0.8911
 2673SOL     OW17809   1.054   7.310   4.119 -0.0418 -0.1707  0.1599
 2673SOL    HW117810   1.082   7.235   4.179 -0.2877  0.0869  0.6017
 2673SOL    HW217811   0.964   7.290   4.081  0.1784 -0.4043 -0.2482
 2674SOL     OW17812   9.878   2.291   0.494 -0.1365  0.2484  0.4620
 2674SOL    HW117813   9.944   2.230   0.451 -2.8705 -3.6522  1.4978
 2674SOL    HW217814   9.906   2.309   0.589  0.3128 -0.0161  0.3769
 2677SOL     OW17815   3.332   0.923   3.578  0.5565 -0.0005  0.6757
 2677SOL    HW117816   3.303   0.828   3.570  2.1332 -0.2885 -2.3556
 2677SOL    HW217817   3.344   0.962   3.487 -1.2771  3.5128  1.8251
 2678SOL     OW17818   6.600   1.581   5.946 -0.0348  0.0063  0.3388
 2678SOL    HW117819   6.591   1.507   5.879 -0.4089 -0.6274  1.0834
 2678SOL    HW217820   6.672   1.645   5.916  1.3046 -1.4355  0.4259
 2679SOL     OW17821   9.072   9.879   3.938  0.2013  0.1699  0.0521
 2679SOL    HW117822   9.112   9.924   4.018 -0.8959  1.5869 -0.1702
 2679SOL    HW217823   9.137   9.880   3.863 -0.3253  2.7632 -0.4169
 2680SOL     OW17824   2.940   9.070   3.946  0.0561 -0.4954  0.4880
 2680SOL    HW117825   2.865   9.016   3.984 -0.6671  1.0723  1.3085
 2680SOL    HW217826   2.997   9.011   3.888 -1.3686 -1.8689  0.4505
 2681SOL     OW17827   6.855   0.194   0.564  0.2400 -0.0185  0.3791
 2681SOL    HW117828   6.938   0.145   0.537  0.7910  0.5051  1.0862
 2681SOL    HW217829   6.855   0.284   0.520  0.8414  0.5998  1.5999
 2683SOL     OW17830   2.305   6.583   5.049 -0.0408  0.3188 -0.6959
 2683SOL    HW117831   2.340   6.547   5.136  0.1729  0.1877 -0.8369
 2683SOL    HW217832   2.350   6.670   5.028 -1.6407  1.4391  0.3991
 2684SOL     OW17833   0.742   0.284   1.826 -0.3925 -0.3695 -0.2971
 2684SOL    HW117834   0.717   0.187   1.824 -2.0528  0.0523 -1.3204
 2684SOL    HW217835   0.775   0.311   1.735  0.4072 -0.0548  0.0831
 2686SOL     OW17836   4.233   4.701   5.074  0.2224  0.4633 -0.3480
 2686SOL    HW117837   4.324   4.667   5.098  0.4264  0.9870 -0.3766
 2686SOL    HW217838   4.199   4.761   5.146 -0.3966 -0.2748 -0.0102
 2687SOL     OW17839   8.859   9.056   2.728  0.5961 -0.4670  0.4241
 2687SOL    HW117840   8.890   9.024   2.638  0.4318  0.8232 -0.0911
 2687SOL    HW217841   8.891   8.992   2.798  1.9601 -0.7022 -0.3999
 2688SOL     OW17842   9.735   6.897   0.547  0.0344  0.0154  0.5163
 2688SOL    HW117843   9.766   6.984   0.509 -0.8401  0.5771  1.0752
 2688SOL    HW217844   9.798   6.824   0.519  0.2883  0.6744 -0.6855
 2690SOL     OW17845   9.724   0.906   2.863 -0.0637  0.0684  0.1723
 2690SOL    HW117846   9.749   0.831   2.924  0.3637  1.3124  1.5546
 2690SOL    HW217847   9.630   0.893   2.832 -0.6973  0.0186  2.0340
 2691SOL     OW17848   7.190   9.835   3.834  1.1452 -0.3420 -0.4156
 2691SOL    HW117849   7.151   9.804   3.748 -2.2311  1.1585  0.4874
 2691SOL    HW217850   7.203   9.756   3.895 -1.0750 -0.8518 -0.5502
 2692SOL     OW17851   4.504   7.021   2.521 -0.5095  0.3513 -0.3354
 2692SOL    HW117852   4.486   7.116   2.546  0.1783  0.1407  0.9890
 2692SOL    HW217853   4.601   7.001   2.532 -0.3610 -0.0709 -2.1677
 2693SOL     OW17854   5.394   8.784   4.968  0.3107  0.0178 -0.0294
 2693SOL    HW117855   5.427   8.714   4.904  1.3549  0.4190  0.0491
 2693SOL    HW217856   5.362   8.740   5.052 -0.4039 -0.4626 -0.5438
 2694SOL     OW17857   5.194   2.423   4.546  0.7573 -0.2718 -0.1601
 2694SOL    HW117858   5.241   2.436   4.459 -0.5699 -0.4598 -0.9246
 2694SOL    HW217859   5.165   2.328   4.555 -1.3444  0.2960 -0.6870
 2696SOL     OW17860   2.591   2.411   0.888 -0.1609  0.2913  0.0924
 2696SOL    HW117861   2.629   2.324   0.857 -0.6306  0.0563  0.1781
 2696SOL    HW217862   2.662   2.464   0.935  0.7037  0.8782 -1.8480
 2697SOL     OW17863   7.979   0.986   4.976  0.6066 -0.3408 -0.3343
 2697SOL    HW117864   8.017   0.958   5.064 -0.5455  3.0581  1.3393
 2697SOL    HW217865   7.890   0.942   4.964  0.1069  0.2992  0.9030
 2698SOL     OW17866   3.081   0.384   2.823 -0.0555  0.3828 -1.0174
 2698SOL    HW117867   3.175   0.417   2.810 -0.1993  0.5019 -1.7371
 2698SOL    HW217868   3.084   0.299   2.876  0.5742 -0.4027 -2.2788
 2699SOL     OW17869   1.412   7.070   6.302 -0.1473  0.1175  0.3528
 2699SOL    HW117870   1.316   7.055   6.278 -1.2870  1.7693  3.5090
 2699SOL    HW217871   1.435   7.018   6.384  1.2718  0.7222  0.3628
 2700SOL     OW17872   8.187   4.168   2.370 -0.0416  0.4215  0.4847
 2700SOL    HW117873   8.283   4.144   2.381 -0.5837 -1.7994  0.5990
 2700SOL    HW217874   8.180   4.255   2.320  2.0065  0.7972  0.7975
 2701SOL     OW17875   6.159   2.553   0.676 -0.6441  0.1285  0.3214
 2701SOL    HW117876   6.210   2.467   0.671  0.1264  0.6484 -0.9218
 2701SOL    HW217877   6.173   2.596   0.765  0.6645  0.0091  0.1770
 2702SOL     OW17878   5.685   7.644   6.252  0.1729 -0.7819 -0.1429
 2702SOL    HW117879   5.735   7.565   6.217 -1.1093 -1.0023 -1.5581
 2702SOL    HW217880   5.608   7.665   6.191 -0.1781  0.8689  0.8143
 2703SOL     OW17881   5.283   9.880   1.347  0.3481 -0.1110  0.1971
 2703SOL    HW117882   5.331   9.793   1.352 -0.8206 -0.7554  0.2358
 2703SOL    HW217883   5.184   9.865   1.349  0.1366  1.2503  0.7738
 2704SOL     OW17884   1.408   5.621   0.825  0.2494 -0.4942 -1.0892
 2704SOL    HW117885   1.457   5.638   0.910 -0.1526  0.2127 -0.9916
 2704SOL    HW217886   1.322   5.673   0.825 -0.7787 -2.1432 -1.0156
 2705SOL     OW17887   0.619   1.611   6.434 -0.1931 -0.0255 -0.0503
 2705SOL    HW117888   0.576   1.701   6.427 -0.7921 -0.1207  1.9958
 2705SOL    HW217889   0.718   1.621   6.427 -0.4151  0.3935 -3.1290
 2706SOL     OW17890   8.095   2.582   5.798  0.1490  0.5990 -0.6197
 2706SOL    HW117891   8.012   2.617   5.841 -1.2088  1.8125 -4.0286
 2706SOL    HW217892   8.169   2.648   5.810 -0.6058  1.5932 -1.3709
 2707SOL     OW17893   8.630   3.483   5.646  0.1509  0.2589 -0.1378
 2707SOL    HW117894   8.629   3.486   5.546 -0.7858  0.3923 -0.1207
 2707SOL    HW217895   8.719   3.449   5.677 -0.4066 -2.1763 -1.0924
 2708SOL     OW17896   8.613   3.949   6.230  0.5239  0.2313  0.0006
 2708SOL    HW117897   8.603   3.947   6.131  1.4431  1.3419 -0.1153
 2708SOL    HW217898   8.526   3.924   6.273 -0.0005  0.2164 -1.0707
 2709SOL     OW17899   5.307   0.302   6.358  0.4966 -0.1688 -0.2308
 2709SOL    HW117900   5.349   0.320   6.270  1.7665 -1.2080  0.1529
 2709SOL    HW217901   5.213   0.271   6.345  1.0127 -1.3057 -1.2602
 2710SOL     OW17902   5.383   8.679   4.149 -0.5818 -0.4950  0.2040
 2710SOL    HW117903   5.315   8.742   4.111 -1.2079 -1.6872 -0.6877
 2710SOL    HW217904   5.475   8.714   4.130 -0.9303  1.2690  1.6608
 2711SOL     OW17905   8.617   9.840   4.073  0.9233  0.4194 -0.0386
 2711SOL    HW117906   8.546   9.898   4.113  0.7597 -2.0344  3.5512
 2711SOL    HW217907   8.586   9.805   3.985 -0.9334  1.9705 -0.0327
 2712SOL     OW17908   7.615   3.019   5.655 -0.0115 -0.0832 -0.0054
 2712SOL    HW117909   7.704   3.055   5.683 -0.3191  1.0700 -0.4583
 2712SOL    HW217910   7.580   2.958   5.726  0.2388  1.0413  1.1114
 2713SOL     OW17911   2.507   2.510   0.576 -0.6001 -0.0231  0.3823
 2713SOL    HW117912   2.453   2.568   0.638  0.7501  1.8177 -0.1208
 2713SOL    HW217913   2.589   2.559   0.547  0.0827 -1.8353 -0.8584
 2716SOL     OW17914   2.200   9.988   2.423 -0.0635 -0.2222 -0.9344
 2716SOL    HW117915   2.112  10.036   2.419  0.7068  1.1258 -1.6710
 2716SOL    HW217916   2.219   9.963   2.518 -0.4035  1.0286 -0.5356
 2717SOL     OW17917   3.590   2.808   0.759  0.0657 -0.2166  0.0276
 2717SOL    HW117918   3.685   2.800   0.728  0.0736  1.6302 -0.5010
 2717SOL    HW217919   3.589   2.838   0.855  0.0239 -0.1384  0.0030
 2718SOL     OW17920   9.070   2.294   2.999 -0.5366 -0.1287  0.0955
 2718SOL    HW117921   9.130   2.281   2.920  0.1057 -0.0032  0.5535
 2718SOL    HW217922   9.021   2.381   2.989  0.3628  0.4249  0.3459
 2719SOL     OW17923   4.019   8.877   5.845  0.2804  0.4349  0.5851
 2719SOL    HW117924   4.013   8.969   5.805 -1.8600  0.9001  1.8721
 2719SOL    HW217925   4.022   8.884   5.944 -0.5256 -0.9126  0.7191
 2720SOL     OW17926   8.100   2.380   5.370 -0.2871 -0.3189 -0.4204
 2720SOL    HW117927   8.196   2.404   5.356 -0.1289 -1.1478 -0.8256
 2720SOL    HW217928   8.058   2.361   5.281 -0.9573  0.4997 -0.2891
 2721SOL     OW17929   9.689   9.188   4.272 -0.9483 -0.2399 -0.6237
 2721SOL    HW117930   9.689   9.167   4.369 -1.8424  1.7261 -0.1775
 2721SOL    HW217931   9.665   9.284   4.258  0.8900 -0.0157 -2.6846
 2722SOL     OW17932   8.538   4.762   4.856  0.1698  0.4639 -0.2863
 2722SOL    HW117933   8.538   4.764   4.756  0.8741 -1.9603 -0.3440
 2722SOL    HW217934   8.632   4.769   4.890 -0.1320  2.2595  0.2695
 2723SOL     OW17935   5.244   1.629   5.135 -0.5681  0.4528 -0.5643
 2723SOL    HW117936   5.171   1.562   5.120  1.1884 -1.0084 -3.0059
 2723SOL    HW217937   5.269   1.629   5.232 -1.5345 -1.4686 -0.2860
 2724SOL     OW17938   7.983   0.177   5.103  0.2059 -0.4152 -0.0458
 2724SOL    HW117939   7.980   0.158   5.004  0.9347  0.5556 -0.2669
 2724SOL    HW217940   8.065   0.231   5.123 -0.1272 -0.3155  1.0412
 2725SOL     OW17941   0.834   1.808   2.093 -0.0139 -0.6301 -0.3420
 2725SOL    HW117942   0.782   1.893   2.089 -0.2785 -0.8385 -1.5465
 2725SOL    HW217943   0.780   1.738   2.140  0.5015  0.0685  1.2965
 2727SOL     OW17944   4.700   3.351   0.693  0.5423  0.5467  0.1244
 2727SOL    HW117945   4.703   3.429   0.756 -0.0875 -0.0878  0.9425
 2727SOL    HW217946   4.671   3.269   0.742  1.3524 -0.2443 -0.6999
 2729SOL     OW17947   0.670   4.738   2.522 -0.1508  0.1198  0.7441
 2729SOL    HW117948   0.685   4.751   2.620 -0.9642  0.8363  0.7849
 2729SOL    HW217949   0.608   4.810   2.488 -0.8069 -0.8121 -0.0606
 2730SOL     OW17950   8.970   2.206   1.754 -0.4536 -0.0379 -0.0089
 2730SOL    HW117951   9.035   2.275   1.724 -1.3579  0.5470 -0.6603
 2730SOL    HW217952   8.949   2.220   1.851 -2.2722  1.9685 -0.6519
 2731SOL     OW17953   2.406   6.831   1.415 -0.0531 -0.0133 -0.0020
 2731SOL    HW117954   2.474   6.822   1.342  0.3072  1.2733  0.1728
 2731SOL    HW217955   2.380   6.927   1.425  0.1950 -0.1296  1.8410
 2732SOL     OW17956   9.881   0.955   1.519 -0.2566 -0.0392 -0.3324
 2732SOL    HW117957   9.911   0.862   1.497  0.9177  0.6466 -1.7118
 2732SOL    HW217958   9.786   0.966   1.491  0.1191 -0.3079 -1.7446
 2733SOL     OW17959   4.079   0.229   5.246 -0.4929 -0.1676 -0.2700
 2733SOL    HW117960   4.012   0.202   5.176  1.2483 -2.2694 -1.1897
 2733SOL    HW217961   4.035   0.228   5.336 -1.3768 -2.9698 -0.6720
 2734SOL     OW17962   7.552   1.267   0.967  0.0648  0.2498  0.4219
 2734SOL    HW117963   7.482   1.319   1.017  1.3753  1.5528  0.9315
 2734SOL    HW217964   7.583   1.190   1.022  0.0301  0.4821  0.7637
 2735SOL     OW17965   1.537   7.044   1.024  0.8579 -0.0467  0.0249
 2735SOL    HW117966   1.498   6.952   1.027  1.5420 -0.4016 -1.8514
 2735SOL    HW217967   1.520   7.089   1.112 -1.2200 -1.2343  0.2638
 2736SOL     OW17968   3.379   8.803   0.718  0.1471  0.1162 -0.3248
 2736SOL    HW117969   3.415   8.840   0.633  0.1849  2.0543  0.4808
 2736SOL    HW217970   3.324   8.722   0.700 -1.2607  1.4792 -2.3977
 2737SOL     OW17971   3.741   8.548   1.721  0.2495  0.1431 -0.4227
 2737SOL    HW117972   3.761   8.625   1.782 -0.2766 -1.0712  1.3397
 2737SOL    HW217973   3.767   8.571   1.628  1.2966  1.9692  0.3015
 2739SOL     OW17974   8.861   8.642   5.248  0.3876 -0.2306  0.1869
 2739SOL    HW117975   8.766   8.672   5.246  0.9862  1.7517  0.8607
 2739SOL    HW217976   8.878   8.590   5.332  0.0035 -0.2622  0.2455
 2740SOL     OW17977   4.364   8.207   3.098  0.3244  0.0779 -0.1668
 2740SOL    HW117978   4.382   8.210   3.000 -3.6430  4.3373 -0.9189
 2740SOL    HW217979   4.297   8.135   3.116 -0.1871  0.3941 -0.7921
 2741SOL     OW17980   3.701   0.965   4.566  0.0262  0.1665  0.3134
 2741SOL    HW117981   3.604   0.962   4.541 -0.1683 -1.5809  1.1668
 2741SOL    HW217982   3.712   1.024   4.647 -0.5207 -0.5915  0.9553
 2742SOL     OW17983   5.159   7.487   5.715  0.0797  0.2133  0.4758
 2742SOL    HW117984   5.069   7.448   5.734  0.7893 -1.0017  1.4078
 2742SOL    HW217985   5.148   7.580   5.679 -1.4888  0.7974  2.3616
 2743SOL     OW17986   6.744   4.613   0.247  0.1596  0.2335 -0.3049
 2743SOL    HW117987   6.755   4.525   0.202 -1.3317 -0.2628  0.2772
 2743SOL    HW217988   6.679   4.669   0.195  0.3273  0.5974 -0.1249
 2744SOL     OW17989   1.541   4.403   5.121 -0.1649 -0.0905  0.1423
 2744SOL    HW117990   1.641   4.405   5.116 -0.1857  1.1314  0.1634
 2744SOL    HW217991   1.504   4.366   5.035  0.2957 -0.6689  0.1854
 2745SOL     OW17992   2.850   3.363   1.982  0.0044 -0.0493  0.6275
 2745SOL    HW117993   2.771   3.362   1.920  1.0631  1.1398 -0.7964
 2745SOL    HW217994   2.891   3.454   1.981  1.7721 -0.8309  0.8597
 2746SOL     OW17995   0.913   1.609   1.831 -0.3253 -0.2788  0.1422
 2746SOL    HW117996   0.946   1.649   1.746 -1.2776 -1.0045 -0.5874
 2746SOL    HW217997   0.864   1.679   1.883 -0.5270 -0.0567 -0.3361
 2747SOL     OW17998   9.406   3.561   6.238  0.0236  0.5312 -0.2116
 2747SOL    HW117999   9.459   3.636   6.278  1.1921  0.2971 -1.2792
 2747SOL    HW218000   9.309   3.585   6.238  0.0630  0.8535  2.0415
 2748SOL     OW18001   9.580   2.137   1.631  0.0189  0.3751  0.1601
 2748SOL    HW118002   9.659   2.079   1.610 -0.1483 -0.1785  1.0548
 2748SOL    HW218003   9.497   2.081   1.630 -0.0945  0.5242  1.4341
 2749SOL     OW18004   8.547   9.416   2.053  0.2200  0.0559  0.0637
 2749SOL    HW118005   8.589   9.333   2.016 -0.1110 -0.1791  0.2053
 2749SOL    HW218006   8.564   9.420   2.152  1.0737  0.6649 -0.0974
 2750SOL     OW18007   7.591   7.208   3.642  0.2332 -0.3732  0.4556
 2750SOL    HW118008   7.572   7.275   3.570 -0.8600 -0.6391  0.4832
 2750SOL    HW218009   7.508   7.191   3.695  0.8041 -0.8533  1.2119
 2751SOL     OW18010   8.661   5.285   2.574  0.3519 -0.4753  0.5421
 2751SOL    HW118011   8.628   5.190   2.573  1.2366 -0.7821 -1.9894
 2751SOL    HW218012   8.594   5.344   2.529 -0.6824  0.3285  3.0119
 2752SOL     OW18013   8.826   6.531   3.499  0.2210  0.0591  0.1886
 2752SOL    HW118014   8.868   6.614   3.463  0.5329  0.1012  0.6387
 2752SOL    HW218015   8.897   6.474   3.542 -0.0232 -0.3388  0.0720
 2753SOL     OW18016   4.383   3.251   1.773  0.4482  0.2712 -0.3255
 2753SOL    HW118017   4.422   3.215   1.689  1.1613 -0.6688  0.3944
 2753SOL    HW218018   4.439   3.327   1.807  2.1185 -1.5376  1.0893
 2754SOL     OW18019   6.336   4.161   1.715  0.2118  0.0447  0.2351
 2754SOL    HW118020   6.349   4.065   1.691 -0.1335 -0.6363  2.6297
 2754SOL    HW218021   6.374   4.178   1.806  0.2926  2.1891 -0.1764
 2755SOL     OW18022   8.124   4.950   2.518  0.0156  0.3334  0.0364
 2755SOL    HW118023   8.197   5.017   2.505  0.0534  0.1429 -0.7747
 2755SOL    HW218024   8.110   4.934   2.616  1.0254  0.4211  0.2020
 2756SOL     OW18025   7.982   3.545   5.950  0.8488  0.0241 -0.2231
 2756SOL    HW118026   8.040   3.521   6.028 -1.2000  0.6576  1.5437
 2756SOL    HW218027   7.918   3.470   5.931 -0.9878  1.2754  0.9485
 2757SOL     OW18028   7.407   2.389   3.882  0.2311  0.3937 -0.3471
 2757SOL    HW118029   7.362   2.476   3.861 -0.7681  0.1151  0.6043
 2757SOL    HW218030   7.375   2.319   3.817  0.5635  0.5871 -0.7210
 2759SOL     OW18031   4.421   1.691   0.262 -0.1484 -0.2575 -0.0490
 2759SOL    HW118032   4.387   1.667   0.171 -2.1054  0.6693  0.3949
 2759SOL    HW218033   4.425   1.790   0.271  1.7042 -0.3494  0.2978
 2760SOL     OW18034   0.040   3.729   6.287 -0.4654 -0.0525 -0.2933
 2760SOL    HW118035   0.115   3.688   6.235 -0.6011 -0.8676  0.1476
 2760SOL    HW218036  -0.014   3.657   6.331 -1.6173  0.5131 -0.7451
 2761SOL     OW18037   0.768   6.801   3.156 -0.6762 -0.0074  0.4530
 2761SOL    HW118038   0.672   6.779   3.136 -0.5883  0.5654 -0.5957
 2761SOL    HW218039   0.827   6.754   3.092 -0.2383 -0.4431  1.1689
 2763SOL     OW18040   6.716   1.747   2.911  0.0623  0.1813 -0.2798
 2763SOL    HW118041   6.719   1.672   2.977 -1.7169 -0.1402 -0.5327
 2763SOL    HW218042   6.750   1.715   2.822 -0.0965 -0.1436 -0.2227
 2764SOL     OW18043   9.152   9.095   4.438 -0.1469 -0.2823 -0.3313
 2764SOL    HW118044   9.106   9.091   4.527 -1.0906 -0.4704 -0.8240
 2764SOL    HW218045   9.248   9.067   4.449  0.4532  2.1449  1.0902
 2766SOL     OW18046   3.273   0.979   4.069 -0.6551  0.5870  0.4783
 2766SOL    HW118047   3.194   0.918   4.067  1.1442 -1.8340  1.0336
 2766SOL    HW218048   3.306   0.993   3.976 -0.0200 -0.7615  0.4799
 2769SOL     OW18049   8.630   5.950   4.234  0.3765 -0.1715 -0.6373
 2769SOL    HW118050   8.603   5.868   4.183  1.6460 -1.4931  0.7612
 2769SOL    HW218051   8.607   5.938   4.331  1.6216  0.6377 -0.2272
 2770SOL     OW18052   2.888   2.316   5.436  0.3146  0.1475 -0.3742
 2770SOL    HW118053   2.931   2.237   5.480 -1.5950 -0.8559 -0.2646
 2770SOL    HW218054   2.845   2.287   5.351  1.1965  1.4506 -1.2798
 2771SOL     OW18055   9.166   9.878   0.595 -0.8968  0.2158 -0.0294
 2771SOL    HW118056   9.108   9.843   0.521 -1.1239  0.8514 -0.1480
 2771SOL    HW218057   9.259   9.894   0.560 -0.4550 -1.4155  0.3116
 2772SOL     OW18058   2.636   5.019   5.538 -0.6774 -0.9170 -0.1195
 2772SOL    HW118059   2.714   4.956   5.538 -0.8383 -1.1168  0.4005
 2772SOL    HW218060   2.643   5.081   5.460  0.3542 -0.5068  0.2951
 2773SOL     OW18061   7.260   1.826   3.616 -0.0476 -0.1029  0.0285
 2773SOL    HW118062   7.260   1.875   3.703 -0.4869  0.3634 -0.2329
 2773SOL    HW218063   7.352   1.827   3.577  0.9290 -3.1398  2.0711
 2774SOL     OW18064   4.995   9.577   5.704 -0.0403 -0.3145  0.0742
 2774SOL    HW118065   4.989   9.676   5.697 -0.1773 -0.3473 -0.2938
 2774SOL    HW218066   4.996   9.550   5.800  0.3439  0.0643  0.1785
 2776SOL     OW18067   1.787   6.847   0.704  0.3869 -0.4307  0.3619
 2776SOL    HW118068   1.847   6.897   0.641 -0.1933 -2.0214 -1.5106
 2776SOL    HW218069   1.730   6.784   0.652 -1.0155 -0.8708  2.3966
 2777SOL     OW18070   1.997   1.165   5.695  0.4805  0.2796  0.1041
 2777SOL    HW118071   1.951   1.251   5.719 -1.1932 -0.3604 -0.7439
 2777SOL    HW218072   2.048   1.178   5.610 -2.6520 -0.5065 -1.9524
 2779SOL     OW18073   7.506   9.884   5.015 -0.2374  0.3046 -0.0974
 2779SOL    HW118074   7.536   9.792   4.992  0.5438  0.0162  1.9285
 2779SOL    HW218075   7.479   9.932   4.932  0.8108 -1.2185 -1.3584
 2781SOL     OW18076   7.631   4.536   2.534 -0.0210 -0.4335  0.6372
 2781SOL    HW118077   7.599   4.630   2.524 -1.1949 -0.7894  1.0613
 2781SOL    HW218078   7.726   4.531   2.503 -0.2782  0.6677 -0.4015
 2783SOL     OW18079   0.831   0.975   3.504 -0.3620  0.6079  0.1552
 2783SOL    HW118080   0.850   1.012   3.413  1.4124  0.4312  0.4369
 2783SOL    HW218081   0.905   1.000   3.567  0.4367 -2.5506  0.5902
 2784SOL     OW18082   9.965   0.773   5.228  0.3935 -0.0293 -0.6395
 2784SOL    HW118083   9.909   0.805   5.152 -0.2814  0.3265 -0.0045
 2784SOL    HW218084   9.913   0.708   5.283 -0.7963  3.1107  2.1117
 2785SOL     OW18085   2.739   1.818   4.529  0.6697  0.4635 -0.5139
 2785SOL    HW118086   2.815   1.779   4.477 -0.0128  0.7342 -1.7275
 2785SOL    HW218087   2.658   1.761   4.518  0.2274  1.1123 -0.6126
 2786SOL     OW18088   0.390   8.920   6.096 -0.0121 -0.0437 -0.1885
 2786SOL    HW118089   0.364   8.994   6.157  1.8152 -0.1657  0.7639
 2786SOL    HW218090   0.323   8.846   6.103 -1.5427  1.2336 -0.7303
 2787SOL     OW18091   3.532   3.248   6.235 -0.3749 -0.1859 -0.5962
 2787SOL    HW118092   3.531   3.227   6.332 -0.0245 -0.7752 -0.7127
 2787SOL    HW218093   3.506   3.344   6.220 -1.5736 -0.4146 -0.0167
 2788SOL     OW18094   5.030   2.123   5.818  0.1716 -0.4259 -0.0803
 2788SOL    HW118095   5.111   2.069   5.840 -0.3376 -0.3458  2.1584
 2788SOL    HW218096   4.985   2.085   5.738  2.1074 -0.8061 -1.0187
 2789SOL     OW18097   2.513   4.147   5.565  0.3217  0.1477 -0.7125
 2789SOL    HW118098   2.509   4.142   5.665 -2.3352  0.1905 -0.7679
 2789SOL    HW218099   2.481   4.060   5.526 -0.8819  0.9233 -1.5074
 2790SOL     OW18100   0.500   2.031   1.592 -0.1480 -0.1782  0.2050
 2790SOL    HW118101   0.478   1.960   1.525 -0.3044  0.1096 -0.0519
 2790SOL    HW218102   0.500   2.120   1.546  0.8059 -0.0960  0.3634
 2791SOL     OW18103   8.305   4.456   0.989  0.1056  0.6792  0.0470
 2791SOL    HW118104   8.354   4.370   1.001 -1.8333 -0.5869 -0.7922
 2791SOL    HW218105   8.278   4.493   1.078  0.1834 -0.0441  0.3690
 2792SOL     OW18106   8.200   0.520   0.326 -0.3546 -0.6335 -0.1605
 2792SOL    HW118107   8.288   0.477   0.305 -0.8229 -1.0317 -1.3920
 2792SOL    HW218108   8.139   0.453   0.369 -1.2328 -1.3764 -2.4702
 2793SOL     OW18109   9.170   9.215   1.089  0.0948 -0.4531 -0.2737
 2793SOL    HW118110   9.248   9.274   1.069 -0.0660 -0.7120 -1.6732
 2793SOL    HW218111   9.090   9.247   1.040 -0.3513 -0.9960  0.0903
 2794SOL     OW18112   8.467   6.306   0.391 -1.0465  0.0601 -0.1391
 2794SOL    HW118113   8.540   6.328   0.456 -0.0421  1.3570 -1.6556
 2794SOL    HW218114   8.384   6.283   0.441  0.1035 -0.4449  1.6191
 2796SOL     OW18115   3.749   1.116   5.077  0.2221 -0.2289  0.2992
 2796SOL    HW118116   3.810   1.195   5.075  0.2697 -0.2383  1.3571
 2796SOL    HW218117   3.673   1.133   5.139  0.0991 -0.9198  0.3486
 2797SOL     OW18118   1.270   8.692   1.596 -0.3490 -0.1471  0.0551
 2797SOL    HW118119   1.272   8.769   1.533 -1.5906 -0.1403  0.0069
 2797SOL    HW218120   1.330   8.619   1.563  0.0826  0.4167 -0.3944
 2799SOL     OW18121   8.674   9.850   5.491  0.3620  0.0771 -0.0454
 2799SOL    HW118122   8.636   9.845   5.398 -1.0238  0.6178  0.4817
 2799SOL    HW218123   8.620   9.914   5.545  1.3019 -0.0751  1.0844
 2800SOL     OW18124   4.318   5.205   0.393 -0.1917 -0.2758 -0.6743
 2800SOL    HW118125   4.360   5.220   0.482 -1.4035 -1.5308  0.1200
 2800SOL    HW218126   4.349   5.276   0.330  1.2986  0.1646  0.5125
 2802SOL     OW18127   9.214   2.916   3.883  0.3334  0.4810  0.1403
 2802SOL    HW118128   9.260   2.861   3.953  0.7428  0.1256 -0.4078
 2802SOL    HW218129   9.281   2.946   3.816  0.2023  2.0055  0.6619
 2803SOL     OW18130   8.018   8.898   3.224 -0.5874  0.2846 -0.2352
 2803SOL    HW118131   8.032   8.954   3.143  2.5448 -1.3736 -0.8900
 2803SOL    HW218132   8.095   8.909   3.287 -1.4530 -0.8880  1.0839
 2804SOL     OW18133   8.696   9.550   5.394 -0.1573 -0.0722 -0.7319
 2804SOL    HW118134   8.696   9.450   5.398 -0.5551 -0.0142  1.0340
 2804SOL    HW218135   8.633   9.579   5.322 -0.2433 -1.0860 -1.0833
 2805SOL     OW18136   0.067   2.929   6.432 -0.3101  0.3076  0.0609
 2805SOL    HW118137   0.059   2.885   6.343  0.7771 -0.0489  0.1356
 2805SOL    HW218138   0.075   3.028   6.421 -1.2762  0.3708 -0.1737
 2806SOL     OW18139   3.683   9.476   0.741  0.4740 -0.3549 -0.0586
 2806SOL    HW118140   3.752   9.549   0.740  0.1812 -0.0803 -0.3048
 2806SOL    HW218141   3.725   9.390   0.714  0.3905  0.1005 -1.6441
 2807SOL     OW18142   6.316   8.106   3.163  0.5052  0.5072  0.5131
 2807SOL    HW118143   6.312   8.022   3.109  0.5484  0.0886  1.1691
 2807SOL    HW218144   6.226   8.151   3.161  0.1469 -0.1760  1.1674
 2808SOL     OW18145   0.942   7.430   5.662  0.0669  0.6856 -0.3386
 2808SOL    HW118146   0.852   7.391   5.646 -0.5012  1.8470 -0.0203
 2808SOL    HW218147   0.936   7.530   5.661  1.2927  0.7707 -0.0302
 2810SOL     OW18148   1.323   8.872   2.825 -0.2716  0.1233 -0.0061
 2810SOL    HW118149   1.229   8.896   2.849 -0.4260  0.1486 -0.6319
 2810SOL    HW218150   1.383   8.949   2.848 -0.5364  0.4727 -0.4909
 2811SOL     OW18151   9.452   7.643   5.380 -0.4282  0.3534 -0.0505
 2811SOL    HW118152   9.433   7.666   5.475  1.9781  1.9569  0.0795
 2811SOL    HW218153   9.548   7.617   5.370 -0.2647  1.6422 -2.2910
 2812SOL     OW18154   9.496   8.224   3.081  0.6767 -0.2037  0.3231
 2812SOL    HW118155   9.523   8.266   3.168 -0.0359  1.3582 -0.1889
 2812SOL    HW218156   9.429   8.152   3.099 -0.4308  0.9638  0.9890
 2813SOL     OW18157   8.651   2.815   6.260 -0.0276  0.4461 -0.0061
 2813SOL    HW118158   8.640   2.800   6.162 -0.2578 -0.0231  0.0881
 2813SOL    HW218159   8.748   2.827   6.281  0.0436  0.3420 -0.2650
 2814SOL     OW18160   9.485   6.156   3.035 -0.3255  0.7420 -0.1465
 2814SOL    HW118161   9.477   6.072   3.090 -0.4503  1.7336  1.3978
 2814SOL    HW218162   9.393   6.190   3.013 -0.2731  0.2924 -1.0526
 2815SOL     OW18163   7.613   9.646   0.213 -0.6013  0.2123 -0.1808
 2815SOL    HW118164   7.685   9.715   0.213  1.9444 -2.3056  1.2533
 2815SOL    HW218165   7.645   9.566   0.264 -2.7155 -2.7165 -3.2763
 2816SOL     OW18166   3.830   2.780   6.022  0.3439  0.2199 -0.2298
 2816SOL    HW118167   3.755   2.782   6.087 -0.8344 -0.5311 -1.5461
 2816SOL    HW218168   3.825   2.860   5.962  0.6198  0.2049 -0.2730
 2817SOL     OW18169   7.486   7.742   4.062 -0.3372 -0.1747 -0.5872
 2817SOL    HW118170   7.399   7.772   4.101  1.1101  1.7379  1.2575
 2817SOL    HW218171   7.500   7.645   4.080 -0.0223  0.5153  3.1360
 2818SOL     OW18172   9.247   1.651   2.755  0.2759 -0.3963 -0.1888
 2818SOL    HW118173   9.289   1.727   2.804 -0.4849 -0.8915  1.2418
 2818SOL    HW218174   9.242   1.673   2.657  0.2042  1.3124  0.1914
 2820SOL     OW18175   6.196   6.251   1.061 -0.2194 -0.5366  0.1483
 2820SOL    HW118176   6.156   6.315   0.996 -1.6612 -0.3385  1.2118
 2820SOL    HW218177   6.232   6.171   1.012  0.0909  0.3203 -1.0186
 2821SOL     OW18178   9.398   6.831   2.473  0.2405  0.2663 -0.0187
 2821SOL    HW118179   9.431   6.745   2.512  1.6557  0.7006 -0.2208
 2821SOL    HW218180   9.355   6.814   2.385  2.2529 -0.0206 -0.9756
 2822SOL     OW18181   4.370   2.330   2.558  0.2027 -0.0713  0.5178
 2822SOL    HW118182   4.426   2.286   2.488 -1.0894  0.7910 -1.1089
 2822SOL    HW218183   4.425   2.396   2.609  1.1546 -0.6947  0.3044
 2824SOL     OW18184   9.062   7.385   4.815 -0.4662 -0.5797  0.4528
 2824SOL    HW118185   9.119   7.445   4.870  1.4491 -1.0776 -0.9519
 2824SOL    HW218186   9.004   7.439   4.754  2.3747 -0.1033 -1.9327
 2825SOL     OW18187   3.275   3.406   0.589 -0.2080 -0.1780  0.0665
 2825SOL    HW118188   3.208   3.400   0.515 -1.4799 -0.4498  1.1969
 2825SOL    HW218189   3.341   3.332   0.581 -0.7680 -0.6364 -0.3963
 2826SOL     OW18190   3.497   2.721   1.089 -0.2008  0.0380  0.0561
 2826SOL    HW118191   3.596   2.717   1.084 -0.2773 -0.1452 -1.3606
 2826SOL    HW218192   3.464   2.805   1.046 -0.7378 -0.5424 -0.6877
 2827SOL     OW18193   2.450   7.289   4.320  0.2078 -0.0700  0.0486
 2827SOL    HW118194   2.493   7.354   4.257  1.0210  0.5346  1.2061
 2827SOL    HW218195   2.452   7.326   4.413 -1.7381 -0.5722  0.3182
 2828SOL     OW18196   2.822   4.534   2.624  0.0407 -0.1324 -0.4038
 2828SOL    HW118197   2.812   4.594   2.545  2.3246 -0.5315 -1.0526
 2828SOL    HW218198   2.746   4.548   2.687 -0.2179  2.3800 -1.2287
 2829SOL     OW18199   3.146   4.204   2.354 -0.1426 -0.1333  0.3604
 2829SOL    HW118200   3.233   4.170   2.390 -0.0603  0.2678  0.5502
 2829SOL    HW218201   3.128   4.162   2.265  0.6155  0.3446 -0.0285
 2830SOL     OW18202   8.258   7.692   2.255  0.2136  0.0674  0.7243
 2830SOL    HW118203   8.230   7.690   2.159 -0.5730  1.9051  0.8941
 2830SOL    HW218204   8.339   7.636   2.267  0.5691  0.1512 -1.1124
 2831SOL     OW18205   4.600   2.115   5.332 -0.1326 -0.2170 -0.4419
 2831SOL    HW118206   4.615   2.126   5.233  1.4652  1.5026 -0.0256
 2831SOL    HW218207   4.508   2.148   5.355  0.4454  1.8301 -0.9787
 2833SOL     OW18208   4.124   3.322   2.014 -0.5083  0.5887  0.3823
 2833SOL    HW118209   4.041   3.310   2.068 -0.8912  0.0563 -0.3185
 2833SOL    HW218210   4.159   3.232   1.987  0.9470  0.7492  1.6428
 2834SOL     OW18211   3.579   5.710   4.974 -0.5850 -0.5189  0.0887
 2834SOL    HW118212   3.580   5.740   4.878 -0.1783 -1.4865 -0.2208
 2834SOL    HW218213   3.642   5.767   5.027  0.5269 -1.0781 -0.5853
 2835SOL     OW18214   5.352   0.495   2.841  0.0917 -0.0538  0.3368
 2835SOL    HW118215   5.264   0.479   2.797  0.7940 -1.0962 -0.7408
 2835SOL    HW218216   5.343   0.566   2.910 -1.9558 -1.2759  1.3675
 2836SOL     OW18217   1.154   2.060   5.201 -0.5003  0.5434 -0.5044
 2836SOL    HW118218   1.241   2.085   5.157  0.9250 -2.4313  0.4896
 2836SOL    HW218219   1.085   2.045   5.130 -0.1646  2.6940 -1.3297
 2837SOL     OW18220   2.698   4.204   1.890  0.1588  0.1342  0.7521
 2837SOL    HW118221   2.602   4.191   1.869  0.1014  0.3373  0.8883
 2837SOL    HW218222   2.736   4.275   1.830 -0.0397  0.8134  1.4373
 2838SOL     OW18223   4.463   3.945   3.297  0.0364  0.3712 -0.4468
 2838SOL    HW118224   4.463   3.902   3.387  2.6704  1.4985  0.1522
 2838SOL    HW218225   4.414   3.887   3.231 -0.0620 -1.4812  1.2267
 2839SOL     OW18226   8.855   8.904   3.165  0.5703  0.6875  0.2793
 2839SOL    HW118227   8.839   9.001   3.179 -0.6862  0.4073  0.8854
 2839SOL    HW218228   8.769   8.854   3.179  1.4466 -0.6122  1.0881
 2840SOL     OW18229   4.189   9.006   5.506  0.4175 -0.1181 -0.7314
 2840SOL    HW118230   4.239   8.925   5.478  0.4816  0.0458 -1.0887
 2840SOL    HW218231   4.094   8.999   5.476  0.8915  0.8365 -2.5231
 2841SOL     OW18232   2.088   0.914   1.639 -0.2732  0.3825 -0.2053
 2841SOL    HW118233   2.112   0.819   1.620  0.9229  0.5578  0.3710
 2841SOL    HW218234   2.112   0.935   1.734 -2.0477  0.7872  0.1725
 2842SOL     OW18235   1.827   6.165   1.423 -0.0042 -0.0349 -0.5817
 2842SOL    HW118236   1.880   6.236   1.376  0.6533 -0.1768 -0.0629
 2842SOL    HW218237   1.802   6.093   1.358  1.0403 -0.3105 -0.6845
 2843SOL     OW18238   3.850   7.389   1.947 -0.0237 -0.0395  0.8636
 2843SOL    HW118239   3.934   7.407   1.999 -0.9916  0.7354  2.1959
 2843SOL    HW218240   3.822   7.472   1.900  0.4564 -0.5507 -0.3381
 2844SOL     OW18241   1.441   3.609   1.559  0.4269  0.2203 -0.1359
 2844SOL    HW118242   1.443   3.653   1.649 -1.4734  1.0270 -0.4685
 2844SOL    HW218243   1.385   3.526   1.565  1.2655 -0.3557 -0.2978
 2845SOL     OW18244   1.423   1.987   4.846  0.7035 -0.0477 -0.6707
 2845SOL    HW118245   1.351   1.986   4.777  0.1146  0.4857 -0.0583
 2845SOL    HW218246   1.482   1.907   4.833  0.8698  0.2883 -2.0813
 2846SOL     OW18247   9.801   9.344   2.945  0.6480 -0.3588 -0.5727
 2846SOL    HW118248   9.777   9.337   2.848  2.3129 -0.4060 -0.9889
 2846SOL    HW218249   9.887   9.296   2.962 -0.0783 -1.1048  1.1049
 2847SOL     OW18250   8.906   8.954   0.138  0.2260  0.0224  0.2529
 2847SOL    HW118251   8.896   8.858   0.164  1.1898 -0.6411 -1.7563
 2847SOL    HW218252   8.816   8.994   0.122 -0.3177  0.0483  3.0436
 2848SOL     OW18253   2.769   7.321   0.727 -0.1463 -0.7542 -0.4425
 2848SOL    HW118254   2.752   7.224   0.742  3.3494 -1.7723 -2.4692
 2848SOL    HW218255   2.858   7.346   0.766  0.1332  1.0364 -2.1550
 2849SOL     OW18256   4.246   0.813   2.252  0.1349  0.2820  0.1974
 2849SOL    HW118257   4.281   0.893   2.203  0.0312  0.7025  0.8135
 2849SOL    HW218258   4.230   0.739   2.186 -0.1849  0.9056 -0.4332
 2850SOL     OW18259   7.179   9.123   3.727  0.1840  0.1087 -0.1721
 2850SOL    HW118260   7.202   9.193   3.658 -2.0076  1.1951  0.1384
 2850SOL    HW218261   7.181   9.165   3.818  0.6571 -0.7157  0.2007
 2851SOL     OW18262   2.298   8.491   2.398  0.1131 -0.6000 -0.2670
 2851SOL    HW118263   2.256   8.534   2.478 -1.5882 -1.0566 -0.8992
 2851SOL    HW218264   2.230   8.481   2.326  1.9596  1.0650 -2.2949
 2852SOL     OW18265   3.914   3.943   0.362 -0.0975 -0.8770  0.6025
 2852SOL    HW118266   3.951   3.998   0.287  0.1338  0.8695  1.9851
 2852SOL    HW218267   3.861   4.001   0.424 -1.7456 -2.6216  0.8629
 2853SOL     OW18268   7.709   4.839   2.040  0.1439  0.4581 -0.6681
 2853SOL    HW118269   7.697   4.824   2.138  1.1193  2.9585 -0.1474
 2853SOL    HW218270   7.653   4.916   2.011  0.8050  0.5097 -1.8396
 2854SOL     OW18271   8.595   7.282   2.398  0.2101 -0.1340  0.1426
 2854SOL    HW118272   8.642   7.280   2.310  0.0123  0.9120  0.0141
 2854SOL    HW218273   8.512   7.337   2.390 -1.0443 -1.9584  0.3715
 2856SOL     OW18274   8.295   9.133   4.685  0.1452 -0.4619 -0.6833
 2856SOL    HW118275   8.287   9.058   4.621 -0.9811 -2.9429  2.2357
 2856SOL    HW218276   8.211   9.187   4.685  0.2271 -0.3356 -1.4028
 2857SOL     OW18277   5.492   9.427   6.085  0.5559 -0.0922  0.8839
 2857SOL    HW118278   5.531   9.410   5.995 -2.6218  1.4478 -0.8696
 2857SOL    HW218279   5.433   9.508   6.081 -0.2354 -0.4403  4.1745
 2859SOL     OW18280   2.842   9.103   4.851  0.3626 -0.2955  0.9503
 2859SOL    HW118281   2.919   9.165   4.837  0.4894 -0.4607  0.9229
 2859SOL    HW218282   2.782   9.106   4.770  0.3787 -0.2239  0.9410
 2861SOL     OW18283   1.749   8.053   1.536  0.4112  0.2221  0.0621
 2861SOL    HW118284   1.816   8.043   1.462  0.0322 -1.6967 -0.0348
 2861SOL    HW218285   1.761   7.979   1.602 -2.3627 -0.8345 -0.5577
 2862SOL     OW18286   0.688   1.405   3.165  0.5398  0.2312 -0.5243
 2862SOL    HW118287   0.603   1.413   3.217  0.1907 -0.0273 -1.0477
 2862SOL    HW218288   0.666   1.394   3.068  1.1569 -0.9504 -0.5278
 2863SOL     OW18289   1.194   1.448   1.525 -0.1697 -0.1293  0.2712
 2863SOL    HW118290   1.104   1.486   1.504  0.7810  2.8385  1.3727
 2863SOL    HW218291   1.227   1.395   1.446 -2.2103 -0.0176 -0.6933
 2864SOL     OW18292   9.121   0.310   5.796 -0.4848  0.2247  0.1862
 2864SOL    HW118293   9.193   0.380   5.794  0.3298 -0.5868  0.4844
 2864SOL    HW218294   9.138   0.248   5.872 -0.8672 -0.6488 -0.4375
 2866SOL     OW18295   2.088   3.450   1.235  0.4578  0.0002  0.4347
 2866SOL    HW118296   1.991   3.472   1.247  0.4782 -0.2100  0.9847
 2866SOL    HW218297   2.117   3.387   1.306  0.9375 -0.1373  0.1181
 2867SOL     OW18298   1.992   8.191   0.416 -0.3883 -0.0987 -0.1163
 2867SOL    HW118299   1.990   8.189   0.516  0.6262  0.0518 -0.0851
 2867SOL    HW218300   2.052   8.118   0.383 -1.0620 -0.4245 -0.6341
 2868SOL     OW18301   2.811   5.068   1.626  0.0504  0.1961  0.4177
 2868SOL    HW118302   2.879   5.138   1.645 -0.4845  0.2542  2.1479
 2868SOL    HW218303   2.720   5.102   1.651  0.0357 -1.9009  3.4596
 2869SOL     OW18304   9.786   3.817   4.925 -0.4059  0.0628 -0.1305
 2869SOL    HW118305   9.849   3.840   4.851 -1.9460 -0.0867 -1.5369
 2869SOL    HW218306   9.792   3.886   4.997 -0.5961  1.5629 -1.5068
 2871SOL     OW18307   5.150   9.029   4.593 -0.2193 -0.2033 -0.1588
 2871SOL    HW118308   5.202   9.114   4.598 -1.1099  0.4354 -1.5533
 2871SOL    HW218309   5.061   9.046   4.549 -1.2815 -1.4294  1.4457
 2872SOL     OW18310   2.239   1.420   6.006  0.5167  0.0382 -0.0861
 2872SOL    HW118311   2.299   1.352   5.964  1.5653  1.6949 -1.3325
 2872SOL    HW218312   2.209   1.485   5.937  0.2922  1.4087  1.2778
 2873SOL     OW18313   4.274   0.527   3.045  0.1991 -0.4860  0.0276
 2873SOL    HW118314   4.253   0.450   2.985 -1.0855 -0.2174  0.1093
 2873SOL    HW218315   4.189   0.564   3.083  0.8320  0.6815  0.3488
 2877SOL     OW18316   6.898   8.239   2.856 -0.0965  0.2962 -0.3929
 2877SOL    HW118317   6.853   8.263   2.770  0.2422  2.5590  0.0256
 2877SOL    HW218318   6.989   8.280   2.858  0.4580 -0.9556  0.4408
 2878SOL     OW18319   8.632   9.003   6.377  0.4330  0.1668 -0.4803
 2878SOL    HW118320   8.690   9.080   6.349  0.6006  0.1160 -0.2798
 2878SOL    HW218321   8.689   8.923   6.396  0.5600  0.8104  2.0688
 2879SOL     OW18322   0.014   0.127   5.966  0.4290  0.3721  0.0554
 2879SOL    HW118323   0.013   0.227   5.963  2.4883  0.4257  0.4413
 2879SOL    HW218324   0.046   0.096   6.055  0.1475 -0.6401 -0.1810
 2880SOL     OW18325   1.091   9.345   5.186  0.0477 -0.4667  0.4051
 2880SOL    HW118326   1.066   9.351   5.283 -0.5781  0.9555  0.1682
 2880SOL    HW218327   1.095   9.436   5.147 -1.9927 -1.1334 -1.4928
 2881SOL     OW18328   8.448   9.899   3.465  0.0214  0.2145 -0.0950
 2881SOL    HW118329   8.484   9.805   3.467  0.9085  0.5321 -0.7642
 2881SOL    HW218330   8.372   9.907   3.529 -0.0045 -0.9459  0.0273
 2882SOL     OW18331   1.838   6.333   0.298  0.0873 -0.2288  0.1724
 2882SOL    HW118332   1.751   6.313   0.253 -0.0545  1.1403 -0.2041
 2882SOL    HW218333   1.835   6.304   0.393 -0.4633 -0.9860 -0.0722
 2883SOL     OW18334   4.103   5.171   2.805  0.4129 -0.5404 -0.0653
 2883SOL    HW118335   4.083   5.178   2.903  0.5083 -1.8685  0.0532
 2883SOL    HW218336   4.176   5.104   2.790  0.5380 -0.1961 -1.0271
 2885SOL     OW18337   3.966   8.111   5.882  0.0773  0.1033 -0.4496
 2885SOL    HW118338   4.030   8.087   5.955 -1.0802  1.6014  1.1218
 2885SOL    HW218339   3.891   8.045   5.880 -0.1524  0.3458  0.0618
 2886SOL     OW18340   8.392   3.310   3.784  0.2338  0.3193  0.1518
 2886SOL    HW118341   8.407   3.396   3.735  0.1526  0.8445  1.0406
 2886SOL    HW218342   8.326   3.325   3.858  0.6824 -0.3666  0.6954
 2887SOL     OW18343   1.547   3.842   5.222  0.1805 -0.3208 -0.1778
 2887SOL    HW118344   1.517   3.808   5.312  0.8448 -2.4493 -0.7359
 2887SOL    HW218345   1.469   3.844   5.159  0.7487 -4.0763 -1.0960
 2889SOL     OW18346   3.428   1.819   1.662  0.9270  0.1481  0.0828
 2889SOL    HW118347   3.457   1.784   1.573  0.9478  0.1617  0.0841
 2889SOL    HW218348   3.380   1.747   1.712 -1.4828  0.9482 -1.0445
 2892SOL     OW18349   0.618   3.146   2.412 -0.5663 -0.3350 -0.0823
 2892SOL    HW118350   0.577   3.072   2.359  1.5562 -0.8376 -1.0568
 2892SOL    HW218351   0.645   3.111   2.502  1.3708 -1.0256 -0.9178
 2893SOL     OW18352   8.861   0.723   2.182  0.7118 -0.4776 -0.2643
 2893SOL    HW118353   8.944   0.723   2.238 -0.4237  1.3962  1.4958
 2893SOL    HW218354   8.864   0.800   2.118  0.6900 -0.8827 -0.7517
 2895SOL     OW18355   8.120   6.794   5.556  0.1097 -0.6490  0.3070
 2895SOL    HW118356   8.189   6.722   5.563  1.1651  0.4856  2.1404
 2895SOL    HW218357   8.032   6.755   5.533  1.0077 -2.3331 -0.3317
 2897SOL     OW18358   9.484   2.094   2.387  0.4863 -0.0384 -0.1533
 2897SOL    HW118359   9.521   2.135   2.470  1.6086 -0.4583 -0.4327
 2897SOL    HW218360   9.554   2.095   2.316  0.6134 -2.6252 -0.1032
 2898SOL     OW18361   4.929   9.745   2.959 -0.0554  0.3254  0.5152
 2898SOL    HW118362   4.927   9.645   2.958 -0.0459  0.3239 -1.4994
 2898SOL    HW218363   4.837   9.781   2.950  0.1427  0.4904 -0.8899
 2899SOL     OW18364   9.700   6.402   4.689 -0.4532  0.0879  0.0197
 2899SOL    HW118365   9.671   6.446   4.773 -0.9931  0.8289 -0.5454
 2899SOL    HW218366   9.628   6.340   4.657 -0.2973 -0.1022  0.0308
 2901SOL     OW18367   4.322   3.989   4.637 -0.3391  0.1985 -0.1496
 2901SOL    HW118368   4.326   4.059   4.566  1.1203  0.6488  0.3466
 2901SOL    HW218369   4.392   3.919   4.619  1.0265  1.0786  1.6123
 2902SOL     OW18370   1.713   7.570   1.665  0.0029  0.4645  0.2516
 2902SOL    HW118371   1.623   7.579   1.622  0.0486 -1.6877 -0.3604
 2902SOL    HW218372   1.748   7.478   1.649  1.6741  0.8155  1.7543
 2904SOL     OW18373   0.390   2.964   5.929  0.3562 -0.0562 -0.3750
 2904SOL    HW118374   0.333   2.934   5.852 -0.5789  0.9294 -0.0816
 2904SOL    HW218375   0.473   3.006   5.893  0.7467 -1.1700 -0.8112
 2905SOL     OW18376   0.605   4.433   2.967  0.1582  0.9734 -0.2077
 2905SOL    HW118377   0.592   4.342   3.007  1.8492  0.5828 -0.4740
 2905SOL    HW218378   0.599   4.426   2.867 -0.8065  1.3576 -0.1797
 2906SOL     OW18379   3.004   5.843   1.034  0.0154 -0.1547 -0.4195
 2906SOL    HW118380   3.070   5.891   0.977 -0.4841 -1.5838 -2.2527
 2906SOL    HW218381   2.967   5.765   0.984 -1.0849 -0.9461  1.5599
 2907SOL     OW18382   2.498   6.906   2.042 -0.5162 -0.3793 -0.4903
 2907SOL    HW118383   2.502   6.881   1.945  0.7779 -1.8420 -0.0805
 2907SOL    HW218384   2.567   6.976   2.061 -2.0493  1.2817 -1.0064
 2908SOL     OW18385   1.735   9.308   4.294  0.4309 -0.2840 -0.5862
 2908SOL    HW118386   1.717   9.235   4.359  1.6992 -1.9971 -2.0917
 2908SOL    HW218387   1.649   9.349   4.265 -0.0896  1.1838  2.8707
 2909SOL     OW18388   9.356   0.531   0.434 -0.4054  0.3306  0.0128
 2909SOL    HW118389   9.280   0.595   0.425 -0.0852  0.6556 -0.3886
 2909SOL    HW218390   9.367   0.506   0.531 -0.6972  0.6725  0.1365
 2910SOL     OW18391   3.270   1.618   1.786 -0.3561  0.2565  0.4127
 2910SOL    HW118392   3.317   1.532   1.768 -0.6641  0.2332 -0.3067
 2910SOL    HW218393   3.179   1.616   1.745 -0.5485  0.7465  0.7976
 2911SOL     OW18394   8.789   2.227   1.520  0.8056  0.0626  0.1210
 2911SOL    HW118395   8.859   2.249   1.588  0.6679 -0.1411  0.3276
 2911SOL    HW218396   8.699   2.229   1.563  0.4707  2.4634 -0.6207
 2912SOL     OW18397   0.736   2.556   5.749 -0.5318 -0.4906  0.4070
 2912SOL    HW118398   0.670   2.630   5.745  1.9083  1.8356  1.7251
 2912SOL    HW218399   0.758   2.525   5.657 -2.0260 -0.0254 -0.1144
 2913SOL     OW18400   8.531   1.914   1.622 -0.0299  0.0167  0.4221
 2913SOL    HW118401   8.480   1.864   1.552  0.0714  1.5662 -0.7936
 2913SOL    HW218402   8.629   1.907   1.603  0.1140 -1.1094  1.4947
 2914SOL     OW18403   7.840   2.774   1.606  0.0979 -0.1667 -0.0802
 2914SOL    HW118404   7.813   2.866   1.632 -0.8836 -0.4601 -0.0300
 2914SOL    HW218405   7.842   2.716   1.688 -0.5907 -0.5062 -0.3056
 2915SOL     OW18406   3.059   2.002   1.487 -0.5254 -0.1532 -0.3567
 2915SOL    HW118407   3.080   2.099   1.485  0.0861 -0.2520  0.9137
 2915SOL    HW218408   2.961   1.989   1.496 -0.4887  0.3724  0.9683
 2916SOL     OW18409   0.898   1.371   4.457 -0.3688  0.4495 -0.2577
 2916SOL    HW118410   0.830   1.300   4.438 -0.7355  0.2743  1.6077
 2916SOL    HW218411   0.851   1.456   4.483  0.0990  0.8103 -0.5853
 2917SOL     OW18412   1.172   0.691   2.203 -0.2211  0.0502 -0.0743
 2917SOL    HW118413   1.170   0.694   2.303 -0.3891 -2.4084  0.0113
 2917SOL    HW218414   1.104   0.755   2.167 -1.0059  0.0725  1.4023
 2918SOL     OW18415   2.185   4.431   3.540  0.2277  0.5616  0.7660
 2918SOL    HW118416   2.126   4.436   3.620 -0.6068 -1.8434  0.3391
 2918SOL    HW218417   2.129   4.423   3.457  1.1256  0.0128  0.2026
 2919SOL     OW18418   0.064   8.063   1.447  0.1740  0.5180  0.0682
 2919SOL    HW118419   0.027   8.153   1.467  1.2577  0.8731  0.5074
 2919SOL    HW218420   0.089   8.058   1.350  1.8088  1.3291  0.4234
 2920SOL     OW18421   0.940   8.022   5.132 -0.1337  0.4128  0.9302
 2920SOL    HW118422   0.908   8.070   5.050 -0.5236 -3.0192 -1.0765
 2920SOL    HW218423   0.882   8.045   5.210 -1.8296  1.2838 -0.5456
 2921SOL     OW18424   9.214   6.106   5.209 -0.2507  0.6165  0.1921
 2921SOL    HW118425   9.266   6.020   5.211  3.3002  2.6602  0.3963
 2921SOL    HW218426   9.165   6.117   5.295 -1.1782 -1.4544 -0.0469
 2922SOL     OW18427   1.924   2.300   1.457 -0.2347 -0.2628 -0.0082
 2922SOL    HW118428   1.985   2.221   1.465 -2.0103 -1.6233  0.3223
 2922SOL    HW218429   1.978   2.382   1.436  1.6099 -1.5812 -0.4955
 2923SOL     OW18430   0.961   3.950   5.345  0.0074  0.2123 -0.3849
 2923SOL    HW118431   1.055   3.942   5.379  0.6137 -1.4060 -2.3594
 2923SOL    HW218432   0.915   4.024   5.393  1.4827 -0.6202  2.4165
 2924SOL     OW18433   7.419   6.052   1.845 -0.2240  0.1491  0.2425
 2924SOL    HW118434   7.400   6.012   1.935  0.3548 -0.0426  0.2846
 2924SOL    HW218435   7.419   5.980   1.776  0.5512  0.1040  0.2787
 2925SOL     OW18436   3.514   6.391   4.592  0.5925  0.2204  0.3424
 2925SOL    HW118437   3.535   6.306   4.640 -1.3390 -0.1369  0.6021
 2925SOL    HW218438   3.463   6.452   4.654  0.4112  0.8371 -0.4107
 2926SOL     OW18439   7.077   6.603   6.148  0.4873 -0.4460 -0.5510
 2926SOL    HW118440   7.006   6.537   6.123 -0.2987 -0.0332  0.5394
 2926SOL    HW218441   7.130   6.626   6.067 -1.0203 -0.2996 -1.5301
 2927SOL     OW18442   5.273   7.692   5.018 -0.4008 -0.2518 -0.0585
 2927SOL    HW118443   5.266   7.734   5.109 -1.5223 -2.6153  0.9943
 2927SOL    HW218444   5.366   7.656   5.006  0.3128  1.7197 -0.6314
 2928SOL     OW18445   2.083   2.835   1.164 -0.0535 -0.3928 -0.0338
 2928SOL    HW118446   2.012   2.770   1.139  0.7112 -1.1839 -0.1724
 2928SOL    HW218447   2.057   2.927   1.133 -1.5152 -0.4892  0.8965
 2929SOL     OW18448   8.876   7.047   0.504 -0.3486 -0.6000 -0.3538
 2929SOL    HW118449   8.903   6.953   0.524 -1.7024 -0.6714  1.2823
 2929SOL    HW218450   8.815   7.047   0.425  0.1415 -1.0269 -0.7385
 2931SOL     OW18451   1.010   9.638   2.207  0.0080 -0.5283  0.4813
 2931SOL    HW118452   0.941   9.580   2.249  0.4330 -1.0765  0.4228
 2931SOL    HW218453   1.097   9.588   2.200  0.1875 -0.1323 -0.2086
 2932SOL     OW18454   7.482   2.261   2.408  0.1615 -0.3750 -0.4423
 2932SOL    HW118455   7.395   2.265   2.457  0.6930 -1.1499  0.5661
 2932SOL    HW218456   7.506   2.166   2.389  0.4939 -0.1332 -1.2719
 2933SOL     OW18457   3.548   0.834   2.062  0.1319  0.9499 -0.1415
 2933SOL    HW118458   3.457   0.877   2.068 -1.1671 -1.7317  0.1899
 2933SOL    HW218459   3.547   0.747   2.111  2.6576  0.4797 -0.8612
 2934SOL     OW18460   4.672   2.833   5.594 -0.2336  0.7933 -0.8222
 2934SOL    HW118461   4.650   2.927   5.619  1.1742  0.6449  1.1571
 2934SOL    HW218462   4.588   2.780   5.584 -1.0829  2.4420 -2.8509
 2935SOL     OW18463   5.824   1.280   5.190 -0.1120  0.0746  0.2067
 2935SOL    HW118464   5.769   1.341   5.131 -0.2476 -1.6227 -1.4598
 2935SOL    HW218465   5.911   1.325   5.211 -0.3175  0.9789 -0.7862
 2936SOL     OW18466   9.203   5.773   1.049 -0.0155 -0.2053  0.2281
 2936SOL    HW118467   9.168   5.844   0.988  0.2755 -0.6338 -0.4348
 2936SOL    HW218468   9.264   5.712   0.999 -1.3301 -1.7503  0.4853
 2937SOL     OW18469   2.607   9.246   3.266  0.0622 -0.0923 -0.6503
 2937SOL    HW118470   2.648   9.280   3.351 -0.1441  0.1244 -0.6391
 2937SOL    HW218471   2.604   9.146   3.269 -0.9908 -0.0544  0.0882
 2939SOL     OW18472   9.504   8.346   0.694 -0.5544  0.2402  0.0546
 2939SOL    HW118473   9.493   8.332   0.596  0.3295  1.7403 -0.2767
 2939SOL    HW218474   9.452   8.277   0.744  0.9315 -2.0340 -1.4634
 2940SOL     OW18475   9.245   3.669   3.695 -0.0091 -0.3925 -0.9625
 2940SOL    HW118476   9.174   3.604   3.670 -0.0298  0.0348 -2.0315
 2940SOL    HW218477   9.294   3.636   3.776 -0.3360 -1.4986 -1.2129
 2943SOL     OW18478   0.825   0.320   5.646  0.0045  0.2379 -0.3872
 2943SOL    HW118479   0.726   0.322   5.635  0.0353 -0.0854 -0.7471
 2943SOL    HW218480   0.848   0.284   5.737 -0.1819 -2.1325 -1.2332
 2947SOL     OW18481   5.997   0.716   6.369  0.2735 -0.0143 -0.1795
 2947SOL    HW118482   6.045   0.643   6.417  1.4580 -0.2146 -1.6179
 2947SOL    HW218483   5.929   0.677   6.307  0.1835  0.1481 -0.1843
 2948SOL     OW18484   0.228   8.942   2.912 -0.1122  0.2199 -0.9343
 2948SOL    HW118485   0.185   8.954   2.823  2.3071  0.0527 -2.1717
 2948SOL    HW218486   0.248   9.031   2.953  1.7128  0.3449 -2.0545
 2950SOL     OW18487   7.810   5.263   5.876 -1.1869  0.1713  0.0097
 2950SOL    HW118488   7.757   5.217   5.947 -0.4682  0.1095  0.5215
 2950SOL    HW218489   7.883   5.317   5.919 -0.0864 -0.7198 -0.7289
 2951SOL     OW18490   8.816   5.410   2.760 -0.0574 -0.3195  0.7160
 2951SOL    HW118491   8.908   5.373   2.744  0.1762  1.1595 -1.4871
 2951SOL    HW218492   8.751   5.368   2.697 -0.3971  0.6300  0.4331
 2953SOL     OW18493   8.494   5.892   4.479 -0.4685  0.1445 -0.0256
 2953SOL    HW118494   8.437   5.914   4.558  0.2401 -1.1218  0.8610
 2953SOL    HW218495   8.466   5.804   4.442  1.6366 -1.0593  1.1403
 2954SOL     OW18496   2.667   5.733   1.235  0.4470  0.5533 -0.0456
 2954SOL    HW118497   2.733   5.670   1.277 -0.1088  0.6977  1.0463
 2954SOL    HW218498   2.711   5.821   1.218  1.1948 -0.0808 -1.4663
 2955SOL     OW18499   1.740   9.983   0.408 -0.4729  0.2230 -0.5955
 2955SOL    HW118500   1.787  10.070   0.418  1.0417 -0.5470 -0.9324
 2955SOL    HW218501   1.743   9.953   0.313 -1.6337  0.1510 -0.6206
 2956SOL     OW18502   2.881   0.651   2.585 -0.4268  0.5049  0.2469
 2956SOL    HW118503   2.860   0.749   2.593  1.0130  0.8502 -0.1048
 2956SOL    HW218504   2.961   0.639   2.527 -0.5792 -0.8873  0.3235
 2958SOL     OW18505   1.212   3.687   0.985 -0.5771 -0.0521 -0.0112
 2958SOL    HW118506   1.172   3.760   1.040 -1.1097 -0.1175 -0.3062
 2958SOL    HW218507   1.312   3.693   0.989 -0.6181  0.6341  0.0409
 2959SOL     OW18508   0.152   8.136   5.101 -0.4900  0.2330 -0.7723
 2959SOL    HW118509   0.173   8.054   5.154 -2.2553 -0.7304 -1.5089
 2959SOL    HW218510   0.133   8.212   5.162 -0.1516 -0.2418 -0.0716
 2960SOL     OW18511   3.008   1.144   1.603  0.2627  0.2334 -0.0561
 2960SOL    HW118512   2.967   1.138   1.512  0.9297  0.3173 -0.3640
 2960SOL    HW218513   2.935   1.146   1.672 -0.2581  0.7878 -0.6157
 2961SOL     OW18514   0.709   0.330   5.046 -0.2830 -0.2604  0.2326
 2961SOL    HW118515   0.688   0.360   5.139 -0.7836 -1.3848  0.4902
 2961SOL    HW218516   0.808   0.313   5.038 -0.1302  0.5604  0.3399
 2962SOL     OW18517   0.018   5.548   0.065 -0.0795  0.3759 -0.0255
 2962SOL    HW118518  -0.019   5.611   0.133 -0.0333 -0.1960  0.5270
 2962SOL    HW218519   0.115   5.532   0.082  0.0416  0.5832 -0.4956
 2963SOL     OW18520   6.931   2.660   0.312 -0.1284 -0.1269 -0.5421
 2963SOL    HW118521   6.872   2.601   0.257  1.1123 -1.3474 -0.6026
 2963SOL    HW218522   6.940   2.622   0.404 -0.0307  0.4405 -0.3157
 2964SOL     OW18523   3.320   2.753   2.628 -0.9817  0.2445  0.6259
 2964SOL    HW118524   3.368   2.827   2.580  2.7938 -0.1145  3.5735
 2964SOL    HW218525   3.239   2.789   2.673  0.4746  2.5418  1.5127
 2967SOL     OW18526   7.803   1.795   0.040 -0.5967 -0.5291 -0.2266
 2967SOL    HW118527   7.726   1.829   0.094  0.3825  1.1687  0.1315
 2967SOL    HW218528   7.863   1.741   0.099 -0.5642 -0.3394 -0.0855
 2968SOL     OW18529   9.028   7.117   5.644 -0.1219 -0.6673  0.0791
 2968SOL    HW118530   8.947   7.102   5.587 -0.6267  1.0278  0.3261
 2968SOL    HW218531   9.054   7.213   5.641  0.4822 -0.7516  1.8901
 2969SOL     OW18532   8.606   4.724   2.378  0.2533 -0.0451 -0.2024
 2969SOL    HW118533   8.548   4.690   2.305 -1.6640  2.5738  0.0063
 2969SOL    HW218534   8.670   4.792   2.341  0.8544 -0.4087  0.1607
 2971SOL     OW18535   3.370   2.189   2.440  0.4533 -0.1836 -0.0450
 2971SOL    HW118536   3.340   2.112   2.383  0.2392  0.6820 -1.0999
 2971SOL    HW218537   3.451   2.161   2.492 -1.2982 -2.0769  1.7917
 2973SOL     OW18538   3.826   9.996   3.068 -0.2845  0.0750 -0.0358
 2973SOL    HW118539   3.784   9.909   3.096  2.0297 -1.1187 -0.1471
 2973SOL    HW218540   3.768  10.039   2.998 -0.9685 -1.8986 -0.7444
 2974SOL     OW18541   8.980   1.139   1.851  0.1148 -0.4930 -0.1766
 2974SOL    HW118542   8.974   1.235   1.879  0.1791 -0.8647  1.1500
 2974SOL    HW218543   8.913   1.121   1.779 -0.3311  0.4033  0.0083
 2975SOL     OW18544   4.652   7.557   2.876 -0.6937  0.2201  0.2478
 2975SOL    HW118545   4.703   7.526   2.796 -2.2864 -1.1069 -0.2819
 2975SOL    HW218546   4.616   7.649   2.860  1.2597  1.0507  0.5157
 2976SOL     OW18547   4.567   3.405   4.960  0.1273 -0.2280  0.5777
 2976SOL    HW118548   4.601   3.360   5.042 -0.0709 -0.5243  0.4988
 2976SOL    HW218549   4.523   3.491   4.985  1.3122  0.3722  0.6380
 2977SOL     OW18550   1.803   0.752   6.376 -0.1154  0.1552 -0.0550
 2977SOL    HW118551   1.747   0.684   6.423 -1.1724  0.0094 -1.4834
 2977SOL    HW218552   1.787   0.746   6.277  1.1036  1.2995 -0.3436
 2978SOL     OW18553   8.384   0.501   5.544  0.0740 -0.1513 -0.3080
 2978SOL    HW118554   8.344   0.479   5.455 -3.0153  2.3396  0.3750
 2978SOL    HW218555   8.365   0.427   5.609  1.0275 -1.2747 -1.2802
 2980SOL     OW18556   1.361   8.289   3.639 -0.6982  0.3144  0.3162
 2980SOL    HW118557   1.342   8.342   3.557  0.7912  0.7114  0.2174
 2980SOL    HW218558   1.359   8.191   3.617 -1.8794  0.3665  0.1656
 2981SOL     OW18559   9.140   8.031   3.898 -0.4110  0.1968 -0.1142
 2981SOL    HW118560   9.155   8.060   3.992 -0.5749 -0.8211  0.2318
 2981SOL    HW218561   9.217   8.062   3.841  0.6829 -0.8884  0.7431
 2982SOL     OW18562   6.873   3.768   2.080 -0.0583  0.3156  0.3025
 2982SOL    HW118563   6.843   3.700   2.146  0.3526  0.7396  0.9314
 2982SOL    HW218564   6.809   3.845   2.080  0.2830  0.5972  0.6504
 2983SOL     OW18565   9.962   9.357   1.475  0.2258  0.0742  0.0808
 2983SOL    HW118566   9.950   9.456   1.467 -0.3510 -0.0799 -1.0445
 2983SOL    HW218567   9.873   9.313   1.487  0.4041 -0.3649 -0.1765
 2985SOL     OW18568   3.346   3.674   5.987 -0.4750 -0.0887 -0.1465
 2985SOL    HW118569   3.344   3.753   5.926  1.2752 -0.7026 -1.0197
 2985SOL    HW218570   3.281   3.605   5.955 -2.0079  0.9652  0.6171
 2986SOL     OW18571   8.888   5.635   1.216 -0.5048  0.4700 -0.3050
 2986SOL    HW118572   8.965   5.692   1.245 -0.8078  0.6533  0.1484
 2986SOL    HW218573   8.883   5.634   1.116 -1.0490  1.9973 -0.3153
 2987SOL     OW18574   7.707   4.354   4.219 -0.0034  0.2506 -0.8766
 2987SOL    HW118575   7.769   4.359   4.141  0.0005  1.5020 -0.7911
 2987SOL    HW218576   7.757   4.379   4.303 -0.5293  0.8541 -0.7500
 2988SOL     OW18577   1.454   5.379   1.411 -0.4584 -0.1561  0.3079
 2988SOL    HW118578   1.413   5.329   1.335  0.1968  0.7213 -0.6355
 2988SOL    HW218579   1.542   5.417   1.383 -0.4967  0.7052  1.3047
 2989SOL     OW18580   9.488   9.616   0.984  0.0363  0.4208  0.5221
 2989SOL    HW118581   9.416   9.674   1.023  0.7820  1.7143  0.0261
 2989SOL    HW218582   9.576   9.644   1.020  0.5736  0.6304 -0.9052
 2990SOL     OW18583   0.414   1.412   2.936  0.4326  0.0986  0.2890
 2990SOL    HW118584   0.354   1.466   2.878 -0.0120  1.3386  1.8784
 2990SOL    HW218585   0.371   1.399   3.025  1.2693 -1.4669  0.4821
 2991SOL     OW18586   7.619   1.795   3.589  0.0110  0.3269 -0.3357
 2991SOL    HW118587   7.613   1.887   3.630  1.1463 -0.2570  1.1923
 2991SOL    HW218588   7.679   1.798   3.509  0.7509  0.7482  0.2303
 2992SOL     OW18589   0.943   3.789   2.100  0.0467 -0.4534  0.5931
 2992SOL    HW118590   0.988   3.869   2.061 -2.2694  0.7189  0.2428
 2992SOL    HW218591   1.010   3.716   2.113  2.2615  1.6351  1.2324
 2993SOL     OW18592   6.775   2.333   0.412 -0.7244  0.5040  0.4828
 2993SOL    HW118593   6.822   2.393   0.477 -0.9643  0.1610  0.9748
 2993SOL    HW218594   6.676   2.337   0.429 -0.6132 -1.5166  1.8065
 2994SOL     OW18595   0.683   7.179   1.499 -0.9160  0.3078 -0.0055
 2994SOL    HW118596   0.601   7.165   1.444  1.0657  0.4323 -3.0962
 2994SOL    HW218597   0.667   7.254   1.563 -3.2099  0.3047 -0.5183
 2995SOL     OW18598   9.380   2.809   1.140 -0.4742 -0.2575  0.0597
 2995SOL    HW118599   9.401   2.738   1.073 -0.6643  0.0327 -0.3112
 2995SOL    HW218600   9.378   2.898   1.094  1.0253  0.1448  0.7508
 2996SOL     OW18601   9.756   3.325   4.096  0.5183 -0.3881  0.0120
 2996SOL    HW118602   9.780   3.266   4.019  1.4236 -1.1910  0.8860
 2996SOL    HW218603   9.678   3.382   4.072 -0.4060 -1.9887 -0.8143
 2997SOL     OW18604   8.594   2.939   4.197 -0.7669 -0.1351 -0.1299
 2997SOL    HW118605   8.553   2.988   4.119  1.7204  0.0828 -1.3588
 2997SOL    HW218606   8.572   2.987   4.282  1.3721  3.0817 -1.2754
 2999SOL     OW18607   1.964   5.202   4.237  0.6661 -0.0837  0.1005
 2999SOL    HW118608   2.064   5.210   4.241  0.4978  1.7577  1.4756
 2999SOL    HW218609   1.930   5.253   4.158  0.6591  1.3418  0.9976
 3000SOL     OW18610   1.094   6.999   2.364  0.0917  0.4957 -0.0784
 3000SOL    HW118611   1.194   7.000   2.366  0.1002  0.8600 -0.7340
 3000SOL    HW218612   1.061   6.911   2.399  0.6503  0.2099 -0.2604
 3001SOL     OW18613   9.753   7.039   2.234 -0.4490 -0.0609 -0.1617
 3001SOL    HW118614   9.821   6.989   2.288 -2.6281 -1.5273  1.2903
 3001SOL    HW218615   9.684   7.077   2.295 -1.4435  0.6205 -1.7009
 3002SOL     OW18616   6.271   1.316   1.448  0.5395  0.0861  0.1399
 3002SOL    HW118617   6.355   1.273   1.415 -1.4443 -2.5192 -1.7232
 3002SOL    HW218618   6.240   1.269   1.531  1.0606  1.2568  1.0132
 3003SOL     OW18619   0.322   0.422   6.176 -0.1061  0.5044 -0.6675
 3003SOL    HW118620   0.367   0.506   6.204 -0.9100  1.5182 -2.3485
 3003SOL    HW218621   0.227   0.423   6.206  0.0788 -0.1516 -0.0363
 3004SOL     OW18622   2.785   3.254   3.112  0.0970 -0.3527 -0.2709
 3004SOL    HW118623   2.837   3.234   3.196 -0.9373 -1.4562  0.1259
 3004SOL    HW218624   2.739   3.341   3.122  0.8534  0.0399 -0.1271
 3005SOL     OW18625   2.554   9.704   4.155 -0.3320 -0.0364 -0.9639
 3005SOL    HW118626   2.464   9.667   4.179 -0.8428  1.2476 -0.8888
 3005SOL    HW218627   2.623   9.668   4.218 -1.2127  1.0885  0.6754
 3006SOL     OW18628   8.263   1.515   6.444  1.0989  0.7187  0.4500
 3006SOL    HW118629   8.209   1.432   6.458  3.4976 -1.0934 -0.6103
 3006SOL    HW218630   8.203   1.590   6.419 -0.9019 -1.2553 -0.8284
 3007SOL     OW18631   9.065   5.368   6.287 -0.1141  0.0136  0.4593
 3007SOL    HW118632   8.995   5.380   6.358 -0.4615 -0.7121  0.2542
 3007SOL    HW218633   9.042   5.425   6.208 -1.4435 -1.5099 -0.2967
 3009SOL     OW18634   9.569   0.587   4.467 -0.5920  0.9491 -0.6107
 3009SOL    HW118635   9.607   0.557   4.555 -0.3904 -3.8755 -2.2297
 3009SOL    HW218636   9.638   0.639   4.417  1.4552 -1.4583 -0.4101
 3010SOL     OW18637   4.562   9.179   5.667  0.2013  0.2715 -0.2728
 3010SOL    HW118638   4.560   9.079   5.659 -0.3976  0.3299 -0.9161
 3010SOL    HW218639   4.468   9.214   5.665  0.3824  0.8046  0.5283
 3011SOL     OW18640   2.673   8.163   4.332  0.2328  0.1935 -0.1270
 3011SOL    HW118641   2.664   8.225   4.411 -0.7758  0.6789 -0.6116
 3011SOL    HW218642   2.585   8.118   4.315  0.1268  0.9504 -1.6759
 3012SOL     OW18643   6.360   1.394   2.367 -0.6812 -0.0029 -0.0028
 3012SOL    HW118644   6.348   1.362   2.461  0.3310 -0.6136 -0.0694
 3012SOL    HW218645   6.344   1.317   2.304 -1.0506  0.3283 -0.3181
 3013SOL     OW18646   1.635   0.123   4.229 -0.1093 -0.2169 -0.3209
 3013SOL    HW118647   1.580   0.072   4.163 -2.4495  1.0510  0.5921
 3013SOL    HW218648   1.702   0.062   4.272 -1.0842 -1.8883 -1.1350
 3014SOL     OW18649   7.386   4.712   3.081  0.0810 -0.3453  0.6144
 3014SOL    HW118650   7.382   4.657   2.998  0.2350 -0.8669  0.9528
 3014SOL    HW218651   7.303   4.769   3.087 -0.3018 -0.8892  0.5126
 3015SOL     OW18652   0.906   6.874   0.321 -0.0648  0.2728 -0.1651
 3015SOL    HW118653   0.913   6.779   0.289 -3.2867 -0.5790  1.4747
 3015SOL    HW218654   0.978   6.891   0.389  2.1137 -0.1751 -2.2907
 3016SOL     OW18655   5.683   2.447   3.794  0.1035 -0.5288  0.1366
 3016SOL    HW118656   5.622   2.372   3.820  0.5475 -1.0779 -0.4097
 3016SOL    HW218657   5.734   2.422   3.712 -2.5637  1.8939 -2.3903
 3017SOL     OW18658   1.519   0.450   3.574 -0.2633  0.0613 -0.0404
 3017SOL    HW118659   1.425   0.428   3.547 -0.5243  1.1552 -0.0248
 3017SOL    HW218660   1.576   0.458   3.493 -0.0125 -1.3162 -0.0193
 3019SOL     OW18661   7.558   0.722   4.922 -0.0384 -0.2807 -0.2469
 3019SOL    HW118662   7.459   0.735   4.927  0.0677  0.7745 -0.6555
 3019SOL    HW218663   7.579   0.638   4.873 -0.7307 -0.3635 -0.4017
 3020SOL     OW18664   2.691   2.609   4.348  0.3139  0.0838 -0.2016
 3020SOL    HW118665   2.788   2.610   4.324  0.2520 -1.0227 -0.5311
 3020SOL    HW218666   2.653   2.519   4.328 -0.5088  0.1479  1.0156
 3021SOL     OW18667   6.330   2.214   3.275 -0.2397 -0.6713  0.2909
 3021SOL    HW118668   6.410   2.273   3.278  0.9949 -2.2887 -0.2329
 3021SOL    HW218669   6.264   2.243   3.344 -0.1058  1.9325 -0.6365
 3022SOL     OW18670   1.427   1.994   1.805 -0.1404 -0.3075 -0.2502
 3022SOL    HW118671   1.374   1.922   1.850 -0.9584  1.2237  1.2792
 3022SOL    HW218672   1.396   2.004   1.711 -1.0071 -0.9693 -0.0386
 3023SOL     OW18673   5.755   0.665   6.023  0.2226 -0.3479  0.5762
 3023SOL    HW118674   5.773   0.763   6.016 -1.0043 -0.1641 -0.2802
 3023SOL    HW218675   5.776   0.633   6.115  0.2522  0.8100  0.9727
 3024SOL     OW18676   8.946   9.628   3.939 -0.0167  0.3526  0.3513
 3024SOL    HW118677   8.939   9.727   3.931  0.1027  0.3965  0.7699
 3024SOL    HW218678   8.985   9.590   3.855  1.4459  0.8278  0.7976
 3025SOL     OW18679   4.504   4.950   3.730  0.2680  0.1136 -0.6184
 3025SOL    HW118680   4.436   4.951   3.803  0.2200  0.5229 -0.6713
 3025SOL    HW218681   4.491   5.029   3.670  2.2710  1.5006  0.7199
 3026SOL     OW18682   1.044   5.648   1.930  0.2284 -0.8590 -0.2743
 3026SOL    HW118683   1.045   5.550   1.911 -2.3528 -1.0585  0.4232
 3026SOL    HW218684   0.949   5.681   1.929  1.0283  1.5308 -0.0011
 3028SOL     OW18685   4.773   0.751   3.460 -0.2706  0.0822 -0.4141
 3028SOL    HW118686   4.685   0.709   3.439  0.0193 -1.5369  1.4252
 3028SOL    HW218687   4.757   0.836   3.512 -0.7628 -0.0227 -0.3867
 3030SOL     OW18688   1.259   0.221   2.028 -0.4740 -0.3422  0.6969
 3030SOL    HW118689   1.236   0.166   2.108  1.8507  0.8667  2.2672
 3030SOL    HW218690   1.182   0.281   2.006 -1.9267 -2.1558  0.7117
 3031SOL     OW18691   9.547   3.748   6.391 -0.2761 -0.2279  0.4473
 3031SOL    HW118692   9.511   3.785   6.477 -2.6659 -3.0969  0.7779
 3031SOL    HW218693   9.569   3.824   6.330  0.3801  1.8468  3.1174
 3032SOL     OW18694   7.366   2.895   2.125 -0.3839  0.2902  0.6276
 3032SOL    HW118695   7.338   2.850   2.209 -0.3832 -0.2861  0.3228
 3032SOL    HW218696   7.347   2.836   2.047 -1.3535  1.2543  0.1256
 3033SOL     OW18697   8.251   8.828   3.686 -0.2330  0.3632  0.2592
 3033SOL    HW118698   8.219   8.745   3.733 -1.0765  1.5716  1.8718
 3033SOL    HW218699   8.340   8.809   3.644 -1.6440 -2.1400 -1.7143
 3034SOL     OW18700   3.288   3.167   6.368 -0.1510 -0.2948 -0.0349
 3034SOL    HW118701   3.216   3.230   6.393  0.1156 -0.1877  0.4616
 3034SOL    HW218702   3.343   3.206   6.294  1.3983  1.0431  1.7762
 3036SOL     OW18703   7.833   3.297   4.828  0.3605 -0.1768 -0.1191
 3036SOL    HW118704   7.878   3.299   4.739  0.9997  0.4072  0.2088
 3036SOL    HW218705   7.807   3.203   4.850 -0.4378 -0.2247 -1.2311
 3039SOL     OW18706   5.220   1.919   0.868  0.6373 -0.1000 -0.1893
 3039SOL    HW118707   5.267   1.887   0.786 -0.0863  0.1888 -0.7163
 3039SOL    HW218708   5.270   1.995   0.908  2.0191 -1.4434  0.7001
 3040SOL     OW18709   3.610   7.498   3.877 -0.0902  0.0491  0.4608
 3040SOL    HW118710   3.576   7.590   3.856 -0.9801 -0.6779 -1.4621
 3040SOL    HW218711   3.626   7.490   3.975 -1.3707  1.8027  0.8513
 3041SOL     OW18712   1.791   5.037   2.787  0.0712 -0.2137 -0.1612
 3041SOL    HW118713   1.879   5.059   2.745 -0.4181 -0.2437 -1.1968
 3041SOL    HW218714   1.764   5.112   2.848  0.2733  0.3038 -0.7074
 3042SOL     OW18715   2.080   3.672   4.140 -0.1220 -0.2760  0.7405
 3042SOL    HW118716   2.134   3.743   4.185  0.1741 -0.0802  0.0842
 3042SOL    HW218717   1.996   3.657   4.191 -0.1253  0.4532  0.9632
 3043SOL     OW18718   1.003   0.583   3.373  0.2344 -0.6383  0.1962
 3043SOL    HW118719   1.089   0.539   3.348  2.0275  3.5182 -1.2404
 3043SOL    HW218720   0.945   0.592   3.292 -0.1378 -0.3864  0.4884
 3044SOL     OW18721   0.203   4.363   5.674  0.7115 -0.0643 -0.6349
 3044SOL    HW118722   0.128   4.306   5.707  1.5797 -0.6998  0.2731
 3044SOL    HW218723   0.166   4.443   5.628 -0.5281 -1.5724 -2.3346
 3045SOL     OW18724   8.352   1.647   3.046  0.0055  0.5861  0.8942
 3045SOL    HW118725   8.261   1.653   3.087  0.1997  1.1234  1.2538
 3045SOL    HW218726   8.359   1.563   2.993 -0.4356  0.1690  1.5000
 3046SOL     OW18727   5.935   7.622   5.236 -0.1621 -0.0322  0.7970
 3046SOL    HW118728   5.965   7.683   5.164  0.0320  1.9496  2.5073
 3046SOL    HW218729   5.841   7.592   5.218 -0.0390  0.2875 -0.3749
 3047SOL     OW18730   1.844   4.654   4.274 -0.3896  0.5997  0.2243
 3047SOL    HW118731   1.882   4.574   4.321 -2.3660 -1.1050 -0.9908
 3047SOL    HW218732   1.916   4.722   4.259  1.4054 -1.1107  0.9249
 3048SOL     OW18733   8.142   5.241   4.371 -0.1316  0.1399  0.5055
 3048SOL    HW118734   8.148   5.298   4.453  0.5326  0.3666  0.3028
 3048SOL    HW218735   8.140   5.299   4.290  1.3037 -0.1322  0.2585
 3049SOL     OW18736   8.370   6.736   5.882  0.3187  0.0630  0.1942
 3049SOL    HW118737   8.443   6.803   5.870  0.4179  0.2558  1.7179
 3049SOL    HW218738   8.288   6.766   5.833 -0.1956  2.2222  2.2807
 3050SOL     OW18739   7.816   9.267   0.215 -0.0667  0.1817 -0.2372
 3050SOL    HW118740   7.751   9.309   0.279 -0.7457 -1.7360  0.3653
 3050SOL    HW218741   7.792   9.293   0.121 -1.1880  0.1922  0.0434
 3051SOL     OW18742   3.559   0.836   4.848  0.2530  0.5397 -0.6269
 3051SOL    HW118743   3.461   0.852   4.859  0.2066  0.5683 -1.0833
 3051SOL    HW218744   3.606   0.924   4.833  0.4569  0.6186  0.3903
 3052SOL     OW18745   9.807   3.938   5.993 -0.5919  0.4120  0.4358
 3052SOL    HW118746   9.727   3.878   6.008 -0.7255  0.5168  0.1419
 3052SOL    HW218747   9.793   3.991   5.910 -0.2303  0.4601  0.4068
 3054SOL     OW18748   3.654   7.536   6.423  0.4730  0.4682 -0.1490
 3054SOL    HW118749   3.687   7.474   6.352  0.2435  0.2219 -0.0400
 3054SOL    HW218750   3.568   7.501   6.461 -0.8783  2.0704 -1.6815
 3055SOL     OW18751   8.547   3.887   5.960  0.2656  0.1126  0.2116
 3055SOL    HW118752   8.575   3.923   5.871 -0.4884  0.6635  0.1897
 3055SOL    HW218753   8.555   3.788   5.960 -2.3047 -0.1187 -1.3850
 3056SOL     OW18754   3.145   0.853   2.547  0.2046  0.0391  1.0898
 3056SOL    HW118755   3.109   0.769   2.506  2.1879 -1.5173  2.4129
 3056SOL    HW218756   3.167   0.836   2.643  1.1428  1.9146  1.2263
 3057SOL     OW18757   7.328   7.429   3.247  0.2787 -0.0881 -0.5101
 3057SOL    HW118758   7.339   7.526   3.226  1.8649 -0.1681 -0.0932
 3057SOL    HW218759   7.277   7.420   3.333 -1.8295  0.3135 -1.6828
 3058SOL     OW18760   8.204   0.278   0.849 -0.1476  0.6337 -0.2557
 3058SOL    HW118761   8.130   0.345   0.844 -1.3796 -0.7530 -1.4624
 3058SOL    HW218762   8.206   0.226   0.764 -0.2049 -1.8620  1.2280
 3059SOL     OW18763   2.085   2.738   4.813  0.3773 -0.0800  0.0533
 3059SOL    HW118764   1.993   2.746   4.852 -0.2195 -0.8570 -1.1914
 3059SOL    HW218765   2.084   2.767   4.718  1.3676 -0.3908 -0.0586
 3060SOL     OW18766   7.340   1.643   1.127 -0.2057 -0.0830 -0.6577
 3060SOL    HW118767   7.244   1.669   1.137 -0.5005 -1.1970 -0.4782
 3060SOL    HW218768   7.390   1.674   1.208 -0.5833 -0.2300 -0.3614
 3061SOL     OW18769   8.221   7.919   1.883 -0.0529 -0.4705 -0.2661
 3061SOL    HW118770   8.195   7.991   1.819 -0.2114 -0.7304 -0.4953
 3061SOL    HW218771   8.318   7.898   1.873  0.0902  0.0066  0.0978
 3062SOL     OW18772   6.589   5.069   0.839 -0.1529 -0.7710 -0.9036
 3062SOL    HW118773   6.644   4.994   0.875  0.4041 -0.4176 -1.0178
 3062SOL    HW218774   6.550   5.043   0.751 -1.0132 -1.4055 -0.3365
 3063SOL     OW18775   8.384   8.309   2.239 -0.4553 -0.2674  0.3558
 3063SOL    HW118776   8.373   8.310   2.339 -1.4599 -1.2832  0.2585
 3063SOL    HW218777   8.294   8.316   2.196 -0.0302  0.0146 -0.4903
 3064SOL     OW18778   0.726   5.079   3.611  0.4665  0.1306 -0.3787
 3064SOL    HW118779   0.722   5.176   3.636  0.3077  0.1166 -0.3536
 3064SOL    HW218780   0.650   5.030   3.654  0.5426 -0.0042 -0.3972
 3065SOL     OW18781   5.019   9.678   3.266  0.0467 -0.6273 -0.1301
 3065SOL    HW118782   4.957   9.709   3.194 -0.1214  0.7070  0.5772
 3065SOL    HW218783   5.100   9.737   3.269  1.4306 -2.4417 -1.1343
 3066SOL     OW18784   7.446   9.832   3.095  0.0138 -0.0527 -0.2729
 3066SOL    HW118785   7.532   9.789   3.120  1.2696  1.3727 -1.9719
 3066SOL    HW218786   7.464   9.918   3.047 -2.3415 -0.2621 -1.6438
 3067SOL     OW18787   8.425   0.221   1.580  0.0309  0.2116  0.2950
 3067SOL    HW118788   8.342   0.273   1.557 -0.4969 -1.2887 -1.2028
 3067SOL    HW218789   8.505   0.280   1.568 -0.7404  1.4913  1.1889
 3068SOL     OW18790   2.814   6.355   2.380 -0.2075  0.3326 -0.2611
 3068SOL    HW118791   2.822   6.357   2.281  0.7386 -1.2148 -0.2249
 3068SOL    HW218792   2.815   6.449   2.416 -0.4313  0.8841 -1.6861
 3069SOL     OW18793   9.747   8.928   2.951  0.1213  0.6488  0.2743
 3069SOL    HW118794   9.683   9.003   2.964 -1.6462 -0.7815  0.0741
 3069SOL    HW218795   9.707   8.843   2.987  1.0432 -0.6577 -1.6512
 3071SOL     OW18796   9.325   1.983   5.912  0.1689  0.0408 -0.0037
 3071SOL    HW118797   9.388   1.920   5.864 -0.0856 -2.2870  2.5889
 3071SOL    HW218798   9.237   1.982   5.865  0.8883  0.3689 -1.4171
 3073SOL     OW18799   7.182   2.786   0.906 -0.3192 -0.3558 -0.3366
 3073SOL    HW118800   7.179   2.726   0.986  0.1628  0.8263  0.5925
 3073SOL    HW218801   7.089   2.801   0.872 -0.6706  0.1578  0.8066
 3075SOL     OW18802   6.009   0.742   4.821  0.0953  0.3408  0.4086
 3075SOL    HW118803   5.952   0.677   4.769  2.7073 -1.3449 -0.4473
 3075SOL    HW218804   5.981   0.741   4.917 -1.0624 -0.7316  0.0842
 3076SOL     OW18805   9.685   6.161   5.617  0.1583 -1.0049 -0.3172
 3076SOL    HW118806   9.597   6.139   5.657 -0.5278 -1.3100 -1.9571
 3076SOL    HW218807   9.759   6.133   5.679 -0.8735 -1.2467  0.8084
 3077SOL     OW18808   3.870   9.666   0.696 -0.0585 -0.1174  0.2287
 3077SOL    HW118809   3.890   9.750   0.746  0.1135 -1.3036  2.1799
 3077SOL    HW218810   3.952   9.610   0.690 -0.6548 -1.0457  0.6567
 3078SOL     OW18811   3.726   4.451   3.253  1.2119 -0.4327  0.4824
 3078SOL    HW118812   3.796   4.398   3.302  0.3260 -1.7903  0.3168
 3078SOL    HW218813   3.677   4.390   3.190  0.3249  0.6497  0.1163
 3079SOL     OW18814   1.508   1.453   0.349  0.0868  0.1939 -0.4461
 3079SOL    HW118815   1.582   1.394   0.380  0.2080 -0.3347 -1.7110
 3079SOL    HW218816   1.523   1.478   0.254  0.3006  2.6947  0.2059
 3081SOL     OW18817   3.459   9.166   4.505  0.1746  0.2539 -0.8244
 3081SOL    HW118818   3.402   9.118   4.572  0.5692 -0.6600 -1.1342
 3081SOL    HW218819   3.512   9.237   4.551 -0.1585  0.1638 -0.3006
 3082SOL     OW18820   2.906   4.888   3.685  0.0246  0.1107 -0.4925
 3082SOL    HW118821   2.925   4.790   3.675  1.2815 -0.0869  3.2836
 3082SOL    HW218822   2.987   4.935   3.720 -1.8303  1.7730  1.7459
 3083SOL     OW18823   6.117   0.867   5.968  0.2750 -0.5798 -0.0449
 3083SOL    HW118824   6.198   0.881   5.911 -0.4017 -0.4071 -0.9875
 3083SOL    HW218825   6.142   0.875   6.064  1.1930  0.4551 -0.3549
 3084SOL     OW18826   4.149   4.107   3.174 -0.1326  0.1571 -0.1891
 3084SOL    HW118827   4.092   4.068   3.101 -1.1950 -1.3779  1.4165
 3084SOL    HW218828   4.233   4.144   3.134 -0.8225 -0.3847 -2.2220
 3086SOL     OW18829   4.054   4.262   4.614  0.0557  0.4747 -0.1106
 3086SOL    HW118830   3.997   4.217   4.682  0.4980 -0.1646 -0.1551
 3086SOL    HW218831   4.038   4.220   4.524  0.0051  0.8344 -0.2735
 3087SOL     OW18832   0.916   9.299   0.342  0.1546 -0.0662  0.5045
 3087SOL    HW118833   0.904   9.395   0.369  1.5289  0.3499 -0.2949
 3087SOL    HW218834   0.827   9.257   0.327 -0.4157  2.0537 -2.4031
 3088SOL     OW18835   6.342   7.830   3.733  0.2914  0.7870 -0.8505
 3088SOL    HW118836   6.266   7.778   3.695  0.3695 -0.4450  0.6490
 3088SOL    HW218837   6.341   7.824   3.833  2.7064  0.2086 -0.8234
 3090SOL     OW18838   8.178   6.393   4.577 -0.1406  0.1203  0.0108
 3090SOL    HW118839   8.202   6.433   4.665 -2.0557  2.4539 -0.4813
 3090SOL    HW218840   8.158   6.296   4.588  2.2317 -0.2216  1.6522
 3091SOL     OW18841   3.460   5.425   1.169  0.6712 -0.3571  0.3428
 3091SOL    HW118842   3.396   5.500   1.156  1.0127 -0.4121 -1.9378
 3091SOL    HW218843   3.496   5.426   1.262  0.9062  2.4761  0.2477
 3092SOL     OW18844   9.645   4.481   3.617 -0.2803  0.1355  0.0592
 3092SOL    HW118845   9.680   4.435   3.535  0.0060 -1.4810  1.0582
 3092SOL    HW218846   9.608   4.570   3.592 -1.8635 -1.0781 -2.1178
 3093SOL     OW18847   2.420   2.246   6.000 -0.3380 -0.0212 -0.5816
 3093SOL    HW118848   2.401   2.342   6.023 -2.6135 -0.9122  1.4390
 3093SOL    HW218849   2.366   2.220   5.920 -1.0810 -0.1079 -0.0568
 3094SOL     OW18850   1.797   5.168   4.921 -0.3607 -0.0677 -0.0678
 3094SOL    HW118851   1.698   5.161   4.911 -0.4655  0.8204  0.3188
 3094SOL    HW218852   1.838   5.077   4.907 -1.0836 -0.1721 -1.6396
 3095SOL     OW18853   1.795   7.038   2.815  0.1192  0.2132  0.6309
 3095SOL    HW118854   1.779   7.115   2.753  0.5179 -1.2059 -1.2908
 3095SOL    HW218855   1.812   7.072   2.907 -3.2623  2.2711  0.6007
 3096SOL     OW18856   0.764   3.857   3.278 -0.3584 -0.2704  0.0079
 3096SOL    HW118857   0.820   3.872   3.359  2.1452 -1.8779 -1.3519
 3096SOL    HW218858   0.771   3.937   3.217 -0.8533  0.2124  0.5851
 3099SOL     OW18859   5.223   1.078   3.884  0.1394 -0.5151  0.3618
 3099SOL    HW118860   5.319   1.103   3.892 -0.6447  2.5696  0.8296
 3099SOL    HW218861   5.200   1.060   3.789  0.7902  0.3952  0.0333
 3101SOL     OW18862   0.993   8.875   3.232  0.3804 -0.5891 -0.0493
 3101SOL    HW118863   0.908   8.826   3.249  0.2793 -0.3385  0.1777
 3101SOL    HW218864   1.055   8.863   3.309  0.1033  0.1660  0.2936
 3102SOL     OW18865   2.250   2.684   1.818 -0.1868  0.1276 -0.0515
 3102SOL    HW118866   2.287   2.672   1.910  0.4549  1.0055 -0.1943
 3102SOL    HW218867   2.172   2.746   1.821  0.0923  0.4816 -0.1643
 3103SOL     OW18868   2.273   9.150   3.056  0.1583 -0.6537  0.4829
 3103SOL    HW118869   2.204   9.212   3.019 -0.5364 -0.2801  2.3453
 3103SOL    HW218870   2.290   9.172   3.152  1.4471 -2.0067  0.5915
 3104SOL     OW18871   0.026   4.940   1.198  0.0504  0.0568 -0.7580
 3104SOL    HW118872  -0.040   4.946   1.273  0.3042  2.3718 -0.6556
 3104SOL    HW218873   0.006   4.861   1.141 -1.7270 -0.2613  0.2769
 3105SOL     OW18874   3.002   8.088   3.378 -0.6233  0.3658  0.2628
 3105SOL    HW118875   3.032   8.050   3.465  0.3114  0.3452 -0.0566
 3105SOL    HW218876   2.984   8.013   3.313  0.2683  0.4202 -0.0612
 3106SOL     OW18877   8.816   1.116   3.595  0.2979  0.2439 -0.3070
 3106SOL    HW118878   8.838   1.213   3.585 -2.7388  0.9758 -0.5442
 3106SOL    HW218879   8.770   1.083   3.513 -0.7289 -0.7910  0.6554
 3108SOL     OW18880   0.501   7.747   1.214 -0.7632 -0.3813  0.4277
 3108SOL    HW118881   0.504   7.671   1.150 -0.9693  0.3120 -0.4146
 3108SOL    HW218882   0.526   7.832   1.167 -0.0050 -0.0051  1.4735
 3109SOL     OW18883   1.005   1.410   2.118 -0.2071  0.4176  0.5422
 3109SOL    HW118884   0.973   1.316   2.129 -1.2563  1.0027  2.8619
 3109SOL    HW218885   0.976   1.445   2.029  1.0856 -1.7690 -0.7810
 3110SOL     OW18886   3.717   1.564   2.502  0.0686  0.3477 -0.3571
 3110SOL    HW118887   3.802   1.598   2.543  0.3039 -0.1791 -0.4069
 3110SOL    HW218888   3.738   1.505   2.425 -0.3663  0.8280 -0.8454
 3111SOL     OW18889   6.517   9.950   5.126 -0.4774 -0.3955  0.3660
 3111SOL    HW118890   6.584  10.024   5.114 -0.2290 -0.8205 -0.9489
 3111SOL    HW218891   6.426   9.989   5.137 -0.0517  0.1854  1.9998
 3112SOL     OW18892   7.017   1.734   5.290  0.0929 -0.6428 -0.2457
 3112SOL    HW118893   7.101   1.711   5.242 -0.3387 -0.0545 -1.3068
 3112SOL    HW218894   7.035   1.808   5.355  0.1261  0.3891 -1.4140
 3115SOL     OW18895   8.690   3.557   2.072 -0.1333 -0.2000  0.7024
 3115SOL    HW118896   8.645   3.488   2.014 -1.1619 -0.2073  1.4923
 3115SOL    HW218897   8.789   3.549   2.062 -0.2596 -1.2926  0.1943
 3116SOL     OW18898   8.550   8.089   4.986 -0.0518  0.1808 -0.1998
 3116SOL    HW118899   8.569   8.175   4.938 -0.7762  0.8145  0.6331
 3116SOL    HW218900   8.586   8.095   5.079  0.1634 -0.5372 -0.2415
 3117SOL     OW18901   0.534   3.378   1.446 -0.4860 -0.0637  0.4146
 3117SOL    HW118902   0.456   3.330   1.405 -0.2768  1.5916 -2.0080
 3117SOL    HW218903   0.593   3.312   1.492 -1.3207 -1.8514 -1.0106
 3119SOL     OW18904   9.776   4.880   4.271 -0.5463 -0.1767 -0.0465
 3119SOL    HW118905   9.703   4.853   4.333 -2.5473 -0.3241 -2.3973
 3119SOL    HW218906   9.786   4.980   4.273  0.8774 -0.3231  2.0664
 3120SOL     OW18907   4.625   0.635   0.106 -0.4583 -0.2145 -0.3760
 3120SOL    HW118908   4.618   0.537   0.086 -1.4859 -0.4160  0.8929
 3120SOL    HW218909   4.575   0.655   0.190  1.4222  1.0644  0.4720
 3122SOL     OW18910   1.378   2.978   5.843  0.2186 -0.0549  0.0510
 3122SOL    HW118911   1.357   3.069   5.879  2.6105  0.9490 -0.9477
 3122SOL    HW218912   1.355   2.909   5.912 -0.4865  1.3939  1.3070
 3123SOL     OW18913   1.647   7.171   5.403  0.0863 -0.0654  0.2036
 3123SOL    HW118914   1.696   7.110   5.466  0.2142 -0.2303 -0.0579
 3123SOL    HW218915   1.587   7.117   5.344 -2.4171  0.3306  2.2806
 3124SOL     OW18916   0.014   2.478   1.800  0.0338  0.2998  0.2463
 3124SOL    HW118917  -0.062   2.542   1.793  0.3616  0.5109 -1.6248
 3124SOL    HW218918   0.097   2.519   1.762  0.3184 -1.0982 -0.6924
 3125SOL     OW18919   4.654   9.211   3.882 -0.0070  0.2970  0.2300
 3125SOL    HW118920   4.611   9.149   3.816  0.7545  0.9297 -0.8634
 3125SOL    HW218921   4.602   9.209   3.967 -0.6190 -1.0267 -0.1543
 3126SOL     OW18922   1.191   8.085   3.315 -0.5773 -0.0615 -0.1761
 3126SOL    HW118923   1.111   8.130   3.354 -0.7755 -2.5217  2.4541
 3126SOL    HW218924   1.188   7.987   3.336  1.5962 -0.7143 -2.6688
 3127SOL     OW18925   2.218   9.599   0.583  0.1657 -0.4147  0.1296
 3127SOL    HW118926   2.247   9.563   0.672  1.1880 -0.4945 -0.2347
 3127SOL    HW218927   2.219   9.699   0.586  1.2816 -0.4205 -0.1495
 3128SOL     OW18928   4.370   5.986   1.348  0.6467 -0.0810 -0.7522
 3128SOL    HW118929   4.459   6.017   1.380  0.2723  1.2449 -0.9482
 3128SOL    HW218930   4.366   5.993   1.248 -0.4740  2.1692 -0.5973
 3129SOL     OW18931   0.687   4.585   6.159 -0.1140 -0.1885  0.3694
 3129SOL    HW118932   0.668   4.681   6.177  0.0670 -0.2732  1.0203
 3129SOL    HW218933   0.664   4.531   6.240 -1.8717 -0.9142 -0.5811
 3130SOL     OW18934   0.177   2.132   2.229  0.3540  0.0272  0.1579
 3130SOL    HW118935   0.209   2.162   2.319 -2.4435  2.6311  0.3727
 3130SOL    HW218936   0.085   2.094   2.237  0.8719 -1.6278 -1.3415
 3131SOL     OW18937   7.348   2.986   0.349  0.5097  0.1779  0.2837
 3131SOL    HW118938   7.321   3.065   0.406 -1.1604 -0.0335 -0.1893
 3131SOL    HW218939   7.284   2.911   0.365 -0.2641  0.2778 -2.2376
 3132SOL     OW18940   2.793   0.905   6.161  0.5085 -0.5782  0.0101
 3132SOL    HW118941   2.839   0.847   6.228 -0.3679 -0.7367  0.4866
 3132SOL    HW218942   2.856   0.975   6.129  1.3814 -1.4022 -0.0920
 3136SOL     OW18943   3.779   8.831   6.104  0.0517 -0.4229  0.0052
 3136SOL    HW118944   3.782   8.811   6.202  1.1763  0.3084  0.1384
 3136SOL    HW218945   3.751   8.927   6.091 -2.5453 -1.2097 -0.5002
 3137SOL     OW18946   8.520   7.848   5.429 -0.9646  0.4387 -0.5846
 3137SOL    HW118947   8.428   7.843   5.468 -0.9232  0.8263 -0.4445
 3137SOL    HW218948   8.586   7.808   5.493 -0.8046  1.6970  0.0335
 3138SOL     OW18949   0.223   8.773   2.401 -0.3442  0.1785 -0.3482
 3138SOL    HW118950   0.138   8.804   2.361 -0.5429 -0.0147 -0.0790
 3138SOL    HW218951   0.217   8.777   2.501  0.3222  1.1421 -0.3406
 3140SOL     OW18952   6.642   7.331   4.211  0.0355  0.1210  0.2594
 3140SOL    HW118953   6.587   7.285   4.281 -1.3105  0.0570 -0.8191
 3140SOL    HW218954   6.587   7.345   4.130  1.7310 -0.2594 -0.9860
 3141SOL     OW18955   0.072   2.846   6.153 -0.3801  0.1200  0.0049
 3141SOL    HW118956   0.110   2.757   6.128  2.2310  0.9217  0.9649
 3141SOL    HW218957   0.021   2.883   6.075  0.9894 -0.8925 -1.4014
 3142SOL     OW18958   2.260   6.534   5.694  0.1222  0.8418 -0.1074
 3142SOL    HW118959   2.259   6.634   5.689 -0.3798  0.8812  0.7422
 3142SOL    HW218960   2.170   6.499   5.666  0.4196  0.6060 -0.7777
 3143SOL     OW18961   7.948   0.528   3.323 -0.0051 -0.2067 -0.4940
 3143SOL    HW118962   8.017   0.517   3.252 -0.2311 -1.2451 -0.5509
 3143SOL    HW218963   7.986   0.584   3.398  0.7037 -0.3123 -0.7702
 3144SOL     OW18964   4.948   2.145   0.535  0.4895 -0.5818  0.2207
 3144SOL    HW118965   4.917   2.236   0.505  0.2693 -0.2977  1.2917
 3144SOL    HW218966   5.041   2.152   0.571  1.1634 -1.1196 -1.3610
 3145SOL     OW18967   3.137   6.846   1.803  0.1590 -0.2966  0.3540
 3145SOL    HW118968   3.138   6.767   1.743 -0.7620  0.9318 -1.3093
 3145SOL    HW218969   3.067   6.911   1.773 -0.1310  0.4819  2.5765
 3147SOL     OW18970   1.931   8.621   4.184  0.3583 -0.5608 -0.0571
 3147SOL    HW118971   1.899   8.589   4.273  0.4644 -2.5672 -0.7226
 3147SOL    HW218972   1.884   8.571   4.112  3.2228 -1.8708 -1.0834
 3148SOL     OW18973   0.817   4.036   2.235 -0.0071 -0.4011  0.0790
 3148SOL    HW118974   0.863   3.950   2.215  1.4997  0.4166 -0.0859
 3148SOL    HW218975   0.758   4.061   2.158  0.0975 -0.9283 -0.1761
 3149SOL     OW18976   4.671   2.079   0.403  0.2134  0.4168 -0.8731
 3149SOL    HW118977   4.716   2.145   0.343  2.2387 -0.6427 -0.5845
 3149SOL    HW218978   4.738   2.009   0.430 -0.8801  0.4181  1.9248
 3150SOL     OW18979   8.408   4.792   2.734 -0.4444  0.0488 -0.4911
 3150SOL    HW118980   8.489   4.851   2.740 -0.3045  0.1816 -2.8505
 3150SOL    HW218981   8.382   4.782   2.637 -3.3645  0.1700  0.2346
 3152SOL     OW18982   2.527   1.066   1.350 -0.3436 -0.0455 -0.5550
 3152SOL    HW118983   2.433   1.070   1.383 -1.3468 -3.0363 -2.7883
 3152SOL    HW218984   2.587   1.033   1.424 -0.8594  2.6472  1.1134
 3153SOL     OW18985   9.838   1.774   0.855 -0.9195 -0.2337  0.1740
 3153SOL    HW118986   9.825   1.838   0.779 -2.9247 -0.0789  0.6229
 3153SOL    HW218987   9.815   1.820   0.941 -0.8067 -1.0721  0.6543
 3154SOL     OW18988   1.900   2.671   3.419  0.1372  0.7410  0.1296
 3154SOL    HW118989   1.941   2.594   3.469  0.3988  0.7550 -0.0624
 3154SOL    HW218990   1.972   2.724   3.374 -0.0308  1.1777  0.3695
 3155SOL     OW18991   8.473   9.010   4.138  0.1894 -0.0742  0.1700
 3155SOL    HW118992   8.535   9.050   4.071 -0.1129  0.1290  0.0128
 3155SOL    HW218993   8.513   9.018   4.230  0.5845 -0.3254  0.0184
 3156SOL     OW18994   9.351   2.367   5.958 -0.4453  0.4108 -0.4014
 3156SOL    HW118995   9.332   2.445   6.016 -0.6263  0.0449  0.0332
 3156SOL    HW218996   9.380   2.289   6.014  0.6219  0.4334 -0.9073
 3157SOL     OW18997   5.895   0.766   4.097  0.0805 -0.0065  0.2664
 3157SOL    HW118998   5.946   0.823   4.161 -0.5334  0.2132  0.5676
 3157SOL    HW218999   5.874   0.819   4.015  1.0363 -0.3473 -0.2072
 3158SOL     OW19000   1.871   7.978   0.024  0.0060  0.1141  0.0357
 3158SOL    HW119001   1.804   8.052   0.017 -0.6729 -0.1171  3.1516
 3158SOL    HW219002   1.823   7.890   0.030  0.5869 -0.1231  1.4649
 3159SOL     OW19003   3.822   2.008   4.343  0.0916 -0.6464 -0.4021
 3159SOL    HW119004   3.738   1.956   4.360 -1.0549  1.1122 -0.5581
 3159SOL    HW219005   3.895   1.945   4.317 -1.1312 -2.2261 -0.1211
 3160SOL     OW19006   1.584   1.257   0.116  0.2655  0.5658  0.1918
 3160SOL    HW119007   1.672   1.266   0.068  0.6205  1.5703  1.0088
 3160SOL    HW219008   1.535   1.344   0.112 -1.0786 -0.2292 -0.9672
 3162SOL     OW19009   8.368   8.567   3.871  0.1401 -0.6407  0.1474
 3162SOL    HW119010   8.362   8.469   3.885 -3.4318 -0.5299 -0.0491
 3162SOL    HW219011   8.368   8.614   3.959  1.9229 -0.7869  0.2430
 3164SOL     OW19012   8.418   8.564   1.655  0.0429  0.5804  0.1009
 3164SOL    HW119013   8.399   8.548   1.752 -4.8459 -0.8630 -0.9562
 3164SOL    HW219014   8.410   8.662   1.635 -2.7350  0.4798  0.5202
 3165SOL     OW19015   6.794   4.740   1.720  0.0148  0.0498 -0.1983
 3165SOL    HW119016   6.764   4.728   1.814 -0.6222  0.6903 -0.3182
 3165SOL    HW219017   6.868   4.676   1.700  0.5775  0.3533  0.9219
 3166SOL     OW19018   8.822   0.230   3.632 -0.0824 -0.5481  0.4579
 3166SOL    HW119019   8.872   0.236   3.718 -0.3047  0.2192  0.5367
 3166SOL    HW219020   8.767   0.146   3.631  0.1880 -0.7310  0.9122
 3167SOL     OW19021   9.384   8.699   2.130  0.2758  0.4140  0.6656
 3167SOL    HW119022   9.408   8.628   2.064 -2.2368  1.5225 -1.5435
 3167SOL    HW219023   9.456   8.768   2.133  1.6084 -0.9724  1.0331
 3168SOL     OW19024   9.629   3.041   3.450 -0.0492  0.5658 -1.2283
 3168SOL    HW119025   9.555   3.059   3.386 -0.7436 -0.5171 -0.7350
 3168SOL    HW219026   9.628   2.944   3.477 -0.4046  1.2096  1.1998
 3170SOL     OW19027   2.460   4.201   3.291 -0.3969  0.4138 -0.0305
 3170SOL    HW119028   2.552   4.164   3.279 -0.5811  0.2008 -0.8147
 3170SOL    HW219029   2.397   4.126   3.312 -0.4640  0.5094  0.1095
 3171SOL     OW19030   3.770   7.162   1.221  0.5129 -0.0776  0.3455
 3171SOL    HW119031   3.834   7.110   1.164 -1.4749 -0.7541 -1.3065
 3171SOL    HW219032   3.724   7.099   1.284  2.3586  0.5963  2.4513
 3172SOL     OW19033   5.667   9.878   3.143 -0.1658 -0.6306 -0.6494
 3172SOL    HW119034   5.760   9.844   3.152 -0.4992 -1.3932 -0.0255
 3172SOL    HW219035   5.610   9.837   3.214 -0.8417  0.2895 -0.6634
 3173SOL     OW19036   5.264   0.390   5.164  0.1680 -0.1188 -0.1277
 3173SOL    HW119037   5.206   0.386   5.083  1.2310  0.9174 -0.9658
 3173SOL    HW219038   5.302   0.300   5.184 -1.1937 -0.6594  0.0440
 3174SOL     OW19039   1.476   1.305   5.524 -0.4410  0.0811 -0.1846
 3174SOL    HW119040   1.444   1.239   5.457  1.0683 -1.3485  0.4680
 3174SOL    HW219041   1.489   1.394   5.480 -0.1329 -0.6607 -1.6214
 3176SOL     OW19042   0.349   3.075   0.121 -0.7678  0.5023  0.4844
 3176SOL    HW119043   0.375   3.146   0.056  0.4698 -0.0267  0.3991
 3176SOL    HW219044   0.326   3.117   0.209  0.3051  0.9846  0.5445
 3179SOL     OW19045   3.617   7.786   3.165  0.1160  0.3363 -0.0181
 3179SOL    HW119046   3.673   7.864   3.138 -0.2714  0.5295 -0.2565
 3179SOL    HW219047   3.522   7.801   3.139  0.2416 -0.7385 -1.1649
 3181SOL     OW19048   9.611   7.990   2.009 -0.6980  0.1657 -0.1410
 3181SOL    HW119049   9.642   7.973   2.103 -1.2271  0.1805  0.0386
 3181SOL    HW219050   9.524   7.943   1.994  0.2990 -1.3988 -1.2203
 3182SOL     OW19051   8.435   7.188   4.958 -0.3868  0.0518  0.1751
 3182SOL    HW119052   8.523   7.213   4.918  0.0341  1.2246  1.8117
 3182SOL    HW219053   8.392   7.118   4.901  1.7503 -0.8084 -0.4337
 3183SOL     OW19054   5.278   8.496   5.428  0.3705  0.3207  0.2062
 3183SOL    HW119055   5.318   8.570   5.482 -0.0556  0.5247  0.2529
 3183SOL    HW219056   5.251   8.531   5.338  1.3703 -0.0896 -0.2577
 3184SOL     OW19057   0.070   0.977   0.797  0.4874  0.3460 -0.1099
 3184SOL    HW119058   0.147   0.913   0.803  1.8888  2.0011 -0.2691
 3184SOL    HW219059   0.004   0.955   0.869 -0.1764 -2.7106 -1.5422
 3185SOL     OW19060   5.581   8.117   2.395  0.4958  0.2092 -0.1292
 3185SOL    HW119061   5.496   8.157   2.429 -0.2328 -1.4665  0.0868
 3185SOL    HW219062   5.574   8.017   2.398  2.5747  0.0483  0.1527
 3186SOL     OW19063   1.195   7.266   6.286 -0.1551  0.3186  0.5119
 3186SOL    HW119064   1.264   7.311   6.229  0.1593 -1.4434 -0.5339
 3186SOL    HW219065   1.173   7.325   6.364  1.2611  1.6531 -0.0632
 3187SOL     OW19066   3.677   8.553   6.291  0.2374 -0.1002 -0.0643
 3187SOL    HW119067   3.609   8.506   6.235 -1.4279  0.9288  1.0264
 3187SOL    HW219068   3.749   8.489   6.318  0.3640 -0.9143 -2.2439
 3188SOL     OW19069   8.101   5.786   3.973  0.3004  0.4004 -0.0080
 3188SOL    HW119070   8.165   5.735   4.032  1.1961 -0.5782 -1.7789
 3188SOL    HW219071   8.027   5.824   4.029  0.1889 -1.9594  1.5126
 3189SOL     OW19072   7.751   0.044   2.490 -0.2367  0.0707 -0.3961
 3189SOL    HW119073   7.714  -0.033   2.437 -0.3446  0.2820 -0.6322
 3189SOL    HW219074   7.842   0.068   2.454 -0.3990  0.3482 -0.6211
 3190SOL     OW19075   3.577   5.157   4.780  0.2213 -0.0927 -0.3610
 3190SOL    HW119076   3.601   5.158   4.877  0.3896  1.6428 -0.4113
 3190SOL    HW219077   3.509   5.228   4.761 -0.8253 -1.3084 -1.2699
 3192SOL     OW19078   6.914   4.198   2.226 -0.2152 -0.0891 -0.0859
 3192SOL    HW119079   6.904   4.102   2.253 -1.4662  0.1412  0.3144
 3192SOL    HW219080   6.955   4.203   2.135  0.3041 -0.9851  0.0879
 3193SOL     OW19081   8.128   5.882   5.165 -0.0687  0.4753  0.0051
 3193SOL    HW119082   8.083   5.792   5.167 -0.6389  0.7865  1.3031
 3193SOL    HW219083   8.084   5.939   5.096 -0.7753  0.3189  0.3266
 3194SOL     OW19084   3.637   6.915   1.318 -0.5715 -0.2605 -0.4867
 3194SOL    HW119085   3.580   6.842   1.282 -1.7305 -0.0338  0.8510
 3194SOL    HW219086   3.644   6.907   1.418  1.5493 -0.1527 -0.5936
 3195SOL     OW19087   0.911   5.299   3.283 -0.0289  0.3716  0.1956
 3195SOL    HW119088   0.969   5.320   3.362 -1.1895  2.4019  0.5428
 3195SOL    HW219089   0.929   5.364   3.210 -2.3171  1.4635  0.5612
 3196SOL     OW19090   0.341   0.246   2.375  0.4421  0.0755 -0.1851
 3196SOL    HW119091   0.407   0.258   2.449 -0.0702  0.7302  0.1847
 3196SOL    HW219092   0.261   0.198   2.410  0.6608 -0.5795 -0.5901
 3197SOL     OW19093   8.079   4.973   3.587  0.3072 -0.4691 -0.4727
 3197SOL    HW119094   8.090   4.990   3.489  0.1195  2.9302  0.0406
 3197SOL    HW219095   8.168   4.969   3.631  0.3322 -0.2267 -0.5032
 3198SOL     OW19096   9.226   3.624   4.845  0.2209  0.1073  0.3696
 3198SOL    HW119097   9.239   3.666   4.755 -0.2130 -1.9240 -0.6769
 3198SOL    HW219098   9.305   3.643   4.902  0.1523  2.0818 -0.1691
 3199SOL     OW19099   0.189   6.818   5.805 -0.3826  0.3257 -0.1116
 3199SOL    HW119100   0.284   6.821   5.773 -0.3082 -0.3684  0.0346
 3199SOL    HW219101   0.184   6.760   5.886 -1.2687 -1.2338 -1.2688
 3201SOL     OW19102   8.696   3.520   5.377 -0.4465 -0.2670  0.3759
 3201SOL    HW119103   8.796   3.512   5.380 -0.4642 -0.2455  1.0956
 3201SOL    HW219104   8.657   3.440   5.332 -0.2548 -1.4756  2.2895
 3202SOL     OW19105   7.493   9.743   5.926  0.1307 -0.0038 -0.1626
 3202SOL    HW119106   7.484   9.833   5.883  2.4719  0.1394 -0.4251
 3202SOL    HW219107   7.469   9.751   6.023 -1.9448  0.3800 -0.6861
 3203SOL     OW19108   3.481   5.248   1.817  0.2857 -0.0776  0.0871
 3203SOL    HW119109   3.507   5.332   1.770  0.7033 -0.2152  0.0693
 3203SOL    HW219110   3.553   5.179   1.805 -0.4516 -0.7377 -0.6554
 3204SOL     OW19111   3.351   6.302   6.287  0.0925 -0.2619 -0.0599
 3204SOL    HW119112   3.334   6.225   6.349  0.1184  0.0227  0.3001
 3204SOL    HW219113   3.266   6.331   6.245 -0.0486  0.0603  0.4487
 3206SOL     OW19114   6.655   1.528   1.754 -0.1027 -0.0127 -0.2383
 3206SOL    HW119115   6.567   1.483   1.767 -0.3514  0.0272 -1.6651
 3206SOL    HW219116   6.726   1.460   1.739 -0.0632 -0.0059 -0.0858
 3207SOL     OW19117   8.609   6.251   3.101  0.0053  0.5754  0.5164
 3207SOL    HW119118   8.517   6.271   3.134 -1.3808 -0.1466 -2.6250
 3207SOL    HW219119   8.614   6.270   3.003  2.4213 -1.8684  0.0893
 3212SOL     OW19120   8.984   3.735   1.649 -0.4095  0.3981 -0.1033
 3212SOL    HW119121   9.074   3.726   1.606 -0.2995  2.5169 -0.3554
 3212SOL    HW219122   8.934   3.649   1.639  0.2823  0.2641 -2.9365
 3213SOL     OW19123   9.838   5.342   5.506  0.2150  0.3392  0.3507
 3213SOL    HW119124   9.836   5.248   5.470 -0.6918  0.6495 -0.4245
 3213SOL    HW219125   9.754   5.360   5.556  0.2020  0.8751  0.1390
 3214SOL     OW19126   3.596   8.808   6.396  0.3163 -0.1242 -0.6700
 3214SOL    HW119127   3.623   8.715   6.370  0.0396 -0.4869  0.3021
 3214SOL    HW219128   3.547   8.851   6.320  0.1738 -0.8914 -1.0184
 3216SOL     OW19129   3.738   4.513   1.778  0.4713 -0.5866 -0.2624
 3216SOL    HW119130   3.685   4.439   1.736  0.2567 -1.1186  0.9485
 3216SOL    HW219131   3.834   4.504   1.750  0.4852 -1.4405  0.0518
 3217SOL     OW19132   2.713   5.920   2.649 -0.0199 -0.0419 -0.6755
 3217SOL    HW119133   2.674   6.011   2.634  0.9137  0.4099 -0.4385
 3217SOL    HW219134   2.803   5.915   2.604  0.9250 -0.0857  1.1460
 3218SOL     OW19135   9.632   9.463   0.788  0.3355 -0.0377 -0.1422
 3218SOL    HW119136   9.592   9.526   0.855 -0.5917 -2.1054  1.2978
 3218SOL    HW219137   9.611   9.369   0.814  2.2128 -0.9925 -1.9292
 3219SOL     OW19138   8.008   9.241   0.413 -0.5670  0.4018  0.1102
 3219SOL    HW119139   8.058   9.154   0.413  0.7962  1.1375  1.4898
 3219SOL    HW219140   7.930   9.235   0.352  0.0626 -1.4757 -0.5577
 3220SOL     OW19141   4.632   2.478   3.154  0.6414  0.1287  0.0623
 3220SOL    HW119142   4.637   2.518   3.063  0.9259  1.0565  0.4801
 3220SOL    HW219143   4.611   2.380   3.147  0.3159  0.2732 -0.9766
 3221SOL     OW19144   5.243   2.400   1.099  0.2991  0.4957  0.7334
 3221SOL    HW119145   5.153   2.418   1.138 -0.4465  0.1375 -0.7867
 3221SOL    HW219146   5.283   2.485   1.065  0.1793  0.5335  0.6859
 3222SOL     OW19147   6.560   5.130   1.952 -0.6122  0.2232  0.1733
 3222SOL    HW119148   6.583   5.093   2.042 -1.1160 -0.0185  0.2098
 3222SOL    HW219149   6.643   5.142   1.898 -0.3441  0.0086  0.5371
 3223SOL     OW19150   6.421   2.429   4.215 -0.2450  0.0378 -0.1643
 3223SOL    HW119151   6.428   2.341   4.167 -2.4211  0.4158 -1.2675
 3223SOL    HW219152   6.340   2.428   4.273 -0.0915  1.1957  0.0747
 3224SOL     OW19153   2.807   5.199   5.090  0.0182  0.7213 -0.0384
 3224SOL    HW119154   2.757   5.126   5.043  0.7636 -0.3127  0.7481
 3224SOL    HW219155   2.766   5.215   5.179  0.2054  0.8749  0.0208
 3226SOL     OW19156   1.394   0.471   5.021 -0.1108 -0.6617 -0.3509
 3226SOL    HW119157   1.371   0.509   4.931 -0.4133 -0.0485 -0.0202
 3226SOL    HW219158   1.491   0.483   5.039  0.2670 -2.1889 -1.2528
 3227SOL     OW19159   8.053   7.988   3.856 -0.0383  0.0358  0.0777
 3227SOL    HW119160   8.080   7.894   3.833  2.9881  1.0143 -0.5457
 3227SOL    HW219161   8.014   8.032   3.775 -1.3931 -0.6147  0.3504
 3228SOL     OW19162   0.460   2.834   4.369  0.4500  0.2370 -0.3848
 3228SOL    HW119163   0.523   2.756   4.375  1.6532  1.2416  0.2231
 3228SOL    HW219164   0.418   2.835   4.278 -0.2753 -1.6472 -0.0834
 3230SOL     OW19165   1.424   8.217   2.588 -0.2036  0.1175 -0.2183
 3230SOL    HW119166   1.430   8.125   2.549 -1.5786 -0.3722  0.6724
 3230SOL    HW219167   1.371   8.213   2.673 -0.5360  1.7775 -0.3359
 3231SOL     OW19168   9.922   6.709   5.373 -0.1739 -0.2861 -0.5211
 3231SOL    HW119169   9.882   6.706   5.465 -0.2538  2.3939 -0.4237
 3231SOL    HW219170   9.947   6.617   5.345 -2.3619 -1.4629  1.1999
 3232SOL     OW19171   3.330   5.089   6.050  0.2178 -0.3021 -0.1518
 3232SOL    HW119172   3.302   5.181   6.079  0.5293  0.4246 -2.0897
 3232SOL    HW219173   3.249   5.031   6.041 -0.0268 -0.0854  0.6205
 3233SOL     OW19174   0.855   5.358   0.829 -0.2663  0.3284 -0.1571
 3233SOL    HW119175   0.856   5.447   0.782 -1.6340 -0.1353 -1.0685
 3233SOL    HW219176   0.944   5.344   0.874  0.7475  1.1912 -1.8304
 3234SOL     OW19177   9.518   6.426   0.033  0.1310 -0.0308  0.4443
 3234SOL    HW119178   9.590   6.361   0.055 -0.8171 -1.3385 -0.2686
 3234SOL    HW219179   9.557   6.505  -0.014  0.9245 -1.4116 -1.2892
 3240SOL     OW19180   4.839   1.990   4.862 -0.2465 -0.1895  0.0926
 3240SOL    HW119181   4.912   2.058   4.866  1.1595 -1.5879 -1.3309
 3240SOL    HW219182   4.782   2.007   4.781 -0.2633 -0.3573  0.0689
 3241SOL     OW19183   6.207   2.070   5.504  0.3295  0.5546 -0.5917
 3241SOL    HW119184   6.160   2.114   5.581 -1.4934  1.1212 -1.9858
 3241SOL    HW219185   6.273   2.134   5.464 -0.2975  1.0382 -0.8593
 3242SOL     OW19186   9.831   2.659   6.297  0.0318 -0.2476  0.1788
 3242SOL    HW119187   9.781   2.678   6.213 -0.1576 -0.3494  0.2703
 3242SOL    HW219188   9.803   2.725   6.368 -0.1559 -0.4635  0.3049
 3243SOL     OW19189   0.987   2.432   2.279  0.3821  0.2971 -0.4413
 3243SOL    HW119190   1.030   2.374   2.348 -0.7709 -0.6208 -0.4760
 3243SOL    HW219191   0.888   2.423   2.284  0.2773  0.1444 -2.2667
 3245SOL     OW19192   5.279   0.387   2.504 -0.0307 -0.1896 -0.1958
 3245SOL    HW119193   5.220   0.332   2.564 -1.1717  1.3276  0.1098
 3245SOL    HW219194   5.236   0.397   2.415  0.9827 -1.2049 -0.8157
 3246SOL     OW19195   3.401   9.899   5.017  0.2612  0.0533 -0.1471
 3246SOL    HW119196   3.337   9.917   5.092  0.9863  1.2865  0.1822
 3246SOL    HW219197   3.426   9.802   5.018 -1.9625 -0.5605 -0.5869
 3247SOL     OW19198   2.837   3.001   3.652  0.5761  0.5199  0.9199
 3247SOL    HW119199   2.804   3.081   3.603  1.0344 -0.2426 -0.6721
 3247SOL    HW219200   2.760   2.943   3.677  0.2054  1.6258  2.4215
 3248SOL     OW19201   1.674   9.613   1.374 -0.0141 -0.4871 -0.4131
 3248SOL    HW119202   1.734   9.541   1.337  0.8194 -1.0857  2.0266
 3248SOL    HW219203   1.580   9.580   1.375  0.1170 -0.8904 -0.9507
 3251SOL     OW19204   3.945   3.712   3.501  0.6367 -0.1494 -0.7676
 3251SOL    HW119205   4.013   3.780   3.527 -1.0469  1.3812 -0.2997
 3251SOL    HW219206   3.920   3.724   3.405  2.2413 -1.8130 -1.4385
 3252SOL     OW19207   4.185   2.613   5.301 -0.1315  0.1976  0.0437
 3252SOL    HW119208   4.164   2.639   5.395 -0.6596  1.1455 -0.3228
 3252SOL    HW219209   4.239   2.686   5.258 -0.1714 -0.0857 -0.4845
 3253SOL     OW19210   9.920   2.493   1.078  0.1665  0.6365  0.1115
 3253SOL    HW119211  10.010   2.528   1.104  0.6620 -0.5883  0.1141
 3253SOL    HW219212   9.924   2.456   0.985 -0.5133  1.1762 -0.1409
 3254SOL     OW19213   1.644   6.544   1.191  0.0539  0.2661 -0.1660
 3254SOL    HW119214   1.545   6.531   1.196  0.1925 -1.9604 -2.2558
 3254SOL    HW219215   1.669   6.572   1.098  1.4565 -0.0341  0.1127
 3255SOL     OW19216   2.161   3.782   2.693 -0.2155 -0.2412  0.0985
 3255SOL    HW119217   2.072   3.748   2.663 -0.1034  0.1910 -0.7240
 3255SOL    HW219218   2.225   3.705   2.701 -0.4123 -0.4327 -0.1622
 3256SOL     OW19219   3.350   4.072   2.509 -0.1657 -0.0335  0.1686
 3256SOL    HW119220   3.417   4.126   2.457 -0.6052  0.1833 -0.1712
 3256SOL    HW219221   3.383   4.060   2.602  0.6032 -0.3851 -0.1485
 3257SOL     OW19222   1.954   7.566   6.036 -0.1970  0.2041  0.2611
 3257SOL    HW119223   1.892   7.522   5.971 -0.6867  1.8244 -0.3899
 3257SOL    HW219224   2.028   7.612   5.986  0.9900 -0.8970  0.9853
 3258SOL     OW19225   2.635   6.228   4.837 -0.2494  0.1727 -0.1783
 3258SOL    HW119226   2.649   6.208   4.934 -2.0158  1.4261  0.3690
 3258SOL    HW219227   2.592   6.318   4.828 -0.9505 -0.3259 -2.0809
 3259SOL     OW19228   4.327   3.368   1.119  0.0405  0.0109 -0.1786
 3259SOL    HW119229   4.335   3.436   1.191  1.5172  0.4855 -0.7755
 3259SOL    HW219230   4.417   3.351   1.079 -0.2192 -2.7109  0.3365
 3261SOL     OW19231   8.474   3.100   2.063 -0.5514  0.1600 -0.2133
 3261SOL    HW119232   8.543   3.065   2.126 -0.0215  1.0575 -0.2988
 3261SOL    HW219233   8.436   3.186   2.099 -1.6121 -0.3134 -0.1735
 3262SOL     OW19234   2.253   1.534   3.852 -0.1106  0.2791 -0.2095
 3262SOL    HW119235   2.159   1.563   3.872 -0.0613  0.2538  0.0619
 3262SOL    HW219236   2.281   1.463   3.918 -0.0882 -0.0903 -0.6177
 3263SOL     OW19237   0.504   5.663   5.315  0.7384  0.2316  0.2315
 3263SOL    HW119238   0.566   5.727   5.362 -0.2829  0.2436  1.5654
 3263SOL    HW219239   0.471   5.594   5.380  1.1847 -1.1857 -1.0118
 3264SOL     OW19240   8.850   9.632   2.678  0.2911 -0.6087 -0.2064
 3264SOL    HW119241   8.944   9.640   2.643  0.2460 -0.4563 -0.2975
 3264SOL    HW219242   8.850   9.646   2.777  0.2167  0.5463 -0.3554
 3265SOL     OW19243   2.576   8.541   0.321 -0.1462  0.1646 -0.5918
 3265SOL    HW119244   2.586   8.638   0.345  0.2761 -0.0938  0.3310
 3265SOL    HW219245   2.652   8.512   0.264  1.4449 -0.3802  1.7150
 3266SOL     OW19246   3.188   9.527   1.317 -0.0079  0.0331  0.5988
 3266SOL    HW119247   3.184   9.574   1.229 -1.5839 -1.7096 -0.2695
 3266SOL    HW219248   3.109   9.554   1.373 -0.0636 -0.3624  0.7139
 3267SOL     OW19249   1.724   3.468   0.499  0.3953  0.4890  0.5258
 3267SOL    HW119250   1.821   3.448   0.509  0.1158 -0.8007  0.8777
 3267SOL    HW219251   1.690   3.513   0.582  0.3581 -0.5461  1.0893
 3268SOL     OW19252   9.370   2.726   3.618 -0.0102  0.7446 -0.2666
 3268SOL    HW119253   9.387   2.824   3.628 -0.1706  0.7122  0.3681
 3268SOL    HW219254   9.272   2.711   3.604  0.1819  0.7677 -1.6574
 3269SOL     OW19255   9.353   1.870   5.565 -0.3358 -0.0270  0.9353
 3269SOL    HW119256   9.261   1.886   5.601 -1.0890 -1.5198 -0.2677
 3269SOL    HW219257   9.363   1.773   5.542  0.5833  0.6346 -1.5268
 3270SOL     OW19258   3.481   3.266   3.285  0.5016  0.3602 -0.9463
 3270SOL    HW119259   3.439   3.188   3.239  0.3831  0.6023 -1.2489
 3270SOL    HW219260   3.428   3.348   3.267 -1.0978 -0.0056  1.8157
 3271SOL     OW19261   1.745   3.776   1.749 -0.5414  0.1445  0.1872
 3271SOL    HW119262   1.652   3.743   1.766 -0.1990 -1.1691 -0.3794
 3271SOL    HW219263   1.810   3.700   1.759  0.2390  0.5602 -1.4418
 3272SOL     OW19264   9.264   3.746   3.418  0.0375  0.3630 -0.6699
 3272SOL    HW119265   9.273   3.712   3.511 -0.9997  0.4043 -0.5446
 3272SOL    HW219266   9.353   3.773   3.383  0.5712 -0.5959 -0.0469
 3273SOL     OW19267   0.715   2.341   4.686  0.0582 -0.1944  0.1192
 3273SOL    HW119268   0.655   2.376   4.614  0.5753 -0.4661 -0.4532
 3273SOL    HW219269   0.803   2.317   4.646  0.7311  0.7092  1.0505
 3275SOL     OW19270   0.143   2.607   6.036  0.2554  0.4166 -0.3272
 3275SOL    HW119271   0.236   2.614   6.000  0.6146  1.5500  0.7677
 3275SOL    HW219272   0.084   2.561   5.970  1.0685  1.7684 -2.0086
 3277SOL     OW19273   2.068   8.216   2.343  0.7346 -0.3775 -1.0944
 3277SOL    HW119274   1.969   8.220   2.355  0.8898  1.0827 -0.2533
 3277SOL    HW219275   2.095   8.120   2.331 -0.6518 -0.8981 -0.2517
 3278SOL     OW19276   2.144   4.845   5.630  0.1990 -0.0159 -0.1794
 3278SOL    HW119277   2.184   4.919   5.684 -0.9892 -0.2159  1.0047
 3278SOL    HW219278   2.214   4.777   5.609  0.6423 -0.0354  1.2988
 3279SOL     OW19279   0.689   8.719   3.532  0.1304  0.2591  0.1268
 3279SOL    HW119280   0.731   8.704   3.443 -0.3442  0.0187 -0.0613
 3279SOL    HW219281   0.759   8.718   3.603  0.2052 -2.3208  0.0687
 3280SOL     OW19282   3.354   3.864   5.797  0.1764 -0.0625 -0.8795
 3280SOL    HW119283   3.415   3.913   5.734 -0.2902 -0.2844 -1.5145
 3280SOL    HW219284   3.272   3.919   5.813  1.9310  1.6822  2.5047
 3281SOL     OW19285   7.047   7.121   3.710  0.0704  0.0681  0.4224
 3281SOL    HW119286   6.972   7.181   3.739  0.1632  0.1430  0.5072
 3281SOL    HW219287   7.078   7.066   3.787 -0.1290 -0.2119  0.3021
 3282SOL     OW19288   7.795   1.731   5.569  0.1515 -0.2415 -0.1118
 3282SOL    HW119289   7.872   1.687   5.615  0.2796 -0.5077 -0.5858
 3282SOL    HW219290   7.753   1.667   5.504 -1.0815 -0.4335  0.8494
 3283SOL     OW19291   0.584   4.161   0.740  0.1258  0.0048 -0.7425
 3283SOL    HW119292   0.679   4.133   0.730 -0.0262 -0.8991  0.2193
 3283SOL    HW219293   0.527   4.080   0.757 -0.8529  0.5026 -1.5991
 3285SOL     OW19294   2.417   3.579   3.937  0.1736  0.3034  0.5165
 3285SOL    HW119295   2.447   3.487   3.914  0.3430  0.1234  1.4335
 3285SOL    HW219296   2.431   3.595   4.035 -2.7365  0.1883  1.0176
 3287SOL     OW19297   4.659   8.684   2.351 -0.7438 -0.2983 -0.5009
 3287SOL    HW119298   4.605   8.611   2.392  0.6540 -0.7870  0.5010
 3287SOL    HW219299   4.673   8.758   2.417 -0.8918  0.2146 -1.0294
 3288SOL     OW19300   8.922   2.263   5.880 -0.1892  0.4533  0.3754
 3288SOL    HW119301   8.961   2.238   5.791  0.6259  2.2032  0.2323
 3288SOL    HW219302   8.838   2.210   5.895 -0.0427 -0.2620 -1.1851
 3289SOL     OW19303   5.830   1.083   2.483 -0.0564  0.0502  0.1865
 3289SOL    HW119304   5.896   1.041   2.545 -0.4394 -0.3198  0.3519
 3289SOL    HW219305   5.751   1.022   2.473 -0.2587  0.3730 -0.2044
 3290SOL     OW19306   4.875   6.044   0.638  0.0372  0.3130 -0.3797
 3290SOL    HW119307   4.854   6.108   0.564 -1.6688  0.4786  0.2235
 3290SOL    HW219308   4.796   5.986   0.655  0.5476  0.0265  1.0718
 3292SOL     OW19309   1.926   0.897   5.506 -0.1448  0.7916  0.0330
 3292SOL    HW119310   1.925   0.966   5.434  3.0222  0.3947 -0.4398
 3292SOL    HW219311   1.899   0.939   5.593 -3.9080  1.2903 -1.3023
 3293SOL     OW19312   2.756   3.091   2.571  0.2750  0.2099 -0.4554
 3293SOL    HW119313   2.778   3.038   2.489 -0.3989 -0.2506 -0.3448
 3293SOL    HW219314   2.805   3.053   2.649  1.2127  0.8838 -0.7122
 3294SOL     OW19315   3.376   7.021   0.353  0.0432 -0.2535 -0.0278
 3294SOL    HW119316   3.406   6.976   0.269 -0.6918 -0.3961 -0.2193
 3294SOL    HW219317   3.299   6.969   0.393  2.1773 -1.8110  2.2306
 3295SOL     OW19318   0.810   9.050   1.406 -0.3256  0.9001  0.7511
 3295SOL    HW119319   0.845   9.004   1.324  0.0843  0.7393  1.0128
 3295SOL    HW219320   0.886   9.089   1.458 -0.2909 -1.2258  2.4001
 3297SOL     OW19321   3.424   8.806   5.849 -0.2528 -0.4355 -0.5096
 3297SOL    HW119322   3.460   8.897   5.869 -2.9390  0.1864  1.7738
 3297SOL    HW219323   3.431   8.788   5.751  2.8330  1.0870 -0.6179
 3299SOL     OW19324   9.349   8.837   4.317  0.5411 -0.9784 -0.2672
 3299SOL    HW119325   9.261   8.822   4.272  0.4013 -1.6152  0.2147
 3299SOL    HW219326   9.381   8.930   4.297 -0.1700 -0.7904 -0.5580
 3301SOL     OW19327   3.183   9.317   0.060  0.5497 -0.6411  0.5132
 3301SOL    HW119328   3.159   9.402   0.108  1.1134  0.3846 -0.9962
 3301SOL    HW219329   3.229   9.339  -0.026 -1.0989 -2.4228 -0.8807
 3302SOL     OW19330   0.509   7.266   6.226  0.5533 -0.1345 -0.2750
 3302SOL    HW119331   0.428   7.267   6.167  1.2307 -2.3157 -1.2941
 3302SOL    HW219332   0.572   7.195   6.194  2.3995  0.8460  1.1385
 3303SOL     OW19333   9.581   9.051   5.179  0.0486 -0.1430  0.0919
 3303SOL    HW119334   9.606   8.959   5.211 -0.6324 -0.2190  0.4153
 3303SOL    HW219335   9.653   9.115   5.205  0.4182 -0.5429  0.0737
 3304SOL     OW19336   1.578   4.103   1.872  0.2183  0.1497  0.4086
 3304SOL    HW119337   1.550   4.199   1.869  0.1642  0.1382  0.5601
 3304SOL    HW219338   1.671   4.095   1.836  0.4972  0.3620  1.0675
 3306SOL     OW19339   2.845   5.716   6.117 -0.0220 -0.2071 -0.4535
 3306SOL    HW119340   2.821   5.771   6.037 -0.4714  0.4021  0.0942
 3306SOL    HW219341   2.762   5.672   6.153 -0.0283  0.4774  0.3835
 3308SOL     OW19342   7.849   6.120   4.245  0.8168  0.3204  0.1049
 3308SOL    HW119343   7.785   6.167   4.184 -0.9270 -2.3003 -0.1816
 3308SOL    HW219344   7.848   6.164   4.335  0.5680  1.8910 -0.6503
 3309SOL     OW19345   3.163   0.120   0.567 -0.0072  0.1685 -0.0399
 3309SOL    HW119346   3.156   0.047   0.499  0.2736 -0.2689  0.3994
 3309SOL    HW219347   3.092   0.188   0.550 -0.1233 -0.0885 -0.5930
 3311SOL     OW19348   0.139   5.472   5.143  0.2941  0.1231  0.5953
 3311SOL    HW119349   0.196   5.474   5.061 -1.1660 -1.8689 -0.5457
 3311SOL    HW219350   0.185   5.518   5.218  1.7171  1.9113 -1.3207
 3313SOL     OW19351   8.088   9.917   1.761 -0.1304  0.9787 -0.0527
 3313SOL    HW119352   8.031   9.910   1.679  0.6290 -1.2576 -0.4129
 3313SOL    HW219353   8.157   9.844   1.760  1.0926  2.0901  1.6446
 3314SOL     OW19354   0.736   3.148   4.876  0.3829 -0.0083 -0.8401
 3314SOL    HW119355   0.666   3.211   4.908 -0.9240 -1.3609 -0.9972
 3314SOL    HW219356   0.731   3.140   4.777 -0.4909 -1.5208 -0.6961
 3315SOL     OW19357   8.938   6.357   5.179 -0.0938 -0.3582  0.3062
 3315SOL    HW119358   8.985   6.400   5.256  0.1468 -1.8793  1.0222
 3315SOL    HW219359   8.870   6.292   5.213 -0.4112 -0.6057 -0.7732
 3317SOL     OW19360   2.346   0.682   4.870  0.4659  0.3428 -0.2315
 3317SOL    HW119361   2.333   0.695   4.772 -2.1297 -0.5753 -0.0447
 3317SOL    HW219362   2.371   0.587   4.887  3.0233  0.9821 -0.1420
 3319SOL     OW19363   3.400   1.247   3.333  0.0918  0.0757 -0.9500
 3319SOL    HW119364   3.375   1.343   3.326  0.4296  0.1244 -1.4680
 3319SOL    HW219365   3.463   1.234   3.409  2.3692  0.7359 -2.6783
 3320SOL     OW19366   9.811   8.189   3.023 -0.1100 -0.2376  0.1314
 3320SOL    HW119367   9.712   8.197   3.034 -0.3327 -1.9205 -0.5393
 3320SOL    HW219368   9.839   8.234   2.938  0.0782  2.4556  1.5329
 3322SOL     OW19369   3.314   3.970   1.395  0.0074 -0.0470  0.3557
 3322SOL    HW119370   3.318   4.017   1.306  1.9699 -0.1498  0.3701
 3322SOL    HW219371   3.351   4.030   1.466  1.8062 -1.2875  0.4966
 3323SOL     OW19372   4.904   4.676   1.694 -0.1819  0.0844  0.0179
 3323SOL    HW119373   4.975   4.737   1.728 -0.1263  0.1781 -0.2575
 3323SOL    HW219374   4.946   4.600   1.644 -0.2401 -0.3057  0.5634
 3324SOL     OW19375   7.118   8.596   5.265 -0.5651 -0.2726  0.3836
 3324SOL    HW119376   7.137   8.667   5.197 -0.4034  0.9057  1.6191
 3324SOL    HW219377   7.037   8.621   5.318 -0.1019 -0.6543  1.2937
 3325SOL     OW19378   4.135   4.348   6.314  0.0268  0.4251  0.1107
 3325SOL    HW119379   4.202   4.413   6.350 -0.4132  1.1611 -0.3855
 3325SOL    HW219380   4.099   4.381   6.227 -1.1355  0.1470  0.4719
 3326SOL     OW19381   0.997   3.353   2.921 -0.3863 -0.1668 -0.5771
 3326SOL    HW119382   0.962   3.305   3.001  1.0010  0.2805  0.3105
 3326SOL    HW219383   1.009   3.450   2.943  0.4886 -0.1370 -1.1505
 3327SOL     OW19384   2.968   7.087   1.644  0.7832  0.2565  0.0705
 3327SOL    HW119385   2.900   7.150   1.606 -0.7087 -1.0240  0.5620
 3327SOL    HW219386   3.036   7.066   1.575 -0.9229 -0.6733 -1.3712
 3329SOL     OW19387   3.211   6.073   5.654  1.0745  0.6236  0.0886
 3329SOL    HW119388   3.191   5.977   5.674  0.1586  0.9313  0.6801
 3329SOL    HW219389   3.136   6.130   5.686  2.3281  1.6870  1.2444
 3330SOL     OW19390   1.753   1.534   3.687 -0.6959 -0.5490 -0.7530
 3330SOL    HW119391   1.726   1.509   3.780 -2.2098 -0.4592 -1.1538
 3330SOL    HW219392   1.822   1.470   3.654 -0.6370 -0.9783  0.1824
 3331SOL     OW19393   1.781   2.500   4.775 -0.3542  0.1252 -0.1149
 3331SOL    HW119394   1.722   2.427   4.741  1.3268 -0.3448 -2.0758
 3331SOL    HW219395   1.876   2.480   4.753  0.4009  1.6900  1.5502
 3332SOL     OW19396   7.372   6.856   4.190 -0.5349  0.6020 -0.4063
 3332SOL    HW119397   7.338   6.913   4.115  0.3107 -0.7729 -1.8606
 3332SOL    HW219398   7.435   6.908   4.247 -1.9629  1.9596 -0.0273
 3333SOL     OW19399   0.116   4.662   3.939  0.0571  0.2240  0.2597
 3333SOL    HW119400   0.179   4.695   4.009  0.0901  1.4582 -0.3391
 3333SOL    HW219401   0.051   4.734   3.917  0.0715 -0.1497 -1.0102
 3335SOL     OW19402   7.834   9.826   3.158 -0.5985  0.0894  0.0813
 3335SOL    HW119403   7.778   9.841   3.240  0.6451  0.2537  0.9126
 3335SOL    HW219404   7.793   9.754   3.102 -0.9328 -0.7127  1.3427
 3336SOL     OW19405   0.230   0.214   4.141  0.2199  0.2462 -0.6703
 3336SOL    HW119406   0.172   0.293   4.162  1.3357  0.0771  3.5415
 3336SOL    HW219407   0.174   0.138   4.108 -1.4827  1.2491 -0.1244
 3337SOL     OW19408   9.792   1.637   5.712 -0.2233 -0.7302 -0.2201
 3337SOL    HW119409   9.805   1.540   5.691 -0.0906 -0.7255 -0.1661
 3337SOL    HW219410   9.872   1.670   5.764  0.3484 -0.2588 -1.3985
 3338SOL     OW19411   8.407   4.176   3.676 -0.2934 -0.4774 -0.2885
 3338SOL    HW119412   8.400   4.244   3.603 -0.3613 -0.8947 -0.6661
 3338SOL    HW219413   8.484   4.115   3.658 -1.3091 -1.5954 -0.8422
 3340SOL     OW19414   4.949   9.518   5.381  0.8981  0.1175  0.0444
 3340SOL    HW119415   4.907   9.434   5.348 -1.8488  1.5224 -0.2323
 3340SOL    HW219416   4.990   9.502   5.471  0.1283 -1.4480  0.1285
 3341SOL     OW19417   6.578   1.822   3.747  0.7076  0.6012  0.0970
 3341SOL    HW119418   6.527   1.897   3.704 -0.4009 -0.3436 -0.2693
 3341SOL    HW219419   6.676   1.838   3.737  0.4888  2.1946  0.3540
 3342SOL     OW19420   2.165   3.353   4.710  0.4851  0.2874 -0.0593
 3342SOL    HW119421   2.182   3.274   4.769  0.1266  0.0180 -0.3212
 3342SOL    HW219422   2.078   3.342   4.663 -0.2355  1.4795  0.9605
 3343SOL     OW19423   5.587   9.572   5.157  0.3033  0.2471 -0.6058
 3343SOL    HW119424   5.629   9.624   5.232 -0.6072 -1.2596  0.9827
 3343SOL    HW219425   5.656   9.553   5.087  1.8644 -0.7184  1.1517
 3344SOL     OW19426   1.356   3.584   0.166  0.0027 -0.4197  0.4171
 3344SOL    HW119427   1.367   3.639   0.083 -1.1223 -1.6140 -0.5440
 3344SOL    HW219428   1.444   3.578   0.214  0.1568  2.1555  0.5195
 3345SOL     OW19429   2.713   9.122   5.089  0.0831  0.6465 -0.1474
 3345SOL    HW119430   2.754   9.186   5.154  0.3543 -0.2200  0.5479
 3345SOL    HW219431   2.764   9.123   5.003  0.6710  0.6413  0.2012
 3346SOL     OW19432   2.925   3.287   0.657 -0.1198 -0.5143 -0.5566
 3346SOL    HW119433   2.883   3.332   0.578 -1.4071 -1.1827 -0.2613
 3346SOL    HW219434   2.952   3.356   0.724  1.4023  0.1017 -1.7484
 3348SOL     OW19435   1.415   7.992   3.608  0.4347 -0.2238 -0.4782
 3348SOL    HW119436   1.374   7.936   3.537 -0.8594 -1.0118  0.8582
 3348SOL    HW219437   1.512   7.969   3.617  0.3896 -0.7687 -1.3520
 3349SOL     OW19438   0.818   3.381   2.506 -0.3080 -0.5833  0.1069
 3349SOL    HW119439   0.765   3.300   2.482 -0.8275 -0.7697  1.8112
 3349SOL    HW219440   0.906   3.353   2.545 -0.3914 -0.3283  0.4787
 3350SOL     OW19441   1.637   0.516   3.343 -0.1751 -0.3201  0.6968
 3350SOL    HW119442   1.711   0.475   3.289 -1.0275 -0.6538 -0.2350
 3350SOL    HW219443   1.562   0.542   3.282 -0.4412  0.8857  1.5199
 3351SOL     OW19444   6.651   6.803   5.494 -0.2808 -0.1946 -0.3869
 3351SOL    HW119445   6.737   6.752   5.500 -0.5762 -0.7667 -0.9705
 3351SOL    HW219446   6.594   6.780   5.573  0.3881  0.7176  0.3658
 3352SOL     OW19447   5.960   9.522   4.048  0.0582  0.5163  0.3436
 3352SOL    HW119448   5.877   9.568   4.079  0.2690  0.8346  0.4418
 3352SOL    HW219449   5.960   9.428   4.080 -0.0631  0.6389  0.7056
 3353SOL     OW19450   9.706   7.712   1.599  0.2413  0.1289 -0.0238
 3353SOL    HW119451   9.774   7.772   1.556  0.5985 -0.1686  0.1223
 3353SOL    HW219452   9.751   7.628   1.631 -0.0696  0.2189  0.6719
 3354SOL     OW19453   0.172   7.104   2.976  0.2404  0.1493 -0.1648
 3354SOL    HW119454   0.170   7.010   2.940  1.0542  0.3251 -0.6881
 3354SOL    HW219455   0.267   7.131   2.992  0.0399  1.1111 -0.5890
 3355SOL     OW19456   1.809   0.241   5.044 -0.4914 -0.0478 -0.4771
 3355SOL    HW119457   1.740   0.311   5.062  0.1559  0.0864  1.6607
 3355SOL    HW219458   1.873   0.238   5.121  1.2914 -0.8557 -1.9690
 3356SOL     OW19459   1.955   3.432   3.254 -0.6200  0.4730  0.4808
 3356SOL    HW119460   1.869   3.436   3.304 -0.5120  2.1220  0.5619
 3356SOL    HW219461   2.031   3.426   3.319 -0.6001  0.2977  0.4425
 3357SOL     OW19462   7.948   8.969   5.600 -0.2710  0.1782 -0.1744
 3357SOL    HW119463   7.868   8.993   5.655 -0.4793  0.5649 -0.6384
 3357SOL    HW219464   7.926   8.979   5.503  0.1348 -0.3616 -0.3250
 3359SOL     OW19465   8.036   5.582   0.553  0.1493  0.0312  0.3196
 3359SOL    HW119466   7.956   5.524   0.538  1.3296 -1.2178 -1.3327
 3359SOL    HW219467   8.069   5.569   0.646  0.5157 -2.1362 -0.0833
 3360SOL     OW19468   8.266   6.578   5.604  0.1031 -0.4962  0.4881
 3360SOL    HW119469   8.366   6.574   5.593  0.0267  0.0655 -0.4808
 3360SOL    HW219470   8.241   6.545   5.695  1.1070 -1.5529  0.4011
 3361SOL     OW19471   3.247   3.197   2.966  0.0350 -0.0103  0.0067
 3361SOL    HW119472   3.165   3.234   2.923 -0.2897 -0.6938  0.0281
 3361SOL    HW219473   3.238   3.202   3.066  0.0995  0.1018  0.0058
 3362SOL     OW19474   1.822   3.823   0.259 -0.0752  0.2623  0.4549
 3362SOL    HW119475   1.759   3.807   0.183 -0.2146  2.5203  0.0599
 3362SOL    HW219476   1.913   3.792   0.233 -0.7011 -1.6656  0.4770
 3365SOL     OW19477   3.143   4.467   3.072  0.3569  0.3541  0.1640
 3365SOL    HW119478   3.169   4.414   2.990  1.4325  1.1171  0.0057
 3365SOL    HW219479   3.074   4.416   3.123  2.2474 -1.8099  0.6619
 3366SOL     OW19480   9.974   2.027   2.654 -0.1425  0.2096  0.0656
 3366SOL    HW119481   9.914   1.966   2.704 -1.5026  0.4467 -1.2251
 3366SOL    HW219482   9.978   1.999   2.558 -0.9687  2.2392 -0.5974
 3367SOL     OW19483   0.324   0.160   0.659 -0.9093  0.1891 -0.1172
 3367SOL    HW119484   0.257   0.105   0.609 -0.4668  1.1315 -1.7572
 3367SOL    HW219485   0.399   0.186   0.599 -0.1546  0.9895  1.1358
 3368SOL     OW19486   7.503   0.612   5.882 -0.0020  0.0052  0.2345
 3368SOL    HW119487   7.587   0.656   5.850 -0.2900 -0.9473 -1.9547
 3368SOL    HW219488   7.434   0.682   5.899 -0.0023  0.5408 -1.8069
 3369SOL     OW19489   0.244   7.602   4.624  0.2885  0.4835  0.4295
 3369SOL    HW119490   0.237   7.545   4.705  0.1404  0.8239  0.6577
 3369SOL    HW219491   0.175   7.675   4.628 -1.0826 -0.6840 -0.9468
 3370SOL     OW19492   0.493   5.314   1.725  0.0647  0.3288 -0.2351
 3370SOL    HW119493   0.502   5.350   1.632 -2.6226  0.5173 -0.4557
 3370SOL    HW219494   0.564   5.245   1.741 -1.4065 -2.1358 -3.6256
 3371SOL     OW19495   2.240   7.024   5.314 -0.4260  0.0070 -0.5837
 3371SOL    HW119496   2.327   7.053   5.274  1.8865 -0.5796  3.7713
 3371SOL    HW219497   2.212   6.937   5.274  0.9356  0.1913 -2.0034
 3372SOL     OW19498   1.169   4.733   5.429  1.1043 -0.1447  0.2755
 3372SOL    HW119499   1.240   4.757   5.495 -0.6174  0.9193  1.7981
 3372SOL    HW219500   1.082   4.723   5.477 -0.3888  1.6315 -1.9770
 3376SOL     OW19501   1.457   3.682   3.928 -0.1147  0.3394 -0.2309
 3376SOL    HW119502   1.431   3.680   3.831 -1.9076  0.2434  0.2297
 3376SOL    HW219503   1.403   3.751   3.976  2.6669  2.2971  0.2204
 3377SOL     OW19504   2.346   7.535   0.218 -0.1864  0.0027  0.2628
 3377SOL    HW119505   2.377   7.446   0.185 -2.2020 -0.6719  0.1515
 3377SOL    HW219506   2.258   7.525   0.264 -0.0593  1.8183  0.9322
 3378SOL     OW19507   8.038   0.937   5.591  0.3503 -0.9458 -0.0941
 3378SOL    HW119508   8.090   0.883   5.525  0.6498  0.0353 -0.6807
 3378SOL    HW219509   7.988   1.009   5.542  0.7307 -0.0820  0.7696
 3379SOL     OW19510   0.430   3.866   5.374  0.3219 -0.3604 -0.0449
 3379SOL    HW119511   0.487   3.784   5.385 -0.3868 -0.9917 -1.0119
 3379SOL    HW219512   0.381   3.883   5.459  0.1271 -1.2093  0.0207
 3380SOL     OW19513   8.126   0.073   1.002  0.7246  0.4294  0.4375
 3380SOL    HW119514   8.206   0.016   1.022  0.7673  0.3928  0.1665
 3380SOL    HW219515   8.153   0.149   0.942  0.4745  0.1726 -0.0072
 3381SOL     OW19516   1.186   4.535   2.624  0.8176  0.3357 -0.3115
 3381SOL    HW119517   1.187   4.562   2.720  0.2380  0.0937 -0.2366
 3381SOL    HW219518   1.227   4.607   2.568  1.5121  0.3072  0.1617
 3382SOL     OW19519   0.435   1.608   0.820 -0.4267  0.4578  0.4545
 3382SOL    HW119520   0.360   1.642   0.764 -0.1220  0.5998  0.1274
 3382SOL    HW219521   0.448   1.510   0.803 -0.1139  0.5717  0.0151
 3383SOL     OW19522   9.499   1.077   5.468  0.1507  0.3561  0.1983
 3383SOL    HW119523   9.489   1.132   5.385 -1.0543 -0.3370 -0.1259
 3383SOL    HW219524   9.410   1.041   5.495  0.3682  1.3589  2.3533
 3384SOL     OW19525   7.267   9.327   3.567  0.5947  0.0049  0.6432
 3384SOL    HW119526   7.271   9.319   3.468  0.6906  0.0680  0.6420
 3384SOL    HW219527   7.258   9.424   3.592  1.7072  0.1041  0.7285
 3385SOL     OW19528   7.903   0.847   0.219 -0.8201  0.0902 -0.0009
 3385SOL    HW119529   7.908   0.880   0.125  0.0891  1.2197  0.4216
 3385SOL    HW219530   7.988   0.800   0.243 -0.4182  1.1579  0.7278
 3388SOL     OW19531   6.027   7.623   6.068  0.1332  1.3514 -0.4739
 3388SOL    HW119532   5.931   7.597   6.057  0.9146 -1.9423 -0.1438
 3388SOL    HW219533   6.050   7.625   6.166  0.6496  1.1483 -0.5890
 3389SOL     OW19534   3.575   3.687   3.812 -0.1945  0.3082  0.0627
 3389SOL    HW119535   3.589   3.589   3.824  1.2239  0.5085  0.1205
 3389SOL    HW219536   3.528   3.724   3.891 -3.2331 -0.7971 -1.1440
 3390SOL     OW19537   7.971   5.846   0.919 -0.0751  0.4890 -0.0794
 3390SOL    HW119538   8.049   5.798   0.959 -0.6799  0.7975  1.5253
 3390SOL    HW219539   7.952   5.810   0.828  1.5168 -0.0501 -0.2124
 3392SOL     OW19540   9.277   6.229   2.863  0.3633  0.2950  0.3451
 3392SOL    HW119541   9.230   6.313   2.837 -0.5879  0.1011  1.3914
 3392SOL    HW219542   9.333   6.197   2.786 -3.0810 -0.7751 -1.8341
 3393SOL     OW19543   8.491   7.187   4.530  0.2234 -0.3509  0.0063
 3393SOL    HW119544   8.398   7.191   4.567  0.3101  2.6323  0.0310
 3393SOL    HW219545   8.557   7.215   4.600  1.1859 -2.5979  0.0380
 3394SOL     OW19546   3.694   7.116   4.291  0.1394  0.2288 -0.6084
 3394SOL    HW119547   3.791   7.094   4.279 -0.2807 -1.4394 -0.9963
 3394SOL    HW219548   3.640   7.067   4.223 -1.0638  0.4701  0.1672
 3397SOL     OW19549   0.061   4.417   6.403  0.0425  0.4975 -0.6929
 3397SOL    HW119550  -0.009   4.349   6.422 -0.3593  0.4940 -2.1067
 3397SOL    HW219551   0.128   4.379   6.339 -0.3252  1.4955 -1.6938
 3399SOL     OW19552   3.087   0.924   4.415  0.2713  0.4653  0.4487
 3399SOL    HW119553   3.001   0.953   4.458 -0.4255 -1.0233  0.0976
 3399SOL    HW219554   3.076   0.832   4.378  2.0232  0.2720  0.3686
 3400SOL     OW19555   0.678   6.728   5.126 -0.9694 -0.5304  0.0684
 3400SOL    HW119556   0.683   6.650   5.189 -0.6848 -0.8448 -0.3380
 3400SOL    HW219557   0.586   6.736   5.089 -1.2051 -0.1886  0.7194
 3401SOL     OW19558   6.595   9.618   5.715  0.1698  0.2298  0.4203
 3401SOL    HW119559   6.584   9.532   5.664 -0.6405  0.2972  0.4854
 3401SOL    HW219560   6.610   9.597   5.812  0.1185  0.1612  0.4141
 3402SOL     OW19561   8.393   6.084   0.960  0.1297  0.0340 -0.1847
 3402SOL    HW119562   8.384   5.989   0.928 -0.4564  0.2675 -0.7318
 3402SOL    HW219563   8.463   6.089   1.030  1.7576 -0.4092 -1.7540
 3403SOL     OW19564   3.989   3.751   3.179 -0.4089 -0.0293  0.8615
 3403SOL    HW119565   3.895   3.721   3.200 -1.1431  1.6268  0.0052
 3403SOL    HW219566   4.047   3.670   3.167 -1.7822 -1.0831  1.1213
 3404SOL     OW19567   9.485   7.517   4.796  0.1668 -0.0649  0.1695
 3404SOL    HW119568   9.553   7.500   4.725 -1.1629  0.1626 -1.1734
 3404SOL    HW219569   9.411   7.451   4.787 -0.3451  0.4002  0.9305
 3406SOL     OW19570   7.484   8.150   6.072  0.2085  0.5828  0.6888
 3406SOL    HW119571   7.580   8.138   6.099  0.2480  1.1242  0.7899
 3406SOL    HW219572   7.480   8.176   5.976  0.0729 -1.2615  0.1784
 3407SOL     OW19573   1.790   2.156   4.613  0.0929 -0.6496 -0.1017
 3407SOL    HW119574   1.875   2.189   4.574  0.3895 -0.3130  0.8087
 3407SOL    HW219575   1.719   2.225   4.602  0.2048 -0.5098  0.0555
 3408SOL     OW19576   0.991   9.049   0.048 -0.4445  0.2615 -0.2562
 3408SOL    HW119577   1.068   8.986   0.045 -0.6876 -0.2210  2.4676
 3408SOL    HW219578   0.906   8.997   0.060 -0.9734  0.9454 -0.9217
 3409SOL     OW19579   2.509   0.855   5.024 -0.2534  0.3329  0.0448
 3409SOL    HW119580   2.523   0.808   5.111 -0.1900  0.4430  0.0942
 3409SOL    HW219581   2.451   0.800   4.965  2.3647 -1.2633 -1.1105
 3410SOL     OW19582   5.010   2.432   0.493  0.6371  0.0198  0.0770
 3410SOL    HW119583   5.025   2.433   0.394  0.6323 -1.3915  0.0561
 3410SOL    HW219584   4.982   2.523   0.523 -0.1467  0.2558 -1.3413
 3411SOL     OW19585   5.988   9.704   5.068 -1.0492 -0.1094  0.2799
 3411SOL    HW119586   6.029   9.613   5.061  2.1129  1.4533 -2.6415
 3411SOL    HW219587   5.899   9.703   5.023  0.0236 -1.1931 -1.8909
 3412SOL     OW19588   2.104   1.576   4.227 -0.1188 -0.2420 -0.6059
 3412SOL    HW119589   2.074   1.495   4.176 -0.1739  0.5253 -1.8261
 3412SOL    HW219590   2.087   1.658   4.172 -1.3786  0.7304  1.1832
 3413SOL     OW19591   6.904   1.585   5.527  0.0535  0.1193 -0.5348
 3413SOL    HW119592   6.945   1.618   5.442  0.0519 -0.4609 -0.7576
 3413SOL    HW219593   6.805   1.577   5.515 -0.0929  1.1386 -0.1184
 3415SOL     OW19594   0.931   8.001   2.312 -0.4245 -0.2925  0.1820
 3415SOL    HW119595   0.904   7.916   2.266  1.2401  0.0718 -1.5131
 3415SOL    HW219596   0.984   7.980   2.394 -0.2415 -0.8989 -0.0912
 3416SOL     OW19597   2.023   0.377   2.507  0.3985  0.1146 -0.2284
 3416SOL    HW119598   2.075   0.394   2.424  1.7897 -2.1103  0.1676
 3416SOL    HW219599   2.059   0.434   2.582  0.8355  0.1741 -0.4860
 3418SOL     OW19600   8.694   9.960   3.636 -0.0731  0.0509  0.8168
 3418SOL    HW119601   8.635   9.987   3.559  0.8286  0.6644  0.3233
 3418SOL    HW219602   8.642   9.904   3.700 -0.8847 -0.3338 -0.1649
 3419SOL     OW19603   1.200   4.228   0.961  0.6349  0.2995 -0.4878
 3419SOL    HW119604   1.177   4.224   1.058  0.3297 -2.3938 -0.6493
 3419SOL    HW219605   1.254   4.148   0.935 -0.5275  0.2146 -2.8517
 3420SOL     OW19606   9.231   6.205   4.167 -0.1720 -0.1046 -0.5667
 3420SOL    HW119607   9.326   6.191   4.192 -0.0522 -0.3992 -1.1666
 3420SOL    HW219608   9.193   6.281   4.219 -0.2920 -1.4672  1.4041
 3421SOL     OW19609   0.397   3.271   4.754  0.0522 -0.9478 -0.1572
 3421SOL    HW119610   0.312   3.322   4.769  0.4779 -0.6210  1.1717
 3421SOL    HW219611   0.437   3.298   4.666 -0.3511  0.1138 -0.0239
 3422SOL     OW19612   1.380   6.521   6.392 -0.6133 -0.0506 -0.1249
 3422SOL    HW119613   1.286   6.552   6.402 -0.0042  1.9812 -0.4928
 3422SOL    HW219614   1.427   6.578   6.325  1.3082 -0.0904  1.1481
 3423SOL     OW19615   9.154   1.396   4.560  0.2215  0.2859 -0.2297
 3423SOL    HW119616   9.196   1.445   4.484  1.0556  0.9727  0.6572
 3423SOL    HW219617   9.202   1.418   4.645 -2.2493  1.5167  0.9142
 3424SOL     OW19618   2.390   7.789   2.496 -0.4297 -0.0861  0.1821
 3424SOL    HW119619   2.386   7.701   2.544 -2.4625  0.5601  1.2381
 3424SOL    HW219620   2.356   7.776   2.402 -0.4930 -0.4727  0.2541
 3425SOL     OW19621   5.484   9.846   5.626 -0.0838  0.3204  0.0108
 3425SOL    HW119622   5.402   9.890   5.589 -0.9219 -1.7964 -0.7466
 3425SOL    HW219623   5.488   9.751   5.593  1.1646 -0.4606  2.3140
 3426SOL     OW19624   3.457   8.753   1.218 -0.2049 -0.0884  0.7947
 3426SOL    HW119625   3.399   8.711   1.288 -0.5198 -0.5082  0.2941
 3426SOL    HW219626   3.420   8.730   1.128  0.0391  0.6714  0.4994
 3428SOL     OW19627   6.041   8.750   5.888 -0.3180 -0.1838 -0.4569
 3428SOL    HW119628   6.052   8.847   5.865 -2.1201 -0.1196 -1.1157
 3428SOL    HW219629   6.125   8.701   5.867  0.3835  1.1220 -0.7365
 3429SOL     OW19630   8.920   2.825   6.304 -0.1912 -0.2828  0.1168
 3429SOL    HW119631   8.994   2.882   6.269 -0.5558 -0.1370 -0.4217
 3429SOL    HW219632   8.946   2.728   6.296  0.5519 -0.1875  1.3133
 3430SOL     OW19633   9.460   3.737   5.010 -0.2425  0.6588 -0.1393
 3430SOL    HW119634   9.469   3.666   5.081 -1.5839  1.1588  0.5501
 3430SOL    HW219635   9.520   3.715   4.933  0.8069 -0.1990  0.9093
 3431SOL     OW19636   8.213   2.477   1.948 -0.5076  0.2283 -0.1035
 3431SOL    HW119637   8.176   2.398   1.899  2.6792 -1.5320  0.1737
 3431SOL    HW219638   8.218   2.556   1.887 -1.4948 -0.4523 -1.0676
 3432SOL     OW19639   7.913   3.821   6.163  0.2269 -0.0107 -0.4845
 3432SOL    HW119640   7.854   3.750   6.201  0.5396 -0.2056 -0.3558
 3432SOL    HW219641   7.946   3.792   6.074  0.0071  0.1648 -0.6235
 3433SOL     OW19642   5.083   1.812   2.489 -0.2300 -0.6181  0.1330
 3433SOL    HW119643   5.064   1.815   2.587 -1.3834 -0.4850 -0.0947
 3433SOL    HW219644   5.177   1.845   2.473 -0.4529  0.5377  1.0759
 3434SOL     OW19645   6.207   1.138   0.113 -0.1606  0.1495 -0.1876
 3434SOL    HW119646   6.254   1.213   0.066  0.0523 -0.9858 -1.8132
 3434SOL    HW219647   6.185   1.066   0.048  1.6925 -2.2619  1.7562
 3435SOL     OW19648   1.227   4.951   4.645  0.0745 -0.1437 -0.3104
 3435SOL    HW119649   1.147   5.009   4.661  0.9115  1.4018 -1.5826
 3435SOL    HW219650   1.197   4.858   4.624 -1.3418  0.1378  0.4195
 3437SOL     OW19651   0.318   5.209   5.547 -0.2240  0.1865  0.0619
 3437SOL    HW119652   0.270   5.124   5.567 -0.3595  0.0963 -0.6576
 3437SOL    HW219653   0.350   5.209   5.452  0.9696  0.3523  0.4488
 3438SOL     OW19654   4.578   1.481   0.691  0.5118  0.1619  0.1268
 3438SOL    HW119655   4.627   1.399   0.661  0.4746  0.8563 -1.9089
 3438SOL    HW219656   4.643   1.550   0.722  0.5260 -0.7356  2.1239
 3439SOL     OW19657   8.112   4.492   0.693  0.4844  0.8829  0.1371
 3439SOL    HW119658   8.149   4.406   0.728  0.2717  0.1738 -1.3519
 3439SOL    HW219659   8.014   4.496   0.711  0.6161  1.1392  0.8298
 3440SOL     OW19660   4.803   6.355   2.263  0.6577 -0.1245 -0.9933
 3440SOL    HW119661   4.762   6.391   2.347  0.2989  1.1804 -1.7322
 3440SOL    HW219662   4.896   6.322   2.283  1.6530  2.7916 -0.6707
 3441SOL     OW19663   9.986   6.741   3.811 -0.0717  0.0274 -0.1784
 3441SOL    HW119664  10.040   6.679   3.755 -0.1966 -0.3382  0.1007
 3441SOL    HW219665   9.903   6.694   3.841  0.2553  0.0322  0.7602
 3443SOL     OW19666   6.929   7.529   3.895 -0.1591  0.2264  0.4424
 3443SOL    HW119667   6.851   7.586   3.869  0.4766  0.7081 -0.4272
 3443SOL    HW219668   6.915   7.493   3.987 -0.1696  2.4747  1.3368
 3444SOL     OW19669   0.822   3.429   6.097  0.3134 -0.5307 -0.2907
 3444SOL    HW119670   0.760   3.507   6.091 -0.3146 -0.8397  1.5887
 3444SOL    HW219671   0.880   3.439   6.178  0.6757 -1.6778 -0.3973
 3445SOL     OW19672   2.321   8.244   4.965 -0.3848 -0.3015 -0.0116
 3445SOL    HW119673   2.329   8.187   4.884  0.7757 -2.5207  1.6178
 3445SOL    HW219674   2.368   8.331   4.949 -0.7414 -0.4464 -1.9216
 3446SOL     OW19675   6.466   9.136   2.286 -0.0521  0.3022  0.0141
 3446SOL    HW119676   6.513   9.135   2.374 -1.1148  1.1893  0.6057
 3446SOL    HW219677   6.499   9.213   2.231  0.9494 -0.5247 -0.5724
 3447SOL     OW19678   8.021   4.309   4.879  0.9320  0.3774  0.4988
 3447SOL    HW119679   8.039   4.260   4.794  0.5361  1.2393 -0.0914
 3447SOL    HW219680   8.070   4.396   4.878  0.1908  0.8048  0.7426
 3449SOL     OW19681   9.297   4.944   2.510  0.0458 -0.1720 -0.2481
 3449SOL    HW119682   9.306   4.845   2.525  0.0348 -0.2141 -0.5216
 3449SOL    HW219683   9.296   4.991   2.599 -1.3073 -0.5294 -0.0731
 3450SOL     OW19684   3.041   7.961   2.633 -0.0102  0.3182 -0.3154
 3450SOL    HW119685   3.083   8.031   2.690  0.4821 -2.2412  2.6049
 3450SOL    HW219686   2.965   7.919   2.682 -2.5820  1.1650 -3.4095
 3451SOL     OW19687   6.553   0.895   1.507  0.6720  0.4640  0.7901
 3451SOL    HW119688   6.460   0.928   1.521  0.3517 -0.5620  1.1589
 3451SOL    HW219689   6.569   0.816   1.566  1.0441 -0.6986 -0.8209
 3452SOL     OW19690   9.354   1.229   4.775 -0.0750 -0.0665  0.3710
 3452SOL    HW119691   9.293   1.262   4.848 -0.9079 -0.8294  0.0206
 3452SOL    HW219692   9.301   1.180   4.707  0.3095  2.7747 -2.0771
 3453SOL     OW19693   2.540   4.914   2.410 -0.3438  0.2706  0.1511
 3453SOL    HW119694   2.491   4.879   2.330 -0.3576 -2.8458  1.4518
 3453SOL    HW219695   2.474   4.943   2.479 -0.3250  1.8897 -0.4863
 3454SOL     OW19696   5.835   8.088   5.609  0.2844 -0.1053 -0.1306
 3454SOL    HW119697   5.811   7.994   5.585  0.1778 -0.1625  0.1930
 3454SOL    HW219698   5.850   8.142   5.526 -0.4719 -0.2004 -0.3312
 3455SOL     OW19699   5.461   0.311   6.128  0.0518  0.2247  0.1275
 3455SOL    HW119700   5.409   0.379   6.077  1.0633  1.3070  0.4983
 3455SOL    HW219701   5.550   0.350   6.154  1.4092 -1.8641 -1.2494
 3456SOL     OW19702   3.233   5.428   1.966 -0.1461 -0.0755 -0.5958
 3456SOL    HW119703   3.153   5.389   2.010  0.0063  0.1935 -0.0714
 3456SOL    HW219704   3.307   5.361   1.964 -0.4927 -0.4277 -1.3678
 3457SOL     OW19705   0.310   2.427   1.683  0.2361 -0.7774  0.2305
 3457SOL    HW119706   0.358   2.419   1.771  0.1146 -0.1773  0.3575
 3457SOL    HW219707   0.375   2.410   1.609  0.7455  0.4112  0.3925
 3458SOL     OW19708   4.657   4.816   0.480 -0.6339 -0.4775  0.3301
 3458SOL    HW119709   4.662   4.751   0.404 -0.1106 -0.0883  0.0274
 3458SOL    HW219710   4.597   4.780   0.551 -2.8451  0.0989 -1.1883
 3459SOL     OW19711   0.083   5.850   0.459 -0.0982  0.3303  0.2971
 3459SOL    HW119712   0.052   5.855   0.364  0.5532 -0.2734  0.0549
 3459SOL    HW219713   0.119   5.759   0.479 -0.7281  0.2839  1.2821
 3461SOL     OW19714   2.868   4.931   5.334 -0.0179  0.5214  0.3846
 3461SOL    HW119715   2.964   4.908   5.317 -0.0512 -0.2348  1.1984
 3461SOL    HW219716   2.853   5.028   5.314  0.7393  0.4712 -0.4810
 3462SOL     OW19717   9.251   7.039   5.477 -0.0955  0.3282 -0.7288
 3462SOL    HW119718   9.190   7.054   5.555  0.5876 -1.4187  0.1684
 3462SOL    HW219719   9.206   6.978   5.412 -0.0293  0.5053 -0.9387
 3464SOL     OW19720   9.522   4.619   0.653  0.3961  0.1250  0.2184
 3464SOL    HW119721   9.487   4.569   0.732  0.6743  0.9741  0.8869
 3464SOL    HW219722   9.467   4.596   0.572 -2.2295  2.0075  1.4027
 3465SOL     OW19723   8.199   3.094   1.987 -0.5856  0.6986  0.1678
 3465SOL    HW119724   8.295   3.089   2.012 -0.7666 -0.3980  0.6749
 3465SOL    HW219725   8.151   3.157   2.048 -0.5532 -0.1481  1.0659
 3468SOL     OW19726   9.122   0.385   4.481  0.3910 -0.5597  0.4605
 3468SOL    HW119727   9.163   0.462   4.531 -0.7855  0.1326  0.3843
 3468SOL    HW219728   9.085   0.319   4.547 -0.2048 -0.1687  0.5250
 3469SOL     OW19729   3.840   3.238   0.509 -0.2764  0.5730 -0.2237
 3469SOL    HW119730   3.775   3.309   0.483 -0.9939  1.0062  2.5811
 3469SOL    HW219731   3.842   3.167   0.439 -3.0634  1.0162 -0.8172
 3470SOL     OW19732   9.250   1.189   1.227 -0.4107 -0.4663  0.0845
 3470SOL    HW119733   9.255   1.098   1.269  0.9993 -0.1839  0.5484
 3470SOL    HW219734   9.203   1.182   1.139 -0.2828 -1.6501  0.0988
 3471SOL     OW19735   8.660   7.713   6.020 -0.3516  0.1007 -0.5114
 3471SOL    HW119736   8.729   7.649   5.986  0.1562  0.5580 -0.3561
 3471SOL    HW219737   8.593   7.731   5.948 -1.0057 -1.2919 -0.2605
 3472SOL     OW19738   1.423   2.426   0.605  0.1693  0.2974  0.3711
 3472SOL    HW119739   1.411   2.432   0.506  0.6789 -1.0753  0.2182
 3472SOL    HW219740   1.344   2.378   0.644 -0.6435  1.9437  0.7871
 3474SOL     OW19741   0.290   4.097   5.276 -0.0250 -0.1680 -0.1415
 3474SOL    HW119742   0.342   4.017   5.307  1.2843  0.0899 -1.6067
 3474SOL    HW219743   0.306   4.173   5.339  0.1278 -0.5474  0.2806
 3475SOL     OW19744   9.803   1.254   2.476 -0.1241 -0.0315 -0.0420
 3475SOL    HW119745   9.818   1.156   2.485  1.8551  0.2616 -0.0106
 3475SOL    HW219746   9.807   1.297   2.566  0.3937  0.2720 -0.2134
 3477SOL     OW19747   9.349   9.817   3.312 -0.6208 -0.2139 -0.4469
 3477SOL    HW119748   9.281   9.772   3.370  0.3628 -0.4165  0.5725
 3477SOL    HW219749   9.357   9.768   3.225 -1.7280 -0.2268 -0.5383
 3478SOL     OW19750   2.251   0.462   3.027 -0.6257 -0.3665  0.0656
 3478SOL    HW119751   2.297   0.388   2.977  0.3257  0.1320  0.1972
 3478SOL    HW219752   2.164   0.483   2.983 -1.6338 -2.5971  0.8864
 3479SOL     OW19753   0.540   0.210   3.201 -0.2120  0.3016 -0.3127
 3479SOL    HW119754   0.573   0.165   3.117  2.9924  0.7961  0.5914
 3479SOL    HW219755   0.562   0.152   3.279 -1.2351  0.8447  0.3816
 3480SOL     OW19756   8.618   7.621   5.539 -0.3907  0.2147 -0.8341
 3480SOL    HW119757   8.580   7.540   5.495 -0.3817  0.0065 -0.4573
 3480SOL    HW219758   8.716   7.610   5.552 -0.9252 -1.1389  2.2869
 3482SOL     OW19759   2.478   7.748   1.269 -0.7528 -0.4170 -0.2368
 3482SOL    HW119760   2.545   7.694   1.321  1.1057 -0.0988 -2.2519
 3482SOL    HW219761   2.448   7.825   1.325  1.0972 -0.1590  0.4528
 3483SOL     OW19762   2.371   7.773   4.457 -0.1932 -0.2631  0.1341
 3483SOL    HW119763   2.292   7.713   4.474  0.2044 -0.7462  0.2905
 3483SOL    HW219764   2.339   7.858   4.415 -0.9084 -0.0462  1.0909
 3484SOL     OW19765   1.087   2.545   5.676  0.1045  0.5551 -0.7657
 3484SOL    HW119766   1.035   2.623   5.641 -2.2581  0.4475  2.2889
 3484SOL    HW219767   1.036   2.461   5.661  1.6749 -0.1885 -2.1219
 3486SOL     OW19768   3.394   7.360   5.950 -0.4799  0.3694 -0.0534
 3486SOL    HW119769   3.376   7.392   5.856  0.4268 -0.0102 -0.3624
 3486SOL    HW219770   3.491   7.336   5.958 -1.1552 -2.3499  0.1658
 3487SOL     OW19771   6.834   8.146   4.836  0.0951  0.4006  0.2853
 3487SOL    HW119772   6.742   8.107   4.845  0.6503 -0.4624  2.6153
 3487SOL    HW219773   6.893   8.111   4.910  2.5208  0.3091 -1.6261
 3488SOL     OW19774   1.494   7.774   5.304  0.4599 -0.2560 -0.8211
 3488SOL    HW119775   1.415   7.736   5.353 -0.0253 -1.0755 -2.2327
 3488SOL    HW219776   1.537   7.844   5.362 -1.7356  0.7468 -0.3116
 3490SOL     OW19777   0.331   8.334   5.635  0.1971 -0.3711 -0.0518
 3490SOL    HW119778   0.254   8.304   5.691 -0.6968 -0.0638 -1.1004
 3490SOL    HW219779   0.329   8.434   5.627  1.8751 -0.1828  1.5791
 3491SOL     OW19780   1.159   5.355   0.970  0.1573  0.1496 -0.0907
 3491SOL    HW119781   1.229   5.369   0.899  0.2166  0.9300  0.1115
 3491SOL    HW219782   1.169   5.426   1.040 -1.5601  0.9542 -0.6470
 3492SOL     OW19783   0.764   6.836   5.611  0.4950  0.0879  0.0845
 3492SOL    HW119784   0.841   6.887   5.573  0.8655 -0.2349  0.3989
 3492SOL    HW219785   0.796   6.748   5.645  0.0345  0.0631  0.4579
 3493SOL     OW19786   7.518   0.861   5.313 -0.3475  0.4979  0.6633
 3493SOL    HW119787   7.419   0.879   5.317 -0.8310 -2.0220  0.9927
 3493SOL    HW219788   7.560   0.892   5.398 -1.4875 -1.6764  2.0817
 3494SOL     OW19789   6.965   8.312   6.312  0.7543  0.2600  0.5872
 3494SOL    HW119790   6.969   8.260   6.397 -0.3142 -1.4016 -0.3652
 3494SOL    HW219791   6.877   8.358   6.305 -0.5870 -2.4883 -1.2597
 3495SOL     OW19792   8.542   9.085   3.273  0.1077 -0.3592  0.1582
 3495SOL    HW119793   8.614   9.117   3.211 -0.3196 -1.2887 -0.8216
 3495SOL    HW219794   8.466   9.150   3.271  0.1488 -0.3189 -0.1840
 3496SOL     OW19795   0.601   6.756   4.227 -0.0840 -0.1720  0.3446
 3496SOL    HW119796   0.531   6.710   4.282 -0.7082 -1.0743 -1.1924
 3496SOL    HW219797   0.620   6.702   4.145  3.2813 -0.5640  1.2962
 3497SOL     OW19798   2.549   1.882   0.562 -0.6435 -0.2697 -0.1905
 3497SOL    HW119799   2.450   1.869   0.561 -0.7578  0.5673  0.0991
 3497SOL    HW219800   2.583   1.891   0.468 -0.8187 -0.7217 -0.2966
 3498SOL     OW19801   1.007   8.740   6.309 -0.2703  0.2056 -0.2214
 3498SOL    HW119802   1.032   8.832   6.341 -0.0600  0.5399 -1.3396
 3498SOL    HW219803   0.987   8.743   6.211  0.0816 -1.0157 -0.3312
 3499SOL     OW19804   5.850   9.100   2.016  0.8307 -0.2004 -0.2311
 3499SOL    HW119805   5.860   9.105   1.917  0.5683 -0.1779 -0.2560
 3499SOL    HW219806   5.846   9.193   2.053 -0.0222 -0.2077 -0.2949
 3500SOL     OW19807   1.720   3.255   5.598 -0.3751 -0.3540  0.0551
 3500SOL    HW119808   1.776   3.196   5.539 -0.7448 -1.0694  0.4191
 3500SOL    HW219809   1.702   3.209   5.685 -0.3698  0.4401  0.4839
 3501SOL     OW19810   8.379   1.451   1.951 -0.5332  0.6810 -0.0531
 3501SOL    HW119811   8.346   1.545   1.944  1.6203  1.5263  0.6968
 3501SOL    HW219812   8.429   1.439   2.037  2.0899 -0.1909 -1.6459
 3502SOL     OW19813   1.403   4.401   5.565  0.0982 -0.1778 -0.5825
 3502SOL    HW119814   1.446   4.441   5.484 -1.0845 -0.8335 -1.5541
 3502SOL    HW219815   1.375   4.474   5.628  0.5490  0.3623 -1.0098
 3503SOL     OW19816   6.439   1.290   1.209 -0.2376 -0.0688 -0.0974
 3503SOL    HW119817   6.432   1.202   1.164 -0.5232  1.4184 -3.0557
 3503SOL    HW219818   6.432   1.363   1.142  3.7112  2.2012  1.7909
 3504SOL     OW19819   9.084   7.218   0.501 -1.0741  0.3926  0.4527
 3504SOL    HW119820   9.134   7.214   0.587 -0.8329  2.0623  0.3940
 3504SOL    HW219821   8.995   7.172   0.512 -0.1368 -1.3288  0.9443
 3507SOL     OW19822   3.101   5.615   1.755  0.0244 -0.7211 -0.1687
 3507SOL    HW119823   3.148   5.578   1.835  0.8612 -1.2407 -0.8983
 3507SOL    HW219824   3.002   5.607   1.768  0.1676 -1.3398  0.5578
 3509SOL     OW19825   0.987   1.882   4.730 -0.0426 -0.3007  0.7927
 3509SOL    HW119826   1.017   1.916   4.819  0.1523  2.0965 -0.1473
 3509SOL    HW219827   1.061   1.831   4.687  0.9966  1.3710  0.5905
 3511SOL     OW19828   1.356   8.834   1.967  0.2630 -0.2291 -0.0996
 3511SOL    HW119829   1.294   8.913   1.973  1.5492  0.7255  1.2613
 3511SOL    HW219830   1.346   8.778   2.050  0.1622 -0.8790 -0.5494
 3513SOL     OW19831   3.226   2.736   1.661  0.3858  0.0130 -0.2818
 3513SOL    HW119832   3.165   2.776   1.729  0.0926  0.2958 -0.7084
 3513SOL    HW219833   3.260   2.648   1.694 -1.1385 -0.6817 -0.5117
 3514SOL     OW19834   3.675   3.409   5.568 -0.2467  0.6424  0.3502
 3514SOL    HW119835   3.644   3.436   5.659  4.1170 -1.3232  2.5503
 3514SOL    HW219836   3.722   3.486   5.524 -0.3439  0.9095  0.7168
 3516SOL     OW19837   7.938   6.112   4.856 -0.2317  0.4871 -0.0682
 3516SOL    HW119838   7.937   6.140   4.760  1.5499 -0.2065 -0.3051
 3516SOL    HW219839   7.963   6.190   4.913 -0.8738  0.7887 -0.1859
 3517SOL     OW19840   7.811   8.315   5.270  0.1864 -0.0769 -0.0509
 3517SOL    HW119841   7.832   8.270   5.357 -1.0132  1.5755  1.1198
 3517SOL    HW219842   7.735   8.267   5.226 -1.1078  0.7667  1.2054
 3518SOL     OW19843   7.494   9.020   5.543 -0.4599  0.4588 -0.8453
 3518SOL    HW119844   7.557   8.947   5.516 -1.6900 -0.7950 -0.3877
 3518SOL    HW219845   7.468   9.074   5.463  0.9884  0.8392 -1.0737
 3519SOL     OW19846   6.275   1.627   3.107  0.5396  0.3388 -0.2961
 3519SOL    HW119847   6.367   1.664   3.112  0.4969  0.3765  0.1669
 3519SOL    HW219848   6.230   1.636   3.195 -0.1381  0.9105 -0.6918
 3520SOL     OW19849   3.296   3.159   4.001 -0.3519 -0.6705 -0.0810
 3520SOL    HW119850   3.370   3.094   4.020 -0.6965 -1.0826 -0.1469
 3520SOL    HW219851   3.223   3.112   3.951  0.8531  0.5367 -3.0840
 3521SOL     OW19852   9.293   6.650   4.098 -0.0080 -0.0019 -0.4386
 3521SOL    HW119853   9.231   6.723   4.068  1.4253  1.3528 -0.1347
 3521SOL    HW219854   9.335   6.675   4.185 -0.3536 -1.7111  0.2522
 3523SOL     OW19855   5.011   4.153   0.138 -0.2914 -0.4857 -0.7349
 3523SOL    HW119856   5.074   4.188   0.070 -0.2582 -1.2050 -1.0761
 3523SOL    HW219857   4.959   4.229   0.178 -0.6310 -0.1140 -1.8764
 3524SOL     OW19858   7.839   3.153   2.511  0.3659 -0.4932 -0.4022
 3524SOL    HW119859   7.858   3.069   2.561  0.7621 -0.3605 -0.3285
 3524SOL    HW219860   7.745   3.182   2.528  0.0176 -1.2890 -0.9687
 3527SOL     OW19861   1.889   0.722   2.599 -0.5466  0.5734 -0.1684
 3527SOL    HW119862   1.940   0.728   2.513  1.0922  0.8769  0.7819
 3527SOL    HW219863   1.799   0.763   2.588 -0.4464  0.3639 -1.8101
 3528SOL     OW19864   3.602   1.075   3.797 -0.2783 -0.0370  0.3550
 3528SOL    HW119865   3.635   0.986   3.826 -1.0146 -0.8333 -1.1805
 3528SOL    HW219866   3.669   1.145   3.821  1.1723 -1.2472 -0.1159
 3529SOL     OW19867   0.234   3.372   4.404 -0.2687  0.0285  1.0273
 3529SOL    HW119868   0.271   3.426   4.480  1.3435 -0.8353  0.8563
 3529SOL    HW219869   0.213   3.280   4.435 -1.0987  0.1331  0.8028
 3530SOL     OW19870   1.488   7.829   1.992 -0.7876  0.0676  0.1172
 3530SOL    HW119871   1.567   7.774   1.964 -1.2640 -0.2547 -0.6338
 3530SOL    HW219872   1.485   7.913   1.938  0.0466  0.9289  1.3990
 3531SOL     OW19873   3.599   2.678   4.806  0.0513 -0.3751  0.1003
 3531SOL    HW119874   3.661   2.747   4.843 -0.5011  0.3968 -0.4037
 3531SOL    HW219875   3.651   2.599   4.775  0.8448  0.4786 -0.7892
 3532SOL     OW19876   2.807   9.440   2.624  1.1189 -0.1643 -0.2062
 3532SOL    HW119877   2.781   9.481   2.536  2.6249  1.2179 -0.0384
 3532SOL    HW219878   2.861   9.358   2.608 -0.3957 -1.1182 -0.5509
 3533SOL     OW19879   2.023   2.641   2.678  0.9095 -0.5487 -0.4350
 3533SOL    HW119880   2.078   2.708   2.728 -1.2980  0.9948  0.0001
 3533SOL    HW219881   2.028   2.660   2.580 -0.4189  0.8240 -0.2468
 3534SOL     OW19882   0.173   9.211   4.262  0.5613  0.3015  0.4983
 3534SOL    HW119883   0.176   9.260   4.349  0.8474  0.8195  0.1991
 3534SOL    HW219884   0.078   9.187   4.241  0.3398  1.2684  0.3497
 3536SOL     OW19885   1.384   6.556   2.539  0.0088 -0.2392 -0.0413
 3536SOL    HW119886   1.337   6.615   2.604  0.6756  0.6304 -0.3349
 3536SOL    HW219887   1.395   6.464   2.578  1.0139  0.4572  1.3462
 3537SOL     OW19888   8.869   2.335   1.146  0.0444  0.3902 -0.1607
 3537SOL    HW119889   8.949   2.380   1.107  0.1813  0.1124 -0.1978
 3537SOL    HW219890   8.837   2.387   1.226  0.4636  0.3158  0.0591
 3538SOL     OW19891   9.667   3.049   1.746  0.2285  0.3043  0.7989
 3538SOL    HW119892   9.715   3.103   1.677 -0.4642  1.0064  0.8711
 3538SOL    HW219893   9.596   2.994   1.702 -0.7816  1.3981  1.0690
 3539SOL     OW19894   2.727   7.851   3.876 -0.0101  0.4560  0.5277
 3539SOL    HW119895   2.799   7.920   3.886 -0.0768  0.7251 -0.7258
 3539SOL    HW219896   2.637   7.895   3.885 -0.0567  0.5850 -0.4894
 3540SOL     OW19897   1.078   3.228   0.080 -0.0942 -0.9646  0.1327
 3540SOL    HW119898   1.071   3.135   0.046  0.2357 -0.8878 -0.1497
 3540SOL    HW219899   1.026   3.290   0.020 -1.2133 -1.1122  0.9233
 3541SOL     OW19900   3.949   6.250   3.865  0.0487  0.0135 -0.1933
 3541SOL    HW119901   3.944   6.338   3.817  1.4264 -0.8561 -1.9908
 3541SOL    HW219902   3.980   6.179   3.802  0.0837 -1.5474  1.5267
 3542SOL     OW19903   7.365   2.951   0.796 -0.6285 -0.1711  0.4173
 3542SOL    HW119904   7.290   2.902   0.840  0.0783 -1.1699  0.5162
 3542SOL    HW219905   7.402   2.896   0.721 -0.2573  0.4899  0.1096
 3543SOL     OW19906   1.745   8.086   2.904  0.3293  0.0269  0.1810
 3543SOL    HW119907   1.653   8.119   2.921 -0.0020 -1.2567  0.9459
 3543SOL    HW219908   1.785   8.051   2.989  1.2555 -0.0604 -0.2798
 3545SOL     OW19909   1.290   8.528   2.939  0.3287 -0.2057  0.5115
 3545SOL    HW119910   1.217   8.513   2.872 -0.1588 -0.3599  1.0825
 3545SOL    HW219911   1.379   8.519   2.893 -0.0090  0.9634 -0.3882
 3546SOL     OW19912   8.061   0.120   4.619  0.0233 -0.0901  0.8212
 3546SOL    HW119913   8.023   0.091   4.706 -0.6318 -1.5444  0.0749
 3546SOL    HW219914   8.066   0.042   4.557  1.2275  0.7575 -0.1817
 3547SOL     OW19915   1.344   5.708   4.884  0.0295  0.1486 -0.4544
 3547SOL    HW119916   1.358   5.797   4.841  1.8661  0.0259 -0.1822
 3547SOL    HW219917   1.413   5.644   4.849 -1.7845 -1.4001 -1.2826
 3548SOL     OW19918   1.633   6.443   5.401  0.0260  0.1807  0.2019
 3548SOL    HW119919   1.613   6.361   5.348  0.8057 -0.7851  1.3798
 3548SOL    HW219920   1.552   6.501   5.405 -0.6985 -0.7995 -0.1643
 3549SOL     OW19921   3.278   6.757   2.392 -0.0575 -0.2054 -0.0124
 3549SOL    HW119922   3.344   6.735   2.320  0.4429 -1.3721  0.8037
 3549SOL    HW219923   3.185   6.740   2.357  0.1232  0.3423 -0.7725
 3550SOL     OW19924   0.489   8.619   6.358 -0.1109  0.2983 -0.2191
 3550SOL    HW119925   0.510   8.527   6.389 -0.3992  0.3007 -0.0129
 3550SOL    HW219926   0.475   8.618   6.259 -2.9822 -0.4409  0.1456
 3551SOL     OW19927   9.379   0.421   0.956  0.5836 -0.1898  0.6075
 3551SOL    HW119928   9.427   0.350   1.009  1.7519 -0.8621 -1.3032
 3551SOL    HW219929   9.338   0.380   0.875 -1.0046  0.8751  0.8645
 3555SOL     OW19930   4.758   7.399   5.512  0.4272  0.2661  0.4079
 3555SOL    HW119931   4.710   7.325   5.559 -0.1436  0.8379  0.7400
 3555SOL    HW219932   4.823   7.442   5.574  0.9015 -0.0845  0.1560
 3556SOL     OW19933   8.697   1.959   5.540  0.2030 -0.3243 -0.2591
 3556SOL    HW119934   8.659   1.875   5.577 -1.1616 -0.3969 -1.7537
 3556SOL    HW219935   8.783   1.939   5.493  0.1608 -0.8069 -0.1303
 3557SOL     OW19936   4.556   2.705   0.474 -0.0372 -0.1502  0.1123
 3557SOL    HW119937   4.546   2.605   0.470  0.2380 -0.2432  1.4434
 3557SOL    HW219938   4.611   2.729   0.554 -1.1442  1.1386  0.4961
 3558SOL     OW19939   5.054   2.019   5.242  0.1758  0.0316 -0.3045
 3558SOL    HW119940   5.015   2.074   5.316 -0.1442 -0.6033  0.0078
 3558SOL    HW219941   5.005   1.932   5.237  1.2991 -0.6211 -0.1559
 3559SOL     OW19942   4.118   0.786   0.433  0.1128  0.4943 -0.5113
 3559SOL    HW119943   4.161   0.731   0.362  0.3241  0.0994 -0.0814
 3559SOL    HW219944   4.033   0.827   0.398  0.1683  0.2261 -0.9546
 3560SOL     OW19945   4.455   6.392   0.823 -0.4833 -0.5644 -0.0859
 3560SOL    HW119946   4.538   6.401   0.767  0.2846  0.1070  1.1365
 3560SOL    HW219947   4.466   6.315   0.886 -0.8127 -0.4999  0.0488
 3564SOL     OW19948   1.658   8.894   5.756 -0.1486 -0.0091  0.2677
 3564SOL    HW119949   1.622   8.930   5.843 -0.0412  0.1639  0.2412
 3564SOL    HW219950   1.642   8.961   5.684 -2.4316 -1.1602 -0.3496
 3565SOL     OW19951   2.338   8.779   1.498  0.1220 -0.2736  0.0484
 3565SOL    HW119952   2.372   8.686   1.507 -0.1098 -0.2712  0.9580
 3565SOL    HW219953   2.261   8.793   1.560  1.0548  0.9439  0.9537
 3566SOL     OW19954   7.609   1.741   5.786 -0.6824  0.0121  0.3524
 3566SOL    HW119955   7.677   1.749   5.714 -1.2203 -2.0011 -0.3813
 3566SOL    HW219956   7.520   1.717   5.747 -2.1099  3.5623  1.1817
 3567SOL     OW19957   3.654   2.028   5.758  0.4731 -0.2657 -0.4703
 3567SOL    HW119958   3.641   2.127   5.758  0.5840 -0.2318  1.1996
 3567SOL    HW219959   3.566   1.982   5.744 -0.1390  0.0622  1.9993
 3568SOL     OW19960   2.669   7.444   1.681  0.1936 -0.2802 -0.0933
 3568SOL    HW119961   2.647   7.541   1.673  0.2297 -0.3240 -0.7879
 3568SOL    HW219962   2.585   7.390   1.677  0.4094 -0.4684 -3.0959
 3569SOL     OW19963   1.733   6.730   6.012 -0.1365  0.4070  0.1661
 3569SOL    HW119964   1.742   6.749   6.110 -0.7091  0.8371  0.1419
 3569SOL    HW219965   1.818   6.755   5.966  0.4132 -0.5253  0.6580
 3570SOL     OW19966   6.265   0.187   1.439  0.0248  0.0077  0.4165
 3570SOL    HW119967   6.222   0.141   1.361  1.3249 -0.6195  0.0627
 3570SOL    HW219968   6.304   0.119   1.501 -0.5869  0.5241  1.3805
 3571SOL     OW19969   9.184   4.572   3.154 -0.7264 -0.1415 -0.3318
 3571SOL    HW119970   9.171   4.493   3.213 -0.9426  0.4904  0.4754
 3571SOL    HW219971   9.108   4.577   3.089 -0.6398 -0.6701 -0.4786
 3572SOL     OW19972   0.328   8.491   4.331  0.4436 -0.4904  0.8287
 3572SOL    HW119973   0.420   8.528   4.328  0.3298 -0.2766 -0.2033
 3572SOL    HW219974   0.327   8.399   4.291  0.2226 -0.5140  0.8848
 3575SOL     OW19975   1.612   7.612   4.774 -0.1161 -0.1178  0.2479
 3575SOL    HW119976   1.662   7.562   4.704 -1.5181  1.3836 -1.9245
 3575SOL    HW219977   1.649   7.705   4.783 -1.4441  0.4897 -0.2694
 3576SOL     OW19978   2.935   2.341   2.338 -0.0437  0.0057  0.7585
 3576SOL    HW119979   3.034   2.336   2.355  0.1335  0.3884 -0.1037
 3576SOL    HW219980   2.888   2.375   2.419  0.3391 -1.8544  1.7848
 3577SOL     OW19981   2.669   5.434   6.103 -0.0999  0.3589 -0.1740
 3577SOL    HW119982   2.673   5.444   6.203  2.3410 -1.8103  0.0201
 3577SOL    HW219983   2.598   5.493   6.066 -1.6806  0.5134  2.9494
 3578SOL     OW19984   9.267   3.516   0.663 -0.2130  0.0956  0.3804
 3578SOL    HW119985   9.325   3.597   0.678 -1.3060  1.1456 -0.9448
 3578SOL    HW219986   9.322   3.445   0.618  0.3988  0.6044  0.3048
 3579SOL     OW19987   9.948   3.574   0.996  0.8680 -0.2848  0.2121
 3579SOL    HW119988   9.900   3.505   1.050  3.9173 -1.4619  1.5445
 3579SOL    HW219989  10.042   3.543   0.978  0.9107  1.5254 -3.0632
 3580SOL     OW19990   6.114   2.347   5.511  0.6769 -0.3550  0.0310
 3580SOL    HW119991   6.019   2.337   5.483  1.1256  1.9999 -2.5862
 3580SOL    HW219992   6.174   2.315   5.437  1.8818  2.4118 -0.2514
 3581SOL     OW19993   6.923   8.882   5.189  0.3482 -0.4046  0.0098
 3581SOL    HW119994   7.012   8.928   5.181 -0.0558  0.5098  0.7319
 3581SOL    HW219995   6.874   8.918   5.268 -1.2374  0.0838 -1.1812
 3582SOL     OW19996   4.611   4.820   1.527 -0.7052 -0.2666  0.0673
 3582SOL    HW119997   4.543   4.893   1.524  1.2757  1.5954 -1.0473
 3582SOL    HW219998   4.596   4.765   1.609 -3.3204  0.2932  0.0281
 3584SOL     OW19999   0.297   7.633   2.838 -0.0623 -0.7605  0.0568
 3584SOL    HW120000   0.274   7.550   2.786 -0.5593 -1.0952  0.8085
 3584SOL    HW220001   0.244   7.635   2.922  0.7614 -0.2272  0.5681
 3585SOL     OW20002   7.814   8.126   5.546 -0.0395 -0.4862 -0.1088
 3585SOL    HW120003   7.742   8.081   5.599  0.1144 -0.7703 -0.1345
 3585SOL    HW220004   7.882   8.058   5.520  0.4968 -0.1308  0.3483
 3586SOL     OW20005   8.424   3.389   4.538  0.4218  0.4715 -0.0982
 3586SOL    HW120006   8.362   3.311   4.545  1.5464 -0.3452  1.1403
 3586SOL    HW220007   8.372   3.472   4.522 -0.9472 -0.2773  0.4000
 3587SOL     OW20008   4.848   1.401   3.049  0.0821 -0.0523 -0.3522
 3587SOL    HW120009   4.847   1.320   3.108  1.0092 -0.1208 -0.4221
 3587SOL    HW220010   4.937   1.409   3.004 -0.2447  0.6141 -0.8940
 3588SOL     OW20011   2.714   8.959   4.078  0.2289 -0.3766 -0.3418
 3588SOL    HW120012   2.731   8.865   4.046  0.1043 -1.1444  1.7407
 3588SOL    HW220013   2.723   8.962   4.178 -0.7459  1.6353 -0.2908
 3590SOL     OW20014   1.878   3.832   6.336 -0.0181 -0.0159 -0.0821
 3590SOL    HW120015   1.898   3.766   6.408  2.3504  1.6853  0.8785
 3590SOL    HW220016   1.927   3.807   6.252 -0.2051 -0.1966 -0.1394
 3591SOL     OW20017   9.381   6.128   2.644 -0.6631  0.0672 -0.0566
 3591SOL    HW120018   9.425   6.135   2.555  1.2651  1.0363  0.9336
 3591SOL    HW220019   9.386   6.033   2.676 -3.2897 -0.7309 -1.9003
 3592SOL     OW20020   3.331   3.588   0.801 -0.0289  0.2228  0.2399
 3592SOL    HW120021   3.311   3.522   0.728  2.1211  1.0742 -1.1995
 3592SOL    HW220022   3.264   3.579   0.874 -0.8015 -2.3639 -0.7175
 3593SOL     OW20023   7.945   0.615   1.557 -0.4547  0.0137  0.0270
 3593SOL    HW120024   8.022   0.675   1.536 -0.6346  0.7284  1.3104
 3593SOL    HW220025   7.947   0.535   1.498  0.2108  0.9343 -1.2237
 3594SOL     OW20026   6.157   4.139   0.753 -0.1378  0.2997  0.2649
 3594SOL    HW120027   6.124   4.091   0.672 -0.7226  0.4632  0.4079
 3594SOL    HW220028   6.095   4.214   0.776  0.0731  0.3156  0.8072
 3595SOL     OW20029   7.914   8.683   3.519 -0.3190  0.4999 -0.1720
 3595SOL    HW120030   7.964   8.641   3.595 -0.2744  0.6042 -0.1433
 3595SOL    HW220031   7.947   8.646   3.433 -0.6293  0.1066 -0.1222
 3596SOL     OW20032   1.410   5.996   5.177 -0.3861 -0.1579  0.0936
 3596SOL    HW120033   1.358   5.911   5.182 -0.5585 -0.1581 -1.4727
 3596SOL    HW220034   1.407   6.032   5.083 -0.8229  1.9017  0.8740
 3597SOL     OW20035   9.207   3.384   5.419 -0.2273  0.2758  0.3419
 3597SOL    HW120036   9.183   3.323   5.495 -1.1966  0.9570  0.5942
 3597SOL    HW220037   9.286   3.346   5.370 -0.8809 -1.2343  0.4194
 3599SOL     OW20038   9.079   4.610   5.297 -0.0877  0.2810  0.3801
 3599SOL    HW120039   9.162   4.616   5.242 -0.4952 -0.8073 -0.3786
 3599SOL    HW220040   9.087   4.669   5.377  0.9665  1.0206 -0.2695
 3600SOL     OW20041   8.851   9.038   5.722 -0.0848 -0.0882 -0.2904
 3600SOL    HW120042   8.925   9.082   5.673  1.6150 -0.6042  1.7373
 3600SOL    HW220043   8.802   9.105   5.778  0.3980 -0.1657  0.2306
 3601SOL     OW20044   4.012   1.403   3.269  0.0834 -0.4713 -0.0813
 3601SOL    HW120045   4.081   1.360   3.211  0.7785  0.7901 -0.2083
 3601SOL    HW220046   3.925   1.408   3.220 -0.1375 -2.1387  0.1092
 3602SOL     OW20047   9.238   3.981   2.206 -0.1590  0.2680 -0.6629
 3602SOL    HW120048   9.139   3.986   2.189 -0.0761 -1.7745 -1.9119
 3602SOL    HW220049   9.254   3.946   2.298 -0.6025  1.3960 -0.1535
 3603SOL     OW20050   3.409   7.894   3.410  0.5125  0.3888 -0.7366
 3603SOL    HW120051   3.494   7.894   3.463  0.1060 -1.9477 -0.0230
 3603SOL    HW220052   3.404   7.978   3.356  0.8851  2.8755  2.9454
 3604SOL     OW20053   0.938   7.156   3.048 -0.2156  0.3345 -0.3869
 3604SOL    HW120054   1.031   7.121   3.037 -0.6674 -0.3872 -2.1092
 3604SOL    HW220055   0.923   7.232   2.985 -0.2438  1.5958  1.1303
 3605SOL     OW20056   3.426   1.745   4.821  0.2438 -0.0370 -0.5318
 3605SOL    HW120057   3.327   1.755   4.831 -0.0652 -1.9859 -1.4042
 3605SOL    HW220058   3.463   1.694   4.898  0.6121  0.8909 -0.0889
 3606SOL     OW20059   6.282   3.276   0.735 -0.1247 -0.3028  0.3115
 3606SOL    HW120060   6.298   3.273   0.637 -0.9255 -0.7861  0.1932
 3606SOL    HW220061   6.302   3.368   0.770  1.8113 -0.5890 -0.0071
 3609SOL     OW20062   7.839   9.387   4.604 -0.1416 -0.5201  0.0734
 3609SOL    HW120063   7.872   9.419   4.516 -1.0000  0.2056  0.0117
 3609SOL    HW220064   7.758   9.330   4.590 -1.6601  1.4778  0.5404
 3610SOL     OW20065   2.843   9.419   1.568 -0.2337 -0.1008  0.2109
 3610SOL    HW120066   2.744   9.423   1.586 -0.1896 -1.8418  0.9130
 3610SOL    HW220067   2.871   9.324   1.557  0.8513  0.5539 -3.0360
 3611SOL     OW20068   1.531   4.041   5.010  0.3484 -0.6241 -0.5024
 3611SOL    HW120069   1.451   3.981   5.008 -0.0707 -0.0621 -0.7779
 3611SOL    HW220070   1.502   4.134   5.032  0.8175 -0.2468 -1.4780
 3613SOL     OW20071   1.889   6.639   3.275 -0.0706 -0.3141  0.2852
 3613SOL    HW120072   1.916   6.647   3.179  1.4983  0.5512  0.7716
 3613SOL    HW220073   1.925   6.717   3.326 -0.1826 -1.1925  1.7414
 3614SOL     OW20074   0.035   6.136   2.894  0.2067 -0.4358  0.0007
 3614SOL    HW120075   0.068   6.047   2.860  1.0826  0.0243 -0.3627
 3614SOL    HW220076  -0.024   6.178   2.825 -1.6058 -1.5002  0.8675
 3615SOL     OW20077   1.835   9.633   2.271  0.3852  0.0253 -0.0713
 3615SOL    HW120078   1.914   9.661   2.327  0.7833  0.0405 -0.6303
 3615SOL    HW220079   1.752   9.674   2.308  0.7335  0.5537  0.1428
 3617SOL     OW20080   2.445   9.232   6.160  0.1328 -0.5715 -0.0003
 3617SOL    HW120081   2.422   9.148   6.111  0.0727 -1.1546  1.0017
 3617SOL    HW220082   2.543   9.237   6.175  0.2505  0.0462 -0.9557
 3618SOL     OW20083   1.828   2.350   3.019 -0.3678  0.6129  0.3913
 3618SOL    HW120084   1.793   2.421   3.081 -0.4318  1.5685 -0.7027
 3618SOL    HW220085   1.908   2.306   3.059  0.0808  1.7850  0.8004
 3619SOL     OW20086   0.963   2.228   0.247  0.0221  0.0023  0.2981
 3619SOL    HW120087   0.911   2.290   0.306 -1.2690  1.6757 -2.5316
 3619SOL    HW220088   0.900   2.162   0.205  0.9266 -1.1589  0.7572
 3621SOL     OW20089   2.385   4.429   0.211  0.1932  0.3169  0.1438
 3621SOL    HW120090   2.440   4.357   0.170  0.3996  0.6596 -0.1891
 3621SOL    HW220091   2.366   4.407   0.307 -0.4076 -0.5490 -0.1768
 3622SOL     OW20092   4.140   6.731   3.572 -0.7643  0.2647  0.6385
 3622SOL    HW120093   4.090   6.652   3.536  0.1245  0.9816 -2.2991
 3622SOL    HW220094   4.083   6.812   3.563  0.1580  0.7633 -0.9977
 3623SOL     OW20095   7.022   5.150   0.261  0.6154  0.0256 -0.5218
 3623SOL    HW120096   7.044   5.098   0.178  2.2184 -0.0416 -0.0655
 3623SOL    HW220097   7.033   5.091   0.341 -0.2673  0.2843 -0.2080
 3625SOL     OW20098   7.481   2.540   2.353  0.1615 -0.2096 -0.3985
 3625SOL    HW120099   7.477   2.441   2.365  1.5476  0.1290  3.5370
 3625SOL    HW220100   7.571   2.566   2.317  0.1546 -0.3006 -0.4818
 3627SOL     OW20101   6.407   3.108   0.499  0.6472 -0.0629 -0.0903
 3627SOL    HW120102   6.411   3.036   0.569 -0.1120  0.7287  0.7760
 3627SOL    HW220103   6.490   3.164   0.505  1.1727 -0.7573 -0.6721
 3628SOL     OW20104   6.466   4.115   0.205 -0.6606 -0.3388 -0.2540
 3628SOL    HW120105   6.413   4.156   0.131  0.8475  0.4225 -0.9102
 3628SOL    HW220106   6.457   4.172   0.287  1.2874  1.2528 -1.1155
 3629SOL     OW20107   5.342   5.277   0.935 -0.3548  0.2971 -0.4126
 3629SOL    HW120108   5.269   5.212   0.954 -1.8917  1.7244 -1.3720
 3629SOL    HW220109   5.363   5.329   1.018 -1.0160  0.4711 -0.3528
 3631SOL     OW20110   7.080   4.473   0.485 -0.5421 -0.1489 -0.2316
 3631SOL    HW120111   7.038   4.400   0.540  0.7143 -0.6323  0.1110
 3631SOL    HW220112   7.179   4.473   0.500 -0.0434 -0.8902 -3.1836
 3632SOL     OW20113   2.458   5.511   5.132  0.1665  0.2452 -0.0019
 3632SOL    HW120114   2.377   5.472   5.087 -0.1812  1.5568 -0.5497
 3632SOL    HW220115   2.539   5.492   5.077 -0.0188  0.4040 -0.3356
 3633SOL     OW20116   7.105   2.642   2.115 -0.1598  0.3917  0.2601
 3633SOL    HW120117   7.159   2.659   2.032 -1.9681 -0.1448 -1.0422
 3633SOL    HW220118   7.070   2.549   2.114 -0.0703  0.3249  1.7233
 3634SOL     OW20119   1.276   4.703   1.533 -0.3948  0.7365 -0.0664
 3634SOL    HW120120   1.343   4.678   1.463 -0.5941  3.6205 -1.3205
 3634SOL    HW220121   1.186   4.671   1.505 -0.1164 -0.1433  0.0037
 3635SOL     OW20122   1.923   4.621   3.707 -0.1899 -0.0933  0.0073
 3635SOL    HW120123   1.996   4.587   3.766  0.8295 -0.3247 -1.3617
 3635SOL    HW220124   1.885   4.546   3.653  0.6435  0.5275 -1.4903
 3637SOL     OW20125   6.526   0.330   5.822 -0.4390 -0.1652 -0.3315
 3637SOL    HW120126   6.461   0.257   5.843  0.5058 -0.2042  2.8781
 3637SOL    HW220127   6.482   0.418   5.836  0.1065 -0.1914  1.8044
 3638SOL     OW20128   2.849   5.310   1.459 -0.0672  0.4414 -0.1294
 3638SOL    HW120129   2.806   5.229   1.418  0.0271 -1.0541  2.5655
 3638SOL    HW220130   2.778   5.372   1.492 -0.1551  2.0971 -3.2643
 3641SOL     OW20131   6.973   8.945   6.371  0.0937  0.0880  0.5983
 3641SOL    HW120132   7.024   8.986   6.296 -1.3517 -0.0941 -0.5157
 3641SOL    HW220133   6.963   8.847   6.355 -1.9592  0.3755 -0.0219
 3642SOL     OW20134   9.607   2.145   5.080  0.2620 -0.9211 -0.3582
 3642SOL    HW120135   9.639   2.132   5.174 -0.3522 -0.1266 -0.0358
 3642SOL    HW220136   9.598   2.056   5.036 -0.5876 -1.3871  0.7216
 3643SOL     OW20137   0.271   5.887   4.955  0.1214 -0.7842 -0.3732
 3643SOL    HW120138   0.261   5.987   4.956  0.1017 -0.7736 -1.3159
 3643SOL    HW220139   0.286   5.854   5.048  0.8877  0.1743 -0.1592
 3644SOL     OW20140   7.134   2.855   3.272 -0.1595 -0.5867  0.0365
 3644SOL    HW120141   7.049   2.838   3.222 -0.1981  0.6786 -0.3347
 3644SOL    HW220142   7.199   2.901   3.212 -0.3288  1.2723  1.2299
 3647SOL     OW20143   3.124   2.242   5.111  0.2328  0.2679  0.2249
 3647SOL    HW120144   3.115   2.325   5.165  0.0179 -0.3975  1.2244
 3647SOL    HW220145   3.041   2.228   5.057  0.5591  1.0797 -0.4850
 3649SOL     OW20146   0.735   1.580   4.166 -0.1447  0.7485  0.3381
 3649SOL    HW120147   0.831   1.576   4.193  0.1547 -0.9979 -0.8719
 3649SOL    HW220148   0.680   1.529   4.233 -0.1772  1.4102  0.8156
 3650SOL     OW20149   1.604   1.009   2.178  0.2051  0.0198  0.5605
 3650SOL    HW120150   1.527   0.963   2.134  1.2183  1.1204 -2.5125
 3650SOL    HW220151   1.574   1.096   2.216 -0.3427 -0.1250  0.4618
 3652SOL     OW20152   2.957   9.925   3.405 -0.3494  0.7934 -0.0946
 3652SOL    HW120153   2.907  10.007   3.434 -1.8600 -1.0043  2.6818
 3652SOL    HW220154   3.046   9.923   3.451  0.1453  1.3801 -1.0037
 3653SOL     OW20155   2.043   1.958   4.392 -0.0463 -0.1451 -0.1184
 3653SOL    HW120156   2.079   2.037   4.441  1.4772  0.0806 -1.5851
 3653SOL    HW220157   2.058   1.875   4.446 -1.2886  0.4796  1.2383
 3654SOL     OW20158   3.986   8.595   6.240 -0.6874  0.1990 -0.2138
 3654SOL    HW120159   3.912   8.575   6.175  0.6756 -0.7964 -1.5034
 3654SOL    HW220160   4.033   8.679   6.213 -1.2619  0.7735  0.5452
 3656SOL     OW20161   8.093   8.867   5.265 -0.0759  0.1195 -0.0967
 3656SOL    HW120162   8.067   8.770   5.265  1.6177 -0.3487 -0.2879
 3656SOL    HW220163   8.064   8.909   5.179 -0.3710 -0.3380 -0.2232
 3657SOL     OW20164   2.408   3.687   5.597  0.4799  0.4468  0.4557
 3657SOL    HW120165   2.337   3.755   5.615  0.0065  0.6400 -2.0513
 3657SOL    HW220166   2.370   3.595   5.609  0.1227  0.5641  0.2064
 3658SOL     OW20167   3.691   1.078   1.040 -0.2436  0.0313  0.0957
 3658SOL    HW120168   3.642   1.053   0.957  0.3192 -1.0373  0.0811
 3658SOL    HW220169   3.788   1.092   1.019  0.0712 -1.1420  0.7384
 3659SOL     OW20170   9.818   5.257   1.920  0.1931 -0.5763 -0.1307
 3659SOL    HW120171   9.781   5.341   1.882 -0.0658 -1.1201 -1.1039
 3659SOL    HW220172   9.751   5.217   1.983 -1.3809 -2.0913 -2.6571
 3660SOL     OW20173   4.577   1.927   5.535  0.6130  0.1784 -0.2416
 3660SOL    HW120174   4.600   2.004   5.475  1.8327 -0.4969 -0.6625
 3660SOL    HW220175   4.496   1.950   5.589 -0.2386  0.9522 -1.8373
 3661SOL     OW20176   6.302   0.738   4.240 -0.3142  1.4420 -0.3365
 3661SOL    HW120177   6.270   0.820   4.288  1.5021  1.6626  0.5506
 3661SOL    HW220178   6.316   0.664   4.306 -1.3548  0.5920 -1.0477
 3663SOL     OW20179   0.864   4.077   2.686  0.2355  0.3536 -0.2084
 3663SOL    HW120180   0.813   3.992   2.687  0.8268 -0.0212 -1.1916
 3663SOL    HW220181   0.870   4.111   2.592  1.4514  0.5901 -0.0549
 3665SOL     OW20182   3.901   2.287   6.318  0.5188 -0.1373  0.3879
 3665SOL    HW120183   3.839   2.360   6.343 -0.2699 -0.6547 -0.0485
 3665SOL    HW220184   3.964   2.268   6.394 -0.2453 -0.0240  1.0502
 3667SOL     OW20185   2.730   4.610   4.045  0.0644 -0.5096  0.2161
 3667SOL    HW120186   2.672   4.690   4.035  0.9816  0.1793  0.3610
 3667SOL    HW220187   2.726   4.578   4.140 -0.3693 -0.6963  0.1377
 3668SOL     OW20188   2.033   4.498   6.261 -0.1447 -0.2857 -0.6467
 3668SOL    HW120189   2.022   4.476   6.358 -2.8370  0.3113 -0.7934
 3668SOL    HW220190   2.055   4.415   6.210 -0.8753 -0.9774  0.1585
 3669SOL     OW20191   0.647   7.753   1.448 -0.1893 -0.0281  0.0905
 3669SOL    HW120192   0.632   7.759   1.350 -0.6005 -2.1170  0.0002
 3669SOL    HW220193   0.564   7.782   1.496 -0.6398 -0.7814 -0.2220
 3670SOL     OW20194   4.327   9.725   6.427 -0.3802  0.4386  0.5325
 3670SOL    HW120195   4.404   9.760   6.373  1.0082 -0.6602  1.7466
 3670SOL    HW220196   4.279   9.801   6.470 -1.7237  1.3590 -2.4898
 3671SOL     OW20197   5.599   2.004   5.143  0.5674 -0.4845  0.2233
 3671SOL    HW120198   5.564   1.912   5.125 -0.9370 -0.0614  0.8888
 3671SOL    HW220199   5.579   2.063   5.065  1.7879 -0.7926 -0.3223
 3672SOL     OW20200   0.314   8.288   0.980 -0.3592  0.1199 -0.2761
 3672SOL    HW120201   0.389   8.343   0.943  0.2584  0.2060  1.1006
 3672SOL    HW220202   0.345   8.238   1.061 -2.3369  1.7971  1.5810
 3676SOL     OW20203   1.053   0.274   3.588 -1.3454  0.2393 -0.4823
 3676SOL    HW120204   1.035   0.311   3.679  0.1543 -1.2249  0.4384
 3676SOL    HW220205   1.129   0.323   3.546 -0.8445 -0.2890 -0.1947
 3678SOL     OW20206   3.620   4.823   0.744 -0.2641 -0.8390 -0.0795
 3678SOL    HW120207   3.565   4.907   0.748  1.6327  0.4515 -0.3564
 3678SOL    HW220208   3.669   4.820   0.657 -1.3004 -2.8957 -0.6151
 3679SOL     OW20209   8.577   6.873   2.750  0.1774  0.4927  0.2690
 3679SOL    HW120210   8.607   6.945   2.687 -1.2260 -0.7112 -1.8476
 3679SOL    HW220211   8.514   6.912   2.818 -1.0680  1.1578 -1.2409
 3680SOL     OW20212   1.655   9.497   0.623  0.1954 -0.3206 -0.1438
 3680SOL    HW120213   1.753   9.514   0.620 -0.3261  2.7528 -3.3735
 3680SOL    HW220214   1.632   9.426   0.556  0.0386  0.1377 -0.5800
 3681SOL     OW20215   4.688   5.313   2.314 -0.7013  0.2266 -0.2775
 3681SOL    HW120216   4.635   5.279   2.237 -0.2657  2.3093 -1.5448
 3681SOL    HW220217   4.631   5.371   2.371 -0.1190  1.5586 -1.0220
 3682SOL     OW20218   1.110   2.720   2.743 -0.3207  0.4891  0.1741
 3682SOL    HW120219   1.073   2.631   2.770 -0.3159  0.9817  1.8383
 3682SOL    HW220220   1.206   2.709   2.719 -0.5559 -0.1188 -0.5023
 3683SOL     OW20221   9.149   3.952   5.413  0.0276  0.0818  0.0893
 3683SOL    HW120222   9.106   3.886   5.474  0.6945 -1.2397 -0.8278
 3683SOL    HW220223   9.094   4.035   5.408 -1.5404 -0.9375  0.2170
 3684SOL     OW20224   3.161   9.544   0.192 -0.1106 -0.0122  0.3448
 3684SOL    HW120225   3.086   9.568   0.253  0.0028 -1.8798  1.2343
 3684SOL    HW220226   3.155   9.601   0.109 -1.8557  0.6133  0.8657
 3685SOL     OW20227   4.393   8.607   4.527  0.1143 -0.0302  0.1381
 3685SOL    HW120228   4.384   8.682   4.462  1.2701  1.2502  1.4224
 3685SOL    HW220229   4.431   8.527   4.481 -0.5078  0.3582 -1.0864
 3687SOL     OW20230   4.855   6.424   0.992 -0.0083 -0.5972 -0.1978
 3687SOL    HW120231   4.767   6.445   1.034  0.5802 -0.0364  0.7566
 3687SOL    HW220232   4.919   6.499   1.008  0.5917 -0.9190 -1.0438
 3688SOL     OW20233   7.301   0.617   1.998  0.3636  0.3175 -0.2635
 3688SOL    HW120234   7.245   0.675   1.938 -1.0177 -1.0900 -0.3594
 3688SOL    HW220235   7.242   0.561   2.055  1.6816 -1.0183 -0.1816
 3690SOL     OW20236   4.266   5.459   4.058  0.5115 -0.5259 -0.7143
 3690SOL    HW120237   4.192   5.404   4.018 -0.9987  0.7512  0.2517
 3690SOL    HW220238   4.275   5.544   4.006 -1.5197  1.1872  1.6326
 3692SOL     OW20239   0.032   9.212   3.507  0.0183 -0.4955  0.0468
 3692SOL    HW120240   0.076   9.124   3.489 -1.5582 -1.6490  1.6495
 3692SOL    HW220241   0.008   9.218   3.604 -0.8129  1.2809 -0.2500
 3695SOL     OW20242   7.945   3.620   3.482  0.0008  0.2340 -0.7725
 3695SOL    HW120243   8.030   3.568   3.490 -1.9767 -2.6972  2.4933
 3695SOL    HW220244   7.882   3.572   3.421  0.1521  1.6434 -2.0464
 3696SOL     OW20245   7.854   6.706   5.790  0.1592  0.1443  0.2175
 3696SOL    HW120246   7.874   6.696   5.693 -1.5793 -0.9570 -0.0450
 3696SOL    HW220247   7.822   6.799   5.809  1.1053  0.5466 -0.1422
 3697SOL     OW20248   7.733   4.242   0.742  0.4798 -0.4393 -0.2772
 3697SOL    HW120249   7.694   4.328   0.709  0.1776 -1.2862 -2.1762
 3697SOL    HW220250   7.674   4.202   0.812  0.8112  1.0610  0.8941
 3699SOL     OW20251   3.879   5.499   5.683 -0.4670  0.2310 -1.1758
 3699SOL    HW120252   3.852   5.543   5.769  0.3702 -2.0881  0.3206
 3699SOL    HW220253   3.978   5.493   5.678 -0.5476 -0.8761 -1.6599
 3701SOL     OW20254   0.911   0.519   0.761  0.7692  0.2316 -0.9100
 3701SOL    HW120255   0.841   0.496   0.693 -0.3302  0.4923  0.1016
 3701SOL    HW220256   0.996   0.544   0.715  1.8843 -5.1796 -2.0910
 3702SOL     OW20257   7.356   0.061   2.500  0.4119 -0.0642 -0.3380
 3702SOL    HW120258   7.400  -0.029   2.493 -2.0692 -1.3435 -0.1089
 3702SOL    HW220259   7.376   0.101   2.589 -0.6359 -1.6269  0.6340
 3704SOL     OW20260   1.832   6.594   1.893  0.0793  0.5399 -0.1685
 3704SOL    HW120261   1.879   6.656   1.956  1.1852 -0.9722  0.5114
 3704SOL    HW220262   1.867   6.608   1.800 -1.4613  2.6785 -0.4535
 3705SOL     OW20263   1.389   6.823   3.858 -0.3691  0.0277 -0.2070
 3705SOL    HW120264   1.421   6.746   3.913 -0.4591 -1.2612 -1.9069
 3705SOL    HW220265   1.450   6.835   3.779 -1.0281  0.9760 -0.5797
 3707SOL     OW20266   8.088   3.384   3.824  0.3965 -0.3330 -0.2510
 3707SOL    HW120267   8.013   3.449   3.810  0.6698 -0.4171 -2.2725
 3707SOL    HW220268   8.108   3.376   3.922 -1.2394  0.8024  0.1928
 3708SOL     OW20269   0.231   5.563   2.180 -0.3249  0.2435  0.3155
 3708SOL    HW120270   0.266   5.623   2.108  1.6498  0.3714  1.3381
 3708SOL    HW220271   0.165   5.499   2.141  0.3605  0.6275 -1.5257
 3709SOL     OW20272   1.227   0.445   1.044 -0.3116  1.1771 -0.3094
 3709SOL    HW120273   1.298   0.418   1.109 -0.0263 -1.3151 -1.5971
 3709SOL    HW220274   1.260   0.522   0.989  1.3535  0.1202 -0.8070
 3710SOL     OW20275   3.744   3.592   1.032  0.2922 -0.3569 -0.2977
 3710SOL    HW120276   3.800   3.632   0.960 -0.6147 -0.3027 -0.9814
 3710SOL    HW220277   3.706   3.665   1.089  0.3784 -0.3563 -0.2410
 3711SOL     OW20278   1.501   0.132   0.344  0.0194 -0.2250  0.0163
 3711SOL    HW120279   1.564   0.058   0.369 -0.4809 -0.6553  0.0149
 3711SOL    HW220280   1.444   0.103   0.267 -0.6278 -0.0856  0.4379
 3712SOL     OW20281   4.284   3.893   2.561 -0.5703  0.3379  0.3292
 3712SOL    HW120282   4.244   3.901   2.653 -0.1089  0.7629  0.4929
 3712SOL    HW220283   4.376   3.931   2.561 -0.0731 -0.8436  0.0005
 3713SOL     OW20284   7.457   1.932   6.189  0.1942 -0.4516  0.0255
 3713SOL    HW120285   7.425   1.969   6.101 -1.2135 -1.5278  0.0709
 3713SOL    HW220286   7.486   1.837   6.177  1.9294  0.0236  0.3197
 3714SOL     OW20287   8.830   7.980   5.898 -0.1966  0.0955  0.2944
 3714SOL    HW120288   8.827   7.989   5.998 -1.8426 -0.6577  0.3350
 3714SOL    HW220289   8.741   7.946   5.866  0.3850  0.1838 -1.4103
 3715SOL     OW20290   2.423   6.853   0.586 -0.0751 -0.4292  0.1436
 3715SOL    HW120291   2.352   6.791   0.619 -1.7596  1.3414 -0.0789
 3715SOL    HW220292   2.392   6.948   0.595  0.7002  0.2595 -3.4314
 3716SOL     OW20293   0.697   4.500   4.128 -0.1972 -0.3015 -0.6201
 3716SOL    HW120294   0.683   4.597   4.149  0.1693 -0.2535 -0.5915
 3716SOL    HW220295   0.647   4.476   4.045  0.0556  0.0153 -0.8687
 3717SOL     OW20296   1.805   6.046   3.709  0.2598 -0.5930  0.5617
 3717SOL    HW120297   1.804   6.004   3.800 -2.4270 -1.3931  0.2319
 3717SOL    HW220298   1.826   5.976   3.641 -1.4384 -0.8275  0.2592
 3719SOL     OW20299   3.419   1.973   2.701  0.2812 -0.1194 -0.0006
 3719SOL    HW120300   3.486   1.911   2.660 -1.2450 -0.1907 -2.4647
 3719SOL    HW220301   3.454   2.067   2.699  1.5575 -0.5396  1.5092
 3720SOL     OW20302   1.903   6.971   3.398 -0.0949  0.0634  0.3517
 3720SOL    HW120303   1.887   6.936   3.491 -0.2401 -1.5524 -0.2804
 3720SOL    HW220304   1.818   6.963   3.345  0.2153  0.2497 -0.1691
 3721SOL     OW20305   0.202   1.626   2.261 -0.1808  0.3298 -0.8495
 3721SOL    HW120306   0.295   1.651   2.237 -0.4010  0.7902 -1.2415
 3721SOL    HW220307   0.201   1.536   2.305  0.6619  1.1092  0.8427
 3722SOL     OW20308   5.512   4.464   1.819 -0.0844 -0.4331  0.6491
 3722SOL    HW120309   5.506   4.564   1.817 -0.4671 -0.4490  0.8142
 3722SOL    HW220310   5.594   4.436   1.868 -0.5451 -0.2048  1.5611
 3723SOL     OW20311   4.857   7.355   4.993  0.2600 -0.2311 -0.4178
 3723SOL    HW120312   4.952   7.331   4.971  0.4514  0.5869 -0.5290
 3723SOL    HW220313   4.812   7.391   4.911  0.3730  0.9659  0.0250
 3725SOL     OW20314   2.402   9.567   2.285 -0.0334 -0.0725  0.3669
 3725SOL    HW120315   2.477   9.633   2.286 -0.5150  0.4758  2.4963
 3725SOL    HW220316   2.435   9.479   2.252  1.5134  0.2067  1.1186
 3726SOL     OW20317   0.172   1.285   2.522  0.1195 -0.1000  0.5177
 3726SOL    HW120318   0.226   1.348   2.466  1.5267 -0.0990  1.8564
 3726SOL    HW220319   0.181   1.192   2.487 -0.3320  0.1428 -0.2465
 3727SOL     OW20320   7.908   8.342   4.641  0.6717 -0.1198 -0.4580
 3727SOL    HW120321   7.984   8.380   4.694 -0.0331  1.2511 -0.4173
 3727SOL    HW220322   7.938   8.259   4.595  2.3580  0.7214 -0.8959
 3728SOL     OW20323   8.554   7.100   3.855 -0.4217 -0.5321  0.4893
 3728SOL    HW120324   8.486   7.036   3.818 -1.0096  0.2834  0.1528
 3728SOL    HW220325   8.645   7.060   3.846 -0.9273 -2.0243  1.7709
 3730SOL     OW20326   4.222   4.235   2.706  0.2549  0.0797  0.3172
 3730SOL    HW120327   4.248   4.146   2.744  0.1078  0.0040  0.2399
 3730SOL    HW220328   4.303   4.279   2.668  0.7075  0.8437  2.1189
 3731SOL     OW20329   0.157   1.850   1.032  0.6318  0.5150  0.5384
 3731SOL    HW120330   0.217   1.909   1.085  3.1669 -2.3013  0.9256
 3731SOL    HW220331   0.154   1.759   1.074 -2.4079  0.0600 -0.5689
 3732SOL     OW20332   9.172   3.942   2.568 -0.1072 -0.5069 -0.6416
 3732SOL    HW120333   9.157   4.018   2.630 -1.0886 -0.4184 -0.9795
 3732SOL    HW220334   9.267   3.943   2.536  0.1004  0.0925 -0.0142
 3733SOL     OW20335   8.985   8.660   4.985  0.0130 -0.3731  0.3751
 3733SOL    HW120336   9.034   8.710   5.057  2.6430  1.1608 -2.3882
 3733SOL    HW220337   8.887   8.682   4.991  0.6734  2.7007  1.2096
 3735SOL     OW20338   8.176   9.943   0.370  0.4851  0.1431  0.5551
 3735SOL    HW120339   8.117  10.013   0.330  1.8041  0.7763 -0.2888
 3735SOL    HW220340   8.191   9.963   0.467 -1.5274 -0.6030  1.0591
 3737SOL     OW20341   8.295   5.567   2.966 -0.2158 -0.3495  0.6615
 3737SOL    HW120342   8.363   5.495   2.956 -0.9822 -1.1893  1.3953
 3737SOL    HW220343   8.300   5.605   3.059  1.5673  1.9741 -0.3349
 3738SOL     OW20344   4.453   8.258   2.151  0.0978  0.1350 -0.0720
 3738SOL    HW120345   4.357   8.255   2.179  0.1143 -1.0455 -0.1123
 3738SOL    HW220346   4.469   8.340   2.097 -0.5296  1.1216  1.2177
 3740SOL     OW20347   8.199   0.725   3.074  0.6883 -0.7329 -0.4659
 3740SOL    HW120348   8.185   0.630   3.045  1.5830 -1.5151  1.6216
 3740SOL    HW220349   8.296   0.741   3.092  0.2981  0.0405  1.0246
 3741SOL     OW20350   1.688   1.315   4.689  0.3788 -0.4101 -0.1254
 3741SOL    HW120351   1.675   1.383   4.761  1.6725 -0.2985  0.0138
 3741SOL    HW220352   1.601   1.271   4.669  0.0483 -0.6121  1.6662
 3742SOL     OW20353   2.962   7.469   5.054 -0.2695 -0.6474 -0.2828
 3742SOL    HW120354   2.962   7.370   5.071 -0.6903 -0.7549 -0.9126
 3742SOL    HW220355   3.049   7.495   5.012 -0.1433 -0.7418 -0.0836
 3743SOL     OW20356   0.894   7.515   0.988  0.7174  0.4977  0.0615
 3743SOL    HW120357   0.875   7.448   0.917 -0.9071 -0.6691  1.5390
 3743SOL    HW220358   0.987   7.501   1.023  0.4231 -0.9324  0.2968
 3744SOL     OW20359   1.934   7.109   0.116  0.3751 -0.2539  0.2108
 3744SOL    HW120360   1.980   7.182   0.166 -0.1339 -0.3179  0.7684
 3744SOL    HW220361   1.938   7.024   0.169  0.7062 -0.5670 -0.3037
 3745SOL     OW20362   9.708   1.469   3.694 -0.0695 -0.1405 -0.0003
 3745SOL    HW120363   9.662   1.424   3.618  0.5345 -1.0125  0.1419
 3745SOL    HW220364   9.698   1.568   3.685  0.2280 -0.2247 -1.3593
 3746SOL     OW20365   9.243   8.518   0.193 -0.3319 -0.3937  0.3619
 3746SOL    HW120366   9.209   8.600   0.147 -1.7767 -2.0807 -1.6757
 3746SOL    HW220367   9.327   8.487   0.149 -0.7114 -0.9608  0.0209
 3747SOL     OW20368   3.382   9.904   4.660 -0.2700 -0.4985  0.9445
 3747SOL    HW120369   3.337   9.955   4.586  1.3233 -0.0376  0.2694
 3747SOL    HW220370   3.417   9.969   4.728  1.4443 -0.6751  0.2647
 3748SOL     OW20371   0.409   7.911   0.541  0.4521 -0.5322 -0.2268
 3748SOL    HW120372   0.347   7.943   0.470  0.1511 -0.9332 -0.1476
 3748SOL    HW220373   0.407   7.974   0.618  0.6952 -0.1557 -0.5220
 3749SOL     OW20374   4.175   4.426   3.313  0.1109  0.0866 -0.0363
 3749SOL    HW120375   4.195   4.456   3.220 -0.2026  0.2977 -0.0334
 3749SOL    HW220376   4.082   4.391   3.318 -0.2754  1.1862  0.4777
 3751SOL     OW20377   2.379   0.165   4.515  0.2285 -0.2916  0.5119
 3751SOL    HW120378   2.420   0.239   4.463 -0.2833 -1.5830 -1.7757
 3751SOL    HW220379   2.296   0.198   4.561  0.6907  0.8442  0.5533
 3752SOL     OW20380   4.191   6.641   2.547  0.2921 -0.0615  0.3743
 3752SOL    HW120381   4.193   6.741   2.538  2.3889 -0.1257 -0.0578
 3752SOL    HW220382   4.197   6.600   2.456 -1.1963 -0.5816  0.5103
 3754SOL     OW20383   5.140   8.772   5.528 -0.2522 -0.0386  0.7974
 3754SOL    HW120384   5.044   8.770   5.501 -0.3960  1.5039  1.1607
 3754SOL    HW220385   5.197   8.784   5.446 -0.3687 -0.8667  0.5920
 3755SOL     OW20386   7.159   2.801   4.723  0.0706  0.2959 -0.2633
 3755SOL    HW120387   7.151   2.900   4.712 -1.7139  0.1676 -0.2961
 3755SOL    HW220388   7.244   2.769   4.682  1.3668  2.0069  1.0520
 3756SOL     OW20389   2.037   7.626   5.090 -0.4896 -0.2653  0.8376
 3756SOL    HW120390   2.064   7.698   5.026 -0.0794 -1.1188  0.0393
 3756SOL    HW220391   1.993   7.667   5.170 -0.6916  0.8304  0.1676
 3757SOL     OW20392   5.960   1.784   2.439  0.4351 -0.3663  0.2743
 3757SOL    HW120393   5.903   1.714   2.397  0.8892 -1.1622  0.9776
 3757SOL    HW220394   5.986   1.852   2.370 -1.2128 -0.0831 -0.0919
 3758SOL     OW20395   1.453   0.412   2.392  0.1140 -0.1645 -0.0013
 3758SOL    HW120396   1.435   0.505   2.424 -0.1974 -0.0766 -0.4230
 3758SOL    HW220397   1.369   0.374   2.353  0.3939 -0.4030 -0.3750
 3759SOL     OW20398   3.197   7.506   0.614 -0.1981 -0.2429  0.1937
 3759SOL    HW120399   3.181   7.407   0.618  1.5418 -0.5442  0.2168
 3759SOL    HW220400   3.203   7.534   0.518 -1.8256  0.0568  0.1600
 3760SOL     OW20401   0.965   7.133   6.365  0.0690 -0.7013  0.2704
 3760SOL    HW120402   1.040   7.178   6.316  0.1538  0.4491  1.4439
 3760SOL    HW220403   0.893   7.109   6.300  1.0870 -1.0913 -0.7447
 3761SOL     OW20404   6.819   9.245   3.648  0.5986 -0.0775  0.7058
 3761SOL    HW120405   6.799   9.290   3.561  1.8757  0.2001  0.5462
 3761SOL    HW220406   6.881   9.168   3.633  2.1866  0.9936  1.5560
 3762SOL     OW20407   8.172   2.398   3.915  0.0574 -0.0484 -0.4954
 3762SOL    HW120408   8.237   2.322   3.911 -0.1104 -0.1622 -1.0583
 3762SOL    HW220409   8.103   2.380   3.984 -1.4403 -1.5669 -2.3313
 3763SOL     OW20410   6.962   9.843   4.402  0.1378 -0.3706  0.0051
 3763SOL    HW120411   6.865   9.839   4.378  0.2045  0.3178 -0.3860
 3763SOL    HW220412   6.983   9.933   4.441  0.2854 -1.0571  1.5565
 3764SOL     OW20413   1.494   8.166   0.223 -0.2482 -1.0168  0.3926
 3764SOL    HW120414   1.409   8.215   0.204  0.4123  0.0094  0.0657
 3764SOL    HW220415   1.536   8.203   0.306 -0.0195 -1.3852  0.4404
 3765SOL     OW20416   4.548   0.118   1.819  0.3487  0.4685  0.2028
 3765SOL    HW120417   4.503   0.030   1.836  0.7083  0.5748  1.8005
 3765SOL    HW220418   4.491   0.192   1.856 -0.4943  1.0193 -2.1308
 3769SOL     OW20419   9.822   4.035   5.097 -0.1968  0.4444  0.8001
 3769SOL    HW120420   9.775   4.119   5.125 -1.8783 -0.6117  1.2134
 3769SOL    HW220421   9.917   4.057   5.073 -0.4643  2.3776  1.3729
 3771SOL     OW20422   1.897   3.577   4.341  0.5773  0.2982 -0.2505
 3771SOL    HW120423   1.869   3.482   4.330  1.5295 -0.0017 -0.0631
 3771SOL    HW220424   1.954   3.586   4.422 -0.1889  1.1810  0.2032
 3772SOL     OW20425   1.998   1.837   5.297 -0.5244  0.3223  0.4710
 3772SOL    HW120426   2.035   1.903   5.363  0.5054  0.2108  0.0295
 3772SOL    HW220427   1.924   1.880   5.246 -0.7987  0.6722  1.1499
 3774SOL     OW20428   0.162   7.702   0.701 -0.1106  0.0649 -0.1184
 3774SOL    HW120429   0.110   7.768   0.647 -1.4568 -1.1031 -0.2622
 3774SOL    HW220430   0.195   7.628   0.642  0.0993 -0.1786  0.2984
 3775SOL     OW20431   6.905   2.503   3.413 -0.4025  0.7634 -0.2119
 3775SOL    HW120432   7.002   2.510   3.392 -0.1454 -0.2859  0.5691
 3775SOL    HW220433   6.882   2.565   3.489 -0.2869  0.8139 -0.2184
 3776SOL     OW20434   2.216   9.516   0.213  0.2358  0.3565 -0.1790
 3776SOL    HW120435   2.268   9.555   0.137 -0.5263  0.2063 -0.7767
 3776SOL    HW220436   2.270   9.444   0.257  1.5940  1.9516  0.8361
 3777SOL     OW20437   3.358   3.749   3.282 -0.0090 -0.4511 -0.0355
 3777SOL    HW120438   3.392   3.805   3.206  0.6671  1.3708  1.5553
 3777SOL    HW220439   3.394   3.785   3.368 -0.9859 -2.3089  1.1823
 3778SOL     OW20440   7.234   3.150   4.196  0.0801  0.3344  0.1568
 3778SOL    HW120441   7.140   3.115   4.206  0.2283 -0.4374 -1.0947
 3778SOL    HW220442   7.283   3.137   4.283 -1.0647  1.0680  0.9348
 3780SOL     OW20443   0.023   7.461   4.476 -0.3557 -0.4870  0.0145
 3780SOL    HW120444  -0.031   7.505   4.405 -0.4018 -0.5816 -0.0069
 3780SOL    HW220445   0.041   7.526   4.550 -1.9968 -0.9512  0.8485
 3782SOL     OW20446   3.187   4.036   0.470 -0.2419 -0.0556 -0.4655
 3782SOL    HW120447   3.185   3.977   0.551  0.7739  0.8862  0.2687
 3782SOL    HW220448   3.281   4.043   0.437 -0.2207  1.7722 -0.0557
 3783SOL     OW20449   2.682   7.592   1.401  0.4217 -0.1010 -0.0299
 3783SOL    HW120450   2.695   7.628   1.494  1.9556 -0.3421 -0.1418
 3783SOL    HW220451   2.761   7.615   1.345 -1.4317  1.8777 -1.8939
 3784SOL     OW20452   7.448   3.027   5.426 -0.3380  0.0149 -0.2669
 3784SOL    HW120453   7.519   3.006   5.493  0.6922  1.1810 -0.9637
 3784SOL    HW220454   7.484   3.093   5.359 -1.6944 -0.2887 -1.3212
 3785SOL     OW20455   3.117   4.769   2.272  0.5261  0.4865  0.0982
 3785SOL    HW120456   3.104   4.766   2.371 -1.0128 -0.6192 -0.1177
 3785SOL    HW220457   3.086   4.858   2.237  1.5524  1.0754  0.6561
 3786SOL     OW20458   0.039   5.822   4.218  0.0168  0.1687  0.0093
 3786SOL    HW120459   0.002   5.879   4.145 -1.3723  0.8150  1.1973
 3786SOL    HW220460   0.003   5.852   4.306  1.5399 -0.6973  0.9670
 3787SOL     OW20461   7.776   2.015   4.736 -0.2381  0.5159 -0.6589
 3787SOL    HW120462   7.848   2.085   4.730  0.0574  0.2431 -0.3137
 3787SOL    HW220463   7.780   1.956   4.656  1.1712 -0.6935  0.2758
 3790SOL     OW20464   8.070   1.037   2.215  0.1166  0.2241 -0.1902
 3790SOL    HW120465   8.071   0.992   2.126  1.5524  0.4505 -0.2928
 3790SOL    HW220466   8.050   1.135   2.203 -0.4213  0.1174 -0.1904
 3791SOL     OW20467   3.901   0.194   6.179 -0.5552 -0.0259  0.4353
 3791SOL    HW120468   3.915   0.115   6.239 -0.1076  0.0870  0.4771
 3791SOL    HW220469   3.925   0.278   6.229 -3.2046  0.3332  1.1772
 3792SOL     OW20470   1.179   4.090   2.458 -0.0394  0.0352 -0.3100
 3792SOL    HW120471   1.236   4.171   2.472 -0.6318  0.0203  2.5579
 3792SOL    HW220472   1.083   4.119   2.446 -0.5231 -0.2512  2.4589
 3793SOL     OW20473   3.630   1.536   0.054 -0.0035 -0.1486 -0.4607
 3793SOL    HW120474   3.666   1.539  -0.039  0.1855  0.6628 -0.3686
 3793SOL    HW220475   3.530   1.545   0.051 -0.1594 -1.7946 -0.6779
 3795SOL     OW20476   4.508   4.143   0.766  0.1204  0.1603 -0.1779
 3795SOL    HW120477   4.518   4.131   0.865 -1.5458  1.1316  0.1292
 3795SOL    HW220478   4.441   4.077   0.731  2.2194 -1.5966 -1.0367
 3796SOL     OW20479   6.589   0.958   4.080 -0.1363 -0.3146  0.5734
 3796SOL    HW120480   6.507   0.931   4.030  0.9131 -0.3389 -1.1791
 3796SOL    HW220481   6.652   0.881   4.084  0.7567  0.3728 -0.0862
 3797SOL     OW20482   7.646   0.138   6.070  0.1129  0.0484 -0.1167
 3797SOL    HW120483   7.587   0.213   6.099 -0.3102 -0.9955  1.7942
 3797SOL    HW220484   7.647   0.067   6.140  2.2689 -0.7449 -0.9055
 3799SOL     OW20485   6.043   4.501   1.528  0.3955  0.1272 -0.2237
 3799SOL    HW120486   5.989   4.418   1.525  0.0485  0.3313  0.3585
 3799SOL    HW220487   5.996   4.574   1.478  0.8895 -0.1334 -1.0772
 3800SOL     OW20488   7.331   1.055   0.472 -0.2630 -0.1194 -0.1169
 3800SOL    HW120489   7.263   1.120   0.506 -0.0995 -1.2568  2.5132
 3800SOL    HW220490   7.376   1.094   0.391 -0.5737  2.8084  1.0331
 3802SOL     OW20491   8.995   3.475   2.637  0.2674  0.1368 -0.5484
 3802SOL    HW120492   9.009   3.448   2.541  1.1087  2.6633 -1.1756
 3802SOL    HW220493   9.034   3.566   2.652 -0.9041  0.2732  1.9216
 3803SOL     OW20494   2.627   2.794   3.630 -0.0584  0.7931  0.1051
 3803SOL    HW120495   2.716   2.771   3.590 -1.4054 -1.2815 -1.8288
 3803SOL    HW220496   2.613   2.741   3.713  0.5023  1.1265  0.4153
 3804SOL     OW20497   1.876   4.683   0.203  0.1402  0.0173  0.6663
 3804SOL    HW120498   1.930   4.600   0.213 -1.7007 -1.1214  1.4089
 3804SOL    HW220499   1.877   4.734   0.290  0.5831  0.3527  0.4664
 3805SOL     OW20500   3.415   6.843   3.823  0.1886 -0.3253  0.0737
 3805SOL    HW120501   3.432   6.744   3.826  1.8783 -0.0656 -0.3822
 3805SOL    HW220502   3.494   6.891   3.861  0.1736  0.9105 -1.4280
 3808SOL     OW20503   5.162   5.328   0.370 -0.2679  0.6783  0.4560
 3808SOL    HW120504   5.103   5.257   0.330  2.0832 -0.3975 -1.1793
 3808SOL    HW220505   5.144   5.415   0.325 -0.7670  0.4188  0.1441
 3809SOL     OW20506   1.758   4.596   1.253  0.5842 -0.4798  0.3755
 3809SOL    HW120507   1.790   4.579   1.347 -2.0499  0.7489  1.5455
 3809SOL    HW220508   1.768   4.512   1.200  0.2733 -1.8043  2.3231
 3812SOL     OW20509   6.050   9.735   2.642 -0.1266  0.2598  0.9838
 3812SOL    HW120510   6.083   9.816   2.593 -0.8808  0.2304  0.4349
 3812SOL    HW220511   5.952   9.726   2.630  0.0783 -1.2234  0.3312
 3813SOL     OW20512   8.687   5.281   4.323  0.5118 -1.0343  0.5881
 3813SOL    HW120513   8.753   5.248   4.255  0.8592 -0.4149  0.6214
 3813SOL    HW220514   8.638   5.203   4.362  0.9033 -1.4639  0.2337
 3815SOL     OW20515   1.767   9.290   4.592 -0.4590 -0.1584  0.4703
 3815SOL    HW120516   1.855   9.305   4.547 -1.1561 -0.3402 -0.9682
 3815SOL    HW220517   1.740   9.374   4.640  0.0264  0.2133  0.0982
 3816SOL     OW20518   6.358   1.334   0.019 -0.5308 -0.5590 -0.4503
 3816SOL    HW120519   6.408   1.416   0.046 -1.3255 -0.7309  1.6428
 3816SOL    HW220520   6.408   1.286  -0.053  0.6357  1.0043 -0.7040
 3819SOL     OW20521   4.618   6.840   2.174 -0.1286 -0.3703 -0.5150
 3819SOL    HW120522   4.537   6.790   2.143 -0.1530 -0.2416 -0.6576
 3819SOL    HW220523   4.602   6.938   2.165  0.2425 -0.3588 -1.0328
 3820SOL     OW20524   5.412   0.645   5.663 -0.0406 -0.3359 -0.1717
 3820SOL    HW120525   5.440   0.710   5.592  0.7585  0.3341  0.7553
 3820SOL    HW220526   5.492   0.610   5.711 -0.6365  0.0163  1.1101
 3821SOL     OW20527   5.828   3.247   0.439  0.2357  0.1857 -0.2120
 3821SOL    HW120528   5.845   3.214   0.347 -0.4219 -0.1902 -0.2030
 3821SOL    HW220529   5.872   3.186   0.505 -2.8054 -1.9833 -0.0913
 3823SOL     OW20530   7.691   1.071   0.322  0.1196  0.2323 -0.5131
 3823SOL    HW120531   7.742   1.152   0.292 -0.0267  0.5233  0.0153
 3823SOL    HW220532   7.609   1.099   0.370 -0.8667 -0.2429 -1.8814
 3825SOL     OW20533   6.016   8.488   4.597  0.2940 -0.0646 -0.1630
 3825SOL    HW120534   6.020   8.391   4.572  1.4527 -0.4142  1.3345
 3825SOL    HW220535   6.104   8.516   4.635 -0.8043  0.9784  1.6395
 3826SOL     OW20536   3.756   2.895   0.963  0.1493 -0.3608  0.4036
 3826SOL    HW120537   3.786   2.863   0.873  1.1200 -0.4247  0.7527
 3826SOL    HW220538   3.779   2.991   0.974  0.0333 -0.3537  0.5916
 3827SOL     OW20539   7.066   1.496   1.645  0.3442 -0.4132 -0.5091
 3827SOL    HW120540   6.981   1.445   1.634 -0.4231  0.7830 -0.2651
 3827SOL    HW220541   7.060   1.554   1.726  0.8470  0.7249 -1.2619
 3828SOL     OW20542   7.391   0.774   4.672 -0.0550  0.0524  0.4080
 3828SOL    HW120543   7.458   0.700   4.679 -2.1589 -1.9557  0.0503
 3828SOL    HW220544   7.334   0.775   4.754 -0.1568  1.1692  0.3262
 3830SOL     OW20545   8.540   0.448   1.741 -0.2129  0.7898  0.0734
 3830SOL    HW120546   8.469   0.377   1.743 -1.0641  1.5451 -1.8381
 3830SOL    HW220547   8.516   0.521   1.805 -0.1389  0.1095  0.8843
 3831SOL     OW20548   6.051   5.150   1.512  0.1184 -0.0055  0.0360
 3831SOL    HW120549   6.001   5.149   1.425 -0.6219 -0.3397  0.4653
 3831SOL    HW220550   6.143   5.185   1.496  0.3269 -1.0052 -1.0728
 3833SOL     OW20551   2.657   7.607   3.000 -0.1201  0.2961 -0.3350
 3833SOL    HW120552   2.635   7.588   3.096 -0.9935  0.7780 -0.4319
 3833SOL    HW220553   2.749   7.574   2.980 -0.2925 -0.6684  0.4134
 3834SOL     OW20554   2.559   8.939   1.453  0.3587  0.8232  0.6487
 3834SOL    HW120555   2.639   8.955   1.510  1.2219 -1.1040  0.0205
 3834SOL    HW220556   2.495   8.879   1.502  1.3473 -1.2747 -0.5994
 3835SOL     OW20557   0.541   0.473   4.874  0.3862  0.2183  0.0536
 3835SOL    HW120558   0.597   0.436   4.948 -0.8895  0.2692  1.0780
 3835SOL    HW220559   0.549   0.415   4.793 -0.6538 -1.6562  1.2584
 3836SOL     OW20560   9.826   0.816   3.300 -0.3340 -0.3195  0.5820
 3836SOL    HW120561   9.747   0.873   3.277  0.5601  0.5722 -0.3607
 3836SOL    HW220562   9.898   0.874   3.337  0.7586 -0.7567 -0.8244
 3837SOL     OW20563   9.414   1.284   2.055 -0.5283 -0.0017  0.0663
 3837SOL    HW120564   9.366   1.261   2.139  0.3347  0.3396  0.6525
 3837SOL    HW220565   9.484   1.215   2.037 -2.2098 -1.3493 -1.5948
 3840SOL     OW20566   5.261   0.159   4.827  0.3022 -0.3108 -0.3266
 3840SOL    HW120567   5.226   0.229   4.889 -3.2585 -1.0655 -1.3821
 3840SOL    HW220568   5.252   0.069   4.869 -0.6747 -0.6793 -1.3093
 3841SOL     OW20569   2.157   1.829   1.771 -0.1066 -0.0142 -0.0844
 3841SOL    HW120570   2.167   1.847   1.673  1.8414  0.9171  0.2461
 3841SOL    HW220571   2.147   1.916   1.820 -1.4647 -0.4987  0.5049
 3842SOL     OW20572   8.134   1.473   2.651  0.3435  0.1951 -0.2584
 3842SOL    HW120573   8.172   1.404   2.590  0.0753  0.5742 -0.8491
 3842SOL    HW220574   8.034   1.467   2.652  0.3002  0.8265 -0.6031
 3843SOL     OW20575   8.392   4.004   2.031 -0.3424  0.2172  0.1571
 3843SOL    HW120576   8.375   3.969   1.939 -1.4344  0.1162  0.3999
 3843SOL    HW220577   8.484   4.043   2.034  0.7775 -2.2388 -0.2569
 3844SOL     OW20578   5.117   1.628   2.121 -0.1080 -0.1433 -0.2425
 3844SOL    HW120579   5.114   1.619   2.022 -0.7597  0.4382 -0.2773
 3844SOL    HW220580   5.089   1.720   2.148 -0.9247 -0.6044  0.5369
 3845SOL     OW20581   5.009   7.330   2.423 -0.3602 -0.7261  0.1993
 3845SOL    HW120582   5.030   7.239   2.388  1.1031 -0.3797  0.1442
 3845SOL    HW220583   4.978   7.389   2.347 -0.2523 -0.8702  0.0432
 3846SOL     OW20584   3.758   1.683   0.517  0.4597 -0.2687 -0.2687
 3846SOL    HW120585   3.786   1.621   0.444  0.0666 -1.1141  0.2933
 3846SOL    HW220586   3.749   1.632   0.603 -0.7721  0.3755  0.0014
 3847SOL     OW20587   1.117   9.799   3.761 -0.1383 -0.1921 -0.8239
 3847SOL    HW120588   1.022   9.829   3.770 -0.3336 -0.4841 -1.8039
 3847SOL    HW220589   1.127   9.708   3.800 -0.1351  0.0653 -0.2214
 3848SOL     OW20590   9.365   9.619   0.305 -0.1717  0.2632 -0.4924
 3848SOL    HW120591   9.449   9.581   0.265  0.7766  0.2704  1.4385
 3848SOL    HW220592   9.342   9.569   0.388 -1.5009  0.9538 -0.4386
 3850SOL     OW20593   9.968   6.194   2.189 -0.1433 -0.7449  0.3009
 3850SOL    HW120594   9.936   6.114   2.239  2.0229 -1.2525  0.8866
 3850SOL    HW220595   9.949   6.183   2.091  1.6207 -2.7227  0.1535
 3851SOL     OW20596   8.113   1.261   3.801 -0.0255 -0.1645 -0.0345
 3851SOL    HW120597   8.066   1.316   3.869  1.1280  0.8145 -0.0138
 3851SOL    HW220598   8.201   1.230   3.838  0.4639  0.1044 -0.9625
 3853SOL     OW20599   6.847   1.502   0.218  0.2481  0.3075 -0.1426
 3853SOL    HW120600   6.842   1.523   0.316 -1.6266  0.7482 -0.3180
 3853SOL    HW220601   6.941   1.476   0.195  0.6659 -0.0425  1.8149
 3854SOL     OW20602   5.214   4.472   0.563 -0.6081  0.1610  0.4958
 3854SOL    HW120603   5.298   4.518   0.537  1.1800 -1.5877  3.0118
 3854SOL    HW220604   5.230   4.374   0.571 -3.3938 -0.4662 -0.9286
 3855SOL     OW20605   9.580   0.924   3.220  0.0177  0.2006 -0.0062
 3855SOL    HW120606   9.514   0.908   3.147  2.4425  0.5972 -2.3614
 3855SOL    HW220607   9.581   1.021   3.243  1.0901  0.5140 -1.3054
 3856SOL     OW20608   4.732   9.364   5.583  0.1229  0.1828 -0.7196
 3856SOL    HW120609   4.740   9.353   5.484 -0.9619  1.4895 -0.9821
 3856SOL    HW220610   4.661   9.303   5.618  2.3033 -2.2054 -0.3146
 3857SOL     OW20611   0.398   7.606   4.222  0.2638 -0.3374 -0.3676
 3857SOL    HW120612   0.313   7.556   4.212  0.5913 -0.5829 -2.0290
 3857SOL    HW220613   0.409   7.634   4.317 -0.8139 -1.8073  0.2058
 3858SOL     OW20614   1.780   8.905   4.143  0.2028 -0.4186 -0.4775
 3858SOL    HW120615   1.771   8.814   4.103  1.0615 -0.3893 -0.7420
 3858SOL    HW220616   1.841   8.961   4.087  0.3694  0.0431  0.1525
 3859SOL     OW20617   8.632   0.748   4.101 -0.0731 -0.1431  0.5671
 3859SOL    HW120618   8.712   0.767   4.044 -0.6193  0.4618 -0.0163
 3859SOL    HW220619   8.554   0.802   4.068 -0.5042 -0.0902  1.6433
 3860SOL     OW20620   1.906   2.103   6.428  0.2237  0.2743  0.5110
 3860SOL    HW120621   1.920   2.157   6.345  0.5777 -0.7840 -0.1331
 3860SOL    HW220622   1.995   2.074   6.464 -0.0058 -1.2287 -0.0733
 3861SOL     OW20623   0.848   9.878   5.703  0.0954 -0.8390 -0.0611
 3861SOL    HW120624   0.866   9.928   5.788  0.3933 -0.8225 -0.1346
 3861SOL    HW220625   0.753   9.893   5.675  0.4172  0.3523 -0.5291
 3862SOL     OW20626   2.500   8.189   3.403  0.4834 -0.2528 -0.2224
 3862SOL    HW120627   2.426   8.143   3.353 -0.7909  0.0380  1.3779
 3862SOL    HW220628   2.585   8.182   3.350 -0.2214 -2.3507 -1.1281
 3863SOL     OW20629   1.290   4.181   4.218  0.5886  0.0570 -0.0234
 3863SOL    HW120630   1.374   4.128   4.231  0.6724 -0.4279 -2.3152
 3863SOL    HW220631   1.242   4.148   4.136  0.0088  2.6811 -0.7906
 3864SOL     OW20632   0.551   9.402   3.497  0.8678 -0.3937  0.0898
 3864SOL    HW120633   0.586   9.488   3.458 -1.2577  0.9718  1.1010
 3864SOL    HW220634   0.492   9.357   3.430  0.2067  0.0583  0.3699
 3865SOL     OW20635   0.345   6.639   2.115  0.1549  0.3466 -0.0657
 3865SOL    HW120636   0.410   6.575   2.155 -1.7086 -1.1267  0.6912
 3865SOL    HW220637   0.309   6.601   2.029 -1.8462 -0.2353  0.9869
 3866SOL     OW20638   0.208   6.107   4.406  0.3765  0.0043 -0.6335
 3866SOL    HW120639   0.129   6.101   4.346  1.6596 -0.3792 -2.3451
 3866SOL    HW220640   0.277   6.041   4.376  1.9988  1.4674 -0.1826
 3867SOL     OW20641   9.111   5.326   2.721 -0.3680  0.2719 -0.5260
 3867SOL    HW120642   9.151   5.395   2.660 -1.3287  1.5879  0.3215
 3867SOL    HW220643   9.061   5.258   2.667  1.2263 -0.2200 -1.4272
 3868SOL     OW20644   8.725   5.498   0.935 -0.2916 -0.6773  0.2127
 3868SOL    HW120645   8.805   5.444   0.962  0.1097  0.0953  0.5638
 3868SOL    HW220646   8.645   5.437   0.929 -0.3702 -0.9120  3.0026
 3869SOL     OW20647   9.086   8.596   5.982 -0.1425 -0.7630  0.0885
 3869SOL    HW120648   9.156   8.533   6.016  0.2873  0.0228  0.6578
 3869SOL    HW220649   9.114   8.690   5.999 -1.7541 -0.4467  1.1479
 3870SOL     OW20650   2.222   7.883   6.157 -0.3993  0.2008 -0.2189
 3870SOL    HW120651   2.311   7.899   6.200  0.3901  0.7236 -1.9992
 3870SOL    HW220652   2.205   7.784   6.153  0.3924  0.0609 -0.4052
 3871SOL     OW20653   8.994   5.122   4.511 -0.7323 -0.2960  0.5598
 3871SOL    HW120654   9.058   5.196   4.533 -2.2865  0.8831  1.1983
 3871SOL    HW220655   9.022   5.077   4.426 -0.1948  1.5061 -0.2207
 3872SOL     OW20656   3.634   8.304   3.379 -0.1195 -0.2892 -0.6669
 3872SOL    HW120657   3.661   8.236   3.446  2.8309 -0.7355 -2.2420
 3872SOL    HW220658   3.659   8.395   3.411  1.6614 -0.5361 -1.2853
 3873SOL     OW20659   7.959   9.916   5.935 -0.0394  0.1403 -0.1424
 3873SOL    HW120660   7.880   9.855   5.933 -0.3555  0.5331  0.2739
 3873SOL    HW220661   8.016   9.900   5.854 -0.8196  0.2120 -0.7153
 3874SOL     OW20662   8.781   5.649   3.188  0.0315  0.0016 -0.6864
 3874SOL    HW120663   8.836   5.579   3.234 -0.6087 -0.4144 -0.5495
 3874SOL    HW220664   8.699   5.668   3.242 -0.7673 -0.5467 -1.6753
 3875SOL     OW20665   8.323   1.011   5.652 -0.2698 -0.0706 -0.3525
 3875SOL    HW120666   8.335   0.964   5.564  1.2590  2.4342 -1.5428
 3875SOL    HW220667   8.231   0.992   5.687 -0.5587 -1.8987 -2.0072
 3878SOL     OW20668   9.504   8.771   5.045 -0.3208  0.1496 -0.2248
 3878SOL    HW120669   9.445   8.850   5.030 -0.0294  0.4374  0.1432
 3878SOL    HW220670   9.594   8.788   5.003  0.4997  0.9608  1.8166
 3879SOL     OW20671   1.939   9.011   0.214  0.1447 -0.0070 -0.4367
 3879SOL    HW120672   2.013   9.074   0.238  2.1759 -1.4387 -2.6555
 3879SOL    HW220673   1.943   8.931   0.273  1.5063 -0.8866 -1.6914
 3880SOL     OW20674   0.207   0.465   5.538  0.8186  0.3032 -0.0137
 3880SOL    HW120675   0.247   0.421   5.617 -0.8863  1.3443  1.4639
 3880SOL    HW220676   0.211   0.564   5.549  0.7129  0.4699 -1.3122
 3881SOL     OW20677   2.599   1.683   0.725 -0.2665 -0.2535 -0.1504
 3881SOL    HW120678   2.596   1.772   0.680  0.3395  0.2452  0.7634
 3881SOL    HW220679   2.684   1.676   0.778 -1.3500 -0.4359  1.6265
 3882SOL     OW20680   2.670   8.833   6.239 -0.4605 -0.2653  0.1752
 3882SOL    HW120681   2.628   8.908   6.290  0.0301  1.5604 -2.0634
 3882SOL    HW220682   2.652   8.747   6.287  1.5928  1.5409  4.4329
 3883SOL     OW20683   4.325   0.544   4.080  0.3140  0.8911  0.0132
 3883SOL    HW120684   4.295   0.629   4.038 -0.0684  0.5708 -0.3682
 3883SOL    HW220685   4.296   0.466   4.023 -0.2168  0.4559  0.8666
 3884SOL     OW20686   7.275   8.294   5.743  0.3546  0.4759  0.5752
 3884SOL    HW120687   7.371   8.313   5.762 -0.1753  2.2109  1.5507
 3884SOL    HW220688   7.217   8.356   5.796 -1.2932 -0.1543 -0.4580
 3885SOL     OW20689   2.402   5.148   5.119 -0.6954 -0.1462  0.7449
 3885SOL    HW120690   2.356   5.235   5.136 -2.1968 -0.9038  0.6507
 3885SOL    HW220691   2.428   5.107   5.207 -0.6332  0.0502  0.8192
 3886SOL     OW20692   7.279   9.749   1.739  0.3219 -0.1984 -0.5937
 3886SOL    HW120693   7.217   9.826   1.722 -0.4318 -0.5481  0.5440
 3886SOL    HW220694   7.273   9.684   1.663 -1.1161 -0.4881 -0.2518
 3888SOL     OW20695   1.781   6.256   2.813  0.5843  0.0776  0.4199
 3888SOL    HW120696   1.694   6.286   2.851  0.2620 -0.4816  0.1384
 3888SOL    HW220697   1.772   6.161   2.780  1.5071 -0.2417  1.0775
 3889SOL     OW20698   8.354   2.192   3.891 -0.7078  0.3964 -0.3994
 3889SOL    HW120699   8.362   2.198   3.990  0.8007 -0.8449 -0.4296
 3889SOL    HW220700   8.420   2.126   3.856  0.9305  3.0638 -2.5246
 3890SOL     OW20701   5.631   1.249   5.369 -0.0190 -0.5565  0.4070
 3890SOL    HW120702   5.718   1.265   5.321 -0.5526 -1.6549 -0.9749
 3890SOL    HW220703   5.556   1.249   5.302 -0.9296 -0.9110  1.4144
 3891SOL     OW20704   5.220   9.176   3.372 -0.1933 -0.1631 -0.4942
 3891SOL    HW120705   5.276   9.178   3.289  1.4805 -2.8470  0.5230
 3891SOL    HW220706   5.255   9.242   3.438  0.4003 -0.2582 -0.7143
 3893SOL     OW20707   8.624   7.976   4.338  0.3692 -0.6442 -0.2676
 3893SOL    HW120708   8.687   7.946   4.409 -1.0897 -0.3438  1.1609
 3893SOL    HW220709   8.675   7.990   4.253  2.1559 -0.7852  0.7512
 3895SOL     OW20710   9.950   9.904   0.245 -0.3061  0.0501  0.3175
 3895SOL    HW120711   9.886   9.835   0.212  0.5233 -1.0991  1.0933
 3895SOL    HW220712  10.034   9.900   0.191  0.6984 -1.2175  1.9250
 3896SOL     OW20713   2.556   2.619   2.383  0.4209  0.0192  0.8132
 3896SOL    HW120714   2.470   2.662   2.412  0.1628 -0.5065  0.8444
 3896SOL    HW220715   2.535   2.545   2.319  0.9967  1.2527 -0.8201
 3897SOL     OW20716   4.324   8.271   6.177 -0.6958  0.0679  0.0114
 3897SOL    HW120717   4.333   8.363   6.138  0.3421 -0.4500 -0.9971
 3897SOL    HW220718   4.227   8.249   6.188 -0.9871  0.6795 -1.2012
 3899SOL     OW20719   0.657   1.165   3.630 -0.3400  0.5829  0.0579
 3899SOL    HW120720   0.691   1.259   3.622  0.7970  0.0400 -1.6573
 3899SOL    HW220721   0.733   1.101   3.618 -0.9229 -0.5582  2.2803
 3900SOL     OW20722   1.337   7.261   1.646  0.4994  0.0068  0.4253
 3900SOL    HW120723   1.357   7.218   1.558 -1.3660 -0.3639  0.1540
 3900SOL    HW220724   1.379   7.209   1.720 -1.7707 -2.3970  0.1042
 3901SOL     OW20725   2.621   2.973   4.964 -0.8328  0.0005 -0.4350
 3901SOL    HW120726   2.536   3.026   4.958  0.5854  2.2447 -1.5651
 3901SOL    HW220727   2.626   2.928   5.053 -2.4115  1.2630  0.3188
 3903SOL     OW20728   8.973   7.923   0.793 -0.3577  0.1446  1.1188
 3903SOL    HW120729   9.048   7.988   0.786 -0.1412  0.0887  2.7800
 3903SOL    HW220730   8.999   7.847   0.854 -1.0540 -0.8616  0.1940
 3904SOL     OW20731   1.247   3.456   2.388 -0.3544 -0.0058  0.5563
 3904SOL    HW120732   1.329   3.469   2.444  0.3085 -0.2741 -0.3247
 3904SOL    HW220733   1.178   3.523   2.413  1.1413  1.9942 -0.4888
 3905SOL     OW20734   8.074   7.043   2.652  0.0544 -1.4120 -0.5866
 3905SOL    HW120735   7.979   7.070   2.665 -0.2545 -1.4669 -2.4886
 3905SOL    HW220736   8.134   7.116   2.684 -0.6407 -1.0270 -0.1389
 3906SOL     OW20737   9.536   4.965   0.190  0.1050 -0.3119  0.0334
 3906SOL    HW120738   9.469   4.903   0.232 -0.4630 -0.1540 -0.6287
 3906SOL    HW220739   9.571   5.028   0.259 -3.0305  1.9098 -0.3052
 3908SOL     OW20740   0.261   7.977   0.318 -0.2788  0.3758  0.1800
 3908SOL    HW120741   0.203   7.924   0.256  0.2485  0.4943 -0.4060
 3908SOL    HW220742   0.208   8.002   0.399 -1.2222  0.9891 -0.6219
 3909SOL     OW20743   9.296   7.014   0.462 -0.0077  0.4967 -0.0709
 3909SOL    HW120744   9.347   7.036   0.545  2.3293 -0.3534 -1.2234
 3909SOL    HW220745   9.254   7.097   0.425 -0.2108  1.0527  1.3904
 3911SOL     OW20746   2.860   1.049   4.508 -0.1928  0.2783 -0.4494
 3911SOL    HW120747   2.785   1.100   4.465  0.1477  1.4474  0.3179
 3911SOL    HW220748   2.890   1.097   4.590  2.5552  0.7306 -1.6786
 3912SOL     OW20749   7.181   5.358   1.877  0.0575 -0.2010  0.0029
 3912SOL    HW120750   7.098   5.412   1.861  0.0050 -0.3522 -0.2478
 3912SOL    HW220751   7.258   5.399   1.828 -0.1573 -0.8047 -0.8536
 3913SOL     OW20752   9.408   1.873   4.478  0.2751  0.2822  0.0709
 3913SOL    HW120753   9.503   1.845   4.471  1.1610  3.3749 -1.3768
 3913SOL    HW220754   9.385   1.891   4.573  1.2652 -0.1438  0.3918
 3914SOL     OW20755   7.853   2.414   3.760 -0.2138  0.0794 -0.5048
 3914SOL    HW120756   7.921   2.487   3.772 -1.4735  1.1503  0.3299
 3914SOL    HW220757   7.871   2.365   3.676  0.6350  1.4186 -1.1181
 3915SOL     OW20758   8.008   4.096   5.164 -0.3006 -0.2658  0.4385
 3915SOL    HW120759   8.074   4.039   5.213 -1.4788 -1.6006  0.5118
 3915SOL    HW220760   8.037   4.191   5.168  0.1857 -0.4666  2.8855
 3916SOL     OW20761   7.688   9.157   6.365 -0.1203  0.0992 -0.1606
 3916SOL    HW120762   7.625   9.183   6.291 -0.3833 -2.5101 -0.9163
 3916SOL    HW220763   7.691   9.229   6.434 -0.4301  2.2754 -2.3583
 3918SOL     OW20764   0.962   7.372   1.291 -1.0223  0.2681  0.2285
 3918SOL    HW120765   1.008   7.301   1.238  0.2619  0.1665  1.4704
 3918SOL    HW220766   0.863   7.359   1.284 -0.8249 -0.8809 -0.5782
 3919SOL     OW20767   2.568   1.155   0.655  0.5838  0.1093 -0.1271
 3919SOL    HW120768   2.471   1.148   0.679  0.4488  1.2571 -0.2970
 3919SOL    HW220769   2.577   1.172   0.557  0.9585 -0.0824 -0.1264
 3920SOL     OW20770   5.507   2.601   4.043  0.1659 -0.1740  0.7564
 3920SOL    HW120771   5.560   2.609   3.959  0.8745 -2.6530  0.9145
 3920SOL    HW220772   5.409   2.602   4.021  0.3541 -1.3372 -0.1817
 3921SOL     OW20773   0.800   2.755   2.198 -0.3224  0.5374 -0.1853
 3921SOL    HW120774   0.712   2.719   2.228 -0.2576  1.5228  1.2398
 3921SOL    HW220775   0.798   2.771   2.099 -1.8935  0.9881 -0.0887
 3922SOL     OW20776   4.614   8.307   5.666  0.5216  0.1221  0.2716
 3922SOL    HW120777   4.616   8.309   5.766  0.6702  1.9329  0.2507
 3922SOL    HW220778   4.685   8.367   5.630 -0.8830  1.0978 -0.9085
 3923SOL     OW20779   5.336   4.969   0.330 -0.0681  0.3540  0.1255
 3923SOL    HW120780   5.237   4.986   0.326 -0.4688 -2.1351 -1.2467
 3923SOL    HW220781   5.383   5.035   0.271 -1.2350 -0.5697 -1.8953
 3924SOL     OW20782   9.207   2.768   4.962 -0.2054 -0.8527  0.0032
 3924SOL    HW120783   9.160   2.758   4.874  0.9428  0.3069 -0.7648
 3924SOL    HW220784   9.297   2.725   4.956  0.5215  0.6464  0.0774
 3925SOL     OW20785   2.699   0.195   3.064 -0.0726 -0.2996  0.1882
 3925SOL    HW120786   2.687   0.246   2.978  1.5229  0.7969  0.5939
 3925SOL    HW220787   2.690   0.258   3.141 -1.5470 -1.2963  0.8330
 3926SOL     OW20788   0.548   9.065   3.171  0.2489  0.2237  0.5487
 3926SOL    HW120789   0.628   9.118   3.198 -0.5688  1.1392  1.2053
 3926SOL    HW220790   0.572   9.006   3.094  1.0464  1.8839 -0.5059
 3927SOL     OW20791   4.419   1.117   5.326  0.0891 -0.1115 -0.0556
 3927SOL    HW120792   4.326   1.151   5.310  0.1886 -0.3240 -1.1428
 3927SOL    HW220793   4.418   1.017   5.324  0.4523 -0.1060 -0.7878
 3928SOL     OW20794   8.466   5.842   1.651  0.1425 -0.2044  0.3313
 3928SOL    HW120795   8.379   5.851   1.603 -0.3477 -0.1577  1.2302
 3928SOL    HW220796   8.515   5.762   1.617  0.0277  0.1213 -0.6099
 3929SOL     OW20797   5.611   8.464   3.963  0.3128 -0.1666 -0.1951
 3929SOL    HW120798   5.709   8.456   3.982 -0.0021  0.7791  1.8961
 3929SOL    HW220799   5.578   8.378   3.923  1.7880 -0.8379 -0.0176
 3930SOL     OW20800   1.924   2.398   2.344 -0.1601  0.2189  0.6225
 3930SOL    HW120801   1.864   2.421   2.268  0.4052 -0.8044 -0.1413
 3930SOL    HW220802   1.873   2.408   2.430 -1.8453 -1.8970 -0.0758
 3931SOL     OW20803   7.613   6.234   1.880  0.3456  0.0794  0.1413
 3931SOL    HW120804   7.531   6.178   1.865  0.1301  0.2782  0.5833
 3931SOL    HW220805   7.594   6.304   1.949  0.4078  1.1409 -0.8960
 3932SOL     OW20806   2.443   3.511   3.585 -0.3178 -0.2097  0.9698
 3932SOL    HW120807   2.441   3.465   3.497 -0.1864 -0.0268  0.8698
 3932SOL    HW220808   2.466   3.446   3.657  0.6597 -0.1395  0.7252
 3933SOL     OW20809   2.874   7.742   1.254  0.4864  0.6127 -0.2890
 3933SOL    HW120810   2.968   7.759   1.223  0.5579  1.1212  0.1986
 3933SOL    HW220811   2.810   7.773   1.184  0.6823  0.1817 -0.6626
 3934SOL     OW20812   9.991   4.049   2.000 -0.1506 -0.1170 -0.0761
 3934SOL    HW120813   9.901   4.004   2.002  0.0060 -0.4739 -0.6794
 3934SOL    HW220814  10.059   3.984   1.965  0.5146 -0.1351  1.2363
 3935SOL     OW20815   5.181   0.675   2.139 -0.3385 -0.1670 -0.1846
 3935SOL    HW120816   5.135   0.739   2.200 -1.3998 -0.0609 -1.0760
 3935SOL    HW220817   5.113   0.630   2.081  0.5214 -1.2150 -0.3992
 3936SOL     OW20818   4.997   1.294   0.584  0.4878 -0.4080  0.3305
 3936SOL    HW120819   4.951   1.372   0.540  0.4846 -1.9056 -2.4510
 3936SOL    HW220820   5.096   1.310   0.584  0.8244 -1.8920 -3.5459
 3937SOL     OW20821   8.588   3.356   1.910  0.1172  0.0739  0.5383
 3937SOL    HW120822   8.550   3.366   1.818  0.4279  1.8800  0.5923
 3937SOL    HW220823   8.547   3.277   1.955 -1.8503  0.6219 -0.2510
 3938SOL     OW20824   0.738   7.828   2.684  0.1630  0.2330  0.9283
 3938SOL    HW120825   0.837   7.822   2.673 -0.2835 -2.7156 -2.5084
 3938SOL    HW220826   0.702   7.897   2.622 -0.0592  0.4957  1.3481
 3940SOL     OW20827   7.989   9.507   1.574 -0.3373  0.2123  0.4915
 3940SOL    HW120828   7.900   9.542   1.605 -1.4319 -0.6473 -1.6074
 3940SOL    HW220829   7.994   9.511   1.474  0.5257 -3.1308  0.3340
 3941SOL     OW20830   3.343   1.714   2.499 -0.4080  0.7485  0.3629
 3941SOL    HW120831   3.388   1.779   2.560  0.6855 -0.9127  1.3677
 3941SOL    HW220832   3.267   1.670   2.547 -0.0813  0.0614  0.2619
 3944SOL     OW20833   4.749   0.958   0.446 -0.0809  0.2036  0.5290
 3944SOL    HW120834   4.650   0.943   0.449 -0.0106 -0.0974  1.4917
 3944SOL    HW220835   4.777   0.979   0.353 -1.3347  2.1201  0.5454
 3945SOL     OW20836   3.308   8.671   3.911 -0.0989  0.0739  0.2681
 3945SOL    HW120837   3.332   8.581   3.946 -1.3546  0.0093  0.9719
 3945SOL    HW220838   3.239   8.663   3.840  0.8607  0.3801 -0.7225
 3946SOL     OW20839   1.938   0.542   1.596  0.8568  0.3392  0.3630
 3946SOL    HW120840   1.901   0.603   1.527 -0.7168 -0.2600  0.6658
 3946SOL    HW220841   1.887   0.551   1.681 -0.2441 -2.2938  0.0266
 3947SOL     OW20842   7.240   0.312   1.173 -0.4238 -0.8266 -0.0463
 3947SOL    HW120843   7.203   0.403   1.159 -3.1209 -1.7371  0.7411
 3947SOL    HW220844   7.286   0.307   1.262  0.6807  0.0179 -0.5549
 3948SOL     OW20845   9.333   7.807   6.348 -0.2940  0.0514  0.1908
 3948SOL    HW120846   9.380   7.801   6.260  1.4011  1.2549  0.9816
 3948SOL    HW220847   9.257   7.742   6.350  0.9751 -1.5417 -1.3543
 3949SOL     OW20848   4.387   2.238   0.128  0.0892  0.2125  0.0220
 3949SOL    HW120849   4.398   2.250   0.226  0.0101 -0.2488  0.0895
 3949SOL    HW220850   4.424   2.317   0.080 -0.4971  0.7479  0.4549
 3950SOL     OW20851   2.878   5.711   5.635  0.0497  0.1237  0.4992
 3950SOL    HW120852   2.815   5.786   5.617  0.2877  0.2494  0.1876
 3950SOL    HW220853   2.828   5.632   5.670 -0.0156  0.9520  2.3456
 3951SOL     OW20854   7.329   5.228   0.329  0.2252  0.1642  0.6544
 3951SOL    HW120855   7.241   5.181   0.330  0.6051 -0.5625  0.7967
 3951SOL    HW220856   7.345   5.269   0.419 -0.0853  0.5228  0.5466
 3952SOL     OW20857   3.193   4.888   1.751 -0.3440 -0.1327  0.2193
 3952SOL    HW120858   3.212   4.985   1.759  0.2977 -0.1430 -1.0864
 3952SOL    HW220859   3.251   4.838   1.816  0.5314  0.2367 -0.2593
 3953SOL     OW20860   6.672   2.911   1.763  0.1961  0.7811  0.8907
 3953SOL    HW120861   6.703   3.004   1.740  0.6226  0.3636 -0.2861
 3953SOL    HW220862   6.686   2.894   1.860  0.3798  1.8578  1.0570
 3955SOL     OW20863   3.302   8.849   1.947  0.1550 -0.3602 -0.4725
 3955SOL    HW120864   3.336   8.756   1.943 -0.8284 -0.8820  2.1773
 3955SOL    HW220865   3.202   8.848   1.951  0.0846  0.8631 -1.4406
 3956SOL     OW20866   3.361   4.936   6.327  0.0552  0.2451 -0.1940
 3956SOL    HW120867   3.300   5.016   6.325 -1.1004 -0.6325 -0.3157
 3956SOL    HW220868   3.308   4.854   6.350  1.3509 -0.3926  0.5564
 3958SOL     OW20869   9.566   5.345   1.177 -0.1895  0.2321  0.0790
 3958SOL    HW120870   9.531   5.271   1.120  0.3081 -0.5345  0.7491
 3958SOL    HW220871   9.499   5.368   1.247 -0.6447  0.9141 -0.5727
 3959SOL     OW20872   7.282   2.277   4.833 -0.4123 -0.1445 -0.0862
 3959SOL    HW120873   7.374   2.258   4.801 -0.4437  0.2596 -0.4177
 3959SOL    HW220874   7.281   2.363   4.885 -1.0935  1.2548 -2.3600
 3960SOL     OW20875   1.673   2.766   1.255 -0.1260 -0.0779 -0.4542
 3960SOL    HW120876   1.611   2.689   1.238 -1.3298  0.1356  2.7002
 3960SOL    HW220877   1.753   2.735   1.306  0.1169  0.5093 -0.4704
 3961SOL     OW20878   3.114   7.050   2.901  0.1781 -0.1923  0.3461
 3961SOL    HW120879   3.184   7.037   2.831  0.4219  0.9937  0.3621
 3961SOL    HW220880   3.045   6.978   2.893  1.2959 -1.2677  0.2172
 3963SOL     OW20881   1.888   2.092   1.805  0.2231  0.1515  0.2043
 3963SOL    HW120882   1.929   2.029   1.739  0.7973  0.2637  0.4506
 3963SOL    HW220883   1.944   2.095   1.887  0.1886  0.9626  0.2063
 3964SOL     OW20884   6.747   1.755   1.879 -0.3534 -0.0904 -0.2104
 3964SOL    HW120885   6.688   1.778   1.956 -0.2778 -0.1448 -0.1357
 3964SOL    HW220886   6.696   1.697   1.815 -0.4113 -0.0591 -0.1930
 3966SOL     OW20887   3.140   1.314   0.764  0.1222 -0.0376 -0.2226
 3966SOL    HW120888   3.148   1.343   0.859  0.5738  1.3609 -0.6806
 3966SOL    HW220889   3.083   1.232   0.759 -1.0090  0.6543  1.1069
 3967SOL     OW20890   0.768   2.667   6.003  0.2444  0.1464  0.6630
 3967SOL    HW120891   0.677   2.689   6.038  0.3037  1.2102  0.1809
 3967SOL    HW220892   0.760   2.625   5.913  0.1248 -2.0040  1.6376
 3968SOL     OW20893   7.325   3.029   3.156 -0.3329  0.0385 -0.1293
 3968SOL    HW120894   7.404   2.993   3.106 -1.3629 -1.2847 -0.8360
 3968SOL    HW220895   7.354   3.064   3.244  1.0770 -0.2896 -0.4570
 3969SOL     OW20896   2.979   0.783   5.823  0.1334  0.4744  0.3753
 3969SOL    HW120897   3.000   0.880   5.830  0.8185  0.5471 -2.1859
 3969SOL    HW220898   3.051   0.730   5.868  1.2688  1.0650 -0.7161
 3970SOL     OW20899   0.165   4.235   4.812 -0.0361  0.5642  0.5110
 3970SOL    HW120900   0.119   4.172   4.749 -0.8656 -0.0225  1.6874
 3970SOL    HW220901   0.224   4.183   4.874 -1.1951  0.8677  1.8888
 3971SOL     OW20902   7.426   4.091   0.610  0.2307 -0.3546  0.5010
 3971SOL    HW120903   7.441   4.088   0.709  0.4200  3.1838  0.6261
 3971SOL    HW220904   7.341   4.043   0.588  0.0336 -0.9215  2.4052
 3973SOL     OW20905   8.931   2.726   4.034 -0.0031  0.1558 -0.3158
 3973SOL    HW120906   8.865   2.652   4.019  1.1180 -0.8604 -0.2864
 3973SOL    HW220907   8.933   2.785   3.953 -2.6572  1.5652  0.6013
 3974SOL     OW20908   8.391   2.670   0.608 -0.0151  0.1930  0.2280
 3974SOL    HW120909   8.351   2.607   0.541  0.9575 -0.6812  0.4524
 3974SOL    HW220910   8.321   2.732   0.642 -1.2680 -1.5145  0.8369
 3975SOL     OW20911   1.798   8.150   2.383  0.7282 -0.3483 -0.1884
 3975SOL    HW120912   1.768   8.064   2.341 -1.2460  0.0351  0.4213
 3975SOL    HW220913   1.767   8.153   2.478 -0.4030  1.6363 -0.6007
 3976SOL     OW20914   3.071   3.914   1.819  1.2570 -0.0786 -0.3229
 3976SOL    HW120915   3.087   3.878   1.728  3.3305  0.8960 -0.3674
 3976SOL    HW220916   3.154   3.908   1.874  0.6486  1.2906  0.8130
 3977SOL     OW20917   7.271   9.870   1.991  0.0326  0.0628  0.1783
 3977SOL    HW120918   7.253   9.806   1.917 -1.0217  0.3237  0.2075
 3977SOL    HW220919   7.259   9.963   1.958  0.1035  0.1984  0.5324
 3978SOL     OW20920   3.950   2.785   5.199  0.0308  0.0292 -0.0179
 3978SOL    HW120921   3.931   2.693   5.234 -1.8480  0.6811  0.7304
 3978SOL    HW220922   3.973   2.845   5.276  1.6739  0.0838 -0.5547
 3979SOL     OW20923   1.014   2.540   4.101 -0.1113 -0.1900 -0.4673
 3979SOL    HW120924   1.099   2.523   4.051  1.1068  2.4958  0.6129
 3979SOL    HW220925   0.970   2.622   4.066 -1.4464 -0.6634  0.0563
 3980SOL     OW20926   8.251   7.912   0.752 -0.2804  0.2067 -0.7481
 3980SOL    HW120927   8.335   7.964   0.771 -0.6107  0.3456  0.3417
 3980SOL    HW220928   8.172   7.963   0.784 -0.6219 -0.9088  0.2398
 3982SOL     OW20929   0.923   7.382   5.048  0.0762 -0.0398  0.4850
 3982SOL    HW120930   0.855   7.414   5.114  0.3223  1.2463  0.1267
 3982SOL    HW220931   1.010   7.364   5.096 -0.0090  0.0056  0.6557
 3983SOL     OW20932   6.635   7.998   4.589 -0.4829  0.4802 -0.0328
 3983SOL    HW120933   6.705   8.063   4.560 -0.2614  0.0476 -0.4746
 3983SOL    HW220934   6.666   7.905   4.571 -1.3256  0.2998 -0.5880
 3984SOL     OW20935   1.592   8.771   0.433  0.4191  0.0846  0.0426
 3984SOL    HW120936   1.519   8.804   0.373 -0.7754  1.6001  2.2519
 3984SOL    HW220937   1.570   8.679   0.466  0.5208 -0.2831 -0.8996
 3985SOL     OW20938   2.742   9.179   1.332  0.1105 -0.0559  0.0980
 3985SOL    HW120939   2.834   9.196   1.297 -0.1352  0.9611 -0.0678
 3985SOL    HW220940   2.744   9.104   1.397  1.1664  0.3776  0.5618
 3986SOL     OW20941   4.365   6.830   0.790 -0.1965 -0.3512 -0.1409
 3986SOL    HW120942   4.377   6.793   0.698 -0.4245  0.0193 -0.3143
 3986SOL    HW220943   4.422   6.777   0.854 -0.1507 -0.6972 -0.4683
 3987SOL     OW20944   2.021   2.409   4.670  0.0594 -0.8413 -0.1821
 3987SOL    HW120945   2.112   2.449   4.674  1.0951 -3.1158 -0.4356
 3987SOL    HW220946   1.989   2.409   4.575 -0.5674  0.6913  0.0122
 3988SOL     OW20947   3.066   7.231   3.383 -0.5058  0.7607  0.2875
 3988SOL    HW120948   3.122   7.150   3.392 -1.3184  0.0907 -0.5972
 3988SOL    HW220949   2.990   7.213   3.320 -0.5698  2.2662 -0.0928
 3989SOL     OW20950   3.495   3.558   4.565  0.2917 -0.1366  0.7042
 3989SOL    HW120951   3.414   3.518   4.608  0.5603 -0.9667  0.4632
 3989SOL    HW220952   3.523   3.500   4.488  0.9660  0.2810  0.6340
 3991SOL     OW20953   3.161   6.175   1.652 -0.1439  0.4366  0.0511
 3991SOL    HW120954   3.063   6.198   1.656  0.1766  1.5653  1.6588
 3991SOL    HW220955   3.213   6.239   1.709  1.3325 -1.2341  0.6214
 3992SOL     OW20956   7.391   2.251   0.189 -0.2554 -0.1585 -0.4398
 3992SOL    HW120957   7.446   2.231   0.270 -0.5562 -0.1724 -0.2344
 3992SOL    HW220958   7.315   2.186   0.184 -0.1151 -0.2921 -0.8531
 3993SOL     OW20959   0.546   0.815   2.083  0.1351 -0.5174 -0.3161
 3993SOL    HW120960   0.525   0.782   1.991 -0.1808 -3.0006  0.6239
 3993SOL    HW220961   0.465   0.863   2.119  0.7101  1.6925 -1.7989
 3994SOL     OW20962   7.891   7.024   5.696  0.7708 -0.6534  0.4575
 3994SOL    HW120963   7.986   7.053   5.710  0.7327 -1.1540  1.8312
 3994SOL    HW220964   7.834   7.105   5.680  1.4335 -0.3606 -0.4795
 3995SOL     OW20965   3.127   9.394   6.132 -0.2732 -0.2297  0.5750
 3995SOL    HW120966   3.202   9.335   6.103  0.1800 -0.4590  2.1782
 3995SOL    HW220967   3.140   9.485   6.094 -0.3772 -0.8436 -0.9858
 3996SOL     OW20968   6.789   3.989   0.629  0.0447  0.3595 -0.1413
 3996SOL    HW120969   6.764   4.064   0.568 -1.2775  0.9364  1.0682
 3996SOL    HW220970   6.723   3.984   0.704  1.9461  0.0387  1.5600
 3997SOL     OW20971   4.899   3.882   4.485 -0.3480 -0.0744 -0.5871
 3997SOL    HW120972   4.993   3.911   4.505 -0.5551 -0.6144  1.1908
 3997SOL    HW220973   4.840   3.963   4.480 -0.0520  0.1584 -0.3512
 3998SOL     OW20974   9.327   5.470   2.547  0.0941 -0.1102 -0.0140
 3998SOL    HW120975   9.385   5.469   2.465 -1.3117 -0.3143 -1.0332
 3998SOL    HW220976   9.282   5.559   2.554 -1.8284 -0.9773 -0.9560
 3999SOL     OW20977   6.749   0.798   5.780  0.0164 -0.0428  0.1408
 3999SOL    HW120978   6.717   0.879   5.730  1.2232  0.6429  0.4719
 3999SOL    HW220979   6.672   0.757   5.830 -0.2992  1.7463  1.1495
 4000SOL     OW20980   9.860   5.068   2.761  0.1526 -0.4110  0.4707
 4000SOL    HW120981   9.941   5.045   2.707  0.3797  1.5297 -0.0689
 4000SOL    HW220982   9.792   5.113   2.702  0.0119  0.8613  1.5770
 4001SOL     OW20983   7.903   1.983   5.463  0.4389 -0.1517 -0.2464
 4001SOL    HW120984   7.978   2.011   5.521  1.1163 -1.2571 -0.5678
 4001SOL    HW220985   7.846   1.916   5.511 -0.6327  1.0394  0.1765
 4002SOL     OW20986   6.491   2.290   0.472 -0.1539 -0.0038  0.1063
 4002SOL    HW120987   6.494   2.195   0.440 -0.8043 -0.8571  2.4679
 4002SOL    HW220988   6.404   2.331   0.444 -0.3122 -0.4277 -0.0318
 4003SOL     OW20989   8.527   1.988   3.818  0.3053 -0.2164  0.3509
 4003SOL    HW120990   8.592   1.944   3.881 -0.9185 -0.9268  1.1354
 4003SOL    HW220991   8.483   1.919   3.762  0.1754  0.2633 -0.1452
 4004SOL     OW20992   7.950   8.811   4.654  0.4637  0.0145 -0.3236
 4004SOL    HW120993   8.017   8.758   4.603  1.3386  0.4357  0.3712
 4004SOL    HW220994   7.863   8.761   4.657  0.6486 -0.3898 -1.4901
 4005SOL     OW20995   0.767   1.987   3.919 -0.0795  0.4456 -0.1930
 4005SOL    HW120996   0.814   1.899   3.935 -0.7886  0.2210  0.6852
 4005SOL    HW220997   0.796   2.024   3.831 -1.0189 -1.4826 -1.3622
 4006SOL     OW20998   9.865   3.479   1.602 -0.6462  0.4029 -0.0999
 4006SOL    HW120999   9.820   3.514   1.683  0.3392  0.6131  0.3645
 4006SOL    HW221000   9.955   3.522   1.592 -0.1942 -0.6022 -0.5495
 4007SOL     OW21001   1.789   4.451   5.069 -0.1668 -0.1745  0.3477
 4007SOL    HW121002   1.855   4.491   5.132 -1.9028  3.5725 -0.1094
 4007SOL    HW221003   1.821   4.461   4.975 -0.4424 -0.2252  0.2464
 4008SOL     OW21004   9.006   4.826   2.862 -0.5982  0.4858 -0.0589
 4008SOL    HW121005   9.055   4.905   2.897  1.7562 -0.9539  0.0084
 4008SOL    HW221006   8.948   4.788   2.935 -0.6612  1.3139  0.3236
 4009SOL     OW21007   4.103   2.794   2.116  0.0311  0.3334 -0.1055
 4009SOL    HW121008   4.058   2.880   2.092 -1.0919 -0.1300  0.2808
 4009SOL    HW221009   4.094   2.729   2.041 -1.5374 -0.3628  0.6509
 4010SOL     OW21010   4.305   1.051   2.109  0.0170 -0.1769 -0.1464
 4010SOL    HW121011   4.400   1.020   2.108  0.3111  0.7035 -0.5478
 4010SOL    HW221012   4.277   1.077   2.017 -0.7355 -0.7714 -0.0919
 4011SOL     OW21013   1.053   0.991   3.652  0.0572  0.3528 -0.0994
 4011SOL    HW121014   1.131   1.006   3.712  0.2936 -1.4893  0.1059
 4011SOL    HW221015   1.068   0.908   3.598  0.0507  2.2352 -3.0908
 4012SOL     OW21016   1.387   7.550   4.588  0.1208  0.4810  0.9952
 4012SOL    HW121017   1.462   7.561   4.654  0.7035 -0.8943  0.5669
 4012SOL    HW221018   1.422   7.564   4.495 -0.5482  1.6686  0.9092
 4013SOL     OW21019   4.043   5.130   0.239 -0.0763  0.3739 -0.1187
 4013SOL    HW121020   4.075   5.067   0.168  0.1787  0.2764  0.0830
 4013SOL    HW221021   3.981   5.083   0.301  0.3147  0.2583  0.1809
 4014SOL     OW21022   5.087   2.385   3.101  0.3471  0.3745  0.0616
 4014SOL    HW121023   4.994   2.424   3.097  0.4236  0.3966 -1.4787
 4014SOL    HW221024   5.145   2.446   3.155 -0.4684  0.4879  0.8297
 4015SOL     OW21025   7.782   6.227   6.263  0.1602 -0.0056 -0.2308
 4015SOL    HW121026   7.866   6.198   6.218 -0.4434 -0.0461 -1.3584
 4015SOL    HW221027   7.801   6.250   6.358  0.9917 -2.3879  0.2148
 4017SOL     OW21028   8.396   7.687   1.542 -0.5847  0.4345  0.7592
 4017SOL    HW121029   8.387   7.664   1.445  0.7039  1.0890  0.4579
 4017SOL    HW221030   8.419   7.784   1.550  1.2122 -0.0398  1.6134
 4019SOL     OW21031   0.484   2.867   3.932 -0.2242  0.1602  0.3534
 4019SOL    HW121032   0.397   2.842   3.977 -0.0696  2.0580  1.7844
 4019SOL    HW221033   0.505   2.962   3.952  1.0805  0.3584 -1.8716
 4020SOL     OW21034   6.818   0.070   2.066 -0.0990  0.3272  0.1920
 4020SOL    HW121035   6.886  -0.003   2.073 -0.0260  0.4752  0.9945
 4020SOL    HW221036   6.864   0.155   2.040 -0.0441  0.3280  0.2931
 4021SOL     OW21037   1.311   4.116   5.199 -0.2589 -0.2427 -0.1034
 4021SOL    HW121038   1.262   4.029   5.186 -2.0966  0.2136  3.2378
 4021SOL    HW221039   1.391   4.101   5.257  0.3815  0.0139 -0.9152
 4022SOL     OW21040   9.669   4.576   5.939 -0.1975  0.1630  0.7160
 4022SOL    HW121041   9.583   4.627   5.947 -1.6877 -2.1531  0.0294
 4022SOL    HW221042   9.650   4.478   5.942  2.0110 -0.4820 -2.8364
 4023SOL     OW21043   4.143   8.281   4.126  0.1249  0.0979  0.0264
 4023SOL    HW121044   4.125   8.344   4.201 -2.1651  0.7164 -1.0076
 4023SOL    HW221045   4.216   8.319   4.068 -0.8320  1.5481 -0.2665
 4024SOL     OW21046   4.014   6.980   3.556  0.2403  0.2854 -0.3262
 4024SOL    HW121047   4.003   6.947   3.463  0.4095 -0.2808 -0.1464
 4024SOL    HW221048   3.930   7.025   3.586 -0.1602 -0.4206 -0.3946
 4025SOL     OW21049   2.166   0.083   2.868  0.1200 -0.1562 -0.2233
 4025SOL    HW121050   2.173  -0.007   2.910 -0.1505 -0.2929 -0.4659
 4025SOL    HW221051   2.187   0.154   2.936 -1.7475 -0.3056  0.5485
 4026SOL     OW21052   5.516   9.392   5.765  0.3853 -0.5660  0.3083
 4026SOL    HW121053   5.449   9.330   5.725  1.5675 -2.1996  0.8331
 4026SOL    HW221054   5.503   9.484   5.727  0.5557 -1.7586 -2.7499
 4027SOL     OW21055   8.138   2.316   5.845  0.0021  0.2440  0.3386
 4027SOL    HW121056   8.126   2.415   5.842 -1.6650  0.0118 -1.6173
 4027SOL    HW221057   8.203   2.288   5.775  0.3213 -0.0642  0.7565
 4028SOL     OW21058   8.090   9.705   1.180  0.3741  0.4398 -0.4919
 4028SOL    HW121059   8.037   9.789   1.165 -0.4422 -0.4235 -2.5864
 4028SOL    HW221060   8.134   9.709   1.270 -1.6490  2.0330  0.4576
 4029SOL     OW21061   4.436   0.146   4.681 -0.0339 -0.0589 -0.1991
 4029SOL    HW121062   4.526   0.173   4.714 -0.2586 -0.1362  0.4903
 4029SOL    HW221063   4.391   0.223   4.637  0.0628  0.1887  0.1377
 4030SOL     OW21064   3.420   9.087   2.660 -0.7726  0.5056 -0.4521
 4030SOL    HW121065   3.338   9.102   2.604 -1.4520 -0.4651  0.2533
 4030SOL    HW221066   3.414   8.997   2.703 -0.4607  1.3913  1.4966
 4032SOL     OW21067   3.804   5.456   3.492 -0.1903 -0.0416 -0.1104
 4032SOL    HW121068   3.728   5.405   3.533 -0.3781 -0.4010 -0.8867
 4032SOL    HW221069   3.873   5.476   3.562  0.2541 -2.0621  0.0698
 4033SOL     OW21070   8.121   7.144   0.317 -0.2042 -0.0070 -0.3991
 4033SOL    HW121071   8.059   7.065   0.315  0.5342 -0.6829  1.8254
 4033SOL    HW221072   8.071   7.227   0.291 -1.2892 -1.0027 -1.5526
 4034SOL     OW21073   1.716   1.368   3.193  0.0199  0.2859 -0.0479
 4034SOL    HW121074   1.740   1.362   3.097  2.1385 -2.0171  0.5759
 4034SOL    HW221075   1.754   1.453   3.232  1.5381 -0.1077 -0.6246
 4036SOL     OW21076   0.136   7.948   1.690 -0.0209  0.7389 -0.0167
 4036SOL    HW121077   0.096   8.004   1.618 -0.3882  0.2481 -0.2022
 4036SOL    HW221078   0.186   8.006   1.754 -0.7912  1.3396  0.0593
 4037SOL     OW21079   8.342   2.676   3.020 -0.6179  0.2633  0.4797
 4037SOL    HW121080   8.303   2.765   2.999 -0.1548 -0.2566 -2.8956
 4037SOL    HW221081   8.295   2.606   2.965  0.8040 -1.1921  1.0971
 4038SOL     OW21082   9.047   8.892   1.243 -0.3787  0.0054 -0.3303
 4038SOL    HW121083   9.067   8.933   1.154 -2.5639 -1.2220 -1.4507
 4038SOL    HW221084   8.979   8.948   1.291 -0.0010  0.1021  0.0865
 4039SOL     OW21085   3.715   3.580   5.215 -0.8437 -0.3344  0.4060
 4039SOL    HW121086   3.620   3.570   5.244 -0.2993 -2.1027  1.6911
 4039SOL    HW221087   3.775   3.579   5.296  0.2314  1.4022 -0.3334
 4040SOL     OW21088   9.478   5.545   2.327 -0.0920  0.3947 -0.9383
 4040SOL    HW121089   9.560   5.575   2.376 -0.7654  0.7158  0.0227
 4040SOL    HW221090   9.417   5.624   2.315  0.0483  0.3115 -2.2787
 4041SOL     OW21091   7.431   0.790   1.201  0.5479  0.0676 -0.0816
 4041SOL    HW121092   7.500   0.738   1.151 -1.7185 -2.0806 -1.0997
 4041SOL    HW221093   7.359   0.818   1.138 -0.7553  0.0970  1.4025
 4042SOL     OW21094   3.834   6.904   4.415  0.3578  0.8189  0.2315
 4042SOL    HW121095   3.915   6.962   4.428  0.5876  0.7484 -0.8397
 4042SOL    HW221096   3.852   6.838   4.342 -1.5020  2.3842 -1.7047
 4043SOL     OW21097   5.221   7.782   2.210  0.0823  0.2144 -0.1457
 4043SOL    HW121098   5.227   7.724   2.291 -0.3106  1.0664  0.5033
 4043SOL    HW221099   5.195   7.727   2.131  0.9393 -0.7103  0.2089
 4044SOL     OW21100   2.461   4.206   1.253  0.1612 -0.2680 -0.0669
 4044SOL    HW121101   2.509   4.119   1.265 -0.0061 -0.4180 -0.4523
 4044SOL    HW221102   2.521   4.271   1.207 -0.4810 -0.9258 -1.8980
 4045SOL     OW21103   4.474   1.063   5.880 -0.3464 -0.1172  0.5234
 4045SOL    HW121104   4.552   1.108   5.923  0.0093 -0.9676  0.7800
 4045SOL    HW221105   4.506   1.005   5.805 -0.7712 -0.1948  0.3987
 4046SOL     OW21106   6.955   9.392   6.217 -0.2803  0.3166 -0.1773
 4046SOL    HW121107   6.920   9.384   6.311  1.2514  1.4262  0.5100
 4046SOL    HW221108   6.883   9.425   6.157 -0.4387  2.5952  1.2048
 4048SOL     OW21109   7.051   1.504   5.990 -0.4280  0.7945  0.7128
 4048SOL    HW121110   7.141   1.506   6.034  0.5450 -0.5849 -1.1506
 4048SOL    HW221111   7.050   1.570   5.914 -0.1633 -0.8285 -0.7467
 4049SOL     OW21112   3.069   8.022   5.958  0.6569  0.8922 -0.3870
 4049SOL    HW121113   3.004   8.061   6.024 -1.0948 -0.9438 -0.9762
 4049SOL    HW221114   3.109   7.939   5.997  1.2473  0.9872 -0.7866
 4050SOL     OW21115   8.208   3.453   6.156  0.9107 -0.0500 -0.3341
 4050SOL    HW121116   8.152   3.374   6.131  1.0750 -0.2396 -0.1006
 4050SOL    HW221117   8.284   3.463   6.092  0.0661  0.7798 -1.2347
 4052SOL     OW21118   2.145   5.428   5.773 -0.1441  0.5509 -0.4713
 4052SOL    HW121119   2.148   5.370   5.692 -3.1158 -1.0988  0.5352
 4052SOL    HW221120   2.162   5.374   5.855 -1.8014  1.2888  0.3904
 4055SOL     OW21121   7.994   9.731   6.421  0.6658  0.8677  0.0377
 4055SOL    HW121122   8.007   9.635   6.396  1.5131  1.3165 -1.3262
 4055SOL    HW221123   7.925   9.738   6.493 -1.8522 -0.4875 -2.1579
 4056SOL     OW21124   4.389   3.104   0.685 -0.2267 -0.1735 -0.3384
 4056SOL    HW121125   4.484   3.098   0.714 -0.2354  0.3662 -0.1902
 4056SOL    HW221126   4.340   3.168   0.744 -0.4393  0.3044 -1.0247
 4057SOL     OW21127   1.227   6.162   6.051  0.0284 -0.0427  0.5642
 4057SOL    HW121128   1.202   6.092   6.117  0.5240 -0.3348  0.4486
 4057SOL    HW221129   1.323   6.188   6.065  0.4825 -0.9418 -0.7717
 4058SOL     OW21130   0.855   9.074   4.555  0.3715 -0.6451  0.0435
 4058SOL    HW121131   0.933   9.133   4.577  0.6163 -1.2544  0.8536
 4058SOL    HW221132   0.821   9.096   4.464 -0.6095  1.9213  0.9636
 4059SOL     OW21133   4.298   4.863   0.270 -0.1455  0.0262 -0.0975
 4059SOL    HW121134   4.341   4.950   0.291 -0.9599 -0.3671  3.5565
 4059SOL    HW221135   4.358   4.788   0.299 -1.6850 -0.5521  1.6509
 4061SOL     OW21136   9.388   7.386   1.445  0.4741 -0.0232 -0.1839
 4061SOL    HW121137   9.349   7.472   1.411  0.4817  0.3512  0.7519
 4061SOL    HW221138   9.362   7.374   1.541 -2.1122 -2.5577 -1.1294
 4062SOL     OW21139   2.764   9.337   2.350  0.3836 -0.8188  0.4104
 4062SOL    HW121140   2.821   9.268   2.395  2.6752  0.4735 -0.3874
 4062SOL    HW221141   2.820   9.388   2.284 -1.1342  2.0263  1.2149
 4063SOL     OW21142   2.325   2.684   1.160 -0.4514  0.3295  0.2714
 4063SOL    HW121143   2.325   2.608   1.095  0.2912  0.3716  0.2223
 4063SOL    HW221144   2.245   2.742   1.143 -1.1640 -0.5739  0.4747
 4064SOL     OW21145   8.489   9.598   5.177  0.8622  0.4713 -0.6130
 4064SOL    HW121146   8.486   9.500   5.156  0.7044  0.3057  0.1518
 4064SOL    HW221147   8.421   9.646   5.121 -0.1615 -0.0880  0.1135
 4065SOL     OW21148   2.312   6.882   0.344 -0.2862  0.3417 -0.4248
 4065SOL    HW121149   2.370   6.885   0.425  0.2117  0.0668 -0.7675
 4065SOL    HW221150   2.216   6.875   0.371 -0.1012 -0.0162  0.1328
 4066SOL     OW21151   6.601   1.415   6.174 -0.1653 -0.6409  0.2152
 4066SOL    HW121152   6.601   1.474   6.255 -0.0703 -1.9849  1.2181
 4066SOL    HW221153   6.601   1.471   6.092  0.9996  0.7621  1.1400
 4068SOL     OW21154   3.575   6.279   5.300 -0.3376 -0.4193 -0.2774
 4068SOL    HW121155   3.573   6.262   5.398  0.4848 -0.9243 -0.3430
 4068SOL    HW221156   3.523   6.362   5.279  1.0333  0.7313  0.7985
 4069SOL     OW21157   8.349   2.692   4.734  0.5236 -0.4145  0.2781
 4069SOL    HW121158   8.309   2.779   4.706 -0.6896 -1.3245 -0.9050
 4069SOL    HW221159   8.346   2.628   4.658  3.2128 -0.8916  0.5490
 4070SOL     OW21160   8.879   1.261   2.238 -0.7015 -0.4615  0.8202
 4070SOL    HW121161   8.890   1.354   2.275 -1.1887  0.0300 -0.2501
 4070SOL    HW221162   8.782   1.240   2.228 -0.5717 -0.3789 -0.6801
 4072SOL     OW21163   9.464   8.902   2.689 -0.0073  0.1273  0.5423
 4072SOL    HW121164   9.373   8.888   2.649 -0.0507  0.9722  0.3442
 4072SOL    HW221165   9.485   8.999   2.691  1.2943 -0.1248 -0.2976
 4073SOL     OW21166   1.414   3.351   0.512  0.3923  0.4021  0.1137
 4073SOL    HW121167   1.399   3.450   0.514  0.7352  0.4432  1.0489
 4073SOL    HW221168   1.500   3.331   0.464  0.0111  0.5171 -0.6155
 4074SOL     OW21169   1.699   4.922   2.030  0.3903 -0.6171 -0.2392
 4074SOL    HW121170   1.669   4.972   2.111  2.3363 -0.8095  0.6261
 4074SOL    HW221171   1.742   4.836   2.058  1.6426 -0.3917 -1.4259
 4075SOL     OW21172   0.331   4.396   0.415 -0.3551  0.1451  0.0982
 4075SOL    HW121173   0.377   4.312   0.443  0.4075  0.1910 -0.9874
 4075SOL    HW221174   0.347   4.412   0.317 -2.1357  0.5050 -0.1625
 4076SOL     OW21175   9.433   9.129   4.456  0.7426  0.1950 -0.9380
 4076SOL    HW121176   9.467   9.055   4.514 -1.3041 -0.7305 -0.9094
 4076SOL    HW221177   9.485   9.130   4.370  0.1812 -1.8459 -1.3157
 4077SOL     OW21178   7.735   5.959   2.017 -0.6066  0.0310 -0.2435
 4077SOL    HW121179   7.741   6.040   1.959  0.5930  0.4146  0.4092
 4077SOL    HW221180   7.825   5.916   2.025 -1.1789 -1.2057 -0.3491
 4078SOL     OW21181   9.970   8.804   2.829  0.4998  0.0922  0.0758
 4078SOL    HW121182  10.005   8.751   2.907 -2.0909 -2.0454 -0.1321
 4078SOL    HW221183   9.918   8.882   2.863  1.0673  0.3055  0.4620
 4079SOL     OW21184   3.665   4.155   0.190  0.0077  0.0928  0.0178
 4079SOL    HW121185   3.754   4.114   0.170 -1.7483 -3.2314 -1.3180
 4079SOL    HW221186   3.625   4.189   0.105  0.2900  2.2938  0.7325
 4081SOL     OW21187   2.794   5.605   3.040 -0.0627 -0.2043 -0.0911
 4081SOL    HW121188   2.715   5.658   3.012  0.6572 -0.1138 -2.0091
 4081SOL    HW221189   2.859   5.664   3.088 -0.3833  0.0975 -0.0321
 4083SOL     OW21190   7.122   4.001   0.288  0.0955 -0.3183 -0.0177
 4083SOL    HW121191   7.026   4.012   0.260  0.1216 -1.9933 -0.8161
 4083SOL    HW221192   7.179   4.066   0.239 -0.4182 -0.4268 -0.7600
 4084SOL     OW21193   6.182   2.187   1.000 -0.3948 -0.1206 -0.0548
 4084SOL    HW121194   6.101   2.243   0.982 -1.2714 -1.8199 -1.6839
 4084SOL    HW221195   6.168   2.135   1.085  0.1410  1.5958  1.0976
 4085SOL     OW21196   8.408   9.371   6.390 -0.4389 -0.1446 -0.4107
 4085SOL    HW121197   8.379   9.462   6.361 -0.5212 -0.3823 -1.0743
 4085SOL    HW221198   8.327   9.311   6.397 -0.1391 -0.7838 -2.1647
 4086SOL     OW21199   7.974   1.387   3.981 -0.5557  0.0372  0.3244
 4086SOL    HW121200   7.899   1.414   3.921 -0.0577 -0.3226 -0.4576
 4086SOL    HW221201   7.937   1.344   4.063 -1.1476 -1.5444 -0.7620
 4087SOL     OW21202   4.060   9.384   4.009 -0.1278 -0.0326  0.4401
 4087SOL    HW121203   4.071   9.323   4.088  1.4817  0.2052  0.4162
 4087SOL    HW221204   4.079   9.478   4.036 -0.2002  0.1392 -0.0902
 4088SOL     OW21205   7.578   3.855   1.228  0.1838 -0.1100 -0.0555
 4088SOL    HW121206   7.593   3.756   1.229 -0.2889 -0.2013 -1.3969
 4088SOL    HW221207   7.616   3.894   1.145 -0.9529  0.6200 -0.2476
 4089SOL     OW21208   7.386   4.542   2.843 -0.4253 -0.5163 -0.4265
 4089SOL    HW121209   7.297   4.506   2.814 -0.2719  0.2599 -1.8952
 4089SOL    HW221210   7.458   4.477   2.819 -0.3429 -0.0582 -1.4352
 4090SOL     OW21211   1.359   2.522   4.642 -0.5754  0.2279  0.0112
 4090SOL    HW121212   1.288   2.481   4.584  0.3911  0.4219 -1.3338
 4090SOL    HW221213   1.366   2.619   4.623  1.6552 -0.2077 -1.6119
 4091SOL     OW21214   2.195   8.935   6.160 -0.1689  0.3695 -0.2260
 4091SOL    HW121215   2.143   8.974   6.084 -1.1013 -1.4227 -0.5263
 4091SOL    HW221216   2.264   8.871   6.125  0.2206  0.4517  0.3700
 4092SOL     OW21217   1.373   3.002   2.307  0.0925 -0.3022  0.3127
 4092SOL    HW121218   1.413   3.025   2.218  1.4549 -2.5275  0.3047
 4092SOL    HW221219   1.273   2.999   2.299 -0.0514  3.5755 -0.1009
 4093SOL     OW21220   7.764   9.260   5.497 -0.2493  0.3377  0.1522
 4093SOL    HW121221   7.826   9.256   5.576 -1.1999  0.0231  0.8909
 4093SOL    HW221222   7.815   9.238   5.414  0.4226 -0.9115  0.8801
 4094SOL     OW21223   7.281   4.908   1.031 -0.0560 -0.2976 -0.1947
 4094SOL    HW121224   7.264   4.811   1.047  0.1613 -0.1559  1.0009
 4094SOL    HW221225   7.240   4.962   1.105 -1.3390  0.6229 -1.5522
 4095SOL     OW21226   8.411   6.434   2.120 -0.1553  0.1024  0.3137
 4095SOL    HW121227   8.353   6.435   2.202 -0.4427 -0.5463  0.1232
 4095SOL    HW221228   8.441   6.341   2.102 -0.9611  0.0708 -0.9170
 4096SOL     OW21229   0.760   1.002   0.694 -0.2649  0.2488 -0.5609
 4096SOL    HW121230   0.748   1.084   0.639 -1.2130 -0.2439 -1.1039
 4096SOL    HW221231   0.671   0.961   0.713  0.2045 -0.7262 -0.4132
 4097SOL     OW21232   8.646   9.588   6.331 -0.8581 -0.0694 -0.2973
 4097SOL    HW121233   8.708   9.604   6.408 -1.9617 -0.6604  0.7405
 4097SOL    HW221234   8.653   9.493   6.302 -1.9087 -0.3706  0.4067
 4098SOL     OW21235   9.611   0.850   1.249 -0.0683  0.2155  0.8201
 4098SOL    HW121236   9.599   0.767   1.195  0.9941 -0.1270  1.1086
 4098SOL    HW221237   9.600   0.829   1.346  2.0002  0.0413  1.0376
 4099SOL     OW21238   5.917   7.635   4.864  0.3410 -0.1366  0.1727
 4099SOL    HW121239   5.882   7.554   4.817 -1.9110  0.6189  0.5083
 4099SOL    HW221240   5.948   7.702   4.795 -0.4686 -0.1076 -0.1623
 4100SOL     OW21241   3.531   9.522   0.952 -0.0510  0.0016  0.0596
 4100SOL    HW121242   3.586   9.517   0.868  0.2736  1.4697  0.1679
 4100SOL    HW221243   3.572   9.464   1.022  1.5644  1.2738  0.2208
 4101SOL     OW21244   0.192   6.476   5.613  0.0565  0.0281 -0.0535
 4101SOL    HW121245   0.219   6.546   5.547  0.3919  0.1715  0.2294
 4101SOL    HW221246   0.246   6.488   5.697  0.7484 -1.1190 -0.3278
 4102SOL     OW21247   8.180   9.554   5.802  0.5037 -0.1550 -0.4741
 4102SOL    HW121248   8.260   9.613   5.806  0.9026 -0.7715  1.0307
 4102SOL    HW221249   8.209   9.459   5.791 -0.1046 -0.1789 -2.0550
 4103SOL     OW21250   8.685   8.606   0.567 -0.0366 -0.3222 -0.5441
 4103SOL    HW121251   8.641   8.566   0.487  1.6119 -0.7329 -1.2572
 4103SOL    HW221252   8.641   8.694   0.588 -0.9239 -0.5320 -1.4810
 4105SOL     OW21253   4.832   2.326   4.763  0.1845 -0.7895  0.5821
 4105SOL    HW121254   4.759   2.268   4.727 -1.1407  1.0772  0.1714
 4105SOL    HW221255   4.804   2.422   4.756  2.6507 -0.0481  0.5083
 4106SOL     OW21256   1.721   9.454   4.923 -0.1324 -0.4278 -0.0295
 4106SOL    HW121257   1.768   9.443   5.010  1.2123 -2.1804 -0.9598
 4106SOL    HW221258   1.782   9.498   4.857 -0.4763 -0.9027 -0.6672
 4107SOL     OW21259   2.430   4.146   1.843  0.0661 -0.5213  0.1991
 4107SOL    HW121260   2.400   4.237   1.873 -0.8383 -0.6223 -0.3754
 4107SOL    HW221261   2.350   4.092   1.815  0.9029 -0.3198 -2.7085
 4108SOL     OW21262   7.076   4.608   2.052  0.7524  0.2526 -0.2227
 4108SOL    HW121263   7.088   4.705   2.074  1.5274 -0.2410  1.6058
 4108SOL    HW221264   6.979   4.586   2.047  0.5236  0.2925  3.2573
 4109SOL     OW21265   9.037   5.123   0.849 -0.2275  0.4843 -0.0905
 4109SOL    HW121266   9.084   5.117   0.937  0.9501  2.9010 -0.5101
 4109SOL    HW221267   8.940   5.105   0.862  0.0178  0.2999  1.6025
 4110SOL     OW21268   8.231   3.843   3.380 -0.1576  0.1026 -0.3622
 4110SOL    HW121269   8.331   3.838   3.380  0.0118  2.7758  0.2590
 4110SOL    HW221270   8.198   3.870   3.290 -0.4150 -1.7384 -0.8465
 4111SOL     OW21271   5.780   7.865   6.373 -0.3789 -0.2677 -0.2245
 4111SOL    HW121272   5.868   7.879   6.328 -0.4171  1.0822  0.1121
 4111SOL    HW221273   5.732   7.789   6.328  0.7795 -0.7610 -0.6568
 4113SOL     OW21274   9.808   1.357   5.637 -0.1451 -0.4355  0.0677
 4113SOL    HW121275   9.787   1.313   5.550 -2.4864  1.7461 -0.5258
 4113SOL    HW221276   9.816   1.288   5.709 -2.0081 -1.9586 -1.1538
 4114SOL     OW21277   9.398   4.279   0.700 -0.3762  0.4748  0.2873
 4114SOL    HW121278   9.430   4.322   0.784 -0.4741 -1.7477  1.4768
 4114SOL    HW221279   9.302   4.253   0.709 -0.1433 -0.5743 -0.1867
 4115SOL     OW21280   3.708   9.419   6.446 -0.2324 -0.3296 -0.1616
 4115SOL    HW121281   3.797   9.454   6.417  0.1883  0.6352  2.1765
 4115SOL    HW221282   3.668   9.363   6.373  1.8934 -0.0632 -1.5548
 4116SOL     OW21283   8.192   0.755   2.438  0.2221 -0.5085  0.7384
 4116SOL    HW121284   8.106   0.706   2.419  0.6989 -1.4839  1.0870
 4116SOL    HW221285   8.267   0.690   2.442  1.1112  0.4341 -0.3252
 4117SOL     OW21286   7.692   4.219   2.367  0.5498 -0.2473  0.0135
 4117SOL    HW121287   7.735   4.135   2.332 -1.9442 -1.1269 -1.0369
 4117SOL    HW221288   7.594   4.217   2.348  0.5571  3.2650 -0.6582
 4118SOL     OW21289   1.821   3.380   4.548  0.1155  0.6871  0.2906
 4118SOL    HW121290   1.857   3.288   4.564 -2.0402 -0.2798 -0.1549
 4118SOL    HW221291   1.832   3.435   4.630  0.0045 -0.4871  1.1049
 4119SOL     OW21292   4.098   2.239   1.513 -0.1873 -0.6282  0.0512
 4119SOL    HW121293   4.021   2.177   1.497  0.7573 -1.9298  0.4118
 4119SOL    HW221294   4.184   2.191   1.492  0.4586  1.3168 -1.9122
 4121SOL     OW21295   2.051   7.150   3.568  0.3134  0.0679 -0.0706
 4121SOL    HW121296   1.974   7.212   3.579  0.2445 -0.5771  4.1993
 4121SOL    HW221297   2.021   7.067   3.521 -1.3387  0.2812  0.5672
 4124SOL     OW21298   3.387   9.012   1.389 -0.6134 -0.1291  0.0138
 4124SOL    HW121299   3.374   9.044   1.295 -2.3786 -0.2476  0.2161
 4124SOL    HW221300   3.434   8.924   1.387 -0.1636  0.1167 -0.7316
 4125SOL     OW21301   9.722   6.992   5.070  0.0309  0.3927 -0.2982
 4125SOL    HW121302   9.693   7.049   4.993  1.7813  0.9569 -0.5711
 4125SOL    HW221303   9.767   6.910   5.035  1.5477  1.0274  0.0835
 4126SOL     OW21304   8.355   1.298   4.176  0.0748 -0.4250 -0.1089
 4126SOL    HW121305   8.279   1.233   4.179 -0.0790 -0.2197  0.7386
 4126SOL    HW221306   8.411   1.287   4.258  2.1835 -2.0040 -1.6817
 4127SOL     OW21307   0.941   3.949   3.488 -0.3138 -0.4071  0.5466
 4127SOL    HW121308   0.962   3.887   3.564 -0.4414 -0.9316  0.1556
 4127SOL    HW221309   0.995   3.923   3.408  0.8335  0.9850  0.8546
 4128SOL     OW21310   5.026   4.000   5.201  0.1399 -0.5606  0.0055
 4128SOL    HW121311   4.990   3.939   5.131 -1.2573 -0.4068  0.5671
 4128SOL    HW221312   4.997   3.967   5.291 -1.2108  1.3012  0.2793
 4129SOL     OW21313   7.169   6.765   3.459 -0.4986  0.2500 -0.4512
 4129SOL    HW121314   7.269   6.760   3.463 -0.6488 -2.1071  1.0077
 4129SOL    HW221315   7.140   6.788   3.366  1.3107 -1.6112 -1.4998
 4130SOL     OW21316   8.467   5.432   5.654  0.2943 -0.4361 -0.4119
 4130SOL    HW121317   8.447   5.480   5.568  0.5919  0.4078 -0.0089
 4130SOL    HW221318   8.566   5.427   5.667  0.2204  0.6814  0.5876
 4131SOL     OW21319   8.619   0.695   6.191  0.3787  0.7435 -0.0526
 4131SOL    HW121320   8.658   0.677   6.101  0.1714 -2.1009  0.3940
 4131SOL    HW221321   8.668   0.643   6.261 -1.2709  0.6827  1.1118
 4132SOL     OW21322   5.238   0.338   1.875  0.9831 -0.3662  0.0278
 4132SOL    HW121323   5.319   0.363   1.821  1.7090 -0.4954  1.0443
 4132SOL    HW221324   5.207   0.416   1.928  0.2092 -0.2123 -0.6474
 4133SOL     OW21325   4.763   6.494   1.415 -0.1065  0.2693 -0.4640
 4133SOL    HW121326   4.847   6.521   1.460  0.2761 -0.3447 -0.8058
 4133SOL    HW221327   4.698   6.458   1.483  0.2104 -0.0159 -0.3136
 4134SOL     OW21328   3.242   4.337   0.257 -0.2160 -0.1034 -0.4895
 4134SOL    HW121329   3.240   4.241   0.287  0.4417 -0.2135 -0.7713
 4134SOL    HW221330   3.150   4.367   0.234 -0.5130 -0.4839  0.1899
 4138SOL     OW21331   0.990   8.345   4.995  0.2072  0.0047 -0.2152
 4138SOL    HW121332   0.978   8.362   4.898  0.6598 -0.9227 -0.4403
 4138SOL    HW221333   0.923   8.399   5.047 -0.8727 -0.4528 -1.1028
 4139SOL     OW21334   4.342   7.915   2.702 -0.1931  0.6019 -0.3003
 4139SOL    HW121335   4.382   7.964   2.624 -1.6339 -0.0471 -1.4782
 4139SOL    HW221336   4.299   7.830   2.670  0.4583 -0.4014  1.4220
 4142SOL     OW21337   1.936   9.502   0.553  0.1569  0.3311  0.1329
 4142SOL    HW121338   2.028   9.535   0.574  0.2269 -0.9975  2.0703
 4142SOL    HW221339   1.940   9.441   0.474  1.3592 -1.6146  1.6471
 4145SOL     OW21340   4.127   4.709   2.779  0.0712  0.2131  0.2210
 4145SOL    HW121341   4.049   4.745   2.728  0.4283 -0.2431 -0.6567
 4145SOL    HW221342   4.094   4.654   2.856 -0.4697  1.3587  0.8178
 4146SOL     OW21343   4.454   1.397   4.401 -0.1725  0.3579 -0.1798
 4146SOL    HW121344   4.389   1.381   4.475 -0.2519  0.6167 -0.1916
 4146SOL    HW221345   4.434   1.485   4.358 -0.2370  0.1335 -0.6197
 4147SOL     OW21346   0.345   6.264   2.749  0.2415  0.2070  0.1715
 4147SOL    HW121347   0.284   6.239   2.674  1.1345 -1.1619 -0.1313
 4147SOL    HW221348   0.299   6.249   2.837 -0.5143  1.0149 -0.0874
 4148SOL     OW21349   7.065   4.876   0.160 -0.3335 -0.1824 -0.1139
 4148SOL    HW121350   7.159   4.876   0.127 -0.0110  0.5055  0.7889
 4148SOL    HW221351   7.049   4.795   0.216 -0.6754 -0.9886 -1.3693
 4150SOL     OW21352   5.466   0.479   3.783 -0.3767  0.1587 -0.5036
 4150SOL    HW121353   5.560   0.512   3.775 -0.5812  0.7230 -0.5429
 4150SOL    HW221354   5.406   0.554   3.808 -0.7683 -0.2692 -0.1464
 4152SOL     OW21355   1.312   4.032   5.912 -0.4645 -0.0454 -0.5021
 4152SOL    HW121356   1.295   4.059   6.007  0.2478  0.5883 -0.5542
 4152SOL    HW221357   1.243   4.074   5.853 -0.9858 -0.5425 -0.2556
 4153SOL     OW21358   3.927   9.770   4.368  0.4631 -0.5481  0.5358
 4153SOL    HW121359   3.884   9.798   4.454 -0.6725 -0.3861 -0.0730
 4153SOL    HW221360   3.903   9.835   4.296  0.9625 -0.9769 -0.0251
 4155SOL     OW21361   0.664   8.227   1.599 -0.0546 -0.0123  0.2888
 4155SOL    HW121362   0.593   8.169   1.560 -0.1390  0.0779  0.3067
 4155SOL    HW221363   0.647   8.322   1.574 -0.6568  0.1722  1.3511
 4156SOL     OW21364   0.544   0.758   1.830 -0.2412 -0.5204  0.1093
 4156SOL    HW121365   0.623   0.790   1.776 -2.3405  1.8248 -1.6931
 4156SOL    HW221366   0.539   0.658   1.825  0.7336 -0.4944 -2.5499
 4157SOL     OW21367   9.217   4.735   1.091 -0.2514 -0.0965  0.7375
 4157SOL    HW121368   9.177   4.647   1.064  0.6407 -0.2221 -0.2402
 4157SOL    HW221369   9.278   4.767   1.018 -0.0832  1.0282  1.3615
 4158SOL     OW21370   8.334   2.471   2.194 -0.4928  0.0224 -0.2539
 4158SOL    HW121371   8.276   2.447   2.116  0.1401 -0.0750 -0.6969
 4158SOL    HW221372   8.416   2.517   2.161  0.2074 -0.8273  0.2910
 4159SOL     OW21373   8.776   8.193   0.500 -0.2914 -0.0172 -0.0915
 4159SOL    HW121374   8.778   8.246   0.415 -0.9044  1.2529  0.6787
 4159SOL    HW221375   8.859   8.211   0.552 -0.4728  0.1298  0.1458
 4160SOL     OW21376   8.520   5.294   4.643  0.1194  0.1653  0.5252
 4160SOL    HW121377   8.504   5.326   4.737  0.2619 -1.9129  1.2814
 4160SOL    HW221378   8.616   5.268   4.632 -0.4735 -2.1432  0.6177
 4162SOL     OW21379   4.300   3.376   3.024 -0.3829  0.4100 -0.0318
 4162SOL    HW121380   4.366   3.316   3.069  0.2473  0.6974 -0.5868
 4162SOL    HW221381   4.325   3.389   2.928 -0.4572  1.6467  0.1061
 4163SOL     OW21382   9.900   9.099   1.769  0.1927  0.3579  0.3347
 4163SOL    HW121383   9.887   9.188   1.813  0.3686 -0.0044  1.1178
 4163SOL    HW221384   9.997   9.078   1.764  0.2521  0.9551 -1.3522
 4164SOL     OW21385   9.687   6.655   0.233  0.1644  0.0412  0.0311
 4164SOL    HW121386   9.696   6.582   0.165  1.1572 -0.0395  0.2440
 4164SOL    HW221387   9.778   6.682   0.265 -0.0273  3.2708 -2.0247
 4166SOL     OW21388   5.002   0.169   3.434 -0.3291  0.0573  0.3251
 4166SOL    HW121389   5.046   0.258   3.436 -1.2483  0.5350 -0.2692
 4166SOL    HW221390   5.072   0.097   3.438  0.5035  0.7960 -0.5415
 4167SOL     OW21391   5.291   5.860   2.119 -0.2429 -0.4937 -0.1835
 4167SOL    HW121392   5.390   5.863   2.113 -0.2556  0.4842 -0.0146
 4167SOL    HW221393   5.264   5.835   2.212 -0.1545  0.5164  0.1230
 4168SOL     OW21394   1.731   6.772   6.285  0.4638 -0.3460 -0.3295
 4168SOL    HW121395   1.773   6.860   6.309 -1.3272  0.2830  0.5617
 4168SOL    HW221396   1.750   6.705   6.357  0.6406 -0.3080 -0.3399
 4169SOL     OW21397   6.226   0.836   6.242  0.3878  0.0183  0.4132
 4169SOL    HW121398   6.296   0.773   6.209 -0.7744 -1.0302 -0.0910
 4169SOL    HW221399   6.145   0.785   6.270  0.2814  1.1278  2.1809
 4170SOL     OW21400   9.296   3.054   4.723 -0.4076  0.3201  0.2448
 4170SOL    HW121401   9.319   2.985   4.655  0.7660  1.4412 -0.5203
 4170SOL    HW221402   9.197   3.059   4.733 -0.5042 -1.8415  0.7250
 4172SOL     OW21403   4.027   7.539   5.034  0.1892  0.0756  0.2803
 4172SOL    HW121404   4.112   7.577   5.068 -0.5193 -0.1327  2.3632
 4172SOL    HW221405   3.957   7.610   5.030 -0.4693 -0.4489  1.8796
 4173SOL     OW21406   7.610   7.566   2.591  0.0203 -0.2681 -0.3035
 4173SOL    HW121407   7.512   7.578   2.611  0.1505 -1.2541  0.9461
 4173SOL    HW221408   7.657   7.534   2.673  1.4243  0.3252 -0.8721
 4174SOL     OW21409   1.926   8.783   3.355  0.5715  0.5031  0.0862
 4174SOL    HW121410   1.998   8.714   3.369  0.8419  0.8199  0.2577
 4174SOL    HW221411   1.968   8.873   3.344  0.0930  1.0313  2.4022
 4175SOL     OW21412   1.121   0.899   0.488  0.3688 -0.4463 -0.4406
 4175SOL    HW121413   1.135   0.800   0.491  0.1453 -0.4786 -0.4417
 4175SOL    HW221414   1.068   0.922   0.406 -0.0052 -0.3784 -0.1791
 4177SOL     OW21415   8.928   7.858   5.172  0.4548  0.2866 -0.4222
 4177SOL    HW121416   8.839   7.818   5.191 -0.4460  2.0769 -0.7697
 4177SOL    HW221417   8.971   7.887   5.258 -1.1615  3.2349 -0.5309
 4178SOL     OW21418   0.679   5.012   2.709  0.6630  0.7337  0.2275
 4178SOL    HW121419   0.623   5.028   2.627  1.8733  2.5445 -0.2803
 4178SOL    HW221420   0.633   5.053   2.787  0.3057  0.4540  0.1668
 4180SOL     OW21421   9.373   8.019   5.882  0.0938 -0.9006  0.0896
 4180SOL    HW121422   9.332   8.093   5.829 -0.8904 -1.3449  0.2175
 4180SOL    HW221423   9.427   7.961   5.821  0.8998 -0.0576 -0.0006
 4181SOL     OW21424   9.492   0.821   5.734  0.5144 -0.2328 -0.3741
 4181SOL    HW121425   9.545   0.761   5.674  1.2791  0.8019 -0.7506
 4181SOL    HW221426   9.539   0.909   5.743 -1.4000  0.9237 -1.1904
 4183SOL     OW21427   0.029   8.013   6.013  0.1630  0.4008  0.0260
 4183SOL    HW121428   0.085   8.096   6.012  0.3651  0.2920  1.4808
 4183SOL    HW221429   0.084   7.936   6.047 -0.1038 -0.2875 -1.0424
 4184SOL     OW21430   4.918   4.128   4.808 -0.7065  0.8543 -0.3324
 4184SOL    HW121431   4.931   4.185   4.889 -0.8777  0.6781 -0.1804
 4184SOL    HW221432   4.821   4.125   4.784 -0.4801  2.1374 -1.4437
 4185SOL     OW21433   4.263   9.235   6.381 -0.5083 -0.2320 -0.4594
 4185SOL    HW121434   4.254   9.171   6.457 -2.4540 -0.2349 -0.6572
 4185SOL    HW221435   4.252   9.328   6.415 -0.0529 -0.1457 -0.5433
 4187SOL     OW21436   8.846   9.095   0.916 -0.2073  0.0298  0.0473
 4187SOL    HW121437   8.777   9.099   0.843  0.5146  0.4070 -0.6248
 4187SOL    HW221438   8.919   9.032   0.888  1.0404  1.6674 -0.4048
 4188SOL     OW21439   1.979   6.691   2.477 -0.6103  0.0007 -0.1034
 4188SOL    HW121440   2.045   6.656   2.411 -0.1249  1.6284 -0.5151
 4188SOL    HW221441   1.932   6.615   2.522  0.7053 -1.1472 -0.6528
 4189SOL     OW21442   0.851   2.382   4.273  0.2699  0.1211 -0.2578
 4189SOL    HW121443   0.769   2.389   4.216 -0.3267  1.0694  0.7131
 4189SOL    HW221444   0.921   2.443   4.238 -0.4721  1.5146  0.6355
 4190SOL     OW21445   6.113   6.015   1.246 -0.0153 -0.0311  0.2543
 4190SOL    HW121446   6.073   6.097   1.286 -0.4851 -0.4376  0.6156
 4190SOL    HW221447   6.208   6.033   1.221 -0.2863  0.7895 -0.1813
 4191SOL     OW21448   5.631   9.933   2.747 -0.0796 -0.6272  0.2229
 4191SOL    HW121449   5.707   9.970   2.801  0.5086 -0.2551 -0.8462
 4191SOL    HW221450   5.601   9.847   2.787  2.9683 -2.3899 -1.0881
 4192SOL     OW21451   0.376   8.373   4.865 -0.1670 -0.3419  0.4229
 4192SOL    HW121452   0.356   8.421   4.779  0.3927 -2.3899 -0.8845
 4192SOL    HW221453   0.307   8.397   4.933  0.2189  2.4791 -0.0995
 4193SOL     OW21454   3.474   0.771   0.084  0.4716 -0.1148  0.2321
 4193SOL    HW121455   3.435   0.796  -0.004 -1.8094 -2.0722  0.6398
 4193SOL    HW221456   3.445   0.838   0.153  1.1721  0.6769 -0.2292
 4196SOL     OW21457   1.940   2.561   5.780  0.1956  0.8671 -0.2723
 4196SOL    HW121458   1.992   2.476   5.780  1.3568  1.5615 -0.0356
 4196SOL    HW221459   1.997   2.635   5.742  0.2697  2.1704  2.2635
 4197SOL     OW21460   9.780   8.493   3.154  0.0913  0.1952  0.3531
 4197SOL    HW121461   9.727   8.413   3.185 -1.0453  1.0399  0.6475
 4197SOL    HW221462   9.843   8.521   3.227 -0.7322  0.5950  0.9310
 4198SOL     OW21463   7.666   7.858   6.040  0.4781 -0.2567  0.0069
 4198SOL    HW121464   7.641   7.863   6.137  0.7138 -1.4049  0.1367
 4198SOL    HW221465   7.596   7.805   5.991  0.4931  0.1032 -0.4095
 4199SOL     OW21466   9.854   5.343   0.579  0.6765 -0.1544 -0.0356
 4199SOL    HW121467   9.755   5.348   0.593  0.7801  0.4628  0.5660
 4199SOL    HW221468   9.885   5.248   0.589  0.1626 -0.3302 -0.1130
 4200SOL     OW21469   7.347   7.649   4.381 -0.0301  0.2551  0.1665
 4200SOL    HW121470   7.322   7.727   4.438  1.2892  1.2951 -0.6435
 4200SOL    HW221471   7.269   7.623   4.324 -0.3847  1.1523  0.2396
 4201SOL     OW21472   7.071   5.971   5.389  0.0760 -0.4087 -0.2223
 4201SOL    HW121473   7.126   6.052   5.406 -1.0767  0.4605 -0.5829
 4201SOL    HW221474   6.984   5.978   5.438  0.2427 -1.7454  0.3077
 4202SOL     OW21475   0.112   6.996   0.749 -0.1823 -0.3234  0.4294
 4202SOL    HW121476   0.131   7.034   0.659 -0.2305  0.6198  0.8106
 4202SOL    HW221477   0.120   6.897   0.746 -0.2654 -0.2992 -0.6306
 4203SOL     OW21478   6.445   9.944   2.354  0.5264 -0.0136  0.0140
 4203SOL    HW121479   6.392   9.966   2.273 -0.3482 -1.7926  0.0800
 4203SOL    HW221480   6.404   9.987   2.434 -0.1365 -0.4134 -0.1099
 4204SOL     OW21481   8.143   8.300   6.114 -0.1072 -0.5042 -0.1446
 4204SOL    HW121482   8.169   8.311   6.211  3.3390 -1.8610 -0.8240
 4204SOL    HW221483   8.172   8.380   6.063 -0.6521 -0.4061 -0.3025
 4205SOL     OW21484   1.272   7.093   3.093  0.4422 -0.9624  0.5647
 4205SOL    HW121485   1.244   7.134   3.006 -0.9795 -1.5670  0.7220
 4205SOL    HW221486   1.364   7.124   3.116  0.5248 -0.1649 -0.7565
 4206SOL     OW21487   7.735   2.320   2.518 -0.6532 -0.1162 -0.1537
 4206SOL    HW121488   7.646   2.335   2.475 -1.9102  1.3982  2.8070
 4206SOL    HW221489   7.793   2.400   2.504 -0.5226 -0.2360 -0.2995
 4207SOL     OW21490   4.183   2.698   4.589 -0.3769 -0.3038  0.3656
 4207SOL    HW121491   4.107   2.697   4.523 -0.5132  0.4258  0.5096
 4207SOL    HW221492   4.202   2.792   4.617 -0.1558 -0.5890  1.1869
 4208SOL     OW21493   6.671   1.940   1.444  0.2182  0.2572 -0.1281
 4208SOL    HW121494   6.667   1.844   1.472 -1.0818  0.4795  0.4511
 4208SOL    HW221495   6.656   1.946   1.345  1.1081 -0.1932 -0.3028
 4209SOL     OW21496   2.068   1.818   2.900  0.2857 -0.3298  0.0328
 4209SOL    HW121497   2.153   1.779   2.936  0.3812  0.5207  0.7443
 4209SOL    HW221498   2.075   1.827   2.801  1.2667  0.3223  0.1599
 4211SOL     OW21499   7.725   0.333   3.361 -0.3818  0.2226 -0.0084
 4211SOL    HW121500   7.787   0.398   3.317 -0.0441 -0.3302 -0.3609
 4211SOL    HW221501   7.745   0.330   3.459  0.0308  0.1787 -0.0910
 4213SOL     OW21502   8.273   9.608   4.191  0.0709  0.1260 -0.0350
 4213SOL    HW121503   8.211   9.680   4.161 -0.4903  0.0704  0.9645
 4213SOL    HW221504   8.302   9.626   4.285  0.2366 -0.7426  0.0839
 4214SOL     OW21505   8.475   5.730   1.939  0.0357  0.1451 -0.4108
 4214SOL    HW121506   8.568   5.724   1.902 -0.2329  0.2920 -1.1184
 4214SOL    HW221507   8.410   5.739   1.863 -0.5707 -0.1759  0.0721
 4215SOL     OW21508   8.976   6.275   5.566  0.3115  0.3989  0.4101
 4215SOL    HW121509   9.047   6.209   5.539 -0.1116  0.2012 -0.2092
 4215SOL    HW221510   8.984   6.293   5.664  1.7563  1.0150  0.1874
 4216SOL     OW21511   3.656   9.643   1.418 -0.5688 -0.5757 -0.3256
 4216SOL    HW121512   3.576   9.584   1.429 -1.3514  0.6896  0.9755
 4216SOL    HW221513   3.660   9.676   1.324 -2.8265  1.0440  0.0911
 4217SOL     OW21514   1.467   0.015   2.987 -1.0923 -0.6934 -0.1949
 4217SOL    HW121515   1.498   0.085   2.923  0.0607 -2.0378 -1.1223
 4217SOL    HW221516   1.453  -0.071   2.939 -3.3364 -0.9178  0.7845
 4218SOL     OW21517   5.294   7.285   3.620 -0.8063 -0.2386 -0.5154
 4218SOL    HW121518   5.284   7.323   3.712  1.4153 -1.2969  0.1950
 4218SOL    HW221519   5.231   7.332   3.558 -1.3434  1.4461  1.2477
 4219SOL     OW21520   1.219   8.572   4.320 -0.1318 -0.2871  0.3657
 4219SOL    HW121521   1.208   8.475   4.300 -0.7882 -0.1845  0.2201
 4219SOL    HW221522   1.134   8.608   4.359  0.0335  0.2796  0.2117
 4220SOL     OW21523   1.662   0.511   1.036 -0.3601 -0.5351  0.3494
 4220SOL    HW121524   1.604   0.523   1.116 -0.3494  1.6485  0.0554
 4220SOL    HW221525   1.757   0.528   1.061 -0.3962  0.4788 -0.1982
 4221SOL     OW21526   9.269   9.218   3.314 -0.2530 -0.6763  0.2167
 4221SOL    HW121527   9.276   9.129   3.358  0.1110 -1.4818 -1.4350
 4221SOL    HW221528   9.220   9.209   3.228 -0.0192  0.6839 -0.0746
 4222SOL     OW21529   8.229   7.843   5.495  0.4660 -0.3026 -0.4935
 4222SOL    HW121530   8.163   7.819   5.425  0.7748 -0.7127 -0.6438
 4222SOL    HW221531   8.222   7.941   5.516 -1.0089 -0.5698  0.3477
 4223SOL     OW21532   8.309   1.254   0.863  0.1413 -0.6847 -0.1138
 4223SOL    HW121533   8.341   1.304   0.783 -0.9965 -1.8825 -1.3546
 4223SOL    HW221534   8.218   1.215   0.844 -0.7222  0.0788  2.2011
 4224SOL     OW21535   0.899   1.088   3.267 -0.7111  0.4313  0.5265
 4224SOL    HW121536   0.901   1.173   3.214 -2.3009  0.0615 -0.1595
 4224SOL    HW221537   0.848   1.019   3.216 -1.4245 -0.2379  2.1235
 4225SOL     OW21538   6.859   1.725   2.663 -0.1545  0.1551 -0.1756
 4225SOL    HW121539   6.944   1.767   2.634 -0.1642  2.2410  2.5145
 4225SOL    HW221540   6.877   1.635   2.702  0.6774  0.1378 -0.6030
 4227SOL     OW21541   7.770   5.287   5.279 -0.0382  0.2131  0.0336
 4227SOL    HW121542   7.746   5.368   5.225  0.3162  0.1523 -0.2185
 4227SOL    HW221543   7.835   5.231   5.227  0.9071  0.5407  0.8423
 4228SOL     OW21544   6.342   2.668   3.921  0.1965 -0.5780  0.1696
 4228SOL    HW121545   6.242   2.660   3.918  0.0401  1.3405 -0.4088
 4228SOL    HW221546   6.369   2.722   4.000  0.5855  1.1832 -1.1217
 4229SOL     OW21547   2.032   6.140   5.495 -0.1063  0.3727  0.2945
 4229SOL    HW121548   2.105   6.101   5.440 -1.1990 -0.1124 -0.8288
 4229SOL    HW221549   2.036   6.102   5.588 -0.8502 -2.0639 -0.6361
 4230SOL     OW21550   9.523   6.644   0.684 -0.4599  0.0899 -0.1419
 4230SOL    HW121551   9.579   6.707   0.630 -0.8917 -0.0303 -0.7467
 4230SOL    HW221552   9.579   6.567   0.714 -0.2084  0.1601 -0.4272
 4231SOL     OW21553   1.504   3.382   6.391  0.0021  0.1391  0.8572
 4231SOL    HW121554   1.464   3.394   6.482  0.2001 -0.0072  0.9645
 4231SOL    HW221555   1.598   3.349   6.401  0.4210  1.2436  0.6264
 4233SOL     OW21556   8.595   1.992   5.227  0.1211 -0.1197  0.7252
 4233SOL    HW121557   8.579   2.087   5.201  3.1411  0.2594  0.0378
 4233SOL    HW221558   8.672   1.987   5.290  1.6897 -2.2964 -1.2572
 4235SOL     OW21559   7.857   9.564   4.822 -0.4380  0.5020  0.0792
 4235SOL    HW121560   7.844   9.542   4.726  0.1896  0.5605 -0.0183
 4235SOL    HW221561   7.846   9.481   4.877 -0.7146  0.4549 -0.0476
 4236SOL     OW21562   9.995   7.408   5.095  0.2663  0.3534  0.1381
 4236SOL    HW121563  10.050   7.375   5.172  1.1925 -0.1186 -0.7174
 4236SOL    HW221564  10.018   7.356   5.013 -3.0932 -1.4386  0.2270
 4237SOL     OW21565   6.773   3.997   1.808  0.3262 -0.2758 -0.1921
 4237SOL    HW121566   6.803   3.906   1.779  0.9754  0.0157 -0.4438
 4237SOL    HW221567   6.785   4.061   1.733 -0.7143 -0.1017 -0.2195
 4238SOL     OW21568   2.252   2.946   0.833 -0.2861 -0.2642 -0.1320
 4238SOL    HW121569   2.157   2.917   0.822 -0.3165 -0.3395  0.2927
 4238SOL    HW221570   2.257   3.045   0.840 -0.3996 -0.2954  0.4387
 4239SOL     OW21571   0.813   4.178   5.464 -0.6609 -0.2513 -0.0855
 4239SOL    HW121572   0.739   4.110   5.456 -0.4221 -0.4501 -0.6156
 4239SOL    HW221573   0.777   4.268   5.443 -1.0961 -0.1319  1.0962
 4242SOL     OW21574   6.219   0.079   3.681  0.0867 -0.1681 -0.6125
 4242SOL    HW121575   6.194   0.008   3.746 -0.6320  0.4152 -0.2429
 4242SOL    HW221576   6.241   0.163   3.730 -2.0369  0.7465 -1.1961
 4243SOL     OW21577   8.132   3.728   2.449 -0.7120 -0.4567 -0.6802
 4243SOL    HW121578   8.199   3.690   2.514 -0.4424 -0.7070 -1.0971
 4243SOL    HW221579   8.044   3.740   2.494 -0.8172 -1.6404 -0.5483
 4244SOL     OW21580   0.672   7.128   1.889  0.0447 -0.1895 -0.4873
 4244SOL    HW121581   0.682   7.227   1.878  0.6375 -0.0907  0.9294
 4244SOL    HW221582   0.610   7.109   1.965 -0.5549 -0.9153 -1.1409
 4246SOL     OW21583   2.029   9.725   0.281  0.1618 -0.3152  0.4424
 4246SOL    HW121584   2.106   9.673   0.242  1.0262  0.9353  0.4520
 4246SOL    HW221585   1.998   9.680   0.365  1.1480 -0.6165  0.6562
 4248SOL     OW21586   9.184   2.931   0.089  0.3167  0.2108  1.0337
 4248SOL    HW121587   9.202   2.920  -0.009  0.2331  2.5669  0.7216
 4248SOL    HW221588   9.088   2.955   0.102  0.6708  1.3116  1.5863
 4249SOL     OW21589   6.620   1.222   4.790 -0.0092  0.6820  0.3096
 4249SOL    HW121590   6.706   1.262   4.759  0.3072  0.4357  0.8631
 4249SOL    HW221591   6.549   1.292   4.790 -0.0110  0.6991 -0.9329
 4250SOL     OW21592   6.614   2.147   1.970 -0.0457 -0.2759 -0.1224
 4250SOL    HW121593   6.645   2.232   1.927 -0.2981 -0.1978 -0.1548
 4250SOL    HW221594   6.598   2.077   1.900  2.3115 -1.0680  0.0880
 4251SOL     OW21595   0.553   9.398   4.231  0.2231  0.0213  0.1130
 4251SOL    HW121596   0.476   9.404   4.168 -0.4115  0.2108  0.9023
 4251SOL    HW221597   0.536   9.325   4.298  1.9995 -1.8678 -1.4136
 4252SOL     OW21598   6.653   2.688   5.848  0.2496  0.6664 -0.1613
 4252SOL    HW121599   6.662   2.762   5.915 -1.3038  0.8725 -0.1575
 4252SOL    HW221600   6.575   2.707   5.788  1.7986  0.6476 -2.2569
 4254SOL     OW21601   2.732   8.422   0.660 -0.1733 -0.4260 -0.6685
 4254SOL    HW121602   2.667   8.496   0.646 -0.1939 -0.3283 -0.0692
 4254SOL    HW221603   2.751   8.377   0.572  0.8677  1.1557 -1.2714
 4256SOL     OW21604   8.505   0.755   5.789  0.1783 -0.2017  0.0192
 4256SOL    HW121605   8.433   0.688   5.773 -0.2351 -0.1530  1.6195
 4256SOL    HW221606   8.466   0.847   5.795  0.2525 -0.2757  1.7881
 4257SOL     OW21607   0.170   2.030   3.032 -0.8620  0.4245  0.2891
 4257SOL    HW121608   0.153   2.004   3.127 -0.7785 -0.9440 -0.0649
 4257SOL    HW221609   0.171   1.949   2.974 -0.3848  1.1946 -0.8142
 4258SOL     OW21610   2.077   2.457   1.738  0.2491  0.0781 -1.2477
 4258SOL    HW121611   2.130   2.536   1.770  0.8321 -0.7526 -0.1367
 4258SOL    HW221612   2.111   2.427   1.649  0.4097  0.7128 -1.3999
 4259SOL     OW21613   7.680   0.990   0.692 -0.2026 -0.2494 -0.0332
 4259SOL    HW121614   7.632   0.931   0.756  0.1669  0.6834  1.1231
 4259SOL    HW221615   7.768   1.018   0.731  0.0376  0.3038 -0.9494
 4260SOL     OW21616   3.853   3.221   4.915  0.1782 -0.4099 -0.0598
 4260SOL    HW121617   3.870   3.196   4.820  2.0417  1.3619 -0.2326
 4260SOL    HW221618   3.759   3.253   4.925  0.0029 -0.5165 -1.3387
 4263SOL     OW21619   5.487   9.310   6.333 -0.0181  0.3308 -0.4798
 4263SOL    HW121620   5.479   9.333   6.236 -0.1942  0.6132 -0.3997
 4263SOL    HW221621   5.396   9.309   6.375 -0.0487 -0.9710 -0.5808
 4264SOL     OW21622   0.043   7.903   5.656  0.2411  0.1254 -0.4433
 4264SOL    HW121623   0.020   7.993   5.618  1.8163  0.8755  0.3384
 4264SOL    HW221624   0.018   7.832   5.590 -0.0436  1.2046 -1.5228
 4265SOL     OW21625   0.254   7.976   2.964 -0.1595 -0.3446 -0.0074
 4265SOL    HW121626   0.205   7.986   2.878 -2.2855 -1.8893  0.9593
 4265SOL    HW221627   0.352   7.979   2.948 -0.5529  0.8639 -2.2691
 4266SOL     OW21628   7.821   3.026   4.884  0.1085 -0.3168 -0.3158
 4266SOL    HW121629   7.794   2.959   4.815 -1.0933 -0.0488 -0.1070
 4266SOL    HW221630   7.915   3.006   4.914  0.3646 -0.8936 -1.4596
 4268SOL     OW21631   3.874   3.348   1.082 -0.1133 -0.6037 -0.3803
 4268SOL    HW121632   3.801   3.416   1.090 -0.4266 -1.0769  1.0288
 4268SOL    HW221633   3.955   3.380   1.132  0.4547 -0.3416 -1.4509
 4269SOL     OW21634   0.756   8.200   3.345  0.0143 -0.2555 -0.1142
 4269SOL    HW121635   0.757   8.284   3.291  2.1377 -1.1681 -1.5827
 4269SOL    HW221636   0.662   8.171   3.361 -0.6783  0.5787 -2.5114
 4270SOL     OW21637   0.813   6.943   5.220 -0.0929 -0.5834  0.0446
 4270SOL    HW121638   0.768   6.861   5.186  0.6937 -1.1098  0.2753
 4270SOL    HW221639   0.875   6.978   5.151  0.2414 -0.6924  0.2898
 4271SOL     OW21640   6.814   9.241   4.363  0.0678  0.0311 -0.4814
 4271SOL    HW121641   6.856   9.275   4.279  2.9181 -1.8912  0.0733
 4271SOL    HW221642   6.824   9.309   4.436  0.7501  0.2646 -0.7933
 4272SOL     OW21643   4.519   0.219   1.263 -0.3911  0.1601 -0.2905
 4272SOL    HW121644   4.617   0.225   1.243 -0.4346 -0.9450 -0.8783
 4272SOL    HW221645   4.507   0.183   1.356 -0.2404 -0.5181 -0.5293
 4273SOL     OW21646   5.937   9.415   5.632 -0.4997  0.0289 -0.2152
 4273SOL    HW121647   6.022   9.466   5.644 -0.2947  0.5934 -3.4922
 4273SOL    HW221648   5.860   9.478   5.624 -0.8467 -0.3589  0.0318
 4274SOL     OW21649   2.780   0.322   4.761  0.5018  0.7247 -0.2329
 4274SOL    HW121650   2.729   0.380   4.825 -2.1879  0.7385 -2.3480
 4274SOL    HW221651   2.783   0.228   4.796 -0.5773  0.8163  0.1050
 4275SOL     OW21652   3.004   3.464   5.123  0.8202 -0.1175  0.3565
 4275SOL    HW121653   2.912   3.459   5.084  0.5909  2.1061  0.5700
 4275SOL    HW221654   3.018   3.387   5.185 -0.8174 -0.5931  0.1631
 4276SOL     OW21655   1.265   4.166   1.523 -0.3389 -0.1612  0.1919
 4276SOL    HW121656   1.336   4.108   1.562 -0.9434 -0.4186  0.9150
 4276SOL    HW221657   1.276   4.259   1.556  1.5080  0.4917 -2.0889
 4278SOL     OW21658   1.360   2.771   6.044 -0.2828 -0.7268  0.3096
 4278SOL    HW121659   1.450   2.727   6.035 -0.2433 -0.7509  0.7896
 4278SOL    HW221660   1.350   2.807   6.137 -0.4112  0.0789 -0.0179
 4279SOL     OW21661   9.664   4.128   2.752  0.6684  0.2165 -0.6384
 4279SOL    HW121662   9.644   4.119   2.849  1.8620  1.2034 -0.2916
 4279SOL    HW221663   9.753   4.087   2.732 -0.3304 -1.5758 -1.6601
 4280SOL     OW21664   9.868   2.063   5.541 -0.3729  0.0627  0.0603
 4280SOL    HW121665   9.820   2.063   5.628 -1.6831  1.0762 -0.6372
 4280SOL    HW221666   9.950   2.121   5.548 -0.2628 -0.1714  0.7217
 4281SOL     OW21667   6.462   5.103   1.702  0.3977 -0.0315  0.0326
 4281SOL    HW121668   6.491   5.011   1.674  0.9331  0.0624  0.2711
 4281SOL    HW221669   6.504   5.125   1.790  0.0446  0.3335  0.1085
 4282SOL     OW21670   9.663   5.313   0.075  0.0508  0.1010  0.8449
 4282SOL    HW121671   9.622   5.228   0.042  0.9392 -0.1982  0.4711
 4282SOL    HW221672   9.592   5.379   0.097 -0.6341 -0.5858  0.7037
 4283SOL     OW21673   9.764   9.848   1.698  0.2976 -0.1895  0.0356
 4283SOL    HW121674   9.721   9.909   1.765  0.4997 -0.0965  0.0782
 4283SOL    HW221675   9.729   9.755   1.710  0.2806 -0.1585  0.2217
 4284SOL     OW21676   6.290   2.266   3.839 -0.3451 -0.2885  0.0063
 4284SOL    HW121677   6.202   2.307   3.817 -0.8815 -1.4004  0.0362
 4284SOL    HW221678   6.351   2.275   3.761 -0.2703  1.0340  0.2040
 4285SOL     OW21679   7.462   2.493   3.512  0.7016 -0.3028 -0.1386
 4285SOL    HW121680   7.493   2.398   3.514 -0.7564 -0.7621  1.5479
 4285SOL    HW221681   7.522   2.550   3.569  1.1864 -0.3325 -0.6201
 4286SOL     OW21682   3.539   7.289   2.356 -0.3347  0.2814  0.0072
 4286SOL    HW121683   3.619   7.300   2.298 -1.1649 -0.0643 -1.2143
 4286SOL    HW221684   3.456   7.293   2.301 -1.2954  2.8559  1.5351
 4287SOL     OW21685   4.807   9.749   6.001 -0.0773  0.2264  0.4318
 4287SOL    HW121686   4.798   9.655   5.967  0.8464 -0.3139  1.6277
 4287SOL    HW221687   4.732   9.805   5.966 -1.0272 -1.1319  0.2604
 4288SOL     OW21688   2.375   0.606   3.411  0.0012  0.1318  0.0344
 4288SOL    HW121689   2.421   0.567   3.331 -0.3159  0.9240 -0.5364
 4288SOL    HW221690   2.442   0.657   3.466  0.0502  0.2877 -0.1683
 4289SOL     OW21691   1.377   2.729   2.656 -0.3809 -0.2045  0.1348
 4289SOL    HW121692   1.434   2.681   2.590  0.1088  0.1267  0.3126
 4289SOL    HW221693   1.384   2.828   2.640 -0.9222 -0.1657  0.1418
 4290SOL     OW21694   4.469   6.956   3.492  0.1120 -0.0257 -0.3439
 4290SOL    HW121695   4.453   6.884   3.559  0.7644  0.8120  0.7286
 4290SOL    HW221696   4.440   7.044   3.530  2.4025  0.7606 -0.3415
 4292SOL     OW21697   6.509   9.905   1.952 -0.5095 -0.0468 -0.5162
 4292SOL    HW121698   6.460   9.840   1.894 -0.5437  0.2664 -0.8399
 4292SOL    HW221699   6.567   9.856   2.016  2.4752 -0.3748 -3.3259
 4293SOL     OW21700   3.700   0.577   1.642 -0.6170  0.1354  0.0498
 4293SOL    HW121701   3.631   0.614   1.705 -1.2451  0.8885 -1.0558
 4293SOL    HW221702   3.655   0.519   1.574 -0.1856  0.7591 -0.7731
 4294SOL     OW21703   0.709   2.022   0.938  0.6560  0.0394 -0.8650
 4294SOL    HW121704   0.672   1.929   0.947 -0.3210  0.5448  0.5916
 4294SOL    HW221705   0.720   2.044   0.841 -0.2157 -1.1574 -1.2556
 4295SOL     OW21706   1.868   7.004   0.488 -0.1102  0.3061 -0.0086
 4295SOL    HW121707   1.926   7.076   0.525 -0.7657 -0.1948  2.0303
 4295SOL    HW221708   1.904   6.975   0.399  1.5378  1.4608  0.2621
 4296SOL     OW21709   7.018   0.595   4.648  0.6283 -0.0713 -0.1206
 4296SOL    HW121710   7.043   0.613   4.743 -0.1857  3.8582 -0.5758
 4296SOL    HW221711   6.921   0.570   4.644  0.5526  0.1995  0.0205
 4297SOL     OW21712   1.334   1.941   2.985 -0.9887  0.4698  0.4253
 4297SOL    HW121713   1.385   1.978   3.062  0.8054 -0.0040 -0.5120
 4297SOL    HW221714   1.319   2.014   2.918  0.7984  0.0076 -0.5060
 4298SOL     OW21715   2.381   5.795   1.256  0.6426  0.1964 -0.1076
 4298SOL    HW121716   2.475   5.768   1.233 -0.0319 -1.7391 -0.6374
 4298SOL    HW221717   2.337   5.834   1.175  1.4072  2.3395  0.4891
 4299SOL     OW21718   9.359   0.652   3.924  0.1964 -0.4391  0.2452
 4299SOL    HW121719   9.356   0.623   3.828  0.7812 -0.6590  0.2914
 4299SOL    HW221720   9.301   0.592   3.979  0.2204 -0.5973  0.0994
 4300SOL     OW21721   7.454   2.281   4.531  0.3186 -0.2106 -0.3322
 4300SOL    HW121722   7.356   2.265   4.546  0.5563 -0.7638  0.6780
 4300SOL    HW221723   7.503   2.269   4.617  1.5834 -2.4305 -1.3179
 4301SOL     OW21724   3.121   1.790   0.281  0.0705  0.2930 -0.0532
 4301SOL    HW121725   3.138   1.867   0.219 -0.7315  1.0743  0.6793
 4301SOL    HW221726   3.203   1.774   0.336 -0.1174  1.3296  0.5432
 4302SOL     OW21727   0.942   8.837   3.635 -0.1210  0.1499 -0.1035
 4302SOL    HW121728   0.998   8.829   3.553 -2.7267  0.8313 -2.0194
 4302SOL    HW221729   0.951   8.754   3.690 -0.5192 -1.5577 -2.5385
 4303SOL     OW21730   0.809   8.786   2.734 -0.0734 -0.0633  0.1258
 4303SOL    HW121731   0.846   8.835   2.656  0.0312 -0.6002 -0.1644
 4303SOL    HW221732   0.770   8.699   2.703  1.5808 -1.1138  0.9039
 4304SOL     OW21733   2.198   8.409   0.969 -0.5143  0.1845 -0.4635
 4304SOL    HW121734   2.101   8.397   0.948 -0.5716  0.2528 -0.2385
 4304SOL    HW221735   2.251   8.406   0.884 -0.8999  1.9720 -0.7903
 4305SOL     OW21736   3.595   3.530   5.787  0.1084  1.1739 -0.0233
 4305SOL    HW121737   3.674   3.587   5.766  0.2192  1.1707  0.3817
 4305SOL    HW221738   3.582   3.525   5.886  0.8174 -0.4613  0.0066
 4306SOL     OW21739   0.818   6.443   4.618  0.7823 -0.5343  0.4228
 4306SOL    HW121740   0.724   6.467   4.642  0.7760 -1.6106  1.5114
 4306SOL    HW221741   0.870   6.526   4.599 -0.5788  0.0375 -0.9266
 4307SOL     OW21742   2.780   3.646   1.335 -0.4454  0.7490  0.2774
 4307SOL    HW121743   2.714   3.707   1.379 -0.2718  0.8194  0.4443
 4307SOL    HW221744   2.811   3.578   1.402 -0.0255  0.9820  0.3241
 4308SOL     OW21745   8.191   3.934   4.889  0.1665  0.2786  0.1446
 4308SOL    HW121746   8.117   3.993   4.922 -0.3648 -0.3695  0.1202
 4308SOL    HW221747   8.205   3.859   4.954  0.6953  0.3116  0.0691
 4309SOL     OW21748   3.264   3.755   3.807 -0.1336 -0.0007 -0.0422
 4309SOL    HW121749   3.258   3.658   3.785 -0.4186 -0.4280  1.9122
 4309SOL    HW221750   3.216   3.774   3.892 -0.4448  1.9393 -0.6232
 4311SOL     OW21751   1.055   3.654   2.450  0.1643  0.4476  0.0432
 4311SOL    HW121752   1.009   3.676   2.536  1.1562  1.0236  0.4469
 4311SOL    HW221753   1.116   3.730   2.425  0.7325 -0.2069 -0.5729
 4312SOL     OW21754   2.519   7.353   1.415  0.3195  0.3139  0.2325
 4312SOL    HW121755   2.564   7.436   1.449 -0.8477  1.1132 -0.1645
 4312SOL    HW221756   2.443   7.378   1.356 -0.3307 -1.0469  0.4802
 4313SOL     OW21757   3.006   3.330   2.880 -0.1969  0.2621  0.2448
 4313SOL    HW121758   3.033   3.371   2.793  1.4955  0.7365  0.9626
 4313SOL    HW221759   2.915   3.290   2.871 -0.4105  1.0612 -1.4883
 4314SOL     OW21760   6.784   9.888   6.449 -0.4373 -0.1296 -0.0759
 4314SOL    HW121761   6.816   9.904   6.542 -1.3046 -2.5381  0.6760
 4314SOL    HW221762   6.684   9.881   6.449 -0.4911  0.4113 -1.2938
 4316SOL     OW21763   9.235   4.972   4.988  0.3489  0.3189 -0.5780
 4316SOL    HW121764   9.275   4.880   4.988  0.0400  0.1830  0.2824
 4316SOL    HW221765   9.157   4.974   4.924  0.1778 -0.0970 -0.3829
 4317SOL     OW21766   3.092   4.989   0.485  0.2513 -0.3066 -0.0975
 4317SOL    HW121767   3.137   5.076   0.505  2.5194 -1.4445  0.0188
 4317SOL    HW221768   3.143   4.915   0.529 -2.4221 -1.5832  0.9662
 4318SOL     OW21769   3.498   2.548   6.163  0.2338  0.0956 -0.5127
 4318SOL    HW121770   3.508   2.464   6.216 -1.2015  0.3113  0.1168
 4318SOL    HW221771   3.562   2.617   6.198 -1.3941  0.5655  1.6340
 4320SOL     OW21772   5.480   0.644   1.029  0.1902  0.4358  0.4570
 4320SOL    HW121773   5.423   0.723   1.053  1.4441  1.5300 -0.1330
 4320SOL    HW221774   5.430   0.586   0.964 -0.9093  0.5041  1.2240
 4321SOL     OW21775   9.666   5.737   4.118 -0.4264 -0.4664  0.0580
 4321SOL    HW121776   9.649   5.806   4.047  0.6935  0.0316  0.2668
 4321SOL    HW221777   9.636   5.773   4.207  1.8324  0.4827  0.4544
 4322SOL     OW21778   3.232   8.846   0.407 -0.7060 -0.4897 -0.2210
 4322SOL    HW121779   3.228   8.749   0.383  1.3412 -0.7544  0.4163
 4322SOL    HW221780   3.326   8.871   0.428 -1.2959  1.5355  0.0861
 4323SOL     OW21781   0.671   3.719   5.608 -0.4266 -0.4298  0.1577
 4323SOL    HW121782   0.615   3.638   5.623 -2.7152  1.0588 -0.0888
 4323SOL    HW221783   0.717   3.711   5.520 -1.5782 -0.9572 -0.4116
 4324SOL     OW21784   2.844   2.460   3.742 -0.0832 -0.1577  0.1531
 4324SOL    HW121785   2.766   2.503   3.789 -0.4826 -0.3124 -0.3698
 4324SOL    HW221786   2.818   2.368   3.712  0.0010  0.1427 -0.8417
 4325SOL     OW21787   6.807   0.402   5.780 -0.0082  0.1163 -0.3519
 4325SOL    HW121788   6.714   0.380   5.809  0.0402  0.7786  0.3212
 4325SOL    HW221789   6.872   0.340   5.826 -0.1108 -0.3604 -0.8390
 4327SOL     OW21790   7.361   4.085   1.109  0.8900  0.1041 -0.3174
 4327SOL    HW121791   7.400   4.109   1.198  2.0542  0.9611 -1.0260
 4327SOL    HW221792   7.275   4.134   1.096  1.0258  0.4610  0.0964
 4329SOL     OW21793   3.573   1.215   3.550 -0.7707 -0.0099  0.6077
 4329SOL    HW121794   3.664   1.256   3.545 -1.4168  1.2191 -1.7734
 4329SOL    HW221795   3.575   1.138   3.614  2.1138 -0.4181  0.1129
 4330SOL     OW21796   3.961   0.620   1.578 -0.4996 -1.0538  0.1504
 4330SOL    HW121797   3.866   0.592   1.588 -0.0809 -2.2311  0.9267
 4330SOL    HW221798   4.013   0.546   1.534  0.1688 -0.6377  0.2410
 4331SOL     OW21799   1.658   2.169   6.004 -0.5176 -0.2606  0.5324
 4331SOL    HW121800   1.639   2.110   6.083 -1.3672  1.9381  2.0107
 4331SOL    HW221801   1.757   2.175   5.991 -0.4187 -2.5700 -0.1099
 4333SOL     OW21802   8.718   1.790   3.618 -0.2549 -0.2039  0.0182
 4333SOL    HW121803   8.621   1.789   3.593  0.0538 -0.9597 -1.2069
 4333SOL    HW221804   8.762   1.870   3.577  0.2308 -1.3921 -1.8300
 4334SOL     OW21805   7.839   2.597   1.847 -0.1372  0.0040  1.2324
 4334SOL    HW121806   7.791   2.644   1.921 -0.6527 -0.3956  1.1566
 4334SOL    HW221807   7.843   2.499   1.867 -0.7323 -0.1761  0.4894
 4336SOL     OW21808   1.099   3.408   0.501  0.0769  0.3358  0.5979
 4336SOL    HW121809   1.199   3.411   0.508  0.1477  1.3743 -0.6563
 4336SOL    HW221810   1.067   3.316   0.524  1.2781  0.0952  1.3956
 4337SOL     OW21811   3.952   2.613   4.017 -0.2613 -0.0149 -0.3770
 4337SOL    HW121812   3.861   2.614   3.975  0.2472 -1.4029 -1.5553
 4337SOL    HW221813   4.018   2.576   3.952  1.1362  0.8799  0.5110
 4339SOL     OW21814   5.609   5.570   1.495 -0.0198 -0.1034 -0.3400
 4339SOL    HW121815   5.521   5.541   1.459  0.5834 -0.7175 -1.3437
 4339SOL    HW221816   5.667   5.604   1.421  0.8378 -0.3508  0.2030
 4340SOL     OW21817   8.803   0.504   0.253  0.6660  0.3068 -0.3118
 4340SOL    HW121818   8.837   0.459   0.336 -1.2643  0.5709  0.6583
 4340SOL    HW221819   8.809   0.440   0.176  3.0967  0.2831 -0.1334
 4341SOL     OW21820   2.583   6.002   4.002 -0.4416 -0.0038  0.7543
 4341SOL    HW121821   2.577   5.974   3.907  0.4047  0.1042  0.6635
 4341SOL    HW221822   2.582   6.102   4.007  0.9779  0.0177  0.7445
 4343SOL     OW21823   9.747   4.125   5.798 -0.2888 -0.3405 -0.5017
 4343SOL    HW121824   9.700   4.090   5.718  1.0193  1.0826 -1.9237
 4343SOL    HW221825   9.681   4.172   5.857 -1.1673 -0.9248 -1.0212
 4344SOL     OW21826   9.196   4.818   0.680 -0.3622  0.0536  0.4673
 4344SOL    HW121827   9.163   4.730   0.713  2.3658 -1.2584 -0.1721
 4344SOL    HW221828   9.238   4.868   0.755 -0.2181 -0.0041  0.4247
 4346SOL     OW21829   3.117   3.995   5.842  0.5733  0.7681 -0.0816
 4346SOL    HW121830   3.076   4.075   5.798  2.0529 -0.0757 -3.1459
 4346SOL    HW221831   3.049   3.921   5.846  0.6052  0.6467 -1.5619
 4347SOL     OW21832   0.874   2.113   5.938  0.0465  0.2523 -0.1833
 4347SOL    HW121833   0.948   2.095   5.873 -0.1989 -4.5232  0.6491
 4347SOL    HW221834   0.911   2.156   6.020  1.7304 -1.0588 -0.2349
 4348SOL     OW21835   1.078   5.503   6.068 -0.1024  0.0540 -0.0321
 4348SOL    HW121836   1.134   5.564   6.124 -1.0174  0.5147  0.3835
 4348SOL    HW221837   1.055   5.548   5.982  1.5647 -0.7692 -0.9381
 4349SOL     OW21838   9.254   8.701   6.357  0.1731  0.1843 -0.3692
 4349SOL    HW121839   9.321   8.730   6.288  0.9050  1.6659  0.9390
 4349SOL    HW221840   9.285   8.616   6.399  0.6166  0.2087 -0.6379
 4351SOL     OW21841   2.619   7.385   4.130  0.2562  0.0378 -0.5268
 4351SOL    HW121842   2.682   7.446   4.081 -0.3996  0.2968 -1.0464
 4351SOL    HW221843   2.558   7.340   4.065  0.1379 -0.4886 -0.0526
 4352SOL     OW21844   5.060   1.350   2.110  0.2193 -0.3592  0.1873
 4352SOL    HW121845   5.079   1.448   2.105  0.0378 -0.3510 -0.3526
 4352SOL    HW221846   5.077   1.307   2.022 -2.3819 -0.3205 -0.3894
 4353SOL     OW21847   1.582   7.359   0.554 -0.4317  0.6759  0.3925
 4353SOL    HW121848   1.490   7.394   0.572 -0.0214  1.7659  0.4060
 4353SOL    HW221849   1.583   7.260   0.569 -2.3914  0.1162 -2.5744
 4354SOL     OW21850   8.592   0.127   0.929 -0.7641 -0.8634 -0.3523
 4354SOL    HW121851   8.509   0.179   0.950 -0.4891  0.0521 -1.4745
 4354SOL    HW221852   8.631   0.090   1.014 -0.9849  0.7246  0.4564
 4355SOL     OW21853   4.867   3.889   1.137  0.8126 -0.1907 -0.6283
 4355SOL    HW121854   4.828   3.943   1.212  0.7960 -0.6232 -0.3285
 4355SOL    HW221855   4.924   3.816   1.174  1.0372 -0.2290 -1.0445
 4356SOL     OW21856   8.161   8.745   4.355 -0.5302  0.2053  1.2135
 4356SOL    HW121857   8.218   8.691   4.294  1.4283  2.8024  0.6681
 4356SOL    HW221858   8.065   8.739   4.326 -0.0162 -1.0310 -0.2422
 4357SOL     OW21859   8.224   2.389   1.145  0.0863 -0.1998 -0.4220
 4357SOL    HW121860   8.305   2.334   1.123  0.3983  0.5074 -1.0903
 4357SOL    HW221861   8.168   2.399   1.063  0.2657  0.8427 -0.4226
 4358SOL     OW21862   8.768   5.894   5.149 -0.4020 -0.4826 -0.1135
 4358SOL    HW121863   8.771   5.919   5.053 -1.1760 -0.2797 -0.0827
 4358SOL    HW221864   8.806   5.969   5.204 -0.6901 -0.2790 -0.1952
 4359SOL     OW21865   9.752   2.953   2.836 -0.0562 -0.3611  0.2881
 4359SOL    HW121866   9.849   2.976   2.839 -0.1594  0.2808 -1.0592
 4359SOL    HW221867   9.715   2.956   2.929  0.7180  1.5582  0.5698
 4360SOL     OW21868   6.765   1.034   3.188  0.3659  0.0137 -0.2350
 4360SOL    HW121869   6.807   0.966   3.248  0.1478 -0.2665 -0.3991
 4360SOL    HW221870   6.676   1.062   3.225 -0.0579 -0.6290 -0.7530
 4361SOL     OW21871   9.131   6.148   2.520  0.6255 -0.0216  0.1657
 4361SOL    HW121872   9.222   6.147   2.561  0.1312 -0.1116  1.2579
 4361SOL    HW221873   9.113   6.238   2.481  1.9258 -0.5514 -1.7523
 4362SOL     OW21874   2.083   7.227   1.650 -0.2504  0.6042 -0.3183
 4362SOL    HW121875   2.155   7.158   1.664  0.3320  1.7078  2.3915
 4362SOL    HW221876   2.125   7.311   1.616 -0.5486  0.5915 -0.7129
 4363SOL     OW21877   9.762   3.454   5.035  0.0332  0.0968  0.3563
 4363SOL    HW121878   9.759   3.363   5.077  1.3305  0.3479  1.0007
 4363SOL    HW221879   9.746   3.524   5.105  0.8045  0.4514  0.1848
 4365SOL     OW21880   9.015   4.124   6.200 -0.7830 -0.0862  0.2023
 4365SOL    HW121881   8.970   4.103   6.113  0.1986 -0.0575 -0.3202
 4365SOL    HW221882   9.083   4.196   6.186 -0.3523 -0.3420  0.9143
 4366SOL     OW21883   7.507   6.644   4.006  0.0465  0.4936  0.1996
 4366SOL    HW121884   7.487   6.734   4.045 -2.2605  0.4664 -0.8598
 4366SOL    HW221885   7.466   6.636   3.916 -0.4140 -1.8779  0.5735
 4367SOL     OW21886   9.354   6.087   6.076  0.0450 -0.0976  0.0764
 4367SOL    HW121887   9.378   6.183   6.061 -0.0606 -0.1897 -0.6923
 4367SOL    HW221888   9.322   6.075   6.170  0.3542  0.5586  0.2712
 4368SOL     OW21889   1.411  10.003   4.812 -0.5960 -0.3110  0.0297
 4368SOL    HW121890   1.322  10.011   4.857 -0.5511 -0.3276  0.1234
 4368SOL    HW221891   1.416   9.916   4.764 -0.5104 -0.4512  0.2930
 4370SOL     OW21892   5.133   1.767   4.674 -0.0081 -0.1864 -0.1456
 4370SOL    HW121893   5.198   1.703   4.713  0.0577  0.6654  1.1507
 4370SOL    HW221894   5.086   1.817   4.747  2.1535  3.4716 -1.0792
 4371SOL     OW21895   6.420   0.865   2.227 -0.3781  0.1457 -0.3998
 4371SOL    HW121896   6.322   0.871   2.243 -0.1546  0.6121  0.8158
 4371SOL    HW221897   6.439   0.791   2.162 -1.4161 -0.8171  0.3745
 4372SOL     OW21898   2.189   6.630   3.374  0.2155  0.5521  0.3835
 4372SOL    HW121899   2.266   6.568   3.390 -0.4213 -0.1301  0.8154
 4372SOL    HW221900   2.107   6.577   3.353  0.0470  1.3025 -0.9261
 4373SOL     OW21901   3.969   3.562   2.851 -0.7115 -0.5297 -0.0495
 4373SOL    HW121902   3.875   3.582   2.823  0.1537  4.0539 -0.0339
 4373SOL    HW221903   3.972   3.551   2.950 -0.6157  4.1199  0.5667
 4379SOL     OW21904   9.919   1.271   1.885 -0.2994 -0.2259  0.1629
 4379SOL    HW121905   9.832   1.273   1.934 -0.1466  0.9435  0.4157
 4379SOL    HW221906   9.906   1.233   1.794 -0.9433 -0.6902  0.4469
 4381SOL     OW21907   1.275   8.157   4.472  1.0064 -0.0647 -0.3479
 4381SOL    HW121908   1.313   8.241   4.433  0.9602 -0.4796 -1.3102
 4381SOL    HW221909   1.222   8.180   4.554 -0.3881  1.0718 -1.5276
 4383SOL     OW21910   2.534   9.099   0.121 -0.2514  0.2098 -0.5795
 4383SOL    HW121911   2.615   9.068   0.171 -0.4356 -0.0911 -0.4657
 4383SOL    HW221912   2.539   9.198   0.107 -1.2243  0.6585  1.9572
 4384SOL     OW21913   3.855   4.752   6.164 -0.4261  0.3782  0.0198
 4384SOL    HW121914   3.898   4.843   6.172 -1.8250  0.9377  1.4383
 4384SOL    HW221915   3.823   4.739   6.070  1.7684  0.4149 -0.7777
 4386SOL     OW21916   7.507   1.367   5.246 -0.0880  0.3800 -0.1378
 4386SOL    HW121917   7.521   1.466   5.251  1.1245  0.1388  1.8505
 4386SOL    HW221918   7.597   1.322   5.241 -0.5915 -0.6749  0.3018
 4387SOL     OW21919   8.099   2.882   5.517  0.6658  0.8407 -0.2231
 4387SOL    HW121920   8.179   2.942   5.508  0.8591  0.6973  0.5123
 4387SOL    HW221921   8.038   2.896   5.439  1.6572  0.5732 -1.0619
 4389SOL     OW21922   3.313   2.198   0.952 -0.2834 -0.1034 -0.3420
 4389SOL    HW121923   3.312   2.214   0.853  1.1679  0.2782 -0.3068
 4389SOL    HW221924   3.233   2.144   0.978 -0.7750 -0.0417 -1.6974
 4390SOL     OW21925   4.035   0.684   4.386  0.1446 -0.0444 -0.3042
 4390SOL    HW121926   4.105   0.750   4.359  0.8132 -1.0771 -1.1455
 4390SOL    HW221927   3.984   0.720   4.464  1.2029  1.0012 -0.0714
 4391SOL     OW21928   6.767   5.844   6.312  0.2998 -0.5145  0.2224
 4391SOL    HW121929   6.746   5.800   6.399  2.9862  2.9231  2.6980
 4391SOL    HW221930   6.865   5.835   6.293  0.6068  2.9265 -0.0071
 4393SOL     OW21931   2.457   2.398   1.397  0.6551  0.2317 -0.4245
 4393SOL    HW121932   2.470   2.344   1.314 -2.4472  1.3657 -1.6904
 4393SOL    HW221933   2.474   2.494   1.378 -1.4092  0.6739 -0.1067
 4395SOL     OW21934   3.194   5.779   0.684 -0.5776  0.0699  0.2086
 4395SOL    HW121935   3.215   5.712   0.756 -0.7713 -1.3538 -1.0444
 4395SOL    HW221936   3.096   5.780   0.667 -0.3366 -0.9472 -1.3185
 4396SOL     OW21937   2.509   2.274   0.403  0.9857  0.1320  0.0025
 4396SOL    HW121938   2.496   2.350   0.467  0.3870 -0.0988  0.1519
 4396SOL    HW221939   2.545   2.310   0.316 -2.0455  0.9967 -0.9598
 4398SOL     OW21940   9.331   4.951   0.864 -0.4735  0.2522  0.5369
 4398SOL    HW121941   9.406   4.985   0.806  0.6494 -1.2470  1.0903
 4398SOL    HW221942   9.319   5.012   0.942  2.6842 -1.4768  2.4558
 4399SOL     OW21943   4.543   3.923   5.410 -0.5427  0.0246  0.3512
 4399SOL    HW121944   4.496   3.845   5.452  0.4744  0.2031  1.8326
 4399SOL    HW221945   4.568   3.989   5.480 -1.0914  1.5497 -0.8491
 4400SOL     OW21946   2.615   7.858   2.628  0.3949 -0.1530  0.2268
 4400SOL    HW121947   2.575   7.829   2.716  1.1743  1.1864  1.0288
 4400SOL    HW221948   2.543   7.860   2.559 -0.4350 -0.2261  1.0710
 4401SOL     OW21949   6.986   4.141   1.357  0.0352  0.1590 -0.1446
 4401SOL    HW121950   7.015   4.056   1.312 -1.0264  0.2751 -1.0618
 4401SOL    HW221951   6.954   4.206   1.289 -0.2927  0.8576  0.6637
 4403SOL     OW21952   0.356   8.190   0.616 -0.0941  0.1143  0.6609
 4403SOL    HW121953   0.357   8.255   0.540  0.3891 -0.3651  0.2558
 4403SOL    HW221954   0.267   8.193   0.661 -0.5040  0.1487 -0.1428
 4404SOL     OW21955   8.610   8.650   5.925  1.0187 -0.0856  0.3582
 4404SOL    HW121956   8.542   8.703   5.977  0.2744  0.6193 -1.3170
 4404SOL    HW221957   8.691   8.637   5.981 -0.0865 -0.0463  2.0202
 4405SOL     OW21958   2.303   1.952   5.377 -0.2494 -0.0641  0.0295
 4405SOL    HW121959   2.233   1.952   5.448 -0.4941 -0.2195 -0.2096
 4405SOL    HW221960   2.386   1.996   5.411 -0.2457 -0.4604  0.5253
 4406SOL     OW21961   2.643   9.227   0.416 -0.0691  0.2531  0.0688
 4406SOL    HW121962   2.658   9.231   0.515  0.6702  0.6881 -0.0550
 4406SOL    HW221963   2.564   9.170   0.396  1.0395 -1.5644  0.7833
 4407SOL     OW21964   1.517   3.780   4.742 -0.1933 -0.0521 -0.1242
 4407SOL    HW121965   1.569   3.862   4.719 -0.5095  0.3091  0.4426
 4407SOL    HW221966   1.536   3.709   4.674 -1.1275  0.9965 -1.5140
 4409SOL     OW21967   2.921   8.837   4.598  0.4447  0.2690  0.1300
 4409SOL    HW121968   2.928   8.848   4.698  0.4521 -1.3815  0.3297
 4409SOL    HW221969   2.948   8.744   4.574 -1.5673  0.0273 -1.2042
 4410SOL     OW21970   6.249   0.222   2.362  0.5151 -0.1986  0.0280
 4410SOL    HW121971   6.216   0.315   2.346 -0.6881 -0.8180 -1.0930
 4410SOL    HW221972   6.281   0.214   2.457 -0.9759  0.8735  0.6237
 4411SOL     OW21973   4.649   1.554   0.344 -0.0990 -0.2785 -0.1119
 4411SOL    HW121974   4.708   1.575   0.266  2.3883 -1.0541  1.4776
 4411SOL    HW221975   4.560   1.597   0.331  0.2421 -0.4060 -3.3654
 4412SOL     OW21976   2.100   1.842   6.355 -0.0347  0.1068  0.8440
 4412SOL    HW121977   2.022   1.782   6.369  0.6805 -0.7588  1.1744
 4412SOL    HW221978   2.179   1.788   6.324  0.8305  0.7491  1.8832
 4414SOL     OW21979   7.256   2.706   5.905 -0.1750  0.2564  0.3058
 4414SOL    HW121980   7.230   2.690   6.000  0.0389 -0.3391  0.2670
 4414SOL    HW221981   7.308   2.627   5.871 -0.2414  0.4700 -0.2977
 4415SOL     OW21982   5.056   4.166   1.967  0.0680 -0.5009 -0.5835
 4415SOL    HW121983   5.072   4.077   2.010 -1.1602 -1.0585 -1.2490
 4415SOL    HW221984   4.964   4.197   1.990  1.8532  2.5028  2.9846
 4416SOL     OW21985   1.874   7.698   0.905 -0.4347 -0.2721  0.4092
 4416SOL    HW121986   1.922   7.707   0.993  1.0062 -1.3212 -0.2551
 4416SOL    HW221987   1.781   7.667   0.921  0.0856 -1.3020  1.5222
 4418SOL     OW21988   0.251   8.188   6.105 -0.2814 -0.1742 -0.1836
 4418SOL    HW121989   0.350   8.200   6.106 -0.3581  0.5161 -0.1051
 4418SOL    HW221990   0.222   8.135   6.185 -0.0196 -0.0078  0.0231
 4419SOL     OW21991   8.910   4.015   3.204  0.6849  0.1331  0.2508
 4419SOL    HW121992   8.976   3.945   3.230 -0.2416 -1.5165 -1.6471
 4419SOL    HW221993   8.957   4.102   3.189  2.1757 -0.6102  0.5711
 4420SOL     OW21994   1.842   0.331   3.284  0.2588  0.2812 -0.4815
 4420SOL    HW121995   1.883   0.283   3.207  1.5700 -1.7709  1.4414
 4420SOL    HW221996   1.914   0.372   3.340 -0.3476 -1.9048  1.9852
 4422SOL     OW21997   2.261   5.054   5.782  0.5220  0.1318  0.4987
 4422SOL    HW121998   2.260   5.115   5.703 -1.3098 -1.6091 -0.8832
 4422SOL    HW221999   2.208   5.095   5.856 -0.9762  0.1305 -0.5288
 4423SOL     OW22000   1.701   0.640   6.117 -0.2234 -0.6682 -0.3555
 4423SOL    HW122001   1.716   0.707   6.045 -1.4156 -1.9062 -1.7835
 4423SOL    HW222002   1.760   0.561   6.102  0.1628 -0.5548  0.5330
 4424SOL     OW22003   0.599   4.262   4.742  0.1202 -0.3261  0.3420
 4424SOL    HW122004   0.639   4.262   4.650  2.4993 -0.4730  1.3247
 4424SOL    HW222005   0.558   4.173   4.761 -3.0297  0.6365 -1.6317
 4425SOL     OW22006   5.405   0.469   4.658  0.1082 -0.0325 -0.0736
 4425SOL    HW122007   5.365   0.453   4.567 -1.7945  2.8639  0.2073
 4425SOL    HW222008   5.446   0.384   4.691 -0.1876 -1.4382 -3.1356
 4426SOL     OW22009   5.039   7.877   1.806 -0.0007 -0.6345  0.2539
 4426SOL    HW122010   5.095   7.925   1.873  0.3187 -0.5783 -0.0508
 4426SOL    HW222011   5.032   7.933   1.723  0.3671 -1.1101 -0.0992
 4427SOL     OW22012   9.413   6.545   5.555  0.1703 -0.4207 -0.3471
 4427SOL    HW122013   9.350   6.606   5.506  0.3175 -0.8390 -1.0597
 4427SOL    HW222014   9.493   6.527   5.499 -0.0241 -1.5401 -0.2869
 4428SOL     OW22015   0.323   6.852   3.148  0.1717  0.5612  0.3700
 4428SOL    HW122016   0.416   6.825   3.123  0.4705  1.7891  0.0940
 4428SOL    HW222017   0.266   6.854   3.065 -0.2112 -0.5985  0.6007
 4429SOL     OW22018   1.656   8.214   6.142 -0.0955 -0.3698 -0.1650
 4429SOL    HW122019   1.625   8.120   6.128  1.7745 -1.0319  0.0411
 4429SOL    HW222020   1.659   8.234   6.240  0.4757 -0.4350 -0.1671
 4430SOL     OW22021   6.260   8.271   6.188  0.2704 -0.0125  0.3886
 4430SOL    HW122022   6.198   8.347   6.208 -0.3874 -0.8903  1.7524
 4430SOL    HW222023   6.353   8.305   6.181 -0.2420  1.1952 -0.8536
 4432SOL     OW22024   1.060   9.868   3.472  0.3497 -0.0292 -0.0436
 4432SOL    HW122025   1.087   9.836   3.563  0.6187 -0.7625 -0.3884
 4432SOL    HW222026   0.961   9.882   3.471  0.5464  1.5578  0.8602
 4433SOL     OW22027   7.284   9.502   5.154 -0.3362  0.1279  0.1891
 4433SOL    HW122028   7.381   9.525   5.163 -0.5620  2.1873 -2.0979
 4433SOL    HW222029   7.233   9.545   5.228  0.3389  0.0426  0.7111
 4434SOL     OW22030   9.371   0.493   0.135  0.4845 -0.4144  0.4229
 4434SOL    HW122031   9.318   0.412   0.109 -0.0894  0.2508 -0.4779
 4434SOL    HW222032   9.378   0.497   0.235 -0.3272 -1.0325  0.5063
 4435SOL     OW22033   0.009   9.047   4.924  0.7988 -0.5575 -0.1213
 4435SOL    HW122034   0.022   9.062   5.022  0.4869  0.3310 -0.2131
 4435SOL    HW222035  -0.076   9.091   4.895  0.3159 -1.7547 -0.5753
 4436SOL     OW22036   6.136   4.178   1.048 -0.1549  0.3942 -0.1509
 4436SOL    HW122037   6.177   4.235   1.119  0.4995  1.3991 -1.3116
 4436SOL    HW222038   6.037   4.191   1.048 -0.0899  0.9105  0.1407
 4437SOL     OW22039   2.291   1.076   4.607 -0.0538  0.2560 -0.5997
 4437SOL    HW122040   2.363   1.135   4.572  1.3895 -0.7761  0.5642
 4437SOL    HW222041   2.216   1.131   4.643  1.6258  1.3902  1.2158
 4439SOL     OW22042   6.108   1.247   5.943 -0.3967  0.1005  0.0465
 4439SOL    HW122043   6.154   1.282   6.025 -0.4604 -1.9641  0.9937
 4439SOL    HW222044   6.168   1.256   5.864 -0.1504  1.6742  0.3854
 4440SOL     OW22045   3.015   7.137   5.953 -0.1734 -0.6900 -0.4289
 4440SOL    HW122046   3.110   7.139   5.983  0.2307 -0.8150 -1.6712
 4440SOL    HW222047   3.007   7.082   5.870 -1.5416 -1.6949  0.3439
 4441SOL     OW22048   1.615   9.201   1.949  0.1435  0.9700 -0.1584
 4441SOL    HW122049   1.595   9.119   1.895  0.8100  1.6164 -1.4164
 4441SOL    HW222050   1.638   9.276   1.887  0.6902  1.7951  1.0330
 4442SOL     OW22051   5.679   1.339   3.210  0.0046  0.2870  0.0073
 4442SOL    HW122052   5.605   1.296   3.159 -0.1212  0.4527  0.0491
 4442SOL    HW222053   5.757   1.277   3.214 -0.8909 -0.7803  1.8249
 4443SOL     OW22054   7.151   3.236   2.646 -0.4018 -0.3397  0.4410
 4443SOL    HW122055   7.167   3.293   2.726 -1.3415  0.4347  0.0852
 4443SOL    HW222056   7.089   3.161   2.670  1.7188 -1.9030  1.1948
 4444SOL     OW22057   8.594   3.813   2.874 -0.0285  0.5467  0.5361
 4444SOL    HW122058   8.656   3.793   2.950  1.1573 -0.7877 -0.7596
 4444SOL    HW222059   8.631   3.774   2.790 -0.8090  2.8761 -0.9333
 4445SOL     OW22060   3.778   8.374   3.864 -0.1295  0.5499 -0.1699
 4445SOL    HW122061   3.854   8.310   3.873  0.3202  1.3976  2.5710
 4445SOL    HW222062   3.693   8.323   3.847  0.0704 -0.8994  2.8012
 4446SOL     OW22063   7.256   0.780   4.907  0.3261  0.2312 -0.7244
 4446SOL    HW122064   7.174   0.723   4.909 -0.0582  0.7903 -0.1396
 4446SOL    HW222065   7.229   0.877   4.908  1.0079  0.4221  0.5260
 4447SOL     OW22066   9.091   4.721   2.023 -0.2219 -0.1012 -0.6486
 4447SOL    HW122067   9.074   4.818   2.004  0.0957 -0.0492 -0.6636
 4447SOL    HW222068   9.048   4.696   2.110 -0.1388  0.0987 -0.5511
 4448SOL     OW22069   0.184   9.251   0.255  0.3689 -0.0962  0.4717
 4448SOL    HW122070   0.226   9.216   0.171 -1.5055 -0.4679 -0.3447
 4448SOL    HW222071   0.146   9.174   0.307 -1.9324  0.4879 -0.3006
 4449SOL     OW22072   1.319   6.255   0.160 -0.5124 -0.2211 -0.2964
 4449SOL    HW122073   1.278   6.176   0.113 -0.9075  0.3200 -0.8649
 4449SOL    HW222074   1.273   6.268   0.249 -1.2101  0.0455 -0.6886
 4450SOL     OW22075   4.636   3.090   4.315 -0.2719  0.1544 -0.1629
 4450SOL    HW122076   4.572   3.168   4.315 -0.8276 -0.2869 -1.4439
 4450SOL    HW222077   4.714   3.112   4.373 -1.4937  0.7818  1.2786
 4451SOL     OW22078   8.649   4.733   5.329 -0.0324 -0.4295 -0.3943
 4451SOL    HW122079   8.640   4.824   5.287  0.0965  0.0691  0.6311
 4451SOL    HW222080   8.595   4.667   5.277 -0.3902  0.2963 -0.9650
 4452SOL     OW22081   3.120   8.950   2.782 -0.5079 -0.2760  0.4149
 4452SOL    HW122082   3.199   8.891   2.770 -1.1147 -0.8478 -0.8324
 4452SOL    HW222083   3.118   8.985   2.876  1.4700  0.1323  0.3076
 4453SOL     OW22084   1.935   5.513   2.206 -0.3002  0.0877 -0.5563
 4453SOL    HW122085   2.028   5.498   2.173  0.2858  1.3638  0.4671
 4453SOL    HW222086   1.938   5.538   2.303 -1.8004 -1.0884 -0.1838
 4456SOL     OW22087   4.363   1.373   0.249 -0.4749 -0.0008  0.6089
 4456SOL    HW122088   4.406   1.320   0.322  1.1560  0.0216 -0.3226
 4456SOL    HW222089   4.363   1.470   0.273  1.4873  0.1935 -0.0935
 4458SOL     OW22090   4.411   4.537   2.998 -1.2822  0.2334  0.4504
 4458SOL    HW122091   4.471   4.472   3.044 -0.6390 -1.4287 -2.6109
 4458SOL    HW222092   4.459   4.624   2.986  0.0991 -0.6745 -0.8089
 4459SOL     OW22093   0.436   2.472   4.891 -0.1031  0.1229 -0.3008
 4459SOL    HW122094   0.480   2.526   4.819  0.1593  0.4587  0.1036
 4459SOL    HW222095   0.454   2.375   4.876 -0.1559  0.1833 -0.7576
 4460SOL     OW22096   3.167   9.173   5.209 -0.2364  0.3629  0.1014
 4460SOL    HW122097   3.145   9.076   5.196 -2.7751  0.8638  0.3629
 4460SOL    HW222098   3.177   9.193   5.306  0.1268  0.3944  0.0578
 4461SOL     OW22099   3.635   3.725   3.419 -0.1941 -0.0590 -0.0685
 4461SOL    HW122100   3.549   3.754   3.461 -0.3017 -0.1046 -0.2553
 4461SOL    HW222101   3.689   3.673   3.486  0.8473  2.1863  0.8751
 4463SOL     OW22102   7.548   9.582   3.467  0.3041 -0.3981 -0.0138
 4463SOL    HW122103   7.647   9.582   3.452 -0.0173 -0.6209 -2.2385
 4463SOL    HW222104   7.503   9.627   3.390 -1.2085  1.5575  1.9692
 4464SOL     OW22105   2.761   1.472   3.210 -0.5347  0.1726 -0.5184
 4464SOL    HW122106   2.751   1.484   3.112 -0.1663 -0.5337 -0.6467
 4464SOL    HW222107   2.813   1.389   3.228  1.1992  1.3850  0.2203
 4467SOL     OW22108   6.968   0.963   1.614  0.6958 -0.3772 -0.2297
 4467SOL    HW122109   6.871   0.941   1.611  0.8180 -0.8558 -0.9647
 4467SOL    HW222110   6.982   1.048   1.663 -0.2414  0.5049 -1.4522
 4469SOL     OW22111   0.439   6.507   3.269 -0.1281 -0.1580 -0.5392
 4469SOL    HW122112   0.444   6.411   3.297  0.3366 -0.4983 -1.7811
 4469SOL    HW222113   0.518   6.557   3.306  0.6503 -0.6731 -1.5013
 4470SOL     OW22114   2.273   4.865   3.706 -0.4255 -0.5299 -0.5659
 4470SOL    HW122115   2.267   4.964   3.695 -0.2136 -0.5814 -1.1642
 4470SOL    HW222116   2.198   4.821   3.657  0.4177 -0.7520 -1.6611
 4471SOL     OW22117   5.449   6.142   0.715  0.0703  0.3816 -0.3597
 4471SOL    HW122118   5.423   6.183   0.802  0.0259 -2.2414  0.9132
 4471SOL    HW222119   5.415   6.199   0.640 -0.2655  2.4438  1.3203
 4472SOL     OW22120   9.190   3.563   4.571  0.2506 -0.5340 -0.1489
 4472SOL    HW122121   9.277   3.613   4.575 -0.9515  1.6044  0.0160
 4472SOL    HW222122   9.203   3.471   4.606  2.2386  0.0960  0.8382
 4473SOL     OW22123   9.592   7.035   3.070  0.1175 -0.0814  0.4912
 4473SOL    HW122124   9.597   6.935   3.065  0.4548 -0.1596  2.2606
 4473SOL    HW222125   9.504   7.062   3.109  0.7374  0.2441  1.6974
 4474SOL     OW22126   9.667   3.014   1.159 -0.0545 -0.2512 -0.2253
 4474SOL    HW122127   9.762   3.008   1.189 -0.3868 -2.8097  0.3754
 4474SOL    HW222128   9.606   3.021   1.239 -0.4604  0.2776 -0.5712
 4475SOL     OW22129   0.757   5.978   6.358  0.0291 -0.6136 -0.1937
 4475SOL    HW122130   0.809   5.908   6.309  0.6178  0.5691 -1.2781
 4475SOL    HW222131   0.661   5.952   6.361  0.4673 -2.2007  0.7253
 4476SOL     OW22132   0.212   8.752   2.693 -0.4712  0.3269 -0.1686
 4476SOL    HW122133   0.125   8.741   2.740 -0.4986  1.5980  0.0897
 4476SOL    HW222134   0.273   8.677   2.718 -0.8906  0.3652  1.0064
 4477SOL     OW22135   9.345   5.187   3.981  0.0370 -0.1719  0.1135
 4477SOL    HW122136   9.400   5.108   4.007  0.2536  0.8534  2.8486
 4477SOL    HW222137   9.249   5.162   3.977  0.3557 -1.1782 -1.5292
 4479SOL     OW22138   9.432   4.725   6.019 -0.1002  0.4306 -0.2014
 4479SOL    HW122139   9.414   4.818   5.987  0.2658  0.7077  0.4074
 4479SOL    HW222140   9.438   4.723   6.118 -1.5170 -0.4888 -0.1219
 4480SOL     OW22141   0.554   8.283   3.089  0.5010  0.3077 -0.3708
 4480SOL    HW122142   0.457   8.308   3.080  0.2559 -0.9329 -1.2449
 4480SOL    HW222143   0.610   8.351   3.041  0.0576  0.9028 -0.0605
 4481SOL     OW22144   2.289   4.505   5.925  0.1896 -0.1480 -0.0373
 4481SOL    HW122145   2.238   4.461   5.998 -1.3229  0.9371 -0.4124
 4481SOL    HW222146   2.250   4.479   5.836 -0.1677  1.2329 -0.3016
 4482SOL     OW22147   8.860   0.287   3.119  0.6612  0.2992 -0.3286
 4482SOL    HW122148   8.952   0.260   3.148  1.0057 -0.7490 -2.2965
 4482SOL    HW222149   8.802   0.298   3.200  1.9079 -1.3065  0.8380
 4483SOL     OW22150   0.059   3.209   6.334  0.0214  0.5154  0.1188
 4483SOL    HW122151   0.066   3.297   6.381 -1.4414  0.4289  0.5510
 4483SOL    HW222152   0.097   3.217   6.242 -0.7375  1.8217 -0.1035
 4484SOL     OW22153   7.925   8.419   3.023  0.2871  0.1187 -0.0236
 4484SOL    HW122154   7.993   8.491   3.009 -1.6051  1.9188 -0.2462
 4484SOL    HW222155   7.932   8.352   2.950  1.2682  0.7377 -0.5103
 4485SOL     OW22156   2.410   3.274   3.072  0.2247  0.3935 -0.3452
 4485SOL    HW122157   2.462   3.196   3.037  0.6804  0.9673 -0.9606
 4485SOL    HW222158   2.321   3.278   3.027  0.4787  0.6403 -0.8241
 4487SOL     OW22159   4.090   3.937   5.768  0.1397  0.1503 -0.1078
 4487SOL    HW122160   4.027   3.983   5.830  1.6927  2.0392  0.1058
 4487SOL    HW222161   4.080   3.973   5.675  0.6496  0.2252 -0.1404
 4488SOL     OW22162   2.017   9.845   4.472  0.0822 -0.3751 -0.1777
 4488SOL    HW122163   1.925   9.870   4.503  0.3847  0.8537 -0.2463
 4488SOL    HW222164   2.031   9.881   4.379  1.0438  0.4283  0.2745
 4489SOL     OW22165   3.252   4.350   6.149 -0.0575 -0.1029  0.0399
 4489SOL    HW122166   3.282   4.411   6.222 -1.6654 -0.2530  0.8376
 4489SOL    HW222167   3.230   4.260   6.187  1.4689 -0.9526 -0.9970
 4490SOL     OW22168   1.906   1.974   0.435 -0.4629 -0.1013 -0.5860
 4490SOL    HW122169   1.968   2.043   0.473 -1.7577  0.5647  0.3383
 4490SOL    HW222170   1.818   2.016   0.414 -0.5142 -0.9842 -2.1790
 4491SOL     OW22171   7.031   5.671   6.427 -0.5190 -0.1769 -0.1589
 4491SOL    HW122172   7.049   5.713   6.337 -1.2102 -1.2397 -0.8059
 4491SOL    HW222173   6.932   5.669   6.443 -0.3645  0.7860  1.0201
 4493SOL     OW22174   5.529   2.003   4.092  0.2798 -0.0778 -0.0575
 4493SOL    HW122175   5.504   2.075   4.156  1.2849 -0.5493  0.8792
 4493SOL    HW222176   5.620   2.023   4.054 -0.0539 -0.1083 -0.8812
 4496SOL     OW22177   4.925   0.842   4.345  0.1547  0.2982 -0.4059
 4496SOL    HW122178   4.937   0.746   4.370 -0.5966 -0.0445 -1.3477
 4496SOL    HW222179   5.015   0.886   4.339  0.4180  0.0286  1.4602
 4497SOL     OW22180   3.573   5.867   0.433 -0.2922  0.4123 -0.0612
 4497SOL    HW122181   3.606   5.961   0.439 -1.1996  0.7268  0.1596
 4497SOL    HW222182   3.611   5.823   0.352  0.0763  0.9941 -0.2100
 4499SOL     OW22183   9.480   0.465   0.671 -0.2929  0.0246 -0.1401
 4499SOL    HW122184   9.413   0.391   0.666 -0.5060  0.1997  0.1062
 4499SOL    HW222185   9.572   0.427   0.664 -0.4088 -0.2346 -0.3013
 4500SOL     OW22186   5.890   5.981   1.742  0.5724 -0.6507 -0.2150
 4500SOL    HW122187   5.925   5.934   1.661  2.5364  0.4463 -0.0406
 4500SOL    HW222188   5.924   5.936   1.824  0.4830 -0.3843 -0.0315
 4501SOL     OW22189   2.882   8.610   2.818 -0.0884  0.8186 -0.3635
 4501SOL    HW122190   2.808   8.635   2.755  0.9461 -0.5072 -2.1666
 4501SOL    HW222191   2.890   8.511   2.821 -0.1916  0.8517  2.0162
 4502SOL     OW22192   4.946   9.580   2.209 -0.1385 -0.6327 -0.1153
 4502SOL    HW122193   4.878   9.627   2.265 -0.4979 -1.7809  0.4352
 4502SOL    HW222194   5.027   9.638   2.199 -1.3238  0.8936 -1.0742
 4503SOL     OW22195   4.491   7.289   2.600  0.1311 -0.5142 -0.0177
 4503SOL    HW122196   4.590   7.297   2.608  0.1497 -0.4096 -0.3542
 4503SOL    HW222197   4.453   7.373   2.561  0.0130 -0.9217 -0.7977
 4504SOL     OW22198   8.401   6.504   5.267 -0.0283 -0.1734 -0.3166
 4504SOL    HW122199   8.436   6.509   5.361 -0.5828 -0.7084 -0.0722
 4504SOL    HW222200   8.348   6.585   5.247 -0.6930 -0.4822  0.1630
 4505SOL     OW22201   0.502   5.471   1.238 -0.3068 -0.5892 -0.1335
 4505SOL    HW122202   0.526   5.416   1.158  1.4163  2.0125 -1.4626
 4505SOL    HW222203   0.431   5.537   1.213 -1.3003 -1.1963  1.0593
 4506SOL     OW22204   9.065   5.216   4.988 -0.1293 -0.7591  0.2278
 4506SOL    HW122205   9.067   5.155   4.909  0.8885  0.1323 -0.4477
 4506SOL    HW222206   9.159   5.240   5.014 -0.4653 -0.7461  1.4872
 4509SOL     OW22207   2.000   4.580   5.726  0.4131 -0.2655 -0.5012
 4509SOL    HW122208   2.055   4.592   5.643 -2.1993 -0.9539 -2.3967
 4509SOL    HW222209   1.979   4.669   5.766  2.8179  0.0026  0.2153
 4510SOL     OW22210   1.106   6.071   2.745  0.0010  0.0182  0.7594
 4510SOL    HW122211   1.008   6.080   2.759 -0.2787  1.8922 -1.9653
 4510SOL    HW222212   1.148   6.162   2.743  1.3895 -0.6384 -0.6482
 4511SOL     OW22213   9.940   6.135   5.084 -0.1286  0.5901  0.3498
 4511SOL    HW122214   9.842   6.151   5.094 -0.5016 -1.0292 -0.4782
 4511SOL    HW222215   9.965   6.051   5.132  0.9173  1.1662  0.8198
 4512SOL     OW22216   9.512   7.777   1.808  0.0828 -0.0347  0.3420
 4512SOL    HW122217   9.604   7.748   1.780 -0.2260 -0.9154  0.2275
 4512SOL    HW222218   9.502   7.875   1.793  1.5823  0.3864  1.9435
 4513SOL     OW22219   1.288   0.912   4.111  0.5826 -0.4654 -0.4822
 4513SOL    HW122220   1.244   0.977   4.049 -0.4441  0.2772  0.9973
 4513SOL    HW222221   1.219   0.854   4.154  1.0617  0.3338  1.4358
 4514SOL     OW22222   4.414   6.252   3.158  0.0730 -0.2188  0.4421
 4514SOL    HW122223   4.410   6.167   3.106  0.9509  0.6641 -1.0930
 4514SOL    HW222224   4.369   6.325   3.107  1.3299  0.7569  0.7094
 4515SOL     OW22225   0.666   8.467   1.480  0.1655  0.2330 -0.1708
 4515SOL    HW122226   0.676   8.556   1.523 -0.0446  0.2297 -0.1093
 4515SOL    HW222227   0.604   8.474   1.402 -0.9245 -0.1167  0.6493
 4516SOL     OW22228   2.731   7.109   5.516  0.0492 -0.0822 -0.3454
 4516SOL    HW122229   2.753   7.158   5.432  0.6070 -0.3538 -0.3590
 4516SOL    HW222230   2.730   7.010   5.498 -1.1844 -0.0796 -0.3441
 4517SOL     OW22231   7.761   1.173   3.438  0.0451  0.1907 -0.1597
 4517SOL    HW122232   7.751   1.260   3.391 -0.6103 -0.7683 -1.8333
 4517SOL    HW222233   7.670   1.134   3.454  0.3439 -0.2469  0.5001
 4518SOL     OW22234   7.942   3.808   0.908 -0.0867 -0.0407  0.5720
 4518SOL    HW122235   7.946   3.753   0.824  1.9023 -0.3116  0.8274
 4518SOL    HW222236   8.033   3.841   0.931 -0.7930  0.9553  2.0419
 4519SOL     OW22237   4.886   6.951   1.220  0.2184 -0.0134  0.1316
 4519SOL    HW122238   4.856   7.046   1.222 -1.2452 -0.4705  0.0228
 4519SOL    HW222239   4.885   6.914   1.313 -0.5297 -0.3294 -0.0010
 4521SOL     OW22240   2.443   6.744   3.826 -0.2307  0.2027 -0.4172
 4521SOL    HW122241   2.486   6.727   3.738  1.2375 -1.4158  0.5895
 4521SOL    HW222242   2.353   6.786   3.812  0.0967  0.1920 -2.6538
 4522SOL     OW22243   5.727   1.843   0.227 -0.4731  0.5090 -0.2550
 4522SOL    HW122244   5.747   1.879   0.135 -2.0765  1.6353 -0.1885
 4522SOL    HW222245   5.807   1.852   0.285  1.0417 -1.5833 -1.9623
 4523SOL     OW22246   0.708   3.326   5.738 -0.1531 -0.0739 -0.2471
 4523SOL    HW122247   0.742   3.235   5.711 -0.7311 -0.2234 -0.4720
 4523SOL    HW222248   0.724   3.339   5.836 -0.4553 -0.5943 -0.1234
 4524SOL     OW22249   0.960   5.323   2.833  0.2760 -0.1197 -0.1910
 4524SOL    HW122250   1.020   5.325   2.912  0.8487  0.2329 -0.6308
 4524SOL    HW222251   0.865   5.325   2.863  0.4950  0.2762  0.4772
 4525SOL     OW22252   4.632   0.145   5.072 -0.6310  0.0186 -0.4046
 4525SOL    HW122253   4.591   0.056   5.093  1.0763 -0.7719 -0.3626
 4525SOL    HW222254   4.560   0.215   5.071 -1.6589 -0.9476  1.9116
 4526SOL     OW22255   4.985   2.854   3.569 -0.2180  0.1492  0.4496
 4526SOL    HW122256   4.942   2.849   3.658 -0.6496 -0.1177  0.2264
 4526SOL    HW222257   4.988   2.949   3.538  2.7484  0.6582  2.1255
 4527SOL     OW22258   5.522   2.588   0.212  0.4099 -0.1760 -0.9791
 4527SOL    HW122259   5.458   2.665   0.201  0.3663  0.2115  1.6077
 4527SOL    HW222260   5.614   2.618   0.187  0.2332  0.4500 -0.8970
 4528SOL     OW22261   9.056   7.787   4.251 -0.6863  0.1671  0.2287
 4528SOL    HW122262   9.092   7.784   4.157 -0.8816  2.3390  0.0611
 4528SOL    HW222263   8.985   7.717   4.261  0.4436 -1.1614 -0.7596
 4529SOL     OW22264   0.164   0.328   0.838 -0.0254 -0.4475 -0.7873
 4529SOL    HW122265   0.235   0.293   0.777 -0.5871 -0.6874 -1.3061
 4529SOL    HW222266   0.083   0.271   0.831 -1.0511  1.1079 -1.8648
 4530SOL     OW22267   2.708   9.808   5.964 -0.1645  0.8232  0.4607
 4530SOL    HW122268   2.710   9.907   5.953 -0.1094  0.6915 -0.9154
 4530SOL    HW222269   2.796   9.770   5.934 -1.8454 -0.0356 -3.7536
 4531SOL     OW22270   8.785   9.476   0.600 -0.0997 -0.7131 -0.3093
 4531SOL    HW122271   8.833   9.503   0.516 -0.3774  0.5238 -0.0771
 4531SOL    HW222272   8.852   9.450   0.669  0.2512  1.1070  0.0448
 4532SOL     OW22273   5.649   9.222   2.320  0.6041 -0.3411  0.2415
 4532SOL    HW122274   5.681   9.257   2.232 -1.7189  1.7561  0.1640
 4532SOL    HW222275   5.660   9.123   2.323  2.0050 -0.2724 -1.8417
 4533SOL     OW22276   6.332   8.997   5.906 -0.2725 -0.3995  0.1015
 4533SOL    HW122277   6.374   8.918   5.949  1.0312  0.1575 -0.1146
 4533SOL    HW222278   6.285   9.053   5.975  0.4462 -0.3497  0.5509
 4535SOL     OW22279   7.702   8.539   4.208  0.3097  0.1445  0.4176
 4535SOL    HW122280   7.704   8.467   4.277  0.8610  0.0811  0.3401
 4535SOL    HW222281   7.791   8.543   4.161  0.2618  0.8263  0.3764
 4536SOL     OW22282   4.470   4.308   6.360  0.8139  1.0245  0.1437
 4536SOL    HW122283   4.558   4.309   6.313 -0.0723  1.0899 -1.5470
 4536SOL    HW222284   4.458   4.394   6.409  1.6322  1.0692  0.2667
 4537SOL     OW22285   8.038   1.198   1.123  0.8342 -0.6807 -0.5528
 4537SOL    HW122286   7.965   1.144   1.163  1.1934 -2.9734 -2.8527
 4537SOL    HW222287   8.114   1.205   1.187 -0.7799  0.5257  1.2998
 4538SOL     OW22288   2.815   6.867   2.310 -0.0208  0.3756  0.2323
 4538SOL    HW122289   2.856   6.907   2.228 -0.9210 -1.0593 -0.9479
 4538SOL    HW222290   2.751   6.932   2.350 -1.7762  0.0058 -1.8994
 4539SOL     OW22291   1.449   4.018   3.841 -0.0552 -0.4246  0.2716
 4539SOL    HW122292   1.537   4.019   3.794 -0.6426 -1.4589 -0.8707
 4539SOL    HW222293   1.378   3.988   3.778 -1.0519 -0.6626  1.4965
 4540SOL     OW22294   8.139   0.125   0.641 -0.0296 -0.3060  0.2654
 4540SOL    HW122295   8.044   0.114   0.668 -0.0905 -2.3063 -0.6712
 4540SOL    HW222296   8.193   0.049   0.678  0.5597 -1.0491 -2.0330
 4541SOL     OW22297   8.994   4.215   5.440  0.4089 -0.3042  0.2887
 4541SOL    HW122298   8.910   4.266   5.419  0.0231 -0.8283  0.5332
 4541SOL    HW222299   9.072   4.260   5.397 -0.0851 -0.1635 -0.4796
 4542SOL     OW22300   9.890   2.250   2.523 -0.2944 -0.1266 -0.2505
 4542SOL    HW122301   9.916   2.342   2.550 -2.2977  0.4126 -0.1182
 4542SOL    HW222302   9.916   2.185   2.595 -1.5595  0.7216  0.9862
 4543SOL     OW22303   2.532   6.560   5.287  0.4299  0.2281 -0.0716
 4543SOL    HW122304   2.610   6.527   5.340  0.4151 -0.2300 -0.3333
 4543SOL    HW222305   2.448   6.550   5.342  0.6924  1.7544  0.6344
 4544SOL     OW22306   0.036   6.991   3.731  0.5335 -0.6531  0.0807
 4544SOL    HW122307   0.041   6.904   3.779  0.4929 -1.3117 -1.0983
 4544SOL    HW222308  -0.053   7.034   3.746  0.4688 -0.9265  0.4628
 4545SOL     OW22309   9.288   3.004   0.300 -0.5611 -0.7807 -0.1465
 4545SOL    HW122310   9.216   2.990   0.367 -2.5625 -0.0713 -2.0986
 4545SOL    HW222311   9.252   2.989   0.208  0.8336  2.9705 -1.4128
 4546SOL     OW22312   9.619   5.917   2.289  0.3282 -0.3333  0.1960
 4546SOL    HW122313   9.615   5.842   2.355  0.4662 -0.4461  0.0771
 4546SOL    HW222314   9.627   5.880   2.197  1.3311 -0.1650  0.2078
 4547SOL     OW22315   9.366   2.261   3.906 -0.5406  0.1757  0.1497
 4547SOL    HW122316   9.355   2.361   3.903 -2.1489  0.0357  0.6128
 4547SOL    HW222317   9.424   2.232   3.830 -2.3266  1.2159 -1.7130
 4550SOL     OW22318   8.183   3.033   3.912  0.2879  0.2203  0.0291
 4550SOL    HW122319   8.231   2.972   3.976 -0.3030  0.6754  0.9180
 4550SOL    HW222320   8.190   2.996   3.819  0.6946 -0.7391  0.4322
 4551SOL     OW22321   0.591   6.013   3.160 -0.0691 -0.2195  0.1792
 4551SOL    HW122322   0.522   5.962   3.109 -0.3876  1.3959 -1.0646
 4551SOL    HW222323   0.632   5.954   3.230 -1.8689 -1.5381  0.1527
 4552SOL     OW22324   0.559   2.116   1.846 -0.2256 -0.6639  0.5660
 4552SOL    HW122325   0.550   2.094   1.749 -1.1914 -0.3197  0.5752
 4552SOL    HW222326   0.570   2.215   1.857  1.4129 -0.8444  0.7094
 4553SOL     OW22327   2.931   2.261   0.452 -0.4296 -0.0476  0.2300
 4553SOL    HW122328   2.881   2.259   0.539  0.6681 -0.0640  0.8723
 4553SOL    HW222329   2.941   2.167   0.418  1.7358 -0.3580  1.6188
 4554SOL     OW22330   9.373   9.936   4.127 -0.3616 -0.2955  0.2633
 4554SOL    HW122331   9.320   9.897   4.203 -0.2151  1.8595  1.5132
 4554SOL    HW222332   9.469   9.940   4.152 -0.4869  1.6784  0.5485
 4557SOL     OW22333   9.116   9.736   5.833 -0.2365 -0.7687  0.5021
 4557SOL    HW122334   9.031   9.760   5.787 -0.3249 -0.2374  0.9439
 4557SOL    HW222335   9.124   9.636   5.837 -2.3888 -0.8928  3.2255
 4558SOL     OW22336   2.133   3.247   0.278 -0.0549  0.5074 -0.5433
 4558SOL    HW122337   2.147   3.192   0.360 -1.5981  0.9494  0.0265
 4558SOL    HW222338   2.155   3.342   0.297 -0.4206  0.6131 -0.6488
 4559SOL     OW22339   5.148   0.956   3.647 -0.7471  0.2588 -0.2759
 4559SOL    HW122340   5.103   0.867   3.645  0.6239 -0.4620  0.5063
 4559SOL    HW222341   5.202   0.968   3.564 -0.3843  0.0635 -0.0709
 4560SOL     OW22342   0.624   7.388   5.600  0.3795 -0.1409  0.4133
 4560SOL    HW122343   0.672   7.418   5.517  1.1432 -0.0629  0.8829
 4560SOL    HW222344   0.600   7.467   5.656 -1.7292 -0.0351 -0.5729
 4561SOL     OW22345   4.388   1.115   4.479 -0.8894 -0.7066 -0.0818
 4561SOL    HW122346   4.460   1.077   4.537 -0.5860 -1.0501 -0.6864
 4561SOL    HW222347   4.417   1.204   4.443 -1.2903 -0.2419  0.7069
 4562SOL     OW22348   5.234   3.604   1.283 -0.0743  0.0579 -0.4216
 4562SOL    HW122349   5.309   3.656   1.244 -0.7996  1.0778 -0.4726
 4562SOL    HW222350   5.222   3.519   1.231  1.0131 -0.0980 -0.4277
 4563SOL     OW22351   4.107   7.812   1.424  0.0821  0.0802  0.4874
 4563SOL    HW122352   4.067   7.730   1.382  0.8119  0.4528 -0.9206
 4563SOL    HW222353   4.046   7.890   1.409  0.3072  0.1975  0.1861
 4564SOL     OW22354   3.152   3.091   0.661  0.0566 -0.3933  0.1261
 4564SOL    HW122355   3.056   3.120   0.659  0.0115 -0.3875  1.7853
 4564SOL    HW222356   3.179   3.061   0.570 -1.3105  0.2977 -0.5269
 4566SOL     OW22357   7.621   5.348   1.125 -0.7232  0.4421 -0.1734
 4566SOL    HW122358   7.542   5.346   1.064 -0.5897  1.3029 -0.3723
 4566SOL    HW222359   7.677   5.428   1.105 -0.3968  0.4401  0.7203
 4567SOL     OW22360   1.571   1.543   4.940  0.5600  0.3863  0.3448
 4567SOL    HW122361   1.482   1.499   4.925  1.5389 -1.6955  0.4509
 4567SOL    HW222362   1.589   1.549   5.038  1.3063 -0.8465  0.2984
 4568SOL     OW22363   9.742   1.132   1.165 -0.0567  0.1617  0.1241
 4568SOL    HW122364   9.673   1.111   1.234  1.5764 -0.1580  1.6976
 4568SOL    HW222365   9.743   1.231   1.147 -0.3855  0.2608  0.6599
 4569SOL     OW22366   5.650   8.153   3.161  0.1450  0.2231  0.3980
 4569SOL    HW122367   5.558   8.167   3.198  1.2430  0.1014  3.3086
 4569SOL    HW222368   5.646   8.086   3.088 -1.8717 -0.9879  1.5536
 4570SOL     OW22369   1.193   9.374   6.194 -0.0284  0.2223  0.5136
 4570SOL    HW122370   1.281   9.406   6.229  0.0551  2.1182 -1.2967
 4570SOL    HW222371   1.205   9.344   6.099 -1.3528  0.5660  0.2362
 4571SOL     OW22372   4.473   7.672   4.322 -0.3860  0.6573 -0.4387
 4571SOL    HW122373   4.386   7.638   4.358 -0.2107 -2.1341 -2.4706
 4571SOL    HW222374   4.457   7.717   4.234 -0.0375  1.9558  0.1615
 4572SOL     OW22375   8.324   6.988   4.110  0.5819 -0.1781 -0.1588
 4572SOL    HW122376   8.245   6.973   4.051 -0.5369 -0.7610  1.4624
 4572SOL    HW222377   8.399   6.930   4.080 -0.2441 -1.0702 -0.5273
 4574SOL     OW22378   0.780   9.607   1.604  0.1435  0.2727 -0.4905
 4574SOL    HW122379   0.821   9.639   1.690  1.0236 -2.1939  0.0660
 4574SOL    HW222380   0.682   9.593   1.618  0.0249  1.2373 -0.3099
 4575SOL     OW22381   2.120   9.607   4.495  0.4517 -0.0358  1.2065
 4575SOL    HW122382   2.169   9.588   4.410  0.4550 -0.0695  1.2160
 4575SOL    HW222383   2.077   9.698   4.490 -1.4978 -0.9852  0.2601
 4576SOL     OW22384   8.848   6.275   0.957  0.1880  0.9153 -0.0069
 4576SOL    HW122385   8.821   6.372   0.954  1.1021  1.1767 -0.0195
 4576SOL    HW222386   8.891   6.255   1.045  1.8510  1.0312 -0.7766
 4577SOL     OW22387   8.973   2.194   4.184  0.9567  0.4620 -0.0585
 4577SOL    HW122388   9.046   2.152   4.238  3.1658  3.2210 -0.8317
 4577SOL    HW222389   8.999   2.196   4.088 -0.2223  1.3189 -0.3707
 4578SOL     OW22390   8.329   6.242   1.367 -0.2325  0.2049 -0.2686
 4578SOL    HW122391   8.306   6.201   1.279 -0.3659  0.8836 -0.5589
 4578SOL    HW222392   8.246   6.265   1.416 -0.1688 -2.7840  1.3013
 4579SOL     OW22393   4.516   0.665   3.614 -0.5953  0.3211 -0.1643
 4579SOL    HW122394   4.446   0.624   3.671 -0.0857 -1.2056 -0.6051
 4579SOL    HW222395   4.552   0.596   3.550  0.4195  1.3999 -0.7856
 4580SOL     OW22396   3.890   0.824   2.016  0.7217 -0.1382 -0.0684
 4580SOL    HW122397   3.920   0.747   1.960  0.9657  0.2434 -0.4740
 4580SOL    HW222398   3.797   0.851   1.990  0.2519 -0.9353  0.7707
 4583SOL     OW22399   3.385   0.775   5.706 -0.0376 -0.6518 -0.3768
 4583SOL    HW122400   3.400   0.870   5.681 -0.9446 -0.0039  1.4311
 4583SOL    HW222401   3.432   0.715   5.641  0.0117  1.0025 -1.9055
 4584SOL     OW22402   4.123   1.854   3.075  0.0981 -0.2061  0.0204
 4584SOL    HW122403   4.115   1.765   3.030 -0.5234 -0.4497  0.5952
 4584SOL    HW222404   4.049   1.864   3.141  0.8505  0.2555  0.8002
 4585SOL     OW22405   9.854   9.214   0.487 -0.0464  0.6175  0.2064
 4585SOL    HW122406   9.942   9.174   0.511  0.2198 -0.3863 -2.2592
 4585SOL    HW222407   9.844   9.304   0.530  1.2265 -0.2204  2.2702
 4586SOL     OW22408   7.417   2.602   1.118  0.2035  0.0002 -0.0012
 4586SOL    HW122409   7.407   2.674   1.186 -1.3479 -0.0593 -0.1541
 4586SOL    HW222410   7.327   2.574   1.085  0.9364  0.3103 -2.3696
 4587SOL     OW22411   6.133   7.506   4.968 -0.3107 -0.5811  0.2672
 4587SOL    HW122412   6.055   7.567   4.955 -0.3255 -0.7162 -0.3128
 4587SOL    HW222413   6.162   7.508   5.064 -0.8218 -0.2856  0.4177
 4588SOL     OW22414   1.828   9.019   4.538  0.5984 -0.3321  0.6915
 4588SOL    HW122415   1.748   9.005   4.479 -0.3275 -1.9440  2.2445
 4588SOL    HW222416   1.814   9.101   4.594  0.5082 -0.0250  0.2206
 4589SOL     OW22417   3.728   0.893   6.133  0.0977  0.0056 -0.4220
 4589SOL    HW122418   3.727   0.796   6.109 -0.3062  0.5423 -2.7399
 4589SOL    HW222419   3.787   0.907   6.212 -2.0607 -2.4960  1.7461
 4591SOL     OW22420   9.880   1.108   0.257  0.2210 -0.0003  0.2891
 4591SOL    HW122421   9.935   1.069   0.184  0.2457 -1.2945  0.9866
 4591SOL    HW222422   9.932   1.179   0.304  0.3646  0.5290 -0.6588
 4592SOL     OW22423   1.279   6.086   2.370  0.1337 -0.2670 -0.3910
 4592SOL    HW122424   1.180   6.080   2.361  0.4049 -1.3701 -2.9366
 4592SOL    HW222425   1.303   6.095   2.467 -2.4197 -0.1400  0.2667
 4593SOL     OW22426   6.493   3.078   1.359 -0.1078 -0.2951 -0.2664
 4593SOL    HW122427   6.523   3.095   1.453  1.2321 -0.2926 -0.6814
 4593SOL    HW222428   6.481   3.165   1.312  1.0662 -0.3234 -0.6470
 4594SOL     OW22429   1.179   1.487   4.018  0.3083 -0.0538  0.2083
 4594SOL    HW122430   1.097   1.515   4.069 -0.8151 -0.3800 -1.3772
 4594SOL    HW222431   1.258   1.539   4.051 -0.7788  1.2476  0.8430
 4597SOL     OW22432   3.825   9.442   3.580  0.3335 -0.4151  0.4168
 4597SOL    HW122433   3.806   9.516   3.517 -0.8182  0.2085  1.4657
 4597SOL    HW222434   3.789   9.465   3.671  2.7794 -0.8762  1.5528
 4598SOL     OW22435   2.253   2.781   0.346  0.1832 -0.3509 -0.4246
 4598SOL    HW122436   2.218   2.821   0.261 -1.6168 -0.0314  0.4456
 4598SOL    HW222437   2.292   2.692   0.327  1.0580  0.3052 -1.8175
 4600SOL     OW22438   9.134   6.437   4.285  0.0126 -0.3317  0.1567
 4600SOL    HW122439   9.061   6.474   4.228 -0.8794 -1.1437  0.7404
 4600SOL    HW222440   9.208   6.503   4.293 -0.4999  0.3543 -0.7530
 4601SOL     OW22441   3.669   4.937   1.602  0.1766 -0.1165  0.2211
 4601SOL    HW122442   3.727   4.958   1.680 -0.1999 -2.2027  1.0980
 4601SOL    HW222443   3.709   4.862   1.550 -0.5157  0.0287 -0.5387
 4603SOL     OW22444   9.023   2.304   4.791 -0.5188  0.0612  0.0282
 4603SOL    HW122445   9.098   2.278   4.730 -0.8442  0.4891 -0.5621
 4603SOL    HW222446   9.056   2.310   4.885 -0.0417 -0.7451 -0.0841
 4605SOL     OW22447   2.993   3.127   1.122 -0.0387 -0.5355 -0.3656
 4605SOL    HW122448   2.937   3.048   1.146  0.0580 -0.2531  0.8354
 4605SOL    HW222449   2.958   3.208   1.169  0.6587 -0.1210 -0.5502
 4606SOL     OW22450   3.580   4.304   3.093 -0.3626 -0.0834  0.3946
 4606SOL    HW122451   3.543   4.385   3.047 -0.6107 -1.4060 -1.8639
 4606SOL    HW222452   3.510   4.233   3.096 -0.6497  0.2592  3.7362
 4607SOL     OW22453   8.654   4.098   2.039 -0.2045 -0.4492  0.7324
 4607SOL    HW122454   8.632   4.179   2.093  1.6524  2.0693 -2.1456
 4607SOL    HW222455   8.732   4.050   2.080  0.0116  0.3730  1.2866
 4608SOL     OW22456   0.781   8.722   3.293 -0.0371  0.2905  0.1450
 4608SOL    HW122457   0.712   8.751   3.226  0.0992  1.9176  0.6821
 4608SOL    HW222458   0.826   8.639   3.260 -1.5621 -0.2198 -0.6843
 4610SOL     OW22459   0.858   8.979   4.272  0.5167 -0.2383  0.2106
 4610SOL    HW122460   0.955   8.992   4.251  0.5736 -0.3657  0.3955
 4610SOL    HW222461   0.804   9.000   4.191  0.6896 -0.0236  0.1507
 4611SOL     OW22462   3.519   6.329   2.736  0.1920 -0.4331  0.5881
 4611SOL    HW122463   3.531   6.427   2.723 -4.4091  0.1446  0.1749
 4611SOL    HW222464   3.489   6.287   2.650 -0.0892 -1.8111  1.3505
 4613SOL     OW22465   5.609   0.972   1.156 -0.1002 -0.2017 -0.3052
 4613SOL    HW122466   5.620   0.944   1.251  1.2409 -2.2453 -1.0309
 4613SOL    HW222467   5.518   0.948   1.124 -0.2874 -0.2075  0.2242
 4614SOL     OW22468   6.829   1.313   5.953 -0.0189 -0.0529  0.4685
 4614SOL    HW122469   6.878   1.398   5.936 -2.2293  1.5136  1.7339
 4614SOL    HW222470   6.886   1.254   6.011  1.9205  0.1179 -1.1970
 4615SOL     OW22471   8.501   0.487   2.321 -0.2472  0.0947 -0.2002
 4615SOL    HW122472   8.479   0.464   2.415  0.6457  1.1228  0.2730
 4615SOL    HW222473   8.558   0.569   2.319 -1.2994  0.8160 -1.7024
 4616SOL     OW22474   7.867   4.796   3.092 -0.5814 -0.2683  0.1588
 4616SOL    HW122475   7.868   4.765   2.996  1.3936 -1.2249  0.4514
 4616SOL    HW222476   7.832   4.722   3.150  0.4610 -0.5609  0.4261
 4617SOL     OW22477   0.536   2.252   0.908  0.1621 -0.3400  0.8817
 4617SOL    HW122478   0.469   2.183   0.884  0.4520 -0.1575 -0.4832
 4617SOL    HW222479   0.619   2.208   0.943  1.2377 -0.8404 -2.1524
 4618SOL     OW22480   9.264   3.635   5.525  0.6970 -0.1756 -0.1163
 4618SOL    HW122481   9.269   3.535   5.523 -1.7784 -0.3148 -2.6553
 4618SOL    HW222482   9.324   3.672   5.454 -1.4442 -0.0883 -1.9453
 4619SOL     OW22483   4.535   2.156   1.033  0.4816  0.3840 -0.0574
 4619SOL    HW122484   4.470   2.081   1.028  0.9337 -0.0210  0.1167
 4619SOL    HW222485   4.514   2.224   0.963 -0.8590  0.8301  0.7576
 4621SOL     OW22486   3.467   4.119   2.120  0.4801  0.4189  0.2727
 4621SOL    HW122487   3.423   4.103   2.032  1.3558 -0.3904 -0.0297
 4621SOL    HW222488   3.549   4.061   2.128  0.6896  0.8456  1.4073
 4622SOL     OW22489   9.290   2.178   0.486 -0.2521  0.5863 -0.4851
 4622SOL    HW122490   9.354   2.106   0.512 -1.0982 -1.0718 -2.8406
 4622SOL    HW222491   9.282   2.181   0.386 -3.0687  1.4026 -0.2787
 4623SOL     OW22492   0.422   6.492   0.064  0.1242 -0.1762  0.6255
 4623SOL    HW122493   0.371   6.502  -0.021  3.8039  1.1763 -1.5413
 4623SOL    HW222494   0.396   6.564   0.128 -0.0854  0.9971 -0.7686
 4624SOL     OW22495   1.151   2.426   4.491  0.2610  0.0818 -0.3008
 4624SOL    HW122496   1.192   2.400   4.403  0.1702  2.0762 -0.9498
 4624SOL    HW222497   1.096   2.350   4.525  0.6286 -0.8775 -1.7656
 4625SOL     OW22498   3.332   4.415   4.930  0.1594 -0.2714  0.0742
 4625SOL    HW122499   3.268   4.492   4.929  1.3966  0.7733 -0.5264
 4625SOL    HW222500   3.391   4.420   4.849  1.4300 -0.8420  0.9575
 4626SOL     OW22501   2.300   3.651   6.250 -0.4161 -0.2001  0.5481
 4626SOL    HW122502   2.310   3.674   6.153  1.1169 -0.7322  0.5815
 4626SOL    HW222503   2.291   3.552   6.260 -2.2373 -0.0282  0.8232
 4627SOL     OW22504   2.924   9.653   3.523 -0.0232 -0.2988 -0.8376
 4627SOL    HW122505   2.928   9.733   3.464 -0.3365  0.1168 -0.2933
 4627SOL    HW222506   2.848   9.661   3.587  1.2285 -0.0345  0.6580
 4628SOL     OW22507   7.450   8.900   3.428 -0.3182 -0.3266 -0.2511
 4628SOL    HW122508   7.516   8.825   3.433  1.4745  1.2189 -0.1358
 4628SOL    HW222509   7.446   8.947   3.517  0.7003  1.4745 -1.1364
 4631SOL     OW22510   4.127   6.373   1.384 -0.1838 -0.0483  0.7309
 4631SOL    HW122511   4.051   6.364   1.320  1.2020 -0.7474 -0.8567
 4631SOL    HW222512   4.159   6.282   1.410 -0.1705  0.2410  1.7267
 4632SOL     OW22513   3.430   0.058   1.431 -0.4579  0.0514 -0.0305
 4632SOL    HW122514   3.360   0.129   1.415 -0.5488 -0.1194 -0.3868
 4632SOL    HW222515   3.406  -0.025   1.381 -0.6067 -0.4032  0.7818
 4633SOL     OW22516   8.668   6.605   2.445 -0.8058 -0.6911 -0.2988
 4633SOL    HW122517   8.675   6.507   2.427 -1.3109 -0.9962  1.0889
 4633SOL    HW222518   8.758   6.640   2.472 -0.5804 -0.7248 -0.9925
 4634SOL     OW22519   3.971   7.138   2.729  0.3740  0.1247  0.0848
 4634SOL    HW122520   4.007   7.157   2.820  0.0873 -2.3636  0.7650
 4634SOL    HW222521   3.875   7.164   2.725  0.9259  2.1782 -0.1823
 4635SOL     OW22522   1.612   2.996   1.109 -0.6993 -0.5058 -0.0670
 4635SOL    HW122523   1.528   2.954   1.073 -0.6724 -0.4621 -0.1793
 4635SOL    HW222524   1.655   2.934   1.174 -0.9003 -0.4666  0.1067
 4638SOL     OW22525   8.360   0.526   0.613  0.0581  0.1093 -0.1605
 4638SOL    HW122526   8.287   0.458   0.607 -0.3943  0.5420  0.3486
 4638SOL    HW222527   8.320   0.615   0.635  0.7599  0.2943  0.3799
 4639SOL     OW22528   1.209   7.381   5.440 -0.3657  0.2271  0.3366
 4639SOL    HW122529   1.185   7.349   5.532  0.0050 -1.0051  0.0102
 4639SOL    HW222530   1.308   7.390   5.433 -0.3948  0.3087  0.0445
 4640SOL     OW22531   8.204   0.256   4.438 -0.4709  0.3676  0.2053
 4640SOL    HW122532   8.149   0.196   4.495  0.1620 -0.4182 -0.0048
 4640SOL    HW222533   8.223   0.341   4.487  0.4134 -0.4683  1.3295
 4642SOL     OW22534   3.391   7.827   0.759 -0.3961 -0.1444  0.3900
 4642SOL    HW122535   3.357   7.822   0.665 -0.4949  0.0504  0.4168
 4642SOL    HW222536   3.461   7.898   0.766 -0.3241 -0.2200  0.4438
 4643SOL     OW22537   2.444   4.808   4.918  0.6988  0.0954  0.1991
 4643SOL    HW122538   2.369   4.836   4.977  1.9204  0.9389  1.3931
 4643SOL    HW222539   2.458   4.709   4.926 -1.1293 -0.2931 -1.0682
 4644SOL     OW22540   2.499   2.666   1.349  0.1957  0.0601  0.4250
 4644SOL    HW122541   2.430   2.687   1.281 -0.9588  0.1423  1.6075
 4644SOL    HW222542   2.557   2.745   1.364  1.2484 -0.3427 -1.3523
 4645SOL     OW22543   8.963   9.451   3.593 -0.5487 -0.4412 -0.2206
 4645SOL    HW122544   9.049   9.487   3.629 -0.0744 -3.4576  1.9043
 4645SOL    HW222545   8.886   9.500   3.634  0.1043 -0.1119  0.6299
 4647SOL     OW22546   7.044   5.797   6.178 -1.0704  0.1237 -0.2728
 4647SOL    HW122547   7.063   5.885   6.223 -1.6618  0.7556 -1.2400
 4647SOL    HW222548   7.115   5.779   6.110  0.1405 -1.1121  1.3045
 4648SOL     OW22549   5.503   9.188   4.314 -0.5316  0.3849  0.5910
 4648SOL    HW122550   5.488   9.090   4.302  1.9468 -0.0215  0.4385
 4648SOL    HW222551   5.576   9.203   4.382  0.6128  2.0288 -0.9460
 4650SOL     OW22552   2.206   9.825   2.976 -0.2026  0.4350  0.0172
 4650SOL    HW122553   2.155   9.740   2.987  0.6959 -0.3010 -1.3154
 4650SOL    HW222554   2.298   9.812   3.013 -0.7718  1.5525  1.8491
 4651SOL     OW22555   4.206   8.369   2.416 -0.0809 -0.0024  0.0569
 4651SOL    HW122556   4.212   8.284   2.365 -1.8000 -0.4483  0.5422
 4651SOL    HW222557   4.121   8.417   2.393  0.5015  1.2145  0.3443
 4652SOL     OW22558   8.615   2.497   2.631  0.1408  0.1606  0.3200
 4652SOL    HW122559   8.673   2.434   2.681 -0.4598 -0.1718  0.6058
 4652SOL    HW222560   8.572   2.561   2.694 -1.4552 -0.9385  0.3692
 4653SOL     OW22561   9.676   9.799   0.197 -0.1343 -0.0320  0.3768
 4653SOL    HW122562   9.638   9.754   0.115  0.0857  0.6402 -0.1002
 4653SOL    HW222563   9.662   9.898   0.190 -0.7395 -0.0312  1.4876
 4654SOL     OW22564   7.594   9.917   6.246 -0.1004 -0.0778 -0.1664
 4654SOL    HW122565   7.558   9.893   6.336  1.2334 -0.0049  0.3911
 4654SOL    HW222566   7.656   9.844   6.215 -0.5822 -0.1189 -1.0414
 4656SOL     OW22567   0.128   9.125   1.217 -0.5157  0.6094 -0.0564
 4656SOL    HW122568   0.215   9.171   1.236 -0.6845  1.0820 -0.4269
 4656SOL    HW222569   0.080   9.109   1.302 -0.3325  0.8747  0.0991
 4657SOL     OW22570   5.226   2.232   0.657 -0.1220  0.5906  0.3441
 4657SOL    HW122571   5.244   2.201   0.750 -2.0230  0.7941  0.7904
 4657SOL    HW222572   5.260   2.326   0.646  3.6008 -0.7287 -0.3555
 4658SOL     OW22573   7.516   1.130   2.197  0.9219  0.5280 -0.4326
 4658SOL    HW122574   7.418   1.111   2.186  0.6632  1.1580  0.7717
 4658SOL    HW222575   7.536   1.223   2.169  0.9865  0.7581  0.3673
 4659SOL     OW22576   2.374   3.669   3.223  0.3412  0.1698 -0.5519
 4659SOL    HW122577   2.356   3.714   3.310  0.7688  0.0536 -0.4020
 4659SOL    HW222578   2.291   3.622   3.192  0.8260 -1.7147  0.9323
 4660SOL     OW22579   9.159   1.310   6.076 -0.6491  0.2476  0.3303
 4660SOL    HW122580   9.232   1.272   6.132 -1.1300  1.4127  1.7658
 4660SOL    HW222581   9.165   1.272   5.984 -0.2319 -2.1695  1.3160
 4661SOL     OW22582   9.502   2.069   1.311  0.1713  0.2922  0.2127
 4661SOL    HW122583   9.576   2.130   1.340  0.5792  0.6945 -1.5959
 4661SOL    HW222584   9.418   2.121   1.298 -0.2805 -0.0615  1.6620
 4662SOL     OW22585   2.729   3.678   4.135  0.4632  0.2526 -0.4691
 4662SOL    HW122586   2.631   3.665   4.154  1.0388 -1.2852  1.6707
 4662SOL    HW222587   2.746   3.773   4.109 -1.1562  1.2663  2.0329
 4663SOL     OW22588   1.328   4.903   3.145  0.1728 -0.0204 -0.2732
 4663SOL    HW122589   1.282   4.896   3.056 -0.1088  1.9879 -0.2985
 4663SOL    HW222590   1.261   4.926   3.215  1.0857  2.9619 -0.3153
 4664SOL     OW22591   9.360   6.020   0.732 -0.3472 -0.1792 -0.4174
 4664SOL    HW122592   9.457   6.040   0.738 -0.1530 -0.8563 -1.2050
 4664SOL    HW222593   9.316   6.084   0.669 -0.8698  1.6678  1.7773
 4665SOL     OW22594   9.923   7.862   0.673 -0.0338  0.1780  0.0633
 4665SOL    HW122595   9.826   7.847   0.656 -0.3457  0.1673  1.7400
 4665SOL    HW222596   9.955   7.797   0.742  1.2765 -0.1078 -0.7862
 4667SOL     OW22597   6.959   3.156   2.265 -0.4653 -0.5996 -0.3172
 4667SOL    HW122598   6.931   3.090   2.335  0.1946  0.0585  0.5826
 4667SOL    HW222599   6.984   3.108   2.182 -1.1709 -1.4007 -0.0754
 4668SOL     OW22600   0.052   2.459   3.155  0.2926  0.2021  0.3317
 4668SOL    HW122601  -0.022   2.403   3.119 -1.4019  2.1315  0.7167
 4668SOL    HW222602   0.098   2.411   3.230 -2.2042 -0.0239  1.7714
 4669SOL     OW22603   1.537   1.762   4.738 -0.8573 -0.2519 -0.3512
 4669SOL    HW122604   1.497   1.677   4.704 -0.9562 -0.2369 -0.2714
 4669SOL    HW222605   1.587   1.807   4.664  0.7010 -1.2639  0.0562
 4671SOL     OW22606   8.640   8.024   5.703  0.3774  0.0348 -0.1452
 4671SOL    HW122607   8.723   8.079   5.701  0.5995 -0.3137 -0.9035
 4671SOL    HW222608   8.576   8.061   5.771 -0.7594  3.0773 -2.7374
 4672SOL     OW22609   6.302   2.063   5.096  0.0850  0.2680 -0.2467
 4672SOL    HW122610   6.309   1.965   5.115  1.3686  0.5887  1.0105
 4672SOL    HW222611   6.224   2.101   5.146  0.1914  0.0706  0.0717
 4674SOL     OW22612   5.471   0.652   4.843 -0.3600 -0.0225  0.5870
 4674SOL    HW122613   5.551   0.617   4.893 -2.1343 -1.2365  2.6514
 4674SOL    HW222614   5.444   0.586   4.773 -0.2568 -0.1687  0.6840
 4675SOL     OW22615   0.951   8.428   1.469 -0.0699 -0.0583 -0.5577
 4675SOL    HW122616   0.856   8.430   1.499  0.5387  2.5210  1.3929
 4675SOL    HW222617   0.957   8.460   1.375 -1.3054 -2.1329 -1.3862
 4676SOL     OW22618   2.257   6.511   0.284  0.4819  0.0647  0.5484
 4676SOL    HW122619   2.190   6.537   0.214  0.1778  0.3232  0.9318
 4676SOL    HW222620   2.341   6.564   0.271  0.6469 -0.3265  0.0095
 4677SOL     OW22621   0.561   0.885   3.841  0.1583  0.1882 -0.4518
 4677SOL    HW122622   0.559   0.816   3.913 -1.3899  0.7782  0.0745
 4677SOL    HW222623   0.607   0.848   3.760 -0.7641 -1.4832 -0.2170
 4678SOL     OW22624   8.123   4.852   1.686 -0.0006 -0.0963 -0.1491
 4678SOL    HW122625   8.203   4.794   1.672  0.3740  0.5861 -0.9244
 4678SOL    HW222626   8.074   4.862   1.600 -0.1075  0.6632 -0.0027
 4679SOL     OW22627   2.952   3.063   6.346  0.1637 -0.6204  0.0119
 4679SOL    HW122628   2.857   3.062   6.316 -0.2813  0.6462  1.2987
 4679SOL    HW222629   2.962   3.006   6.428  0.1491  0.5866  0.8673
 4682SOL     OW22630   5.555   4.538   0.445  0.0798 -0.0711  0.0719
 4682SOL    HW122631   5.499   4.598   0.387 -1.1246 -0.6098  0.6426
 4682SOL    HW222632   5.647   4.576   0.454 -0.6557  1.7178  0.4374
 4683SOL     OW22633   3.840   0.969   5.303  0.1499 -0.2892 -0.1798
 4683SOL    HW122634   3.818   1.014   5.216  1.7233 -0.1319 -0.5029
 4683SOL    HW222635   3.757   0.964   5.359 -0.7061  0.3148 -1.3645
 4684SOL     OW22636   3.420   3.122   5.707  0.7097 -0.6146  0.0653
 4684SOL    HW122637   3.407   3.221   5.711  2.1301 -0.4505  1.0820
 4684SOL    HW222638   3.462   3.097   5.620 -1.1605 -0.5323 -0.8937
 4685SOL     OW22639   2.710   9.512   2.867 -0.2122  0.0426  0.4600
 4685SOL    HW122640   2.765   9.482   2.789  1.9605  1.7309  1.2961
 4685SOL    HW222641   2.622   9.547   2.833  1.7089  3.1954 -1.5765
 4686SOL     OW22642   2.751   1.879   2.108 -0.1710  0.1084 -0.5618
 4686SOL    HW122643   2.758   1.969   2.150 -1.8218 -0.1970  0.4096
 4686SOL    HW222644   2.707   1.816   2.171  1.7243 -1.6052 -0.9302
 4687SOL     OW22645   1.340   6.008   0.367  0.5663 -0.2816 -0.3729
 4687SOL    HW122646   1.350   6.076   0.440  0.6211  0.9128 -1.4651
 4687SOL    HW222647   1.430   5.986   0.330  0.6763 -1.9551  0.8606
 4688SOL     OW22648   9.777   3.022   2.004  0.0541  0.3954  0.3053
 4688SOL    HW122649   9.848   3.092   2.006 -1.0899  1.6034 -0.1758
 4688SOL    HW222650   9.742   3.013   1.911  0.0431 -0.6664  0.4121
 4690SOL     OW22651   0.781   7.715   0.118  0.1315  0.2234 -0.1747
 4690SOL    HW122652   0.717   7.729   0.194 -0.3112 -0.0383 -0.5010
 4690SOL    HW222653   0.767   7.625   0.079  1.6779 -0.3959  0.6692
 4691SOL     OW22654   1.091   1.996   6.315 -0.0907 -0.1002  0.0791
 4691SOL    HW122655   1.015   2.020   6.255 -0.1939  2.3241  1.0998
 4691SOL    HW222656   1.105   2.070   6.381  1.0245 -2.0175  2.0344
 4694SOL     OW22657   3.087   4.597   2.709  0.1695  0.4803 -0.7836
 4694SOL    HW122658   3.065   4.670   2.773 -0.8405  0.0444 -0.6291
 4694SOL    HW222659   3.005   4.571   2.658  0.7945  0.2866 -1.7032
 4695SOL     OW22660   9.750   2.397   5.333 -0.0714 -0.8536 -0.5749
 4695SOL    HW122661   9.801   2.316   5.304  0.9046 -1.3129  2.3595
 4695SOL    HW222662   9.789   2.478   5.289  1.2927 -1.5406 -0.6454
 4696SOL     OW22663   8.021   6.366   0.825 -0.2636  0.2497  0.3575
 4696SOL    HW122664   8.051   6.452   0.784 -0.7949  1.0396  1.6352
 4696SOL    HW222665   8.039   6.291   0.760  2.1044  1.0300  0.0690
 4697SOL     OW22666   3.870   0.491   5.892 -0.0331  0.7456 -0.3997
 4697SOL    HW122667   3.867   0.417   5.824  0.2322  0.2950  0.0751
 4697SOL    HW222668   3.809   0.565   5.863  0.1024  0.5711 -1.1448
 4698SOL     OW22669   2.763   6.933   0.260  0.4449 -0.4872  0.3305
 4698SOL    HW122670   2.792   6.844   0.226 -0.5060 -0.9440  0.7075
 4698SOL    HW222671   2.834   7.001   0.241  0.9963 -1.2432 -0.3115
 4699SOL     OW22672   6.837   5.495   0.269  0.2852 -0.3417  0.3128
 4699SOL    HW122673   6.769   5.567   0.264  0.6731  0.1901  2.1542
 4699SOL    HW222674   6.797   5.409   0.237 -1.7287 -0.3676  2.7527
 4700SOL     OW22675   9.686   4.844   3.320  0.1011 -0.1877  0.7081
 4700SOL    HW122676   9.602   4.791   3.311 -0.4910  0.8427  0.0510
 4700SOL    HW222677   9.741   4.834   3.237 -0.1319  0.4179  0.4766
 4701SOL     OW22678   9.289   8.943   4.871 -0.2162  0.6319 -0.5246
 4701SOL    HW122679   9.366   8.990   4.828  1.3015  0.4338  1.8683
 4701SOL    HW222680   9.260   8.867   4.813  3.3959 -1.1777 -0.1008
 4702SOL     OW22681   3.041   5.582   3.607  0.2048  0.4595  0.1912
 4702SOL    HW122682   3.032   5.681   3.610 -2.2547  0.2573  0.0865
 4702SOL    HW222683   3.048   5.551   3.512  2.7517  0.6435  0.2801
 4703SOL     OW22684   2.716   6.899   3.673 -0.2329  0.2885 -0.2165
 4703SOL    HW122685   2.632   6.855   3.638  0.0253  0.2940 -0.8467
 4703SOL    HW222686   2.726   6.989   3.631 -0.5968  0.8285  0.8478
 4705SOL     OW22687   1.738   9.005   5.378 -0.3928  0.5693  0.3578
 4705SOL    HW122688   1.773   9.085   5.329 -0.8829  1.0416  0.7617
 4705SOL    HW222689   1.673   8.956   5.320  0.2353  0.2181 -0.0510
 4706SOL     OW22690   1.747   5.092   3.859 -0.1243 -0.8113  0.1378
 4706SOL    HW122691   1.667   5.035   3.874 -0.1449 -1.0353 -0.7743
 4706SOL    HW222692   1.725   5.187   3.879  0.1394 -1.2139  2.4252
 4707SOL     OW22693   3.273   6.290   4.108 -0.0007  0.2822  0.1282
 4707SOL    HW122694   3.258   6.285   4.207 -0.1745  0.0250  0.0908
 4707SOL    HW222695   3.217   6.362   4.069 -0.3323  0.0347  0.1435
 4708SOL     OW22696   3.864   6.216   2.201  0.8620 -0.3388  0.2093
 4708SOL    HW122697   3.803   6.285   2.163 -1.4380 -2.3643  0.0740
 4708SOL    HW222698   3.933   6.192   2.133 -0.4387 -0.6500 -1.0429
 4710SOL     OW22699   4.692   6.967   1.806  0.3085 -0.4537 -0.3839
 4710SOL    HW122700   4.664   7.038   1.741  0.4395 -0.2212 -0.1866
 4710SOL    HW222701   4.631   6.888   1.797 -0.2539 -0.0465 -0.1328
 4711SOL     OW22702   6.330   2.588   0.114  0.3853  0.0336 -0.0256
 4711SOL    HW122703   6.247   2.642   0.128  0.0652  0.0975 -2.0067
 4711SOL    HW222704   6.406   2.649   0.091  0.1796 -0.2944 -1.5988
 4712SOL     OW22705   4.737   3.671   2.308 -0.6413 -0.4145  0.4471
 4712SOL    HW122706   4.728   3.572   2.291  1.4915 -0.9781  2.3438
 4712SOL    HW222707   4.753   3.686   2.405  2.4416  1.5542 -0.3233
 4713SOL     OW22708   2.443   4.374   0.896 -0.1660 -0.0162 -0.6678
 4713SOL    HW122709   2.516   4.385   0.963  1.3771 -0.0113 -2.3027
 4713SOL    HW222710   2.458   4.290   0.844 -1.4180 -0.1008 -0.8957
 4714SOL     OW22711   5.559   3.062   0.326 -0.2799 -0.5233  0.0919
 4714SOL    HW122712   5.461   3.058   0.308 -0.5808 -2.7957  1.8828
 4714SOL    HW222713   5.574   3.096   0.419  0.7417  1.6849 -0.8513
 4716SOL     OW22714   7.735   8.594   3.217 -0.1567  0.0252  0.3674
 4716SOL    HW122715   7.710   8.622   3.310  0.3459 -1.3018  0.9178
 4716SOL    HW222716   7.747   8.495   3.215  2.7393  0.3582 -0.4386
 4717SOL     OW22717   4.502   8.068   6.246 -0.7324  0.5699 -0.2355
 4717SOL    HW122718   4.427   8.129   6.221 -0.7312  0.1982 -1.1947
 4717SOL    HW222719   4.464   7.983   6.283 -0.7552  0.8038  0.2806
 4719SOL     OW22720   9.243   4.483   4.842 -0.4204  0.0971  0.0773
 4719SOL    HW122721   9.191   4.442   4.916 -0.2581 -1.4301 -0.6322
 4719SOL    HW222722   9.306   4.552   4.879 -0.8684 -0.1148  1.2485
 4720SOL     OW22723   2.119   2.517   1.416  0.0197  0.9913 -0.0669
 4720SOL    HW122724   2.184   2.453   1.375  0.9262  1.5640  0.4570
 4720SOL    HW222725   2.169   2.595   1.454 -1.0219  1.6647 -0.0811
 4721SOL     OW22726   3.623   2.845   4.228  0.0143  0.1527  0.3111
 4721SOL    HW122727   3.693   2.916   4.234  0.7241 -0.3677 -1.4321
 4721SOL    HW222728   3.641   2.774   4.296  0.2048  0.8643  1.0048
 4722SOL     OW22729   1.004   2.142   3.218 -0.4768  0.2473 -0.2900
 4722SOL    HW122730   0.929   2.120   3.280  2.0021  0.0323  2.7533
 4722SOL    HW222731   1.023   2.240   3.223  0.8615 -0.0463  0.6585
 4723SOL     OW22732   9.465   3.218   5.750  0.6695 -0.2164 -0.1782
 4723SOL    HW122733   9.365   3.216   5.751  0.6192  0.0300 -2.0801
 4723SOL    HW222734   9.500   3.202   5.842 -1.0940 -1.4849  0.2932
 4725SOL     OW22735   3.240   6.824   6.421 -0.1124 -0.4250  0.2793
 4725SOL    HW122736   3.270   6.876   6.501  0.7389 -0.4165 -0.0445
 4725SOL    HW222737   3.156   6.865   6.385 -0.7543 -0.7008  1.4318
 4726SOL     OW22738   0.977   4.379   6.270 -0.8947 -0.0193 -0.0762
 4726SOL    HW122739   1.019   4.403   6.358  1.7948  2.7634 -2.0013
 4726SOL    HW222740   0.900   4.441   6.252 -1.1557 -0.2928  0.0839
 4727SOL     OW22741   4.594   0.858   3.196  0.0111  0.0819  0.0176
 4727SOL    HW122742   4.573   0.766   3.164  0.9443  0.4073 -1.5804
 4727SOL    HW222743   4.688   0.882   3.170 -1.2562  2.6772 -2.4625
 4728SOL     OW22744   8.304   1.102   3.348 -0.0837 -0.3039  0.2046
 4728SOL    HW122745   8.348   1.130   3.262  1.4892 -2.4101  0.2965
 4728SOL    HW222746   8.256   1.016   3.334  2.3070 -2.0111  1.9988
 4729SOL     OW22747   3.396   5.320   6.370  0.5267 -0.0347  0.0627
 4729SOL    HW122748   3.430   5.383   6.439 -0.2145 -1.3535  1.6838
 4729SOL    HW222749   3.448   5.331   6.285  0.6267  2.4762  0.4221
 4731SOL     OW22750   5.168   0.312   3.093  0.1588  0.2655  0.2063
 4731SOL    HW122751   5.186   0.284   2.999  0.1906 -2.2783  0.9370
 4731SOL    HW222752   5.078   0.355   3.097  0.3701  0.8657 -1.0634
 4732SOL     OW22753   3.392   6.422   2.136  0.0346 -0.0654 -0.3343
 4732SOL    HW122754   3.294   6.411   2.154 -0.6432  1.2215 -2.9921
 4732SOL    HW222755   3.406   6.499   2.074  2.8514  0.5448  0.9686
 4733SOL     OW22756   8.113   5.774   2.273 -0.3182  0.1938  0.2609
 4733SOL    HW122757   8.142   5.865   2.300  1.0143  0.2999 -1.4384
 4733SOL    HW222758   8.188   5.727   2.225 -0.8131 -1.9771  1.5409
 4734SOL     OW22759   9.600   4.761   0.944 -0.3571 -0.3577 -0.7467
 4734SOL    HW122760   9.657   4.837   0.911  1.3012 -1.1911  0.1517
 4734SOL    HW222761   9.550   4.721   0.867 -0.6461  1.1394 -1.3544
 4735SOL     OW22762   3.843   3.049   1.563 -0.1162  0.4544  0.2514
 4735SOL    HW122763   3.776   3.120   1.540  0.8217  1.7269  1.3770
 4735SOL    HW222764   3.927   3.063   1.510  0.2648  0.5043  0.8629
 4736SOL     OW22765   3.855   7.958   3.349 -0.6544 -0.6551 -0.1213
 4736SOL    HW122766   3.874   7.896   3.272  0.8503 -0.1650 -0.1448
 4736SOL    HW222767   3.825   8.046   3.313 -1.1365 -0.8194 -0.1216
 4737SOL     OW22768   8.469   4.558   6.218 -0.3792 -0.3748 -0.5509
 4737SOL    HW122769   8.494   4.553   6.121  1.6648 -1.9359  0.0123
 4737SOL    HW222770   8.548   4.592   6.270 -1.8416  1.5670  0.4396
 4738SOL     OW22771   6.753   8.431   2.715  0.0470 -0.0496  0.1872
 4738SOL    HW122772   6.660   8.417   2.748 -0.1753  0.4422 -0.2306
 4738SOL    HW222773   6.766   8.526   2.689  0.3705 -0.3300 -0.6936
 4740SOL     OW22774   5.617   3.425   0.485 -0.2292 -0.8049 -0.2752
 4740SOL    HW122775   5.541   3.376   0.527 -0.3848 -0.7131 -0.4471
 4740SOL    HW222776   5.672   3.361   0.431 -1.3496 -0.5051 -1.8049
 4741SOL     OW22777   9.585   3.091   2.680  0.3669  0.6914  0.4256
 4741SOL    HW122778   9.667   3.050   2.721  0.0610  1.3513  1.7282
 4741SOL    HW222779   9.520   3.115   2.753 -1.2313 -0.3351 -0.6143
 4742SOL     OW22780   9.842   5.645   5.660 -0.3909 -0.5586  0.3598
 4742SOL    HW122781   9.822   5.547   5.662  0.2566 -0.7365 -1.2099
 4742SOL    HW222782   9.939   5.659   5.645 -0.2505  0.3383  1.9652
 4743SOL     OW22783   1.920   5.336   1.541  0.3840  1.0097 -0.8869
 4743SOL    HW122784   2.006   5.376   1.509  0.2578  0.5513 -1.8123
 4743SOL    HW222785   1.902   5.251   1.492  1.0914 -0.6845  1.7132
 4745SOL     OW22786   0.433   3.141   3.962  0.1833 -0.0608  0.2982
 4745SOL    HW122787   0.486   3.172   4.041  1.8735 -1.2149 -0.3732
 4745SOL    HW222788   0.468   3.183   3.879 -0.1278 -0.6158 -0.1193
 4746SOL     OW22789   1.640   2.256   3.420 -0.0215 -0.4092 -0.2831
 4746SOL    HW122790   1.571   2.326   3.402 -0.1656 -0.2795  0.7503
 4746SOL    HW222791   1.705   2.289   3.489  0.7886 -0.7215 -0.8818
 4747SOL     OW22792   9.882   4.754   4.795  0.7713 -0.3442 -0.0753
 4747SOL    HW122793   9.925   4.677   4.841 -0.4792 -0.7169  0.4958
 4747SOL    HW222794   9.951   4.808   4.747  1.5953 -2.1016 -0.8956
 4748SOL     OW22795   0.567   7.461   1.440 -0.4577 -0.3238 -1.1759
 4748SOL    HW122796   0.546   7.405   1.519 -1.3235 -2.2224 -2.7038
 4748SOL    HW222797   0.604   7.549   1.470 -2.2954 -0.3628  1.3433
 4749SOL     OW22798   8.116   1.169   3.539 -0.0439 -0.3586 -0.0515
 4749SOL    HW122799   8.152   1.216   3.620 -0.2270 -0.8937  0.3424
 4749SOL    HW222800   8.192   1.134   3.485  0.0455 -1.2310  0.6269
 4750SOL     OW22801   3.532   6.698   4.725  0.1606  0.5669 -0.1093
 4750SOL    HW122802   3.523   6.771   4.793  0.6279 -2.1339  3.0192
 4750SOL    HW222803   3.627   6.665   4.723  0.1396  0.5641 -2.0598
 4751SOL     OW22804   8.780   7.357   0.554  0.1750 -0.0429 -0.7894
 4751SOL    HW122805   8.830   7.437   0.587  0.6334 -0.1155 -1.3078
 4751SOL    HW222806   8.779   7.287   0.624 -0.2291  0.4182 -0.3310
 4753SOL     OW22807   1.932   3.462   2.791 -0.0647  0.1334  0.4017
 4753SOL    HW122808   1.865   3.396   2.825 -0.8828  1.0678  0.6414
 4753SOL    HW222809   2.011   3.465   2.853 -0.9622  0.8788  1.5154
 4754SOL     OW22810   2.631   2.026   0.328  0.1222  0.5235  0.6154
 4754SOL    HW122811   2.605   2.099   0.391  1.3688  1.4202  0.1043
 4754SOL    HW222812   2.569   2.025   0.250  1.0296  2.0470 -0.1395
 4755SOL     OW22813   3.989   0.448   2.144 -0.0752  0.5735 -0.2023
 4755SOL    HW122814   3.907   0.424   2.091 -0.8410  0.5054  0.9692
 4755SOL    HW222815   3.995   0.387   2.224  1.3691  0.2938 -0.5126
 4757SOL     OW22816   1.240   8.610   1.228 -0.0023  0.3985 -0.2347
 4757SOL    HW122817   1.311   8.679   1.242  1.1377 -0.8072 -0.0950
 4757SOL    HW222818   1.268   8.524   1.270 -1.8775  0.1210  0.5041
 4758SOL     OW22819   3.608   4.566   6.221 -0.5856  0.3466  0.0395
 4758SOL    HW122820   3.608   4.516   6.135 -2.4083  0.7727 -0.2359
 4758SOL    HW222821   3.658   4.651   6.210 -0.8781  0.4362 -0.6298
 4759SOL     OW22822   2.671   7.152   2.056 -0.2881  0.2609  0.0906
 4759SOL    HW122823   2.596   7.205   2.016 -1.3760 -1.4521 -0.2294
 4759SOL    HW222824   2.711   7.203   2.131 -1.3189  1.5193 -0.1824
 4761SOL     OW22825   8.387   6.637   0.524  0.2581  0.0982  0.3173
 4761SOL    HW122826   8.411   6.710   0.589  2.1387  0.7386 -1.0654
 4761SOL    HW222827   8.441   6.555   0.545 -1.9410 -0.9648  1.9443
 4762SOL     OW22828   1.401   1.942   4.056  0.0526  0.3442 -0.0485
 4762SOL    HW122829   1.421   1.852   4.017  0.6557 -0.9162  3.0197
 4762SOL    HW222830   1.306   1.966   4.036 -0.4137 -1.4177 -0.0972
 4764SOL     OW22831   4.059   1.283   2.991  0.3276  0.3039  0.7149
 4764SOL    HW122832   3.960   1.297   2.993  0.4760  1.2593  1.3745
 4764SOL    HW222833   4.089   1.270   2.897 -0.1030  2.2806  0.3011
 4765SOL     OW22834   5.878   1.291   5.598  0.2738 -0.6221  0.4895
 4765SOL    HW122835   5.943   1.354   5.556 -1.1650 -0.4347 -1.5588
 4765SOL    HW222836   5.795   1.342   5.624  0.2104 -1.1734  1.3613
 4766SOL     OW22837   8.211   5.066   1.864 -0.0125  0.0897  0.6099
 4766SOL    HW122838   8.154   5.007   1.806  0.7568 -0.0998  0.0269
 4766SOL    HW222839   8.291   5.097   1.811  0.2590  0.6022  1.3158
 4768SOL     OW22840   9.723   0.944   3.794 -0.1273 -0.1184 -0.5215
 4768SOL    HW122841   9.808   0.949   3.846 -0.5260  1.5486 -0.0147
 4768SOL    HW222842   9.687   0.850   3.799 -0.5070  0.1421  2.8130
 4770SOL     OW22843   8.637   9.307   6.241  0.0342 -0.3995 -0.3255
 4770SOL    HW122844   8.546   9.313   6.282  0.5480  0.2842  0.7333
 4770SOL    HW222845   8.629   9.313   6.141 -1.1251 -0.9017 -0.2701
 4771SOL     OW22846   9.464   9.221   4.796  0.2757  0.5633  0.4867
 4771SOL    HW122847   9.546   9.189   4.749  0.1853  0.5406  0.3466
 4771SOL    HW222848   9.416   9.288   4.739 -0.4468 -0.3127  0.0589
 4772SOL     OW22849   8.578   5.943   2.373 -0.0820 -0.4713 -0.6197
 4772SOL    HW122850   8.506   5.981   2.431  0.4064 -0.6612  0.1171
 4772SOL    HW222851   8.634   5.879   2.426  2.0217  1.3742 -0.5651
 4773SOL     OW22852   2.862   1.863   0.847  0.4848 -0.3991 -0.2732
 4773SOL    HW122853   2.841   1.773   0.885 -0.5741  0.2469  0.7024
 4773SOL    HW222854   2.869   1.930   0.921  1.6913  0.2494 -0.9540
 4774SOL     OW22855   1.286   5.265   5.506 -0.0853  0.1792  0.2694
 4774SOL    HW122856   1.326   5.298   5.592  1.8668  0.3583 -0.6923
 4774SOL    HW222857   1.210   5.325   5.480  0.8595  1.5439  0.6303
 4775SOL     OW22858   8.444   2.750   2.284  0.0718  0.3471 -0.5081
 4775SOL    HW122859   8.351   2.780   2.305  0.2614  0.6167 -0.0335
 4775SOL    HW222860   8.457   2.744   2.185 -1.0466 -1.5280 -0.5686
 4776SOL     OW22861   3.875   6.308   3.488  0.0732 -0.2249 -0.2244
 4776SOL    HW122862   3.843   6.355   3.406  0.1475  0.5214  0.1705
 4776SOL    HW222863   3.880   6.373   3.564 -1.0342 -1.1183  0.6492
 4780SOL     OW22864   9.761   5.531   1.075  0.3802 -0.1241  0.3058
 4780SOL    HW122865   9.689   5.475   1.115 -0.2745  0.4217 -0.0953
 4780SOL    HW222866   9.850   5.502   1.111 -0.2055  0.5249  2.3362
 4784SOL     OW22867   1.264   9.864   4.467  0.4103 -0.1475 -0.1399
 4784SOL    HW122868   1.362   9.843   4.464  0.1491 -1.4709  0.3836
 4784SOL    HW222869   1.233   9.867   4.562  0.4662  2.8628 -0.1567
 4785SOL     OW22870   1.817   9.631   4.568 -0.2200 -0.3531  0.2661
 4785SOL    HW122871   1.893   9.579   4.532 -1.7155 -2.0965 -0.4167
 4785SOL    HW222872   1.844   9.674   4.654  0.9609 -2.4640  0.9789
 4787SOL     OW22873   3.187   3.531   1.031  0.3073  0.5009  0.8204
 4787SOL    HW122874   3.129   3.577   1.099 -1.9115 -1.5950  0.4116
 4787SOL    HW222875   3.227   3.449   1.071  1.0169  0.6073  0.3425
 4788SOL     OW22876   1.267   7.244   5.725  0.2304  0.0258 -0.1416
 4788SOL    HW122877   1.281   7.152   5.690 -2.0607 -0.2231 -0.5021
 4788SOL    HW222878   1.231   7.239   5.818 -1.0016  0.5016 -0.5779
 4789SOL     OW22879   9.321   7.177   5.064  0.0466 -0.1050 -0.3677
 4789SOL    HW122880   9.386   7.230   5.118 -0.4814  2.1093 -1.8515
 4789SOL    HW222881   9.334   7.079   5.083  1.9136  0.4572  1.4258
 4791SOL     OW22882   5.610   1.440   3.619  0.2452 -0.1992  0.1509
 4791SOL    HW122883   5.571   1.509   3.680  1.8553  0.6844  0.1999
 4791SOL    HW222884   5.708   1.431   3.637  0.4869 -0.8512 -1.4431
 4792SOL     OW22885   2.084   7.008   0.848 -0.1796  0.0873  0.1632
 4792SOL    HW122886   1.984   7.011   0.839 -0.1476 -0.5138 -0.4416
 4792SOL    HW222887   2.108   6.963   0.934 -0.4477  2.5980  1.6059
 4793SOL     OW22888   0.423   0.346   4.009  0.0226 -0.3614 -0.2560
 4793SOL    HW122889   0.471   0.375   4.091  0.0836  1.8201 -1.0225
 4793SOL    HW222890   0.332   0.311   4.033 -0.2173  0.8951  0.6624
 4794SOL     OW22891   0.757   6.586   6.136  0.4487 -0.1846 -0.0680
 4794SOL    HW122892   0.667   6.543   6.125 -0.0718  1.0707 -0.9403
 4794SOL    HW222893   0.757   6.642   6.219  0.7458 -0.9275  0.4409
 4795SOL     OW22894   0.787   7.069   4.655 -0.1550  0.0743 -0.2958
 4795SOL    HW122895   0.729   7.103   4.728 -0.2801 -1.0802  0.1500
 4795SOL    HW222896   0.859   7.136   4.635 -0.3793  0.5771  0.5743
 4797SOL     OW22897   7.176   2.022   2.187  0.1169  0.1309  0.2874
 4797SOL    HW122898   7.182   1.972   2.101 -0.7035  2.5073 -1.1893
 4797SOL    HW222899   7.080   2.039   2.209  0.3664  0.4844  1.1097
 4798SOL     OW22900   8.387   5.317   5.102 -0.2318 -0.3023 -0.0192
 4798SOL    HW122901   8.321   5.385   5.134  0.5826  0.5830 -0.2250
 4798SOL    HW222902   8.353   5.226   5.125 -1.2020  0.1730  0.4911
 4799SOL     OW22903   7.168   6.849   3.203 -0.0243 -0.2006  0.0318
 4799SOL    HW122904   7.237   6.836   3.132 -0.6983 -1.0522 -0.4795
 4799SOL    HW222905   7.087   6.893   3.163 -0.5738 -1.0760  0.1635
 4801SOL     OW22906   2.801   0.140   3.467 -0.1484  0.4347 -0.1306
 4801SOL    HW122907   2.731   0.082   3.508 -0.4069  0.3442 -0.6966
 4801SOL    HW222908   2.759   0.227   3.438 -0.2304 -0.0127 -1.3696
 4802SOL     OW22909   2.937   9.173   1.739  0.3143  0.4782  0.0210
 4802SOL    HW122910   2.924   9.186   1.837 -0.5073  1.8829 -0.2721
 4802SOL    HW222911   3.034   9.161   1.720  0.4660  0.0391  1.0129
 4803SOL     OW22912   4.927   1.743   4.223  0.1757  0.1142 -0.0866
 4803SOL    HW122913   4.935   1.727   4.125 -0.5841  1.5333 -0.3925
 4803SOL    HW222914   5.015   1.773   4.259  0.0845  1.0659 -0.6315
 4805SOL     OW22915   4.158   0.821   3.478 -0.2740 -0.6219 -0.0991
 4805SOL    HW122916   4.163   0.803   3.380 -4.4522 -1.2560 -0.2877
 4805SOL    HW222917   4.136   0.736   3.527 -2.1713  0.4240  0.9314
 4806SOL     OW22918   1.677   3.964   4.612 -0.2402  0.0928  0.1669
 4806SOL    HW122919   1.718   3.921   4.531 -2.6057  0.7140 -1.4350
 4806SOL    HW222920   1.620   4.042   4.583 -0.2231  1.0316  2.5434
 4807SOL     OW22921   7.908   9.117   4.017  0.0250  0.0771  0.1611
 4807SOL    HW122922   7.956   9.104   4.104  1.0719  1.2708 -0.2223
 4807SOL    HW222923   7.953   9.189   3.965 -2.5224  1.6317  0.0291
 4810SOL     OW22924   4.185   0.321   2.904 -0.2866 -0.2679 -0.6424
 4810SOL    HW122925   4.087   0.303   2.918 -0.1962 -1.5076 -1.4375
 4810SOL    HW222926   4.201   0.345   2.809  0.0698  0.8032 -0.3132
 4811SOL     OW22927   2.285   7.844   4.187  0.1558 -0.1734  0.3367
 4811SOL    HW122928   2.226   7.772   4.225  0.6463 -1.4944 -1.3215
 4811SOL    HW222929   2.249   7.872   4.098  0.5224  0.9424  0.5398
 4812SOL     OW22930   1.354   2.515   6.458 -0.0915  0.0582 -0.4865
 4812SOL    HW122931   1.397   2.478   6.376 -1.5521 -0.4865 -1.0266
 4812SOL    HW222932   1.277   2.574   6.432 -2.6905 -2.7640  0.4975
 4813SOL     OW22933   2.415   0.042   4.277  0.1342 -0.1365  0.3915
 4813SOL    HW122934   2.420   0.082   4.368 -0.3946  0.3678  0.2004
 4813SOL    HW222935   2.320   0.020   4.254  0.1296  0.6893 -0.4379
 4814SOL     OW22936   9.932   3.250   2.053  0.1248 -0.0504  0.0788
 4814SOL    HW122937   9.972   3.280   2.140 -0.0876 -1.4594  0.6726
 4814SOL    HW222938   9.943   3.322   1.985  3.2272 -0.2118  0.3707
 4815SOL     OW22939   3.230   2.497   2.817  0.4641 -0.0836  0.1569
 4815SOL    HW122940   3.135   2.471   2.832  0.4933 -0.5008 -0.3551
 4815SOL    HW222941   3.246   2.589   2.854 -0.0122 -0.2009  0.6671
 4816SOL     OW22942   1.821   7.054   6.382  0.3080 -0.1175 -0.1753
 4816SOL    HW122943   1.753   7.098   6.441  0.1410 -2.5965  1.5536
 4816SOL    HW222944   1.910   7.056   6.427  0.2414 -1.7408  0.0610
 4819SOL     OW22945   8.014   0.664   2.804  0.1998 -0.8265 -0.4534
 4819SOL    HW122946   8.013   0.758   2.771 -0.0516 -0.8663 -0.5678
 4819SOL    HW222947   7.981   0.603   2.731 -1.1303 -0.8296  0.1287
 4820SOL     OW22948   9.958   6.544   1.547 -0.2978  0.2170 -0.2736
 4820SOL    HW122949   9.971   6.643   1.546 -0.9682  0.3649  2.0605
 4820SOL    HW222950   9.882   6.521   1.608  0.2198 -1.7802 -0.3279
 4821SOL     OW22951   1.787   9.295   1.021  0.2331  0.9392 -0.0336
 4821SOL    HW122952   1.872   9.322   0.977  0.3419  0.3757 -0.1765
 4821SOL    HW222953   1.773   9.196   1.009 -1.8164  1.4652 -2.4127
 4822SOL     OW22954   7.585   7.007   4.307 -0.0482 -0.0486 -0.2636
 4822SOL    HW122955   7.617   7.059   4.227 -1.0010 -0.8191 -1.1541
 4822SOL    HW222956   7.652   6.937   4.330 -0.7090 -1.1421 -1.6389
 4824SOL     OW22957   3.043   0.287   5.428  0.2432 -0.2108 -0.0698
 4824SOL    HW122958   2.947   0.280   5.403  0.6246  1.5234 -2.2109
 4824SOL    HW222959   3.098   0.229   5.367  0.6643 -0.2366  0.3312
 4825SOL     OW22960   6.044   4.087   0.103 -0.2516 -0.2024  0.0650
 4825SOL    HW122961   5.949   4.088   0.072  0.3091 -0.5396 -1.7228
 4825SOL    HW222962   6.091   4.167   0.068  0.3244 -0.4156  0.3439
 4826SOL     OW22963   2.651   1.108   4.125 -0.6293  0.0444  0.0745
 4826SOL    HW122964   2.558   1.071   4.130 -1.2257  1.2691 -1.3643
 4826SOL    HW222965   2.707   1.049   4.067 -1.1704  0.5434 -0.9881
 4827SOL     OW22966   1.215   4.377   5.213 -0.2185  0.3129  0.4071
 4827SOL    HW122967   1.256   4.286   5.213 -0.9052  0.0037 -0.1736
 4827SOL    HW222968   1.200   4.407   5.119  1.2674  1.6045  0.5483
 4828SOL     OW22969   3.603   4.289   2.675  0.1996  0.5640  0.0242
 4828SOL    HW122970   3.653   4.286   2.588  2.2211 -0.5276  1.1931
 4828SOL    HW222971   3.572   4.383   2.692  0.9807  1.0583 -1.2087
 4829SOL     OW22972   1.504   0.816   3.668  0.5697 -0.0525  0.2703
 4829SOL    HW122973   1.435   0.746   3.648 -0.1880  0.7538  0.0172
 4829SOL    HW222974   1.521   0.819   3.766  1.5240 -1.4380  0.1622
 4830SOL     OW22975   8.148   8.995   3.462 -0.0243 -0.8001 -0.2607
 4830SOL    HW122976   8.202   8.921   3.500 -0.5154  0.6366  3.3674
 4830SOL    HW222977   8.051   8.978   3.478 -0.0010  2.1687  3.7008
 4831SOL     OW22978   0.790   0.612   3.179  0.0028  0.4078  0.2880
 4831SOL    HW122979   0.789   0.702   3.136 -0.4644 -0.2277 -1.0505
 4831SOL    HW222980   0.696   0.577   3.185  0.2337 -0.2048  0.3545
 4832SOL     OW22981   9.586   3.684   3.873  0.4300  0.0024 -0.2816
 4832SOL    HW122982   9.578   3.600   3.927  0.0674  0.8543  1.0117
 4832SOL    HW222983   9.504   3.740   3.885  1.2681  1.1899 -0.0169
 4833SOL     OW22984   2.220   8.041   4.788  0.0740 -0.3834 -0.2007
 4833SOL    HW122985   2.170   8.031   4.701  1.3659 -1.7678 -0.8082
 4833SOL    HW222986   2.314   8.069   4.769  0.1989 -0.1123  0.7985
 4834SOL     OW22987   4.914   1.648   4.579 -0.0192  0.1868  0.1935
 4834SOL    HW122988   4.880   1.682   4.491  1.7091 -0.8459 -0.8899
 4834SOL    HW222989   5.000   1.693   4.601  0.6665 -1.1688  0.2887
 4835SOL     OW22990   6.811   0.432   3.127  0.5997  0.0584  0.4457
 4835SOL    HW122991   6.870   0.377   3.187  0.7801  0.3691  0.5550
 4835SOL    HW222992   6.814   0.528   3.156 -0.8067 -0.0870  1.1406
 4837SOL     OW22993   8.187   3.209   3.170  0.4365 -0.1796  0.3476
 4837SOL    HW122994   8.121   3.265   3.221  1.4988  0.0819  1.4724
 4837SOL    HW222995   8.277   3.215   3.215  1.3765 -0.0217 -1.5127
 4838SOL     OW22996   9.488   9.086   3.058  0.0438 -0.5119 -0.4388
 4838SOL    HW122997   9.461   8.995   3.091  2.8086 -1.2001  0.0314
 4838SOL    HW222998   9.430   9.155   3.100 -0.6129 -1.8911  0.9680
 4839SOL     OW22999   3.455   7.853   5.608  0.0596 -0.4349 -0.3222
 4839SOL    HW123000   3.447   7.810   5.518  0.2040  1.8878 -1.4795
 4839SOL    HW223001   3.371   7.904   5.628 -0.1881 -1.3872  1.1134
 4840SOL     OW23002   0.088   1.697   1.737 -0.5398  0.2437  0.4380
 4840SOL    HW123003   0.113   1.609   1.780  1.2294  1.3963  1.8647
 4840SOL    HW223004   0.172   1.748   1.716 -1.4859  0.8050 -2.1244
 4842SOL     OW23005   5.637   2.156   0.246  0.3912 -0.3482 -0.0415
 4842SOL    HW123006   5.695   2.184   0.169  0.2496  0.8713  0.2812
 4842SOL    HW223007   5.647   2.223   0.320 -0.4551 -0.8257  0.5017
 4844SOL     OW23008   4.117   0.352   3.776  0.2002 -0.1709 -0.4691
 4844SOL    HW123009   4.100   0.324   3.682  0.4237 -1.3838 -0.1518
 4844SOL    HW223010   4.033   0.344   3.829  0.6000 -1.6531 -0.0339
 4845SOL     OW23011   8.283   6.775   0.915  0.0204 -0.0333 -0.4180
 4845SOL    HW123012   8.289   6.804   1.011  0.7692  1.5187 -0.9160
 4845SOL    HW223013   8.373   6.750   0.882 -0.0368  0.5792 -1.0558
 4846SOL     OW23014   8.970   1.934   2.366  0.2306 -0.6663 -0.0062
 4846SOL    HW123015   8.962   1.949   2.268  0.9440 -2.0227 -0.2929
 4846SOL    HW223016   8.894   1.877   2.397  0.1673 -0.4851  0.1705
 4847SOL     OW23017   8.263   7.481   3.858  0.2029  0.9986  0.8645
 4847SOL    HW123018   8.312   7.502   3.943 -0.6974 -0.9540  1.8935
 4847SOL    HW223019   8.180   7.429   3.879 -1.0023  2.0763 -1.0691
 4848SOL     OW23020   4.127   1.836   2.046  0.2068  0.2357  0.0622
 4848SOL    HW123021   4.039   1.876   2.071  0.2263  1.0509 -1.1131
 4848SOL    HW223022   4.115   1.738   2.027 -0.3262  0.2163  0.4867
 4849SOL     OW23023   4.833   2.111   3.221  0.6052 -0.4864 -0.3634
 4849SOL    HW123024   4.932   2.125   3.232  0.9077 -2.8584  0.1435
 4849SOL    HW223025   4.785   2.160   3.294  1.4259  0.1471 -0.2303
 4851SOL     OW23026   9.492   6.146   2.395  0.4613 -0.0581  0.2595
 4851SOL    HW123027   9.509   6.052   2.366  0.6823 -0.3413  1.2976
 4851SOL    HW223028   9.573   6.202   2.377  0.7666 -0.3367  0.7478
 4852SOL     OW23029   1.859   4.386   5.462 -0.4014 -0.2254  0.1806
 4852SOL    HW123030   1.865   4.486   5.465 -1.1508 -0.1813  0.1961
 4852SOL    HW223031   1.883   4.354   5.370  0.5561 -0.0837  0.3763
 4853SOL     OW23032   9.875   6.460   2.303  0.3979 -0.0124  0.3527
 4853SOL    HW123033   9.853   6.362   2.297 -0.7612  0.3234 -1.3892
 4853SOL    HW223034   9.973   6.471   2.322  0.6664 -1.5001 -0.0602
 4854SOL     OW23035   3.353   1.502   0.037 -0.0004  0.4839  0.5455
 4854SOL    HW123036   3.288   1.490   0.111 -1.0063 -1.0356 -0.5538
 4854SOL    HW223037   3.305   1.526  -0.047  1.1057  1.9675  0.3183
 4855SOL     OW23038   0.146   2.784   0.486  0.1643  0.0244  0.1453
 4855SOL    HW123039   0.077   2.854   0.507  1.0853  0.7743  0.6998
 4855SOL    HW223040   0.100   2.700   0.457 -1.0365  0.1877  1.5162
 4856SOL     OW23041   7.418   7.094   2.052  0.0195  0.2993 -0.3656
 4856SOL    HW123042   7.357   7.111   2.130 -0.4157  2.3574 -1.1030
 4856SOL    HW223043   7.462   7.180   2.025  2.7787 -1.0107 -0.2657
 4857SOL     OW23044   5.211   5.355   2.289 -0.2027 -0.0120  0.4947
 4857SOL    HW123045   5.256   5.416   2.354 -1.2867 -0.1934  1.4222
 4857SOL    HW223046   5.112   5.368   2.293 -0.4024 -1.3054  0.1758
 4858SOL     OW23047   1.798   6.834   4.934 -0.4049 -0.1560 -0.4064
 4858SOL    HW123048   1.796   6.736   4.914  0.1686  0.3510 -3.1049
 4858SOL    HW223049   1.705   6.865   4.954 -0.4383 -1.4332  1.6002
 4859SOL     OW23050   3.149   4.604   4.848 -0.4680 -0.0004 -0.0875
 4859SOL    HW123051   3.235   4.630   4.805 -0.7891  0.6001 -0.3800
 4859SOL    HW223052   3.095   4.549   4.785 -0.0148 -0.9438  0.3415
 4860SOL     OW23053   2.357   2.538   0.326  0.0438 -0.4223 -0.0758
 4860SOL    HW123054   2.432   2.543   0.393 -0.5108 -0.3461  0.5455
 4860SOL    HW223055   2.392   2.502   0.240  0.7739 -0.5115  0.2532
 4861SOL     OW23056   8.330   9.579   0.341 -0.1677  0.5443  0.6166
 4861SOL    HW123057   8.261   9.539   0.401 -0.2949  0.1778  0.2239
 4861SOL    HW223058   8.288   9.651   0.285  0.1677  1.5699  1.6692
 4862SOL     OW23059   1.029   8.042   4.054 -0.3283 -0.3476  0.6025
 4862SOL    HW123060   0.997   7.949   4.073 -0.0638 -0.4987  0.3287
 4862SOL    HW223061   1.057   8.048   3.958 -0.8110  0.1521  0.4886
 4865SOL     OW23062   3.207   7.328   5.536 -0.2567 -0.0836  0.2717
 4865SOL    HW123063   3.258   7.373   5.609  1.4711 -1.3004 -0.1498
 4865SOL    HW223064   3.112   7.314   5.565  0.2722 -0.0829  2.0795
 4866SOL     OW23065   5.941   2.760   0.579 -0.2194  0.0352  0.6817
 4866SOL    HW123066   6.030   2.750   0.534 -0.1778 -1.5323  1.0868
 4866SOL    HW223067   5.869   2.767   0.510  0.0752 -0.0729  0.3628
 4867SOL     OW23068   7.067   1.156   5.188 -0.5966  0.0130  0.2864
 4867SOL    HW123069   7.018   1.138   5.273 -2.1568 -1.3694 -0.8815
 4867SOL    HW223070   7.047   1.084   5.122  4.0052 -1.3083  0.1613
 4869SOL     OW23071   1.970   9.221   2.295  0.1801  0.4893  0.0627
 4869SOL    HW123072   2.016   9.138   2.264 -2.8173 -0.9603 -0.6594
 4869SOL    HW223073   1.983   9.293   2.227 -0.6451 -0.6490 -1.3337
 4871SOL     OW23074   7.727   5.730   5.487 -0.0232 -0.4115  0.2872
 4871SOL    HW123075   7.825   5.737   5.503  0.2635  1.0376 -1.7696
 4871SOL    HW223076   7.678   5.792   5.548  0.2895 -1.5548  1.7056
 4872SOL     OW23077   2.911   5.113   6.423  0.0472  0.5277 -0.2180
 4872SOL    HW123078   2.909   5.156   6.332  1.0280 -0.0104 -0.4965
 4872SOL    HW223079   3.005   5.098   6.451 -0.2437 -1.9974 -0.4109
 4873SOL     OW23080   2.198   7.010   4.950 -0.0067 -0.1735  0.0791
 4873SOL    HW123081   2.190   6.923   5.000  1.2881 -0.9469 -1.0160
 4873SOL    HW223082   2.142   7.006   4.868  2.7598 -1.3494 -1.8072
 4874SOL     OW23083   9.775   5.524   4.030  0.5273  0.7393 -0.0784
 4874SOL    HW123084   9.734   5.607   4.069 -0.2747  0.6213 -0.6547
 4874SOL    HW223085   9.748   5.515   3.934 -0.0296 -0.5994  0.1917
 4875SOL     OW23086   9.438   1.077   3.558 -0.5541 -0.0154  0.2692
 4875SOL    HW123087   9.344   1.098   3.584  0.4642  0.8609  3.4006
 4875SOL    HW223088   9.451   0.978   3.559 -1.6473 -0.1843 -0.9919
 4876SOL     OW23089   9.548   1.922   4.973 -0.2815 -0.3194  0.0744
 4876SOL    HW123090   9.581   1.829   4.993 -1.4100 -1.5730 -3.3575
 4876SOL    HW223091   9.486   1.918   4.894 -2.2324  3.0717  1.3467
 4877SOL     OW23092   7.484   8.337   3.375 -0.0244 -0.4688  0.2043
 4877SOL    HW123093   7.579   8.341   3.344  0.3561  0.3247  1.4110
 4877SOL    HW223094   7.432   8.410   3.331  0.5936  0.8724  1.6301
 4878SOL     OW23095   8.668   6.117   3.520 -0.1990 -0.3359 -0.1637
 4878SOL    HW123096   8.599   6.135   3.591 -0.6580  0.5506 -0.8174
 4878SOL    HW223097   8.711   6.029   3.537 -2.4208 -1.5245 -0.4597
 4879SOL     OW23098   3.343   4.182   1.580  0.4505  0.3380 -0.0867
 4879SOL    HW123099   3.346   4.157   1.677  0.5741 -1.0101 -0.4242
 4879SOL    HW223100   3.278   4.258   1.567  0.9652  1.0032  1.1423
 4880SOL     OW23101   5.971   9.151   3.408  0.7497  0.0436  0.2868
 4880SOL    HW123102   5.923   9.072   3.371  1.5292 -0.9462  1.3807
 4880SOL    HW223103   5.979   9.142   3.507  0.0369  1.9337  0.5369
 4881SOL     OW23104   6.425   0.012   1.565 -0.4665  0.7805  0.2982
 4881SOL    HW123105   6.498  -0.022   1.507 -1.0729  2.4756 -1.5110
 4881SOL    HW223106   6.399  -0.059   1.631  1.0766 -0.7222 -0.6703
 4882SOL     OW23107   3.522   9.553   5.500  0.0866 -0.3777 -0.6255
 4882SOL    HW123108   3.580   9.599   5.434  0.6015 -0.3277 -0.1419
 4882SOL    HW223109   3.466   9.484   5.453 -0.9595  0.9730 -1.4017
 4883SOL     OW23110   9.554   4.352   4.510 -0.2490 -0.2613  0.7289
 4883SOL    HW123111   9.640   4.346   4.562 -1.4544  0.1823  2.8240
 4883SOL    HW223112   9.490   4.284   4.545 -0.9247 -0.2684 -0.5210
 4884SOL     OW23113   4.069   2.480   6.194  0.5424 -0.9592 -0.0347
 4884SOL    HW123114   4.128   2.517   6.266  0.0554 -0.7253  0.2445
 4884SOL    HW223115   4.019   2.401   6.229  0.2417 -0.7942 -0.0979
 4885SOL     OW23116   9.366   5.052   5.851 -0.1385  0.2935 -0.6033
 4885SOL    HW123117   9.304   5.003   5.912 -0.4530  0.7381 -0.5654
 4885SOL    HW223118   9.451   5.074   5.900 -0.1364  0.0987 -0.5174
 4887SOL     OW23119   3.675   1.143   0.079  0.0544 -0.3579  0.1274
 4887SOL    HW123120   3.735   1.185   0.010  1.3893  0.7785  1.9504
 4887SOL    HW223121   3.698   1.046   0.088 -0.6094 -0.6939 -1.5020
 4889SOL     OW23122   4.166   5.806   3.505 -0.1397 -0.6360  0.3462
 4889SOL    HW123123   4.136   5.845   3.592 -0.5951  0.3876 -0.2552
 4889SOL    HW223124   4.164   5.707   3.510  0.1922 -0.5890  1.6255
 4890SOL     OW23125   8.061   3.253   2.164  0.1726 -0.0288 -0.4009
 4890SOL    HW123126   8.010   3.305   2.095  0.3194 -1.0138 -1.2661
 4890SOL    HW223127   8.013   3.259   2.251 -0.7691  0.0812 -0.9129
 4891SOL     OW23128   5.862   7.811   4.259 -0.6483  0.7672 -0.6492
 4891SOL    HW123129   5.882   7.833   4.354 -1.9386 -1.1822  0.1068
 4891SOL    HW223130   5.936   7.843   4.200  0.5610  1.2209  1.1048
 4893SOL     OW23131   6.650   0.696   2.714 -0.2662  0.3560 -0.5770
 4893SOL    HW123132   6.644   0.735   2.806  1.4002 -0.8466  0.0820
 4893SOL    HW223133   6.623   0.764   2.647 -1.1844  1.3652  0.7870
 4894SOL     OW23134   1.779   7.341   6.162 -0.4336  0.0584  0.0069
 4894SOL    HW123135   1.809   7.437   6.169 -3.1270  0.9324 -0.1301
 4894SOL    HW223136   1.688   7.331   6.202 -1.0358 -2.0492 -1.8002
 4895SOL     OW23137   8.630   3.520   1.467  0.4289 -0.5205 -0.4815
 4895SOL    HW123138   8.730   3.515   1.476  0.2859  0.6473  2.0639
 4895SOL    HW223139   8.602   3.616   1.464 -0.5806 -0.8530 -1.8158
 4898SOL     OW23140   3.213   8.900   2.257 -0.1792 -0.1838  0.1510
 4898SOL    HW123141   3.155   8.847   2.319  0.5602  1.5387  2.3890
 4898SOL    HW223142   3.214   8.995   2.287  2.7895  0.0588 -0.5891
 4899SOL     OW23143   4.592   8.568   5.939 -0.2197 -0.1139 -0.4992
 4899SOL    HW123144   4.572   8.605   5.849 -0.9097 -0.0528 -0.3224
 4899SOL    HW223145   4.550   8.626   6.009  1.1348  0.3934 -0.0860
 4900SOL     OW23146   1.949   4.134   0.931  0.3569  0.5775  0.6089
 4900SOL    HW123147   1.890   4.134   1.011  1.4067  3.5624  1.4095
 4900SOL    HW223148   2.035   4.089   0.953  0.2137  0.4029  0.8115
 4901SOL     OW23149   1.749   8.253   4.799  0.1972 -0.5771  0.6839
 4901SOL    HW123150   1.802   8.181   4.844 -0.7034  0.0230  2.7458
 4901SOL    HW223151   1.737   8.330   4.861 -2.5802 -0.4631  0.0698
 4902SOL     OW23152   5.230   3.120   0.311 -0.0226  0.3840 -0.0738
 4902SOL    HW123153   5.218   3.125   0.212  0.4403 -1.4316 -0.2322
 4902SOL    HW223154   5.157   3.065   0.351 -0.4698  1.4911  0.6623
 4903SOL     OW23155   2.418   5.364   4.731 -0.0626  0.0492 -0.0370
 4903SOL    HW123156   2.443   5.278   4.776  0.8790 -0.3939 -1.3884
 4903SOL    HW223157   2.318   5.373   4.729 -0.1760 -1.1457 -0.1276
 4904SOL     OW23158   6.627   0.657   5.517 -0.4216  0.1227  0.1823
 4904SOL    HW123159   6.710   0.688   5.563 -1.1512  0.2281  1.4603
 4904SOL    HW223160   6.615   0.559   5.532 -0.3108  0.0219 -0.3596
 4905SOL     OW23161   6.801   0.513   5.226 -0.1167 -0.4679  0.5978
 4905SOL    HW123162   6.776   0.610   5.226 -0.0440 -0.4491  0.4056
 4905SOL    HW223163   6.763   0.469   5.308 -0.5526 -0.3801  0.4486
 4906SOL     OW23164   1.819   3.261   6.421  0.2623  0.0780 -0.4742
 4906SOL    HW123165   1.890   3.191   6.433 -0.6460 -0.9147 -0.8586
 4906SOL    HW223166   1.835   3.336   6.486  0.4281 -1.1472  0.9275
 4908SOL     OW23167   3.761   3.288   3.908 -0.4470  0.3708 -0.6676
 4908SOL    HW123168   3.688   3.283   3.839  0.2699 -0.3217 -1.3750
 4908SOL    HW223169   3.725   3.334   3.990 -2.2071 -1.4806 -0.3513
 4910SOL     OW23170   7.940   5.772   2.040  0.0041  0.6276 -0.3397
 4910SOL    HW123171   7.885   5.691   2.063  1.0945 -0.8991 -2.9517
 4910SOL    HW223172   8.008   5.786   2.112  0.0388 -0.9977 -0.0282
 4911SOL     OW23173   7.776   3.051   1.990 -0.2375 -0.1957 -0.3690
 4911SOL    HW123174   7.696   3.084   2.041  0.4808  1.1101 -0.0677
 4911SOL    HW223175   7.830   3.129   1.959  0.6787 -1.0620 -0.9751
 4912SOL     OW23176   0.522   2.658   4.687 -0.1450  0.3541 -0.9379
 4912SOL    HW123177   0.610   2.705   4.678 -1.8511  3.6941 -0.9629
 4912SOL    HW223178   0.453   2.723   4.716 -2.4252 -2.4603  0.1982
 4913SOL     OW23179   8.306   7.512   5.413  0.1626  0.1999  0.2914
 4913SOL    HW123180   8.403   7.488   5.406  0.0295 -0.1130 -0.5006
 4913SOL    HW223181   8.297   7.597   5.465  0.8675  0.2663  0.3126
 4914SOL     OW23182   9.943   6.023   2.592 -0.7737 -0.5457  0.0927
 4914SOL    HW123183   9.912   5.991   2.503  0.5907 -0.2761 -0.4867
 4914SOL    HW223184  10.002   5.954   2.634 -1.3488 -0.6416  0.7534
 4915SOL     OW23185   6.274   1.193   3.111  0.2605  0.0170 -0.5881
 4915SOL    HW123186   6.335   1.267   3.086 -0.7918  0.9050 -0.5596
 4915SOL    HW223187   6.220   1.166   3.031  0.7247 -0.8098 -0.6321
 4919SOL     OW23188   9.481   9.571   2.009  0.1080 -0.4484 -0.1091
 4919SOL    HW123189   9.487   9.520   2.095 -2.2091  2.4737  1.8655
 4919SOL    HW223190   9.552   9.641   2.007  0.4753 -0.8328 -0.8455
 4920SOL     OW23191   8.918   1.261   5.061  0.2494  0.3062 -0.1461
 4920SOL    HW123192   8.928   1.212   5.147 -0.0061 -2.0684 -1.4055
 4920SOL    HW223193   8.840   1.323   5.066  0.8428  0.9420  1.6377
 4922SOL     OW23194   2.934   5.139   2.468 -0.0650  0.2459  0.8070
 4922SOL    HW123195   3.031   5.131   2.445 -0.3338  1.2998 -0.8275
 4922SOL    HW223196   2.922   5.128   2.566  1.3420 -2.8482  0.6732
 4923SOL     OW23197   6.797   7.857   6.317 -0.5919 -0.1108 -0.0128
 4923SOL    HW123198   6.876   7.915   6.298 -1.9973  1.0040 -2.7632
 4923SOL    HW223199   6.816   7.798   6.395  3.2250 -0.4130 -1.1193
 4924SOL     OW23200   8.889   3.418   5.682 -0.2504  0.8603 -0.0736
 4924SOL    HW123201   8.977   3.435   5.727  0.3896  0.1412 -1.0479
 4924SOL    HW223202   8.898   3.343   5.618 -2.4457 -1.5630  2.3330
 4925SOL     OW23203   1.922   7.228   5.758 -0.6666  0.7111 -0.3618
 4925SOL    HW123204   1.862   7.165   5.710 -0.3848  0.4733 -0.3979
 4925SOL    HW223205   1.917   7.210   5.856  0.2634 -0.1014 -0.4627
 4926SOL     OW23206   1.520   4.927   3.862  0.0130  0.2794  0.4601
 4926SOL    HW123207   1.551   4.835   3.840 -1.5861 -0.2249  0.1997
 4926SOL    HW223208   1.475   4.967   3.781 -1.2575  0.4296  1.2228
 4927SOL     OW23209   8.402   7.600   0.109  0.8676  0.2432  0.0487
 4927SOL    HW123210   8.379   7.549   0.192  0.6446  0.9515  0.4252
 4927SOL    HW223211   8.361   7.691   0.113 -1.0735 -0.5019 -1.8645
 4928SOL     OW23212   0.319   3.237   1.288  0.4012  0.6040  0.7540
 4928SOL    HW123213   0.365   3.196   1.210  0.9962 -2.3162  2.5807
 4928SOL    HW223214   0.267   3.167   1.337 -0.5457  2.5236  2.5856
 4929SOL     OW23215   0.443   7.526   4.949  0.1153 -0.1375  0.0373
 4929SOL    HW123216   0.373   7.468   4.907 -0.4399  0.6007 -0.0799
 4929SOL    HW223217   0.493   7.575   4.878 -1.2655  1.6103  0.2468
 4931SOL     OW23218   8.306   2.909   3.270  0.1786  0.4131  0.1421
 4931SOL    HW123219   8.270   2.991   3.314  0.5846  0.0221  1.2184
 4931SOL    HW223220   8.301   2.832   3.333  2.6514  0.2873  0.2647
 4932SOL     OW23221   7.653   0.655   6.121  0.0658 -0.1885  0.2309
 4932SOL    HW123222   7.631   0.590   6.193  0.4208  0.0325  0.5389
 4932SOL    HW223223   7.604   0.630   6.037  0.1326 -0.7992  0.3738
 4935SOL     OW23224   1.479   7.385   5.430 -0.2988  0.1386 -0.3599
 4935SOL    HW123225   1.539   7.307   5.444 -0.3667  0.2805  0.7548
 4935SOL    HW223226   1.517   7.444   5.359  0.1990 -0.4498 -0.5877
 4936SOL     OW23227   6.187   8.489   3.966  0.0020 -0.8586  0.8107
 4936SOL    HW123228   6.214   8.565   3.905  1.6058 -1.5760  0.5915
 4936SOL    HW223229   6.203   8.402   3.919 -1.7242 -1.3550  1.1078
 4938SOL     OW23230   3.432   7.898   1.725 -0.5213  0.0347 -0.8982
 4938SOL    HW123231   3.367   7.900   1.649 -2.8605 -0.7620  0.9960
 4938SOL    HW223232   3.394   7.950   1.802  0.1741 -2.0863  0.9187
 4939SOL     OW23233   6.431   0.946   2.862  0.4726  0.2219 -0.3810
 4939SOL    HW123234   6.479   0.873   2.911 -1.6555 -0.5190  0.6621
 4939SOL    HW223235   6.333   0.931   2.868  0.0546  2.3134 -1.5363
 4940SOL     OW23236   2.788   5.986   1.123 -0.0071 -0.1313  0.6306
 4940SOL    HW123237   2.722   6.008   1.051  1.2182  0.5931 -0.2872
 4940SOL    HW223238   2.878   5.971   1.082  0.2281 -2.0100  1.7677
 4943SOL     OW23239   8.237   1.794   4.098 -0.1768  0.5829 -0.1244
 4943SOL    HW123240   8.294   1.712   4.093  2.4669  2.4282 -1.3039
 4943SOL    HW223241   8.260   1.845   4.181 -2.0629 -0.0005  0.7873
 4944SOL     OW23242   8.072   3.250   0.822  0.0580  0.3493  0.4425
 4944SOL    HW123243   8.038   3.329   0.873 -1.1459 -0.6240  1.1810
 4944SOL    HW223244   8.090   3.175   0.885  0.1369 -0.3279 -0.3768
 4945SOL     OW23245   8.846   4.469   5.311 -0.4269 -0.4160 -0.5825
 4945SOL    HW123246   8.935   4.501   5.277  0.5078 -1.9500  0.3705
 4945SOL    HW223247   8.792   4.548   5.342  0.9263  0.4514 -0.3884
 4946SOL     OW23248   0.505   0.912   0.732 -0.0475 -0.7004 -0.6469
 4946SOL    HW123249   0.422   0.857   0.726 -0.1311 -0.7480  0.6364
 4946SOL    HW223250   0.481   1.007   0.752  0.1969 -0.7454 -0.1049
 4947SOL     OW23251   1.898   5.641   4.255 -0.1773  0.6205  0.2443
 4947SOL    HW123252   1.869   5.577   4.327  1.6494  0.8993  1.2543
 4947SOL    HW223253   1.854   5.615   4.169  1.3713 -2.7022  0.3784
 4948SOL     OW23254   5.792   9.991   5.885 -0.2217 -0.7077 -0.2161
 4948SOL    HW123255   5.858   9.996   5.960  0.2579  0.7262 -0.7241
 4948SOL    HW223256   5.722   9.922   5.907  0.7222 -1.3399  0.8850
 4950SOL     OW23257   3.038   1.309   3.648 -0.3412  0.2333 -0.1093
 4950SOL    HW123258   2.969   1.366   3.603 -0.1486  1.0622  0.6453
 4950SOL    HW223259   2.997   1.264   3.727 -0.8556 -1.7324 -1.4465
 4951SOL     OW23260   6.446   7.338   4.433  0.2671 -0.3141 -0.2166
 4951SOL    HW123261   6.445   7.261   4.496 -0.1215  0.5320  0.8254
 4951SOL    HW223262   6.460   7.423   4.484  1.4123  0.2411 -1.4285
 4952SOL     OW23263   4.342   1.464   4.668 -0.0516  0.0865  0.5928
 4952SOL    HW123264   4.377   1.554   4.692  2.8248 -1.2237  1.5062
 4952SOL    HW223265   4.326   1.411   4.751 -3.2068  0.2527  0.1349
 4953SOL     OW23266   3.703   2.948   1.957 -0.2434 -0.0331 -0.2960
 4953SOL    HW123267   3.761   2.956   2.038  1.1286  0.5398 -1.3119
 4953SOL    HW223268   3.755   2.904   1.883 -1.1508  0.3707 -1.1872
 4954SOL     OW23269   5.476   4.443   1.107 -0.5955  0.0562 -0.0036
 4954SOL    HW123270   5.531   4.527   1.114  1.4071 -1.2785  0.6687
 4954SOL    HW223271   5.456   4.408   1.198 -1.5426 -0.1462 -0.2819
 4955SOL     OW23272   6.828   8.469   5.773 -0.4976 -0.0213 -0.5409
 4955SOL    HW123273   6.819   8.374   5.805 -0.1887 -0.0548 -0.5511
 4955SOL    HW223274   6.849   8.469   5.675  3.1682 -0.0725  0.1783
 4956SOL     OW23275   0.452   9.062   3.443  0.5549 -0.0065 -0.6133
 4956SOL    HW123276   0.352   9.056   3.440  0.5633 -0.0034 -1.0485
 4956SOL    HW223277   0.484   9.112   3.362  1.0349 -1.8354 -1.5671
 4958SOL     OW23278   0.223   2.536   4.115 -0.4045 -0.3746 -0.5853
 4958SOL    HW123279   0.200   2.535   4.017 -1.6802  0.3271 -0.3004
 4958SOL    HW223280   0.144   2.504   4.168  0.1070 -0.2574  0.2532
 4959SOL     OW23281   4.225   8.987   1.320 -0.0398  0.5782 -0.0619
 4959SOL    HW123282   4.282   8.907   1.303  0.6336  0.9667  0.3563
 4959SOL    HW223283   4.145   8.960   1.373 -0.7814 -0.1478 -1.5302
 4960SOL     OW23284   0.707   7.370   4.477  0.2306 -0.7262 -0.2850
 4960SOL    HW123285   0.688   7.403   4.384 -0.1646  1.8840  0.6843
 4960SOL    HW223286   0.624   7.332   4.516 -0.0542 -0.2265 -0.3910
 4962SOL     OW23287   0.076   6.637   3.397  0.7292 -0.0340 -0.7631
 4962SOL    HW123288   0.105   6.585   3.316  2.2767  1.6554 -1.3342
 4962SOL    HW223289   0.139   6.713   3.412 -0.1316  0.2900  1.4508
 4963SOL     OW23290   9.786   1.544   0.505 -0.3154 -0.3383  0.0787
 4963SOL    HW123291   9.780   1.644   0.508  2.3602 -0.1262 -0.5255
 4963SOL    HW223292   9.822   1.515   0.416 -1.2247 -1.8603  0.1818
 4964SOL     OW23293   9.529   8.168   6.057  0.1225  0.0805  0.2928
 4964SOL    HW123294   9.467   8.105   6.010 -2.1121  0.8509  2.0553
 4964SOL    HW223295   9.527   8.257   6.012  0.7098 -0.1839 -0.2482
 4965SOL     OW23296   6.657   3.403   0.817 -0.0731  0.2298  0.1336
 4965SOL    HW123297   6.698   3.439   0.901  0.3509 -0.3655  0.1876
 4965SOL    HW223298   6.727   3.355   0.764 -0.6307 -0.5592  0.0940
 4966SOL     OW23299   0.933   7.441   0.267  0.9694 -0.2985  0.5462
 4966SOL    HW123300   0.849   7.411   0.311  0.6752  0.1171  0.2726
 4966SOL    HW223301   1.001   7.463   0.337  0.4948  0.3772  0.8016
 4968SOL     OW23302   5.197   8.466   3.434 -0.1855 -0.0198 -0.0242
 4968SOL    HW123303   5.253   8.452   3.515  0.7635  1.3033 -0.4455
 4968SOL    HW223304   5.114   8.409   3.441  0.4450 -0.8028  1.3082
 4969SOL     OW23305   3.503   6.132   0.647  0.2265  0.3566 -0.3927
 4969SOL    HW123306   3.562   6.145   0.727  0.8091 -0.1875 -0.7313
 4969SOL    HW223307   3.533   6.194   0.573  1.2168 -0.8484 -1.0220
 4970SOL     OW23308   0.519   4.809   0.776 -0.0053 -0.6777  0.1086
 4970SOL    HW123309   0.533   4.710   0.778  0.4299 -0.6069  1.3161
 4970SOL    HW223310   0.596   4.853   0.823  1.0073  0.3733 -2.4697
 4971SOL     OW23311   1.832   8.671   3.120 -0.0583 -0.2799 -0.2632
 4971SOL    HW123312   1.849   8.686   3.218  0.3598  0.0031 -0.3786
 4971SOL    HW223313   1.866   8.748   3.068 -0.0149 -0.5658 -0.6616
 4972SOL     OW23314   6.518   1.450   4.205 -0.2407 -0.5555 -0.2250
 4972SOL    HW123315   6.538   1.449   4.107  0.8209 -0.7596 -0.0137
 4972SOL    HW223316   6.603   1.442   4.257 -0.6420  1.0067  0.7324
 4973SOL     OW23317   9.261   5.834   2.980 -0.0219  0.3218  0.3448
 4973SOL    HW123318   9.269   5.804   3.075 -2.2852 -2.1990 -0.2107
 4973SOL    HW223319   9.185   5.898   2.971 -0.9287 -0.7885 -0.0426
 4974SOL     OW23320   1.089   4.951   0.840  0.3061  0.4397  0.4955
 4974SOL    HW123321   1.111   4.882   0.909  2.2945 -0.0891 -0.6288
 4974SOL    HW223322   1.055   4.907   0.757  2.4783  0.7139 -0.5703
 4977SOL     OW23323   0.640   6.649   0.740 -0.4461 -0.5268  0.2929
 4977SOL    HW123324   0.722   6.648   0.683 -0.6242 -1.4723  0.0535
 4977SOL    HW223325   0.631   6.561   0.787 -3.2363 -1.7502 -2.4161
 4978SOL     OW23326   4.128   6.873   2.187  0.6061  0.1767 -0.1781
 4978SOL    HW123327   4.048   6.890   2.245 -0.5332  1.0597 -1.9750
 4978SOL    HW223328   4.209   6.864   2.245 -0.5516  0.7109  1.5768
 4979SOL     OW23329   3.772   5.075   0.786  0.2702  0.0255 -0.2008
 4979SOL    HW123330   3.713   4.997   0.804  1.0287 -0.4920  0.0473
 4979SOL    HW223331   3.858   5.065   0.836  0.4363  0.9433 -0.2842
 4980SOL     OW23332   3.978   0.658   4.126 -0.7134 -1.0025  0.0792
 4980SOL    HW123333   3.927   0.743   4.113  1.0744 -0.0399 -0.9291
 4980SOL    HW223334   4.000   0.648   4.223 -0.8022 -0.2259  0.1880
 4982SOL     OW23335   8.169   7.493   5.187 -0.0378  0.3369  0.4280
 4982SOL    HW123336   8.225   7.489   5.270  1.6624 -0.2335 -0.7164
 4982SOL    HW223337   8.073   7.500   5.213  0.3530 -1.0728  2.4693
 4984SOL     OW23338   0.744   8.130   5.301  0.3970  0.0636 -0.1555
 4984SOL    HW123339   0.700   8.059   5.246  0.5069  0.1680 -0.3770
 4984SOL    HW223340   0.684   8.156   5.377  0.1680  0.0535 -0.3352
 4986SOL     OW23341   8.222   1.293   4.577 -0.0889 -0.8777 -0.2158
 4986SOL    HW123342   8.154   1.247   4.635  1.1187 -2.5669 -0.0764
 4986SOL    HW223343   8.314   1.267   4.608  0.5805 -0.8320 -2.1099
 4987SOL     OW23344   6.220   1.027   1.856 -0.2249 -0.2485  0.1147
 4987SOL    HW123345   6.142   0.969   1.878  0.7645 -1.9530 -0.7787
 4987SOL    HW223346   6.261   1.061   1.940 -1.9977  0.7734  0.5925
 4988SOL     OW23347   2.383   4.978   2.617 -0.3578  0.1325  0.8137
 4988SOL    HW123348   2.375   4.944   2.711 -0.7116  0.1143  0.7794
 4988SOL    HW223349   2.350   5.072   2.613  1.0093  0.6211  0.9882
 4989SOL     OW23350   7.330   5.361   0.586  0.2194 -0.6295 -0.6644
 4989SOL    HW123351   7.230   5.361   0.594  0.4202 -1.1395  2.4848
 4989SOL    HW223352   7.364   5.455   0.588 -0.0604 -0.5447  0.8726
 4992SOL     OW23353   8.807   3.744   6.264 -0.1490 -0.2428  0.8339
 4992SOL    HW123354   8.757   3.830   6.268 -0.4503 -0.4330  1.1967
 4992SOL    HW223355   8.749   3.674   6.222 -0.8322 -0.8989  2.8064
 4993SOL     OW23356   1.446   1.789   2.410  0.2019 -0.5193 -0.2813
 4993SOL    HW123357   1.364   1.744   2.376  0.0337 -0.2587 -0.2138
 4993SOL    HW223358   1.481   1.852   2.341 -0.4662  0.4398  0.2556
 4995SOL     OW23359   1.108   0.724   2.450  0.1702  0.2789 -0.2274
 4995SOL    HW123360   1.030   0.679   2.493  0.3836 -0.4959 -0.6395
 4995SOL    HW223361   1.145   0.794   2.511 -0.5457  0.3152  0.1637
 4996SOL     OW23362   0.121   2.798   3.417 -0.1895  0.1582  0.3527
 4996SOL    HW123363   0.119   2.709   3.462 -1.8070 -0.3211 -0.6268
 4996SOL    HW223364   0.029   2.837   3.415  0.1789  1.0114 -0.8969
 4997SOL     OW23365   3.414   5.361   4.739 -0.4862 -0.1535  0.1562
 4997SOL    HW123366   3.444   5.442   4.689  0.8827 -0.6826  0.0938
 4997SOL    HW223367   3.315   5.366   4.754 -0.0828  2.6209  2.1866
 4998SOL     OW23368   1.308   0.309   1.324 -0.0504 -0.1037 -0.0733
 4998SOL    HW123369   1.316   0.271   1.417 -0.2895  2.7813  1.1879
 4998SOL    HW223370   1.212   0.326   1.304  0.1669  1.2095 -0.0237
 4999SOL     OW23371   5.078   1.615   0.198 -0.0701 -0.4155 -0.8988
 4999SOL    HW123372   5.122   1.618   0.108 -0.3609  1.5344 -1.0007
 4999SOL    HW223373   4.980   1.633   0.187 -0.0701  0.0151 -0.1650
 5000SOL     OW23374   2.586   2.384   4.299 -0.3139 -0.5931 -0.1252
 5000SOL    HW123375   2.620   2.305   4.249  0.9248 -0.7982  1.0141
 5000SOL    HW223376   2.534   2.353   4.379 -0.2751 -0.2624  0.0282
 5001SOL     OW23377   2.068   2.833   5.252  0.5238  0.2721 -0.4957
 5001SOL    HW123378   2.106   2.741   5.262 -0.9169 -0.2518  0.4405
 5001SOL    HW223379   2.137   2.901   5.275  2.2973 -0.4691 -3.3111
 5002SOL     OW23380   3.582   4.528   3.463 -0.0049  0.3199  0.0582
 5002SOL    HW123381   3.652   4.515   3.393  0.0338  2.5979 -0.3411
 5002SOL    HW223382   3.493   4.498   3.428 -0.2240  2.6434 -1.4388
 5004SOL     OW23383   2.985   3.463   0.851 -0.4660 -0.0843  0.0210
 5004SOL    HW123384   3.056   3.437   0.917  1.1213 -0.7899 -1.9298
 5004SOL    HW223385   2.982   3.563   0.845  0.3869 -0.0423  0.1034
 5005SOL     OW23386   9.631   4.158   0.109  0.2932 -0.0490 -0.0286
 5005SOL    HW123387   9.535   4.128   0.113  0.5016 -0.7347 -0.1105
 5005SOL    HW223388   9.688   4.096   0.162  0.6777  0.4393  0.1354
 5006SOL     OW23389   9.136   6.543   2.563  0.0045 -0.1737 -0.6131
 5006SOL    HW123390   9.157   6.512   2.656 -1.7717 -1.2207 -0.5377
 5006SOL    HW223391   9.216   6.526   2.505  0.6418 -0.8195  0.4109
 5007SOL     OW23392   7.547   1.503   1.368 -0.1449  0.0896  0.0104
 5007SOL    HW123393   7.626   1.447   1.393 -1.0895 -0.6967  1.2685
 5007SOL    HW223394   7.463   1.454   1.391 -0.9987  1.1577 -0.8057
 5010SOL     OW23395   3.438   9.309   4.840 -0.4308 -0.8873 -0.0280
 5010SOL    HW123396   3.389   9.394   4.861 -0.3185 -0.0634 -2.9396
 5010SOL    HW223397   3.536   9.324   4.855 -0.5686 -1.0906  1.1847
 5011SOL     OW23398   1.425   0.872   2.686  0.1750  0.6340 -0.6973
 5011SOL    HW123399   1.452   0.863   2.782  2.2866 -0.7568 -1.3839
 5011SOL    HW223400   1.481   0.942   2.642  1.8442 -1.3243 -1.7983
 5012SOL     OW23401   4.338   7.529   5.392  0.1326  0.0468  0.3914
 5012SOL    HW123402   4.269   7.457   5.389 -0.7787  0.9218 -0.1227
 5012SOL    HW223403   4.393   7.527   5.308  0.2432 -0.1672  0.4677
 5013SOL     OW23404   1.518   6.499   5.686 -0.4339  0.2062 -0.3081
 5013SOL    HW123405   1.437   6.441   5.682 -1.1908  1.0455  2.1423
 5013SOL    HW223406   1.506   6.576   5.622 -1.8970  0.7153  0.5461
 5016SOL     OW23407   9.305   0.257   2.416 -0.4417 -0.2632  0.6789
 5016SOL    HW123408   9.316   0.222   2.509  0.6506 -0.2177  0.5770
 5016SOL    HW223409   9.380   0.320   2.396 -0.9869  0.1572 -0.0366
 5017SOL     OW23410   8.431   0.040   3.226  0.2889  0.0565  0.2432
 5017SOL    HW123411   8.513   0.016   3.176  0.5707 -1.0076  1.1939
 5017SOL    HW223412   8.433  -0.003   3.316 -0.9392  0.6609  0.5727
 5018SOL     OW23413   6.709   1.329   2.851 -0.1058  0.4248 -0.4290
 5018SOL    HW123414   6.631   1.284   2.808  0.0186  0.1581 -0.3750
 5018SOL    HW223415   6.728   1.287   2.940  2.1086 -1.6856 -1.8434
 5019SOL     OW23416   4.122   0.948   2.809  0.4668  0.3745 -0.1922
 5019SOL    HW123417   4.193   0.878   2.810  1.1209  1.0492  0.7409
 5019SOL    HW223418   4.112   0.983   2.716 -0.6875 -1.7655 -0.9257
 5020SOL     OW23419   9.328   9.787   1.115 -0.0548  0.0650 -0.2324
 5020SOL    HW123420   9.265   9.732   1.171  0.2289  1.2212  1.2483
 5020SOL    HW223421   9.286   9.875   1.094  1.9633  1.8534  2.8556
 5021SOL     OW23422   9.886   1.353   3.468  0.6189 -0.0332 -0.5808
 5021SOL    HW123423   9.826   1.432   3.462  1.3383  0.5156 -0.6792
 5021SOL    HW223424   9.847   1.286   3.531  0.0399  0.4340 -0.4388
 5022SOL     OW23425   5.824   0.190   4.375  0.5216 -0.1992 -0.1026
 5022SOL    HW123426   5.888   0.234   4.438  0.5370  0.1094 -0.3321
 5022SOL    HW223427   5.765   0.127   4.425  1.1320 -0.6282  0.0797
 5023SOL     OW23428   8.268   1.818   0.543  0.2264 -0.8806 -0.4905
 5023SOL    HW123429   8.200   1.779   0.605 -0.1217 -0.0702 -0.3640
 5023SOL    HW223430   8.245   1.913   0.523  1.9438 -0.2557  0.4514
 5024SOL     OW23431   8.828   7.723   4.749  0.5762  0.5922 -0.2149
 5024SOL    HW123432   8.782   7.791   4.806  0.0846  0.8882 -0.9613
 5024SOL    HW223433   8.835   7.757   4.655 -2.0514 -1.4601 -1.2166
 5025SOL     OW23434   3.348   3.171   6.037 -0.4997  0.0877  0.0000
 5025SOL    HW123435   3.414   3.196   6.108 -0.1382 -2.2974  0.5305
 5025SOL    HW223436   3.382   3.203   5.948 -0.2680  1.8264  0.6989
 5026SOL     OW23437   3.190   8.790   3.169 -0.8140  0.3383  0.7559
 5026SOL    HW123438   3.158   8.881   3.144 -1.7166 -0.3116 -0.5676
 5026SOL    HW223439   3.173   8.727   3.093  0.2244 -0.8361  1.4669
 5027SOL     OW23440   3.094   3.248   6.121  0.5063  0.2642  0.0089
 5027SOL    HW123441   3.039   3.176   6.164  0.2832  1.5166  1.9391
 5027SOL    HW223442   3.186   3.214   6.104  0.1836 -0.7245  0.1809
 5029SOL     OW23443   2.791   4.461   3.823  0.3920 -0.4268  0.4213
 5029SOL    HW123444   2.762   4.528   3.891  0.1813 -0.1238  0.0381
 5029SOL    HW223445   2.717   4.446   3.758 -0.0455 -2.0263  1.2667
 5030SOL     OW23446   2.922   9.491   1.159 -0.5014 -0.2834 -0.0677
 5030SOL    HW123447   2.908   9.515   1.255 -2.0421 -0.2921 -0.2877
 5030SOL    HW223448   2.847   9.527   1.104  1.3799  1.5234 -1.5828
 5033SOL     OW23449   1.151   7.349   5.165 -0.6389 -0.3183  0.2429
 5033SOL    HW123450   1.232   7.321   5.112 -1.6293 -2.4678 -0.1625
 5033SOL    HW223451   1.175   7.355   5.262  0.4703  0.9339 -0.0806
 5034SOL     OW23452   4.046   4.127   5.175  0.2915  0.1149  0.6934
 5034SOL    HW123453   4.089   4.138   5.085  0.0321  1.2245  0.6950
 5034SOL    HW223454   4.115   4.133   5.247  0.9504 -3.6404  0.4786
 5035SOL     OW23455   7.734   9.037   2.863 -0.0547  0.2503 -0.1907
 5035SOL    HW123456   7.639   9.060   2.841 -0.0678 -0.8123 -1.2935
 5035SOL    HW223457   7.736   8.959   2.926  0.0950 -0.6093 -1.2389
 5036SOL     OW23458   1.771   1.755   0.706  0.5201 -0.3468  0.1952
 5036SOL    HW123459   1.707   1.771   0.630  1.3566 -1.4592 -0.7744
 5036SOL    HW223460   1.794   1.842   0.749  1.7317  0.5981 -2.2622
 5037SOL     OW23461   3.480   7.850   2.824  0.1362  0.2412 -0.0662
 5037SOL    HW123462   3.533   7.862   2.740  0.2306 -1.2196 -0.2391
 5037SOL    HW223463   3.400   7.793   2.805 -1.5200  2.4286  0.1952
 5038SOL     OW23464   6.219   3.700   1.144  0.9154  0.4536  0.0470
 5038SOL    HW123465   6.298   3.640   1.155  0.4054  0.0780  2.0565
 5038SOL    HW223466   6.249   3.791   1.115  1.7355 -0.6340 -2.6470
 5039SOL     OW23467   1.837   6.290   1.880  0.2558  0.3536 -0.3138
 5039SOL    HW123468   1.877   6.376   1.848 -0.5489  0.5653 -0.7633
 5039SOL    HW223469   1.749   6.276   1.835 -1.2879  1.0497  2.4207
 5040SOL     OW23470   2.043   6.265   1.292  0.4084 -0.0378 -1.0084
 5040SOL    HW123471   2.041   6.365   1.291  0.7879 -0.0205 -2.2886
 5040SOL    HW223472   2.130   6.234   1.252  0.8110 -0.8684  0.4929
 5041SOL     OW23473   4.489   7.688   4.972  0.8781  0.6287 -0.3506
 5041SOL    HW123474   4.452   7.619   5.035 -1.5836  1.9468 -0.2710
 5041SOL    HW223475   4.480   7.656   4.878  0.4294  0.5123 -0.2700
 5042SOL     OW23476   4.778   7.428   4.710 -0.1446 -0.0067 -0.5822
 5042SOL    HW123477   4.772   7.528   4.719 -1.8237 -0.0066 -1.7149
 5042SOL    HW223478   4.722   7.397   4.634  2.1257 -1.6067 -1.6530
 5043SOL     OW23479   6.728   7.363   6.440  0.0813  0.3197  0.4851
 5043SOL    HW123480   6.666   7.370   6.518 -1.5577 -0.3001 -0.7362
 5043SOL    HW223481   6.715   7.442   6.380 -1.7017 -1.2784 -1.3052
 5044SOL     OW23482   2.392   5.233   0.041  0.8116 -0.1548  0.1925
 5044SOL    HW123483   2.341   5.160  -0.005 -0.5035  0.6609  0.3403
 5044SOL    HW223484   2.378   5.225   0.140  0.1923  0.6364  0.1754
 5045SOL     OW23485   1.289   1.745   1.087  0.3490  0.4023  0.6400
 5045SOL    HW123486   1.205   1.691   1.089  0.2175  0.5231 -1.1738
 5045SOL    HW223487   1.267   1.842   1.091  0.2691  0.5119 -1.7560
 5046SOL     OW23488   8.258   6.837   1.506 -0.0118  0.1588 -0.2835
 5046SOL    HW123489   8.281   6.740   1.512  0.7761  0.2012 -2.2623
 5046SOL    HW223490   8.160   6.846   1.485 -0.4478 -0.1460  1.5105
 5047SOL     OW23491   8.638   5.149   5.576  0.5155  0.2407 -0.3732
 5047SOL    HW123492   8.627   5.049   5.572  0.1950  0.3141 -1.6014
 5047SOL    HW223493   8.566   5.192   5.523  1.7104  1.0600 -1.3528
 5048SOL     OW23494   3.283   4.650   2.513 -0.0039  0.0179 -0.2641
 5048SOL    HW123495   3.226   4.599   2.578  2.1457 -1.1194  0.7918
 5048SOL    HW223496   3.297   4.743   2.547  0.3416 -0.2887  0.4475
 5050SOL     OW23497   2.979   8.552   4.659  0.1576  0.6241  0.4863
 5050SOL    HW123498   3.065   8.537   4.609 -1.1078 -1.0764 -1.2876
 5050SOL    HW223499   2.979   8.496   4.742 -0.0741 -1.0625 -0.6081
 5051SOL     OW23500   1.891   4.105   3.538  0.3655 -0.7416 -0.4840
 5051SOL    HW123501   1.895   4.087   3.439  1.4350 -0.3623 -0.5131
 5051SOL    HW223502   1.981   4.136   3.570  0.5464 -2.6823  0.9671
 5052SOL     OW23503   8.314   4.971   6.254  0.0472  0.1749 -0.2485
 5052SOL    HW123504   8.288   4.958   6.349 -0.6946  0.2398 -0.4395
 5052SOL    HW223505   8.304   4.885   6.204  0.5222  0.1190 -0.2464
 5053SOL     OW23506   3.428   6.867   2.160 -0.7752 -0.1632  0.1042
 5053SOL    HW123507   3.522   6.894   2.178 -1.0733  0.1659  1.1871
 5053SOL    HW223508   3.366   6.942   2.182 -1.2882 -0.3005 -0.7973
 5054SOL     OW23509   0.437   2.073   0.186 -0.7510  0.1297 -0.2372
 5054SOL    HW123510   0.413   1.991   0.135  0.5861  0.1444 -0.8980
 5054SOL    HW223511   0.355   2.130   0.197 -1.7517 -1.3907  0.4570
 5055SOL     OW23512   4.832   2.994   0.666  0.4126 -0.1176 -0.0864
 5055SOL    HW123513   4.889   3.045   0.730  1.2531 -0.3990 -0.6043
 5055SOL    HW223514   4.851   3.025   0.573 -0.7298  0.2199 -0.2140
 5056SOL     OW23515   0.779   5.430   2.551 -1.3931 -0.1450 -0.2874
 5056SOL    HW123516   0.803   5.347   2.501  0.4271  1.1885 -1.6583
 5056SOL    HW223517   0.813   5.423   2.645 -0.1315 -0.4311 -0.7578
 5057SOL     OW23518   0.897   7.690   3.730 -0.5771  0.1948 -0.0813
 5057SOL    HW123519   0.959   7.617   3.700 -3.9684 -1.9186 -2.3684
 5057SOL    HW223520   0.875   7.749   3.653 -0.2805  1.8171  1.0555
 5058SOL     OW23521   6.338   0.104   2.634 -0.6517  0.2739 -0.2899
 5058SOL    HW123522   6.437   0.096   2.643 -0.4106  0.6921 -2.3080
 5058SOL    HW223523   6.303   0.165   2.705  0.3593 -0.8498  1.2008
 5059SOL     OW23524   9.763   6.446   2.883 -0.1916 -0.0998  0.1591
 5059SOL    HW123525   9.711   6.428   2.967  0.6214 -1.7440  0.3240
 5059SOL    HW223526   9.816   6.529   2.894 -1.3143  0.5657  0.6884
 5060SOL     OW23527   4.254   6.525   2.003 -0.1808  0.6811 -0.1987
 5060SOL    HW123528   4.178   6.517   1.937 -0.6779 -0.2731  0.4802
 5060SOL    HW223529   4.219   6.510   2.095  1.0364 -0.9367  0.0163
 5061SOL     OW23530   1.398   9.194   1.429 -0.3565 -0.1339 -0.0251
 5061SOL    HW123531   1.354   9.194   1.340 -2.4999  0.5880  0.9909
 5061SOL    HW223532   1.470   9.124   1.432 -0.5510 -0.4399 -2.1468
 5062SOL     OW23533   3.436   6.505   5.231  0.4539  0.5208  1.0606
 5062SOL    HW123534   3.383   6.475   5.152 -0.3643  0.8789  1.4741
 5062SOL    HW223535   3.488   6.587   5.207  2.0216 -0.6719  0.1928
 5063SOL     OW23536   8.381   0.479   2.593  0.1730  0.3589 -0.4614
 5063SOL    HW123537   8.359   0.390   2.632 -0.4187  1.0223  0.7571
 5063SOL    HW223538   8.428   0.535   2.662  2.4336  0.2623 -1.8606
 5064SOL     OW23539   3.807   2.695   1.150 -0.2201  0.5903 -0.2110
 5064SOL    HW123540   3.795   2.789   1.119  1.0741  1.5172  2.0129
 5064SOL    HW223541   3.905   2.675   1.158 -0.5021 -0.5833  0.3809
 5066SOL     OW23542   4.003   9.522   4.299 -0.2270  0.1600  0.1931
 5066SOL    HW123543   3.993   9.605   4.354 -0.9708  0.3890 -0.2784
 5066SOL    HW223544   4.067   9.538   4.225 -1.1361  0.6246 -0.4943
 5067SOL     OW23545   0.185   1.916   4.077 -0.1170  0.2777 -0.1099
 5067SOL    HW123546   0.243   1.997   4.086 -0.4539  0.6072 -0.8407
 5067SOL    HW223547   0.235   1.836   4.107  0.2116  0.7629  0.6515
 5068SOL     OW23548   2.884   9.772   1.916  0.3799  0.0473 -0.3985
 5068SOL    HW123549   2.791   9.771   1.953 -0.3297 -1.1282 -2.1141
 5068SOL    HW223550   2.950   9.779   1.990 -1.0912  1.4768  0.8142
 5069SOL     OW23551   9.131   5.342   1.270 -0.0214  0.2321  0.0756
 5069SOL    HW123552   9.096   5.332   1.363  0.5457 -0.8677  0.1715
 5069SOL    HW223553   9.193   5.420   1.266  2.6959 -1.7905  1.4498
 5070SOL     OW23554   6.835   1.976   4.511  0.7739 -0.2211 -0.0168
 5070SOL    HW123555   6.800   1.959   4.603  1.2454  1.1794  0.4279
 5070SOL    HW223556   6.935   1.969   4.512  0.8444  0.7161 -0.2198
 5071SOL     OW23557   2.930   8.030   0.795  0.2339  0.1322  0.4483
 5071SOL    HW123558   2.832   8.017   0.811 -0.2533  1.6587 -1.2103
 5071SOL    HW223559   2.981   7.956   0.840 -1.6916 -0.8753  1.0161
 5072SOL     OW23560   6.780   0.146   6.330  0.2896 -0.1042  0.2770
 5072SOL    HW123561   6.807   0.055   6.364 -0.8150  0.2523  2.1760
 5072SOL    HW223562   6.733   0.196   6.403 -2.0015  0.7805 -1.7393
 5073SOL     OW23563   0.367   1.794   3.114 -0.0167 -0.1561 -0.2902
 5073SOL    HW123564   0.402   1.758   3.201  1.3527  1.0115 -0.3385
 5073SOL    HW223565   0.270   1.814   3.123 -0.1382 -1.0871  0.6296
 5076SOL     OW23566   2.629   8.574   4.216  0.3827  0.0004  0.1046
 5076SOL    HW123567   2.715   8.582   4.266  1.4547 -0.5006 -1.5943
 5076SOL    HW223568   2.627   8.486   4.167 -1.0855  0.0206  0.1030
 5077SOL     OW23569   5.689   9.552   2.248  0.3553  0.5275 -0.2250
 5077SOL    HW123570   5.781   9.575   2.216  1.2188  0.8045  2.3194
 5077SOL    HW223571   5.665   9.611   2.325 -1.9595  0.4268 -0.8305
 5078SOL     OW23572   6.260   0.995   0.673 -0.3794 -0.0184 -0.3445
 5078SOL    HW123573   6.177   0.981   0.727 -0.5553 -0.4626 -0.7284
 5078SOL    HW223574   6.328   1.042   0.729 -0.6867 -0.1585  0.1527
 5079SOL     OW23575   9.572   7.135   4.861  0.3495  0.1868 -0.2455
 5079SOL    HW123576   9.625   7.070   4.807  0.4438 -1.9925  2.3747
 5079SOL    HW223577   9.479   7.141   4.824  1.1644  0.8072 -2.2625
 5080SOL     OW23578   8.620   0.813   0.535 -0.0066 -0.4113 -0.3486
 5080SOL    HW123579   8.520   0.809   0.543  0.0626 -0.4469  0.6797
 5080SOL    HW223580   8.648   0.784   0.444 -0.8243 -2.0698 -0.0870
 5081SOL     OW23581   0.782   9.879   4.795 -0.3834 -0.8820 -0.1337
 5081SOL    HW123582   0.843   9.803   4.772 -0.9674 -0.5851 -2.8551
 5081SOL    HW223583   0.690   9.859   4.761 -1.0973  0.0366  1.2090
 5082SOL     OW23584   0.317   6.657   4.290  0.1509  0.1843  0.1261
 5082SOL    HW123585   0.261   6.701   4.360  0.6876  0.8751  0.1253
 5082SOL    HW223586   0.390   6.604   4.333  2.0465  2.6664  0.0787
 5083SOL     OW23587   1.901   0.860   0.793 -0.2956 -0.0673  0.0369
 5083SOL    HW123588   1.990   0.906   0.790 -1.2335  1.7948  0.2652
 5083SOL    HW223589   1.839   0.902   0.726 -0.8991 -1.6086 -0.3960
 5085SOL     OW23590   4.859   2.186   5.380 -0.1078  0.5303  0.2237
 5085SOL    HW123591   4.849   2.245   5.460 -1.2058  0.0940  0.4160
 5085SOL    HW223592   4.770   2.147   5.356 -0.0978  1.9034 -2.1941
 5087SOL     OW23593   9.275   3.304   4.629  0.0315 -0.5150 -0.0804
 5087SOL    HW123594   9.279   3.229   4.695  0.5071 -1.0429 -0.6984
 5087SOL    HW223595   9.256   3.266   4.538  1.6464 -0.0341 -0.6403
 5088SOL     OW23596   6.877   9.372   4.146 -0.3164  0.2414 -0.1928
 5088SOL    HW123597   6.778   9.390   4.148 -0.2234  0.7139  0.1562
 5088SOL    HW223598   6.909   9.374   4.051 -0.3587  1.6574 -0.1941
 5091SOL     OW23599   2.075   6.579   0.092  0.8403 -0.5351  0.3475
 5091SOL    HW123600   2.112   6.671   0.079 -0.0752 -0.0958  0.7425
 5091SOL    HW223601   2.113   6.517   0.024  0.9242  0.2974 -0.3726
 5093SOL     OW23602   0.009   1.653   3.987  0.2941 -0.0647 -0.4332
 5093SOL    HW123603   0.032   1.564   3.950  1.2212 -0.6676  1.5433
 5093SOL    HW223604   0.069   1.674   4.064 -0.0348  2.1834 -0.7513
 5094SOL     OW23605   7.525   0.913   1.848  1.5302  0.2591  0.3184
 5094SOL    HW123606   7.574   0.999   1.835  1.3696  0.1188 -1.2408
 5094SOL    HW223607   7.577   0.837   1.808  1.7348 -0.4081  1.7942
 5096SOL     OW23608   1.529   7.866   0.908  0.0875 -0.2393 -0.2050
 5096SOL    HW123609   1.582   7.781   0.906 -1.1508 -1.0326  0.0602
 5096SOL    HW223610   1.475   7.869   0.992 -1.1765  0.0045 -1.0180
 5097SOL     OW23611   7.904   6.439   4.124 -0.3709 -0.3963  0.2110
 5097SOL    HW123612   7.968   6.427   4.199  0.4520 -1.6170 -0.6753
 5097SOL    HW223613   7.822   6.486   4.158 -0.3225 -1.5654  2.0183
 5098SOL     OW23614   9.309   5.114   2.729  0.1814  0.1629  0.6916
 5098SOL    HW123615   9.279   5.089   2.821 -0.6261 -0.0109  0.3883
 5098SOL    HW223616   9.269   5.202   2.704 -0.8851 -0.5407 -0.0988
 5099SOL     OW23617   2.773   0.075   0.619  0.0886 -0.1967 -0.9160
 5099SOL    HW123618   2.831   0.155   0.634 -0.2292 -0.3619  1.5415
 5099SOL    HW223619   2.683   0.091   0.661 -0.3751 -1.3819 -1.4411
 5100SOL     OW23620   8.398   1.291   3.152 -0.1039  0.0529 -0.2508
 5100SOL    HW123621   8.365   1.314   3.060  1.0694  1.4176 -0.3506
 5100SOL    HW223622   8.374   1.364   3.215  1.9954  0.7344 -0.1740
 5102SOL     OW23623   6.514   9.532   4.465 -0.0720 -0.2006 -0.5073
 5102SOL    HW123624   6.467   9.453   4.505  1.9163 -1.3388 -0.3315
 5102SOL    HW223625   6.577   9.571   4.533  1.0029 -0.2058 -1.4796
 5104SOL     OW23626   1.188   9.776   4.751 -0.2162  0.2837  0.4051
 5104SOL    HW123627   1.264   9.712   4.745 -1.3224 -0.8974 -1.5611
 5104SOL    HW223628   1.113   9.734   4.802 -0.4007  0.5723  0.3748
 5105SOL     OW23629   6.154   5.498   0.485 -0.2176  0.3164  0.3547
 5105SOL    HW123630   6.237   5.552   0.495 -1.8089  2.7054  1.3291
 5105SOL    HW223631   6.109   5.521   0.399  0.1617 -0.9983 -0.1921
 5107SOL     OW23632   8.802   2.838   4.537 -0.1840  0.1884  0.0158
 5107SOL    HW123633   8.774   2.744   4.556  3.2574 -0.7655  0.6831
 5107SOL    HW223634   8.810   2.852   4.439  1.5634 -0.9651 -0.0315
 5108SOL     OW23635   1.064   1.110   5.986 -0.1397 -0.0695 -0.2692
 5108SOL    HW123636   1.024   1.054   6.058  0.2397 -0.3196 -0.2534
 5108SOL    HW223637   1.107   1.051   5.917  2.2795  0.2447  0.9134
 5109SOL     OW23638   7.900   2.762   2.925 -0.1042  0.1850  0.3660
 5109SOL    HW123639   7.988   2.801   2.949 -0.2814  0.1634  1.0718
 5109SOL    HW223640   7.831   2.791   2.991 -0.9846  1.5191 -1.0826
 5110SOL     OW23641   9.090   5.337   4.288  0.8583  0.2672  0.0463
 5110SOL    HW123642   9.070   5.242   4.266 -0.5507  0.5505  0.0890
 5110SOL    HW223643   9.164   5.341   4.355 -0.7231 -0.8814  1.8966
 5111SOL     OW23644   9.900   7.453   0.626 -0.1354  0.2514 -0.2773
 5111SOL    HW123645   9.803   7.470   0.644 -0.2837  0.0540 -0.8815
 5111SOL    HW223646   9.942   7.410   0.707 -0.8919 -1.0214 -0.5511
 5112SOL     OW23647   5.902   3.456   0.637  0.1532  0.2351  0.2748
 5112SOL    HW123648   5.811   3.497   0.629  1.3985  2.9339 -0.4554
 5112SOL    HW223649   5.915   3.388   0.565 -0.6457  1.0645 -0.6477
 5113SOL     OW23650   4.308   3.808   3.133  0.3213 -0.0374 -0.1798
 5113SOL    HW123651   4.344   3.773   3.046  0.1430 -1.1905  0.2028
 5113SOL    HW223652   4.226   3.756   3.159 -0.6883  1.5037 -0.2305
 5114SOL     OW23653   2.295   7.595   6.219  0.6680  0.2539  0.1972
 5114SOL    HW123654   2.254   7.604   6.128  0.0452 -1.8690  0.2580
 5114SOL    HW223655   2.383   7.548   6.211  0.9302  0.6738  0.6189
 5115SOL     OW23656   4.120   3.826   1.507  0.1351 -0.4944  0.6988
 5115SOL    HW123657   4.155   3.804   1.416 -2.6106  0.1432 -0.5789
 5115SOL    HW223658   4.195   3.826   1.573  2.0312 -1.9059 -1.3836
 5116SOL     OW23659   3.801  10.000   2.197  0.0240 -0.2904 -0.0532
 5116SOL    HW123660   3.718   9.983   2.251  0.6152 -2.2182  0.2868
 5116SOL    HW223661   3.879   9.955   2.240  0.9426  0.1168 -1.2668
 5117SOL     OW23662   0.265   9.934   1.817 -0.7038 -0.2943  0.1191
 5117SOL    HW123663   0.322  10.016   1.824  0.3827 -1.1733  1.9640
 5117SOL    HW223664   0.185   9.944   1.876 -0.9827 -0.2467 -0.2652
 5118SOL     OW23665   6.346   2.791   0.628  0.0711 -0.1227  0.1056
 5118SOL    HW123666   6.344   2.710   0.570 -0.0627 -0.1749  0.1828
 5118SOL    HW223667   6.266   2.791   0.688  1.4179 -1.2976  1.9693
 5119SOL     OW23668   3.488   0.742   4.067  0.5475  0.0953 -0.4732
 5119SOL    HW123669   3.524   0.669   4.009  0.8049  1.5715 -2.2165
 5119SOL    HW223670   3.563   0.791   4.111  0.5307  0.9800 -1.4013
 5121SOL     OW23671   4.719   2.812   1.799 -0.0313  0.3962  0.1773
 5121SOL    HW123672   4.711   2.887   1.865 -0.3640 -0.4520  1.1125
 5121SOL    HW223673   4.637   2.756   1.802  1.6945 -2.1950  2.2423
 5122SOL     OW23674   8.233   7.797   3.786  0.5310 -0.3498  0.0253
 5122SOL    HW123675   8.330   7.816   3.801  1.3211 -2.3782 -2.1217
 5122SOL    HW223676   8.217   7.698   3.792 -1.0304 -0.2134 -1.4823
 5123SOL     OW23677   7.814   1.341   1.974  0.9661 -0.0472  0.2419
 5123SOL    HW123678   7.825   1.427   1.924 -0.1454  0.8490  1.4715
 5123SOL    HW223679   7.894   1.325   2.032  2.3009 -1.1382 -1.8362
 5125SOL     OW23680   6.761   8.709   2.626 -0.4539  0.0864 -0.5256
 5125SOL    HW123681   6.792   8.800   2.598  0.2000 -0.0320 -0.1977
 5125SOL    HW223682   6.728   8.714   2.720  0.2464 -0.1604 -0.2633
 5128SOL     OW23683   9.092   6.055   5.953  0.2842 -0.0104 -0.0887
 5128SOL    HW123684   9.008   6.068   6.007  0.5785  1.8360 -0.0345
 5128SOL    HW223685   9.171   6.068   6.011  0.6140 -0.2626 -0.4780
 5129SOL     OW23686   2.822   0.717   3.873 -0.2417 -0.4982 -0.1711
 5129SOL    HW123687   2.911   0.743   3.836 -0.8173  0.4877 -0.8788
 5129SOL    HW223688   2.777   0.653   3.810  0.3852 -1.7845  0.6722
 5130SOL     OW23689   1.418   1.978   2.156 -0.0189 -0.2350  0.7379
 5130SOL    HW123690   1.344   1.998   2.092  0.1592  0.4080  0.7234
 5130SOL    HW223691   1.446   1.883   2.146 -0.3999 -0.3007  0.2780
 5132SOL     OW23692   6.122   1.274   0.559  0.2215  0.1629 -0.2634
 5132SOL    HW123693   6.060   1.328   0.616 -1.4715 -0.3609 -1.5894
 5132SOL    HW223694   6.174   1.211   0.616 -0.9075  0.1729  0.7793
 5133SOL     OW23695   4.117   9.507   0.682 -0.2480  0.1808  0.4625
 5133SOL    HW123696   4.046   9.438   0.695  0.0557 -0.0144  1.1189
 5133SOL    HW223697   4.163   9.524   0.769  1.1017 -0.3370 -0.1468
 5135SOL     OW23698   3.541   8.075   2.621 -0.7071 -0.0594  0.8538
 5135SOL    HW123699   3.468   8.086   2.553  0.0671 -0.8745 -0.1364
 5135SOL    HW223700   3.571   8.165   2.652 -1.0279  0.3349  0.0515
 5136SOL     OW23701   3.563   7.477   5.410  0.1325  0.0970 -0.5525
 5136SOL    HW123702   3.528   7.477   5.503 -1.0476 -1.2640 -0.9754
 5136SOL    HW223703   3.488   7.462   5.346  0.9958  0.5631 -1.6947
 5137SOL     OW23704   0.870   0.562   2.560 -0.3627  0.2812  0.7015
 5137SOL    HW123705   0.890   0.466   2.580 -0.8048 -0.0745 -0.5119
 5137SOL    HW223706   0.826   0.605   2.639 -1.5347 -0.9270  0.7236
 5138SOL     OW23707   7.624   1.306   4.155  0.2460 -0.2157  0.2665
 5138SOL    HW123708   7.597   1.262   4.069 -1.6822 -0.5799  1.0390
 5138SOL    HW223709   7.565   1.385   4.172  0.4851 -0.2635  1.3447
 5139SOL     OW23710   9.208   4.326   6.184 -0.5060  0.6851 -0.7525
 5139SOL    HW123711   9.201   4.385   6.265 -0.3279  0.4621 -0.5738
 5139SOL    HW223712   9.206   4.383   6.102 -1.6733  0.8503 -0.6322
 5140SOL     OW23713   1.664   1.526   1.424 -0.4986 -0.3046  0.4423
 5140SOL    HW123714   1.590   1.574   1.471 -1.1494 -1.5264  0.6922
 5140SOL    HW223715   1.632   1.491   1.337 -0.6995 -2.2316  1.2673
 5141SOL     OW23716   3.216   4.025   5.428  0.6932  0.7589 -0.2988
 5141SOL    HW123717   3.138   4.086   5.414  0.8060  0.8241 -0.6657
 5141SOL    HW223718   3.188   3.947   5.483  0.2078  0.4607 -0.9720
 5142SOL     OW23719   6.353   0.130   6.006 -0.2903  0.4165 -0.0239
 5142SOL    HW123720   6.449   0.128   6.033 -0.9563 -0.2089  2.4260
 5142SOL    HW223721   6.320   0.036   5.993 -0.5596  0.6334 -0.9789
 5143SOL     OW23722   1.738   9.052   0.855  0.0017  0.1190 -0.0229
 5143SOL    HW123723   1.823   9.089   0.818  0.9072 -1.2980  0.5558
 5143SOL    HW223724   1.679   9.021   0.781  0.6903 -0.3528 -0.3760
 5146SOL     OW23725   4.349   4.585   1.058 -0.2281 -0.5001 -0.0822
 5146SOL    HW123726   4.320   4.496   1.094 -3.5951  0.3450 -0.5825
 5146SOL    HW223727   4.305   4.658   1.110  0.8062  0.8528 -1.0748
 5147SOL     OW23728   0.860   9.399   4.747  0.0089 -0.4101 -0.0628
 5147SOL    HW123729   0.914   9.366   4.669 -1.1031  0.5794 -1.2625
 5147SOL    HW223730   0.851   9.325   4.814  1.7436 -0.9975 -0.4379
 5149SOL     OW23731   7.476   8.069   3.532 -0.8354  0.1295  0.2672
 5149SOL    HW123732   7.462   8.146   3.470 -1.8790 -0.5837 -0.4174
 5149SOL    HW223733   7.403   8.069   3.602 -1.8180 -1.1684 -0.7313
 5150SOL     OW23734   0.527   6.527   4.383  0.0289  0.0182 -0.1325
 5150SOL    HW123735   0.587   6.461   4.338 -1.5097 -3.6156  2.9191
 5150SOL    HW223736   0.547   6.530   4.481 -3.4156  0.1510  0.6404
 5152SOL     OW23737   7.198   2.834   6.432 -0.0524  0.3037 -0.0559
 5152SOL    HW123738   7.239   2.745   6.412 -0.5870  0.3890 -1.5508
 5152SOL    HW223739   7.104   2.836   6.398 -0.0569  1.4284  0.0054
 5153SOL     OW23740   7.596   6.814   3.256  1.1224 -0.1062 -0.3491
 5153SOL    HW123741   7.625   6.848   3.346  2.3915 -2.9477  0.3741
 5153SOL    HW223742   7.509   6.766   3.265  0.4084  1.0545 -0.9709
 5154SOL     OW23743   4.486   8.792   4.321 -0.0509  0.1401  0.1898
 5154SOL    HW123744   4.539   8.828   4.398  0.2264  1.2465 -0.5124
 5154SOL    HW223745   4.546   8.740   4.261 -0.3443 -1.0535  0.9113
 5155SOL     OW23746   3.477   3.174   0.847 -0.1055 -0.3877 -0.0470
 5155SOL    HW123747   3.462   3.168   0.749  0.7088  0.7750 -0.2501
 5155SOL    HW223748   3.460   3.268   0.878  0.1464 -0.6279  0.8330
 5156SOL     OW23749   2.473   0.578   3.148 -0.4463  0.1327 -0.2687
 5156SOL    HW123750   2.384   0.572   3.102 -0.9845 -0.3633  0.8048
 5156SOL    HW223751   2.540   0.620   3.087 -1.1365 -0.5341 -1.4916
 5157SOL     OW23752   4.511   3.161   0.341  0.0037  0.1516  0.2749
 5157SOL    HW123753   4.533   3.107   0.260  0.3405  1.4989 -0.5525
 5157SOL    HW223754   4.413   3.154   0.360 -0.1061 -0.0416 -0.3481
 5158SOL     OW23755   3.920   1.238   2.523  0.1442  0.8561 -0.1789
 5158SOL    HW123756   3.851   1.193   2.580  0.6218  1.4507  0.8867
 5158SOL    HW223757   3.986   1.169   2.491 -0.3330  0.4605 -0.3223
 5159SOL     OW23758   7.434   1.324   6.091 -0.4770 -0.2444 -0.8403
 5159SOL    HW123759   7.367   1.251   6.079  1.2853 -1.8211 -1.3860
 5159SOL    HW223760   7.434   1.383   6.010  0.5953 -1.7976 -2.0156
 5160SOL     OW23761   7.060   8.361   6.002 -0.2307  0.2547 -0.7545
 5160SOL    HW123762   7.138   8.369   6.064 -0.0998  0.8817 -1.0019
 5160SOL    HW223763   7.071   8.425   5.926 -1.8874  1.6972  0.1748
 5161SOL     OW23764   1.676   9.965   2.635 -0.0932  0.2582  0.1507
 5161SOL    HW123765   1.640  10.051   2.673 -0.9553  0.0034 -0.0970
 5161SOL    HW223766   1.776   9.970   2.634 -0.1039  0.8592  1.0826
 5162SOL     OW23767   7.921   3.449   6.341 -0.4668  0.4307 -0.6038
 5162SOL    HW123768   7.857   3.424   6.413 -1.5131 -0.9507 -1.9621
 5162SOL    HW223769   8.015   3.438   6.373 -0.8971 -3.0584 -0.3848
 5163SOL     OW23770   0.285   2.809   4.135  0.5130  0.0761  0.0750
 5163SOL    HW123771   0.254   2.716   4.152  0.9510  0.3039  2.2979
 5163SOL    HW223772   0.206   2.871   4.134  0.2488 -0.2724 -1.1391
 5165SOL     OW23773   5.823   9.049   2.654  0.2063  0.2654  0.2222
 5165SOL    HW123774   5.840   8.962   2.699  1.2751  0.7495  0.7686
 5165SOL    HW223775   5.889   9.117   2.686  0.6987  0.7411 -1.7257
 5166SOL     OW23776   9.518   7.790   5.109 -0.4730 -0.5018  0.4595
 5166SOL    HW123777   9.445   7.782   5.177 -1.7256  2.0534 -0.4958
 5166SOL    HW223778   9.583   7.860   5.140 -0.9665  0.5586 -0.8729
 5167SOL     OW23779   8.719   6.807   5.560  0.5025  0.1438 -0.3040
 5167SOL    HW123780   8.729   6.763   5.649 -0.0146  1.2744  0.3244
 5167SOL    HW223781   8.634   6.860   5.558  1.0778  1.0549 -1.0638
 5171SOL     OW23782   7.551   5.658   6.108  0.3633 -0.2289  0.2004
 5171SOL    HW123783   7.649   5.663   6.086  0.6344  1.0875  1.5384
 5171SOL    HW223784   7.518   5.565   6.095  1.8323 -0.7132 -0.1555
 5172SOL     OW23785   6.147   8.164   4.613  0.1762  0.0592  0.3680
 5172SOL    HW123786   6.155   8.249   4.665 -1.4785 -0.6482  1.8042
 5172SOL    HW223787   6.227   8.106   4.632  0.5821  0.6651  0.5249
 5173SOL     OW23788   0.625   2.411   5.542 -0.4079  0.0346  0.2301
 5173SOL    HW123789   0.636   2.317   5.513  0.0182  0.5320 -1.2644
 5173SOL    HW223790   0.676   2.472   5.481 -0.4860  1.2202  1.2992
 5175SOL     OW23791   7.058   8.310   3.508  0.3170 -0.0316 -0.0828
 5175SOL    HW123792   6.971   8.279   3.545 -0.5036  0.0381 -1.9252
 5175SOL    HW223793   7.091   8.245   3.439  2.3255 -0.6806  1.4275
 5176SOL     OW23794   0.635   5.439   3.218 -0.2889  0.6742 -0.2828
 5176SOL    HW123795   0.721   5.390   3.211 -0.7677  0.0316 -1.8438
 5176SOL    HW223796   0.601   5.461   3.127 -0.9043  2.4826  0.3593
 5178SOL     OW23797   1.302   9.536   2.826 -0.6292 -0.2750 -0.3977
 5178SOL    HW123798   1.352   9.494   2.750 -0.3046 -0.4658 -0.0802
 5178SOL    HW223799   1.255   9.465   2.878 -0.1375 -0.2465  0.0973
 5179SOL     OW23800   1.877   7.924   0.564  0.2785 -0.1544  0.1492
 5179SOL    HW123801   1.884   7.902   0.467  0.8233 -1.4818  0.4914
 5179SOL    HW223802   1.963   7.902   0.610 -1.7764 -4.9272  2.0081
 5181SOL     OW23803   2.663   7.311   4.822  0.5610 -0.2099 -0.1540
 5181SOL    HW123804   2.712   7.271   4.900  1.9819 -0.6666 -1.2700
 5181SOL    HW223805   2.719   7.305   4.740 -1.6643 -1.3443 -1.6314
 5183SOL     OW23806   3.761   4.601   2.284 -0.5387 -0.9283  0.2222
 5183SOL    HW123807   3.840   4.612   2.344 -1.3517  0.8234  1.0282
 5183SOL    HW223808   3.787   4.550   2.202  1.0644 -1.5975  1.1289
 5184SOL     OW23809   7.007   0.956   4.679  0.1679  0.1909 -0.2237
 5184SOL    HW123810   6.925   0.924   4.725  0.5322 -1.0381 -0.4011
 5184SOL    HW223811   7.072   0.990   4.746 -0.6173  1.5026 -0.1098
 5185SOL     OW23812   6.597   8.669   5.585  0.4424 -0.4153 -0.0280
 5185SOL    HW123813   6.616   8.740   5.518  1.4124 -2.3457 -1.8685
 5185SOL    HW223814   6.534   8.602   5.546 -0.3535 -0.6703  1.6245
 5187SOL     OW23815   0.660   6.125   2.201 -0.4845 -0.5407  0.2881
 5187SOL    HW123816   0.641   6.103   2.297  0.1301 -0.2529  0.4791
 5187SOL    HW223817   0.754   6.155   2.192 -0.3200 -1.2811 -0.5391
 5190SOL     OW23818   9.284   2.537   3.910 -0.0147 -0.8265 -0.1882
 5190SOL    HW123819   9.252   2.572   3.998  0.8160  1.4542 -0.7457
 5190SOL    HW223820   9.206   2.522   3.849 -0.5294 -1.6798  0.6828
 5191SOL     OW23821   4.454   4.533   0.068  0.3211  0.6717 -0.0774
 5191SOL    HW123822   4.427   4.628   0.050 -0.8900  0.0613 -1.6142
 5191SOL    HW223823   4.503   4.497  -0.011 -1.4653 -0.7739 -0.5659
 5192SOL     OW23824   8.222   1.874   1.666 -0.0302  0.1323  0.0977
 5192SOL    HW123825   8.213   1.907   1.760  1.4330  0.5951  0.0887
 5192SOL    HW223826   8.319   1.862   1.644 -0.3848 -0.5055 -1.1720
 5194SOL     OW23827   6.204   2.066   3.644 -0.4904  0.4491  0.3198
 5194SOL    HW123828   6.249   2.092   3.729  0.2645 -1.0939  0.4067
 5194SOL    HW223829   6.110   2.037   3.663 -0.9297  1.8464  0.3749
 5195SOL     OW23830   1.183   1.338   5.203 -0.7758  0.1720  0.0939
 5195SOL    HW123831   1.108   1.383   5.251 -1.2354  0.6801 -1.0887
 5195SOL    HW223832   1.146   1.266   5.144 -0.3987  0.8377 -0.9637
 5196SOL     OW23833   9.333   1.417   0.726 -0.0736  0.2634  0.0919
 5196SOL    HW123834   9.404   1.443   0.661 -0.6661 -0.5465 -0.8790
 5196SOL    HW223835   9.371   1.353   0.793 -0.2104 -1.1414 -1.1667
 5197SOL     OW23836   4.030   5.169   3.950  0.1343 -0.3318 -0.6245
 5197SOL    HW123837   3.992   5.147   4.040 -1.0313 -0.5330 -1.1658
 5197SOL    HW223838   3.957   5.200   3.889  1.1039  0.9180 -1.1550
 5198SOL     OW23839   3.423   5.205   4.470  0.2541  0.6708  0.6608
 5198SOL    HW123840   3.420   5.227   4.568 -1.0835  0.3841  0.6898
 5198SOL    HW223841   3.445   5.287   4.418  0.1945  0.9916  1.1422
 5200SOL     OW23842   7.634   1.511   5.522 -0.3187 -0.0205 -0.2557
 5200SOL    HW123843   7.559   1.522   5.458 -0.1019  0.1057 -0.4884
 5200SOL    HW223844   7.619   1.428   5.576 -0.9375  0.3365  0.1277
 5201SOL     OW23845   8.110   9.488   6.284  0.2658 -0.0100 -0.4134
 5201SOL    HW123846   8.034   9.429   6.255  1.6599 -1.8707 -0.3473
 5201SOL    HW223847   8.188   9.473   6.223  1.7199 -0.6256  1.5680
 5202SOL     OW23848   4.697   5.589   3.748 -0.6577 -0.1635  0.3528
 5202SOL    HW123849   4.675   5.659   3.681 -0.9017  0.2351  0.8458
 5202SOL    HW223850   4.672   5.621   3.839 -0.0632 -0.5874  0.6688
 5203SOL     OW23851   3.071   4.622   0.083  0.9111  0.7285  0.1561
 5203SOL    HW123852   2.978   4.638   0.116  0.5710 -1.4761  0.3239
 5203SOL    HW223853   3.117   4.557   0.143  2.1662  0.9216 -0.5901
 5204SOL     OW23854   9.371   3.505   2.416 -0.1567 -0.2687 -1.1500
 5204SOL    HW123855   9.392   3.579   2.352 -0.0322 -0.6006 -1.4951
 5204SOL    HW223856   9.278   3.473   2.401  0.0825 -0.7639 -1.5841
 5205SOL     OW23857   6.316   7.954   6.234  0.0243 -0.5143 -0.3702
 5205SOL    HW123858   6.288   8.042   6.198 -0.3306 -0.6947 -0.5369
 5205SOL    HW223859   6.399   7.965   6.289 -1.5230  0.3532  1.8270
 5206SOL     OW23860   6.500   1.384   3.916 -0.1145 -0.3754  0.1541
 5206SOL    HW123861   6.401   1.396   3.910  0.0625  2.1070  1.5591
 5206SOL    HW223862   6.546   1.451   3.858  0.7808 -0.0345  1.2408
 5207SOL     OW23863   5.553   5.514   1.949  0.4748  0.3210  0.4577
 5207SOL    HW123864   5.552   5.583   1.876  2.8566  2.3085  2.1996
 5207SOL    HW223865   5.631   5.453   1.936 -0.7759 -1.1596 -0.2472
 5208SOL     OW23866   4.846   3.580   1.538 -0.5854 -0.1033  0.0592
 5208SOL    HW123867   4.798   3.570   1.624 -0.9564  3.1294  0.2744
 5208SOL    HW223868   4.780   3.583   1.463 -0.5706  1.6552  0.1058
 5209SOL     OW23869   1.658   5.967   1.875  0.4787 -0.5220 -0.1003
 5209SOL    HW123870   1.689   6.059   1.901  2.2488 -1.2702  0.5222
 5209SOL    HW223871   1.676   5.952   1.778 -0.1241 -0.0858 -0.2800
 5210SOL     OW23872   1.880   9.481   5.161  0.7763  0.1964  0.5140
 5210SOL    HW123873   1.883   9.533   5.247 -0.6258 -1.1011  1.3622
 5210SOL    HW223874   1.911   9.388   5.178 -0.6264 -0.3996 -0.1366
 5212SOL     OW23875   1.558   3.300   2.718 -0.3513  0.1703  0.3314
 5212SOL    HW123876   1.622   3.322   2.792 -1.1172  1.0145  0.7549
 5212SOL    HW223877   1.469   3.274   2.757 -0.4751 -0.3201 -0.2663
 5213SOL     OW23878   9.401   3.106   1.411 -0.3516  0.4706 -0.1755
 5213SOL    HW123879   9.472   3.045   1.445  1.0524  1.9502 -0.4102
 5213SOL    HW223880   9.312   3.060   1.416  0.5730 -1.2831  0.3918
 5214SOL     OW23881   3.098   7.119   4.721  0.1166  0.3060  0.0426
 5214SOL    HW123882   3.160   7.166   4.784 -0.0924  0.5318  0.0834
 5214SOL    HW223883   3.121   7.022   4.718  0.6053  0.4266 -0.1083
 5215SOL     OW23884   5.343   8.009   6.055  0.0031 -0.3434  0.1531
 5215SOL    HW123885   5.286   8.001   6.137 -0.0602 -1.2024  0.0332
 5215SOL    HW223886   5.338   7.924   6.002 -1.2733  0.8069 -1.6153
 5219SOL     OW23887   0.765   0.402   0.172  0.0896 -0.4351 -0.7589
 5219SOL    HW123888   0.673   0.421   0.138 -0.3455  0.3735  0.8149
 5219SOL    HW223889   0.785   0.462   0.249  1.1928 -1.9531  0.1701
 5220SOL     OW23890   0.210   6.849   2.883  0.0951 -0.0590 -0.5018
 5220SOL    HW123891   0.294   6.833   2.830  0.8591 -1.2524  1.0273
 5220SOL    HW223892   0.132   6.811   2.834  0.6859 -0.4485 -1.1477
 5221SOL     OW23893   1.225   2.274   1.668  0.3326 -0.0326 -0.3219
 5221SOL    HW123894   1.305   2.303   1.617  0.3357  0.4462 -0.0487
 5221SOL    HW223895   1.240   2.290   1.765  0.3919 -1.0915 -0.1525
 5223SOL     OW23896   4.813   8.660   4.488 -0.2473  0.0697  0.5832
 5223SOL    HW123897   4.751   8.739   4.493 -1.2022 -0.7147  1.3851
 5223SOL    HW223898   4.869   8.656   4.570 -0.7926 -0.5563  0.9329
 5224SOL     OW23899   3.317   2.490   1.732  0.2458  0.0171 -0.3573
 5224SOL    HW123900   3.314   2.391   1.723 -0.8006  0.0734 -0.6557
 5224SOL    HW223901   3.405   2.525   1.699  0.9903 -0.8986  0.6351
 5226SOL     OW23902   5.966   7.997   4.497  0.8572  0.1748  0.4709
 5226SOL    HW123903   6.051   8.048   4.505 -0.0208  1.7533 -0.1059
 5226SOL    HW223904   5.888   8.060   4.500 -0.2684 -1.1720  0.2737
 5227SOL     OW23905   2.549   3.377   0.762 -0.4604 -0.2666 -0.2075
 5227SOL    HW123906   2.610   3.358   0.839 -1.7523  1.1513  1.2093
 5227SOL    HW223907   2.537   3.295   0.707  1.8203 -0.8648  0.1271
 5228SOL     OW23908   9.807   3.923   5.533  0.1074 -0.2029 -0.0196
 5228SOL    HW123909   9.878   3.869   5.578 -0.0740  1.5650  2.5075
 5228SOL    HW223910   9.846   4.009   5.501 -0.0847 -0.8510 -2.0342
 5229SOL     OW23911   4.388   7.969   4.996 -0.2851 -0.5604  0.2168
 5229SOL    HW123912   4.459   7.997   4.931  0.1541 -1.5043  0.2715
 5229SOL    HW223913   4.417   7.885   5.042  0.2670  1.1075  3.0266
 5230SOL     OW23914   1.019   2.695   2.374  0.8223 -0.1575  0.1098
 5230SOL    HW123915   1.023   2.597   2.353 -0.4355 -0.4364  1.1235
 5230SOL    HW223916   0.930   2.731   2.347  0.5256  0.2575  1.5963
 5232SOL     OW23917   3.478   0.642   6.083 -0.2354  0.1630  0.0031
 5232SOL    HW123918   3.427   0.727   6.083 -0.6628 -0.0816  1.6285
 5232SOL    HW223919   3.429   0.573   6.029 -0.0272  0.8516 -1.0725
 5233SOL     OW23920   9.478   6.496   0.323 -0.0168  0.2400  0.1920
 5233SOL    HW123921   9.540   6.574   0.311  0.5461 -0.2807 -0.3302
 5233SOL    HW223922   9.494   6.429   0.250 -0.6967 -0.2299  0.4696
 5234SOL     OW23923   0.818   9.119   3.193 -0.1110 -0.0445 -0.2697
 5234SOL    HW123924   0.885   9.048   3.215  1.3641  0.6464 -2.4503
 5234SOL    HW223925   0.847   9.206   3.232 -0.7870 -0.1413  0.4833
 5235SOL     OW23926   7.259   0.153   0.565 -0.3759 -0.0206 -0.7207
 5235SOL    HW123927   7.202   0.099   0.627  0.2295 -1.0840 -1.0763
 5235SOL    HW223928   7.215   0.157   0.475 -0.6886  0.5586 -0.5495
 5236SOL     OW23929   7.509   8.130   2.385  0.4084 -0.0121  0.3860
 5236SOL    HW123930   7.419   8.157   2.421  1.1897  2.6316  0.4983
 5236SOL    HW223931   7.570   8.110   2.462  1.0306  2.0861  0.4697
 5237SOL     OW23932   2.266   6.437   1.539  0.1116 -0.1105 -0.1731
 5237SOL    HW123933   2.335   6.366   1.554  0.6841  0.7351  1.2168
 5237SOL    HW223934   2.300   6.524   1.573 -1.5362  0.3750  0.2482
 5238SOL     OW23935   9.789   6.130   3.335  0.0691  0.1516 -0.0193
 5238SOL    HW123936   9.854   6.203   3.355  0.9749 -0.3123 -1.2229
 5238SOL    HW223937   9.814   6.086   3.249 -0.8660 -1.1308  0.3542
 5239SOL     OW23938   2.653   6.793   5.215 -0.1346  0.0813 -0.6261
 5239SOL    HW123939   2.592   6.714   5.222  1.2699 -1.0045 -0.4423
 5239SOL    HW223940   2.608   6.865   5.163 -0.7271 -1.5487 -2.4323
 5240SOL     OW23941   7.177   8.367   4.150  0.2093 -0.0953  0.2495
 5240SOL    HW123942   7.247   8.330   4.089  0.5034  0.5695  0.1815
 5240SOL    HW223943   7.121   8.292   4.185  0.8509 -0.6163  0.1781
 5242SOL     OW23944   6.593   2.785   0.748  0.6284  0.2372  0.3995
 5242SOL    HW123945   6.497   2.797   0.720  0.2690 -0.9799  1.0928
 5242SOL    HW223946   6.604   2.816   0.842  1.1907  1.4842 -0.0594
 5244SOL     OW23947   7.992   2.163   6.098 -0.4596  0.1206  0.5402
 5244SOL    HW123948   8.048   2.172   6.016 -2.8874 -0.4895 -1.2377
 5244SOL    HW223949   7.990   2.068   6.127 -0.1419  0.2288  0.9204
 5245SOL     OW23950   9.767   9.480   1.287 -0.3293 -0.2969  0.2952
 5245SOL    HW123951   9.811   9.421   1.219  1.4899  0.0109  1.1565
 5245SOL    HW223952   9.745   9.426   1.368 -3.1520 -0.8231 -0.7550
 5246SOL     OW23953   9.635   6.067   1.623 -0.5056  0.0967 -0.3099
 5246SOL    HW123954   9.715   6.116   1.588  1.4912 -1.8640  1.3589
 5246SOL    HW223955   9.634   5.974   1.585 -1.2787 -0.3067  0.6736
 5248SOL     OW23956   4.756   0.268   1.912 -0.3198  0.0976  0.7768
 5248SOL    HW123957   4.773   0.349   1.855 -1.2449 -0.4745 -0.3382
 5248SOL    HW223958   4.676   0.219   1.877  0.0706 -1.1499  1.6048
 5251SOL     OW23959   4.861   3.357   0.468 -0.4214  0.2473 -0.2279
 5251SOL    HW123960   4.932   3.427   0.457  0.0669 -0.2268 -0.1039
 5251SOL    HW223961   4.814   3.372   0.555  0.0523  0.0946  0.0581
 5252SOL     OW23962   4.939   7.581   4.451  0.5061 -0.4935 -0.0761
 5252SOL    HW123963   4.861   7.520   4.434 -0.8973  1.4614 -0.7960
 5252SOL    HW223964   4.977   7.561   4.542 -1.1567 -1.1411  0.4986
 5254SOL     OW23965   2.755   2.756   4.800 -0.3301  0.9860  0.1734
 5254SOL    HW123966   2.819   2.793   4.733 -0.7592  0.5303 -0.4944
 5254SOL    HW223967   2.699   2.830   4.837 -0.0877  1.2386  0.0391
 5256SOL     OW23968   7.834   8.026   5.895  0.2935  0.3590  0.0986
 5256SOL    HW123969   7.789   7.948   5.939  1.1693 -0.6405 -0.7580
 5256SOL    HW223970   7.787   8.047   5.810  1.7404 -1.0195 -1.0576
 5257SOL     OW23971   4.107   2.543   5.046  0.2396 -0.6676 -0.2977
 5257SOL    HW123972   4.107   2.592   5.133 -2.6683 -0.7470 -0.2005
 5257SOL    HW223973   4.040   2.469   5.049  0.2794 -0.8436 -2.5169
 5258SOL     OW23974   8.601   2.340   2.055  0.1874  0.2653 -0.3688
 5258SOL    HW123975   8.657   2.418   2.082 -1.4396  0.6679  2.0227
 5258SOL    HW223976   8.576   2.287   2.136 -2.8399  0.0885 -1.3432
 5260SOL     OW23977   1.736   0.382   4.808  0.0083 -0.1972 -0.1943
 5260SOL    HW123978   1.717   0.287   4.784  1.2793 -0.5179  0.0191
 5260SOL    HW223979   1.827   0.388   4.850 -0.9416  0.7985  1.7812
 5261SOL     OW23980   0.536   4.854   0.450  0.0601  0.9719 -0.0431
 5261SOL    HW123981   0.632   4.874   0.469  0.0743  1.1742 -0.3149
 5261SOL    HW223982   0.513   4.763   0.483 -0.1228  1.6132  1.6453
 5262SOL     OW23983   9.185   2.598   0.385 -0.0469 -0.0987 -0.4053
 5262SOL    HW123984   9.280   2.571   0.403 -0.4846 -1.1076  0.4368
 5262SOL    HW223985   9.168   2.597   0.287  0.5020 -1.0334 -0.4979
 5264SOL     OW23986   2.494   8.036   3.098  0.3597  0.5872  0.3399
 5264SOL    HW123987   2.567   8.088   3.144  0.3601  0.1171  0.8689
 5264SOL    HW223988   2.418   8.022   3.161  0.9808 -1.3505  0.6791
 5265SOL     OW23989   9.066   8.928   5.455 -0.2040  0.4077 -0.0364
 5265SOL    HW123990   9.014   8.874   5.522 -0.0542  1.0186  0.5765
 5265SOL    HW223991   9.104   9.009   5.499  1.3237 -0.0534 -0.4765
 5266SOL     OW23992   7.112   2.004   4.509  0.3716 -0.0336  0.6891
 5266SOL    HW123993   7.111   2.104   4.512 -0.1257 -0.0628  1.6728
 5266SOL    HW223994   7.207   1.971   4.515  0.5004  0.3646  0.8062
 5267SOL     OW23995   5.658   4.640   1.137  0.1648 -0.1794  0.1995
 5267SOL    HW123996   5.667   4.672   1.231  0.1849 -0.1643  0.1926
 5267SOL    HW223997   5.674   4.716   1.074  0.4931 -0.2640  0.1788
 5270SOL     OW23998   5.745   1.127   1.622  0.0860 -0.3656  0.2647
 5270SOL    HW123999   5.827   1.075   1.598 -0.2628  0.3255 -2.4745
 5270SOL    HW224000   5.771   1.221   1.645  0.3433 -0.8673  2.1730
 5271SOL     OW24001   6.200   8.449   3.609 -0.2152  0.1311 -0.2837
 5271SOL    HW124002   6.174   8.403   3.694 -0.2595  1.2761  0.3372
 5271SOL    HW224003   6.292   8.420   3.582  0.5140  1.0940  1.1195
 5272SOL     OW24004   1.439   6.041   4.042  0.0569 -0.3943 -0.6437
 5272SOL    HW124005   1.521   6.098   4.042  0.5760 -1.1105  0.2147
 5272SOL    HW224006   1.402   6.037   4.135  0.2013 -1.6855 -0.6317
 5273SOL     OW24007   4.607   6.233   2.084  0.4052 -0.1102 -0.1047
 5273SOL    HW124008   4.680   6.277   2.136 -1.2614  0.5185  1.7615
 5273SOL    HW224009   4.573   6.154   2.134  1.4682 -1.9274 -2.1386
 5274SOL     OW24010   6.952   0.605   5.682  0.1703 -0.0444  0.2780
 5274SOL    HW124011   6.900   0.674   5.733  1.0801 -0.9272  2.4718
 5274SOL    HW224012   6.913   0.515   5.698  0.7434 -0.3903 -0.2413
 5275SOL     OW24013   7.785   8.969   2.610 -0.1959 -0.3812 -0.3268
 5275SOL    HW124014   7.800   9.046   2.549  1.5026 -0.5874 -0.1956
 5275SOL    HW224015   7.781   9.001   2.704  0.8636 -0.4729 -0.2404
 5276SOL     OW24016   6.590   9.349   2.154  0.1300 -0.1224  0.0695
 5276SOL    HW124017   6.682   9.357   2.115  0.2844  0.5970  0.5692
 5276SOL    HW224018   6.532   9.422   2.119 -0.4858 -1.0498 -0.8627
 5279SOL     OW24019   5.545   1.688   3.733  0.5953 -0.4032 -0.0996
 5279SOL    HW124020   5.628   1.736   3.705  0.0283  0.3536 -0.5128
 5279SOL    HW224021   5.498   1.742   3.803  0.8526 -1.2073  0.7042
 5281SOL     OW24022   9.307   6.761   3.268 -0.1815 -0.1971  0.3950
 5281SOL    HW124023   9.393   6.775   3.318  0.8113  2.0669 -1.8143
 5281SOL    HW224024   9.327   6.748   3.171 -2.3514  0.2800 -0.1386
 5283SOL     OW24025   5.879   9.731   1.938 -0.3494  0.0117 -0.0919
 5283SOL    HW124026   5.826   9.700   2.017 -0.8999 -1.3105 -0.9530
 5283SOL    HW224027   5.825   9.718   1.854  1.5201 -1.8641 -1.0551
 5284SOL     OW24028   2.959   3.860   3.377 -0.2747  0.0642 -0.3414
 5284SOL    HW124029   2.965   3.779   3.320  0.7341 -0.1664  0.0729
 5284SOL    HW224030   3.026   3.854   3.451  0.4745  1.7018 -0.8616
 5285SOL     OW24031   7.832   5.198   2.131  0.1646  0.5240 -0.0276
 5285SOL    HW124032   7.761   5.199   2.061  0.6451  2.0436 -0.5172
 5285SOL    HW224033   7.911   5.148   2.098 -0.2063 -0.1190  0.0469
 5286SOL     OW24034   1.896   8.832   2.034  0.4495  0.4490 -0.2819
 5286SOL    HW124035   1.959   8.794   2.101  0.6474 -0.2779 -0.8659
 5286SOL    HW224036   1.814   8.867   2.080 -0.2384 -1.7106  0.1734
 5287SOL     OW24037   7.539   8.761   5.816 -0.0917  0.1091 -0.4078
 5287SOL    HW124038   7.479   8.717   5.748 -0.7612  1.2013 -0.5384
 5287SOL    HW224039   7.494   8.843   5.852  1.4811  1.1833 -0.7989
 5288SOL     OW24040   3.350   8.250   1.369  0.0315  0.1906  0.2897
 5288SOL    HW124041   3.445   8.282   1.373  0.4359 -1.0756  0.9275
 5288SOL    HW224042   3.290   8.329   1.354  1.1074  1.1058  0.6665
 5289SOL     OW24043   5.178   1.148   5.613  0.2255 -0.2833 -0.4522
 5289SOL    HW124044   5.162   1.125   5.709  1.9544  1.6386  0.3151
 5289SOL    HW224045   5.141   1.075   5.555 -0.4189 -1.6833  1.6700
 5291SOL     OW24046   1.994   1.351   4.912  0.5170  0.1431 -0.1261
 5291SOL    HW124047   2.015   1.336   4.816  0.9019 -0.9565  0.1241
 5291SOL    HW224048   1.931   1.428   4.921 -0.0637 -0.1827 -1.3105
 5292SOL     OW24049   8.348   7.278   0.495 -0.2437 -0.0614 -0.1729
 5292SOL    HW124050   8.445   7.261   0.476 -0.5862 -2.7151  0.2735
 5292SOL    HW224051   8.309   7.332   0.420  2.1313  3.2464  0.8824
 5293SOL     OW24052   8.166   1.680   0.768 -0.0386 -0.3451 -0.4029
 5293SOL    HW124053   8.199   1.680   0.863  0.0308  1.2461 -0.4058
 5293SOL    HW224054   8.070   1.709   0.767 -0.0820 -0.5129 -0.8042
 5294SOL     OW24055   2.148   4.991   5.280  0.3999  0.2105  0.7470
 5294SOL    HW124056   2.186   4.928   5.212 -1.0917  1.1248 -0.9614
 5294SOL    HW224057   2.167   4.956   5.372  1.2536 -1.7421 -0.1474
 5296SOL     OW24058   1.557   0.264   1.682  0.2363 -0.2261 -0.2963
 5296SOL    HW124059   1.498   0.343   1.699 -0.3631 -1.0116  1.4962
 5296SOL    HW224060   1.634   0.290   1.624 -0.7033  1.3313 -0.8650
 5297SOL     OW24061   3.063   1.674   5.930  0.1283  0.4230 -0.0475
 5297SOL    HW124062   2.964   1.656   5.926  0.4397 -1.5073  0.3276
 5297SOL    HW224063   3.102   1.663   5.839  0.3072 -0.8338  0.1692
 5298SOL     OW24064   5.062   4.974   1.519  0.2037  0.1751  0.2906
 5298SOL    HW124065   5.053   5.071   1.545  0.6169  0.2682  0.0786
 5298SOL    HW224066   4.992   4.951   1.451  1.7638  1.0009 -1.6357
 5299SOL     OW24067   2.113   5.950   1.905 -0.0500 -0.1479 -0.1580
 5299SOL    HW124068   2.180   5.876   1.914 -1.0215 -1.0506 -0.2696
 5299SOL    HW224069   2.145   6.016   1.838  0.6056 -0.7232 -0.4199
 5300SOL     OW24070   1.325   7.742   5.658  0.2933  0.0095 -0.2145
 5300SOL    HW124071   1.274   7.659   5.683  1.5823 -1.0054 -0.8380
 5300SOL    HW224072   1.317   7.809   5.731 -0.5880 -0.7602  0.4153
 5301SOL     OW24073   9.411   8.989   5.486  0.3204 -0.3070 -0.2816
 5301SOL    HW124074   9.363   9.019   5.403  0.5042  0.0680 -0.2559
 5301SOL    HW224075   9.373   8.902   5.518 -1.6397  0.9428  0.8399
 5303SOL     OW24076   1.430   9.251   4.374 -0.0027  0.4033 -0.1560
 5303SOL    HW124077   1.444   9.281   4.468  3.2090 -0.5790 -0.2679
 5303SOL    HW224078   1.403   9.155   4.373 -1.9272  0.9214 -0.1845
 5304SOL     OW24079   5.927   3.058   1.024 -0.1559 -0.3624  0.2035
 5304SOL    HW124080   5.898   3.144   0.981  0.0383 -1.4521 -2.2145
 5304SOL    HW224081   6.027   3.057   1.031 -0.2295  0.1435  1.4390
 5305SOL     OW24082   8.275   9.805   2.374  0.2542  0.4855 -0.1975
 5305SOL    HW124083   8.215   9.882   2.353 -1.9703 -0.4118  2.5510
 5305SOL    HW224084   8.368   9.826   2.344 -0.4559  3.9051 -0.1901
 5306SOL     OW24085   7.454   7.378   4.726 -0.3995 -0.0060 -0.0995
 5306SOL    HW124086   7.433   7.283   4.699 -0.5263  0.0177 -0.0828
 5306SOL    HW224087   7.485   7.429   4.645 -1.3937  0.2378 -0.3352
 5307SOL     OW24088   4.329   8.576   2.233  0.0107 -0.1416 -0.0570
 5307SOL    HW124089   4.388   8.571   2.153 -0.4779  0.2202 -0.4447
 5307SOL    HW224090   4.367   8.520   2.306  0.3238 -0.6818 -0.6313
 5308SOL     OW24091   1.502   5.347   5.103 -0.1766 -0.5608  0.0846
 5308SOL    HW124092   1.516   5.399   5.019 -1.0933 -0.1620  0.1709
 5308SOL    HW224093   1.545   5.396   5.180  1.0623 -1.1586 -0.2163
 5312SOL     OW24094   0.661   8.857   6.104 -0.5090  0.1560  0.4714
 5312SOL    HW124095   0.689   8.898   6.190  0.8734 -0.6849  0.4250
 5312SOL    HW224096   0.562   8.844   6.104 -0.4302 -0.5174  2.2243
 5314SOL     OW24097   3.281   5.526   3.812  0.1395  0.3405  0.2776
 5314SOL    HW124098   3.232   5.536   3.725  0.1002 -0.8496  0.1432
 5314SOL    HW224099   3.226   5.470   3.874  0.2577  1.0243  0.9980
 5315SOL     OW24100   9.550   7.143   2.381 -0.1084  0.2172  0.7990
 5315SOL    HW124101   9.570   7.188   2.468  0.8904 -0.5566  0.9860
 5315SOL    HW224102   9.472   7.081   2.393  0.5474 -0.5004  1.3461
 5316SOL     OW24103   7.356   2.486   4.982  0.0677  0.1146 -0.4407
 5316SOL    HW124104   7.359   2.449   5.075 -0.9363  0.3494 -0.3056
 5316SOL    HW224105   7.413   2.568   4.976  1.3806 -0.8012 -0.4400
 5317SOL     OW24106   3.267   1.990   2.279 -1.0309 -0.7985  0.0056
 5317SOL    HW124107   3.283   2.038   2.193  1.9313 -1.0169  0.3810
 5317SOL    HW224108   3.302   1.897   2.273 -1.1893 -0.9587  1.3092
 5318SOL     OW24109   0.946   4.624   6.064  0.0112  0.2483 -0.1049
 5318SOL    HW124110   0.966   4.563   5.987 -0.2691  0.3377 -0.2509
 5318SOL    HW224111   0.847   4.623   6.081  0.2964 -1.3822  1.5754
 5319SOL     OW24112   4.151   9.014   2.163 -0.5425  0.7751  0.4557
 5319SOL    HW124113   4.097   9.001   2.080 -1.6929 -0.2900  1.3665
 5319SOL    HW224114   4.246   8.985   2.145 -0.7822  0.5355 -0.4690
 5320SOL     OW24115   0.409   4.138   0.502  0.0085  0.0472  0.6184
 5320SOL    HW124116   0.401   4.043   0.473  1.5776  0.1387 -0.1857
 5320SOL    HW224117   0.473   4.143   0.579 -0.0825  0.4592  0.6670
 5321SOL     OW24118   0.126   4.982   5.565  0.4695 -0.0666 -0.4768
 5321SOL    HW124119   0.077   4.990   5.651  0.0751  1.1989 -0.8084
 5321SOL    HW224120   0.216   4.943   5.581 -0.6056 -2.3358  0.1527
 5322SOL     OW24121   0.696   2.368   2.275 -0.1246 -0.9466 -0.2187
 5322SOL    HW124122   0.654   2.304   2.340 -0.3476  0.3918  0.9845
 5322SOL    HW224123   0.725   2.318   2.193 -1.1185 -2.4297  0.3067
 5323SOL     OW24124   4.337   4.161   0.315 -0.1255 -0.2106 -0.1190
 5323SOL    HW124125   4.343   4.065   0.288  0.3151 -0.3185  0.3633
 5323SOL    HW224126   4.259   4.173   0.377 -0.4568 -0.1721 -0.5439
 5324SOL     OW24127   8.658   9.488   1.693 -0.9204  0.6182 -0.2502
 5324SOL    HW124128   8.754   9.516   1.689 -0.3154 -1.1631  0.9823
 5324SOL    HW224129   8.630   9.451   1.605  0.1373 -0.7061 -0.0518
 5325SOL     OW24130   9.605   4.818   4.461  0.1293  0.3309  0.1660
 5325SOL    HW124131   9.531   4.755   4.486 -0.6843  0.5477 -1.6434
 5325SOL    HW224132   9.601   4.898   4.520 -1.4224  0.5890 -0.2592
 5326SOL     OW24133   9.757   9.231   5.732  0.2980 -0.3227 -0.6685
 5326SOL    HW124134   9.686   9.241   5.662 -2.1233  0.9778  1.8684
 5326SOL    HW224135   9.732   9.155   5.793  1.4430 -0.2665 -0.1232
 5327SOL     OW24136   3.096   5.926   4.352 -0.0401  0.4944  0.2274
 5327SOL    HW124137   3.082   5.866   4.273 -1.2642  1.1645 -0.0802
 5327SOL    HW224138   3.031   5.902   4.424  0.3603  0.5888  0.6237
 5328SOL     OW24139   4.702   5.945   0.935 -0.7061  0.6177  0.0952
 5328SOL    HW124140   4.772   5.895   0.986 -1.5660 -0.9200 -0.2131
 5328SOL    HW224141   4.703   5.916   0.840 -0.0663  2.4569 -0.4835
 5329SOL     OW24142   1.176   4.428   0.790 -0.1662  0.0276 -0.2607
 5329SOL    HW124143   1.083   4.463   0.777  0.2320  1.9037  1.6591
 5329SOL    HW224144   1.172   4.343   0.842 -0.9262 -1.0150 -1.9891
 5330SOL     OW24145   9.612   3.495   1.473  0.2093 -0.1702  0.9432
 5330SOL    HW124146   9.667   3.574   1.499 -1.1438  0.8824  0.6788
 5330SOL    HW224147   9.556   3.465   1.550 -1.4348  0.9715  0.2412
 5331SOL     OW24148   0.569   9.887   5.672 -0.6819 -0.1220  0.4239
 5331SOL    HW124149   0.548   9.969   5.620  1.1574 -0.7747 -1.3866
 5331SOL    HW224150   0.485   9.836   5.689 -1.5850  1.1867 -0.0221
 5332SOL     OW24151   7.529   3.672   0.293 -0.2749  0.4616  0.3105
 5332SOL    HW124152   7.534   3.744   0.362  1.4623  0.7400 -0.0800
 5332SOL    HW224153   7.446   3.684   0.239 -0.8837  1.1279  1.3794
 5334SOL     OW24154   0.166   5.930   5.414  0.0108  0.1726 -0.3229
 5334SOL    HW124155   0.175   5.887   5.504  0.0255  0.4246 -0.2056
 5334SOL    HW224156   0.212   6.019   5.414 -0.7157  0.5569 -0.3229
 5335SOL     OW24157   5.336   0.705   3.606 -0.1724 -0.3610  0.0067
 5335SOL    HW124158   5.409   0.639   3.592  0.4400  0.5422 -1.1639
 5335SOL    HW224159   5.349   0.751   3.694  0.9061  0.0649 -0.3640
 5337SOL     OW24160   6.685   8.113   3.767  0.5770 -0.6465 -0.4703
 5337SOL    HW124161   6.667   8.195   3.821  1.2886 -0.2934 -0.7634
 5337SOL    HW224162   6.711   8.038   3.829  1.4372 -0.2287 -0.3181
 5338SOL     OW24163   2.292   9.909   4.638 -0.1853  0.7727  0.1857
 5338SOL    HW124164   2.344   9.852   4.574 -0.3435  2.2936 -1.3538
 5338SOL    HW224165   2.328  10.002   4.635 -0.4459  0.9518  2.0755
 5339SOL     OW24166   8.302   8.069   0.027 -0.3183  0.0001 -0.1103
 5339SOL    HW124167   8.319   8.016   0.111  1.1209 -0.1147 -0.4565
 5339SOL    HW224168   8.285   8.165   0.051  1.0775  0.1692  0.2751
 5340SOL     OW24169   8.516   8.456   4.147 -0.1861  0.2671  0.3997
 5340SOL    HW124170   8.519   8.409   4.059 -0.8756  1.6415 -0.3666
 5340SOL    HW224171   8.514   8.388   4.221 -0.8065 -0.8989 -0.6753
 5342SOL     OW24172   6.560   8.581   4.051  0.3820 -0.4704 -0.7972
 5342SOL    HW124173   6.624   8.629   4.111  0.1298  1.3242 -1.9518
 5342SOL    HW224174   6.473   8.569   4.099  0.1086  1.1503 -0.8496
 5343SOL     OW24175   9.898   3.263   0.794  0.3718  0.2571 -0.4642
 5343SOL    HW124176   9.931   3.290   0.704  0.8082  0.0303 -0.3752
 5343SOL    HW224177   9.803   3.292   0.805 -0.0184 -0.6370 -1.3931
 5346SOL     OW24178   8.522   6.696   2.226 -0.3016  0.0098 -0.0686
 5346SOL    HW124179   8.574   6.657   2.302 -0.0165  1.0200  0.2686
 5346SOL    HW224180   8.441   6.641   2.209 -0.3829 -0.2079  0.9976
 5348SOL     OW24181   9.305   1.662   1.253 -0.1583  0.1792  0.1162
 5348SOL    HW124182   9.336   1.627   1.165 -0.6396 -1.2936  0.5266
 5348SOL    HW224183   9.237   1.601   1.292 -0.5130  1.2159  1.1699
 5349SOL     OW24184   0.873   8.363   4.729  0.4889 -0.0395 -0.1526
 5349SOL    HW124185   0.781   8.390   4.757  0.5476  0.8933 -0.8390
 5349SOL    HW224186   0.879   8.263   4.723 -0.1887 -0.1460  0.8588
 5351SOL     OW24187   7.748   5.484   2.612  0.0354  0.2432 -0.0611
 5351SOL    HW124188   7.754   5.572   2.659 -0.1395 -0.5130  1.4141
 5351SOL    HW224189   7.679   5.489   2.539 -1.0772  0.8790  1.0176
 5352SOL     OW24190   0.337   7.561   6.054  0.4443 -0.3432  0.4529
 5352SOL    HW124191   0.388   7.602   6.130 -0.1295 -0.1561  0.7400
 5352SOL    HW224192   0.393   7.565   5.971  0.4038  1.0099  0.4770
 5353SOL     OW24193   8.265   4.725   6.160 -0.3025 -0.0665  0.3291
 5353SOL    HW124194   8.323   4.655   6.202  1.2740  1.0423  0.0307
 5353SOL    HW224195   8.277   4.723   6.061 -0.4332  0.4727  0.3011
 5354SOL     OW24196   0.502   0.418   0.203 -0.2925  0.4400  0.8045
 5354SOL    HW124197   0.527   0.485   0.273 -0.1685 -0.8260  1.9958
 5354SOL    HW224198   0.404   0.423   0.185 -0.3089  0.8392  0.9940
 5355SOL     OW24199   0.697   3.027   0.468  0.2558  0.8593 -0.1315
 5355SOL    HW124200   0.714   2.977   0.384 -1.0511  1.9357 -1.0699
 5355SOL    HW224201   0.649   2.968   0.533 -1.0206  0.7661 -1.1234
 5356SOL     OW24202   3.997   7.996   1.760 -0.3296  0.3156  0.3707
 5356SOL    HW124203   4.072   8.003   1.826 -1.1375 -2.4543  1.6167
 5356SOL    HW224204   3.913   8.033   1.801 -0.0541  1.9431 -0.4605
 5357SOL     OW24205   3.393   8.998   5.420  0.2592 -0.2829  0.5203
 5357SOL    HW124206   3.425   8.909   5.453 -0.0342 -0.7835 -0.5351
 5357SOL    HW224207   3.308   8.986   5.368  0.2789  0.5985  0.2702
 5358SOL     OW24208   2.960   9.528   1.803 -0.2055 -0.6076  0.2046
 5358SOL    HW124209   2.907   9.494   1.726 -1.3830  1.3311  0.1136
 5358SOL    HW224210   2.923   9.616   1.832  0.3841 -1.2057  2.8491
 5359SOL     OW24211   8.931   6.656   5.161  0.4916  0.5623  0.2492
 5359SOL    HW124212   8.990   6.711   5.220 -0.3442  0.6468  1.0171
 5359SOL    HW224213   8.929   6.562   5.194  0.4876  0.4738  0.0020
 5360SOL     OW24214   9.025   5.884   1.295  0.2207 -0.3627  0.1789
 5360SOL    HW124215   9.108   5.875   1.240  0.3428  0.0290  0.2930
 5360SOL    HW224216   8.948   5.909   1.236  0.8248  2.3885  0.4772
 5361SOL     OW24217   1.374   8.540   0.213  0.1134 -0.0006  0.1413
 5361SOL    HW124218   1.315   8.459   0.223  1.1370 -0.6837  0.7370
 5361SOL    HW224219   1.466   8.510   0.189  0.3770  1.0309 -0.1189
 5362SOL     OW24220   7.893   4.361   4.424 -0.4741  0.0676  0.3231
 5362SOL    HW124221   7.924   4.428   4.491 -0.0992  0.2150  0.0087
 5362SOL    HW224222   7.870   4.275   4.470  0.7347 -0.1517  0.5375
 5363SOL     OW24223   2.700   3.180   2.192  0.0580 -0.3209  0.2336
 5363SOL    HW124224   2.740   3.238   2.122 -0.3236 -0.1273  0.1720
 5363SOL    HW224225   2.606   3.210   2.210 -0.2527 -1.1299 -0.0408
 5365SOL     OW24226   0.188   2.068   3.791 -0.0042  0.4708 -0.4574
 5365SOL    HW124227   0.185   2.015   3.875  0.2077 -0.2178 -0.8865
 5365SOL    HW224228   0.140   2.155   3.805  0.6976  0.6948  0.6063
 5366SOL     OW24229   6.686   9.096   5.328  0.7397 -0.1367 -0.8287
 5366SOL    HW124230   6.678   9.133   5.236 -1.0990  0.9993 -0.2382
 5366SOL    HW224231   6.752   9.150   5.380 -0.1324  0.8366 -0.7112
 5367SOL     OW24232   0.411   7.208   4.943  0.1194 -0.4036 -0.2511
 5367SOL    HW124233   0.396   7.247   5.034 -0.8371  0.0206 -0.5846
 5367SOL    HW224234   0.499   7.161   4.941 -0.2440 -1.1546  1.1429
 5369SOL     OW24235   6.313   0.604   4.674 -0.2028  0.0881 -0.0912
 5369SOL    HW124236   6.371   0.568   4.600  0.9106  0.3015  0.6667
 5369SOL    HW224237   6.310   0.704   4.668 -0.1746  0.1003  0.1023
 5370SOL     OW24238   7.078   0.762   5.435  0.3312  0.4023  0.4098
 5370SOL    HW124239   7.019   0.688   5.468 -1.4806  1.5870 -0.1230
 5370SOL    HW224240   7.172   0.744   5.464  0.2474 -2.9876 -1.1633
 5371SOL     OW24241   8.873   9.120   4.323 -0.2668 -0.3492 -0.2747
 5371SOL    HW124242   8.958   9.090   4.366 -0.8402 -1.1310  0.3333
 5371SOL    HW224243   8.856   9.216   4.347 -1.4674 -1.2421  2.7788
 5372SOL     OW24244   6.386   0.622   6.143 -0.1443 -0.0363  0.0959
 5372SOL    HW124245   6.407   0.573   6.059  1.4934  0.9154 -0.0750
 5372SOL    HW224246   6.367   0.557   6.216 -3.3592 -0.8591 -1.4165
 5374SOL     OW24247   2.684   3.531   2.828  0.0395 -0.6237  0.1248
 5374SOL    HW124248   2.700   3.433   2.837 -0.3007 -0.5225  1.9093
 5374SOL    HW224249   2.594   3.554   2.866 -0.3377  0.2360 -1.2334
 5375SOL     OW24250   7.803   9.345   4.977 -0.5081  0.4423  0.2812
 5375SOL    HW124251   7.711   9.374   5.003 -0.9763  0.7688 -1.6196
 5375SOL    HW224252   7.825   9.258   5.020 -1.0047  1.2246  2.1528
 5376SOL     OW24253   8.505   5.103   6.091 -0.2359 -0.2199 -0.3098
 5376SOL    HW124254   8.444   5.057   6.156 -1.4841  0.8336 -0.7060
 5376SOL    HW224255   8.466   5.098   5.999 -0.6075  1.9295 -0.3035
 5378SOL     OW24256   1.731   3.856   4.975  0.4173 -0.0178 -0.0468
 5378SOL    HW124257   1.666   3.931   4.986  1.9670  1.2484  0.7440
 5378SOL    HW224258   1.685   3.769   4.992 -1.6051  0.6558 -1.7789
 5379SOL     OW24259   8.984   5.198   1.932  0.3916 -0.5196 -0.2267
 5379SOL    HW124260   9.038   5.117   1.956  1.4606  0.7250  1.6011
 5379SOL    HW224261   8.988   5.265   2.006 -2.5641  0.1766 -0.6152
 5380SOL     OW24262   9.929   8.821   4.396 -0.1467  0.4685 -0.1635
 5380SOL    HW124263   9.975   8.830   4.307 -0.4832 -0.0235 -0.3895
 5380SOL    HW224264   9.941   8.727   4.430  0.3318  0.7707  0.5063
 5381SOL     OW24265   5.387   1.529   2.228  0.0906 -0.0851  0.0290
 5381SOL    HW124266   5.438   1.573   2.302 -0.6736 -0.3946  0.7553
 5381SOL    HW224267   5.307   1.483   2.266 -1.4719  1.5152 -1.2363
 5382SOL     OW24268   5.170   1.843   6.212 -0.0930  0.4853 -0.2590
 5382SOL    HW124269   5.197   1.868   6.119  0.5235  0.5826 -0.0563
 5382SOL    HW224270   5.095   1.902   6.242 -0.9751 -0.2077 -1.0650
 5383SOL     OW24271   7.103   0.441   0.731  0.2144  0.7359 -0.2385
 5383SOL    HW124272   7.192   0.486   0.739  0.6190  0.0598 -0.8460
 5383SOL    HW224273   7.093   0.403   0.638 -1.1897  1.8218 -0.5387
 5384SOL     OW24274   5.310   7.569   3.627  0.2768  0.2040 -0.3300
 5384SOL    HW124275   5.252   7.520   3.561 -1.0577  2.5130 -0.9388
 5384SOL    HW224276   5.310   7.519   3.714 -1.1660 -0.7895 -0.8747
 5385SOL     OW24277   7.148   2.306   3.009  0.0014  0.4475  0.2615
 5385SOL    HW124278   7.101   2.342   2.928 -1.0231  0.4099  0.8231
 5385SOL    HW224279   7.082   2.295   3.083  0.4143 -1.9966  0.3142
 5386SOL     OW24280   2.991   7.192   5.128 -0.4442  0.2924  0.6405
 5386SOL    HW124281   3.027   7.133   5.200  1.3009  1.7494  0.9787
 5386SOL    HW224282   3.044   7.178   5.044  1.4927  3.0180  1.3591
 5387SOL     OW24283   4.611   1.719   4.625 -0.9203  0.0890 -0.1208
 5387SOL    HW124284   4.527   1.739   4.675 -0.5911  1.0736  0.0550
 5387SOL    HW224285   4.670   1.662   4.682 -0.8697  0.5846  0.3321
 5388SOL     OW24286   1.257   5.570   4.071  0.3758  0.6993  0.1743
 5388SOL    HW124287   1.164   5.544   4.100 -0.3588  1.6912 -1.2240
 5388SOL    HW224288   1.323   5.507   4.112 -0.9111  0.0099  1.2382
 5389SOL     OW24289   8.504   2.202   1.138 -0.2562  0.2489 -0.5363
 5389SOL    HW124290   8.439   2.125   1.137 -0.2858  0.2794 -1.0708
 5389SOL    HW224291   8.578   2.181   1.202 -2.0352  1.2527  1.9050
 5390SOL     OW24292   4.156   8.711   1.515  0.0918 -0.3312 -0.2175
 5390SOL    HW124293   4.232   8.746   1.571  1.7438 -1.7530 -1.5046
 5390SOL    HW224294   4.156   8.611   1.519 -0.4555 -0.3961 -1.8745
 5391SOL     OW24295   3.077   4.615   5.570 -0.2561 -0.3276  0.7299
 5391SOL    HW124296   3.110   4.686   5.632  1.1525  1.3872 -1.8684
 5391SOL    HW224297   3.148   4.594   5.503 -2.0673 -1.4635 -0.8801
 5392SOL     OW24298   2.340   1.364   4.285  0.4107  0.1985  0.6694
 5392SOL    HW124299   2.300   1.413   4.363  0.3549  1.9491 -0.4482
 5392SOL    HW224300   2.332   1.266   4.301 -1.2702  0.5227  2.0386
 5393SOL     OW24301   0.813   6.699   4.453 -0.1503  0.1559  0.1560
 5393SOL    HW124302   0.891   6.679   4.394  0.4713 -4.1426  2.2520
 5393SOL    HW224303   0.728   6.684   4.402  0.3742 -0.1424 -0.6381
 5394SOL     OW24304   1.910   6.172   3.381 -0.0562  0.0687  0.2107
 5394SOL    HW124305   1.928   6.240   3.310  2.2113 -0.8775 -0.1507
 5394SOL    HW224306   1.815   6.141   3.373 -0.2103  0.9274 -1.5807
 5395SOL     OW24307   4.069   2.649   5.968 -0.0312 -0.2955  0.1858
 5395SOL    HW124308   3.993   2.714   5.975  1.3859  1.2222  2.0301
 5395SOL    HW224309   4.074   2.595   6.052  0.1990 -1.2532 -0.4321
 5396SOL     OW24310   7.171   0.491   2.184 -0.4464  0.0581  0.2134
 5396SOL    HW124311   7.212   0.408   2.220 -0.5930  0.3060  0.9526
 5396SOL    HW224312   7.101   0.524   2.247  0.2226  1.2255  0.3617
 5397SOL     OW24313   4.303   0.140   6.321 -0.0918  0.2713  0.6965
 5397SOL    HW124314   4.260   0.205   6.384  0.4101  1.0417  0.2381
 5397SOL    HW224315   4.399   0.128   6.345  0.2340  0.9715 -0.2524
 5399SOL     OW24316   3.055   8.281   5.829  0.2826 -0.5971 -0.5971
 5399SOL    HW124317   3.034   8.189   5.863  0.1444 -0.3339  0.0464
 5399SOL    HW224318   2.971   8.323   5.792  0.0461 -0.2235  0.3432
 5402SOL     OW24319   9.267   0.425   3.411 -0.2938 -0.2285 -0.2170
 5402SOL    HW124320   9.324   0.423   3.329  0.8863 -0.5305  0.5971
 5402SOL    HW224321   9.171   0.423   3.385  0.0292  2.0339 -1.6569
 5403SOL     OW24322   7.731   4.003   5.666 -0.5537 -0.8636 -0.8556
 5403SOL    HW124323   7.720   4.080   5.604  1.8162  1.0788  0.9976
 5403SOL    HW224324   7.762   3.923   5.615 -0.3418  0.1929 -2.4210
 5405SOL     OW24325   0.066   1.359   4.162 -0.2838  0.0006  0.0232
 5405SOL    HW124326   0.060   1.364   4.062 -1.8192 -1.6436  0.0062
 5405SOL    HW224327  -0.026   1.350   4.200  0.3691 -0.4314  1.5230
 5406SOL     OW24328   4.574   3.798   0.524  0.1717 -0.3214 -0.1797
 5406SOL    HW124329   4.628   3.731   0.474  1.0653 -0.7651  1.3635
 5406SOL    HW224330   4.479   3.795   0.492  0.5252 -1.2413 -1.1697
 5407SOL     OW24331   3.924   3.048   2.867  0.4671  0.0547  0.0371
 5407SOL    HW124332   3.861   3.068   2.942  2.9939  0.4186  2.1090
 5407SOL    HW224333   3.892   2.967   2.818 -1.3972  0.0039  1.2909
 5408SOL     OW24334   4.360   9.579   5.784 -0.0683  0.3380  0.5286
 5408SOL    HW124335   4.308   9.661   5.760 -0.3596  0.4909  1.6566
 5408SOL    HW224336   4.458   9.600   5.785  0.0338  0.0569 -1.5765
 5409SOL     OW24337   1.436   0.923   0.267  0.6968  0.1460 -0.1441
 5409SOL    HW124338   1.429   0.826   0.241  0.3063  0.4645 -1.2298
 5409SOL    HW224339   1.361   0.974   0.226 -0.3537  0.5452  2.1839
 5412SOL     OW24340   5.694   1.633   5.853  0.5881  0.1130  0.1264
 5412SOL    HW124341   5.644   1.553   5.886 -0.0014  0.5101  0.2019
 5412SOL    HW224342   5.629   1.704   5.827  1.1235  0.8137  0.6888
 5413SOL     OW24343   9.360   9.383   4.553  0.5305 -0.0019 -0.4860
 5413SOL    HW124344   9.376   9.290   4.519  0.1003 -0.5541  0.7985
 5413SOL    HW224345   9.347   9.445   4.475  0.1623 -1.1336 -1.3392
 5414SOL     OW24346   8.363   7.545   2.023 -0.2753 -0.1195  0.3670
 5414SOL    HW124347   8.373   7.497   2.111 -1.3378  0.1711  0.6583
 5414SOL    HW224348   8.266   7.553   2.001 -0.0720  1.1269 -0.1157
 5415SOL     OW24349   3.599   0.775   1.025 -0.2414 -0.1455  0.1373
 5415SOL    HW124350   3.698   0.765   1.021 -0.1991  0.2416  0.1818
 5415SOL    HW224351   3.574   0.827   1.107 -0.5374 -0.9872  0.5834
 5416SOL     OW24352   0.047   8.622   3.043  0.6275  0.0186 -0.2714
 5416SOL    HW124353   0.029   8.592   3.136  1.4183 -0.0500 -0.1389
 5416SOL    HW224354   0.117   8.564   3.001  2.1452  1.6204 -0.0260
 5417SOL     OW24355   8.983   2.447   5.371 -0.3059  0.1384 -0.3138
 5417SOL    HW124356   8.983   2.353   5.403 -1.9291  0.2468  0.0588
 5417SOL    HW224357   8.900   2.463   5.316  0.2992  1.1514 -0.9412
 5418SOL     OW24358   5.521   2.305   4.715  0.5628  0.0155  0.3242
 5418SOL    HW124359   5.445   2.304   4.650  1.4944 -2.3799 -0.7916
 5418SOL    HW224360   5.594   2.365   4.680  1.4195 -1.9158 -1.3409
 5420SOL     OW24361   4.341   6.170   1.932  0.2272 -0.4801  0.4576
 5420SOL    HW124362   4.438   6.191   1.925 -0.0453  0.0433 -2.7048
 5420SOL    HW224363   4.293   6.210   1.854 -2.3568 -1.6800  1.3846
 5421SOL     OW24364   2.255   7.999   2.819  0.0233 -0.1822  0.5167
 5421SOL    HW124365   2.185   7.985   2.749 -1.0621 -1.1877  1.7803
 5421SOL    HW224366   2.268   7.915   2.872 -0.3764  1.0292  2.6096
 5422SOL     OW24367   7.965   8.265   2.771  0.3093 -0.2663 -0.0057
 5422SOL    HW124368   7.923   8.348   2.733 -0.7341 -1.6423 -1.9081
 5422SOL    HW224369   8.061   8.261   2.744 -0.2124 -0.8090 -1.8138
 5423SOL     OW24370   0.734   5.868   3.961  0.1025 -0.6054  0.7391
 5423SOL    HW124371   0.816   5.811   3.954 -0.6080 -1.4868 -0.8159
 5423SOL    HW224372   0.674   5.833   4.033  1.0100 -0.0633  1.7591
 5425SOL     OW24373   4.305   5.705   3.109 -0.8724 -0.2621 -0.2612
 5425SOL    HW124374   4.294   5.787   3.164 -0.7071 -2.1854  2.7072
 5425SOL    HW224375   4.218   5.683   3.064 -1.4023  0.4779  0.3995
 5426SOL     OW24376   4.268   2.107   6.245 -0.2820 -0.2156 -0.1219
 5426SOL    HW124377   4.293   2.179   6.181 -0.6940  0.3096  0.3023
 5426SOL    HW224378   4.273   2.141   6.339 -0.2864 -0.7955  0.0972
 5428SOL     OW24379   2.890   8.664   3.134  0.2044  0.3611  0.4404
 5428SOL    HW124380   2.855   8.582   3.179  0.3451 -0.1431 -0.3542
 5428SOL    HW224381   2.958   8.638   3.065 -1.5165  0.9247 -1.5241
 5429SOL     OW24382   0.976   3.457   5.540 -0.6860  0.2541  0.1998
 5429SOL    HW124383   0.926   3.385   5.588  1.9390 -1.9798 -0.2923
 5429SOL    HW224384   1.024   3.514   5.607 -0.3225 -0.3395  0.4510
 5431SOL     OW24385   1.383   9.816   2.371 -0.2647 -0.2306  0.5245
 5431SOL    HW124386   1.371   9.825   2.470  1.8254  1.7532  0.6353
 5431SOL    HW224387   1.478   9.791   2.351 -0.8931 -1.5002 -0.9476
 5432SOL     OW24388   0.819   1.163   4.228 -0.0489  0.1193 -0.4280
 5432SOL    HW124389   0.829   1.070   4.262  1.7654  0.2190 -0.6342
 5432SOL    HW224390   0.733   1.202   4.261 -0.7040 -1.5381 -0.1527
 5433SOL     OW24391   6.841   8.807   3.552 -0.1925  0.9159 -0.3936
 5433SOL    HW124392   6.885   8.717   3.556 -2.0059 -0.0454 -1.5572
 5433SOL    HW224393   6.911   8.879   3.556  1.2271 -0.5136  1.2315
 5434SOL     OW24394   3.773   0.933   2.773  0.1041  0.3829 -0.1540
 5434SOL    HW124395   3.769   0.851   2.717 -0.1465  0.1104  0.2585
 5434SOL    HW224396   3.813   0.911   2.862  0.2482  0.7540 -0.1251
 5435SOL     OW24397   4.879   1.504   0.485  0.1445  0.0887  0.1852
 5435SOL    HW124398   4.794   1.546   0.453  0.1401 -0.1057 -0.0580
 5435SOL    HW224399   4.932   1.572   0.537  0.6454  0.7269 -1.1376
 5436SOL     OW24400   2.475   3.056   5.816 -0.1101  0.0256 -0.4606
 5436SOL    HW124401   2.452   3.100   5.729 -1.6421 -1.3841 -0.7989
 5436SOL    HW224402   2.453   2.958   5.810  1.8881 -0.5246  0.7502
 5437SOL     OW24403   0.862   8.006   5.710 -0.3222  0.7858 -0.1455
 5437SOL    HW124404   0.911   8.042   5.631  0.7226  1.2228  0.6984
 5437SOL    HW224405   0.793   8.072   5.739  1.6794  2.1903  1.4834
 5439SOL     OW24406   3.755   8.777   5.844  0.1385 -0.0887 -0.3576
 5439SOL    HW124407   3.850   8.793   5.819  0.3989 -2.3951 -0.9194
 5439SOL    HW224408   3.744   8.787   5.943  1.2173 -0.9990 -0.1407
 5440SOL     OW24409   2.276   3.083   4.585 -0.2911  0.0952  0.2290
 5440SOL    HW124410   2.353   3.130   4.542 -0.1717 -0.7706 -0.5006
 5440SOL    HW224411   2.301   2.989   4.606 -0.0534  0.7540  3.0268
 5441SOL     OW24412   5.032   4.650   0.381  0.0974 -0.2090 -0.0779
 5441SOL    HW124413   5.056   4.685   0.471  1.5997  0.7224 -0.8237
 5441SOL    HW224414   5.033   4.550   0.383  1.5299 -0.1980  0.5861
 5443SOL     OW24415   0.711   9.383   0.619  0.2473 -0.2173  0.4804
 5443SOL    HW124416   0.713   9.283   0.612  2.2024 -0.1751  0.1168
 5443SOL    HW224417   0.659   9.409   0.700 -0.0308 -1.5464  0.7430
 5444SOL     OW24418   6.924   9.644   3.700 -0.1875  0.6289  0.0124
 5444SOL    HW124419   6.957   9.724   3.650  0.5356 -1.2259 -2.5927
 5444SOL    HW224420   6.839   9.611   3.659  0.2445 -0.7520  0.2005
 5445SOL     OW24421   9.729   1.665   0.145 -0.1518 -0.0759 -0.0213
 5445SOL    HW124422   9.710   1.567   0.144 -1.5716  0.1122  2.7986
 5445SOL    HW224423   9.812   1.682   0.198  0.6884  0.1861 -1.3936
 5446SOL     OW24424   4.900   0.652   0.031  0.1653  0.1238  0.0273
 5446SOL    HW124425   4.812   0.671   0.074 -1.1248 -1.1152 -2.0175
 5446SOL    HW224426   4.887   0.596  -0.051  2.8694 -0.2470 -0.2199
 5448SOL     OW24427   8.619   0.929   2.548  0.0679 -1.1775  0.3565
 5448SOL    HW124428   8.639   0.896   2.639  1.0147 -1.1191  0.1706
 5448SOL    HW224429   8.703   0.959   2.503  0.3351 -5.3731 -2.2268
 5449SOL     OW24430   0.519   7.096   0.839 -0.1901  0.0697 -0.2406
 5449SOL    HW124431   0.562   7.186   0.841  1.1261 -0.5303 -0.9901
 5449SOL    HW224432   0.559   7.038   0.910 -1.2054  0.1449  0.4010
 5450SOL     OW24433   1.327   9.090   0.690 -0.4644 -0.3549  0.1057
 5450SOL    HW124434   1.426   9.077   0.683 -0.6391 -0.5180 -3.1897
 5450SOL    HW224435   1.307   9.185   0.713  0.4722  0.4315 -2.1511
 5451SOL     OW24436   0.599   6.392   0.523 -0.6564  0.5993 -0.7927
 5451SOL    HW124437   0.695   6.419   0.534 -1.1270  1.9063  0.2581
 5451SOL    HW224438   0.561   6.369   0.613 -1.4217  0.3527 -1.1731
 5452SOL     OW24439   9.608   8.914   3.556 -0.2607  0.1037  0.2420
 5452SOL    HW124440   9.666   8.992   3.577  0.6907  0.1240 -2.3818
 5452SOL    HW224441   9.598   8.857   3.638  3.2900  0.2240  0.8184
 5454SOL     OW24442   3.274   0.062   4.450  0.3914  0.0981 -0.7969
 5454SOL    HW124443   3.304   0.156   4.462 -0.2163 -0.0934  2.7331
 5454SOL    HW224444   3.175   0.060   4.435  0.3147 -0.0111 -0.2840
 5455SOL     OW24445   0.372   8.962   0.567  0.4528 -0.2918 -0.6496
 5455SOL    HW124446   0.466   8.949   0.534  1.2064  0.2402  1.2106
 5455SOL    HW224447   0.374   9.006   0.656 -1.5300 -1.4008 -0.0163
 5457SOL     OW24448   1.100   6.261   1.350  0.1320 -0.6440 -0.2811
 5457SOL    HW124449   1.063   6.204   1.423  0.3987 -1.2750 -0.6345
 5457SOL    HW224450   1.143   6.342   1.390  1.5638 -1.7080  0.3709
 5461SOL     OW24451   9.099   3.717   2.717 -0.7063 -0.1357 -0.2791
 5461SOL    HW124452   9.115   3.789   2.649 -1.2762  0.0115 -0.2561
 5461SOL    HW224453   9.157   3.735   2.797 -0.2858 -0.1224 -0.5809
 5464SOL     OW24454   0.707   3.797   5.858 -0.0136  0.4721  0.3810
 5464SOL    HW124455   0.705   3.766   5.763  1.3230  1.3503  0.0592
 5464SOL    HW224456   0.798   3.832   5.880 -0.6450  1.3584  1.6448
 5466SOL     OW24457   3.087   9.121   4.374 -0.4702 -0.0447 -0.4407
 5466SOL    HW124458   3.118   9.127   4.279  0.1122  1.7913 -0.1643
 5466SOL    HW224459   3.132   9.045   4.420  1.7607  1.0460 -0.7405
 5467SOL     OW24460   9.071   4.625   2.279  0.2444 -0.0022 -0.2954
 5467SOL    HW124461   9.041   4.694   2.344  0.4497 -1.4588  1.3928
 5467SOL    HW224462   9.007   4.548   2.281  1.0529 -0.6934 -0.7644
 5469SOL     OW24463   7.765   5.219   2.409 -0.6831  0.1159  0.0608
 5469SOL    HW124464   7.734   5.313   2.398  2.5308  1.1878 -0.6638
 5469SOL    HW224465   7.783   5.179   2.318  1.5683  0.1542  0.4527
 5470SOL     OW24466   3.010   1.844   2.234 -0.0997  0.5301  0.1923
 5470SOL    HW124467   3.018   1.850   2.135 -0.9296  0.0132  0.0898
 5470SOL    HW224468   3.050   1.925   2.276  0.9629  0.3830 -0.5248
 5473SOL     OW24469   6.917   9.389   3.859  0.5341 -0.5419  0.1434
 5473SOL    HW124470   6.901   9.315   3.794  0.5736  0.1127 -0.6238
 5473SOL    HW224471   6.961   9.466   3.812  1.2202 -0.3336  1.1051
 5474SOL     OW24472   8.866   6.587   5.701 -0.2699 -0.5495 -0.4472
 5474SOL    HW124473   8.931   6.573   5.776 -0.8608 -1.9239 -0.1698
 5474SOL    HW224474   8.902   6.656   5.638 -0.1758  1.2565  1.5449
 5475SOL     OW24475   3.017   4.470   3.385  0.2008 -0.3402  0.1922
 5475SOL    HW124476   3.042   4.485   3.481  1.0689  0.3039 -0.1311
 5475SOL    HW224477   2.970   4.551   3.350  0.5168 -0.2939 -0.1291
 5476SOL     OW24478   2.996   2.836   2.989 -0.1002  0.6005 -0.6171
 5476SOL    HW124479   3.085   2.792   2.991 -0.4499 -0.0599  0.5323
 5476SOL    HW224480   2.986   2.897   3.067  0.1191  2.2332 -1.8310
 5479SOL     OW24481   5.438   6.498   1.018 -0.1601  0.1528 -0.2306
 5479SOL    HW124482   5.429   6.593   1.050  1.4835  0.3057 -0.1990
 5479SOL    HW224483   5.514   6.492   0.953 -0.9244 -0.9490 -1.0301
 5480SOL     OW24484   8.282   0.286   2.004  0.4481 -0.3442  0.0518
 5480SOL    HW124485   8.249   0.358   1.942 -0.5525 -1.5371 -0.8167
 5480SOL    HW224486   8.246   0.198   1.975  1.8652 -1.2448  0.9818
 5481SOL     OW24487   2.076   8.119   5.692 -0.6922 -0.0873 -0.6465
 5481SOL    HW124488   2.009   8.091   5.761  1.3560 -2.3660  0.5283
 5481SOL    HW224489   2.137   8.188   5.732 -1.2183  0.6455 -1.1085
 5483SOL     OW24490   0.488   1.569   0.512  0.2847 -0.2066  0.2249
 5483SOL    HW124491   0.566   1.576   0.449 -0.7956 -0.1211 -1.1067
 5483SOL    HW224492   0.481   1.654   0.564  0.1562  0.3898 -0.7483
 5484SOL     OW24493   2.596   9.674   4.774 -0.1408  0.4044 -0.0299
 5484SOL    HW124494   2.503   9.649   4.802  0.4756  0.2280  1.9302
 5484SOL    HW224495   2.662   9.625   4.829  1.1634 -0.1402 -2.0237
 5485SOL     OW24496   7.365   3.262   6.383 -0.3271  0.2467  0.4455
 5485SOL    HW124497   7.316   3.218   6.307 -0.8980  3.2341 -0.9829
 5485SOL    HW224498   7.328   3.353   6.398  2.7214  1.3604  1.4553
 5486SOL     OW24499   2.262   0.389   3.601  0.4766  0.4864 -0.4440
 5486SOL    HW124500   2.291   0.442   3.522  0.6344  0.4177 -0.4317
 5486SOL    HW224501   2.164   0.403   3.616  0.6623  1.3269 -0.0115
 5489SOL     OW24502   7.271   6.659   4.343  0.6538  0.5237  0.3172
 5489SOL    HW124503   7.306   6.640   4.434  0.3961 -0.5254  0.2097
 5489SOL    HW224504   7.323   6.733   4.301  1.0381  0.7276  1.1555
 5491SOL     OW24505   9.302   1.580   3.020 -0.0904 -0.4419 -0.3318
 5491SOL    HW124506   9.220   1.625   3.054  1.4528  1.3452  1.1721
 5491SOL    HW224507   9.316   1.603   2.924  0.6272  2.2820  0.3953
 5492SOL     OW24508   9.367   7.964   5.510  0.1050 -0.2912  0.1053
 5492SOL    HW124509   9.417   7.976   5.424  2.0723 -1.3105  1.0802
 5492SOL    HW224510   9.398   7.880   5.555  0.4691  1.2040  2.7327
 5495SOL     OW24511   1.160   2.707   6.411  0.2471  0.0077 -0.6080
 5495SOL    HW124512   1.219   2.770   6.360 -1.0819  0.3418 -1.7716
 5495SOL    HW224513   1.071   2.702   6.366 -1.6044  1.7075  2.6890
 5496SOL     OW24514   1.010   2.409   3.598  0.2647 -0.0930  0.0135
 5496SOL    HW124515   0.999   2.332   3.659 -1.4634 -0.9431 -1.3342
 5496SOL    HW224516   0.938   2.477   3.615 -0.0149 -0.1721 -0.8274
 5497SOL     OW24517   0.477   5.271   0.452  0.1739  0.1782  0.4367
 5497SOL    HW124518   0.545   5.276   0.379 -0.8370 -1.5652 -0.6466
 5497SOL    HW224519   0.497   5.341   0.521  0.0602  3.1878 -2.4451
 5505SOL     OW24520   3.895   9.456   1.846 -0.6253  0.7519 -0.4300
 5505SOL    HW124521   3.966   9.525   1.859  0.0431  0.4746 -2.5439
 5505SOL    HW224522   3.809   9.489   1.885  0.6756  0.9883  2.3682
 5506SOL     OW24523   7.833   7.563   6.442 -0.5015  0.2476  0.0030
 5506SOL    HW124524   7.910   7.627   6.441  0.6757 -1.1511 -0.0477
 5506SOL    HW224525   7.843   7.497   6.368 -1.9707  0.3077 -0.2624
 5507SOL     OW24526   2.920   9.606   1.396 -0.4984  0.6605 -0.4891
 5507SOL    HW124527   2.863   9.686   1.407 -2.2044 -0.5794 -0.1649
 5507SOL    HW224528   2.877   9.527   1.440 -0.6905 -1.2621 -3.9533
 5508SOL     OW24529   8.222   1.913   5.100 -0.4042 -0.1725  0.2329
 5508SOL    HW124530   8.263   1.838   5.151 -1.4886 -0.2665  0.9805
 5508SOL    HW224531   8.122   1.903   5.100 -0.4073 -1.1248 -3.2997
 5509SOL     OW24532   7.686   2.641   5.090 -0.2813  0.1800 -0.1329
 5509SOL    HW124533   7.610   2.678   5.037  0.1242  0.4382 -0.5387
 5509SOL    HW224534   7.769   2.641   5.034  0.1176  0.3109  0.4486
 5510SOL     OW24535   1.885   6.451   6.261 -0.5874 -0.5269 -0.5778
 5510SOL    HW124536   1.959   6.475   6.198 -0.8675  1.9831 -0.0369
 5510SOL    HW224537   1.797   6.476   6.220 -0.7726  1.0758  0.7234
 5511SOL     OW24538   5.397   4.000   1.820  0.6321 -0.2012 -0.0809
 5511SOL    HW124539   5.395   4.099   1.828 -0.4207 -0.2617  0.5457
 5511SOL    HW224540   5.326   3.960   1.879 -0.4133 -1.2003 -1.9342
 5513SOL     OW24541   1.440   5.727   3.971 -0.1288 -0.6214 -0.3336
 5513SOL    HW124542   1.366   5.664   3.995 -0.5145 -1.2112 -2.9265
 5513SOL    HW224543   1.416   5.819   4.001 -1.6222 -0.9302 -0.5329
 5515SOL     OW24544   5.355   2.461   3.453  0.4821 -0.2879  0.5092
 5515SOL    HW124545   5.277   2.498   3.403  1.0073  0.1433 -0.0012
 5515SOL    HW224546   5.349   2.488   3.549  0.2597  0.1658  0.3700
 5516SOL     OW24547   2.210   1.474   2.002 -0.2212  0.1118 -0.0985
 5516SOL    HW124548   2.154   1.406   2.048  2.2211 -1.0840  1.2211
 5516SOL    HW224549   2.162   1.508   1.921 -3.0125 -0.4868  1.2378
 5517SOL     OW24550   0.885   6.811   6.048 -0.0943 -0.6535  0.1385
 5517SOL    HW124551   0.864   6.719   6.081 -2.0883  0.3573  1.8085
 5517SOL    HW224552   0.821   6.835   5.975 -0.3754 -0.1369  0.5523
 5518SOL     OW24553   2.599   3.034   3.886  0.4465  0.1557  0.0003
 5518SOL    HW124554   2.530   3.082   3.831 -1.5077  0.1281  2.3338
 5518SOL    HW224555   2.569   2.940   3.903  2.7175 -0.9247 -1.8203
 5520SOL     OW24556   9.940   5.035   3.890 -0.0783  0.0296  0.0037
 5520SOL    HW124557  10.037   5.022   3.910 -0.7163  0.3799  3.6116
 5520SOL    HW224558   9.888   4.958   3.925 -1.4979  1.6490  1.5172
 5521SOL     OW24559   2.257   6.336   5.267  0.5581 -0.4433 -0.5683
 5521SOL    HW124560   2.315   6.363   5.344  0.4668  1.0151 -0.9899
 5521SOL    HW224561   2.162   6.360   5.286  0.5011 -0.2900 -1.0272
 5522SOL     OW24562   8.626   8.361   1.684  0.1738 -0.3723  0.5910
 5522SOL    HW124563   8.691   8.394   1.752 -0.2459  1.0629  0.3184
 5522SOL    HW224564   8.556   8.431   1.669 -0.9471 -1.5489  0.2557
 5523SOL     OW24565   3.992   0.499   2.454 -0.2201 -0.2118 -0.3920
 5523SOL    HW124566   3.896   0.481   2.478  0.0320  0.2104  0.9989
 5523SOL    HW224567   4.033   0.558   2.524  1.2951 -1.0842 -0.5268
 5525SOL     OW24568   9.812   8.640   4.147 -0.2800 -0.5973  0.0030
 5525SOL    HW124569   9.827   8.578   4.224 -2.6738 -1.9776 -0.5934
 5525SOL    HW224570   9.880   8.714   4.150  1.5480 -2.2844  1.6895
 5526SOL     OW24571   9.066   3.891   3.626  0.4405 -0.0482  0.0816
 5526SOL    HW124572   9.103   3.958   3.561 -0.2356  0.8899  0.6475
 5526SOL    HW224573   9.136   3.822   3.646  1.7904  1.5060  0.8670
 5527SOL     OW24574   3.293   8.604   6.438  0.6037  0.2638  0.1040
 5527SOL    HW124575   3.227   8.670   6.473 -1.8445 -1.8592 -0.3944
 5527SOL    HW224576   3.365   8.590   6.506 -1.2268  0.1436  2.0668
 5528SOL     OW24577   8.842   2.334   3.939  0.3672  0.0164  0.0890
 5528SOL    HW124578   8.788   2.408   3.979 -0.2191 -1.0264  1.2362
 5528SOL    HW224579   8.925   2.320   3.993  2.0372  1.8781 -1.8919
 5529SOL     OW24580   2.409   8.726   4.224  0.7541 -0.2459 -0.4502
 5529SOL    HW124581   2.499   8.683   4.234  0.3199 -0.5490  2.4105
 5529SOL    HW224582   2.337   8.660   4.243 -0.0912  0.1380 -2.1988
 5530SOL     OW24583   3.471   7.937   5.906  0.3081 -0.5779 -0.4756
 5530SOL    HW124584   3.435   7.960   5.815  1.0833 -0.0008 -0.6428
 5530SOL    HW224585   3.403   7.883   5.955  0.6069 -2.4318 -2.0557
 5531SOL     OW24586   0.024   0.998   3.334 -0.5471  0.5098 -0.1806
 5531SOL    HW124587   0.042   1.021   3.430 -1.9150 -0.0451  0.2233
 5531SOL    HW224588   0.101   0.946   3.298  0.4280  1.5844  0.3153
 5532SOL     OW24589   5.264   2.082   0.430 -0.3621 -0.3499  0.1834
 5532SOL    HW124590   5.261   2.137   0.513  0.6092 -2.6993  1.8086
 5532SOL    HW224591   5.170   2.057   0.404 -0.5665 -0.8684  1.4172
 5533SOL     OW24592   6.551   1.006   5.982  0.1404  0.3576  0.0784
 5533SOL    HW124593   6.582   1.073   5.914  1.8795  0.2037  0.6903
 5533SOL    HW224594   6.544   1.051   6.071 -0.0673  0.0543  0.2144
 5534SOL     OW24595   5.091   1.579   2.370  0.0225  0.1264 -0.1817
 5534SOL    HW124596   5.110   1.581   2.271 -1.0872  1.7849 -0.3791
 5534SOL    HW224597   5.119   1.666   2.411 -0.6090 -0.1108  0.7631
 5535SOL     OW24598   4.688   5.328   0.347  0.0144 -0.1753 -0.2668
 5535SOL    HW124599   4.657   5.331   0.442 -0.3440 -0.0816 -0.3862
 5535SOL    HW224600   4.696   5.233   0.318 -0.6524 -0.1984 -0.3922
 5536SOL     OW24601   2.327   1.415   6.276  0.5865 -0.0806 -0.1428
 5536SOL    HW124602   2.404   1.352   6.262 -0.5802 -1.6327  0.2633
 5536SOL    HW224603   2.274   1.421   6.191  0.5728  0.1735 -0.1150
 5537SOL     OW24604   9.365   3.834   3.959  0.1320 -0.9915 -0.2049
 5537SOL    HW124605   9.429   3.911   3.965 -0.0572 -0.7605 -1.1291
 5537SOL    HW224606   9.271   3.867   3.970  0.0866 -1.1809  0.0000
 5541SOL     OW24607   9.182   8.223   3.501 -0.1264  0.6647  0.4081
 5541SOL    HW124608   9.113   8.241   3.571 -1.7649  1.1284 -1.3024
 5541SOL    HW224609   9.228   8.137   3.521 -0.3289  0.9601  2.2405
 5542SOL     OW24610   0.893   3.053   5.158 -0.4182 -0.3083  0.1069
 5542SOL    HW124611   0.957   3.117   5.116  0.2872 -1.1060 -0.0557
 5542SOL    HW224612   0.833   3.014   5.088 -0.6651 -0.0326  0.1648
 5543SOL     OW24613   9.701   7.797   2.510 -0.5366 -0.1920 -0.0713
 5543SOL    HW124614   9.690   7.887   2.550  0.1365  0.0048 -0.3227
 5543SOL    HW224615   9.611   7.755   2.496 -0.8328  0.3248  0.2928
 5544SOL     OW24616   5.526   5.659   2.203  0.5317 -0.0198  0.4610
 5544SOL    HW124617   5.495   5.616   2.289  1.7371 -0.6599  0.5851
 5544SOL    HW224618   5.525   5.590   2.130  2.0334 -0.1391  0.5539
 5547SOL     OW24619   1.300   2.274   0.922  0.0575  0.2325 -0.3912
 5547SOL    HW124620   1.360   2.202   0.888  1.3524  1.0896  0.0512
 5547SOL    HW224621   1.256   2.320   0.844  1.1960  0.6366 -0.8003
 5548SOL     OW24622   1.265   8.317   5.053 -0.2544  0.3231 -0.3831
 5548SOL    HW124623   1.170   8.321   5.021 -0.0434 -0.8918 -1.1816
 5548SOL    HW224624   1.327   8.336   4.977  0.1741  0.3318 -0.0362
 5549SOL     OW24625   9.386   1.595   5.536  0.4194  0.2750 -0.2054
 5549SOL    HW124626   9.350   1.528   5.471  0.3746 -0.5541  0.6746
 5549SOL    HW224627   9.384   1.557   5.628 -0.0847  1.6673  0.3809
 5550SOL     OW24628   9.529   8.561   1.948 -0.2299 -0.2877  0.4053
 5550SOL    HW124629   9.538   8.602   1.858 -1.2804 -2.1314 -0.5853
 5550SOL    HW224630   9.619   8.552   1.990  0.1149  1.9203  0.1768
 5551SOL     OW24631   3.156   3.952   3.577  0.1749 -0.4404  0.2277
 5551SOL    HW124632   3.151   4.045   3.540  0.9863 -0.4116  0.1685
 5551SOL    HW224633   3.144   3.955   3.676  1.2715 -0.1407  0.3612
 5552SOL     OW24634   1.367   1.629   0.523  0.1078 -0.3104  0.3402
 5552SOL    HW124635   1.311   1.705   0.490  0.2747  0.0494  0.8896
 5552SOL    HW224636   1.394   1.572   0.445  1.4985  1.2117 -0.3259
 5554SOL     OW24637   1.509   0.557   6.305  0.0546 -0.1460 -0.2777
 5554SOL    HW124638   1.572   0.586   6.233  0.0253 -1.3134 -0.7902
 5554SOL    HW224639   1.556   0.557   6.393  0.1688  1.0176 -0.3340
 5555SOL     OW24640   2.428   8.892   4.513 -0.2504 -0.4499 -0.1453
 5555SOL    HW124641   2.435   8.890   4.413  0.3878 -0.4013 -0.1048
 5555SOL    HW224642   2.336   8.866   4.541  0.3840 -3.3237 -0.6221
 5556SOL     OW24643   4.610   0.503   6.218  0.1890  0.2931  0.4655
 5556SOL    HW124644   4.558   0.569   6.164 -0.3199  0.5993  1.3280
 5556SOL    HW224645   4.587   0.513   6.315  0.0387 -1.2182  0.5961
 5559SOL     OW24646   9.907   5.159   3.000 -0.0982  0.0086  0.0163
 5559SOL    HW124647   9.898   5.122   2.907 -0.6737 -2.0068  0.8502
 5559SOL    HW224648   9.997   5.134   3.037 -0.8198 -1.3388  0.9002
 5560SOL     OW24649   1.125   1.373   6.321 -0.3150  0.6087 -0.4073
 5560SOL    HW124650   1.193   1.370   6.247  0.8111  0.2771  0.6218
 5560SOL    HW224651   1.124   1.464   6.361  0.8422  0.1290  0.7630
 5562SOL     OW24652   0.690   0.076   0.162 -0.4741  0.2542  0.7030
 5562SOL    HW124653   0.677   0.132   0.244  0.8425 -0.3134  1.3093
 5562SOL    HW224654   0.728  -0.013   0.188 -0.8729 -0.2569 -0.4369
 5563SOL     OW24655   6.703   2.269   5.943 -0.3491  0.0648  0.1907
 5563SOL    HW124656   6.685   2.353   5.996  2.2329  0.3313  0.7149
 5563SOL    HW224657   6.742   2.293   5.855 -1.8098 -0.5250 -0.6374
 5564SOL     OW24658   0.357   6.405   4.806  0.4297  0.0652  0.6024
 5564SOL    HW124659   0.294   6.360   4.870  0.4586 -0.1396  0.4894
 5564SOL    HW224660   0.370   6.346   4.726 -1.5857  1.4142 -0.7753
 5565SOL     OW24661   7.728   6.668   1.653 -0.1019  0.0403  0.5437
 5565SOL    HW124662   7.822   6.648   1.625 -0.4294  1.6361 -1.8557
 5565SOL    HW224663   7.683   6.723   1.583 -2.5101  0.2172  2.1476
 5566SOL     OW24664   3.914   8.902   0.066 -0.2055 -0.4171  0.0221
 5566SOL    HW124665   3.933   8.906  -0.032  0.7185 -2.4908  0.1020
 5566SOL    HW224666   3.925   8.993   0.105 -0.1354  0.3451 -1.7073
 5567SOL     OW24667   8.326   4.773   2.457  0.0906  0.1597 -0.0645
 5567SOL    HW124668   8.242   4.823   2.476 -0.0577  0.1327 -0.6350
 5567SOL    HW224669   8.317   4.725   2.369  0.1404 -1.0692  0.5967
 5569SOL     OW24670   8.937   7.843   0.288  0.1728  0.5060 -0.8080
 5569SOL    HW124671   8.949   7.804   0.379  1.1229  0.8881 -0.7653
 5569SOL    HW224672   8.986   7.930   0.282 -0.9943  1.1433 -1.2548
 5571SOL     OW24673   5.725   8.264   3.700  0.3361 -0.1033  0.4477
 5571SOL    HW124674   5.702   8.303   3.611 -1.6311 -3.2352 -0.5123
 5571SOL    HW224675   5.645   8.267   3.759  0.7818 -0.6546  1.0929
 5572SOL     OW24676   4.879   7.890   4.114  0.5618  0.0906  0.1104
 5572SOL    HW124677   4.906   7.806   4.161 -0.1130  0.2112  0.7248
 5572SOL    HW224678   4.956   7.926   4.061  1.1537 -0.3493  0.6776
 5574SOL     OW24679   1.131   5.335   1.448 -0.2460 -0.4135  0.2104
 5574SOL    HW124680   1.181   5.415   1.479 -0.6752  0.1304 -0.4644
 5574SOL    HW224681   1.056   5.364   1.388 -0.6224 -1.2924  0.2433
 5575SOL     OW24682   7.591   9.633   5.683 -0.3751 -0.4467 -0.3637
 5575SOL    HW124683   7.586   9.534   5.673 -1.9150 -0.1465 -3.1073
 5575SOL    HW224684   7.558   9.659   5.774  1.5400 -2.5224  0.9816
 5576SOL     OW24685   7.300   1.693   0.070  0.0709  0.4696 -0.9042
 5576SOL    HW124686   7.268   1.775   0.024  0.3682  0.5877 -0.9056
 5576SOL    HW224687   7.314   1.712   0.167 -2.3714 -0.2891 -0.3693
 5577SOL     OW24688   2.005   6.413   5.359  0.1825  0.1186  0.0817
 5577SOL    HW124689   1.993   6.421   5.458 -1.1577  1.1635 -0.1521
 5577SOL    HW224690   1.925   6.367   5.320  1.3094 -1.5284 -0.3739
 5579SOL     OW24691   8.968   8.978   2.459  0.0208  0.0406 -0.1460
 5579SOL    HW124692   8.906   9.053   2.433 -0.0839 -0.1653 -0.4818
 5579SOL    HW224693   8.917   8.892   2.459  0.5226 -0.2558 -1.2673
 5580SOL     OW24694   6.612   1.436   0.103 -0.3442 -0.2547 -0.2230
 5580SOL    HW124695   6.588   1.343   0.130 -0.9386 -0.1385 -0.3456
 5580SOL    HW224696   6.703   1.459   0.139 -0.8729 -0.3008  1.1730
 5581SOL     OW24697   1.818   9.736   1.546  0.5565 -0.3361 -0.8871
 5581SOL    HW124698   1.767   9.809   1.593  1.1066 -0.5281  0.0170
 5581SOL    HW224699   1.754   9.681   1.492 -0.5187 -1.7757  1.7778
 5582SOL     OW24700   3.231   6.052   4.959  0.1538 -0.2313  0.2896
 5582SOL    HW124701   3.193   5.977   4.906 -0.2433  0.0086  0.2272
 5582SOL    HW224702   3.233   6.135   4.902  0.8231 -0.2541  0.2745
 5583SOL     OW24703   3.839   9.643   2.046 -0.0354 -0.0202  0.4798
 5583SOL    HW124704   3.896   9.724   2.048 -0.8010  0.5350  0.0931
 5583SOL    HW224705   3.752   9.662   2.092 -0.4287 -0.4574 -0.0694
 5584SOL     OW24706   8.385   8.489   1.936 -0.3252  0.5270 -0.3110
 5584SOL    HW124707   8.414   8.400   1.972  0.4411 -0.4750 -3.2033
 5584SOL    HW224708   8.450   8.560   1.963 -0.6035  0.0920  1.5049
 5585SOL     OW24709   8.310   8.058   4.670 -0.1783 -0.3325  0.5574
 5585SOL    HW124710   8.300   7.998   4.590 -0.6770 -0.1582  0.4842
 5585SOL    HW224711   8.358   8.141   4.643  0.7457 -0.8076  0.7169
 5586SOL     OW24712   7.612   3.965   1.576  0.2704 -0.1105  0.4251
 5586SOL    HW124713   7.662   3.964   1.490 -3.8940  1.2657 -2.2077
 5586SOL    HW224714   7.571   3.876   1.592 -2.7089  0.8308 -1.5076
 5588SOL     OW24715   4.094   0.095   6.010  0.4228  0.4334  0.8222
 5588SOL    HW124716   4.151   0.033   6.064 -0.8507  0.5923  2.4040
 5588SOL    HW224717   4.017   0.126   6.066 -0.5573  1.1539 -0.8857
 5589SOL     OW24718   3.541   8.074   3.007 -0.0610  0.2194  0.0309
 5589SOL    HW124719   3.485   8.155   2.990 -0.1939  0.3497  1.0516
 5589SOL    HW224720   3.525   8.007   2.935  0.7945  1.4864 -1.3674
 5591SOL     OW24721   9.707   5.663   0.420  0.2468 -0.6480  0.2377
 5591SOL    HW124722   9.644   5.623   0.487 -2.1325  0.0840 -1.5120
 5591SOL    HW224723   9.781   5.599   0.402 -0.1064 -1.6420  2.1406
 5592SOL     OW24724   2.015   3.184   1.512 -0.3732  0.4591  0.7327
 5592SOL    HW124725   1.964   3.098   1.513 -0.9334  0.7418 -1.3257
 5592SOL    HW224726   1.966   3.251   1.456  2.1606  0.7920 -1.1284
 5593SOL     OW24727   3.060   1.919   6.080 -0.2851 -0.4655  0.4295
 5593SOL    HW124728   3.105   1.844   6.032  0.7465  1.2280 -1.3072
 5593SOL    HW224729   3.039   1.891   6.173 -0.1307 -2.9843 -0.2743
 5594SOL     OW24730   8.902   7.170   1.015  0.2299  0.3207  0.3725
 5594SOL    HW124731   8.966   7.236   1.055 -0.9674 -0.1388  3.1487
 5594SOL    HW224732   8.823   7.160   1.075 -1.0488 -1.3655 -1.5371
 5595SOL     OW24733   1.645   4.622   5.599 -0.0610 -0.0749  0.2053
 5595SOL    HW124734   1.659   4.525   5.578  0.6626  0.0416  0.1501
 5595SOL    HW224735   1.705   4.678   5.542 -0.6251  0.4215  0.0890
 5596SOL     OW24736   3.781   9.285   2.910  0.1146  0.1354  0.3848
 5596SOL    HW124737   3.801   9.285   3.008  1.5431  1.6961  0.1190
 5596SOL    HW224738   3.685   9.262   2.895  0.2031 -1.4262  2.0704
 5597SOL     OW24739   0.423   5.000   4.491  0.0133  0.4392 -0.3603
 5597SOL    HW124740   0.469   4.995   4.580 -0.3029  0.6527 -0.1851
 5597SOL    HW224741   0.488   5.031   4.422  0.2317  0.3805 -0.1833
 5599SOL     OW24742   1.386   9.808   2.646  0.2417 -0.1455 -0.3545
 5599SOL    HW124743   1.468   9.840   2.693 -1.0255  2.8433 -0.1139
 5599SOL    HW224744   1.310   9.806   2.711 -0.6029  0.1491 -1.3290
 5600SOL     OW24745   9.117   0.654   4.621 -0.3953  0.2812  0.1107
 5600SOL    HW124746   9.129   0.613   4.711  2.2187 -1.3297 -0.9153
 5600SOL    HW224747   9.193   0.716   4.602  0.0676 -0.8167 -1.7127
 5602SOL     OW24748   9.218   4.328   5.350  0.1872  0.6128  0.0604
 5602SOL    HW124749   9.218   4.423   5.380 -0.2832  0.3353  0.9844
 5602SOL    HW224750   9.311   4.297   5.333  0.4003  1.0218  0.4833
 5603SOL     OW24751   7.581   4.307   6.305 -0.5010  0.0122 -0.1092
 5603SOL    HW124752   7.638   4.273   6.230  1.3016  1.5767  0.5288
 5603SOL    HW224753   7.484   4.291   6.283  0.1026 -1.5770 -1.7402
 5604SOL     OW24754   0.362   9.715   0.066  0.7186  0.1218 -0.4465
 5604SOL    HW124755   0.288   9.674   0.119  1.1794 -1.6557 -1.1509
 5604SOL    HW224756   0.427   9.644   0.038  2.4853  1.5802 -0.1936
 5605SOL     OW24757   4.225   9.561   0.926  0.3648  0.2259 -0.3505
 5605SOL    HW124758   4.170   9.590   1.004 -1.7645  0.7404 -1.9945
 5605SOL    HW224759   4.290   9.632   0.903  0.1463  0.6050  0.1790
 5607SOL     OW24760   9.828   7.951   5.832 -0.1598 -0.0684  0.0691
 5607SOL    HW124761   9.880   7.989   5.908  0.9376 -0.1634 -0.6208
 5607SOL    HW224762   9.891   7.925   5.758 -1.0966 -1.1457 -0.3619
 5609SOL     OW24763   2.928   3.774   2.110 -0.0627 -0.0639 -0.2024
 5609SOL    HW124764   2.874   3.794   2.028  1.2326  1.0176 -0.8192
 5609SOL    HW224765   2.874   3.794   2.192 -1.0199 -0.2034 -0.7896
 5610SOL     OW24766   0.686   4.133   2.013 -0.1677  0.0863  0.4081
 5610SOL    HW124767   0.679   4.123   1.914 -0.9651  1.4902  0.3058
 5610SOL    HW224768   0.594   4.143   2.052  0.1137 -0.8603  1.3397
 5611SOL     OW24769   1.657   1.621   2.926  0.6056 -0.0133 -0.1665
 5611SOL    HW124770   1.745   1.633   2.972  1.0742  1.6688 -1.4677
 5611SOL    HW224771   1.672   1.609   2.828 -0.5555 -0.9773 -0.2436
 5612SOL     OW24772   3.751   0.636   0.424  0.4827  0.1350 -0.6208
 5612SOL    HW124773   3.775   0.722   0.380  1.1507  1.3283  1.9452
 5612SOL    HW224774   3.718   0.655   0.517 -0.1859 -2.3073 -0.3361
 5613SOL     OW24775   9.765   7.005   5.657  0.3753 -0.3111  0.2947
 5613SOL    HW124776   9.787   7.016   5.560  0.8330 -1.5453  0.2488
 5613SOL    HW224777   9.674   7.041   5.675  0.3604  0.0860 -0.5598
 5614SOL     OW24778   6.876   3.355   1.352  0.3656  0.0169  0.0425
 5614SOL    HW124779   6.870   3.448   1.317  1.8030 -0.4877 -1.5989
 5614SOL    HW224780   6.969   3.337   1.384  0.2399 -1.0391 -0.1801
 5616SOL     OW24781   8.954   9.342   5.957 -0.0055 -0.2585 -0.3158
 5616SOL    HW124782   8.887   9.296   5.897 -1.8320  1.2034  0.5628
 5616SOL    HW224783   9.034   9.368   5.903 -0.2468 -1.7720 -1.4516
 5617SOL     OW24784   0.852   9.695   1.841 -0.1328 -0.1310  0.0867
 5617SOL    HW124785   0.775   9.725   1.898  0.3093 -0.4681  0.8673
 5617SOL    HW224786   0.934   9.689   1.898  0.6120  0.8380 -0.8730
 5618SOL     OW24787   6.168   2.965   1.104  0.0686  0.2804 -0.1670
 5618SOL    HW124788   6.079   2.960   1.149 -0.4972 -0.9300 -1.3758
 5618SOL    HW224789   6.231   2.900   1.147 -0.1067  0.0087 -0.3168
 5619SOL     OW24790   0.906   7.245   2.125 -0.1079  0.0114 -0.0706
 5619SOL    HW124791   1.002   7.273   2.137 -0.1757 -0.3416  1.3476
 5619SOL    HW224792   0.846   7.321   2.152 -0.2640 -0.8154  1.9866
 5620SOL     OW24793   8.239   1.309   2.454 -0.1913 -0.2133 -0.4943
 5620SOL    HW124794   8.223   1.351   2.365 -0.2792  0.3671 -0.2065
 5620SOL    HW224795   8.317   1.247   2.448  0.9419  1.1972 -0.5490
 5622SOL     OW24796   6.043   1.975   0.443 -0.2520 -0.6866 -0.0535
 5622SOL    HW124797   6.062   1.993   0.346 -0.3920  1.1192  0.2397
 5622SOL    HW224798   6.087   2.046   0.499 -3.6626  0.7321  0.9365
 5623SOL     OW24799   0.890   9.475   3.526 -0.1798 -0.1997  0.4049
 5623SOL    HW124800   0.971   9.441   3.479 -1.2072 -0.8482 -0.9415
 5623SOL    HW224801   0.872   9.418   3.606 -0.0014 -0.8086  0.0194
 5624SOL     OW24802   1.632   8.200   5.221  0.9069 -0.0951 -0.5298
 5624SOL    HW124803   1.669   8.205   5.314  1.1832  1.4108 -0.7113
 5624SOL    HW224804   1.707   8.187   5.156  0.6865 -1.4650 -0.5359
 5625SOL     OW24805   2.925   9.905   2.871  0.5054  0.0864  0.1331
 5625SOL    HW124806   2.896   9.981   2.813 -0.6167 -0.6385 -0.2795
 5625SOL    HW224807   2.900   9.924   2.966 -0.9961 -0.3521 -0.1610
 5626SOL     OW24808   9.856   1.174   5.331  0.6056 -0.1361  0.4174
 5626SOL    HW124809   9.855   1.076   5.351  1.4099 -0.2512 -0.1034
 5626SOL    HW224810   9.763   1.210   5.337  0.2427 -1.0252  0.1261
 5627SOL     OW24811   1.020   7.822   2.642  0.4180 -0.2783  0.0238
 5627SOL    HW124812   1.081   7.799   2.718  0.9409  0.1657 -0.2595
 5627SOL    HW224813   1.065   7.888   2.582 -0.1640 -0.2981 -0.4372
 5628SOL     OW24814   7.682   0.582   1.329 -0.3695  0.3756  0.5112
 5628SOL    HW124815   7.731   0.497   1.350 -0.9732  0.1205  0.8675
 5628SOL    HW224816   7.639   0.618   1.411 -0.8663  0.5557  0.1764
 5630SOL     OW24817   1.437   5.460   2.966 -0.2942 -0.2661  0.7417
 5630SOL    HW124818   1.525   5.500   2.992  0.5338 -0.4994 -1.6321
 5630SOL    HW224819   1.447   5.362   2.952 -0.8015 -0.2019 -0.1024
 5631SOL     OW24820   0.703   4.412   3.614 -0.0592 -0.1815  0.1748
 5631SOL    HW124821   0.646   4.392   3.535  1.3738 -0.4449 -0.8172
 5631SOL    HW224822   0.693   4.508   3.639 -0.3662 -0.0499 -0.4450
 5634SOL     OW24823   4.210   4.823   5.934 -0.1576 -0.4466 -0.3383
 5634SOL    HW124824   4.143   4.832   5.860 -0.8048 -2.3032  0.0017
 5634SOL    HW224825   4.162   4.831   6.022  0.7775  3.0141 -0.0738
 5635SOL     OW24826   0.159   1.835   5.229  0.0304 -0.1240  0.0182
 5635SOL    HW124827   0.168   1.742   5.192 -2.0199  0.2659 -1.5636
 5635SOL    HW224828   0.109   1.832   5.315  1.4219 -0.6347  0.8293
 5636SOL     OW24829   5.698   1.459   4.087  0.8980 -0.4650  0.3448
 5636SOL    HW124830   5.693   1.559   4.090  1.2813 -0.4592  1.0380
 5636SOL    HW224831   5.753   1.427   4.164  1.2356 -1.1821 -0.1967
 5637SOL     OW24832   9.030   3.189   5.562 -0.3146  0.0310 -0.1622
 5637SOL    HW124833   9.061   3.123   5.494 -3.7063 -0.2041 -1.5837
 5637SOL    HW224834   9.077   3.173   5.648  1.6419 -1.8024 -1.5228
 5638SOL     OW24835   3.911   8.481   0.207 -0.3613  0.4022  0.5770
 5638SOL    HW124836   3.916   8.489   0.307  0.0209  0.3636  0.5606
 5638SOL    HW224837   3.818   8.503   0.177 -0.4177  0.6386  0.9198
 5639SOL     OW24838   5.561   6.143   1.593  0.1341 -0.1913  0.1775
 5639SOL    HW124839   5.633   6.208   1.617  0.0696  0.7219 -2.0637
 5639SOL    HW224840   5.566   6.065   1.656  3.3913 -0.3785 -0.1960
 5641SOL     OW24841   3.426   6.802   2.604  0.3173  0.5629 -0.3527
 5641SOL    HW124842   3.454   6.898   2.612 -0.1329  0.7210 -0.6961
 5641SOL    HW224843   3.371   6.790   2.521  0.1634  0.0581 -0.1765
 5642SOL     OW24844   4.163   4.475   3.048  0.0248  0.1094  0.1029
 5642SOL    HW124845   4.113   4.430   2.974  0.6525 -0.9484  0.3197
 5642SOL    HW224846   4.257   4.491   3.020 -0.1011  0.9868  0.1572
 5643SOL     OW24847   2.794   1.748   3.816 -0.4339 -0.1150  0.0878
 5643SOL    HW124848   2.832   1.772   3.905 -0.6405 -0.3025  0.2240
 5643SOL    HW224849   2.763   1.831   3.770  1.0208  0.1634 -0.4251
 5645SOL     OW24850   2.762   8.931   1.903 -0.1148  0.4481 -0.0186
 5645SOL    HW124851   2.806   8.984   1.830  1.1888 -0.0468  0.3806
 5645SOL    HW224852   2.668   8.910   1.878  0.1539  0.7622 -1.3110
 5646SOL     OW24853   0.153   9.407   5.304 -0.1002  0.0585  0.4706
 5646SOL    HW124854   0.176   9.392   5.400 -1.1838  0.4683  0.8000
 5646SOL    HW224855   0.069   9.459   5.298  0.1866  0.3949 -0.7095
 5647SOL     OW24856   1.288   7.093   1.943 -0.0458  0.1303  0.2391
 5647SOL    HW124857   1.371   7.110   1.890 -0.4518  0.6910 -0.2282
 5647SOL    HW224858   1.224   7.039   1.888  0.4970 -1.3217  1.0418
 5648SOL     OW24859   5.020   8.572   5.706 -0.6994 -0.0384  0.0318
 5648SOL    HW124860   5.030   8.555   5.804 -3.7344  1.5028  0.6608
 5648SOL    HW224861   5.066   8.657   5.681  0.6033 -0.7438 -0.0354
 5650SOL     OW24862   9.831   7.921   1.857  0.9353 -0.1643  0.3102
 5650SOL    HW124863   9.736   7.935   1.884  1.2786  0.9082  0.9946
 5650SOL    HW224864   9.836   7.906   1.759  0.1026  0.2622  0.1996
 5652SOL     OW24865   7.717   1.488   0.935  0.0580  0.0484 -0.0914
 5652SOL    HW124866   7.793   1.463   0.994  0.5462 -0.4569 -0.9310
 5652SOL    HW224867   7.647   1.417   0.939 -0.1475  0.2678  0.2814
 5654SOL     OW24868   4.028   2.098   4.929 -0.2051  0.4109  0.2737
 5654SOL    HW124869   4.037   2.129   4.834  0.4169  1.0252  0.5311
 5654SOL    HW224870   4.044   2.175   4.991  0.8854 -0.3232  0.9104
 5655SOL     OW24871   1.415   6.620   5.448 -0.0763  0.2056  0.2620
 5655SOL    HW124872   1.326   6.599   5.408 -0.1783  2.2238 -0.6527
 5655SOL    HW224873   1.425   6.719   5.457  2.0702  0.0109  0.3478
 5656SOL     OW24874   4.694   6.038   0.167  0.4232 -0.0929  0.5176
 5656SOL    HW124875   4.620   5.984   0.206  1.0644 -0.3160  1.4265
 5656SOL    HW224876   4.696   6.025   0.068 -0.7810 -0.0437  0.4784
 5657SOL     OW24877   3.734   7.591   1.766  0.1121 -0.1641 -0.2585
 5657SOL    HW124878   3.796   7.651   1.716 -0.4248  0.0610 -0.6517
 5657SOL    HW224879   3.648   7.582   1.717 -0.0264 -0.7964  0.0887
 5658SOL     OW24880   9.826   7.428   3.795 -0.0030  0.4640  0.6952
 5658SOL    HW124881   9.876   7.363   3.851 -1.1832 -0.3424  0.8436
 5658SOL    HW224882   9.876   7.514   3.789  1.9381 -0.6814 -0.0847
 5659SOL     OW24883   2.832   1.532   4.705  0.5235 -0.4772  0.6364
 5659SOL    HW124884   2.805   1.624   4.677  0.4935 -1.2946 -2.1604
 5659SOL    HW224885   2.908   1.537   4.769  0.3795  1.5014  0.6763
 5660SOL     OW24886   9.162   1.878   5.289 -0.5057 -0.3932 -0.3287
 5660SOL    HW124887   9.182   1.812   5.361 -0.1266 -0.1599 -0.2224
 5660SOL    HW224888   9.244   1.893   5.233 -0.9519 -1.0224 -1.1744
 5662SOL     OW24889   0.710   9.029   0.365  0.3105  0.1184 -0.6668
 5662SOL    HW124890   0.735   9.038   0.461 -1.0332 -3.1043  0.0470
 5662SOL    HW224891   0.666   9.114   0.334 -1.0901  0.4689  2.1324
 5663SOL     OW24892   0.279   4.177   2.489  0.3148  0.0227  0.2417
 5663SOL    HW124893   0.279   4.257   2.430 -3.7706 -0.6687 -0.8083
 5663SOL    HW224894   0.233   4.198   2.575 -0.6244 -1.1344  0.0304
 5664SOL     OW24895   3.359   7.450   3.370  0.5296 -0.7400 -0.0323
 5664SOL    HW124896   3.347   7.358   3.334  0.3330 -1.1987  1.1689
 5664SOL    HW224897   3.456   7.466   3.388  0.5071 -0.8908  0.2214
 5667SOL     OW24898   2.986   4.424   4.677  0.1496 -0.1327  0.1096
 5667SOL    HW124899   2.988   4.478   4.593  0.7351 -2.5090 -1.4614
 5667SOL    HW224900   2.900   4.373   4.681 -0.2379  0.5929  1.3955
 5669SOL     OW24901   4.850   1.465   1.739  0.3791  0.0510  0.3075
 5669SOL    HW124902   4.870   1.527   1.663  1.2625 -0.5292  0.0659
 5669SOL    HW224903   4.866   1.513   1.825 -0.8474  0.7853  0.1365
 5670SOL     OW24904   4.734   1.697   5.452 -0.0549  0.0475  0.0998
 5670SOL    HW124905   4.767   1.655   5.537 -0.6892  1.0346  0.8469
 5670SOL    HW224906   4.673   1.774   5.474  2.3300  2.4195 -1.1775
 5671SOL     OW24907   3.715   8.141   1.521  0.1893  0.7017 -0.2962
 5671SOL    HW124908   3.692   8.200   1.443  1.3418  2.5222  0.7090
 5671SOL    HW224909   3.701   8.191   1.606  0.8279 -0.6106  0.6033
 5672SOL     OW24910   4.907   7.273   1.797 -0.7018 -0.3794 -1.0083
 5672SOL    HW124911   4.923   7.207   1.869 -0.3114  0.0505 -0.6966
 5672SOL    HW224912   4.836   7.239   1.735 -1.7068 -0.3252  0.1050
 5673SOL     OW24913   2.185   5.954   4.748  0.2168  0.4059 -0.0566
 5673SOL    HW124914   2.190   5.866   4.796 -0.8838  0.2338 -0.2357
 5673SOL    HW224915   2.232   6.024   4.801 -1.7741  0.4151  1.7478
 5674SOL     OW24916   0.976   2.223   1.574  0.4376 -0.1830  0.8839
 5674SOL    HW124917   0.915   2.199   1.650  1.0331 -1.2731  1.0396
 5674SOL    HW224918   1.065   2.249   1.610 -0.0450  1.8044  0.6764
 5675SOL     OW24919   7.200   0.211   0.904 -0.3402 -0.1187 -1.0269
 5675SOL    HW124920   7.261   0.221   0.983 -0.5739 -0.7848 -0.7575
 5675SOL    HW224921   7.148   0.295   0.891 -1.1650 -0.3983  0.2706
 5676SOL     OW24922   7.583   9.272   5.901  0.3116 -0.4845 -0.3008
 5676SOL    HW124923   7.542   9.205   5.963 -1.7271 -0.3798 -1.4981
 5676SOL    HW224924   7.622   9.347   5.954 -0.6762 -0.8038  0.8971
 5678SOL     OW24925   1.717   0.408   2.478  0.1328  0.6675  0.2037
 5678SOL    HW124926   1.621   0.414   2.451  0.3046  0.1480 -0.5525
 5678SOL    HW224927   1.775   0.441   2.403  0.5650  0.3959  0.4115
 5679SOL     OW24928   8.951   7.334   2.282 -0.0715  0.2475  0.4589
 5679SOL    HW124929   8.884   7.322   2.209  0.7880  0.3728 -0.3562
 5679SOL    HW224930   8.999   7.420   2.269 -1.0319  1.0582  2.0902
 5680SOL     OW24931   0.882   5.353   6.190  0.0208  0.0382  0.1534
 5680SOL    HW124932   0.790   5.388   6.209 -0.1806 -0.7238  0.6034
 5680SOL    HW224933   0.930   5.416   6.130 -0.6985  0.5844  0.1504
 5681SOL     OW24934   2.355   8.741   0.813 -0.3157 -0.2510 -0.0438
 5681SOL    HW124935   2.326   8.828   0.853 -3.0403  0.4123 -3.2731
 5681SOL    HW224936   2.279   8.677   0.813  1.2042 -2.0875  0.7805
 5682SOL     OW24937   2.930   2.069   1.789  0.1564 -0.4477 -0.1109
 5682SOL    HW124938   2.868   2.046   1.714  0.1542 -1.5903  0.2299
 5682SOL    HW224939   3.023   2.039   1.767  0.2169 -0.5021  0.2102
 5683SOL     OW24940   4.640   6.509   1.175  0.1906 -0.0442  0.0363
 5683SOL    HW124941   4.592   6.427   1.146  0.5329 -0.5917  0.9842
 5683SOL    HW224942   4.678   6.494   1.266  0.7083  0.9781 -0.0102
 5685SOL     OW24943   2.109   1.838   0.848 -0.0284  0.0612  0.4491
 5685SOL    HW124944   2.144   1.747   0.872  1.8327  0.1976 -1.6283
 5685SOL    HW224945   2.097   1.892   0.931  1.3075 -1.1995  1.4922
 5686SOL     OW24946   0.713   4.061   1.192  0.0389  0.4962 -0.1075
 5686SOL    HW124947   0.800   4.021   1.164 -0.3522 -0.5141  0.0921
 5686SOL    HW224948   0.715   4.081   1.290 -0.5055 -1.0170  0.2293
 5687SOL     OW24949   4.540   0.196   3.414 -0.2254 -0.2117 -0.6354
 5687SOL    HW124950   4.600   0.133   3.463  0.1780 -0.8072 -1.8681
 5687SOL    HW224951   4.462   0.220   3.472  0.1654 -1.0214  0.2362
 5688SOL     OW24952   1.837   1.552   0.141 -0.4773  0.1928  0.1378
 5688SOL    HW124953   1.819   1.453   0.142 -1.3132  0.3434  0.6489
 5688SOL    HW224954   1.915   1.573   0.200  0.8074 -0.3551 -1.3132
 5690SOL     OW24955   1.812   3.077   3.410  0.6234 -0.1031  0.0511
 5690SOL    HW124956   1.767   3.025   3.483  1.2336 -2.2032 -1.0078
 5690SOL    HW224957   1.782   3.172   3.413 -3.0844 -1.2064  0.0155
 5691SOL     OW24958   1.979   9.483   0.124 -0.5439  0.2291  0.1793
 5691SOL    HW124959   2.076   9.489   0.150 -0.4904 -1.4250  0.4692
 5691SOL    HW224960   1.972   9.472   0.025 -0.3277 -1.1269  0.2934
 5692SOL     OW24961   0.762   7.512   5.399  0.6090 -0.2257  0.0334
 5692SOL    HW124962   0.861   7.528   5.400  0.5889  0.0248 -1.6516
 5692SOL    HW224963   0.736   7.466   5.314 -1.0911  2.1180 -0.7700
 5694SOL     OW24964   1.172   2.030   3.878  0.0508 -0.5631  0.1667
 5694SOL    HW124965   1.252   2.069   3.833  1.9984 -2.9752  1.3664
 5694SOL    HW224966   1.155   1.939   3.840 -2.5266  0.1809 -0.4995
 5695SOL     OW24967   2.522   4.223   2.948  0.7487  0.1257  0.2231
 5695SOL    HW124968   2.445   4.254   3.004  2.1153  2.0816  1.0725
 5695SOL    HW224969   2.535   4.286   2.872  0.9205 -0.7528 -0.4901
 5696SOL     OW24970   0.520   3.323   0.516 -0.1355 -0.1429  0.2289
 5696SOL    HW124971   0.475   3.235   0.502  1.6930 -1.5031  2.5223
 5696SOL    HW224972   0.584   3.340   0.441 -1.1933 -0.3334 -0.7125
 5697SOL     OW24973   8.336   6.028   3.500 -0.0597  0.2612  0.7335
 5697SOL    HW124974   8.333   6.126   3.522 -1.4570  0.8705 -1.9361
 5697SOL    HW224975   8.430   6.003   3.476  0.1211  1.2031  0.4102
 5698SOL     OW24976   0.513   2.045   2.666 -0.3442 -0.3772  0.1957
 5698SOL    HW124977   0.415   2.061   2.680 -0.0234  2.1253 -0.1910
 5698SOL    HW224978   0.562   2.060   2.752  0.3372  4.2889 -0.8409
 5699SOL     OW24979   4.236   1.916   6.021  0.1378 -0.1837 -0.2471
 5699SOL    HW124980   4.180   1.848   6.070 -0.0255 -0.3048 -0.5983
 5699SOL    HW224981   4.262   1.989   6.084 -0.4810 -0.0867 -0.0947
 5702SOL     OW24982   4.477   5.320   4.178  0.0233 -0.2026  0.2268
 5702SOL    HW124983   4.462   5.228   4.144  0.1501  0.1152 -0.7072
 5702SOL    HW224984   4.394   5.374   4.167  0.2292  0.0548 -0.0908
 5703SOL     OW24985   0.873   3.991   0.463  0.0461  0.4817  0.4887
 5703SOL    HW124986   0.808   3.919   0.438 -0.2823  0.8218  0.3502
 5703SOL    HW224987   0.966   3.954   0.462 -0.1422 -0.0009  0.6617
 5704SOL     OW24988   0.485   5.735   6.341  0.5101  0.1166 -0.2454
 5704SOL    HW124989   0.489   5.832   6.319  1.2295  0.0161 -0.5945
 5704SOL    HW224990   0.524   5.720   6.432  2.6156 -0.1137 -1.1464
 5705SOL     OW24991   3.441   0.122   1.720 -0.2363  0.2728  0.1440
 5705SOL    HW124992   3.414   0.089   1.629  0.7096 -1.4350  0.4693
 5705SOL    HW224993   3.510   0.193   1.710  0.3165 -0.3416 -0.4543
 5706SOL     OW24994   0.564   0.303   5.617 -0.5298  0.2863  0.6459
 5706SOL    HW124995   0.495   0.328   5.685 -1.2206  0.3406 -0.0593
 5706SOL    HW224996   0.533   0.222   5.567 -0.3178  0.6008 -0.0039
 5707SOL     OW24997   3.629   1.730   3.626 -0.0297 -0.3292  0.1097
 5707SOL    HW124998   3.581   1.763   3.545 -1.2707 -0.6816  0.6987
 5707SOL    HW224999   3.723   1.765   3.625 -0.2400  0.2252 -1.1267
 5708SOL     OW25000   3.382   8.785   6.200  0.3606 -0.0870  0.5313
 5708SOL    HW125001   3.432   8.728   6.135 -0.5110  0.2456 -0.4515
 5708SOL    HW225002   3.369   8.734   6.285  2.8376  0.0491  1.0044
 5709SOL     OW25003   3.775   9.491   0.012 -0.6067 -0.4198 -0.4558
 5709SOL    HW125004   3.865   9.512  -0.026 -1.6361  1.1175 -2.1382
 5709SOL    HW225005   3.731   9.422  -0.044 -0.8772 -0.4283 -0.2320
 5710SOL     OW25006   6.507   7.316   5.137  0.1154  0.2058  0.1210
 5710SOL    HW125007   6.593   7.276   5.106  0.0372 -0.3427  0.5944
 5710SOL    HW225008   6.518   7.351   5.230  0.0351  0.8016 -0.0962
 5712SOL     OW25009   5.587   8.433   5.042 -0.5961  0.0706 -0.1410
 5712SOL    HW125010   5.684   8.451   5.030 -0.3577 -1.8345 -1.1841
 5712SOL    HW225011   5.572   8.336   5.056 -2.2138  0.5471  1.7227
 5713SOL     OW25012   2.114   8.173   0.682 -0.0044 -0.2494 -0.5776
 5713SOL    HW125013   2.070   8.087   0.710  0.8728 -0.8875 -1.1514
 5713SOL    HW225014   2.210   8.156   0.661  0.1740  0.8830 -0.6892
 5714SOL     OW25015   0.207   6.036   6.341 -0.1243 -0.2222  0.0861
 5714SOL    HW125016   0.207   6.136   6.340  1.4208 -0.1903  1.6255
 5714SOL    HW225017   0.134   6.003   6.400 -1.5138 -0.0373 -1.5028
 5715SOL     OW25018   0.756   2.438   1.594  0.6055 -0.3388 -0.0211
 5715SOL    HW125019   0.765   2.463   1.690 -0.0681 -1.1008  0.2448
 5715SOL    HW225020   0.831   2.377   1.569 -0.6716 -2.2638  0.7348
 5716SOL     OW25021   3.031   0.336   3.448 -0.3158 -0.1765  0.5615
 5716SOL    HW125022   3.036   0.344   3.548 -0.7159 -1.3164  0.6816
 5716SOL    HW225023   2.935   0.326   3.421 -0.3876  2.0790 -0.1075
 5717SOL     OW25024   8.646   5.121   2.210  0.5102 -0.1651  0.1466
 5717SOL    HW125025   8.567   5.095   2.265 -0.9820 -0.3698 -2.0268
 5717SOL    HW225026   8.717   5.052   2.219 -0.2328 -0.8553  0.7966
 5718SOL     OW25027   9.481   9.702   0.644  0.0470 -0.1878 -0.2960
 5718SOL    HW125028   9.552   9.634   0.663  0.7505  0.5374 -0.3112
 5718SOL    HW225029   9.462   9.754   0.728  0.3088  0.3443 -0.5649
 5719SOL     OW25030   9.577   0.477   1.383  0.6094  0.4576  0.0231
 5719SOL    HW125031   9.539   0.386   1.369  3.2124 -0.9448  1.7700
 5719SOL    HW225032   9.552   0.535   1.305 -1.8882 -1.4142 -0.6653
 5721SOL     OW25033   2.189   2.810   2.794 -0.2216  0.2785  0.0685
 5721SOL    HW125034   2.157   2.770   2.880 -1.3735 -0.4044 -0.6640
 5721SOL    HW225035   2.230   2.899   2.812 -0.6089  0.2200  1.3019
 5722SOL     OW25036   4.886   0.017   6.236  0.2005  0.1978  0.1217
 5722SOL    HW125037   4.939  -0.068   6.228 -0.0595 -0.1062  1.5287
 5722SOL    HW225038   4.851   0.026   6.329  3.0656  3.5385  1.0096
 5724SOL     OW25039   8.861   0.896   4.275  0.1572 -0.3099 -0.1930
 5724SOL    HW125040   8.886   0.805   4.309 -0.4481  0.1317  1.4916
 5724SOL    HW225041   8.847   0.892   4.176  0.3956 -1.9900 -0.1726
 5726SOL     OW25042   8.165   2.804   2.318  0.3093  0.5374  0.7445
 5726SOL    HW125043   8.111   2.722   2.341  1.9639 -0.8024 -0.0486
 5726SOL    HW225044   8.106   2.869   2.269  0.1164 -2.3198 -3.1236
 5729SOL     OW25045   0.468   5.689   0.149  0.7485 -0.3630  0.0532
 5729SOL    HW125046   0.452   5.604   0.099  0.3729  0.8507 -1.9618
 5729SOL    HW225047   0.443   5.766   0.091  3.0065  1.2064  1.1072
 5730SOL     OW25048   7.001   8.148   4.153  0.1259 -0.2190  0.3192
 5730SOL    HW125049   7.018   8.110   4.244 -1.5488  0.8444  1.1005
 5730SOL    HW225050   6.911   8.191   4.151 -0.4786 -1.5110 -2.2888
 5732SOL     OW25051   7.664   0.410   5.662  0.3778  0.1439  0.2653
 5732SOL    HW125052   7.726   0.371   5.729  0.5050  1.8881  1.2113
 5732SOL    HW225053   7.702   0.496   5.627 -1.2602  0.9957  0.5160
 5733SOL     OW25054   8.170   8.586   1.043 -0.4394 -0.2178  0.1905
 5733SOL    HW125055   8.249   8.568   1.102  0.4100  0.0327 -0.8480
 5733SOL    HW225056   8.196   8.572   0.947 -1.5293  0.3095 -0.1965
 5734SOL     OW25057   1.501   4.350   4.006  0.5248  0.0001  0.4135
 5734SOL    HW125058   1.591   4.392   3.991  0.1165  0.9932  0.7153
 5734SOL    HW225059   1.476   4.359   4.102  0.4610 -1.0080  0.4941
 5735SOL     OW25060   0.741   5.042   5.999 -0.6850 -0.0097 -0.5357
 5735SOL    HW125061   0.661   4.999   6.040 -0.7712  2.5482  2.1494
 5735SOL    HW225062   0.823   4.987   6.021 -0.9917  0.2893  1.5189
 5736SOL     OW25063   8.022   6.440   1.080 -0.3520  0.0301 -0.0305
 5736SOL    HW125064   8.016   6.403   0.987 -0.4010  1.1596 -0.4823
 5736SOL    HW225065   8.030   6.539   1.076 -1.2475  0.1602  1.2081
 5737SOL     OW25066   9.436   1.855   2.851  0.9600  0.0023 -0.1451
 5737SOL    HW125067   9.490   1.875   2.932  1.8959 -1.9682 -0.2613
 5737SOL    HW225068   9.490   1.871   2.769  0.9960 -0.8372 -0.2929
 5738SOL     OW25069   3.806   2.222   2.786  0.0443 -0.7080 -0.0344
 5738SOL    HW125070   3.760   2.300   2.742  0.8333 -0.3182 -0.1753
 5738SOL    HW225071   3.876   2.186   2.726 -0.0981 -1.3284  0.1686
 5740SOL     OW25072   9.343   0.129   5.137  0.3049  0.0440 -0.0509
 5740SOL    HW125073   9.422   0.107   5.194 -0.1848 -1.2083  0.1584
 5740SOL    HW225074   9.277   0.182   5.191  0.4593  0.0642  0.1200
 5742SOL     OW25075   4.646   9.909   2.192  0.4239 -0.0631  0.0995
 5742SOL    HW125076   4.693   9.907   2.281  0.3250 -2.3168  0.1185
 5742SOL    HW225077   4.712   9.896   2.119  0.2403 -0.1866 -0.0457
 5743SOL     OW25078   3.344   4.808   3.371 -0.1432  0.1654 -0.8432
 5743SOL    HW125079   3.335   4.747   3.450 -0.5649  1.2316 -0.0677
 5743SOL    HW225080   3.441   4.823   3.351 -0.0014  1.5632  0.7744
 5744SOL     OW25081   2.887   5.521   2.231 -0.0350  0.5246 -0.0386
 5744SOL    HW125082   2.798   5.516   2.185 -0.1988  3.8471 -0.2598
 5744SOL    HW225083   2.874   5.516   2.330 -0.3875  0.1912 -0.1012
 5745SOL     OW25084   1.140   0.475   5.150  0.2290 -0.1073  0.5893
 5745SOL    HW125085   1.231   0.490   5.112 -0.1434  1.7097  0.3729
 5745SOL    HW225086   1.088   0.415   5.090  0.8290 -0.0855  0.0437
 5746SOL     OW25087   6.835   9.656   2.296  0.0904 -0.1791 -0.0002
 5746SOL    HW125088   6.928   9.620   2.302 -0.4841 -1.7371 -0.0647
 5746SOL    HW225089   6.820   9.723   2.368  1.1682 -0.1480  0.2057
 5747SOL     OW25090   3.035   1.091   5.427 -1.0091  0.7449 -0.0738
 5747SOL    HW125091   3.083   1.102   5.340  0.0410  2.8304  0.7509
 5747SOL    HW225092   3.094   1.119   5.502 -1.6009 -1.8150  1.4353
 5748SOL     OW25093   6.378   9.496   5.940  0.0490  0.4551  0.6065
 5748SOL    HW125094   6.432   9.425   5.985  3.7908  2.5653 -0.2590
 5748SOL    HW225095   6.366   9.573   6.003 -1.6877  0.1424  0.6653
 5749SOL     OW25096   7.899   3.867   3.764  0.3524 -0.2829 -0.4426
 5749SOL    HW125097   7.916   3.896   3.669  0.6866  0.2407 -0.2218
 5749SOL    HW225098   7.882   3.768   3.765  0.1903 -0.2667 -1.0699
 5750SOL     OW25099   2.570   6.840   4.602  0.2791  0.2349 -0.4991
 5750SOL    HW125100   2.562   6.936   4.629  1.4176 -0.1156  1.2004
 5750SOL    HW225101   2.489   6.812   4.552  0.4408  2.3944 -2.0176
 5751SOL     OW25102   1.380   4.501   5.916  0.4148  0.4541  0.0893
 5751SOL    HW125103   1.472   4.505   5.954  0.3028  0.3653  0.3699
 5751SOL    HW225104   1.316   4.467   5.985  0.6456 -2.2366 -0.9486
 5752SOL     OW25105   3.663   5.058   3.413  0.6555  0.1771  0.4521
 5752SOL    HW125106   3.724   5.034   3.337 -1.0708 -0.5983 -0.7400
 5752SOL    HW225107   3.659   4.982   3.478 -0.4803 -0.5804 -0.4606
 5753SOL     OW25108   4.393   0.184   2.211 -0.0398  0.3277  0.3675
 5753SOL    HW125109   4.352   0.103   2.253 -0.4779  0.0630 -0.5417
 5753SOL    HW225110   4.490   0.166   2.191 -0.1294  0.0302  0.1934
 5754SOL     OW25111   8.336   4.992   0.394 -0.6953 -0.0273  0.6593
 5754SOL    HW125112   8.404   4.936   0.442 -0.3583  0.2929  0.5552
 5754SOL    HW225113   8.302   5.063   0.454 -0.8072 -0.0763  0.6541
 5755SOL     OW25114   2.766   7.119   6.056  0.2777 -0.1908  0.1315
 5755SOL    HW125115   2.853   7.132   6.007 -0.7009  0.4355 -1.4949
 5755SOL    HW225116   2.743   7.021   6.057  0.2680 -0.2037 -0.7527
 5756SOL     OW25117   3.171   9.280   3.211  0.2739  0.1886 -0.2766
 5756SOL    HW125118   3.089   9.228   3.191  0.3561 -0.2067  0.3957
 5756SOL    HW225119   3.164   9.371   3.170 -0.9554  0.5257  0.6745
 5757SOL     OW25120   7.690   6.939   3.883  0.4440  0.2893  0.3437
 5757SOL    HW125121   7.776   6.931   3.832 -1.3294  0.6689 -2.8480
 5757SOL    HW225122   7.627   6.867   3.855 -1.6989  2.3447 -0.3910
 5758SOL     OW25123   2.216   0.440   5.282 -0.0254 -0.1843 -0.8712
 5758SOL    HW125124   2.283   0.512   5.303  0.9754 -1.3136 -0.1263
 5758SOL    HW225125   2.214   0.423   5.184  2.1700 -1.4552 -0.7176
 5761SOL     OW25126   8.757   7.868   1.943  0.5783  0.3779  0.6531
 5761SOL    HW125127   8.778   7.923   2.023  1.6727  0.8412  0.0533
 5761SOL    HW225128   8.704   7.923   1.878  0.8697  0.4336  0.4619
 5762SOL     OW25129   0.971   7.472   4.784 -0.2297 -0.0998  0.0835
 5762SOL    HW125130   0.970   7.437   4.877 -0.7417  1.7850  0.7938
 5762SOL    HW225131   0.895   7.534   4.770  0.9780  1.1827 -0.9851
 5763SOL     OW25132   7.823   5.901   2.345 -0.2822  0.0190 -0.4553
 5763SOL    HW125133   7.776   5.978   2.301  1.1891  1.9871  1.3322
 5763SOL    HW225134   7.905   5.878   2.293 -0.5444 -0.1616 -0.8000
 5764SOL     OW25135   9.049   3.737   0.161 -0.2555 -0.3689  0.0730
 5764SOL    HW125136   9.124   3.720   0.097 -0.5036 -1.0510 -0.0391
 5764SOL    HW225137   8.979   3.792   0.116  1.0863  2.0422  0.7991
 5765SOL     OW25138   9.355   5.363   1.941 -0.3192 -0.0909 -0.0347
 5765SOL    HW125139   9.382   5.334   2.032 -0.3070  1.4245  0.4645
 5765SOL    HW225140   9.256   5.376   1.938 -0.0864  2.0701  0.4554
 5766SOL     OW25141   0.387   0.842   2.864  0.2126  0.1699 -0.0148
 5766SOL    HW125142   0.298   0.864   2.824  0.5367  3.7864  1.0862
 5766SOL    HW225143   0.377   0.768   2.930 -2.2387  1.3727  1.0188
 5767SOL     OW25144   0.312   1.256   0.795 -0.1454 -0.2417 -0.0439
 5767SOL    HW125145   0.335   1.202   0.875  0.4047 -1.1844 -0.8174
 5767SOL    HW225146   0.232   1.217   0.749 -0.4312  0.2634  0.0194
 5768SOL     OW25147   3.440   0.379   1.909 -0.0141  0.4452 -0.9018
 5768SOL    HW125148   3.516   0.334   1.862 -0.2820  0.1268 -1.0307
 5768SOL    HW225149   3.475   0.450   1.970  0.3926  0.1892 -0.8432
 5770SOL     OW25150   5.961   9.002   2.244  0.2420  0.4654  0.1426
 5770SOL    HW125151   6.048   9.049   2.258  1.4153 -0.4878 -3.3469
 5770SOL    HW225152   5.911   9.046   2.170 -0.1261 -1.7350 -0.9635
 5771SOL     OW25153   8.616   3.233   5.086  0.1405  0.0636  0.4254
 5771SOL    HW125154   8.697   3.282   5.054  0.7621 -0.1779  1.6255
 5771SOL    HW225155   8.544   3.300   5.106  0.6658  0.4214  1.1411
 5773SOL     OW25156   8.021   5.410   4.800 -0.2272  0.4236  0.1114
 5773SOL    HW125157   8.100   5.469   4.816 -0.2715  0.4908  0.0908
 5773SOL    HW225158   8.044   5.316   4.824 -0.3717  0.5638  0.8019
 5774SOL     OW25159   5.582   0.288   4.774  0.1476 -0.0619 -0.1447
 5774SOL    HW125160   5.614   0.339   4.855 -1.7283  1.7346 -0.4913
 5774SOL    HW225161   5.609   0.192   4.782  0.8758  0.3079  2.1422
 5775SOL     OW25162   4.948   5.456   1.560 -0.6351  0.4505  0.2239
 5775SOL    HW125163   4.856   5.495   1.552 -0.2465  1.2023 -0.6416
 5775SOL    HW225164   4.991   5.489   1.644 -0.8472  0.7585  0.2135
 5776SOL     OW25165   4.763   4.962   3.626 -0.2827  0.2314 -0.0992
 5776SOL    HW125166   4.842   5.001   3.674 -0.4621  0.5767 -0.0811
 5776SOL    HW225167   4.689   4.948   3.692 -1.0469  2.1012 -0.5430
 5777SOL     OW25168   8.973   5.721   2.971  0.8014  0.6535 -0.4318
 5777SOL    HW125169   8.908   5.713   3.046  1.4610 -0.7876 -0.0103
 5777SOL    HW225170   9.054   5.770   3.002  1.2381 -0.2832 -0.1056
 5778SOL     OW25171   6.332   8.101   4.068 -0.3367  0.4616 -0.5026
 5778SOL    HW125172   6.364   8.177   4.011  1.2573  1.7815  2.0092
 5778SOL    HW225173   6.233   8.101   4.072 -0.4132  1.2336 -2.0654
 5779SOL     OW25174   7.188   0.613   0.343  0.0233 -0.8540 -0.4556
 5779SOL    HW125175   7.287   0.614   0.361 -0.1230 -2.0093  0.5496
 5779SOL    HW225176   7.155   0.706   0.331  1.5476 -0.5567 -2.6354
 5780SOL     OW25177   2.911   2.229   4.924  0.0394  0.2175 -0.5463
 5780SOL    HW125178   2.841   2.299   4.936 -0.8144 -0.5248 -1.1537
 5780SOL    HW225179   2.950   2.235   4.832 -0.9045 -0.8768 -1.0308
 5781SOL     OW25180   7.688   7.498   2.854 -0.0088  0.0838  0.0718
 5781SOL    HW125181   7.635   7.583   2.858 -0.2591 -0.0473 -0.3659
 5781SOL    HW225182   7.756   7.498   2.926  0.6097  1.0818 -0.4992
 5782SOL     OW25183   1.176   1.071   5.589 -0.5428 -0.2028  0.4476
 5782SOL    HW125184   1.261   1.122   5.597 -0.6606  0.0316  0.1857
 5782SOL    HW225185   1.181   0.990   5.648  0.7819 -1.4425 -1.3185
 5783SOL     OW25186   7.641   4.325   5.209 -0.2992  0.1804  0.0163
 5783SOL    HW125187   7.557   4.373   5.232 -0.2347  0.3898 -0.1844
 5783SOL    HW225188   7.718   4.389   5.211 -0.1835  0.0454 -0.0541
 5786SOL     OW25189   0.804   1.127   5.089  0.0814  0.1998 -0.2315
 5786SOL    HW125190   0.742   1.078   5.150 -0.8868 -0.3932 -1.6495
 5786SOL    HW225191   0.769   1.219   5.073 -0.3354 -0.0650 -0.8672
 5787SOL     OW25192   9.163   4.073   1.439 -0.2442  0.1447 -0.2580
 5787SOL    HW125193   9.087   4.131   1.411  0.9253  1.1269 -1.4696
 5787SOL    HW225194   9.200   4.105   1.526 -1.9558 -1.0732  0.9606
 5789SOL     OW25195   0.399   9.366   0.376 -0.3779  0.7758 -0.1419
 5789SOL    HW125196   0.368   9.348   0.469 -0.2973  0.4666 -0.1737
 5789SOL    HW225197   0.330   9.333   0.311 -0.2772  0.6730 -0.1983
 5790SOL     OW25198   8.244   8.353   0.154  0.5046  0.0100  0.1265
 5790SOL    HW125199   8.285   8.309   0.234  1.6999 -1.1815 -1.1324
 5790SOL    HW225200   8.311   8.415   0.113 -0.1158  0.6288  0.0492
 5792SOL     OW25201   9.333   6.860   5.115  0.2068 -0.9234 -0.6594
 5792SOL    HW125202   9.405   6.825   5.175  2.1734  1.3663 -1.5448
 5792SOL    HW225203   9.362   6.849   5.020 -1.9038 -2.5417 -1.1441
 5793SOL     OW25204   2.670   2.177   4.111  0.0248 -0.4350  0.5434
 5793SOL    HW125205   2.627   2.109   4.170  0.4873 -1.2765 -0.0870
 5793SOL    HW225206   2.714   2.132   4.034  0.4431  0.5667  0.1852
 5794SOL     OW25207   0.747   0.665   1.289 -0.9439 -0.3880  0.1361
 5794SOL    HW125208   0.650   0.686   1.281 -0.9030 -0.2612 -0.0409
 5794SOL    HW225209   0.789   0.665   1.198 -0.3488  1.6304  0.3846
 5795SOL     OW25210   6.106   9.979   2.545 -0.0241 -0.5717 -0.1217
 5795SOL    HW125211   6.024  10.026   2.575  1.0485  3.0185 -2.5065
 5795SOL    HW225212   6.186  10.017   2.592  0.6590 -1.4738 -0.5206
 5799SOL     OW25213   0.181   1.802   0.743  0.0167 -0.1527  0.1730
 5799SOL    HW125214   0.140   1.711   0.734 -0.0530 -0.1513  0.4736
 5799SOL    HW225215   0.165   1.837   0.835 -0.2139  0.2955 -0.0381
 5800SOL     OW25216   2.219   9.560   5.812 -0.1053  0.5460 -0.1001
 5800SOL    HW125217   2.280   9.593   5.884 -1.2309 -1.3405  1.7912
 5800SOL    HW225218   2.252   9.471   5.778 -0.6511  0.5166 -0.5642
 5801SOL     OW25219   3.661   7.621   4.498  0.2034  0.1250 -0.0124
 5801SOL    HW125220   3.738   7.682   4.517  0.2357  0.3961 -0.9868
 5801SOL    HW225221   3.673   7.579   4.408 -0.9613  0.4572 -0.3343
 5802SOL     OW25222   3.514   4.625   0.204 -0.2721 -0.0982  0.9324
 5802SOL    HW125223   3.593   4.565   0.215  0.3664  0.4754 -0.3332
 5802SOL    HW225224   3.446   4.605   0.274  0.3781 -1.5921  1.1551
 5804SOL     OW25225   0.587   5.130   2.464  0.0521  0.0018  0.2771
 5804SOL    HW125226   0.537   5.049   2.432 -0.4768  1.2866 -2.2388
 5804SOL    HW225227   0.657   5.155   2.398  0.4115  1.4446  1.1725
 5805SOL     OW25228   0.022   2.716   4.414 -0.1784  0.3006  0.3604
 5805SOL    HW125229  -0.032   2.796   4.387 -2.0318 -0.5513  1.4557
 5805SOL    HW225230  -0.033   2.633   4.406  0.5375 -0.4533  2.6301
 5806SOL     OW25231   9.140   8.017   0.380 -0.1537  0.2835  0.4833
 5806SOL    HW125232   9.156   8.023   0.479 -0.2832 -2.9232  0.7294
 5806SOL    HW225233   9.228   8.014   0.332 -0.0561 -1.3971  0.7437
 5808SOL     OW25234   8.081   2.118   0.765  0.5729  0.4550  0.6586
 5808SOL    HW125235   8.141   2.062   0.823 -0.3512 -1.3079 -0.0204
 5808SOL    HW225236   8.086   2.086   0.671 -1.8303 -0.1298  0.6793
 5810SOL     OW25237   2.883   1.354   0.155  0.1120 -0.2204 -0.4923
 5810SOL    HW125238   2.963   1.404   0.121  1.1804 -0.6931  1.2523
 5810SOL    HW225239   2.861   1.386   0.247 -0.9374 -0.9785 -0.4766
 5811SOL     OW25240   3.853   7.684   3.802 -0.2859 -0.5954  0.0639
 5811SOL    HW125241   3.931   7.731   3.843 -0.4873 -0.0212 -0.2163
 5811SOL    HW225242   3.859   7.586   3.822 -0.1187 -0.3863  1.0413
 5812SOL     OW25243   1.242   4.824   1.084  0.3588  0.0951  0.6040
 5812SOL    HW125244   1.326   4.872   1.060 -1.5120  1.8374 -2.8787
 5812SOL    HW225245   1.252   4.727   1.063  1.2424  0.4291 -0.5909
 5813SOL     OW25246   8.850   9.112   3.558 -0.2394  0.2033 -0.0516
 5813SOL    HW125247   8.841   9.210   3.538 -0.6952  0.2170  0.2069
 5813SOL    HW225248   8.889   9.065   3.478 -0.2829  0.5526 -0.2804
 5814SOL     OW25249   3.227   0.545   4.488 -0.2169 -0.3569  0.4289
 5814SOL    HW125250   3.179   0.466   4.448  0.5935 -0.3760 -0.5213
 5814SOL    HW225251   3.265   0.602   4.415  0.8836 -0.1362  1.1551
 5816SOL     OW25252   3.812   0.865   5.589 -0.1167 -0.2831 -0.1020
 5816SOL    HW125253   3.743   0.912   5.534 -0.2767  0.5095  0.7634
 5816SOL    HW225254   3.863   0.802   5.531 -2.6082 -2.0522 -0.4647
 5817SOL     OW25255   4.064   3.821   4.528  0.6201 -0.5476 -0.4293
 5817SOL    HW125256   4.121   3.860   4.600  0.6903  1.6502 -1.6441
 5817SOL    HW225257   3.973   3.802   4.565  0.9530 -0.4052  0.4968
 5818SOL     OW25258   2.507   7.110   0.288 -0.0995  0.6377  0.4283
 5818SOL    HW125259   2.480   7.186   0.228 -0.9395 -1.7761 -2.3712
 5818SOL    HW225260   2.427   7.054   0.308  1.0603 -1.1645  0.0601
 5820SOL     OW25261   0.940   6.584   0.265 -0.2343  0.6290  0.2757
 5820SOL    HW125262   0.918   6.587   0.167  0.1934 -0.2488  0.1480
 5820SOL    HW225263   0.883   6.515   0.310  0.4971  0.0983  0.3996
 5821SOL     OW25264   4.814   8.993   0.006 -0.1591  0.0852  0.3393
 5821SOL    HW125265   4.867   9.046  -0.060 -0.8914 -0.3507 -0.6102
 5821SOL    HW225266   4.867   8.912   0.033 -0.9674 -1.2239 -1.8570
 5822SOL     OW25267   8.392   3.502   4.905  0.0307  0.5191  0.4170
 5822SOL    HW125268   8.479   3.501   4.855  0.8599  1.6955  1.7719
 5822SOL    HW225269   8.398   3.440   4.983  0.3735  2.0883  1.6519
 5823SOL     OW25270   3.673   3.832   0.095 -0.8260 -0.0913  0.0799
 5823SOL    HW125271   3.716   3.854   0.182 -0.5529  0.4095 -0.1780
 5823SOL    HW225272   3.585   3.787   0.111 -0.2454 -1.0578  0.6158
 5825SOL     OW25273   4.688   1.400   3.715 -0.4596  0.4315  0.0610
 5825SOL    HW125274   4.787   1.384   3.706 -0.6345 -0.4351 -0.3806
 5825SOL    HW225275   4.659   1.377   3.808 -0.3200  0.2629  0.0638
 5827SOL     OW25276   1.198   2.910   3.900  0.0694 -0.3795  0.3518
 5827SOL    HW125277   1.222   2.825   3.853 -2.2577 -0.9213  0.0897
 5827SOL    HW225278   1.101   2.930   3.884  0.1038  1.2346  2.1141
 5829SOL     OW25279   2.333   1.616   5.712  0.2711  0.0383  0.1838
 5829SOL    HW125280   2.272   1.583   5.640 -0.1273  0.1711  0.4564
 5829SOL    HW225281   2.426   1.623   5.676 -0.0139  0.5860 -0.4687
 5831SOL     OW25282   0.228   1.952   0.524 -0.0950  0.0488  0.1267
 5831SOL    HW125283   0.197   1.905   0.442  0.3528  1.0282 -0.6213
 5831SOL    HW225284   0.192   1.906   0.605  0.8468 -1.9443 -0.5531
 5832SOL     OW25285   1.749   1.057   1.752 -0.7080  0.1906 -0.0319
 5832SOL    HW125286   1.738   0.958   1.743  0.5151  0.2370 -2.2850
 5832SOL    HW225287   1.725   1.101   1.666  2.4363  1.5148 -0.3026
 5833SOL     OW25288   9.677   0.411   2.813  0.4695  0.4606  0.2300
 5833SOL    HW125289   9.777   0.409   2.808  0.5536  1.7193  1.0401
 5833SOL    HW225290   9.649   0.463   2.894 -0.8439 -2.8987  1.9866
 5834SOL     OW25291   3.649   0.060   5.217  0.3410 -0.2929  0.2087
 5834SOL    HW125292   3.676   0.027   5.126 -0.1612  2.1137 -0.8659
 5834SOL    HW225293   3.668  -0.011   5.285  4.2914 -0.7573 -1.2232
 5836SOL     OW25294   1.510   9.682   1.737  0.4346 -0.1901  0.2971
 5836SOL    HW125295   1.476   9.684   1.831 -0.7846  0.9081 -0.1579
 5836SOL    HW225296   1.595   9.735   1.731  0.0579  0.4595  0.6144
 5837SOL     OW25297   7.749   7.396   4.672  0.2000  0.1423  0.0245
 5837SOL    HW125298   7.767   7.490   4.701 -1.0180 -0.1139  1.6838
 5837SOL    HW225299   7.662   7.392   4.622  1.6854  0.3690 -2.6884
 5839SOL     OW25300   5.757   7.564   3.581  0.0600  0.0170 -0.2756
 5839SOL    HW125301   5.715   7.598   3.665 -1.6972  0.4747 -1.3109
 5839SOL    HW225302   5.809   7.637   3.538  0.0820  0.0837 -0.1363
 5840SOL     OW25303   0.827   7.445   1.905 -0.4374  0.3796 -0.3110
 5840SOL    HW125304   0.881   7.464   1.823 -0.2485  0.2261 -0.2246
 5840SOL    HW225305   0.889   7.426   1.981 -0.5923  1.8867  0.2052
 5841SOL     OW25306   8.810   5.182   1.086 -0.3032 -0.0824 -0.1758
 5841SOL    HW125307   8.766   5.189   1.175 -2.7940 -0.5984 -1.2999
 5841SOL    HW225308   8.780   5.097   1.041  0.2940  0.5535 -1.8057
 5842SOL     OW25309   5.315   4.805   1.029  0.0804  0.1943  0.0047
 5842SOL    HW125310   5.374   4.801   0.949 -0.0956  0.6031 -0.1467
 5842SOL    HW225311   5.371   4.813   1.111  0.2048  4.8012 -0.4035
 5843SOL     OW25312   2.959   2.878   0.310 -0.6992  0.4023 -0.3674
 5843SOL    HW125313   2.952   2.828   0.396 -0.5633 -0.5681 -0.9110
 5843SOL    HW225314   3.019   2.958   0.321 -0.2784 -0.0092  0.2990
 5844SOL     OW25315   9.681   8.410   0.091  0.1331 -0.3361 -0.1262
 5844SOL    HW125316   9.614   8.444   0.025 -0.7424 -0.5272  0.6558
 5844SOL    HW225317   9.763   8.378   0.042 -0.1473  0.3406 -1.0481
 5845SOL     OW25318   4.793   0.540   5.553  0.3218 -0.1149  0.4849
 5845SOL    HW125319   4.892   0.553   5.547  0.6356 -1.7582  1.6350
 5845SOL    HW225320   4.759   0.584   5.636  0.3784 -1.0451  1.0099
 5846SOL     OW25321   4.124   4.722   1.255 -0.1169 -0.1012  0.8737
 5846SOL    HW125322   4.097   4.654   1.323 -0.6612 -0.6220  0.1365
 5846SOL    HW225323   4.211   4.763   1.282 -0.0593 -0.6986  1.5972
 5848SOL     OW25324   8.195   4.556   0.013 -0.1217 -0.6070 -0.1072
 5848SOL    HW125325   8.269   4.605   0.059 -0.3376 -0.7111  0.3475
 5848SOL    HW225326   8.109   4.573   0.061 -0.1675 -1.5804  0.1552
 5849SOL     OW25327   4.232   3.691   4.352  0.0973  0.2739 -0.1131
 5849SOL    HW125328   4.190   3.694   4.262 -0.6308 -0.0099  0.2146
 5849SOL    HW225329   4.166   3.718   4.422  0.5397  0.1171  0.3780
 5851SOL     OW25330   5.609   5.978   1.823  0.0268  0.3372 -0.5686
 5851SOL    HW125331   5.701   6.005   1.794 -0.4210  2.5117 -0.0887
 5851SOL    HW225332   5.595   6.006   1.919  0.1397 -3.2557  0.5621
 5852SOL     OW25333   5.844   7.413   6.152 -0.7501 -0.1494 -0.1372
 5852SOL    HW125334   5.767   7.368   6.107 -0.8888  0.9483 -1.0285
 5852SOL    HW225335   5.925   7.406   6.094 -0.6238  0.2234 -0.0111
 5853SOL     OW25336   8.622   2.309   0.665  0.4125 -0.0303 -0.1165
 5853SOL    HW125337   8.691   2.245   0.630 -0.2378 -0.7806 -0.0542
 5853SOL    HW225338   8.663   2.368   0.734  1.3580  0.5277 -1.1533
 5854SOL     OW25339   9.299   1.717   6.372  0.0597 -1.0181 -0.3209
 5854SOL    HW125340   9.339   1.731   6.463 -0.8500 -1.0332  0.0855
 5854SOL    HW225341   9.221   1.655   6.379 -0.3267 -0.6229 -1.0359
 5855SOL     OW25342   8.884   6.765   3.845  0.4375 -0.0149  0.4441
 5855SOL    HW125343   8.945   6.705   3.793 -0.7765  0.2631 -1.3257
 5855SOL    HW225344   8.789   6.743   3.824 -0.0729  0.5919  2.0215
 5857SOL     OW25345   3.837   2.912   5.742  0.1258  0.0848 -0.5604
 5857SOL    HW125346   3.880   2.985   5.688 -0.3156  0.7235 -0.0536
 5857SOL    HW225347   3.869   2.824   5.708 -3.0478  0.2854 -4.4046
 5858SOL     OW25348   1.394   6.977   2.445 -0.1238 -0.3934 -0.1418
 5858SOL    HW125349   1.424   6.943   2.356  3.8134 -0.5513  1.1505
 5858SOL    HW225350   1.393   7.077   2.444  1.7738 -0.3554  0.1654
 5859SOL     OW25351   2.587   5.836   1.576 -0.0271  0.2813 -0.1663
 5859SOL    HW125352   2.536   5.758   1.539  1.4471 -0.9469  0.3245
 5859SOL    HW225353   2.675   5.843   1.528  0.2224  1.1102  0.4090
 5860SOL     OW25354   2.410   8.272   3.984 -0.4576 -0.2658 -0.6801
 5860SOL    HW125355   2.502   8.290   4.018 -0.0464 -0.3267 -1.7556
 5860SOL    HW225356   2.344   8.296   4.055  0.3750 -0.1592  0.0752
 5861SOL     OW25357   9.819   7.493   1.056  0.3225  0.0462  0.2701
 5861SOL    HW125358   9.727   7.454   1.063  0.3996 -0.0010  1.1003
 5861SOL    HW225359   9.852   7.516   1.148  1.4058 -0.5394  0.0275
 5862SOL     OW25360   3.302   1.022   2.428 -0.0398 -0.0013 -0.1241
 5862SOL    HW125361   3.291   1.115   2.461  0.3600 -0.4148  1.2039
 5862SOL    HW225362   3.245   0.960   2.481  1.3835 -0.8223  0.4886
 5863SOL     OW25363   4.524   6.183   2.447 -0.8469 -0.3766 -0.0070
 5863SOL    HW125364   4.585   6.125   2.393 -1.9441  1.0281 -2.8487
 5863SOL    HW225365   4.429   6.167   2.420 -1.3744  0.7731  1.0861
 5864SOL     OW25366   3.269   1.202   1.568 -0.1978  0.0949  0.6695
 5864SOL    HW125367   3.172   1.182   1.583  0.1414 -1.1749  1.2527
 5864SOL    HW225368   3.303   1.147   1.492 -0.2040  1.3856 -0.2806
 5866SOL     OW25369   3.920   6.042   1.436 -0.0717 -0.1179  0.1393
 5866SOL    HW125370   3.828   6.080   1.431  0.4424  0.9727 -1.2675
 5866SOL    HW225371   3.949   6.014   1.344  1.7916  1.4382  0.2357
 5867SOL     OW25372   0.501   6.862   2.480  0.7707  0.0018  0.7434
 5867SOL    HW125373   0.577   6.798   2.480  1.2596  0.5600  2.2346
 5867SOL    HW225374   0.457   6.862   2.390  3.6230  0.9863 -0.7136
 5868SOL     OW25375   7.327   1.783   4.968  0.1271  0.4811 -0.2022
 5868SOL    HW125376   7.237   1.825   4.981  0.6833  1.4379  0.5561
 5868SOL    HW225377   7.391   1.849   4.930  0.1616 -0.5949 -2.1019
 5869SOL     OW25378   7.577   3.646   0.973  0.1795  0.0664  0.2033
 5869SOL    HW125379   7.577   3.610   1.066  1.3001  0.4985  0.3774
 5869SOL    HW225380   7.619   3.579   0.912 -1.4278 -0.6258 -0.1636
 5872SOL     OW25381   7.727   2.953   0.851  0.0768 -0.4085  0.3467
 5872SOL    HW125382   7.790   2.986   0.921  1.7509 -4.0760  0.7227
 5872SOL    HW225383   7.658   2.893   0.894 -0.4772 -0.5966 -0.7778
 5874SOL     OW25384   2.078   4.672   3.985  0.1380 -0.7848  0.5767
 5874SOL    HW125385   2.046   4.662   4.079 -0.3685 -0.7318  0.4125
 5874SOL    HW225386   2.028   4.747   3.941  0.0294 -1.1274  0.1172
 5875SOL     OW25387   4.214   1.413   3.618  0.4097  0.3100  0.1518
 5875SOL    HW125388   4.224   1.324   3.573 -0.5329  0.3287 -0.1135
 5875SOL    HW225389   4.222   1.401   3.717  1.6604  0.1427  0.0398
 5878SOL     OW25390   3.015   2.746   3.827 -0.2869  0.4754  0.1470
 5878SOL    HW125391   3.114   2.745   3.816 -0.5177 -1.0491 -2.2521
 5878SOL    HW225392   2.971   2.745   3.737 -2.4748  0.6372  1.1668
 5879SOL     OW25393   1.657   4.667   4.500 -0.0438  0.2181  0.2528
 5879SOL    HW125394   1.616   4.725   4.429 -0.1862  1.0314  0.9940
 5879SOL    HW225395   1.753   4.649   4.476 -0.0988  0.4585 -0.1649
 5881SOL     OW25396   2.372   2.374   2.575  0.4124 -0.8405 -0.0595
 5881SOL    HW125397   2.370   2.434   2.495  0.1437 -1.5634 -0.6012
 5881SOL    HW225398   2.466   2.352   2.597  0.4868 -0.6487 -0.1793
 5882SOL     OW25399   8.836   1.691   0.242 -0.1206 -0.4267 -0.2910
 5882SOL    HW125400   8.860   1.749   0.164 -0.8011 -0.6546 -0.6786
 5882SOL    HW225401   8.812   1.600   0.209  1.2802 -1.0339  0.3503
 5883SOL     OW25402   7.629   4.388   1.217  0.6725  0.4603  0.2617
 5883SOL    HW125403   7.569   4.321   1.262  0.2359  0.1616 -0.7504
 5883SOL    HW225404   7.578   4.434   1.144  0.6059  2.7586  1.7070
 5884SOL     OW25405   6.229   8.554   6.086 -0.1974 -0.2925  0.1119
 5884SOL    HW125406   6.214   8.503   6.001 -2.1450 -0.1879  0.3543
 5884SOL    HW225407   6.211   8.651   6.069  2.1886  0.1350 -0.0306
 5885SOL     OW25408   3.193   7.011   2.469 -0.6983  0.9403 -0.2161
 5885SOL    HW125409   3.249   6.929   2.457 -0.0730  1.6330 -2.2337
 5885SOL    HW225410   3.166   7.046   2.380 -2.0634  2.2084  0.6623
 5886SOL     OW25411   9.569   6.810   6.158  0.2691  0.2599  0.0574
 5886SOL    HW125412   9.577   6.775   6.251 -0.5998 -0.2965 -0.0689
 5886SOL    HW225413   9.660   6.826   6.120  0.6103  1.6937  1.4439
 5887SOL     OW25414   7.932   9.221   5.283  0.0497  0.0379 -0.0733
 5887SOL    HW125415   8.009   9.283   5.295  0.2376 -0.1130 -0.4763
 5887SOL    HW225416   7.940   9.174   5.194 -0.1235 -0.5073  0.1940
 5888SOL     OW25417   3.431   1.937   1.066 -0.0668 -0.0361  0.8157
 5888SOL    HW125418   3.369   1.922   1.143  0.1400  1.1711  1.2351
 5888SOL    HW225419   3.396   2.010   1.008  1.4163  1.3425  1.5950
 5890SOL     OW25420   8.217   0.306   3.920 -0.1768 -0.1952 -0.0897
 5890SOL    HW125421   8.190   0.398   3.893 -0.9375 -0.4167 -0.0758
 5890SOL    HW225422   8.208   0.297   4.020  0.8956  0.0435  0.0364
 5892SOL     OW25423   4.074   1.596   2.996  0.5420 -0.9854  0.3522
 5892SOL    HW125424   3.990   1.588   3.049  0.3430 -1.7245 -0.0707
 5892SOL    HW225425   4.115   1.506   2.984  0.6627 -0.8069 -0.6104
 5893SOL     OW25426   8.969   6.567   6.264  0.1657 -0.2062 -0.6020
 5893SOL    HW125427   8.921   6.521   6.190  0.5696 -0.5226 -0.6685
 5893SOL    HW225428   9.067   6.549   6.257  0.0934 -1.1579  0.6577
 5894SOL     OW25429   8.526   4.548   3.372  0.2079  0.7113 -0.1573
 5894SOL    HW125430   8.480   4.587   3.292  0.3678  0.9705 -0.1203
 5894SOL    HW225431   8.507   4.605   3.453 -0.3802  0.1726  0.0970
 5895SOL     OW25432   3.296   2.723   3.783 -0.0423  0.0143  0.2130
 5895SOL    HW125433   3.325   2.663   3.857 -1.6518  0.2574  1.0686
 5895SOL    HW225434   3.327   2.686   3.695 -0.3259 -1.6309  0.7964
 5896SOL     OW25435   9.989   4.717   0.797 -0.3734 -0.5347 -0.1184
 5896SOL    HW125436   9.899   4.715   0.753  0.5166 -0.4026 -2.0134
 5896SOL    HW225437  10.049   4.651   0.753  0.2864 -1.0567  1.5451
 5897SOL     OW25438   4.421   4.445   0.457 -0.0712 -0.6126  0.1468
 5897SOL    HW125439   4.392   4.353   0.431  0.7778 -0.8036 -0.1395
 5897SOL    HW225440   4.460   4.443   0.549 -2.3783 -0.0719  1.1689
 5901SOL     OW25441   3.154   6.852   0.367  0.3316 -0.3824  0.2172
 5901SOL    HW125442   3.141   6.891   0.276 -1.1272  0.0781  0.6209
 5901SOL    HW225443   3.117   6.759   0.369 -0.6301  0.0016  0.6376
 5902SOL     OW25444   8.871   1.210   1.121  0.3412 -0.3193  0.7344
 5902SOL    HW125445   8.914   1.152   1.052 -0.5271 -0.3516  0.2054
 5902SOL    HW225446   8.844   1.297   1.079 -0.6121 -0.5213  0.9119
 5903SOL     OW25447   9.978   1.911   1.906  0.0470 -0.3054  0.2087
 5903SOL    HW125448  10.063   1.952   1.940 -0.6389  1.7704 -0.5353
 5903SOL    HW225449  10.000   1.827   1.855  1.7130  0.5467 -0.5163
 5904SOL     OW25450   3.582   0.841   1.302 -0.1638 -0.4948  0.0803
 5904SOL    HW125451   3.682   0.840   1.292 -0.2239  1.7830 -1.3615
 5904SOL    HW225452   3.549   0.748   1.316  2.3400 -1.0839  2.7520
 5905SOL     OW25453   0.163   7.920   2.367 -0.1045 -0.1557  0.2954
 5905SOL    HW125454   0.202   8.004   2.405 -0.8886 -0.1921  1.2001
 5905SOL    HW225455   0.081   7.943   2.313 -0.8683 -0.4193  1.3246
 5906SOL     OW25456   1.299   0.204   3.097 -0.2280  0.4063 -0.0176
 5906SOL    HW125457   1.327   0.117   3.057  0.7714  1.1139 -0.9113
 5906SOL    HW225458   1.301   0.197   3.196 -0.2441 -0.6157 -0.0830
 5909SOL     OW25459   9.923   1.987   4.164 -0.1416 -0.0909 -0.2820
 5909SOL    HW125460  10.015   1.981   4.127 -0.0998 -2.0291  0.0732
 5909SOL    HW225461   9.880   1.897   4.161 -1.5718  0.5372  0.6971
 5911SOL     OW25462   2.417   9.573   2.808 -0.3001 -0.0085 -0.5291
 5911SOL    HW125463   2.330   9.569   2.857 -0.3146 -3.0734 -0.7548
 5911SOL    HW225464   2.402   9.555   2.711  0.4884  0.2578 -0.7061
 5912SOL     OW25465   7.414   3.537   0.593  0.2438  0.6906 -0.0730
 5912SOL    HW125466   7.445   3.626   0.559  1.5686  0.6523  0.9877
 5912SOL    HW225467   7.489   3.493   0.643 -0.8963 -0.3378  0.7493
 5913SOL     OW25468   7.222   9.056   2.374  0.6192  0.3561 -0.0045
 5913SOL    HW125469   7.134   9.101   2.377  0.4740  0.2903 -2.1155
 5913SOL    HW225470   7.218   8.980   2.309  1.8592 -0.4582  0.8463
 5914SOL     OW25471   9.409   1.532   6.206 -0.0665 -0.0382 -0.0306
 5914SOL    HW125472   9.385   1.599   6.276  0.0307 -0.1592  0.1189
 5914SOL    HW225473   9.507   1.538   6.186  0.0973 -0.6786  0.5573
 5916SOL     OW25474   2.230   6.027   2.389  0.2447 -0.0422 -0.3553
 5916SOL    HW125475   2.240   5.967   2.469 -1.0410 -0.8429 -0.7815
 5916SOL    HW225476   2.135   6.055   2.381  0.4755  0.4658 -1.3024
 5917SOL     OW25477   1.508   0.964   0.886  0.4977  0.4432  0.2406
 5917SOL    HW125478   1.533   0.921   0.800  1.2677 -0.5122  0.9354
 5917SOL    HW225479   1.557   1.051   0.896  1.7813 -0.3113  0.5415
 5918SOL     OW25480   1.341   6.600   5.976  0.5764 -0.7662 -0.1313
 5918SOL    HW125481   1.351   6.669   5.904 -2.5180  0.2440  0.3330
 5918SOL    HW225482   1.372   6.638   6.063 -0.6754 -0.0793  0.0319
 5920SOL     OW25483   0.819   5.733   5.947 -0.6873  0.3676 -0.0663
 5920SOL    HW125484   0.780   5.662   5.890 -1.0024  0.5764 -0.1136
 5920SOL    HW225485   0.907   5.762   5.910 -1.4338  1.3369 -1.1167
 5921SOL     OW25486   8.478   2.603   1.089 -0.4568 -0.4169  0.2169
 5921SOL    HW125487   8.534   2.675   1.050 -1.6792  1.4027  1.7365
 5921SOL    HW225488   8.533   2.546   1.150  0.4268 -0.5373 -0.6992
 5923SOL     OW25489   7.940   4.092   5.839 -0.4588 -0.0508  0.5012
 5923SOL    HW125490   7.866   4.073   5.774  0.3253 -0.3545 -0.3102
 5923SOL    HW225491   7.908   4.070   5.931 -0.7280 -2.1267 -0.0528
 5924SOL     OW25492   3.519   6.540   6.370  0.3879  0.1240 -0.0054
 5924SOL    HW125493   3.440   6.515   6.314  2.0342 -1.0888 -1.8713
 5924SOL    HW225494   3.603   6.516   6.321  1.9236  1.5936  1.8367
 5925SOL     OW25495   2.695   3.665   1.936  0.4012  0.1702  0.3255
 5925SOL    HW125496   2.612   3.713   1.909  0.0973 -0.6609 -0.2303
 5925SOL    HW225497   2.765   3.676   1.865  0.4260  0.0265  0.3275
 5927SOL     OW25498   1.108   4.832   0.344  0.1366 -0.0647  0.3249
 5927SOL    HW125499   1.079   4.786   0.260  0.6304 -2.5479  1.4444
 5927SOL    HW225500   1.049   4.803   0.420  0.7548  0.7981  1.1490
 5928SOL     OW25501   6.263   1.832   4.349 -0.1675  0.4058 -0.3116
 5928SOL    HW125502   6.294   1.780   4.270 -1.0335  1.9405 -1.7064
 5928SOL    HW225503   6.309   1.920   4.351 -0.1405  0.3700  0.9085
 5929SOL     OW25504   1.577   6.918   0.058  0.1583  0.4536  0.4394
 5929SOL    HW125505   1.632   6.879  -0.016 -0.5349  1.0063 -0.3614
 5929SOL    HW225506   1.481   6.893   0.046  0.0016  0.7608  1.0170
 5930SOL     OW25507   8.541   5.385   1.815  0.1194 -0.2642 -0.0134
 5930SOL    HW125508   8.472   5.456   1.806  0.3898 -0.2642 -2.3363
 5930SOL    HW225509   8.504   5.298   1.780  0.5294 -0.7754  0.8059
 5931SOL     OW25510   0.761   0.551   4.568 -0.1943  0.2561 -0.2183
 5931SOL    HW125511   0.841   0.585   4.619  0.5668  0.6489 -1.6597
 5931SOL    HW225512   0.758   0.452   4.572  2.2821  0.0107 -2.9417
 5932SOL     OW25513   3.975   2.731   4.869 -0.0060 -0.5005  0.5764
 5932SOL    HW125514   3.954   2.800   4.938  1.8877 -0.9615  1.6479
 5932SOL    HW225515   4.000   2.645   4.915 -2.7885 -2.0618 -0.7348
 5933SOL     OW25516   7.195   9.968   1.423 -0.3538  0.3050 -0.3991
 5933SOL    HW125517   7.178   9.883   1.473 -2.2586  0.8731 -0.0428
 5933SOL    HW225518   7.191  10.046   1.486 -3.5989  1.1068 -1.5082
 5934SOL     OW25519   1.018   8.684   5.356  0.1756 -0.0026  0.2859
 5934SOL    HW125520   1.066   8.700   5.442  0.5969  0.4053 -0.0223
 5934SOL    HW225521   0.962   8.601   5.363  1.8490 -1.1487  0.2508
 5935SOL     OW25522   9.916   1.753   5.926  0.0890  0.6901  0.6085
 5935SOL    HW125523   9.824   1.757   5.964 -0.8875  0.2234 -1.6159
 5935SOL    HW225524   9.957   1.664   5.947  0.2359  1.0657  1.9858
 5938SOL     OW25525   8.195   7.100   4.545  0.0110  0.3110 -0.4601
 5938SOL    HW125526   8.202   7.037   4.469  0.5693  0.8712 -0.8779
 5938SOL    HW225527   8.194   7.194   4.511 -1.3441  0.5213  0.1179
 5939SOL     OW25528   0.279   9.751   3.133 -1.0646 -0.0676 -0.3913
 5939SOL    HW125529   0.308   9.733   3.039 -0.3047  0.7465 -0.3174
 5939SOL    HW225530   0.342   9.706   3.196 -0.9089  0.3451 -0.2540
 5940SOL     OW25531   4.962   7.604   3.603  0.0904  0.4219 -0.1706
 5940SOL    HW125532   5.003   7.625   3.691 -1.5765  0.5803  0.5834
 5940SOL    HW225533   4.874   7.651   3.594  0.0036  0.0145 -1.7109
 5942SOL     OW25534   9.961   1.514   5.156  0.5595 -0.1390  0.0118
 5942SOL    HW125535   9.922   1.475   5.072  1.7165  0.2088 -0.6929
 5942SOL    HW225536  10.060   1.502   5.155  0.3182 -3.1272  2.8695
 5943SOL     OW25537   6.209   7.551   5.239 -0.1116  0.3867 -0.3753
 5943SOL    HW125538   6.127   7.601   5.268  0.3535  0.2426  1.2718
 5943SOL    HW225539   6.291   7.602   5.268  0.3689  0.1356 -1.2941
 5944SOL     OW25540   6.937   1.685   0.958 -0.4481  0.1575 -0.2897
 5944SOL    HW125541   6.913   1.648   0.868  2.4142 -0.7870 -0.7075
 5944SOL    HW225542   6.999   1.763   0.946 -0.7713  0.6008  0.8525
 5945SOL     OW25543   0.340   5.656   0.922 -0.0245  0.1714  0.3985
 5945SOL    HW125544   0.312   5.738   0.872  0.0137 -0.4236 -0.6094
 5945SOL    HW225545   0.271   5.584   0.911 -0.7880  0.5299  2.4936
 5946SOL     OW25546   3.891   2.775   0.718  0.4142 -0.0036  0.2202
 5946SOL    HW125547   3.908   2.706   0.788 -0.4711 -1.3134 -0.8326
 5946SOL    HW225548   3.970   2.837   0.713  1.5455 -1.3689  0.6658
 5947SOL     OW25549   0.107   5.249   4.647  0.2700  0.7406  0.3761
 5947SOL    HW125550   0.046   5.311   4.696 -1.8042 -0.3993 -0.6623
 5947SOL    HW225551   0.165   5.302   4.585 -1.5988  1.6782 -0.6392
 5949SOL     OW25552   8.428   4.463   1.651  0.5197 -0.5869  0.1688
 5949SOL    HW125553   8.511   4.519   1.656 -0.8325  1.3641  1.5132
 5949SOL    HW225554   8.425   4.401   1.729  0.9273 -0.9929 -0.1329
 5950SOL     OW25555   2.781   8.859   2.935 -0.2327  0.0568 -0.1254
 5950SOL    HW125556   2.778   8.776   2.879 -0.0992  1.1447 -1.8150
 5950SOL    HW225557   2.842   8.845   3.013  0.5709 -1.1018 -0.9464
 5951SOL     OW25558   8.136   6.457   1.813  0.6043 -0.3490 -0.5299
 5951SOL    HW125559   8.181   6.371   1.837 -0.4424 -1.0244 -0.9833
 5951SOL    HW225560   8.180   6.496   1.732  1.2914 -0.2756 -0.1337
 5953SOL     OW25561   4.682   4.461   1.482 -0.1349  0.1080  0.0997
 5953SOL    HW125562   4.688   4.402   1.401  0.4326  1.8805 -1.1901
 5953SOL    HW225563   4.770   4.508   1.495 -1.3802  2.6686 -0.4799
 5954SOL     OW25564   8.279   6.987   3.477 -0.2594  0.3797  0.2618
 5954SOL    HW125565   8.276   6.970   3.378  0.2998  1.9744 -0.0502
 5954SOL    HW225566   8.284   7.085   3.493  0.1438  0.1049  1.8747
 5955SOL     OW25567   4.673   0.912   5.297 -0.2164 -0.6386  1.1011
 5955SOL    HW125568   4.653   0.841   5.365  0.6451  0.3658  2.4442
 5955SOL    HW225569   4.593   0.927   5.239 -0.9935 -1.4682  1.9480
 5956SOL     OW25570   3.848   0.856   0.315 -0.0982 -0.1849  0.1622
 5956SOL    HW125571   3.837   0.944   0.360  0.3034 -0.6261  1.1522
 5956SOL    HW225572   3.814   0.861   0.221  0.1012  1.0714  0.1499
 5957SOL     OW25573   0.457   6.801   6.138  0.4778  0.1333  0.1364
 5957SOL    HW125574   0.447   6.703   6.155  1.2244 -0.1632 -1.1011
 5957SOL    HW225575   0.492   6.845   6.220  0.6754 -0.7212  0.5177
 5958SOL     OW25576   3.046   3.241   5.300 -0.5375  0.0892 -0.5571
 5958SOL    HW125577   3.030   3.154   5.253  0.3159 -0.0544 -0.5985
 5958SOL    HW225578   3.134   3.237   5.347 -0.0458  1.2685 -1.3631
 5959SOL     OW25579   2.099   5.235   5.203 -0.1549  0.1316  0.3030
 5959SOL    HW125580   2.043   5.263   5.282 -1.1328 -0.5387 -0.1450
 5959SOL    HW225581   2.122   5.138   5.211 -0.2223  0.0722 -0.2134
 5960SOL     OW25582   1.029   9.972   0.053  0.2202 -0.9065  0.1649
 5960SOL    HW125583   0.960   9.997  -0.016 -1.0467 -0.4681  1.5576
 5960SOL    HW225584   1.040   9.873   0.054 -0.6955 -1.0134  0.1949
 5961SOL     OW25585   3.859   4.611   6.410  0.1340 -0.6509 -0.9435
 5961SOL    HW125586   3.799   4.637   6.485  2.4879  1.6288  0.2301
 5961SOL    HW225587   3.830   4.658   6.326  2.3119  3.3441  0.4119
 5962SOL     OW25588   5.092   8.108   5.805 -0.5640  0.1256  0.5333
 5962SOL    HW125589   5.178   8.114   5.855  0.1411  0.2756 -0.7038
 5962SOL    HW225590   5.026   8.172   5.844  0.0578  0.4073  1.1215
 5963SOL     OW25591   3.634   8.307   2.285  0.8230  0.2059  0.2919
 5963SOL    HW125592   3.608   8.216   2.252  0.7293  0.1093  0.6286
 5963SOL    HW225593   3.714   8.339   2.235 -1.0809  1.3391 -2.1638
 5965SOL     OW25594   8.665   5.997   3.270  0.5391  0.6110 -0.2547
 5965SOL    HW125595   8.569   5.990   3.244 -0.2327 -0.8616  2.7903
 5965SOL    HW225596   8.675   6.065   3.343  1.3298 -1.3684  1.5196
 5966SOL     OW25597   3.322   5.965   0.192  0.3991 -0.6550  0.3535
 5966SOL    HW125598   3.318   5.877   0.241  0.4292 -1.2017 -0.6040
 5966SOL    HW225599   3.341   5.948   0.096 -0.7186  0.3548 -0.0455
 5968SOL     OW25600   0.071   0.565   4.865  0.0597  0.0100  0.2006
 5968SOL    HW125601   0.168   0.586   4.874  0.0483  0.4382 -0.6243
 5968SOL    HW225602   0.023   0.643   4.825 -0.8320  0.2378  1.6668
 5971SOL     OW25603   9.019   3.765   1.911 -0.7381  0.0733  0.0444
 5971SOL    HW125604   9.003   3.773   1.813 -0.2878  0.3103 -0.0100
 5971SOL    HW225605   9.110   3.800   1.933 -0.1225 -1.6245  0.2890
 5972SOL     OW25606   5.037   1.299   3.942  0.3685 -0.4793  0.1864
 5972SOL    HW125607   5.076   1.364   3.877  0.7686 -0.7317  0.1665
 5972SOL    HW225608   5.111   1.249   3.988  0.0616 -1.2975 -0.1876
 5973SOL     OW25609   2.935   6.111   2.444  0.2276 -0.7220  0.6011
 5973SOL    HW125610   2.874   6.183   2.409 -1.3962 -2.6216 -0.5645
 5973SOL    HW225611   2.935   6.114   2.544 -0.4598  0.3637  0.5847
 5974SOL     OW25612   2.522   2.625   4.828 -0.3292  0.8650  0.7066
 5974SOL    HW125613   2.461   2.652   4.753 -0.8246  1.3173  1.2701
 5974SOL    HW225614   2.601   2.686   4.831  0.0953  0.3510  0.0473
 5975SOL     OW25615   5.546   8.217   5.181  0.1717  0.2898  0.3661
 5975SOL    HW125616   5.545   8.266   5.268 -1.2384 -0.9610  1.0745
 5975SOL    HW225617   5.479   8.142   5.183  1.3224 -0.8365 -1.1661
 5976SOL     OW25618   1.476   2.519   3.328 -0.2546  0.8257 -0.1609
 5976SOL    HW125619   1.432   2.550   3.244  0.8560 -0.5182 -1.2678
 5976SOL    HW225620   1.529   2.594   3.367  2.0793  0.5552 -2.5967
 5977SOL     OW25621   1.874   7.790   1.981 -0.1133  0.6951 -0.7367
 5977SOL    HW125622   1.814   7.714   1.953  1.1632 -0.4356 -0.4757
 5977SOL    HW225623   1.939   7.757   2.049  0.9572  1.8535 -1.1873
 5978SOL     OW25624   3.911   2.041   1.460  0.1293 -0.0304  0.1505
 5978SOL    HW125625   3.851   2.043   1.379  1.4345 -0.1377 -0.8272
 5978SOL    HW225626   3.900   1.954   1.507 -0.5343 -0.0248  0.0112
 5979SOL     OW25627   2.524   7.806   0.351  0.1484 -0.1548 -0.1395
 5979SOL    HW125628   2.485   7.850   0.270  0.6293 -1.2308 -0.9714
 5979SOL    HW225629   2.459   7.739   0.387  0.9971 -1.5506 -1.1951
 5980SOL     OW25630   9.427   2.655   5.733  0.3766 -0.1653  0.1744
 5980SOL    HW125631   9.423   2.657   5.833 -5.1520  0.6302  0.0770
 5980SOL    HW225632   9.460   2.566   5.702  0.2141 -1.1086  2.6588
 5981SOL     OW25633   2.292   2.371   3.038 -0.3060 -0.3939 -0.1559
 5981SOL    HW125634   2.325   2.287   2.996 -2.4029 -0.2825 -2.1073
 5981SOL    HW225635   2.245   2.427   2.970  1.4880  2.6387  0.9657
 5982SOL     OW25636   2.233   6.796   0.095 -0.5819  0.8353 -0.2871
 5982SOL    HW125637   2.277   6.832   0.177  1.5312  1.4779 -1.6396
 5982SOL    HW225638   2.213   6.871   0.031  2.2918 -0.0887 -2.3947
 5983SOL     OW25639   0.630   4.336   4.467  0.5175  0.8816  0.4024
 5983SOL    HW125640   0.597   4.429   4.484 -3.4433  0.0910 -2.2838
 5983SOL    HW225641   0.681   4.334   4.381 -0.6725  0.3254 -0.3005
 5984SOL     OW25642   6.865   7.775   5.622 -0.0715  0.1826 -0.3878
 5984SOL    HW125643   6.939   7.805   5.683  0.6020 -0.3452 -0.9303
 5984SOL    HW225644   6.806   7.710   5.670  0.9159 -0.8448 -0.5302
 5985SOL     OW25645   7.655   7.143   4.048 -0.6382  0.5089  0.0613
 5985SOL    HW125646   7.686   7.065   3.994  0.7625  0.4759  0.9059
 5985SOL    HW225647   7.583   7.192   3.997  0.1182  0.0377 -1.4974
 5986SOL     OW25648   8.472   4.279   6.195 -0.0855  0.5476  0.3081
 5986SOL    HW125649   8.447   4.231   6.279 -1.7741 -1.3792 -1.2484
 5986SOL    HW225650   8.463   4.378   6.210  0.0867  0.2487  2.5281
 5987SOL     OW25651   2.812   5.924   3.015 -0.1964  0.5988  0.3009
 5987SOL    HW125652   2.797   5.985   3.094 -1.0024  1.3460 -0.4230
 5987SOL    HW225653   2.900   5.946   2.973  0.3623  0.0185  1.1464
 5991SOL     OW25654   9.306   9.500   0.531 -0.6973  0.5130  0.0242
 5991SOL    HW125655   9.289   9.427   0.597 -0.6064 -0.7578 -1.3482
 5991SOL    HW225656   9.380   9.559   0.566  0.2193 -0.8758  0.4898
 5992SOL     OW25657   7.840   5.044   6.210 -0.1348 -0.2116  0.5498
 5992SOL    HW125658   7.899   4.965   6.227  0.1327 -0.2376 -0.4587
 5992SOL    HW225659   7.784   5.027   6.129  1.1523  1.3021 -0.7114
 5993SOL     OW25660   3.065   6.113   4.001  0.2375  0.2453  0.3966
 5993SOL    HW125661   3.038   6.069   4.087 -0.8437 -1.7755 -0.9207
 5993SOL    HW225662   3.152   6.161   4.013  0.3774 -0.4936  2.4656
 5996SOL     OW25663   6.011   0.349   6.118 -0.5436  0.6265 -0.6580
 5996SOL    HW125664   6.034   0.446   6.130  0.3977  0.6404 -2.4661
 5996SOL    HW225665   6.076   0.293   6.169 -0.9570  0.9342  0.2144
 5997SOL     OW25666   5.520   1.208   2.399  0.5151 -0.0515 -0.5530
 5997SOL    HW125667   5.460   1.192   2.321 -0.1782  0.5846 -0.1571
 5997SOL    HW225668   5.600   1.148   2.393 -0.5460 -1.4619 -0.6652
 5998SOL     OW25669   6.835   6.967   5.347 -0.1923 -0.6602 -0.4472
 5998SOL    HW125670   6.755   6.915   5.318  0.0599 -0.4418 -1.5646
 5998SOL    HW225671   6.898   6.906   5.397 -0.7136 -0.9943 -0.1886
 5999SOL     OW25672   0.598   1.042   0.251 -0.3704  0.1696  0.7791
 5999SOL    HW125673   0.637   0.996   0.171 -1.5341  0.1292  0.2350
 5999SOL    HW225674   0.603   0.982   0.331  0.5352  0.1058  0.6829
 6001SOL     OW25675   0.284   6.021   2.426 -0.8492 -0.1132  0.7964
 6001SOL    HW125676   0.250   5.973   2.346  0.9894  0.4898 -0.3926
 6001SOL    HW225677   0.232   6.106   2.440 -0.2862  0.4706 -0.5897
 6002SOL     OW25678   4.474   3.407   0.217 -0.2460 -0.2161  0.3647
 6002SOL    HW125679   4.411   3.471   0.172  0.4305 -0.1898 -0.5552
 6002SOL    HW225680   4.434   3.376   0.303 -0.8285  1.0142  0.5435
 6003SOL     OW25681   0.335   3.058   0.586  0.5957 -0.1945  0.6801
 6003SOL    HW125682   0.412   2.995   0.598  0.6249  0.0335  1.7063
 6003SOL    HW225683   0.282   3.062   0.670  1.5051  2.3889  1.1904
 6005SOL     OW25684   1.840   2.092   4.254 -0.4480  0.1456  0.1043
 6005SOL    HW125685   1.905   2.023   4.286 -1.2719 -0.0160  1.5001
 6005SOL    HW225686   1.845   2.173   4.312  0.3196  1.1699 -1.3627
 6007SOL     OW25687   2.113   0.473   0.137 -0.4122 -0.5192 -0.4033
 6007SOL    HW125688   2.086   0.382   0.169 -0.2529 -0.0775  0.9787
 6007SOL    HW225689   2.065   0.543   0.189  0.6043  0.2188 -0.4415
 6008SOL     OW25690   6.942   0.317   2.042  0.5975  0.3688 -0.0352
 6008SOL    HW125691   6.880   0.360   1.976 -0.0222  1.0293  0.9704
 6008SOL    HW225692   6.977   0.386   2.105 -1.8738 -0.8179  2.7734
 6009SOL     OW25693   7.997   5.749   5.569  0.5795 -0.1863  0.3325
 6009SOL    HW125694   8.022   5.844   5.586  0.1690 -0.0310  0.0935
 6009SOL    HW225695   8.008   5.696   5.653  0.7295  0.0905  0.4882
 6010SOL     OW25696   9.936   2.208   5.216 -0.0775  0.1697  0.2611
 6010SOL    HW125697   9.955   2.132   5.279 -0.0875  0.1088  0.1913
 6010SOL    HW225698   9.922   2.172   5.124  0.3548  0.2959  0.1461
 6011SOL     OW25699   1.669   6.362   1.578 -0.2315  0.0151 -0.0855
 6011SOL    HW125700   1.706   6.280   1.533  0.5874 -1.0150  2.3745
 6011SOL    HW225701   1.583   6.339   1.623 -0.3512  0.6843  0.0264
 6013SOL     OW25702   9.631   9.512   5.171  0.4170  0.7326 -0.1971
 6013SOL    HW125703   9.536   9.491   5.192  1.1047 -1.4789  0.8065
 6013SOL    HW225704   9.663   9.586   5.231  0.1388 -0.3963  1.3684
 6014SOL     OW25705   4.830   6.098   2.755 -0.1979 -1.0850 -0.4635
 6014SOL    HW125706   4.734   6.102   2.725 -0.6332 -1.0781  0.9263
 6014SOL    HW225707   4.836   6.120   2.852  1.3268 -0.1917 -0.7419
 6015SOL     OW25708   6.559   3.938   0.779 -0.3775 -0.0648  0.0210
 6015SOL    HW125709   6.516   4.018   0.819 -0.8559  0.5639 -1.6952
 6015SOL    HW225710   6.586   3.874   0.851 -2.8663  0.1780  1.2165
 6016SOL     OW25711   2.499   0.664   1.272  0.8966  0.6114  0.1693
 6016SOL    HW125712   2.574   0.709   1.223  0.8440  1.4265  0.8137
 6016SOL    HW225713   2.506   0.685   1.370  0.7444 -0.6216  0.4484
 6018SOL     OW25714   0.480   6.013   6.333  0.7617  0.4598 -0.2359
 6018SOL    HW125715   0.501   6.089   6.396  0.9016  0.4567 -0.2807
 6018SOL    HW225716   0.381   5.999   6.331  0.8292 -0.2697  0.8388
 6019SOL     OW25717   0.533   8.288   4.474  0.0882 -0.2137  0.1892
 6019SOL    HW125718   0.579   8.274   4.562  0.5005 -1.5231 -0.2262
 6019SOL    HW225719   0.552   8.211   4.414 -0.0213  0.7747 -1.1319
 6020SOL     OW25720   6.010   1.066   5.175  0.1686 -0.4436 -0.0045
 6020SOL    HW125721   5.995   1.080   5.077  0.3367  0.5148  0.1066
 6020SOL    HW225722   5.947   1.124   5.226 -1.2136 -2.3063  0.4614
 6021SOL     OW25723   3.876   1.168   4.443 -0.3999 -0.4121 -0.0884
 6021SOL    HW125724   3.965   1.178   4.487 -1.0468  2.1344  0.7270
 6021SOL    HW225725   3.848   1.072   4.444  2.0226 -1.1239  0.2301
 6022SOL     OW25726   2.114   0.957   2.948 -0.2604 -0.5770  0.3253
 6022SOL    HW125727   2.113   0.858   2.935  0.7514 -0.4793 -0.5314
 6022SOL    HW225728   2.107   1.002   2.860  0.3761  0.1136  0.6268
 6023SOL     OW25729   6.859   0.334   6.125 -0.0535 -0.4441 -0.0625
 6023SOL    HW125730   6.878   0.299   6.033 -1.3321 -1.0552 -0.1060
 6023SOL    HW225731   6.825   0.260   6.182 -3.2198  0.7832 -0.2725
 6025SOL     OW25732   7.540   0.738   2.061 -0.0150  0.5492  0.1629
 6025SOL    HW125733   7.539   0.806   1.989  0.3424 -1.1925 -1.5238
 6025SOL    HW225734   7.459   0.679   2.054  1.5786 -1.6165 -0.8186
 6026SOL     OW25735   9.581   4.006   6.253  0.2563 -0.1787  0.2384
 6026SOL    HW125736   9.526   4.068   6.197  0.4419 -0.0390  0.2100
 6026SOL    HW225737   9.658   4.056   6.292  0.3942 -0.3857  0.2359
 6027SOL     OW25738   0.826   5.162   4.080 -0.5708 -0.3354  0.5519
 6027SOL    HW125739   0.916   5.152   4.038  0.0856  2.2380  1.3017
 6027SOL    HW225740   0.837   5.191   4.175 -2.1908 -1.1456  1.0049
 6028SOL     OW25741   9.971   2.288   2.053 -0.1882  0.3001  0.1100
 6028SOL    HW125742  10.064   2.270   2.022  0.2745  0.5429  1.3244
 6028SOL    HW225743   9.907   2.269   1.979  0.7004 -1.2717 -0.2750
 6029SOL     OW25744   0.848   3.488   0.485 -0.0339 -0.7875 -0.7190
 6029SOL    HW125745   0.821   3.397   0.517  0.8368 -1.0743 -0.7907
 6029SOL    HW225746   0.947   3.498   0.492 -0.0197 -0.1995 -1.6126
 6030SOL     OW25747   0.775   3.648   1.950  0.2965  0.9502 -0.4094
 6030SOL    HW125748   0.679   3.655   1.978  0.6245 -0.8377  1.2637
 6030SOL    HW225749   0.831   3.711   2.004  0.5286 -0.4529  1.0056
 6031SOL     OW25750   7.611   1.042   1.136  0.0765 -0.1558 -0.4579
 6031SOL    HW125751   7.613   1.009   1.230  0.0155  0.2880 -0.3021
 6031SOL    HW225752   7.614   0.963   1.074 -1.3631 -0.5226 -0.0881
 6032SOL     OW25753   2.553   1.758   0.138 -0.6136 -0.6660  0.3498
 6032SOL    HW125754   2.529   1.717   0.225 -0.2345 -2.5141 -0.4074
 6032SOL    HW225755   2.536   1.693   0.064  0.8799  0.1901 -0.7680
 6033SOL     OW25756   3.445   9.181   4.240 -0.1414 -0.3205  0.3761
 6033SOL    HW125757   3.509   9.120   4.193  0.8908  0.3279  0.9466
 6033SOL    HW225758   3.456   9.173   4.339 -0.6710  0.0897  0.4737
 6034SOL     OW25759   7.901   2.924   0.395 -0.3439  0.5671  0.4994
 6034SOL    HW125760   7.813   2.956   0.360  0.5359  1.8144 -0.6480
 6034SOL    HW225761   7.910   2.826   0.382 -0.4857  0.8398 -1.8353
 6035SOL     OW25762   5.091   1.363   2.892 -0.3835 -0.7059  0.0069
 6035SOL    HW125763   5.104   1.406   2.802  0.3005  0.0269  0.4475
 6035SOL    HW225764   5.058   1.270   2.880 -1.6642 -0.1374 -0.9784
 6036SOL     OW25765   1.343   2.559   4.293 -0.2468  0.0888  0.1178
 6036SOL    HW125766   1.308   2.637   4.241  1.4758 -0.3476 -1.7272
 6036SOL    HW225767   1.379   2.591   4.380 -0.1808  1.2663 -0.3327
 6037SOL     OW25768   9.134   7.592   4.579  0.1885 -0.7586 -0.1771
 6037SOL    HW125769   9.216   7.567   4.528  2.0183  0.1166  2.2069
 6037SOL    HW225770   9.136   7.690   4.599 -2.2246 -0.4205 -1.3658
 6038SOL     OW25771   0.806   9.489   4.138 -0.0561 -0.1317 -0.0386
 6038SOL    HW125772   0.880   9.456   4.197  0.6515 -0.7505 -1.2733
 6038SOL    HW225773   0.719   9.451   4.170  0.3501 -0.6435  0.4712
 6039SOL     OW25774   4.492   4.187   3.474 -0.2557  0.0062  0.0805
 6039SOL    HW125775   4.490   4.108   3.413  0.4565 -0.1155  0.2194
 6039SOL    HW225776   4.398   4.219   3.488 -0.6601 -1.5042  0.9287
 6040SOL     OW25777   0.031   8.141   4.844 -0.7399  0.0189 -0.4988
 6040SOL    HW125778   0.063   8.175   4.932 -1.4962 -1.0095  0.1863
 6040SOL    HW225779   0.102   8.154   4.775 -0.3849  1.3954  0.1252
 6041SOL     OW25780   7.653   3.182   3.214 -0.2630 -0.1491  0.5867
 6041SOL    HW125781   7.609   3.230   3.138  0.3295 -1.1856 -0.4249
 6041SOL    HW225782   7.584   3.156   3.281 -1.1009 -1.0579 -0.5965
 6043SOL     OW25783   3.352   5.581   5.004 -0.1586  0.6586 -0.3815
 6043SOL    HW125784   3.278   5.632   4.960  0.0451  0.0869 -1.4085
 6043SOL    HW225785   3.434   5.638   5.009 -0.9172  1.6256  1.6092
 6046SOL     OW25786   9.292   7.981   5.198 -0.2626 -0.4258 -0.2594
 6046SOL    HW125787   9.253   7.891   5.220 -1.2640 -0.0228 -0.3411
 6046SOL    HW225788   9.275   8.002   5.102 -0.3150 -0.0123 -0.1596
 6047SOL     OW25789   3.443   0.048   3.390  0.6247 -0.3671 -0.2844
 6047SOL    HW125790   3.417  -0.009   3.468  0.9943 -3.0596 -2.0637
 6047SOL    HW225791   3.363   0.098   3.358  0.9679  2.6611  3.2339
 6048SOL     OW25792   5.062   0.611   5.526 -0.2236  0.6917 -0.1254
 6048SOL    HW125793   5.068   0.554   5.445 -0.1144  2.6726 -1.5429
 6048SOL    HW225794   5.124   0.576   5.596  1.2259  0.1690 -1.6377
 6050SOL     OW25795   2.552   4.138   6.410 -0.3493  0.0445 -0.2067
 6050SOL    HW125796   2.527   4.042   6.395 -0.3894  0.4012 -2.6125
 6050SOL    HW225797   2.650   4.144   6.426 -0.1327 -0.2633 -1.3981
 6051SOL     OW25798   8.839   7.653   3.331  0.4714 -0.0976 -0.7513
 6051SOL    HW125799   8.832   7.582   3.401 -2.5287 -0.1596 -1.0430
 6051SOL    HW225800   8.932   7.689   3.329  0.9735 -1.0885  2.2811
 6052SOL     OW25801   7.744   7.200   6.175 -0.5049 -0.1207  0.1804
 6052SOL    HW125802   7.686   7.183   6.096 -2.1740  3.8630  0.4305
 6052SOL    HW225803   7.694   7.176   6.259 -1.1819  1.6567  0.3059
 6053SOL     OW25804   6.200   2.378   0.314 -0.1118 -0.5668 -0.0847
 6053SOL    HW125805   6.154   2.340   0.394  0.1384 -1.4524 -0.3542
 6053SOL    HW225806   6.132   2.413   0.249 -0.3379 -0.3940  0.2472
 6054SOL     OW25807   9.739   6.052   1.873 -0.3500 -0.0678 -1.0254
 6054SOL    HW125808   9.728   5.961   1.913 -0.9292 -0.0513 -1.1433
 6054SOL    HW225809   9.708   6.050   1.779  1.6435 -0.2774 -1.7165
 6056SOL     OW25810   1.612   0.394   5.605  0.1225 -0.1242 -0.3813
 6056SOL    HW125811   1.644   0.306   5.570  0.6300  1.0450 -2.9738
 6056SOL    HW225812   1.536   0.427   5.549 -1.1035  0.3902  1.5160
 6057SOL     OW25813   1.720   1.917   5.785  0.1705  0.0054 -0.0688
 6057SOL    HW125814   1.669   1.928   5.870  0.8882 -0.5035  0.4321
 6057SOL    HW225815   1.783   1.839   5.793  0.1569 -0.1258 -1.1032
 6058SOL     OW25816   8.224   3.147   5.239  0.6513 -0.4336  0.7958
 6058SOL    HW125817   8.169   3.151   5.155  0.3417  0.1299  1.0200
 6058SOL    HW225818   8.164   3.162   5.318  1.3632  1.7618  0.9460
 6059SOL     OW25819   6.161   5.888   0.196 -0.6104  0.0115 -0.5176
 6059SOL    HW125820   6.136   5.915   0.289  0.3227 -2.3850  0.4840
 6059SOL    HW225821   6.118   5.949   0.130 -1.7074  1.4281  1.4757
 6060SOL     OW25822   1.296   7.000   5.666  0.1811 -0.4177  0.5959
 6060SOL    HW125823   1.293   6.947   5.751 -0.6178 -1.4334 -0.0517
 6060SOL    HW225824   1.350   6.950   5.598  1.7593  0.9229  0.8554
 6061SOL     OW25825   9.742   4.339   1.356  0.2959  0.2240  0.2289
 6061SOL    HW125826   9.673   4.400   1.318 -1.2058 -1.6097 -0.0190
 6061SOL    HW225827   9.765   4.268   1.290  2.4263  0.7986  0.3144
 6062SOL     OW25828   0.290   5.795   2.617 -0.1174  0.0897 -0.3666
 6062SOL    HW125829   0.281   5.867   2.549  0.1785 -1.4586 -2.0810
 6062SOL    HW225830   0.321   5.710   2.573  0.1514 -0.9305  1.6966
 6063SOL     OW25831   4.070   2.673   1.204 -0.4491  0.7452 -0.7704
 6063SOL    HW125832   4.139   2.685   1.133  0.3839 -0.7126 -0.2411
 6063SOL    HW225833   4.097   2.598   1.265 -1.7451  1.1596  0.3623
 6065SOL     OW25834   5.212   7.842   6.295  0.2194 -0.0112 -0.0666
 6065SOL    HW125835   5.160   7.926   6.308  0.3939 -0.1897  2.0069
 6065SOL    HW225836   5.163   7.782   6.231 -0.7084  0.9868 -0.3078
 6067SOL     OW25837   5.166   9.106   1.626 -0.3942  0.2191 -0.3333
 6067SOL    HW125838   5.212   9.166   1.692  0.6688 -1.2208  0.2494
 6067SOL    HW225839   5.174   9.146   1.535  1.2871  0.4387 -0.1174
 6068SOL     OW25840   4.199   9.481   1.973  0.5461  0.1144 -0.2121
 6068SOL    HW125841   4.114   9.429   1.983  0.2603  0.4533 -0.8324
 6068SOL    HW225842   4.253   9.474   2.057  0.0416 -0.3417  0.0776
 6070SOL     OW25843   7.642   8.576   5.257 -0.3431 -0.3169  0.3141
 6070SOL    HW125844   7.726   8.595   5.207  0.6629  0.7442  2.3075
 6070SOL    HW225845   7.644   8.483   5.292 -1.3243 -1.2605 -2.0927
 6072SOL     OW25846   9.492   8.354   4.079  0.0788  0.3035  0.4033
 6072SOL    HW125847   9.508   8.449   4.104 -0.8984  0.4277  0.5582
 6072SOL    HW225848   9.396   8.341   4.053  0.4949 -0.3644 -0.8483
 6073SOL     OW25849   0.747   3.229   5.324  0.2961 -0.8757 -0.3128
 6073SOL    HW125850   0.810   3.169   5.275 -1.6737 -2.9050 -0.4233
 6073SOL    HW225851   0.656   3.223   5.282 -0.2731  1.0780  0.5985
 6074SOL     OW25852   1.216   0.493   2.732  0.2060 -0.1541  1.0319
 6074SOL    HW125853   1.292   0.438   2.697  1.1450  1.3325  0.6695
 6074SOL    HW225854   1.130   0.447   2.712  0.8386 -0.4168 -1.2919
 6076SOL     OW25855   9.931   5.143   4.918 -0.2176  0.0872 -0.3121
 6076SOL    HW125856   9.937   5.240   4.896  0.0201  0.4307  1.1935
 6076SOL    HW225857  10.019   5.099   4.897  0.3177  0.6004  0.8269
 6078SOL     OW25858   6.762   2.058   5.467  0.0591  0.2723  0.2257
 6078SOL    HW125859   6.717   1.995   5.404 -0.1604  0.9163 -0.2672
 6078SOL    HW225860   6.712   2.058   5.554 -0.2632  0.1689  0.0435
 6079SOL     OW25861   4.384   3.839   1.667  0.4053 -0.2454  0.3167
 6079SOL    HW125862   4.474   3.878   1.648  0.9250 -0.3641  2.4407
 6079SOL    HW225863   4.380   3.809   1.762 -1.6872 -0.7894  0.0780
 6080SOL     OW25864   0.191   9.734   0.506  0.0647  0.2642  0.0163
 6080SOL    HW125865   0.121   9.670   0.475 -0.4822  1.1311 -0.5788
 6080SOL    HW225866   0.223   9.707   0.596 -0.8997 -0.2624  0.2091
 6081SOL     OW25867   1.428   7.166   1.253 -0.1323  0.3116  0.1153
 6081SOL    HW125868   1.396   7.114   1.332 -0.0158 -0.2114 -0.1780
 6081SOL    HW225869   1.464   7.254   1.284 -1.0939  0.5638  0.5270
 6083SOL     OW25870   0.987   4.039   1.945  0.1211  0.5323  0.0701
 6083SOL    HW125871   1.039   4.120   1.971 -0.4705  1.4999 -1.6868
 6083SOL    HW225872   0.890   4.054   1.966 -0.0579  0.4893 -0.7194
 6084SOL     OW25873   4.645   0.594   5.808  0.1237  0.2065  0.7993
 6084SOL    HW125874   4.573   0.530   5.782 -0.3333 -0.0587  2.5912
 6084SOL    HW225875   4.616   0.644   5.890  2.1933 -0.3041  1.8841
 6085SOL     OW25876   9.712   6.281   2.667 -0.1887  0.3178 -0.5407
 6085SOL    HW125877   9.706   6.186   2.698  3.3469 -0.3487 -1.6922
 6085SOL    HW225878   9.687   6.343   2.741 -0.9580 -1.4542  0.7014
 6087SOL     OW25879   4.965   5.526   2.515  0.2533 -0.0552 -0.4429
 6087SOL    HW125880   4.909   5.609   2.522 -1.2077 -0.9763 -0.9231
 6087SOL    HW225881   4.968   5.496   2.419  0.3957 -0.8125 -0.2023
 6089SOL     OW25882   2.591   0.062   2.788  0.2510 -0.1855 -0.5594
 6089SOL    HW125883   2.587   0.139   2.724 -0.7096 -0.1668 -0.4835
 6089SOL    HW225884   2.686   0.030   2.796  0.5742  0.6538 -0.9844
 6091SOL     OW25885   0.758   8.505   5.094  0.1229  0.6074 -0.3489
 6091SOL    HW125886   0.729   8.483   5.000 -1.5072  0.9912  0.0538
 6091SOL    HW225887   0.736   8.601   5.113  0.1361  0.4287  0.5428
 6092SOL     OW25888   1.832   7.805   1.168 -0.3450 -0.2192  0.0322
 6092SOL    HW125889   1.863   7.892   1.206 -3.3800  1.5059 -1.2297
 6092SOL    HW225890   1.755   7.772   1.221  0.9647 -2.3194  0.6630
 6093SOL     OW25891   0.410   1.130   2.859 -0.1616  0.5450  0.3176
 6093SOL    HW125892   0.397   1.224   2.890  1.3233  1.2810 -1.2122
 6093SOL    HW225893   0.336   1.073   2.895 -0.8964  2.2167  1.5373
 6094SOL     OW25894   9.927   6.414   3.818  0.4405 -0.1722 -0.3701
 6094SOL    HW125895   9.984   6.377   3.745 -1.0212 -1.4167 -0.9082
 6094SOL    HW225896   9.831   6.413   3.789 -0.0915 -0.1329  1.3534
 6095SOL     OW25897   8.702   6.072   0.259  0.2793  0.3938 -0.3861
 6095SOL    HW125898   8.784   6.032   0.299  0.0023  1.1506  0.9692
 6095SOL    HW225899   8.630   6.077   0.329 -0.6158  0.6090 -1.3061
 6096SOL     OW25900   8.543   3.578   3.175  0.2281 -0.6232 -0.3718
 6096SOL    HW125901   8.589   3.568   3.087  0.3521 -1.1998 -0.2439
 6096SOL    HW225902   8.611   3.572   3.249  0.4900  2.2419 -0.3058
 6097SOL     OW25903   8.005   9.352   3.069  0.2708 -0.3502  0.0356
 6097SOL    HW125904   7.912   9.355   3.104 -0.6623 -1.0865 -2.2981
 6097SOL    HW225905   8.041   9.445   3.062 -0.3881 -0.0431  0.6498
 6098SOL     OW25906   0.752   1.397   1.763  0.0924 -0.3804 -0.1947
 6098SOL    HW125907   0.812   1.475   1.747  0.2693 -0.2626  0.9856
 6098SOL    HW225908   0.710   1.405   1.854  0.1568 -1.6714 -0.0390
 6100SOL     OW25909   8.914   9.369   2.067 -0.3320  0.4911  0.1097
 6100SOL    HW125910   8.900   9.467   2.081 -0.7444  0.5087 -0.4245
 6100SOL    HW225911   8.997   9.354   2.014 -2.0399  0.7190 -2.7067
 6101SOL     OW25912   5.704   0.412   1.629  0.1541  0.4356 -0.4773
 6101SOL    HW125913   5.635   0.483   1.615  0.8683  1.3199  0.3479
 6101SOL    HW225914   5.737   0.416   1.724 -0.4691 -1.6206 -0.1628
 6102SOL     OW25915   0.568   3.470   0.736 -0.3131 -0.2001  0.3448
 6102SOL    HW125916   0.532   3.416   0.660 -1.8203  0.7447  0.3565
 6102SOL    HW225917   0.537   3.431   0.823  1.9850 -1.6895  0.5354
 6104SOL     OW25918   0.082   1.584   3.006 -0.3970 -0.1174  0.5615
 6104SOL    HW125919   0.127   1.647   2.944  0.9093  0.2714  1.8825
 6104SOL    HW225920   0.107   1.606   3.100 -1.8345 -1.1011  1.1971
 6105SOL     OW25921   5.349   5.307   1.882  0.5550  0.1745 -0.0501
 6105SOL    HW125922   5.419   5.368   1.918  0.2469  0.2907  0.3520
 6105SOL    HW225923   5.360   5.299   1.783  1.4453 -0.2006  0.0720
 6106SOL     OW25924   3.134   0.220   1.163  0.0175 -0.6269 -0.1743
 6106SOL    HW125925   3.162   0.127   1.141  0.3316 -0.3346 -1.0256
 6106SOL    HW225926   3.035   0.229   1.151 -0.0373 -0.8918  0.0701
 6107SOL     OW25927   7.322   2.017   3.825  0.1126  0.1740  0.2358
 6107SOL    HW125928   7.243   2.061   3.866  0.6710  0.1059  1.4072
 6107SOL    HW225929   7.357   1.947   3.887  0.5942 -0.3659 -0.6298
 6108SOL     OW25930   5.920   3.408   0.158 -0.5347 -0.6596 -0.6630
 6108SOL    HW125931   5.856   3.331   0.155 -0.5881 -0.7366  1.6632
 6108SOL    HW225932   5.870   3.492   0.178 -0.0428 -0.5872  0.3046
 6109SOL     OW25933   4.431   6.243   3.493  0.1489  0.3818 -0.2559
 6109SOL    HW125934   4.385   6.235   3.405  1.4509  0.7078 -0.9770
 6109SOL    HW225935   4.456   6.338   3.509  3.9703 -0.3103 -1.6650
 6110SOL     OW25936   7.383   8.608   5.369 -0.0486 -0.0128 -0.4578
 6110SOL    HW125937   7.308   8.615   5.304 -0.5258 -1.7785 -0.1095
 6110SOL    HW225938   7.469   8.631   5.323 -0.3183 -1.6517 -1.8299
 6111SOL     OW25939   9.455   7.100   4.378 -0.0481 -0.5477  0.0029
 6111SOL    HW125940   9.365   7.132   4.405 -0.0247 -1.1677  0.8269
 6111SOL    HW225941   9.447   7.039   4.299 -0.2750 -0.0519 -0.3600
 6112SOL     OW25942   2.319   7.756   1.645  0.0819 -0.2230 -0.1950
 6112SOL    HW125943   2.289   7.847   1.618 -1.1422 -0.2092  1.1950
 6112SOL    HW225944   2.298   7.740   1.741  0.3342 -1.9555 -0.3989
 6113SOL     OW25945   5.338   8.286   2.359 -0.0364 -0.2290  0.0868
 6113SOL    HW125946   5.327   8.262   2.262 -2.9280  0.4086  0.2097
 6113SOL    HW225947   5.253   8.266   2.408  1.1742  0.0865  2.3637
 6114SOL     OW25948   3.873   0.906   3.470  0.1570  0.0541 -0.4285
 6114SOL    HW125949   3.879   0.983   3.533  1.7140  0.6182 -1.2274
 6114SOL    HW225950   3.964   0.866   3.457 -0.3970 -1.0187 -1.1251
 6117SOL     OW25951   3.668   0.159   3.673  0.4287  0.4880 -0.2974
 6117SOL    HW125952   3.646   0.121   3.583 -0.2915  0.3617 -0.0732
 6117SOL    HW225953   3.606   0.235   3.694 -0.3255 -0.3749  0.6781
 6118SOL     OW25954   4.431   1.455   5.470 -0.2113 -0.5636  0.0093
 6118SOL    HW125955   4.407   1.364   5.436  0.9386 -0.9791  0.2926
 6118SOL    HW225956   4.473   1.447   5.561  2.0745  0.0374 -0.9657
 6119SOL     OW25957   7.177   7.710   4.162  0.6728  0.2517  0.0544
 6119SOL    HW125958   7.184   7.809   4.150  0.2035  0.2954  0.1220
 6119SOL    HW225959   7.090   7.688   4.205  0.1020 -0.3028 -1.3449
 6121SOL     OW25960   2.804   1.682   1.912  0.1971  0.5092  0.2356
 6121SOL    HW125961   2.874   1.723   1.853 -0.7148  1.0843 -0.4687
 6121SOL    HW225962   2.766   1.752   1.972 -0.3487  0.3820  0.0394
 6122SOL     OW25963   7.284   0.565   2.546 -0.1674 -0.5097 -0.2869
 6122SOL    HW125964   7.200   0.530   2.586 -0.5157  1.1013  0.4336
 6122SOL    HW225965   7.264   0.649   2.494  1.2038  0.7769  1.1865
 6123SOL     OW25966   0.319   7.111   1.129  0.2900 -0.1020 -0.5655
 6123SOL    HW125967   0.346   7.192   1.079  0.6126  0.2588  0.1776
 6123SOL    HW225968   0.234   7.075   1.092  0.5589  0.1261 -1.3980
 6124SOL     OW25969   7.524   1.531   4.340  0.6321  0.2569 -0.2537
 6124SOL    HW125970   7.568   1.542   4.430  0.4181  0.4942 -0.1747
 6124SOL    HW225971   7.437   1.483   4.351  0.7353  0.0455 -0.3702
 6125SOL     OW25972   9.119   1.054   2.322 -0.0765 -0.0359  0.1629
 6125SOL    HW125973   9.160   0.969   2.290  0.8549  0.2323  0.6119
 6125SOL    HW225974   9.173   1.132   2.290  0.7470  0.2484  2.1302
 6126SOL     OW25975   1.140   9.987   1.179  0.0372  0.0892  0.1331
 6126SOL    HW125976   1.212   9.976   1.111  0.1175  0.4566  0.1536
 6126SOL    HW225977   1.051   9.962   1.140  0.2444 -0.8631  0.2669
 6127SOL     OW25978   8.388   2.107   5.497  0.3824 -0.4298  0.2590
 6127SOL    HW125979   8.487   2.095   5.499  0.2947 -0.9576  2.0420
 6127SOL    HW225980   8.356   2.105   5.402  2.3444  2.0642 -0.5054
 6128SOL     OW25981   3.382   1.458   3.935 -0.4121 -0.1770  0.1375
 6128SOL    HW125982   3.350   1.517   3.861 -0.6972 -0.1670  0.2694
 6128SOL    HW225983   3.362   1.363   3.912  0.9459 -0.3228 -0.5399
 6129SOL     OW25984   7.359   8.213   2.857  0.2667 -0.5204  0.6554
 6129SOL    HW125985   7.426   8.253   2.920 -0.3196  0.1476  0.8652
 6129SOL    HW225986   7.397   8.130   2.817  0.8017 -0.7460  1.6003
 6130SOL     OW25987   2.769   3.426   4.972  0.0843  0.8509  0.1926
 6130SOL    HW125988   2.701   3.469   4.912  0.3120 -0.9152 -1.3559
 6130SOL    HW225989   2.794   3.337   4.936  4.5412  2.1826 -0.2024
 6131SOL     OW25990   4.233   0.891   5.607 -0.1043 -0.3204 -0.2648
 6131SOL    HW125991   4.262   0.797   5.589  0.9524 -0.2768  1.1241
 6131SOL    HW225992   4.211   0.936   5.520  0.8706 -1.3817 -1.0777
 6133SOL     OW25993   4.586   5.891   2.088  0.3226 -0.0991  0.2375
 6133SOL    HW125994   4.495   5.867   2.055  0.4906 -0.8562  0.3109
 6133SOL    HW225995   4.655   5.864   2.020  0.4183  1.4387 -0.2888
 6134SOL     OW25996   4.770   4.271   3.059  0.4439 -0.1148 -0.5037
 6134SOL    HW125997   4.692   4.234   3.008 -1.7089  0.6534  2.1241
 6134SOL    HW225998   4.818   4.197   3.106 -0.8459 -0.1855  0.7196
 6136SOL     OW25999   3.055   0.838   4.087  0.0092  0.2319  0.3016
 6136SOL    HW126000   3.087   0.778   4.013 -0.4461  0.5061 -0.1195
 6136SOL    HW226001   2.992   0.787   4.145 -0.5095  0.3453 -0.1545
 6138SOL     OW26002   0.789   6.305   1.919 -0.2221  0.1694  0.2506
 6138SOL    HW126003   0.697   6.299   1.883  0.3318 -2.6393 -0.7896
 6138SOL    HW226004   0.844   6.367   1.862 -1.0229  0.5959 -0.0557
 6139SOL     OW26005   6.101   0.734   1.117 -0.1706  0.2954  0.0951
 6139SOL    HW126006   6.102   0.692   1.027 -1.0214 -0.9531  0.6476
 6139SOL    HW226007   6.124   0.666   1.187  0.1427  1.1586  0.8546
 6140SOL     OW26008   8.763   2.212   0.269 -0.0188 -0.2625  0.3156
 6140SOL    HW126009   8.763   2.252   0.361 -0.6304 -1.3477  0.7914
 6140SOL    HW226010   8.669   2.188   0.243  0.1141  0.2959 -0.7139
 6141SOL     OW26011   8.142   6.030   3.837 -0.0928  0.3117 -0.2088
 6141SOL    HW126012   8.167   5.940   3.873  1.5293  0.2238 -1.4757
 6141SOL    HW226013   8.083   6.018   3.757  1.3817  0.2995 -1.3186
 6142SOL     OW26014   0.219   1.582   5.148 -0.4205  0.1826 -0.0673
 6142SOL    HW126015   0.226   1.525   5.230  1.3802  0.5534  0.0645
 6142SOL    HW226016   0.307   1.580   5.099 -0.5039  2.3885 -0.3476
 6143SOL     OW26017   9.729   9.268   4.647 -0.1026  0.1171 -0.2920
 6143SOL    HW126018   9.779   9.198   4.595 -0.5010  1.0581 -1.9677
 6143SOL    HW226019   9.754   9.359   4.613 -0.7666  0.7225  0.8263
 6145SOL     OW26020   3.539   5.630   3.769  0.2428 -0.7444 -0.1258
 6145SOL    HW126021   3.449   5.604   3.802  0.5074 -0.4401  0.8451
 6145SOL    HW226022   3.572   5.562   3.703 -0.0765 -1.6069  0.6017
 6146SOL     OW26023   9.084   4.712   6.186  0.3662  0.4829 -0.0828
 6146SOL    HW126024   9.055   4.636   6.245  0.5985  1.0840  0.8191
 6146SOL    HW226025   9.131   4.675   6.106  0.9994 -0.3107  0.6393
 6147SOL     OW26026   1.134   4.945   3.344  0.1943 -0.0071  0.2428
 6147SOL    HW126027   1.156   4.902   3.431 -1.4247 -1.1636  0.1037
 6147SOL    HW226028   1.124   5.044   3.357  0.4684 -0.1128  1.2555
 6148SOL     OW26029   7.202   1.851   5.718  0.0150 -0.0442  0.0159
 6148SOL    HW126030   7.148   1.918   5.668 -1.0603 -1.0967 -0.2539
 6148SOL    HW226031   7.233   1.890   5.805 -0.5488  0.8092 -0.1686
 6149SOL     OW26032   8.515   1.766   0.980  0.5503 -0.4559  0.0654
 6149SOL    HW126033   8.565   1.741   0.897  1.3842 -0.2306  0.4959
 6149SOL    HW226034   8.576   1.814   1.043 -0.5408  0.9954  0.0476
 6150SOL     OW26035   8.120   3.315   0.535  0.2062  0.5071  0.3545
 6150SOL    HW126036   8.128   3.238   0.470  0.1792  1.0571 -0.3090
 6150SOL    HW226037   8.110   3.279   0.628  0.3822 -0.2937  0.0730
 6151SOL     OW26038   4.087   9.174   6.010 -0.1658 -0.3137  0.2919
 6151SOL    HW126039   4.055   9.241   5.943 -0.3725  0.0358  0.7335
 6151SOL    HW226040   4.150   9.110   5.966 -1.2819 -0.8634 -0.5347
 6152SOL     OW26041   0.255   4.340   6.142 -0.2436 -0.0826  0.9793
 6152SOL    HW126042   0.301   4.331   6.054  2.1825  0.5265  2.1394
 6152SOL    HW226043   0.189   4.265   6.153 -0.1366 -0.4966 -1.0860
 6153SOL     OW26044   7.895   4.616   6.023  0.5357  0.1502 -0.2886
 6153SOL    HW126045   7.827   4.689   6.012 -0.2734 -0.4140  0.8726
 6153SOL    HW226046   7.970   4.630   5.959  0.4542  2.0793  0.0319
 6154SOL     OW26047   8.788   4.675   2.561  0.3931  0.1412 -0.1133
 6154SOL    HW126048   8.706   4.705   2.512  0.7694  2.1047  0.4112
 6154SOL    HW226049   8.774   4.582   2.597 -1.3768  0.2491 -0.5087
 6155SOL     OW26050   2.030   5.106   4.604  0.3469  0.3131  0.3635
 6155SOL    HW126051   2.009   5.068   4.695 -3.4375  0.6789 -0.2680
 6155SOL    HW226052   1.948   5.149   4.567  2.1545  1.1386 -2.8072
 6156SOL     OW26053   3.603   5.247   3.128  0.2596 -0.4744  0.2568
 6156SOL    HW126054   3.572   5.164   3.176  1.5489 -0.0035  1.9768
 6156SOL    HW226055   3.595   5.325   3.190  0.7809  0.3743 -0.7406
 6157SOL     OW26056   0.927   9.338   6.263  0.3675 -0.7007 -0.3857
 6157SOL    HW126057   1.025   9.349   6.276  0.4020 -2.7910  1.4638
 6157SOL    HW226058   0.878   9.382   6.339 -0.0645 -0.4918 -0.7846
 6159SOL     OW26059   3.272   8.571   0.656  0.4859 -0.3958 -0.0827
 6159SOL    HW126060   3.244   8.493   0.711 -0.1014  0.6880  1.1780
 6159SOL    HW226061   3.243   8.558   0.562  1.0044 -2.0099 -0.0284
 6160SOL     OW26062   0.894   7.805   4.162  0.2959  0.4003  0.0269
 6160SOL    HW126063   0.903   7.705   4.166 -1.7814  0.1975  0.8377
 6160SOL    HW226064   0.853   7.831   4.075 -0.9507  0.3347  0.5677
 6162SOL     OW26065   8.784   2.503   1.365 -0.6028  0.1409 -0.1453
 6162SOL    HW126066   8.703   2.552   1.397 -1.3447 -1.7378  0.9120
 6162SOL    HW226067   8.796   2.419   1.418  0.8046 -0.7077 -1.7459
 6163SOL     OW26068   2.578   3.227   4.829 -0.5627 -0.2669  0.4859
 6163SOL    HW126069   2.547   3.256   4.920  0.4010  0.4011  0.6080
 6163SOL    HW226070   2.664   3.177   4.838 -0.4341 -0.1480 -0.0669
 6164SOL     OW26071   5.436   0.608   2.030 -0.0344  0.2312  0.5009
 6164SOL    HW126072   5.368   0.681   2.041 -1.0425 -0.6336  0.1110
 6164SOL    HW226073   5.487   0.596   2.115 -0.7757  0.5014  0.9861
 6165SOL     OW26074   8.621   5.077   3.038  0.0681 -0.2582  0.0733
 6165SOL    HW126075   8.539   5.105   3.088  0.9972  1.6337  0.5693
 6165SOL    HW226076   8.698   5.070   3.100  0.5603 -0.9175 -0.5918
 6167SOL     OW26077   1.120   7.706   6.351  0.0914 -0.4215 -0.1996
 6167SOL    HW126078   1.143   7.663   6.264  2.0058  0.0975  0.0293
 6167SOL    HW226079   1.112   7.805   6.338  0.1232 -0.3710  0.1654
 6169SOL     OW26080   0.786   0.185   1.013 -0.2283 -0.6423 -0.4792
 6169SOL    HW126081   0.732   0.197   1.096 -1.9985  0.7322 -1.7824
 6169SOL    HW226082   0.749   0.108   0.961 -1.7059  0.9939 -1.9193
 6172SOL     OW26083   7.021   2.981   0.676 -0.2640  0.1442 -0.4525
 6172SOL    HW126084   6.958   2.922   0.726  1.0699 -0.0159  1.0626
 6172SOL    HW226085   7.047   2.937   0.591 -0.3965 -0.8157 -0.0059
 6173SOL     OW26086   2.023   8.937   4.356  0.0597  0.0957  0.3063
 6173SOL    HW126087   1.988   8.867   4.294  0.8716  0.3217 -0.4219
 6173SOL    HW226088   1.951   8.964   4.420 -1.0732  0.5139 -1.1264
 6174SOL     OW26089   9.116   0.916   2.848  0.2838 -0.0976 -0.6923
 6174SOL    HW126090   9.169   0.835   2.824  1.8051  1.0433 -1.2169
 6174SOL    HW226091   9.133   0.989   2.781  0.6983  1.4185  1.0231
 6176SOL     OW26092   7.081   0.871   0.403 -0.2247  0.5010 -0.5016
 6176SOL    HW126093   7.103   0.902   0.495  1.2072  1.5562 -1.1787
 6176SOL    HW226094   7.090   0.947   0.339 -1.9669 -0.0370 -1.4104
 6177SOL     OW26095   3.593   3.822   1.114 -0.4825  0.0756 -0.3944
 6177SOL    HW126096   3.494   3.809   1.117 -0.4895  0.1454 -0.3172
 6177SOL    HW226097   3.616   3.887   1.043 -0.6529  1.5461  0.8646
 6178SOL     OW26098   2.812   3.942   1.867 -0.4738  0.5612  0.1831
 6178SOL    HW126099   2.910   3.957   1.850 -0.0324 -1.3393  0.8934
 6178SOL    HW226100   2.768   4.029   1.887  1.5994  1.1550  2.3961
 6179SOL     OW26101   1.732   4.764   3.449  0.1998 -0.4473 -0.1265
 6179SOL    HW126102   1.799   4.814   3.393  0.9006 -0.5130  0.6444
 6179SOL    HW226103   1.711   4.677   3.404 -0.5192  0.2454 -1.1335
 6180SOL     OW26104   7.822   8.588   5.022  0.1592  0.0502  0.1286
 6180SOL    HW126105   7.756   8.622   4.956 -0.4443 -0.8359  0.2698
 6180SOL    HW226106   7.864   8.504   4.987  1.3200  0.6740 -0.0274
 6181SOL     OW26107   8.409   0.855   0.157 -0.1342  0.4144 -0.1349
 6181SOL    HW126108   8.442   0.941   0.118 -0.3360  0.7672  0.4595
 6181SOL    HW226109   8.484   0.809   0.204 -0.2662  0.7932  0.4657
 6182SOL     OW26110   9.674   9.787   5.819  0.0353 -0.2103 -0.0177
 6182SOL    HW126111   9.763   9.828   5.836 -0.2009 -0.5678  2.2457
 6182SOL    HW226112   9.631   9.831   5.740  1.2282  1.5265  0.2875
 6183SOL     OW26113   6.596   0.059   2.770 -0.4623  0.1795 -0.1858
 6183SOL    HW126114   6.562   0.071   2.863 -1.0881  1.0706 -0.5176
 6183SOL    HW226115   6.588  -0.037   2.743 -0.8982  0.0370  0.4413
 6184SOL     OW26116   0.349   4.545   4.215 -0.3523 -0.0294 -0.1655
 6184SOL    HW126117   0.363   4.629   4.163  1.0819  0.0048  0.2540
 6184SOL    HW226118   0.421   4.537   4.284  0.2636 -2.2418 -1.0385
 6188SOL     OW26119   5.673   0.912   1.423 -0.3266 -0.2380  0.1315
 6188SOL    HW126120   5.695   0.957   1.509 -0.8292  1.1772 -0.4619
 6188SOL    HW226121   5.735   0.835   1.408  0.4243  0.1437  1.2463
 6189SOL     OW26122   7.504   9.630   1.824  0.3708 -0.2965  0.8995
 6189SOL    HW126123   7.425   9.675   1.783  0.3950 -0.3370  0.8114
 6189SOL    HW226124   7.526   9.675   1.911  0.3792 -0.1565  0.8247
 6191SOL     OW26125   3.592   3.617   1.333  0.4499  0.0224  0.0958
 6191SOL    HW126126   3.686   3.638   1.361  0.7365  0.0984 -0.8909
 6191SOL    HW226127   3.572   3.665   1.247 -0.6346  0.3454  0.5251
 6193SOL     OW26128   0.732   3.524   5.222  0.2190  0.3027  0.1065
 6193SOL    HW126129   0.729   3.428   5.248 -0.7964  0.5433  0.8745
 6193SOL    HW226130   0.759   3.580   5.301 -0.9172  0.8273  0.1321
 6194SOL     OW26131   9.629   2.389   1.019  0.4091  0.0394 -0.6550
 6194SOL    HW126132   9.699   2.446   1.063 -0.1453  0.0510  0.2195
 6194SOL    HW226133   9.673   2.320   0.963  1.1523 -0.3364  0.3697
 6195SOL     OW26134   5.121   0.795   0.128  0.1654 -0.4475 -0.4493
 6195SOL    HW126135   5.199   0.737   0.102  0.1534 -0.0601 -1.3900
 6195SOL    HW226136   5.036   0.746   0.107  0.1553 -0.1171 -1.1942
 6196SOL     OW26137   8.628   4.439   3.797  0.2809 -0.2417  0.5736
 6196SOL    HW126138   8.553   4.374   3.793  0.9034 -0.9634  0.4136
 6196SOL    HW226139   8.598   4.529   3.764 -0.3457 -0.6758 -0.0364
 6197SOL     OW26140   2.705   1.203   4.363 -0.0464  0.1797 -0.3577
 6197SOL    HW126141   2.764   1.282   4.379  0.1535 -0.2950  1.3572
 6197SOL    HW226142   2.713   1.173   4.268  2.4950  0.1111 -0.1494
 6199SOL     OW26143   2.326   8.821   0.548 -0.0518 -0.0645 -0.0020
 6199SOL    HW126144   2.334   8.772   0.635  0.2098 -1.7884 -0.9727
 6199SOL    HW226145   2.284   8.761   0.480  0.9950  0.7930 -1.4415
 6200SOL     OW26146   2.179   3.086   0.503 -0.1677 -0.5426  0.1851
 6200SOL    HW126147   2.127   3.026   0.563 -0.9169  1.4342  1.5356
 6200SOL    HW226148   2.277   3.075   0.522 -0.3471 -0.7321  1.0115
 6201SOL     OW26149   3.546   9.434   1.888 -0.3740 -0.1885 -0.1692
 6201SOL    HW126150   3.561   9.369   1.814  0.1550 -0.4197  0.1397
 6201SOL    HW226151   3.593   9.403   1.971 -1.2791 -0.1343  0.3730
 6202SOL     OW26152   2.890   3.349   1.206 -0.8467 -0.2436 -0.2965
 6202SOL    HW126153   2.861   3.398   1.287 -1.0894 -1.1824  0.1923
 6202SOL    HW226154   2.824   3.363   1.132  0.3134  2.1266 -0.9518
 6205SOL     OW26155   9.866   4.471   5.230  0.4334  0.1966 -0.3583
 6205SOL    HW126156   9.811   4.475   5.314  5.4071 -0.2588  3.0796
 6205SOL    HW226157   9.890   4.564   5.202  0.9236  0.2281  0.1791
 6207SOL     OW26158   0.994   8.186   3.446  0.3352  0.1435  0.2765
 6207SOL    HW126159   0.995   8.167   3.544  1.6557 -0.5283  0.1447
 6207SOL    HW226160   0.900   8.199   3.416 -0.2845 -1.8345  1.2325
 6208SOL     OW26161   1.199   1.564   2.315  0.1928  0.6505 -0.2531
 6208SOL    HW126162   1.269   1.494   2.332 -0.0517  0.6660  0.8937
 6208SOL    HW226163   1.121   1.522   2.269  0.6163  0.4595 -0.8008
 6209SOL     OW26164   5.152   8.853   2.896  0.1919  0.0886 -0.0558
 6209SOL    HW126165   5.220   8.894   2.836 -1.2381  0.6025 -1.3423
 6209SOL    HW226166   5.097   8.787   2.845 -2.2505  1.8852  0.2017
 6210SOL     OW26167   8.555   7.236   5.629 -0.8053  0.5487 -0.2159
 6210SOL    HW126168   8.528   7.140   5.633 -0.8974  0.5971  0.4300
 6210SOL    HW226169   8.624   7.249   5.557 -0.6897 -0.0249 -0.2089
 6212SOL     OW26170   4.305   7.954   5.497 -0.5113  0.5848 -0.2836
 6212SOL    HW126171   4.339   8.031   5.442  0.8599  0.9254  1.0004
 6212SOL    HW226172   4.214   7.976   5.533 -1.1515  0.6191 -1.8727
 6213SOL     OW26173   9.313   4.309   2.158  0.3212  0.0911  0.2014
 6213SOL    HW126174   9.239   4.267   2.106  1.1865 -1.0899 -0.0975
 6213SOL    HW226175   9.285   4.319   2.254 -0.2341 -0.3137  0.0847
 6214SOL     OW26176   9.102   9.990   1.543  0.1186 -0.3446 -0.1447
 6214SOL    HW126177   9.065   9.940   1.621  1.5894 -2.7940 -0.9560
 6214SOL    HW226178   9.123   9.925   1.469  2.0059  1.5003 -1.2781
 6215SOL     OW26179   4.413   4.509   3.415  0.0838  0.2806  0.4802
 6215SOL    HW126180   4.320   4.497   3.381  0.5264  1.0148 -1.0460
 6215SOL    HW226181   4.424   4.603   3.448  0.5545  0.4768 -0.2260
 6216SOL     OW26182   8.464   7.767   3.506  0.6530  0.0033 -0.2889
 6216SOL    HW126183   8.391   7.833   3.487  1.3844  0.7967 -0.3164
 6216SOL    HW226184   8.478   7.709   3.425  2.8306  2.4989 -1.7415
 6217SOL     OW26185   2.380   7.835   3.555 -0.6144 -0.4130  0.5623
 6217SOL    HW126186   2.449   7.882   3.610 -0.2584  0.3958 -0.5694
 6217SOL    HW226187   2.293   7.883   3.562 -0.0946  0.8144 -1.1032
 6218SOL     OW26188   3.976   0.066   0.150 -0.4616 -0.3302  0.2116
 6218SOL    HW126189   3.980  -0.021   0.100 -1.4752  0.3787 -1.1568
 6218SOL    HW226190   4.004   0.140   0.088  2.9374  0.0615  2.0989
 6220SOL     OW26191   7.364   5.963   5.778 -0.0574  0.2013 -0.2928
 6220SOL    HW126192   7.269   5.940   5.757  0.6872 -1.8649 -1.5871
 6220SOL    HW226193   7.393   5.915   5.862 -0.1667  0.8202  0.0955
 6221SOL     OW26194   8.740   2.117   1.255 -0.0373  0.3111 -0.2366
 6221SOL    HW126195   8.818   2.160   1.209 -0.6109  2.1654  0.4653
 6221SOL    HW226196   8.752   2.124   1.354 -1.0498  0.5096 -0.1251
 6222SOL     OW26197   3.006   1.598   2.354  0.6435 -0.0227  0.4673
 6222SOL    HW126198   3.087   1.539   2.357  0.5156 -0.2469 -0.5402
 6222SOL    HW226199   3.021   1.673   2.291  0.4488  0.5137  1.0537
 6224SOL     OW26200   4.775   1.302   1.538 -0.0948 -0.0180  0.4923
 6224SOL    HW126201   4.726   1.361   1.474  0.8042 -0.5742 -0.7176
 6224SOL    HW226202   4.817   1.359   1.609 -0.1567  0.6978 -0.0318
 6225SOL     OW26203   3.196   0.203   5.214  0.0529 -0.3456  0.0495
 6225SOL    HW126204   3.190   0.108   5.182  2.0144 -0.4937  0.0242
 6225SOL    HW226205   3.230   0.260   5.140  2.3381 -0.2696  1.1136
 6226SOL     OW26206   3.159   6.696   1.218 -0.1538  0.0817 -0.2816
 6226SOL    HW126207   3.088   6.722   1.152  0.4614  0.5703 -0.7632
 6226SOL    HW226208   3.234   6.652   1.170  0.2587  0.3545  0.1115
 6230SOL     OW26209   1.221   5.686   3.765 -0.3020 -0.0763  0.2109
 6230SOL    HW126210   1.288   5.758   3.782 -0.8040  0.2778  0.7240
 6230SOL    HW226211   1.155   5.716   3.696 -0.9816  0.2722  1.0005
 6231SOL     OW26212   3.207   9.119   4.145 -0.3564 -0.0265  0.2601
 6231SOL    HW126213   3.287   9.162   4.188 -0.8735 -0.0491  1.2496
 6231SOL    HW226214   3.219   9.119   4.046  0.1923  1.3323  0.3156
 6232SOL     OW26215   3.857   9.950   4.170 -0.3796  0.7287 -0.2320
 6232SOL    HW126216   3.924   9.959   4.096  0.2946  1.2532  0.4326
 6232SOL    HW226217   3.809  10.037   4.182 -0.6642  0.5694 -0.2268
 6234SOL     OW26218   9.640   7.300   4.153  0.0188 -0.1907 -0.1747
 6234SOL    HW126219   9.544   7.313   4.127  0.2891  0.6137 -0.8268
 6234SOL    HW226220   9.674   7.384   4.195  0.6918 -0.1368 -0.8101
 6235SOL     OW26221   6.523   2.025   0.380  0.0136 -0.4182  0.1216
 6235SOL    HW126222   6.480   1.962   0.444 -0.2343  0.6807  1.0672
 6235SOL    HW226223   6.521   1.987   0.288 -0.1164 -1.7818  0.6810
 6236SOL     OW26224   5.604   1.323   4.946  0.0608  0.2697 -0.5294
 6236SOL    HW126225   5.535   1.311   5.017  1.6262 -0.5618  0.8854
 6236SOL    HW226226   5.571   1.282   4.861 -0.3797 -1.9707  0.6682
 6237SOL     OW26227   1.754   1.221   3.464 -0.0710  0.0643  0.4239
 6237SOL    HW126228   1.695   1.142   3.481 -2.5985  1.9184  0.3746
 6237SOL    HW226229   1.728   1.265   3.378 -0.0143  2.1346  1.4331
 6238SOL     OW26230   4.497   6.807   2.939 -0.2152  0.0749  0.6250
 6238SOL    HW126231   4.486   6.891   2.992  0.3380  1.4959 -1.4320
 6238SOL    HW226232   4.590   6.771   2.952  0.2416  0.9657 -0.1372
 6239SOL     OW26233   9.408   0.745   2.165 -0.6810 -0.3479 -0.7133
 6239SOL    HW126234   9.388   0.649   2.143  0.1727 -0.3066 -1.6915
 6239SOL    HW226235   9.345   0.804   2.116 -0.5868 -0.3730 -0.8662
 6242SOL     OW26236   7.316   1.032   1.004  0.3097 -0.5420 -0.0145
 6242SOL    HW126237   7.351   1.125   0.993 -0.4148 -0.0717  1.5101
 6242SOL    HW226238   7.246   1.031   1.075  0.8355 -2.3919  0.5051
 6243SOL     OW26239   6.940   1.332   3.804  0.2414  0.1408  0.0298
 6243SOL    HW126240   6.914   1.336   3.708 -0.1378 -0.6768  0.0965
 6243SOL    HW226241   6.873   1.278   3.855  0.6339  0.2658  0.6827
 6244SOL     OW26242   2.125   5.831   2.864 -0.3397  0.1030  0.1435
 6244SOL    HW126243   2.077   5.848   2.950  0.3263 -1.0442  0.7413
 6244SOL    HW226244   2.174   5.914   2.837 -0.9939  0.6385  0.5825
 6245SOL     OW26245   3.664   0.439   2.473  0.1136 -0.7083 -0.2715
 6245SOL    HW126246   3.573   0.416   2.438 -0.5079 -0.8598  1.3783
 6245SOL    HW226247   3.709   0.356   2.506 -0.2982 -0.2466  1.5058
 6246SOL     OW26248   0.025   6.759   2.613 -0.3555  0.1913 -0.0371
 6246SOL    HW126249   0.016   6.803   2.524  0.3801  0.9669  0.2612
 6246SOL    HW226250   0.083   6.678   2.605  0.0005  0.4621 -0.2040
 6247SOL     OW26251   3.084   3.550   3.034 -0.0978  0.0635  0.2296
 6247SOL    HW126252   3.045   3.462   3.008 -0.6113  0.3331  0.0753
 6247SOL    HW226253   3.121   3.596   2.954 -1.0560  0.5862  0.0735
 6249SOL     OW26254   4.572   3.759   0.784  0.5835  0.2564 -0.2201
 6249SOL    HW126255   4.575   3.781   0.687  2.1502 -0.3862 -0.3270
 6249SOL    HW226256   4.621   3.674   0.801 -3.0309 -1.7774  0.5871
 6250SOL     OW26257   0.348   1.847   1.731  0.1488  0.4291  0.4968
 6250SOL    HW126258   0.357   1.756   1.691 -0.5445  1.3367 -1.8198
 6250SOL    HW226259   0.399   1.913   1.677 -1.9168  1.9155  0.2850
 6251SOL     OW26260   2.775   1.649   5.394 -0.7592  0.0268 -0.2484
 6251SOL    HW126261   2.824   1.573   5.353  0.1712  0.6939 -0.3962
 6251SOL    HW226262   2.684   1.657   5.353 -0.5210 -0.4477 -0.8662
 6252SOL     OW26263   4.600   9.557   2.160  0.0898  0.4580  0.0528
 6252SOL    HW126264   4.621   9.607   2.244  1.5728  0.5508 -0.3596
 6252SOL    HW226265   4.617   9.460   2.174 -0.8098  0.3225  0.2212
 6253SOL     OW26266   3.520   4.267   4.259  0.0774 -0.4411 -0.2886
 6253SOL    HW126267   3.599   4.269   4.320  0.4398 -0.9888 -0.7359
 6253SOL    HW226268   3.533   4.333   4.185 -0.3528  0.2082  0.1991
 6254SOL     OW26269   9.156   5.396   5.592  0.2427 -0.4666  0.3109
 6254SOL    HW126270   9.248   5.372   5.624  2.1027  1.6215 -3.1050
 6254SOL    HW226271   9.131   5.336   5.516 -1.5070 -1.3729  1.5659
 6255SOL     OW26272   2.120   8.725   5.949 -0.0983 -0.0398 -0.0696
 6255SOL    HW126273   2.059   8.797   5.917  0.5639  0.7280  0.3982
 6255SOL    HW226274   2.072   8.669   6.017 -0.7415 -0.2879 -0.7223
 6256SOL     OW26275   2.687   6.469   0.289 -0.8948  0.8212 -0.2868
 6256SOL    HW126276   2.665   6.507   0.379 -3.2811 -0.2145 -0.3922
 6256SOL    HW226277   2.748   6.391   0.301 -2.5709 -0.3931  0.6224
 6258SOL     OW26278   3.408   5.024   0.752  0.1549 -0.4531  0.4264
 6258SOL    HW126279   3.328   5.081   0.772  1.0701 -0.0631  3.1727
 6258SOL    HW226280   3.395   4.933   0.791  1.0198 -0.4225  0.7895
 6259SOL     OW26281   6.941   2.897   2.526  0.1350 -1.0859  0.3127
 6259SOL    HW126282   6.936   2.798   2.511  0.7335 -1.2648  1.2330
 6259SOL    HW226283   7.037   2.925   2.524  0.0353 -0.6989  1.1568
 6260SOL     OW26284   8.303   4.843   4.496 -0.2160 -0.1990 -0.2932
 6260SOL    HW126285   8.283   4.804   4.586 -0.8633 -3.9275 -1.9565
 6260SOL    HW226286   8.379   4.793   4.454  0.5890  2.0031 -1.5123
 6262SOL     OW26287   9.541   8.061   4.055 -0.5781 -0.5725 -0.3547
 6262SOL    HW126288   9.583   8.009   4.129  0.2711  0.1364 -0.3302
 6262SOL    HW226289   9.497   8.144   4.092  1.8200  0.9754 -0.8862
 6265SOL     OW26290   2.636   3.807   1.481  0.0300 -0.0685  0.0028
 6265SOL    HW126291   2.613   3.728   1.538 -1.4993 -0.0079 -0.5208
 6265SOL    HW226292   2.613   3.891   1.529  0.3589  0.0309 -0.0093
 6266SOL     OW26293   2.607   6.232   5.932 -0.9068  0.3000 -0.1555
 6266SOL    HW126294   2.559   6.302   5.880 -0.8921  0.3032 -0.1654
 6266SOL    HW226295   2.690   6.271   5.972 -0.9161  0.2968 -0.1330
 6267SOL     OW26296   9.167   9.258   0.400  0.1677  0.2286  0.4879
 6267SOL    HW126297   9.201   9.276   0.493  0.4914 -0.3081  0.4759
 6267SOL    HW226298   9.105   9.180   0.402  0.3016  0.1144  0.2278
 6269SOL     OW26299   0.915   6.702   4.953 -0.2880  0.5275 -0.3979
 6269SOL    HW126300   0.830   6.676   5.000  0.1648 -1.0874 -0.4553
 6269SOL    HW226301   0.901   6.790   4.907 -2.6440 -0.7446 -2.2322
 6270SOL     OW26302   9.400   0.749   3.631 -0.2706 -0.0460  0.4694
 6270SOL    HW126303   9.366   0.656   3.645 -1.5595  0.3379 -0.0407
 6270SOL    HW226304   9.496   0.746   3.603  0.0203 -1.1652  1.5650
 6271SOL     OW26305   8.487   6.243   2.553  0.0795 -0.1192  0.2387
 6271SOL    HW126306   8.449   6.151   2.541  1.6871 -0.7390 -0.1717
 6271SOL    HW226307   8.412   6.310   2.552 -0.8062 -1.0710 -3.2186
 6272SOL     OW26308   8.102   1.251   5.906 -0.1186 -0.3230 -0.5574
 6272SOL    HW126309   8.100   1.344   5.944 -0.5785  0.2325 -1.9149
 6272SOL    HW226310   8.098   1.185   5.981 -3.8489  0.7296  0.2790
 6273SOL     OW26311   4.741   8.435   1.722 -0.6392  0.3014 -0.3591
 6273SOL    HW126312   4.753   8.525   1.765 -0.5043  0.4287 -0.6667
 6273SOL    HW226313   4.741   8.445   1.623 -0.7509 -0.0245 -0.3929
 6274SOL     OW26314   1.323   0.278   6.051 -0.1177  0.0319 -0.6335
 6274SOL    HW126315   1.260   0.209   6.017  1.3087 -1.2011 -0.8051
 6274SOL    HW226316   1.382   0.311   5.977 -1.1370  1.8328 -0.6727
 6276SOL     OW26317   0.403   3.678   0.496  0.1710  0.1195 -0.5869
 6276SOL    HW126318   0.394   3.581   0.473 -2.1672 -0.5055  2.6106
 6276SOL    HW226319   0.484   3.692   0.553 -0.2122 -0.1646  0.0263
 6278SOL     OW26320   4.773   9.958   0.036  0.8114  0.5523 -0.4369
 6278SOL    HW126321   4.707   9.966  -0.038 -0.2690 -0.5857  0.3830
 6278SOL    HW226322   4.734   9.995   0.120  0.6192 -1.4323  0.3903
 6279SOL     OW26323   1.495   3.095   4.294  0.1388 -0.0839  0.3640
 6279SOL    HW126324   1.574   3.141   4.333 -0.8163  0.1982  2.0354
 6279SOL    HW226325   1.525   3.025   4.230  1.7761 -0.5871  1.6364
 6280SOL     OW26326   9.914   8.890   6.452 -0.2767  0.4025 -0.1586
 6280SOL    HW126327   9.889   8.840   6.535 -0.3101  1.8892  0.7585
 6280SOL    HW226328  10.013   8.891   6.442 -0.2715  0.2330 -0.1287
 6281SOL     OW26329   1.353   6.744   1.783  0.8438 -0.1979 -0.7629
 6281SOL    HW126330   1.271   6.797   1.762  1.4323  1.0247 -0.0158
 6281SOL    HW226331   1.354   6.723   1.880  1.6597  0.2150 -0.6800
 6282SOL     OW26332   5.638   8.067   5.979 -0.2613  1.0475  0.1488
 6282SOL    HW126333   5.678   8.133   6.043 -0.1384  0.0444  1.1321
 6282SOL    HW226334   5.544   8.049   6.006 -0.0507  0.2395  0.3575
 6283SOL     OW26335   3.615   9.201   2.307 -0.4247  0.3445 -0.3335
 6283SOL    HW126336   3.706   9.159   2.310 -0.1680  0.9844  1.4857
 6283SOL    HW226337   3.547   9.132   2.286  0.0835 -0.8660  1.8649
 6284SOL     OW26338   1.323   7.603   2.388  0.6984  0.2963 -0.1534
 6284SOL    HW126339   1.376   7.587   2.471 -0.0273  0.2104  0.2957
 6284SOL    HW226340   1.226   7.595   2.408  0.5713 -2.4399 -1.5636
 6285SOL     OW26341   0.722   9.138   5.750 -0.1639 -0.1245 -0.5830
 6285SOL    HW126342   0.781   9.202   5.701 -0.4049  0.5512  0.0053
 6285SOL    HW226343   0.651   9.188   5.800  0.0709 -0.7870  0.4517
 6286SOL     OW26344   6.859   9.808   3.969 -0.4194 -0.6066 -0.2075
 6286SOL    HW126345   6.847   9.749   3.889 -0.3262 -1.6713  0.5533
 6286SOL    HW226346   6.948   9.790   4.011 -0.7488 -0.5373  0.5277
 6287SOL     OW26347   1.430   5.174   1.946 -0.2732 -0.0795 -0.0659
 6287SOL    HW126348   1.349   5.149   2.000  0.3843 -0.5304  0.7292
 6287SOL    HW226349   1.403   5.235   1.872 -1.3671 -0.3398  0.1040
 6288SOL     OW26350   9.538   2.845   4.598  0.7942  0.3993 -0.1028
 6288SOL    HW126351   9.588   2.821   4.681  0.0740 -1.8632 -0.2881
 6288SOL    HW226352   9.602   2.855   4.522  1.2685  0.6162  0.3196
 6289SOL     OW26353   4.396   1.216   2.924  0.2270 -0.1621 -0.1468
 6289SOL    HW126354   4.302   1.195   2.953 -0.8102  1.9996 -1.7732
 6289SOL    HW226355   4.430   1.293   2.978  0.4674  0.0835 -0.6464
 6291SOL     OW26356   0.515   1.793   5.361  0.5680 -0.1421 -0.4574
 6291SOL    HW126357   0.509   1.878   5.309 -1.9222 -0.5519 -0.9025
 6291SOL    HW226358   0.495   1.811   5.457 -0.0111 -0.2065 -0.5603
 6293SOL     OW26359   7.151   8.557   2.797  0.0762  0.4833 -0.2998
 6293SOL    HW126360   7.194   8.556   2.888  0.5678  1.0284 -0.5273
 6293SOL    HW226361   7.130   8.463   2.769  0.2574  0.2875  0.2141
 6294SOL     OW26362   9.930   3.984   6.228  0.1077 -0.2235 -0.1789
 6294SOL    HW126363   9.969   3.897   6.256 -1.0023  0.5527  4.0188
 6294SOL    HW226364   9.864   3.968   6.154 -0.7322 -3.0628  1.1001
 6295SOL     OW26365   8.951   3.932   2.402 -0.3009  0.1434 -0.1809
 6295SOL    HW126366   8.899   3.988   2.468  1.2020  0.7942  0.4692
 6295SOL    HW226367   9.040   3.909   2.441 -1.0655 -3.1967 -0.2111
 6297SOL     OW26368   7.054   2.021   3.276  0.4478  0.2460 -0.2423
 6297SOL    HW126369   7.087   2.075   3.353  1.2171 -0.4950 -0.0430
 6297SOL    HW226370   7.128   2.009   3.209  0.5144 -1.1737  0.0643
 6298SOL     OW26371   8.187   9.745   6.197  0.1202  0.1044  0.4530
 6298SOL    HW126372   8.135   9.830   6.203 -0.8374 -0.5190  1.0563
 6298SOL    HW226373   8.126   9.667   6.207  1.3527 -0.6180  2.7229
 6299SOL     OW26374   3.201   9.527   0.609  0.1863  0.2112  0.2560
 6299SOL    HW126375   3.118   9.480   0.578  0.5767 -0.7053  0.5843
 6299SOL    HW226376   3.275   9.460   0.619 -0.2176  0.2979  4.2868
 6300SOL     OW26377   1.171   0.639   5.648 -0.0547  0.4797 -0.0011
 6300SOL    HW126378   1.169   0.731   5.684 -0.7608 -0.0810  1.3969
 6300SOL    HW226379   1.128   0.637   5.557 -0.8956  1.3336  0.3781
 6301SOL     OW26380   0.752   0.597   4.234  0.0948  0.5560  0.0236
 6301SOL    HW126381   0.737   0.689   4.269  1.0546  0.8138 -0.2442
 6301SOL    HW226382   0.837   0.560   4.271  0.9120  0.6800 -1.7074
 6302SOL     OW26383   2.527   2.478   1.954  0.1992 -0.0909 -0.3500
 6302SOL    HW126384   2.611   2.522   1.921 -0.1467  0.4912 -0.4533
 6302SOL    HW226385   2.469   2.546   1.998  0.0629 -0.6142  0.2907
 6303SOL     OW26386   9.664   4.601   4.878 -0.7599  0.1865  0.0200
 6303SOL    HW126387   9.735   4.655   4.832 -0.0664  0.8438  1.8156
 6303SOL    HW226388   9.684   4.504   4.866 -0.6167  0.3413 -1.0941
 6304SOL     OW26389   2.523   6.377   1.941 -0.2234  0.1317  0.1811
 6304SOL    HW126390   2.480   6.455   1.988  0.8719  0.0521  1.3600
 6304SOL    HW226391   2.543   6.305   2.008  3.0125  0.7439 -0.0758
 6306SOL     OW26392   9.379   2.365   2.883 -0.3415  0.0220  0.2576
 6306SOL    HW126393   9.450   2.295   2.875  0.2051  0.3928  1.6939
 6306SOL    HW226394   9.345   2.388   2.792  1.9559  0.4138 -0.5332
 6307SOL     OW26395   1.541   2.924   1.648 -0.4862 -0.7992 -0.1782
 6307SOL    HW126396   1.553   2.899   1.745 -3.1216 -0.9502  0.1375
 6307SOL    HW226397   1.508   2.844   1.598  2.4684 -1.2152 -1.6038
 6308SOL     OW26398   7.368   1.799   3.975 -0.3786 -0.4020 -0.2123
 6308SOL    HW126399   7.445   1.752   3.931  1.3857  1.3785  0.8874
 6308SOL    HW226400   7.317   1.733   4.031 -0.9114 -2.0394 -2.5451
 6310SOL     OW26401   0.839   5.187   2.376 -0.1765 -0.0090  0.5777
 6310SOL    HW126402   0.910   5.235   2.325 -1.1989  1.1106  0.2020
 6310SOL    HW226403   0.882   5.123   2.440  1.1254 -0.7200 -0.9883
 6311SOL     OW26404   6.085   4.563   1.148 -0.0088  0.4231 -0.5822
 6311SOL    HW126405   5.996   4.521   1.132 -0.0875  0.2833  0.1936
 6311SOL    HW226406   6.074   4.648   1.199  0.2522  0.7585 -1.0750
 6312SOL     OW26407   0.345   0.625   4.209 -0.6064 -0.2073  0.7271
 6312SOL    HW126408   0.422   0.568   4.237 -1.3238 -0.8219  1.5190
 6312SOL    HW226409   0.262   0.568   4.206 -1.8261  1.2546  3.8926
 6313SOL     OW26410   2.173   6.609   2.297  0.0838 -0.9318  0.3024
 6313SOL    HW126411   2.273   6.608   2.291 -0.0073 -0.7336 -1.4040
 6313SOL    HW226412   2.137   6.519   2.274 -0.1886 -0.6839 -0.2486
 6314SOL     OW26413   8.846   1.931   6.070  0.6291  0.6588  0.1627
 6314SOL    HW126414   8.777   1.967   6.007  2.6683  1.0825 -1.8647
 6314SOL    HW226415   8.855   1.994   6.148 -0.1169  1.4213 -0.3613
 6315SOL     OW26416   8.657   7.694   0.650  1.1903 -0.2514  0.2244
 6315SOL    HW126417   8.689   7.788   0.643  0.9165 -0.3010 -1.9471
 6315SOL    HW226418   8.707   7.636   0.585 -1.5804 -0.7702 -1.5347
 6316SOL     OW26419   3.121   6.862   3.810 -0.3542  0.0281  0.5438
 6316SOL    HW126420   3.131   6.956   3.777 -3.4391  1.2956  2.9082
 6316SOL    HW226421   3.200   6.838   3.866  1.3551  0.4770 -1.5768
 6318SOL     OW26422   5.960   0.932   2.698 -0.0152  0.6770 -0.2788
 6318SOL    HW126423   5.864   0.934   2.727  0.2316  1.0819  0.5485
 6318SOL    HW226424   6.019   0.926   2.779  0.7271  2.3844 -0.6590
 6319SOL     OW26425   9.358   3.095   2.186  0.7744 -0.6779 -0.4488
 6319SOL    HW126426   9.410   3.180   2.193  2.7715 -1.8079 -1.1973
 6319SOL    HW226427   9.320   3.072   2.275  0.8423  0.6034 -0.0770
 6321SOL     OW26428   3.935   5.212   1.372  0.0732  0.0337  0.1804
 6321SOL    HW126429   4.017   5.260   1.343 -1.2101  0.9785 -2.0261
 6321SOL    HW226430   3.933   5.207   1.472  1.9207  1.5582  0.3301
 6323SOL     OW26431   0.975   9.265   0.892  0.3126 -0.6613  0.4152
 6323SOL    HW126432   0.958   9.238   0.798  0.0295  0.4559  0.1351
 6323SOL    HW226433   1.010   9.358   0.894 -0.6506 -0.3055  1.4757
 6324SOL     OW26434   1.196   5.817   2.098  0.1472 -0.3169 -0.1313
 6324SOL    HW126435   1.293   5.829   2.076  0.6167 -1.5277  1.2028
 6324SOL    HW226436   1.148   5.777   2.020  0.7070  0.2876 -0.7939
 6325SOL     OW26437   6.776   2.470   2.689 -0.0317  0.0170 -0.2543
 6325SOL    HW126438   6.775   2.518   2.777 -0.7014 -1.0039  0.3063
 6325SOL    HW226439   6.696   2.411   2.683 -0.5991  0.9497 -2.0484
 6326SOL     OW26440   7.159   0.215   1.576 -0.2563 -0.0536  0.2539
 6326SOL    HW126441   7.084   0.227   1.510 -1.4541 -0.4497  1.5103
 6326SOL    HW226442   7.153   0.287   1.646 -0.9069 -1.4767  1.6864
 6327SOL     OW26443   7.784   7.746   0.050 -0.6223  0.0678  0.6450
 6327SOL    HW126444   7.770   7.649   0.068  1.9988 -0.2956  0.8892
 6327SOL    HW226445   7.761   7.798   0.132 -0.0971 -0.5379  1.1832
 6328SOL     OW26446   4.627   8.427   4.690  0.9058 -0.6564  0.5825
 6328SOL    HW126447   4.710   8.389   4.649  1.7615  0.8234  0.8971
 6328SOL    HW226448   4.547   8.389   4.644  1.7708 -1.8146  0.0174
 6329SOL     OW26449   9.424   8.520   4.987 -0.0151  0.0033 -0.1368
 6329SOL    HW126450   9.338   8.515   4.935  0.9000 -1.0133 -1.5920
 6329SOL    HW226451   9.439   8.613   5.018 -2.2123 -0.0319  1.1117
 6331SOL     OW26452   3.144   4.747   3.088  0.0626  0.0600  0.4224
 6331SOL    HW126453   3.151   4.648   3.076 -0.8393 -0.0237  0.5729
 6331SOL    HW226454   3.135   4.767   3.185 -1.0983  0.2067  0.2859
 6332SOL     OW26455   9.560   1.177   3.263 -0.6051 -0.2524  0.2177
 6332SOL    HW126456   9.520   1.260   3.224  1.0416  0.2175 -0.5166
 6332SOL    HW226457   9.660   1.186   3.264 -0.4642 -1.8333  1.0323
 6333SOL     OW26458   8.713   4.089   4.748  0.0353 -0.0167  0.2079
 6333SOL    HW126459   8.742   4.012   4.806 -0.6019 -1.2990 -1.1328
 6333SOL    HW226460   8.614   4.097   4.752 -0.0798 -0.5904 -1.2680
 6334SOL     OW26461   3.459   1.351   0.750  0.2296  0.1443  0.1632
 6334SOL    HW126462   3.433   1.293   0.827 -0.0048 -1.6520 -1.2308
 6334SOL    HW226463   3.402   1.434   0.750 -1.0256 -0.6944  0.8716
 6335SOL     OW26464   4.492   8.416   4.357  0.3622 -0.5122  0.2273
 6335SOL    HW126465   4.584   8.438   4.324  0.4380 -0.6544  0.3420
 6335SOL    HW226466   4.451   8.347   4.297  0.0561  0.0599 -0.2306
 6336SOL     OW26467   9.095   0.493   1.049  0.0573  0.3986  0.0354
 6336SOL    HW126468   9.186   0.491   1.006  0.7964  1.0163  1.5336
 6336SOL    HW226469   9.037   0.422   1.008  0.8609  0.7061 -1.6891
 6337SOL     OW26470   0.354   5.043   0.420  0.3147 -0.5046  0.3162
 6337SOL    HW126471   0.409   5.126   0.434  0.7970 -1.0374  1.6807
 6337SOL    HW226472   0.413   4.963   0.424 -0.4285 -1.0329  0.8752
 6339SOL     OW26473   1.909   5.422   2.876 -0.0758 -0.1754 -0.2958
 6339SOL    HW126474   1.925   5.333   2.920  1.3613 -0.2101 -0.8445
 6339SOL    HW226475   1.944   5.420   2.783 -0.4429  0.8307 -0.4621
 6340SOL     OW26476   9.463   5.678   5.113  0.2625 -0.0414 -0.2654
 6340SOL    HW126477   9.511   5.761   5.143 -3.0930  1.1524  2.1969
 6340SOL    HW226478   9.526   5.619   5.062  3.7146  2.3388  1.0400
 6341SOL     OW26479   7.776   4.468   2.215 -0.3444 -0.1938 -0.5765
 6341SOL    HW126480   7.786   4.522   2.298 -1.4261  0.0093 -0.5717
 6341SOL    HW226481   7.756   4.373   2.239 -0.9337 -0.0779 -0.6051
 6342SOL     OW26482   2.905   6.670   5.112  0.5955  0.0972  0.3653
 6342SOL    HW126483   2.834   6.739   5.097 -0.5761 -0.8324  1.5036
 6342SOL    HW226484   2.907   6.606   5.036  0.8771  0.6930 -0.1301
 6344SOL     OW26485   8.604   9.608   2.962 -0.2460  0.0006 -0.1176
 6344SOL    HW126486   8.558   9.638   2.878  0.0455 -0.4818 -0.4505
 6344SOL    HW226487   8.677   9.673   2.985  0.2623 -0.3530 -0.7342
 6345SOL     OW26488   2.707   3.399   4.191 -0.0146  0.0054 -1.0601
 6345SOL    HW126489   2.744   3.491   4.182 -0.8263  0.3172 -1.2519
 6345SOL    HW226490   2.771   3.333   4.150  0.5661  0.4760 -0.9237
 6347SOL     OW26491   3.986   9.376   5.847  0.1038 -0.2919  0.6839
 6347SOL    HW126492   3.900   9.354   5.893  0.0574 -0.0953  0.6924
 6347SOL    HW226493   4.006   9.474   5.857 -1.1623  0.2766 -1.8107
 6348SOL     OW26494   4.400   5.642   3.668  0.0421 -0.1468  0.7190
 6348SOL    HW126495   4.441   5.710   3.607  1.4556 -0.6049  1.1301
 6348SOL    HW226496   4.384   5.557   3.617 -1.5618  0.4298  0.2491
 6350SOL     OW26497   0.936   4.258   3.662 -0.0289 -0.7329 -0.1556
 6350SOL    HW126498   0.896   4.171   3.691 -1.5293  0.1027  0.3546
 6350SOL    HW226499   0.863   4.321   3.635  1.0469  0.3083 -0.6966
 6352SOL     OW26500   0.668   8.372   6.354  0.2555 -0.6438 -0.0453
 6352SOL    HW126501   0.701   8.356   6.261 -1.6860  0.5733 -0.9585
 6352SOL    HW226502   0.731   8.433   6.402  1.4976 -1.6345 -0.3722
 6354SOL     OW26503   1.371   4.731   2.517 -0.4370  0.1489 -0.2823
 6354SOL    HW126504   1.470   4.727   2.533 -0.5185 -2.5072 -0.1263
 6354SOL    HW226505   1.353   4.778   2.431  0.9102  1.3490  0.0711
 6357SOL     OW26506   7.394   7.449   5.531 -0.3419 -0.0606 -0.2597
 6357SOL    HW126507   7.350   7.420   5.616  1.1164 -1.1547  0.1485
 6357SOL    HW226508   7.469   7.386   5.509 -0.6543  0.2404 -2.3245
 6358SOL     OW26509   7.061   3.659   0.919  0.7558  0.1005 -0.1194
 6358SOL    HW126510   7.149   3.706   0.911  0.3946  0.6157 -1.2573
 6358SOL    HW226511   7.017   3.655   0.829 -0.1302 -0.6510  0.3321
 6359SOL     OW26512   2.910   5.895   1.786  0.2464  0.1081  0.2453
 6359SOL    HW126513   2.899   5.799   1.814  0.7418  0.3201  1.2034
 6359SOL    HW226514   2.944   5.948   1.864  1.1346  0.8311 -0.6255
 6362SOL     OW26515   4.693   4.117   3.698 -0.1621  0.7443 -0.2970
 6362SOL    HW126516   4.776   4.169   3.681 -0.6966  1.5006 -0.5802
 6362SOL    HW226517   4.638   4.113   3.615 -0.1551 -0.2205 -0.2606
 6363SOL     OW26518   2.286   4.177   0.605  0.5071  0.2689  0.2553
 6363SOL    HW126519   2.224   4.162   0.682 -0.5625 -0.7958 -0.7924
 6363SOL    HW226520   2.295   4.093   0.552  1.4605  0.9090 -0.6271
 6365SOL     OW26521   9.628   2.061   5.349 -0.2903  0.0517 -0.2132
 6365SOL    HW126522   9.635   1.962   5.364  1.5492  0.3501  1.2223
 6365SOL    HW226523   9.659   2.109   5.432  0.0867  1.8362 -1.3614
 6366SOL     OW26524   6.927   8.735   4.946  0.2408  0.3825  0.2574
 6366SOL    HW126525   7.019   8.749   4.910 -0.0298  0.4990 -0.3901
 6366SOL    HW226526   6.923   8.765   5.041  1.1901 -0.7546  0.6561
 6367SOL     OW26527   7.386   9.833   4.174 -0.1746  0.6739  0.3004
 6367SOL    HW126528   7.461   9.827   4.240  0.7878  2.0160 -0.6232
 6367SOL    HW226529   7.390   9.922   4.129 -0.3909 -0.4808 -2.0561
 6368SOL     OW26530   0.978   1.433   5.369  0.2139 -0.5518 -0.0660
 6368SOL    HW126531   0.884   1.405   5.388  0.1458 -1.2581 -1.3599
 6368SOL    HW226532   1.029   1.441   5.454  0.0004 -3.8032  0.4025
 6369SOL     OW26533   3.699   9.863   5.417 -0.3160  0.5266 -0.2314
 6369SOL    HW126534   3.663   9.915   5.495 -0.9305 -1.2998  0.7370
 6369SOL    HW226535   3.799   9.867   5.418 -0.2574 -0.7410  1.5604
 6371SOL     OW26536   4.288   6.623   3.261 -0.3194 -0.1888 -0.8824
 6371SOL    HW126537   4.217   6.622   3.331 -0.0963  0.1846 -0.6518
 6371SOL    HW226538   4.335   6.711   3.262 -0.2591 -0.2140 -1.4431
 6372SOL     OW26539   7.979   4.510   5.360 -0.0496  0.1250  0.2045
 6372SOL    HW126540   7.978   4.449   5.440  0.4529  3.9244  3.2696
 6372SOL    HW226541   8.074   4.537   5.341 -0.1560 -0.8418 -1.8179
 6374SOL     OW26542   4.872   0.501   5.871  0.6526 -0.0371 -0.2469
 6374SOL    HW126543   4.784   0.543   5.850  1.9643  2.2881 -1.3192
 6374SOL    HW226544   4.891   0.511   5.969  0.0801  0.1331 -0.1516
 6375SOL     OW26545   0.266   8.379   3.415 -0.0420  0.0334  0.4743
 6375SOL    HW126546   0.312   8.461   3.449 -1.7913  0.4959  1.7776
 6375SOL    HW226547   0.324   8.299   3.431  0.8928  0.7849  0.8677
 6376SOL     OW26548   8.340   0.858   5.438  0.0438  0.2968  0.4243
 6376SOL    HW126549   8.389   0.771   5.429 -1.5492 -0.4195 -1.9039
 6376SOL    HW226550   8.365   0.919   5.362  0.6925  1.6664  1.7089
 6378SOL     OW26551   6.741   4.221   0.467 -0.0104  0.2130 -0.9875
 6378SOL    HW126552   6.645   4.245   0.452 -1.6272 -3.4613  2.5291
 6378SOL    HW226553   6.779   4.180   0.384 -2.0727 -0.0388 -1.8193
 6380SOL     OW26554   9.712   8.429   4.593 -0.3592  0.1542 -0.1517
 6380SOL    HW126555   9.692   8.392   4.684  1.2067 -2.7865 -0.9133
 6380SOL    HW226556   9.631   8.423   4.536 -0.5042 -0.8844  0.1547
 6381SOL     OW26557   5.669   7.383   3.394  0.0771  0.2602  0.2625
 6381SOL    HW126558   5.588   7.334   3.428 -0.0537 -0.5237 -1.1458
 6381SOL    HW226559   5.707   7.440   3.467 -1.8589  0.7826  0.8784
 6382SOL     OW26560   4.973   0.532   2.022  0.0830 -0.2719  0.1877
 6382SOL    HW126561   4.950   0.444   2.064 -0.3486  0.1523  0.8572
 6382SOL    HW226562   4.913   0.548   1.943  0.5124 -0.8171 -0.2434
 6383SOL     OW26563   8.645   7.361   4.689 -0.4361  0.0337 -0.0486
 6383SOL    HW126564   8.672   7.331   4.781 -0.9068  0.3858  0.2079
 6383SOL    HW226565   8.724   7.402   4.643 -0.3766  0.4903  0.4616
 6384SOL     OW26566   0.312   4.399   4.640  0.7419 -0.1700 -0.4896
 6384SOL    HW126567   0.249   4.352   4.703 -0.3907  1.2801 -0.5148
 6384SOL    HW226568   0.351   4.333   4.576  0.3604 -1.3272  0.4596
 6385SOL     OW26569   4.124   1.046   0.147 -0.5601  0.1831 -0.5344
 6385SOL    HW126570   4.216   1.009   0.160 -0.5954  0.5106  0.6801
 6385SOL    HW226571   4.129   1.146   0.143 -0.7899  0.1751 -1.1457
 6386SOL     OW26572   1.315   7.529   3.744  0.1427 -0.0354  0.7308
 6386SOL    HW126573   1.281   7.544   3.837  0.1464  1.4955  0.4890
 6386SOL    HW226574   1.240   7.541   3.679  0.6519  1.2224  0.3608
 6387SOL     OW26575   3.543   8.926   1.785 -0.1619  0.2579  0.2313
 6387SOL    HW126576   3.606   8.994   1.823  0.6673 -1.0256  1.1894
 6387SOL    HW226577   3.477   8.898   1.855 -0.9129  0.5406 -0.3514
 6388SOL     OW26578   3.668   1.080   4.813 -0.0508  0.2948  0.0944
 6388SOL    HW126579   3.728   1.058   4.890 -0.3639 -0.8516  0.0220
 6388SOL    HW226580   3.584   1.121   4.848 -0.7149 -1.3352  0.4902
 6389SOL     OW26581   4.304   5.337   6.061  0.2995  0.7212 -0.3503
 6389SOL    HW126582   4.384   5.397   6.061  0.6139  0.2986  0.5588
 6389SOL    HW226583   4.314   5.267   6.131 -0.7541  0.5098 -0.4027
 6390SOL     OW26584   7.895   1.032   1.283 -0.0417 -0.3681 -0.1811
 6390SOL    HW126585   7.909   0.934   1.272 -0.4917 -0.2961 -1.4439
 6390SOL    HW226586   7.801   1.048   1.314  0.3515 -0.3862  1.0735
 6391SOL     OW26587   1.920   1.710   0.402  0.0121 -0.7509  0.0644
 6391SOL    HW126588   1.919   1.808   0.422 -1.1639 -1.0765  1.7010
 6391SOL    HW226589   1.845   1.665   0.449  0.7626 -2.5214 -0.3572
 6392SOL     OW26590   8.085   6.264   1.531  0.0688 -0.5216  0.4950
 6392SOL    HW126591   7.989   6.263   1.501 -0.2818  2.8990  1.2510
 6392SOL    HW226592   8.092   6.225   1.622 -0.3690 -2.0270 -0.0955
 6393SOL     OW26593   3.787   7.100   0.560  0.3364 -0.1213 -0.4946
 6393SOL    HW126594   3.735   7.174   0.601 -0.1555 -1.5609  1.5753
 6393SOL    HW226595   3.883   7.108   0.587  0.4532  0.3171 -1.0572
 6394SOL     OW26596   5.263   0.694   3.038 -0.2356  0.0882 -0.4053
 6394SOL    HW126597   5.290   0.661   3.129  0.8927 -1.5828 -1.3175
 6394SOL    HW226598   5.173   0.659   3.015 -1.4628  2.2672  0.9292
 6396SOL     OW26599   6.389   9.233   3.159  0.1110  0.7485 -0.2391
 6396SOL    HW126600   6.314   9.293   3.186  0.5181  0.1765  2.3076
 6396SOL    HW226601   6.458   9.232   3.231  2.3133  0.8101 -2.2804
 6397SOL     OW26602   5.725   0.708   2.996  0.1194 -0.1816 -0.1182
 6397SOL    HW126603   5.671   0.791   2.981  0.5747  0.1096 -0.1469
 6397SOL    HW226604   5.667   0.638   3.036  0.6512  1.3944  3.6063
 6398SOL     OW26605   6.511   1.909   5.442 -0.3189 -0.3796 -0.6135
 6398SOL    HW126606   6.422   1.862   5.441 -0.7738  0.4271  0.5820
 6398SOL    HW226607   6.508   1.987   5.379 -0.9851  0.5606  0.5569
 6399SOL     OW26608   0.122   8.837   5.538  0.5655  0.0634 -0.2102
 6399SOL    HW126609   0.169   8.799   5.617 -1.5160 -0.1160  0.9816
 6399SOL    HW226610   0.040   8.886   5.568 -0.7802 -0.8310 -2.3131
 6400SOL     OW26611   4.044   4.537   5.185 -0.0457  0.3235  0.4161
 6400SOL    HW126612   4.048   4.447   5.140  0.9219 -0.2304  1.5946
 6400SOL    HW226613   4.122   4.592   5.157  0.0626  0.3159  0.7021
 6401SOL     OW26614   7.853   8.338   1.510 -0.6158  0.3991 -0.5283
 6401SOL    HW126615   7.786   8.307   1.577  0.7974  0.0279  0.7427
 6401SOL    HW226616   7.890   8.426   1.539 -1.3274  1.1296 -1.7872
 6403SOL     OW26617   7.497   3.320   3.014  0.3586  0.3003  0.5350
 6403SOL    HW126618   7.503   3.228   2.976 -0.3458  0.9786 -1.2494
 6403SOL    HW226619   7.401   3.345   3.027  0.4834  1.4686 -0.7057
 6405SOL     OW26620   3.372   4.122   1.832 -0.1824 -0.1775  0.2475
 6405SOL    HW126621   3.357   4.031   1.871  1.8359  0.0455  1.6237
 6405SOL    HW226622   3.468   4.132   1.806 -0.5536  1.2810 -0.6384
 6406SOL     OW26623   0.515   8.250   6.085  0.4228  0.0637  0.2918
 6406SOL    HW126624   0.571   8.168   6.073  0.0652 -0.0193 -0.8923
 6406SOL    HW226625   0.574   8.330   6.097  0.7965 -0.0238 -0.9228
 6407SOL     OW26626   4.694   9.004   0.832  0.3015 -0.3344 -0.6844
 6407SOL    HW126627   4.692   9.036   0.927 -0.6195  1.6440 -1.3247
 6407SOL    HW226628   4.715   9.081   0.772  2.1159 -1.8177 -2.0061
 6408SOL     OW26629   2.026   6.865   6.016 -0.4547  0.2174 -0.3759
 6408SOL    HW126630   2.009   6.803   5.941 -1.4564 -0.5693  0.4953
 6408SOL    HW226631   2.101   6.927   5.992  1.3979 -2.1235 -0.7856
 6409SOL     OW26632   6.894   4.629   1.368  0.1458 -0.7106  0.0796
 6409SOL    HW126633   6.987   4.629   1.404 -0.0517  1.1243  0.6616
 6409SOL    HW226634   6.891   4.682   1.282 -0.4169 -0.4522  0.2519
 6410SOL     OW26635   4.072   5.471   5.984  0.7135 -0.2757 -0.7062
 6410SOL    HW126636   4.151   5.416   6.007  0.1637 -0.2145  1.4169
 6410SOL    HW226637   4.097   5.568   5.986  0.1646 -0.1599  1.8086
 6411SOL     OW26638   9.958   8.050   2.208 -0.3219 -0.4695  0.0386
 6411SOL    HW126639   9.861   8.026   2.206 -1.6216  4.3979 -1.1754
 6411SOL    HW226640   9.993   8.056   2.115  1.4915 -3.1093  0.4891
 6414SOL     OW26641   8.687   0.714   3.706  0.2556  0.0464  0.3309
 6414SOL    HW126642   8.693   0.630   3.651  1.5171  2.0533 -2.7454
 6414SOL    HW226643   8.769   0.724   3.761  0.2960 -0.5430  0.3829
 6415SOL     OW26644   3.034   2.654   3.323  0.7650 -0.0655 -0.2649
 6415SOL    HW126645   3.029   2.576   3.261  0.8731 -1.7377  1.7755
 6415SOL    HW226646   3.115   2.645   3.382  1.5931  2.3440 -0.9669
 6417SOL     OW26647   0.727   4.066   1.484 -0.2159  0.5473 -0.3180
 6417SOL    HW126648   0.756   3.982   1.528 -2.2761 -0.0189 -0.0048
 6417SOL    HW226649   0.803   4.131   1.483  1.0721 -0.9255  0.3551
 6418SOL     OW26650   0.696   3.458   3.910 -0.0178  0.7766  0.4194
 6418SOL    HW126651   0.636   3.446   3.988 -3.4256  0.8039 -2.1012
 6418SOL    HW226652   0.678   3.546   3.866  1.3728  0.4845 -0.8118
 6419SOL     OW26653   6.063   9.743   4.216 -0.6382 -0.6732 -0.0147
 6419SOL    HW126654   6.085   9.699   4.129 -0.4723  1.5065 -1.1053
 6419SOL    HW226655   5.966   9.732   4.235 -0.8064 -0.6018 -0.8030
 6420SOL     OW26656   4.888   0.150   4.030  0.1703  0.1902 -0.3182
 6420SOL    HW126657   4.902   0.093   4.111  1.0689 -0.7343 -1.1076
 6420SOL    HW226658   4.797   0.133   3.993  0.0485  0.0289  0.0490
 6421SOL     OW26659   9.453   5.114   3.134 -0.0550  0.2289  0.4883
 6421SOL    HW126660   9.479   5.045   3.067  1.7801  0.0857  1.3054
 6421SOL    HW226661   9.456   5.205   3.092 -3.6777 -0.2376 -0.9263
 6423SOL     OW26662   9.257   2.714   2.428  0.0587  0.3182  0.2424
 6423SOL    HW126663   9.302   2.725   2.516 -0.6693 -1.6882  0.8983
 6423SOL    HW226664   9.325   2.713   2.355  0.6961  1.6063  0.8144
 6427SOL     OW26665   7.533   7.715   3.796  0.5511 -0.0072 -0.3169
 6427SOL    HW126666   7.598   7.785   3.765  1.5642 -1.4456 -1.4974
 6427SOL    HW226667   7.515   7.728   3.894  1.0050  1.6765 -0.4432
 6428SOL     OW26668   0.546   2.228   2.462  0.0605 -0.2324  0.2684
 6428SOL    HW126669   0.557   2.159   2.534 -0.0094 -0.3574  0.1599
 6428SOL    HW226670   0.449   2.250   2.452 -0.0183 -0.8496 -0.3771
 6429SOL     OW26671   1.690   1.516   2.267 -0.0510  0.3249 -0.1552
 6429SOL    HW126672   1.753   1.506   2.189 -0.1482 -0.7069 -0.1149
 6429SOL    HW226673   1.742   1.529   2.351  0.0719  0.8765 -0.3190
 6432SOL     OW26674   5.030   6.017   2.132  0.4974 -0.5168 -0.4240
 6432SOL    HW126675   5.028   6.095   2.195  1.4648 -0.0975 -0.9091
 6432SOL    HW226676   5.112   5.963   2.149 -0.2935 -1.5690  0.0728
 6433SOL     OW26677   5.640   0.899   2.077 -0.7108  0.2264  0.1470
 6433SOL    HW126678   5.648   0.988   2.033  0.9716  1.4499  2.8323
 6433SOL    HW226679   5.731   0.861   2.094 -1.3945 -1.6045 -0.1239
 6434SOL     OW26680   2.277   4.117   5.205  0.3919  0.0991  0.6917
 6434SOL    HW126681   2.283   4.217   5.215 -1.9743  0.2888  0.3686
 6434SOL    HW226682   2.258   4.095   5.109 -0.0040 -0.6245  0.9393
 6435SOL     OW26683   8.834   7.489   0.285 -0.2078  0.2047 -0.4134
 6435SOL    HW126684   8.793   7.422   0.346 -2.0466 -0.6611 -2.5432
 6435SOL    HW226685   8.931   7.467   0.271 -0.7186 -1.8952 -0.8809
 6437SOL     OW26686   5.072   1.710   2.741 -0.6084 -0.6752 -0.6620
 6437SOL    HW126687   5.171   1.714   2.730 -0.8097 -0.0269 -2.3658
 6437SOL    HW226688   5.045   1.770   2.816  0.1904  0.0117 -0.9117
 6438SOL     OW26689   0.692   1.172   6.239 -0.2017  0.3606  0.4296
 6438SOL    HW126690   0.763   1.226   6.193 -0.7881  0.9272  0.1816
 6438SOL    HW226691   0.659   1.222   6.319 -1.7140  1.0270 -0.5678
 6439SOL     OW26692   2.781   8.060   5.093  0.0445  0.2452  0.3505
 6439SOL    HW126693   2.816   8.114   5.170  0.6913 -0.1286  0.3268
 6439SOL    HW226694   2.725   8.118   5.035 -0.7506  0.4420  1.2991
 6440SOL     OW26695   8.151   4.036   0.165  0.5389  0.3802  0.0359
 6440SOL    HW126696   8.144   4.021   0.066  0.6182 -0.4446  0.1492
 6440SOL    HW226697   8.202   3.960   0.207  1.3929  1.2279  0.5776
 6441SOL     OW26698   4.510   8.681   3.285  0.1474 -0.1447 -0.8363
 6441SOL    HW126699   4.581   8.725   3.340 -0.8704 -0.4933  0.7724
 6441SOL    HW226700   4.480   8.743   3.213 -0.3630  1.3135  0.6026
 6442SOL     OW26701   2.223   9.082   0.218 -0.2606  0.2356 -0.2448
 6442SOL    HW126702   2.241   9.137   0.137  0.4527 -2.0640 -1.6920
 6442SOL    HW226703   2.241   8.986   0.198 -0.2191 -0.4051  2.6004
 6443SOL     OW26704   9.849   9.618   2.966  0.2011  0.3325  0.3063
 6443SOL    HW126705   9.936   9.627   3.015  0.4939 -0.7178 -0.0016
 6443SOL    HW226706   9.818   9.523   2.970 -2.1333  1.1479  2.3950
 6444SOL     OW26707   2.884   5.319   0.215  0.3720 -0.2918 -0.0033
 6444SOL    HW126708   2.904   5.409   0.175  0.9111 -0.8014 -0.8856
 6444SOL    HW226709   2.805   5.279   0.168  1.2793 -1.0851 -0.8583
 6445SOL     OW26710   0.090   0.975   1.924 -0.0824 -0.3643  0.2411
 6445SOL    HW126711   0.076   0.900   1.859 -1.6711  0.9613 -0.9668
 6445SOL    HW226712   0.168   1.030   1.894 -1.5019  0.9012 -1.1898
 6446SOL     OW26713   7.950   3.566   2.844  0.2953 -0.5475 -0.5372
 6446SOL    HW126714   8.047   3.542   2.846  0.3509 -0.4372 -1.8743
 6446SOL    HW226715   7.897   3.490   2.808  0.1335  0.2063 -1.8950
 6448SOL     OW26716   9.459   7.119   1.516  0.0060  0.7705 -0.4043
 6448SOL    HW126717   9.434   7.209   1.481  1.4969  1.7116  0.8568
 6448SOL    HW226718   9.557   7.104   1.501  0.3358  0.5201  1.8569
 6449SOL     OW26719   1.994   0.671   0.280  0.0417 -0.7070  0.0365
 6449SOL    HW126720   1.952   0.646   0.367 -0.9011  1.9122  0.3835
 6449SOL    HW226721   1.928   0.720   0.224  1.6290  0.5466 -0.7856
 6450SOL     OW26722   0.648   0.001   1.875  0.1051 -0.1613 -0.2832
 6450SOL    HW126723   0.578   0.043   1.817  0.4352 -0.6231 -1.0309
 6450SOL    HW226724   0.611  -0.014   1.967 -1.0660 -1.1747 -0.8974
 6451SOL     OW26725   8.085   6.983   2.329  0.2991  0.1366  0.1852
 6451SOL    HW126726   8.087   6.963   2.427 -1.7037  1.7110  0.5751
 6451SOL    HW226727   8.062   6.900   2.279 -0.2911 -0.3105  1.1799
 6452SOL     OW26728   9.217   7.378   3.084 -0.1035  0.4403 -0.4603
 6452SOL    HW126729   9.164   7.452   3.042 -1.2224 -0.4369 -0.5905
 6452SOL    HW226730   9.157   7.320   3.139  0.9864  0.3172  0.6222
 6454SOL     OW26731   9.559   3.491   0.224  0.5984 -0.6368  0.0842
 6454SOL    HW126732   9.594   3.503   0.317 -0.7746  0.4059  0.4986
 6454SOL    HW226733   9.500   3.410   0.222 -0.8567  0.3874  0.5978
 6455SOL     OW26734   5.763   0.675   1.019  0.1852 -0.0333  0.4151
 6455SOL    HW126735   5.780   0.722   0.932  0.8767 -1.0106  0.0089
 6455SOL    HW226736   5.666   0.681   1.042 -0.2312 -0.8228 -1.0703
 6456SOL     OW26737   1.914   8.270   4.192 -0.1818 -0.2502 -0.0670
 6456SOL    HW126738   1.901   8.297   4.288  0.1754  0.3081 -0.1725
 6456SOL    HW226739   1.828   8.236   4.155 -0.6637  0.8016  0.0607
 6457SOL     OW26740   0.827   6.323   6.103  0.7074 -0.1040  0.6010
 6457SOL    HW126741   0.903   6.300   6.043  0.3352 -2.5274  0.9963
 6457SOL    HW226742   0.811   6.421   6.101  2.9211  0.2599 -0.5769
 6458SOL     OW26743   9.125   4.182   2.705  0.0239  0.2751  0.2388
 6458SOL    HW126744   9.065   4.131   2.767 -0.2715  0.8588  0.4306
 6458SOL    HW226745   9.074   4.211   2.625  0.3917 -0.4288 -0.2608
 6459SOL     OW26746   8.095   0.685   4.559 -0.4315  0.0314 -0.0879
 6459SOL    HW126747   8.022   0.659   4.623  1.7815  2.6086  3.6707
 6459SOL    HW226748   8.164   0.613   4.557 -0.3679  0.0736  0.6495
 6460SOL     OW26749   7.871   1.737   2.568  0.2378  0.1476 -0.2707
 6460SOL    HW126750   7.773   1.737   2.590 -0.1388  2.2193 -1.7988
 6460SOL    HW226751   7.917   1.807   2.623  0.4049  0.9017 -1.3491
 6461SOL     OW26752   4.320   9.935   6.150  0.2578 -0.8634  0.9145
 6461SOL    HW126753   4.307  10.019   6.203  0.7200  0.3639 -0.8673
 6461SOL    HW226754   4.410   9.897   6.169 -0.0357 -1.0759  1.8878
 6462SOL     OW26755   2.445   7.578   0.542 -0.3544  0.0280  0.5936
 6462SOL    HW126756   2.497   7.518   0.481  1.2104  2.4288 -0.5447
 6462SOL    HW226757   2.495   7.590   0.628  0.4779  1.4329 -0.0587
 6463SOL     OW26758   4.733   1.669   2.742  0.0416 -0.4362  1.0058
 6463SOL    HW126759   4.656   1.605   2.740 -1.6659  1.6171  0.2812
 6463SOL    HW226760   4.770   1.673   2.835 -0.0940 -2.1306  1.1578
 6464SOL     OW26761   8.157   7.521   3.622  0.0063 -0.2585 -0.3088
 6464SOL    HW126762   8.214   7.496   3.700  0.8184 -1.8526 -1.3879
 6464SOL    HW226763   8.061   7.507   3.646  0.3013 -1.7682  0.0607
 6465SOL     OW26764   9.747   5.735   5.286  0.3661  0.5353 -0.3505
 6465SOL    HW126765   9.783   5.642   5.277 -0.4015  0.2667 -0.6163
 6465SOL    HW226766   9.681   5.738   5.361  0.5509  0.9204 -0.1999
 6466SOL     OW26767   3.750   6.389   1.516  0.5085  0.4902 -0.1393
 6466SOL    HW126768   3.721   6.296   1.493 -1.0427  0.6807  0.9965
 6466SOL    HW226769   3.675   6.453   1.496  0.1560  1.0046  2.7287
 6467SOL     OW26770   7.134   2.216   3.922 -0.0847  0.4337  0.5578
 6467SOL    HW126771   7.160   2.308   3.894  1.1087 -0.7147 -2.3018
 6467SOL    HW226772   7.055   2.186   3.868 -2.1388  0.6886  3.2834
 6468SOL     OW26773   4.795   4.405   0.146  0.3309 -0.4198  0.6254
 6468SOL    HW126774   4.766   4.428   0.053 -0.9367  2.6925  1.7518
 6468SOL    HW226775   4.734   4.335   0.184  0.2508 -0.9666 -0.4902
 6470SOL     OW26776   1.553   5.710   3.276 -0.0979  0.6585  0.2689
 6470SOL    HW126777   1.623   5.763   3.229 -0.2023 -0.6636 -1.4205
 6470SOL    HW226778   1.474   5.769   3.295 -0.2866  1.0938 -1.7279
 6471SOL     OW26779   0.503   8.954   5.006  0.4597 -0.0312  0.0330
 6471SOL    HW126780   0.416   8.923   4.967  0.5497  1.7107 -1.6317
 6471SOL    HW226781   0.508   9.054   4.999  3.1158 -0.2186 -0.9636
 6473SOL     OW26782   4.361   3.302   2.725 -0.5935  0.0133  0.6579
 6473SOL    HW126783   4.450   3.307   2.769  0.1016 -1.2860 -0.5555
 6473SOL    HW226784   4.321   3.394   2.719  1.3119  0.8144 -0.0849
 6474SOL     OW26785   1.774   0.609   3.900 -0.0491  0.1157  0.2084
 6474SOL    HW126786   1.839   0.633   3.828 -2.5531  1.8585 -1.5561
 6474SOL    HW226787   1.699   0.555   3.861 -0.9920  0.3192  1.6897
 6475SOL     OW26788   2.677   9.015   1.073  0.5643  0.2331  0.1291
 6475SOL    HW126789   2.723   9.002   1.161 -0.3388 -0.9308  0.4465
 6475SOL    HW226790   2.690   8.933   1.017  0.1318  0.5012 -0.3664
 6476SOL     OW26791   1.443   9.674   0.921  0.7634 -0.3116 -0.2197
 6476SOL    HW126792   1.495   9.588   0.915 -0.2563 -0.8597 -1.3791
 6476SOL    HW226793   1.397   9.678   1.010  2.2935 -0.0892  0.5881
 6477SOL     OW26794   5.879   8.823   2.752  0.4776  0.1271 -0.2054
 6477SOL    HW126795   5.976   8.842   2.765  1.0864 -3.0697  0.5167
 6477SOL    HW226796   5.868   8.730   2.717 -2.3310  0.4812 -0.4050
 6478SOL     OW26797   1.762   2.678   4.986  0.1735 -0.2329 -0.0788
 6478SOL    HW126798   1.718   2.638   5.066 -2.0708 -0.8248 -1.5413
 6478SOL    HW226799   1.765   2.611   4.912  0.2798  0.9299 -1.1599
 6480SOL     OW26800   8.921   1.618   1.439 -0.0479 -0.1892 -0.1616
 6480SOL    HW126801   8.963   1.610   1.529 -2.3046 -1.3744  0.8337
 6480SOL    HW226802   8.968   1.558   1.374  0.6250 -0.4871  0.5980
 6481SOL     OW26803   9.227   7.399   4.272 -0.2335 -0.2339  0.0596
 6481SOL    HW126804   9.137   7.358   4.287  0.9330 -2.1516  2.0711
 6481SOL    HW226805   9.263   7.432   4.359  0.4415  1.8373 -0.9624
 6482SOL     OW26806   2.169   7.831   2.129  0.2376 -0.3611 -0.2134
 6482SOL    HW126807   2.232   7.907   2.144  1.6268 -1.7954  1.3520
 6482SOL    HW226808   2.178   7.798   2.035  2.8275 -1.4448  0.3832
 6483SOL     OW26809   2.889   6.311   5.998  0.0018 -0.4935  0.0362
 6483SOL    HW126810   2.917   6.231   6.052  0.5699 -0.4062 -0.1248
 6483SOL    HW226811   2.950   6.388   6.019 -1.6072  0.4209  1.4930
 6485SOL     OW26812   8.983   0.620   5.414  0.1220 -0.2147  0.1801
 6485SOL    HW126813   8.933   0.542   5.452  0.0063 -0.2804 -0.1052
 6485SOL    HW226814   8.959   0.703   5.466 -0.1034 -0.2880  0.1927
 6486SOL     OW26815   0.631   4.463   0.792 -0.2501 -0.3949 -0.0590
 6486SOL    HW126816   0.637   4.483   0.889 -0.1335 -0.5186 -0.0409
 6486SOL    HW226817   0.571   4.384   0.777 -1.6260  0.6600 -0.2176
 6487SOL     OW26818   5.405   8.914   4.367 -0.3441 -0.2743 -0.1603
 6487SOL    HW126819   5.330   8.891   4.430 -0.9726 -0.8809 -1.1245
 6487SOL    HW226820   5.401   8.853   4.288 -0.2418  1.2316 -1.3415
 6488SOL     OW26821   0.872   8.039   6.350 -0.3275  0.5200  0.4340
 6488SOL    HW126822   0.831   8.069   6.264  0.0712 -0.7446 -0.2066
 6488SOL    HW226823   0.966   8.009   6.333 -0.8153 -1.4178  0.9603
 6489SOL     OW26824   6.160   0.585   4.051  0.5755  0.4257 -0.1654
 6489SOL    HW126825   6.063   0.590   4.075  0.4248 -0.8267 -0.5222
 6489SOL    HW226826   6.210   0.657   4.100 -0.3252  0.2646  1.0126
 6490SOL     OW26827   1.087   0.625   5.400  0.2447  0.3998  0.2245
 6490SOL    HW126828   1.079   0.717   5.363  1.0207 -0.3964 -1.9675
 6490SOL    HW226829   1.101   0.559   5.326 -0.5906 -1.5328  1.7295
 6492SOL     OW26830   4.371   6.029   0.107 -0.0294  0.3520 -0.1646
 6492SOL    HW126831   4.293   5.977   0.072 -0.1092  0.6274 -0.3889
 6492SOL    HW226832   4.339   6.100   0.170  0.0900  0.0496  0.2428
 6494SOL     OW26833   2.921   8.138   1.598 -0.4657 -0.4181  0.1736
 6494SOL    HW126834   2.983   8.079   1.650  0.3839  1.0404  0.8465
 6494SOL    HW226835   2.960   8.155   1.508 -0.2631 -0.1224  0.3179
 6497SOL     OW26836   9.381   4.082   0.090  0.0629  0.2134 -0.0379
 6497SOL    HW126837   9.384   3.984   0.110 -1.1285 -0.0361 -1.0506
 6497SOL    HW226838   9.288   4.116   0.103  0.4995  1.2476  0.4517
 6498SOL     OW26839   9.164   5.024   2.028  0.4586 -0.6550  0.0128
 6498SOL    HW126840   9.179   5.032   2.127 -0.6605  0.6753  0.0849
 6498SOL    HW226841   9.249   5.048   1.980  1.1785 -1.8556  0.6509
 6499SOL     OW26842   6.241   0.040   2.178  0.2309  0.2524 -0.4130
 6499SOL    HW126843   6.230   0.110   2.249 -2.2153 -2.2305  1.7996
 6499SOL    HW226844   6.186   0.065   2.098 -1.5929  0.3337  0.8236
 6500SOL     OW26845   7.561   0.657   1.587 -0.4060  0.1455 -0.2928
 6500SOL    HW126846   7.633   0.709   1.632  0.6941 -0.5883 -1.1707
 6500SOL    HW226847   7.480   0.715   1.575  0.3038  1.2105  0.0019
 6501SOL     OW26848   7.793   7.649   5.913  0.0845 -0.2093 -0.1979
 6501SOL    HW126849   7.878   7.614   5.951  0.3285  0.3292 -0.2413
 6501SOL    HW226850   7.772   7.737   5.954 -0.2919 -0.1970 -0.4132
 6502SOL     OW26851   0.511   3.718   0.012  0.2887  0.3319  0.1819
 6502SOL    HW126852   0.576   3.711   0.088  1.6800  1.3513 -0.8809
 6502SOL    HW226853   0.485   3.626  -0.018  0.6992 -0.0804  1.0595
 6503SOL     OW26854   8.415   3.781   0.907  0.9496 -0.7330 -0.2583
 6503SOL    HW126855   8.336   3.827   0.949  1.4783  0.0128 -0.0785
 6503SOL    HW226856   8.398   3.683   0.904  1.0432 -0.8326  1.9727
 6505SOL     OW26857   0.352   2.923   1.291  0.1405 -0.2768  0.5031
 6505SOL    HW126858   0.335   2.840   1.344  1.5281 -0.2671  0.9996
 6505SOL    HW226859   0.425   2.975   1.335 -0.5384  1.0775  0.0505
 6506SOL     OW26860   3.265   9.193   3.844  0.3728 -0.0303  0.8929
 6506SOL    HW126861   3.182   9.243   3.871  0.8548  0.2788  1.7935
 6506SOL    HW226862   3.346   9.247   3.867  0.9037 -1.2023  1.8430
 6507SOL     OW26863   9.931   9.951   4.674  0.6980  0.2474  0.0494
 6507SOL    HW126864   9.920   9.852   4.681  1.2096  0.2406  0.7525
 6507SOL    HW226865  10.024   9.972   4.645  0.7860  0.5525  0.5598
 6508SOL     OW26866   8.228   5.290   0.118 -0.1670  0.1335 -0.3157
 6508SOL    HW126867   8.276   5.202   0.123 -1.7293 -0.6988  0.2633
 6508SOL    HW226868   8.189   5.300   0.027 -0.9210 -0.2818 -0.0444
 6509SOL     OW26869   9.231   3.748   1.054 -0.5773 -0.1355  0.2202
 6509SOL    HW126870   9.279   3.708   1.132  0.2808 -1.0499 -0.7570
 6509SOL    HW226871   9.159   3.685   1.024  1.4666 -1.5242 -1.9931
 6511SOL     OW26872   8.788   6.962   6.053 -0.0829  0.0805  0.0381
 6511SOL    HW126873   8.870   6.976   6.108 -0.4140 -0.3936  0.6583
 6511SOL    HW226874   8.789   7.025   5.975 -0.1909  1.6003  1.2376
 6512SOL     OW26875   7.178   9.919   3.158  0.1264 -0.1924  0.3121
 6512SOL    HW126876   7.277   9.909   3.167 -0.2089 -1.1324  3.1595
 6512SOL    HW226877   7.158  10.003   3.107  2.3728 -0.0976 -0.4701
 6516SOL     OW26878   9.767   4.108   1.666  0.6913 -0.0922  0.2390
 6516SOL    HW126879   9.741   4.012   1.667 -0.2203  0.1472 -0.0117
 6516SOL    HW226880   9.863   4.117   1.641  0.5112 -0.8723 -0.7235
 6517SOL     OW26881   3.900   6.554   0.314  0.0751 -0.6128  0.6498
 6517SOL    HW126882   3.914   6.650   0.291 -1.7812 -0.3379  0.6415
 6517SOL    HW226883   3.805   6.539   0.341  0.1695 -2.5896 -0.0354
 6518SOL     OW26884   0.947   2.401   2.765 -0.5223 -0.1375  0.2781
 6518SOL    HW126885   0.868   2.408   2.704  0.0078  2.4416 -0.1811
 6518SOL    HW226886   0.916   2.402   2.860 -1.0822  0.6969  0.0980
 6519SOL     OW26887   9.108   5.523   4.761  0.1254  0.1253 -0.6686
 6519SOL    HW126888   9.102   5.620   4.739  0.0917  0.3197  0.1690
 6519SOL    HW226889   9.166   5.510   4.842 -0.8345 -0.4303 -0.0538
 6520SOL     OW26890   8.468   9.397   4.164  0.0442  0.1254  0.0604
 6520SOL    HW126891   8.431   9.334   4.233 -0.8080  0.2235 -0.2983
 6520SOL    HW226892   8.417   9.483   4.167 -0.5552 -0.1665 -1.2340
 6522SOL     OW26893   4.255   6.137   3.653  0.0147  0.0078  0.1574
 6522SOL    HW126894   4.347   6.157   3.620 -0.2231  1.5982  0.3971
 6522SOL    HW226895   4.192   6.134   3.576  0.1101 -0.1390  0.0852
 6524SOL     OW26896   4.003   0.133   5.500 -0.2796 -0.7002  0.1081
 6524SOL    HW126897   4.058   0.097   5.576 -3.5159 -1.8929  1.9581
 6524SOL    HW226898   3.983   0.059   5.435  0.5485 -0.1890 -0.7474
 6526SOL     OW26899   4.928   5.339   1.995  0.4438  0.1198  0.0522
 6526SOL    HW126900   5.005   5.275   2.006 -0.0040 -0.4290 -0.0060
 6526SOL    HW226901   4.871   5.309   1.918  0.4208  0.7809 -0.1906
 6527SOL     OW26902   8.384   1.099   6.069 -0.7242  0.3939  0.2824
 6527SOL    HW126903   8.427   1.117   5.980 -1.0588 -0.7599 -0.1133
 6527SOL    HW226904   8.386   1.001   6.089 -0.7856  0.6228  1.4863
 6528SOL     OW26905   9.725   7.280   2.145  0.2095 -0.3018  0.1592
 6528SOL    HW126906   9.705   7.186   2.169  0.4683 -0.6431 -0.9201
 6528SOL    HW226907   9.728   7.336   2.228 -1.6188 -0.9153  0.6547
 6529SOL     OW26908   8.122   3.481   4.862 -0.3961 -0.1804 -0.7435
 6529SOL    HW126909   8.213   3.510   4.889 -0.6633 -0.5501  0.6163
 6529SOL    HW226910   8.065   3.561   4.842  0.1309  0.0570 -1.3040
 6530SOL     OW26911   9.748   4.377   1.633  0.2026  0.2002  0.0440
 6530SOL    HW126912   9.724   4.366   1.537  0.5977 -0.9216  0.0731
 6530SOL    HW226913   9.747   4.289   1.679  2.1190  0.4227  0.5732
 6532SOL     OW26914   2.573   5.235   1.387  0.3833  0.0178  0.3521
 6532SOL    HW126915   2.552   5.239   1.484  1.4127 -0.2002  0.5929
 6532SOL    HW226916   2.567   5.327   1.348  2.3974  0.5190  1.1590
 6533SOL     OW26917   8.189   2.936   4.714 -0.3743 -0.4112 -0.3329
 6533SOL    HW126918   8.158   2.967   4.804  2.2485 -0.0952  0.4820
 6533SOL    HW226919   8.109   2.909   4.659 -2.0961  0.6181  1.6055
 6534SOL     OW26920   5.176   9.942   3.423  0.4187 -0.2003 -0.2151
 6534SOL    HW126921   5.199   9.910   3.331  0.3851 -1.5256  0.2300
 6534SOL    HW226922   5.260   9.971   3.470  0.5070 -0.0500 -0.4669
 6535SOL     OW26923   4.191   9.898   0.400 -0.3720  0.2488 -0.6394
 6535SOL    HW126924   4.154   9.831   0.335 -0.2544  0.3810 -0.8424
 6535SOL    HW226925   4.178   9.864   0.493  1.3433 -0.9213 -0.8102
 6536SOL     OW26926   0.994   8.234   0.986  0.1033  0.4932 -0.5517
 6536SOL    HW126927   1.045   8.221   1.071  0.7137  1.3993 -0.7649
 6536SOL    HW226928   0.963   8.329   0.981 -1.1571  0.0699 -0.6747
 6537SOL     OW26929   7.460   0.284   4.544 -0.5791  0.0401  0.3179
 6537SOL    HW126930   7.548   0.264   4.502 -0.5293 -0.6472  0.7346
 6537SOL    HW226931   7.427   0.373   4.513  0.5628  0.5862  0.6420
 6538SOL     OW26932   0.100   7.732   3.509 -0.3700  0.7439  0.2493
 6538SOL    HW126933   0.142   7.675   3.438  0.1426  2.4989 -0.8668
 6538SOL    HW226934   0.019   7.778   3.472 -0.5408  1.0847  1.0282
 6540SOL     OW26935   2.971   1.861   0.599  0.2907 -0.2474 -0.1508
 6540SOL    HW126936   2.918   1.893   0.678  1.7043  2.0803 -0.1097
 6540SOL    HW226937   2.976   1.761   0.601  0.1083 -0.2386  2.5703
 6542SOL     OW26938   2.454   3.533   2.975 -0.1852  0.2354 -0.5314
 6542SOL    HW126939   2.468   3.570   3.067 -2.1935  0.4788 -0.2929
 6542SOL    HW226940   2.472   3.434   2.975 -1.3596  0.0111  0.4267
 6543SOL     OW26941   0.119   2.726   2.215 -0.0926  0.7200 -0.0732
 6543SOL    HW126942   0.088   2.816   2.248 -0.4571 -0.2024  2.1987
 6543SOL    HW226943   0.040   2.674   2.182  0.1718  1.3614 -1.7455
 6544SOL     OW26944   4.941   2.699   0.528  0.0097  0.0314 -0.2131
 6544SOL    HW126945   4.947   2.776   0.465  0.5742 -0.4234 -0.7222
 6544SOL    HW226946   4.866   2.714   0.593 -0.1157  0.8298 -0.5449
 6545SOL     OW26947   3.570   7.610   5.684  0.6212 -0.2872 -0.1004
 6545SOL    HW126948   3.562   7.707   5.664 -1.1422 -0.1754  0.9680
 6545SOL    HW226949   3.585   7.597   5.782 -1.3931 -1.1221  0.1364
 6547SOL     OW26950   7.660   7.476   3.783  0.1587  0.0765 -0.2331
 6547SOL    HW126951   7.611   7.448   3.700  0.2225 -1.5409  0.2698
 6547SOL    HW226952   7.629   7.567   3.810 -1.3669 -0.2345 -0.8707
 6549SOL     OW26953   2.148   3.513   0.352  0.1300  0.3718  0.2409
 6549SOL    HW126954   2.240   3.499   0.388 -0.0201  1.0223  0.8816
 6549SOL    HW226955   2.132   3.610   0.336 -1.4939  0.6186  3.0157
 6551SOL     OW26956   2.189   0.990   1.937 -0.2207  0.3486  1.1216
 6551SOL    HW126957   2.190   1.090   1.929  0.0885  0.3361  0.9882
 6551SOL    HW226958   2.278   0.958   1.970 -0.5511  0.1731  1.8715
 6552SOL     OW26959   0.319   8.931   5.840 -0.3260 -0.2296  0.0674
 6552SOL    HW126960   0.235   8.986   5.835 -0.4709 -0.2938  1.5435
 6552SOL    HW226961   0.357   8.937   5.932  1.3214 -0.1774 -0.6019
 6554SOL     OW26962   8.166   8.916   6.345 -0.4245  0.4299  0.3607
 6554SOL    HW126963   8.080   8.898   6.392 -1.0223  1.0261 -0.4888
 6554SOL    HW226964   8.243   8.901   6.408 -1.1282 -0.4503  1.0142
 6555SOL     OW26965   8.976   3.513   5.373  0.0237  0.2954 -0.2494
 6555SOL    HW126966   8.975   3.606   5.408  0.5417  0.3299 -0.3191
 6555SOL    HW226967   9.068   3.474   5.384  0.4116  0.5816 -2.2937
 6556SOL     OW26968   4.112   0.902   0.693  0.0355  0.3954 -0.4801
 6556SOL    HW126969   4.200   0.917   0.738 -1.0993  0.7606  1.7513
 6556SOL    HW226970   4.125   0.857   0.605  2.3616 -0.4519  0.2710
 6557SOL     OW26971   4.044   2.876   3.108 -0.4624 -0.7733  0.0727
 6557SOL    HW126972   4.085   2.883   3.017 -1.2117 -1.5401 -0.3375
 6557SOL    HW226973   4.032   2.780   3.131  1.0934 -0.6152  1.6252
 6560SOL     OW26974   8.812   5.170   4.119 -0.5804 -0.7111  0.5016
 6560SOL    HW126975   8.860   5.196   4.036  0.1170  0.4803  1.2545
 6560SOL    HW226976   8.823   5.072   4.136  0.1484 -0.7570 -0.2457
 6562SOL     OW26977   7.336   0.510   4.520  0.1940 -0.0866 -0.0107
 6562SOL    HW126978   7.310   0.570   4.445 -0.0890 -0.4798 -0.2319
 6562SOL    HW226979   7.291   0.540   4.604  0.1515  0.0847 -0.0945
 6563SOL     OW26980   1.916   2.762   2.007  0.2527  0.7059 -0.6569
 6563SOL    HW126981   1.884   2.679   1.961 -1.2885  1.3440 -0.7539
 6563SOL    HW226982   1.961   2.822   1.941  0.6448  0.3202 -0.7447
 6564SOL     OW26983   3.854   7.404   3.513 -0.1758  0.4048 -0.3769
 6564SOL    HW126984   3.892   7.396   3.606  0.2221  0.1029 -0.5637
 6564SOL    HW226985   3.775   7.465   3.515 -2.0888 -2.0497  0.7303
 6566SOL     OW26986   7.132   7.090   3.430 -0.0537 -0.3443 -0.0291
 6566SOL    HW126987   7.157   6.998   3.399  0.6461 -0.9749  2.2928
 6566SOL    HW226988   7.123   7.090   3.530  0.7845  2.3259  0.0862
 6567SOL     OW26989   4.245   7.972   5.869  0.1476 -0.0856  0.1163
 6567SOL    HW126990   4.318   7.946   5.807 -0.0331 -1.3326  0.4125
 6567SOL    HW226991   4.250   7.916   5.952 -2.4969 -1.7783 -0.8122
 6568SOL     OW26992   4.552   0.593   3.077  0.1577 -1.0304 -0.2863
 6568SOL    HW126993   4.458   0.557   3.083 -0.6508  0.5402 -2.7432
 6568SOL    HW226994   4.595   0.558   2.993  0.2762  1.5371 -1.3303
 6569SOL     OW26995   0.226   3.508   5.285 -0.3692 -0.2394 -0.8272
 6569SOL    HW126996   0.307   3.545   5.330  0.8942 -0.9918 -2.4071
 6569SOL    HW226997   0.147   3.565   5.306  0.5480  0.4659  0.7987
 6570SOL     OW26998   6.192   0.293   3.842 -0.2519 -0.3492  0.0318
 6570SOL    HW126999   6.256   0.238   3.896  0.1705 -0.5639 -0.6739
 6570SOL    HW227000   6.101   0.290   3.885  0.1470 -0.2456  0.9010
 6571SOL     OW27001   6.987   9.854   2.054 -0.1537  0.3727  0.5037
 6571SOL    HW127002   6.954   9.774   2.104 -1.5722  2.2222  2.6251
 6571SOL    HW227003   7.087   9.859   2.061 -0.1554 -0.5757  1.3498
 6572SOL     OW27004   3.012   1.767   4.409  0.3587  0.0749  0.2365
 6572SOL    HW127005   3.109   1.778   4.391  0.7307 -0.0602  2.0799
 6572SOL    HW227006   2.961   1.841   4.365  1.5416  1.5813  1.3428
 6574SOL     OW27007   6.256   8.638   2.894 -0.0036 -0.2027 -0.5331
 6574SOL    HW127008   6.241   8.734   2.914 -0.4974 -0.1038 -1.3669
 6574SOL    HW227009   6.319   8.629   2.817  1.5045 -0.5761  0.7215
 6575SOL     OW27010   5.294  10.000   2.284 -0.3564 -0.2289 -0.0541
 6575SOL    HW127011   5.278   9.902   2.297 -0.0103 -0.3279 -0.3650
 6575SOL    HW227012   5.255  10.030   2.197 -1.9316  0.2641  0.8060
 6576SOL     OW27013   2.384   8.274   6.227  0.8270  0.3084  0.2330
 6576SOL    HW127014   2.338   8.228   6.303 -0.1723  0.5807 -0.1971
 6576SOL    HW227015   2.315   8.319   6.170  1.6121  0.4406 -0.6027
 6578SOL     OW27016   7.824   2.772   3.654  0.1554  0.5607  0.2062
 6578SOL    HW127017   7.850   2.770   3.557  0.0175 -1.8839  0.1896
 6578SOL    HW227018   7.897   2.731   3.709 -0.1390  1.1417  1.0411
 6579SOL     OW27019   4.792   9.088   4.799  0.0168 -0.3827 -0.3223
 6579SOL    HW127020   4.855   9.164   4.784  2.8571 -2.0369  2.5920
 6579SOL    HW227021   4.732   9.108   4.876 -1.4360  0.2210 -1.6018
 6580SOL     OW27022   2.770   3.039   1.759 -0.4892 -0.0341 -0.3563
 6580SOL    HW127023   2.785   3.038   1.660  1.2845  0.5301 -0.1090
 6580SOL    HW227024   2.676   3.009   1.778 -0.6415 -0.8291 -2.1597
 6581SOL     OW27025   5.193   1.875   1.641 -0.2149  0.3037 -0.1212
 6581SOL    HW127026   5.106   1.826   1.648 -0.2195  0.0266 -2.0063
 6581SOL    HW227027   5.175   1.973   1.632 -0.4013  0.1314 -1.8231
 6582SOL     OW27028   1.669   4.297   4.717  0.3110 -0.8912  0.7342
 6582SOL    HW127029   1.678   4.395   4.732 -0.2320 -0.8597  0.8566
 6582SOL    HW227030   1.676   4.277   4.620  0.5768 -0.7475  0.7245
 6583SOL     OW27031   0.369   1.565   1.921 -0.2267  0.1640  0.1047
 6583SOL    HW127032   0.278   1.524   1.931 -0.8743  1.8300  1.1024
 6583SOL    HW227033   0.388   1.578   1.823 -0.4233 -1.5558 -0.1829
 6584SOL     OW27034   1.908   6.313   3.806 -0.6520 -0.3821 -0.7247
 6584SOL    HW127035   1.986   6.251   3.799 -0.8558 -0.6897 -0.2826
 6584SOL    HW227036   1.823   6.263   3.789 -1.0867 -0.9356  2.7028
 6585SOL     OW27037   0.184   3.973   2.342  0.4557 -0.4331  0.0919
 6585SOL    HW127038   0.261   3.930   2.295  1.0245 -0.2086  0.8184
 6585SOL    HW227039   0.216   4.054   2.392 -0.7320  1.4204 -2.0198
 6586SOL     OW27040   5.046   9.165   3.700 -0.3125  0.1523  0.2563
 6586SOL    HW127041   5.047   9.200   3.607  0.7138 -0.5444 -0.0023
 6586SOL    HW227042   5.081   9.235   3.762  0.7506 -0.0289 -0.1262
 6587SOL     OW27043   9.943   3.146   2.513 -0.3083  0.7528 -0.0531
 6587SOL    HW127044   9.896   3.234   2.518  0.4269  1.0822  1.3069
 6587SOL    HW227045  10.013   3.142   2.584 -0.1556 -0.8295 -0.2835
 6588SOL     OW27046   6.270   1.651   1.768  0.1786  0.5487 -0.2993
 6588SOL    HW127047   6.205   1.664   1.693  1.4504 -0.8903 -1.6812
 6588SOL    HW227048   6.351   1.603   1.734  0.8089 -0.0510  1.9837
 6589SOL     OW27049   3.851   9.000   6.394 -0.2357 -0.2107 -0.1732
 6589SOL    HW127050   3.763   8.954   6.399  1.0062 -2.6936 -0.3208
 6589SOL    HW227051   3.843   9.082   6.337 -2.5449 -0.0811  0.2828
 6591SOL     OW27052   4.215   8.716   2.666  0.0803  0.2974 -0.1759
 6591SOL    HW127053   4.313   8.710   2.647 -0.0864 -1.0819 -0.6158
 6591SOL    HW227054   4.200   8.715   2.765  0.4295 -0.7059 -0.1329
 6592SOL     OW27055   3.931   3.120   4.017 -0.2427  0.5350 -0.1899
 6592SOL    HW127056   3.928   3.059   3.938 -2.0157 -0.9484  0.9797
 6592SOL    HW227057   3.859   3.188   4.009 -2.1309 -1.2355  1.3871
 6593SOL     OW27058   9.674   8.724   1.535  0.5279  0.2836 -0.3888
 6593SOL    HW127059   9.691   8.769   1.447  1.2700  0.7909  0.0076
 6593SOL    HW227060   9.760   8.717   1.586  0.0671  0.1562  0.3772
 6597SOL     OW27061   3.678   8.798   1.070  0.5557  0.0649 -0.4207
 6597SOL    HW127062   3.596   8.774   1.122  0.8030 -2.2785 -1.0994
 6597SOL    HW227063   3.696   8.729   1.000  2.0604  1.5188 -1.5259
 6598SOL     OW27064   9.536   0.832   4.694 -0.1421  0.3995 -0.6296
 6598SOL    HW127065   9.582   0.744   4.707  0.9900  1.1972  0.8753
 6598SOL    HW227066   9.516   0.872   4.783  1.2321  2.6570 -1.2982
 6599SOL     OW27067   1.499   4.938   1.115  0.1097 -0.2958  1.0968
 6599SOL    HW127068   1.562   4.938   1.192 -1.1856  2.8675  2.2377
 6599SOL    HW227069   1.550   4.956   1.031  1.0219  0.1802  1.7370
 6600SOL     OW27070   4.141   0.095   4.582  0.4038 -0.4608 -0.6819
 6600SOL    HW127071   4.160   0.042   4.664 -1.7102 -0.2030  0.0092
 6600SOL    HW227072   4.195   0.179   4.583  2.1004 -1.5254 -0.7071
 6601SOL     OW27073   4.303   3.749   0.867  0.1757  0.6577 -0.0417
 6601SOL    HW127074   4.401   3.761   0.854  0.2281  1.2146  0.8300
 6601SOL    HW227075   4.274   3.663   0.825  0.9758  0.6508 -0.5840
 6602SOL     OW27076   8.137   2.188   6.401  0.0713 -0.2644 -0.0710
 6602SOL    HW127077   8.139   2.269   6.459  0.1555 -0.4841  0.2353
 6602SOL    HW227078   8.042   2.164   6.380 -0.0905 -1.6672  2.0700
 6603SOL     OW27079   0.458   8.083   1.476 -0.2026 -0.4283 -0.1279
 6603SOL    HW127080   0.449   7.990   1.512  0.0535 -0.3550  0.1279
 6603SOL    HW227081   0.435   8.083   1.379 -0.3170 -0.7379 -0.1038
 6604SOL     OW27082   7.648   5.036   0.675  0.4774  0.1087 -0.2375
 6604SOL    HW127083   7.661   5.089   0.591 -1.5536  0.3384 -0.4395
 6604SOL    HW227084   7.723   4.970   0.685  1.8685  1.5317 -1.1040
 6605SOL     OW27085   2.690   0.519   4.939 -0.0660  0.2636 -0.1187
 6605SOL    HW127086   2.671   0.545   5.034  0.1605  1.4552 -0.3988
 6605SOL    HW227087   2.771   0.567   4.906  0.3699 -0.8074 -0.6467
 6607SOL     OW27088   8.427   1.165   1.828  0.5975  0.3411  0.2957
 6607SOL    HW127089   8.395   1.250   1.870  3.3027  1.5668 -0.0273
 6607SOL    HW227090   8.466   1.106   1.899  0.6414  0.2855  0.2242
 6608SOL     OW27091   9.287   0.640   3.074 -0.1349 -0.8512  0.4822
 6608SOL    HW127092   9.283   0.677   2.981 -0.4670 -2.8995 -0.3586
 6608SOL    HW227093   9.307   0.713   3.139  0.4676  0.5418 -1.2443
 6609SOL     OW27094   2.858   5.869   0.361 -0.1587  0.0863 -0.3211
 6609SOL    HW127095   2.940   5.922   0.339  0.6558  0.0512  2.3407
 6609SOL    HW227096   2.819   5.831   0.278  1.5529  1.5184 -1.8344
 6610SOL     OW27097   0.635   2.652   4.054  0.0749  0.5004 -0.1858
 6610SOL    HW127098   0.578   2.570   4.048  1.6740 -0.6369 -0.2344
 6610SOL    HW227099   0.580   2.733   4.034 -1.9163 -0.4024  1.5057
 6611SOL     OW27100   9.832   8.088   4.618 -0.1416  0.5211 -0.3389
 6611SOL    HW127101   9.915   8.093   4.673  0.3421  0.4529 -1.0584
 6611SOL    HW227102   9.775   8.013   4.651  0.6410 -0.2014 -0.6074
 6612SOL     OW27103   8.629   6.999   5.215 -0.6220 -0.0865  0.1322
 6612SOL    HW127104   8.726   7.013   5.195 -0.1628 -1.1804  1.5747
 6612SOL    HW227105   8.585   7.089   5.227  0.5016  0.3863  0.8243
 6613SOL     OW27106   3.578   4.241   1.178  0.0310 -0.0003 -0.1870
 6613SOL    HW127107   3.595   4.221   1.274  1.2483  2.7052  0.2168
 6613SOL    HW227108   3.501   4.305   1.171 -1.1555 -1.5010 -1.1399
 6614SOL     OW27109   7.290   1.678   2.742  0.0475  0.7837 -0.0455
 6614SOL    HW127110   7.315   1.587   2.775  0.4471  1.1159  0.5639
 6614SOL    HW227111   7.217   1.669   2.673 -0.3732  0.0464  0.4834
 6615SOL     OW27112   8.906   3.803   0.968 -0.1323  0.0663 -0.2768
 6615SOL    HW127113   8.935   3.709   0.986  1.4732  0.7176  0.6597
 6615SOL    HW227114   8.816   3.819   1.009 -1.1123 -1.4979 -1.7649
 6616SOL     OW27115   7.572   1.014   4.658  0.0971 -0.2072 -0.3933
 6616SOL    HW127116   7.513   0.935   4.670  2.9257 -2.5733 -1.5746
 6616SOL    HW227117   7.563   1.049   4.564 -0.0493 -0.0355 -0.3166
 6617SOL     OW27118   9.830   6.781   6.083 -0.3108 -0.2854  0.0594
 6617SOL    HW127119   9.876   6.821   6.003 -0.7281 -0.5797 -0.3272
 6617SOL    HW227120   9.867   6.690   6.101  2.8767  1.4019  2.8078
 6618SOL     OW27121   8.190   9.296   0.144 -0.0900 -0.1135  0.6089
 6618SOL    HW127122   8.161   9.375   0.091 -2.1567 -1.2890 -0.0728
 6618SOL    HW227123   8.144   9.297   0.233 -0.1354 -0.5331  0.5928
 6620SOL     OW27124   9.329   4.437   4.346 -0.4402 -0.6364  0.1592
 6620SOL    HW127125   9.303   4.526   4.309  1.3367 -1.3329 -2.8812
 6620SOL    HW227126   9.420   4.443   4.387  0.5926 -1.5010 -1.9352
 6621SOL     OW27127   1.960   3.485   5.734 -0.6600 -0.0640  0.4287
 6621SOL    HW127128   1.883   3.541   5.764 -0.4067  0.7966 -0.5194
 6621SOL    HW227129   1.925   3.404   5.687 -1.0004  1.0723 -1.3554
 6622SOL     OW27130   2.467   3.306   0.191 -0.7215  0.4299 -0.7976
 6622SOL    HW127131   2.540   3.302   0.122 -1.0311 -0.8049 -1.0490
 6622SOL    HW227132   2.421   3.218   0.196  0.1772  0.0642  1.9323
 6623SOL     OW27133   3.259   4.919   2.581  0.2951 -0.1328  0.3226
 6623SOL    HW127134   3.163   4.891   2.578  0.5492 -0.9067 -1.2370
 6623SOL    HW227135   3.267   5.013   2.550  0.0240 -0.0200  0.5896
 6624SOL     OW27136   3.142   4.992   3.780  0.1958  0.1874 -0.3717
 6624SOL    HW127137   3.235   4.958   3.794  0.4885  0.4511 -1.6868
 6624SOL    HW227138   3.145   5.087   3.748 -0.5447  0.4248  0.2377
 6625SOL     OW27139   7.307   7.125   4.642  0.3331 -0.0223  0.1459
 6625SOL    HW127140   7.319   7.055   4.713 -1.2556 -0.5662 -0.0971
 6625SOL    HW227141   7.238   7.094   4.576  0.9051  1.0122 -0.9560
 6627SOL     OW27142   4.274   9.740   3.375 -0.0274  0.6088  0.5266
 6627SOL    HW127143   4.302   9.836   3.366  0.0044  0.6754  1.3067
 6627SOL    HW227144   4.274   9.714   3.471  0.5513 -0.3664  0.2642
 6628SOL     OW27145   8.855   9.334   0.155 -0.4630 -0.0574 -0.6543
 6628SOL    HW127146   8.803   9.249   0.167  0.1834 -0.3511  0.1238
 6628SOL    HW227147   8.879   9.344   0.058  2.5687 -2.6627 -0.2761
 6630SOL     OW27148   3.537   3.996   5.127  0.3456  0.1930  0.0703
 6630SOL    HW127149   3.443   3.962   5.135  0.1774  0.2260 -1.6571
 6630SOL    HW227150   3.534   4.094   5.107  0.7773  0.3667  0.8238
 6632SOL     OW27151   6.195   9.784   3.797  0.3914  0.1427 -0.4992
 6632SOL    HW127152   6.246   9.752   3.877  0.1061 -1.9778 -1.1384
 6632SOL    HW227153   6.239   9.750   3.714 -0.7813  0.1764 -1.1421
 6633SOL     OW27154   8.579   8.658   2.018 -0.4312 -0.9288  0.0243
 6633SOL    HW127155   8.649   8.595   2.053  1.1896  0.5501 -0.4434
 6633SOL    HW227156   8.615   8.703   1.936 -1.3550  1.0048  0.6835
 6634SOL     OW27157   7.430   5.836   1.062  0.1282  0.2633  0.1166
 6634SOL    HW127158   7.405   5.823   1.158 -1.9483 -0.2225 -0.4745
 6634SOL    HW227159   7.512   5.782   1.042  0.4816  0.2402  1.5663
 6635SOL     OW27160   0.267   0.985   0.194  0.0962  0.3270 -0.4463
 6635SOL    HW127161   0.335   1.000   0.123  1.8396 -0.4064  1.0233
 6635SOL    HW227162   0.266   1.064   0.256  0.3000 -0.0661  0.0678
 6636SOL     OW27163   0.195   3.372   6.081  0.3291 -0.1889 -0.0021
 6636SOL    HW127164   0.204   3.272   6.083 -0.7505 -0.2760  1.0450
 6636SOL    HW227165   0.286   3.413   6.077  0.7358 -1.2289 -1.9638
 6637SOL     OW27166   6.792   0.960   6.454 -0.0756  0.1938 -0.0900
 6637SOL    HW127167   6.753   1.049   6.479 -0.2285 -0.1144  0.7900
 6637SOL    HW227168   6.720   0.890   6.458  0.1047 -0.0172 -0.5150
 6638SOL     OW27169   8.414   2.442   3.691  0.0881  1.2455  0.0820
 6638SOL    HW127170   8.436   2.365   3.751  0.2817 -0.9980 -2.7956
 6638SOL    HW227171   8.315   2.454   3.687 -0.3248 -2.2677 -3.4447
 6640SOL     OW27172   8.175   9.765   5.335  0.0297  0.4525  0.4892
 6640SOL    HW127173   8.117   9.754   5.415 -0.7940  0.1982 -0.1294
 6640SOL    HW227174   8.123   9.809   5.262  0.3617 -0.5035 -0.3405
 6642SOL     OW27175   3.420   6.121   5.822  0.0405 -0.3648  0.3818
 6642SOL    HW127176   3.343   6.110   5.758  1.2628  0.7488 -1.3025
 6642SOL    HW227177   3.405   6.203   5.877 -0.3771 -0.6099  0.6413
 6643SOL     OW27178   4.796   2.942   1.535  0.1623 -0.8778 -0.0028
 6643SOL    HW127179   4.883   2.990   1.548 -0.9268  1.0983  0.2304
 6643SOL    HW227180   4.771   2.894   1.620 -0.0498  0.4091  0.6792
 6644SOL     OW27181   4.806   8.460   5.569  0.3234 -0.6001 -0.0381
 6644SOL    HW127182   4.878   8.524   5.597 -0.9497  1.4726 -1.3697
 6644SOL    HW227183   4.808   8.451   5.469 -1.3156 -0.4496 -0.0903
 6648SOL     OW27184   1.473   9.380   6.291  0.2792  0.0435 -0.0484
 6648SOL    HW127185   1.455   9.284   6.311 -0.1159 -0.0723 -0.9598
 6648SOL    HW227186   1.530   9.388   6.210 -0.0774  0.5879 -0.2536
 6649SOL     OW27187   6.523   9.792   2.705 -0.1584 -0.5292  0.4270
 6649SOL    HW127188   6.510   9.747   2.794  1.3105 -2.1789 -0.1771
 6649SOL    HW227189   6.500   9.727   2.632 -1.9535  1.0141 -0.4224
 6650SOL     OW27190   9.559   1.456   4.800  0.0269  0.3491 -0.6081
 6650SOL    HW127191   9.629   1.412   4.743 -0.0353  1.6616 -1.7158
 6650SOL    HW227192   9.600   1.531   4.852 -0.1235 -0.2342  0.3699
 6651SOL     OW27193   2.900   0.533   2.200 -0.2747 -0.4699 -0.1356
 6651SOL    HW127194   2.849   0.447   2.202 -0.6476 -0.2319  0.6185
 6651SOL    HW227195   2.935   0.549   2.108 -0.0572 -1.5186 -0.2411
 6652SOL     OW27196   2.917   5.325   6.175 -0.0648 -0.2458  0.4570
 6652SOL    HW127197   2.985   5.391   6.208 -1.0623  0.5856  0.8764
 6652SOL    HW227198   2.839   5.374   6.136 -0.3174 -1.1967 -0.2625
 6653SOL     OW27199   4.081   1.770   5.579  0.2287 -0.3694 -0.1533
 6653SOL    HW127200   4.138   1.811   5.651 -0.6931  1.3255 -0.3895
 6653SOL    HW227201   3.992   1.745   5.617 -0.0930  0.0953 -0.6090
 6656SOL     OW27202   1.161   5.872   2.587  0.0546  0.3476 -0.2955
 6656SOL    HW127203   1.132   5.954   2.637 -0.5711 -1.4574  2.3490
 6656SOL    HW227204   1.092   5.849   2.519  0.4357  2.2293 -1.3745
 6657SOL     OW27205   6.385   7.566   3.612 -0.1430  0.0105  0.1029
 6657SOL    HW127206   6.371   7.659   3.576 -3.2480 -1.2441 -2.2163
 6657SOL    HW227207   6.375   7.501   3.537 -0.3671 -2.3326  2.1368
 6658SOL     OW27208   2.005   9.813   2.748 -0.0256 -0.3105 -0.3616
 6658SOL    HW127209   2.080   9.878   2.763  0.2389  0.0243 -2.8758
 6658SOL    HW227210   1.995   9.754   2.828  0.6182  1.9285  1.4331
 6659SOL     OW27211   2.834   3.958   0.225  0.1913 -0.5058 -0.6138
 6659SOL    HW127212   2.899   3.891   0.189  1.1543 -0.3318  0.7668
 6659SOL    HW227213   2.880   4.045   0.238 -0.2460 -0.4337  0.5653
 6660SOL     OW27214   3.791   7.261   2.283  0.2229  0.1328  0.2210
 6660SOL    HW127215   3.815   7.181   2.228  0.0217 -0.3588  0.8523
 6660SOL    HW227216   3.864   7.279   2.349  0.0647  0.2144  0.3731
 6661SOL     OW27217   7.762   4.013   4.114 -0.1010 -0.0452  0.2747
 6661SOL    HW127218   7.704   4.079   4.161 -0.0349 -0.6499  1.2317
 6661SOL    HW227219   7.733   4.003   4.019 -1.4685 -0.2371  0.7079
 6662SOL     OW27220   2.694   1.738   2.676 -0.2861  0.2429 -0.2683
 6662SOL    HW127221   2.667   1.810   2.739 -0.4074 -0.1914  0.1821
 6662SOL    HW227222   2.731   1.778   2.592 -1.6220  0.8430 -0.5906
 6663SOL     OW27223   4.213   5.836   2.701  0.1850 -0.0648  0.3842
 6663SOL    HW127224   4.240   5.784   2.620  0.5963  2.1474 -0.9269
 6663SOL    HW227225   4.118   5.814   2.724 -0.3813  0.3130 -1.5257
 6664SOL     OW27226   2.366   7.976   1.854  0.2821  0.0744  0.9140
 6664SOL    HW127227   2.457   7.956   1.817  0.5332 -0.7516  1.9953
 6664SOL    HW227228   2.320   8.042   1.794  1.9051  1.1196  0.7978
 6665SOL     OW27229   9.258   0.307   2.830  0.6715 -0.3132  0.1998
 6665SOL    HW127230   9.173   0.312   2.778  0.7069  0.2560  0.2011
 6665SOL    HW227231   9.322   0.375   2.796  1.4374 -1.2948 -0.3622
 6666SOL     OW27232   0.303   7.149   4.704  0.1103  0.0013 -0.2194
 6666SOL    HW127233   0.352   7.205   4.637  0.8165 -0.0657  0.2318
 6666SOL    HW227234   0.343   7.164   4.795  0.0895 -0.9877 -0.0465
 6667SOL     OW27235   8.488   3.018   3.917  0.5821 -0.0630 -0.0103
 6667SOL    HW127236   8.494   3.107   3.962 -0.6008 -0.0170  0.0571
 6667SOL    HW227237   8.406   3.014   3.861  0.4281 -1.2480  0.2826
 6668SOL     OW27238   6.209   0.271   4.657  0.4530  0.0920 -0.3704
 6668SOL    HW127239   6.185   0.178   4.684  2.1665 -0.3115 -0.1953
 6668SOL    HW227240   6.192   0.333   4.734 -0.1613 -0.1552 -0.3019
 6669SOL     OW27241   2.258   9.114   0.637 -0.4552 -0.6436  0.7640
 6669SOL    HW127242   2.338   9.159   0.675 -0.4800  2.0162 -2.1289
 6669SOL    HW227243   2.286   9.033   0.586  0.2962 -0.1963  0.4653
 6670SOL     OW27244   8.517   8.518   5.013 -0.0854  0.0860  0.1984
 6670SOL    HW127245   8.425   8.511   5.049  0.7392 -1.5519  2.0172
 6670SOL    HW227246   8.578   8.455   5.060  2.1053  1.5004 -0.6047
 6672SOL     OW27247   0.957   3.356   4.597  0.1100 -0.0726 -0.0003
 6672SOL    HW127248   0.989   3.304   4.518 -0.0740  0.1239 -0.2076
 6672SOL    HW227249   1.027   3.356   4.668  0.6780  0.5743 -0.5499
 6673SOL     OW27250   0.002   8.744   2.248  0.0358  0.4776 -0.0698
 6673SOL    HW127251   0.076   8.687   2.212 -0.5268  0.5096 -1.2981
 6673SOL    HW227252  -0.073   8.684   2.279  0.1308  0.4891  0.1876
 6674SOL     OW27253   9.126   0.134   1.885  0.3390  0.2963  0.0617
 6674SOL    HW127254   9.037   0.139   1.930  0.2930  0.3810 -0.0408
 6674SOL    HW227255   9.190   0.086   1.945  0.5269  1.2338  0.6324
 6676SOL     OW27256   5.172   0.435   2.268 -0.6016 -0.2187  0.2257
 6676SOL    HW127257   5.105   0.377   2.221 -1.1157 -0.5060  1.3189
 6676SOL    HW227258   5.207   0.503   2.204 -1.3948 -0.5289 -0.5465
 6677SOL     OW27259   6.492   7.863   3.137 -0.0127 -0.3736 -0.1744
 6677SOL    HW127260   6.556   7.800   3.182 -1.2559 -0.2299  1.8570
 6677SOL    HW227261   6.532   7.954   3.133  0.4286 -0.5624 -0.0443
 6678SOL     OW27262   0.484   3.707   1.885  0.5060 -0.2077  0.5277
 6678SOL    HW127263   0.489   3.607   1.894 -2.5883 -0.3245  1.4638
 6678SOL    HW227264   0.527   3.735   1.799  1.1333 -2.3515  0.1075
 6679SOL     OW27265   5.723   8.445   5.589  0.7051  0.4202 -0.2669
 6679SOL    HW127266   5.757   8.371   5.647  1.4345  0.3049 -0.8318
 6679SOL    HW227267   5.760   8.532   5.622 -1.8785  0.8084  1.7181
 6680SOL     OW27268   2.250   3.130   2.436 -0.8115 -0.0538  0.4248
 6680SOL    HW127269   2.323   3.109   2.502 -2.0966 -1.1634  1.5057
 6680SOL    HW227270   2.169   3.076   2.457 -2.1643  1.5920 -0.4288
 6681SOL     OW27271   4.015   4.667   2.397  0.0157  0.5960  0.4426
 6681SOL    HW127272   4.101   4.617   2.407  0.1901  0.7740 -0.1478
 6681SOL    HW227273   4.020   4.725   2.315 -0.5677  0.8010  0.5542
 6682SOL     OW27274   7.363   0.675   5.472 -0.2592 -0.4061  0.2703
 6682SOL    HW127275   7.453   0.699   5.434 -0.9187  1.7726  0.0657
 6682SOL    HW227276   7.370   0.585   5.516  2.5759  0.6449  2.1519
 6683SOL     OW27277   4.700   5.562   3.335  0.0152 -0.5949  0.2254
 6683SOL    HW127278   4.683   5.636   3.399  0.3399 -0.0569 -0.3068
 6683SOL    HW227279   4.640   5.572   3.255  1.6851  0.4415 -0.9395
 6684SOL     OW27280   9.784   8.704   4.732  0.0275 -0.0045  0.3286
 6684SOL    HW127281   9.874   8.733   4.700  0.5125 -2.7422 -0.8974
 6684SOL    HW227282   9.761   8.616   4.692 -2.9649  0.3759  1.1108
 6685SOL     OW27283   6.453   7.729   6.153 -0.6225  0.0951  0.0382
 6685SOL    HW127284   6.408   7.809   6.194 -1.6686 -1.0706  1.2043
 6685SOL    HW227285   6.419   7.716   6.060 -2.0732 -0.2569  0.6030
 6686SOL     OW27286   2.859   6.853   4.568  0.1037  0.3929  0.2130
 6686SOL    HW127287   2.887   6.947   4.546 -0.2296  0.7130  1.1410
 6686SOL    HW227288   2.761   6.843   4.548  0.2375  0.1042 -0.3146
 6687SOL     OW27289   2.593   3.368   1.774 -0.7058  0.5441  0.5857
 6687SOL    HW127290   2.611   3.292   1.712 -0.5522  1.8230 -0.9522
 6687SOL    HW227291   2.535   3.336   1.849  1.0542 -1.5963  1.1013
 6688SOL     OW27292   9.736   8.009   6.116  0.1930  0.5175  0.2443
 6688SOL    HW127293   9.665   8.077   6.097 -0.7645 -0.0617  1.6932
 6688SOL    HW227294   9.767   7.968   6.030 -0.6706  1.3299 -0.4568
 6689SOL     OW27295   8.778   0.730   0.720  0.3214  0.6976 -0.0065
 6689SOL    HW127296   8.725   0.774   0.648  0.0474  1.2282  0.5213
 6689SOL    HW227297   8.778   0.631   0.705  0.4736  0.8204 -0.8730
 6690SOL     OW27298   4.133   7.764   3.416  0.7937 -0.1253 -0.4246
 6690SOL    HW127299   4.063   7.704   3.379  0.0016  0.9162 -0.6370
 6690SOL    HW227300   4.197   7.711   3.471 -0.7318 -0.9255  0.6015
 6691SOL     OW27301   7.779   5.427   0.550 -0.3296  0.2981 -0.0782
 6691SOL    HW127302   7.725   5.505   0.582  2.6056  1.1498  3.0522
 6691SOL    HW227303   7.734   5.342   0.577 -0.7684  0.9877  1.4177
 6692SOL     OW27304   0.311   9.343   5.514 -0.1731 -0.0389 -0.4158
 6692SOL    HW127305   0.310   9.243   5.519  1.2021  0.0218  1.5247
 6692SOL    HW227306   0.396   9.372   5.471  0.6154  0.3649  1.3889
 6693SOL     OW27307   2.305   3.595   1.544 -0.7109 -0.4100  0.0286
 6693SOL    HW127308   2.389   3.617   1.594 -1.0302  0.1292  0.3291
 6693SOL    HW227309   2.316   3.506   1.499  0.1892 -0.1472 -0.3018
 6694SOL     OW27310   3.507   0.501   1.000 -0.3743  0.4403  0.5800
 6694SOL    HW127311   3.538   0.589   0.964  2.0740 -1.4728 -2.2023
 6694SOL    HW227312   3.417   0.479   0.963 -0.8262  1.5246  0.9836
 6695SOL     OW27313   7.676   8.127   2.616 -0.3865  0.3203  0.1482
 6695SOL    HW127314   7.640   8.082   2.697 -1.1903 -1.0107 -0.9362
 6695SOL    HW227315   7.639   8.220   2.611 -2.9709 -0.6876 -0.4350
 6696SOL     OW27316   0.133   4.148   0.825 -0.4114 -0.5450  0.4636
 6696SOL    HW127317   0.079   4.214   0.878  0.7903 -0.2302  1.2915
 6696SOL    HW227318   0.214   4.122   0.876 -0.0960 -1.5165 -0.5204
 6697SOL     OW27319   7.591   6.897   2.005 -0.0753  0.2018 -0.5631
 6697SOL    HW127320   7.679   6.924   1.966 -0.1830  1.6338  0.1773
 6697SOL    HW227321   7.537   6.978   2.025 -0.1248 -0.4968  2.3855
 6698SOL     OW27322   4.160   8.929   4.928 -0.5662 -0.1647  0.4730
 6698SOL    HW127323   4.250   8.958   4.960  0.5877 -2.1686 -0.8266
 6698SOL    HW227324   4.098   8.918   5.006  0.8136 -0.3905  1.5454
 6699SOL     OW27325   5.979   4.889   0.839 -0.6908 -0.6665  0.1228
 6699SOL    HW127326   6.010   4.964   0.898 -0.0841 -0.1199 -0.8739
 6699SOL    HW227327   6.058   4.833   0.813 -0.6404  0.2426 -1.7565
 6700SOL     OW27328   7.275   2.361   1.384  0.1463  0.3948  0.2020
 6700SOL    HW127329   7.260   2.294   1.458 -0.8029  0.2129 -0.1485
 6700SOL    HW227330   7.357   2.415   1.404 -1.0234  1.4825  2.2330
 6701SOL     OW27331   0.611   8.877   1.928 -0.2999  0.9939 -0.2637
 6701SOL    HW127332   0.622   8.842   2.021 -1.5676  0.2357 -0.3869
 6701SOL    HW227333   0.683   8.840   1.869 -0.3144  0.3663  0.1125
 6702SOL     OW27334   8.191   0.488   3.602 -0.5615 -0.0373 -0.0344
 6702SOL    HW127335   8.181   0.518   3.697  1.3843  1.4008 -0.2472
 6702SOL    HW227336   8.199   0.568   3.542  1.2210 -0.9359 -1.0431
 6703SOL     OW27337   3.722   5.739   0.887 -0.1187  0.0065  0.5387
 6703SOL    HW127338   3.744   5.650   0.925  1.7030 -0.1939 -0.9513
 6703SOL    HW227339   3.635   5.771   0.926 -1.1212 -2.6720  0.6225
 6704SOL     OW27340   4.847   7.266   3.336  0.0302 -0.4459 -0.3365
 6704SOL    HW127341   4.810   7.252   3.427 -0.8071  0.6765 -0.5030
 6704SOL    HW227342   4.895   7.183   3.307 -0.0146 -0.9373  0.9659
 6705SOL     OW27343   0.026   4.200   5.202  0.7620  0.3643 -0.1144
 6705SOL    HW127344   0.121   4.200   5.232 -0.5965  1.1587  4.6927
 6705SOL    HW227345  -0.007   4.295   5.197 -0.3434  0.0045  0.2697
 6706SOL     OW27346   7.737   5.619   1.421 -0.5752  0.1273 -0.2709
 6706SOL    HW127347   7.792   5.663   1.350 -0.0260  2.2089  1.4224
 6706SOL    HW227348   7.778   5.531   1.445  1.5026  1.2680  0.3601
 6707SOL     OW27349   0.730   4.348   5.193 -0.4799  0.1777 -0.5792
 6707SOL    HW127350   0.643   4.337   5.147 -1.6967 -2.8739  2.2688
 6707SOL    HW227351   0.800   4.294   5.147 -0.9701 -0.3860 -0.6629
 6708SOL     OW27352   9.403   6.773   1.739  0.1036 -0.8284  0.4227
 6708SOL    HW127353   9.345   6.692   1.732  2.6910 -2.8740  1.6317
 6708SOL    HW227354   9.389   6.818   1.827  1.9873 -2.6933  1.7255
 6709SOL     OW27355   1.378   8.353   4.793 -0.1399 -0.0674 -0.0417
 6709SOL    HW127356   1.434   8.308   4.723 -0.9000  0.7284 -1.1994
 6709SOL    HW227357   1.292   8.383   4.751 -1.3786 -1.1611  1.6841
 6710SOL     OW27358   1.706   9.377   5.968  0.3894 -0.2820 -0.2768
 6710SOL    HW127359   1.637   9.449   5.976  1.9402  0.8969  3.3563
 6710SOL    HW227360   1.667   9.290   5.997 -0.1523 -0.0330 -0.2551
 6711SOL     OW27361   1.769   7.903   6.037 -0.1869 -0.2033 -0.3996
 6711SOL    HW127362   1.761   7.916   6.136 -2.5701  0.6264 -0.6777
 6711SOL    HW227363   1.713   7.824   6.010  0.9866 -0.8344 -1.0081
 6712SOL     OW27364   9.116   4.287   3.226  0.4150  0.8759  0.2675
 6712SOL    HW127365   9.038   4.299   3.288 -0.6060  1.5391 -1.1144
 6712SOL    HW227366   9.195   4.253   3.278 -1.3071 -1.5806  1.3729
 6713SOL     OW27367   0.616   8.153   0.323 -0.8683  0.0913  0.3687
 6713SOL    HW127368   0.542   8.169   0.258  0.8544  0.7622 -1.4728
 6713SOL    HW227369   0.624   8.231   0.385 -0.9227  0.5521 -0.2094
 6714SOL     OW27370   0.514   1.528   5.326 -0.3019  0.4269 -0.2949
 6714SOL    HW127371   0.600   1.484   5.354 -1.3677 -2.8303 -1.9965
 6714SOL    HW227372   0.524   1.627   5.336  2.6636 -0.0281  2.2681
 6715SOL     OW27373   2.145   4.028   2.867  0.2633  0.0185  0.2449
 6715SOL    HW127374   2.095   3.951   2.827 -1.1932  1.0937 -0.0610
 6715SOL    HW227375   2.184   4.084   2.794  0.4739  0.1106  0.4283
 6716SOL     OW27376   5.543   1.053   1.783 -0.7033 -0.7648  0.0532
 6716SOL    HW127377   5.622   1.088   1.732 -0.1502 -2.4328 -0.2550
 6716SOL    HW227378   5.495   1.130   1.825  1.1602  0.2710  0.3676
 6717SOL     OW27379   4.024   2.394   0.314  0.2447 -0.4355  0.9346
 6717SOL    HW127380   3.949   2.455   0.335  0.9289  0.1045  1.8500
 6717SOL    HW227381   4.099   2.446   0.272  0.7057 -0.6958  1.4292
 6719SOL     OW27382   4.063   8.147   6.158  0.2221 -0.2456 -0.0391
 6719SOL    HW127383   4.088   8.082   6.231 -1.9522 -2.0619 -0.8587
 6719SOL    HW227384   3.970   8.179   6.173  0.5296  1.0366 -0.8545
 6720SOL     OW27385   6.289   4.879   1.041  0.3257 -0.2160  0.2939
 6720SOL    HW127386   6.277   4.977   1.025  0.0623 -0.3709 -0.4709
 6720SOL    HW227387   6.269   4.858   1.137 -0.2704  0.3697  0.3007
 6721SOL     OW27388   0.095   5.952   5.970 -0.1401 -0.5405 -0.4557
 6721SOL    HW127389   0.134   5.935   5.880 -1.1381 -0.8060 -0.8445
 6721SOL    HW227390   0.146   5.901   6.039  0.3375 -0.6997 -0.9287
 6723SOL     OW27391   0.340   9.772   5.799 -0.7319  0.7688 -0.4456
 6723SOL    HW127392   0.407   9.710   5.840  1.0984  2.9513 -0.0068
 6723SOL    HW227393   0.248   9.746   5.828  0.0363 -1.3754  0.1589
 6724SOL     OW27394   9.538   5.282   5.077 -0.3918  0.3772  0.1671
 6724SOL    HW127395   9.598   5.222   5.131 -1.5759 -0.7989  0.2034
 6724SOL    HW227396   9.594   5.343   5.021  0.8394 -0.5933  0.3126
 6725SOL     OW27397   2.850   7.865   2.804  0.3152  0.2777  0.4241
 6725SOL    HW127398   2.874   7.774   2.837 -0.2369  0.0738  0.2724
 6725SOL    HW227399   2.763   7.861   2.755 -0.0013  0.9841  0.9093
 6726SOL     OW27400   1.585   4.475   0.495  0.1963  0.1439 -0.3783
 6726SOL    HW127401   1.614   4.408   0.564 -1.2285  0.1493  0.2342
 6726SOL    HW227402   1.595   4.435   0.404 -0.8186 -0.9872 -0.0103
 6728SOL     OW27403   1.730   7.057   2.266  0.1861  0.5903 -0.0294
 6728SOL    HW127404   1.808   7.066   2.328  0.2439 -1.1532  0.1683
 6728SOL    HW227405   1.645   7.059   2.319  0.1442  1.2144 -0.1161
 6729SOL     OW27406   0.881   3.827   0.853  0.2037  0.1812  0.3195
 6729SOL    HW127407   0.917   3.867   0.937 -0.6906 -0.5105  1.0449
 6729SOL    HW227408   0.939   3.751   0.825  0.4289  0.3268  0.3892
 6730SOL     OW27409   2.994   1.102   0.590 -0.1404 -0.2105 -0.1734
 6730SOL    HW127410   2.950   1.191   0.600 -1.8003 -0.7523 -2.2688
 6730SOL    HW227411   2.924   1.031   0.582  1.1553 -1.5538  0.3129
 6731SOL     OW27412   6.165   1.774   3.722  0.4048 -0.2843 -0.1267
 6731SOL    HW127413   6.100   1.830   3.671  1.2923 -0.4738 -1.4908
 6731SOL    HW227414   6.195   1.698   3.665  1.3146 -0.5796  0.7315
 6732SOL     OW27415   3.252   4.631   5.362 -0.5205  0.1426  0.0835
 6732SOL    HW127416   3.316   4.657   5.434 -0.8463 -0.0518  0.4458
 6732SOL    HW227417   3.289   4.554   5.311  0.0115  0.7009 -0.3795
 6734SOL     OW27418   0.534   1.495   1.316 -0.0713  0.0215 -0.0322
 6734SOL    HW127419   0.463   1.532   1.255  0.0237 -0.5617 -0.4989
 6734SOL    HW227420   0.522   1.396   1.325  0.8454 -0.1190 -0.3206
 6735SOL     OW27421   2.626   2.675   3.199  0.1044 -0.4420  0.0992
 6735SOL    HW127422   2.586   2.584   3.203  0.4316 -0.5328  2.0742
 6735SOL    HW227423   2.687   2.682   3.120  1.1060 -2.3935  0.6720
 6737SOL     OW27424   4.968   3.640   1.264  0.1430 -0.2367 -0.5642
 6737SOL    HW127425   5.066   3.637   1.282 -0.0173 -0.7659  0.2468
 6737SOL    HW227426   4.938   3.551   1.228 -0.5117 -0.9571  1.7185
 6738SOL     OW27427   6.480   0.577   4.470 -0.1200  0.2370  1.0021
 6738SOL    HW127428   6.513   0.485   4.445 -0.3621  0.5285 -0.4276
 6738SOL    HW227429   6.559   0.637   4.485  0.0428  0.4433 -0.5682
 6739SOL     OW27430   7.876   3.317   1.897 -0.4275  0.3008 -0.4373
 6739SOL    HW127431   7.831   3.391   1.945 -0.6672  0.4204 -0.8474
 6739SOL    HW227432   7.888   3.341   1.801  0.6244  0.3249 -0.3032
 6741SOL     OW27433   6.188   4.334   1.269 -0.4540 -0.2137 -0.1079
 6741SOL    HW127434   6.206   4.348   1.366 -0.1737 -0.8014 -0.0686
 6741SOL    HW227435   6.144   4.415   1.231  0.4734  0.4649  0.2498
 6743SOL     OW27436   3.207   6.269   4.741  0.3163  0.6553  0.1123
 6743SOL    HW127437   3.229   6.203   4.669  0.0575  0.8750 -0.1653
 6743SOL    HW227438   3.250   6.357   4.721 -0.5918  1.0068 -0.2913
 6745SOL     OW27439   9.312   3.108   3.471  0.2310  0.0948  0.0736
 6745SOL    HW127440   9.214   3.090   3.467  0.3029 -0.2390 -0.2645
 6745SOL    HW227441   9.355   3.078   3.385  0.7070 -0.2676  0.4359
 6746SOL     OW27442   8.881   0.458   4.817  0.0729 -0.2812 -0.1831
 6746SOL    HW127443   8.827   0.378   4.792  0.0161 -0.3478  0.1561
 6746SOL    HW227444   8.979   0.436   4.810  0.0581 -0.5742  0.5343
 6747SOL     OW27445   0.267   1.405   5.702 -0.3802  0.6211  0.0180
 6747SOL    HW127446   0.217   1.486   5.671  0.6012  1.2584  0.0877
 6747SOL    HW227447   0.202   1.335   5.732 -1.2710  0.8465 -1.3605
 6748SOL     OW27448   6.800   2.364   4.283 -0.1385  0.0979 -1.1206
 6748SOL    HW127449   6.892   2.329   4.263 -0.9865 -1.6004 -2.1567
 6748SOL    HW227450   6.758   2.397   4.198 -0.0147  2.0634 -0.4409
 6749SOL     OW27451   0.705   2.961   3.467  0.5430  0.6557  0.4149
 6749SOL    HW127452   0.692   2.918   3.377 -1.4227  2.3967 -0.1936
 6749SOL    HW227453   0.637   2.925   3.531  1.8216 -0.4451  1.1809
 6750SOL     OW27454   0.421   0.196   6.302  0.9851 -0.8239 -0.2281
 6750SOL    HW127455   0.410   0.282   6.252  0.3267 -0.8680 -0.1628
 6750SOL    HW227456   0.485   0.138   6.252 -0.7689 -1.4549 -1.8266
 6751SOL     OW27457   0.376   5.955   4.146 -0.2353 -0.3278  0.4298
 6751SOL    HW127458   0.291   5.922   4.105 -0.4751  0.8866 -0.0825
 6751SOL    HW227459   0.402   6.042   4.102  1.5492 -0.9626  0.1976
 6753SOL     OW27460   9.628   9.195   5.512 -0.1116  0.5060  0.2997
 6753SOL    HW127461   9.686   9.226   5.437 -0.5986  0.6790 -0.0095
 6753SOL    HW227462   9.579   9.112   5.485 -2.1686  1.9425 -0.4907
 6754SOL     OW27463   4.602   2.787   4.619 -0.2070  0.1709  0.8546
 6754SOL    HW127464   4.556   2.811   4.704 -0.2625  1.8918  0.3471
 6754SOL    HW227465   4.689   2.837   4.612 -0.1239 -0.0860 -0.0255
 6755SOL     OW27466   9.814   8.158   3.473  0.3151  0.2520 -0.0020
 6755SOL    HW127467   9.896   8.191   3.427  1.0109 -0.7571  0.5228
 6755SOL    HW227468   9.839   8.112   3.558 -0.6027 -2.1128 -0.9781
 6756SOL     OW27469   8.719   6.328   2.441  0.1608 -0.0186 -0.0793
 6756SOL    HW127470   8.631   6.309   2.486 -1.1598  2.2734 -1.5970
 6756SOL    HW227471   8.727   6.270   2.359 -0.3333  0.3825 -0.4151
 6757SOL     OW27472   3.134   6.513   3.991  0.4401 -0.3464 -0.0791
 6757SOL    HW127473   3.129   6.576   4.068  0.7000 -1.7123  1.0931
 6757SOL    HW227474   3.042   6.481   3.968  0.4500 -0.6114  0.2447
 6758SOL     OW27475   4.539   3.758   3.518 -0.0841 -0.0703 -0.0037
 6758SOL    HW127476   4.585   3.732   3.433  0.8441 -1.2463  0.8450
 6758SOL    HW227477   4.489   3.679   3.554  0.1922  0.1844  0.9657
 6759SOL     OW27478   2.603   9.730   1.978 -0.2328  0.1701  0.1335
 6759SOL    HW127479   2.529   9.760   1.918  0.2391 -1.1798 -1.1515
 6759SOL    HW227480   2.614   9.631   1.970  1.1074  0.2395  1.0107
 6760SOL     OW27481   7.863   2.866   6.457 -0.0030 -0.3797  0.1864
 6760SOL    HW127482   7.888   2.770   6.444  1.6479  0.1277 -0.4787
 6760SOL    HW227483   7.837   2.906   6.369  0.6678  0.1596  0.2315
 6761SOL     OW27484   0.820   5.210   4.342  0.4183 -0.1666  0.2561
 6761SOL    HW127485   0.806   5.135   4.405  0.1688 -0.8645 -0.6122
 6761SOL    HW227486   0.783   5.294   4.381 -0.3472 -0.7208  0.7448
 6762SOL     OW27487   5.745   2.806   0.384 -0.2559 -0.2111 -0.1083
 6762SOL    HW127488   5.747   2.764   0.293  0.8198  0.7369 -0.5330
 6762SOL    HW227489   5.696   2.893   0.380  0.0377 -0.0323  0.1630
 6763SOL     OW27490   8.946   7.761   2.244  0.0519  0.1201 -0.3072
 6763SOL    HW127491   9.036   7.723   2.220  1.2266  2.2491  0.5165
 6763SOL    HW227492   8.923   7.833   2.179 -0.9667 -0.2522 -0.3648
 6764SOL     OW27493   7.449   6.400   3.665  0.8518 -0.2100 -0.1723
 6764SOL    HW127494   7.389   6.475   3.638 -0.7888 -1.3978  0.0760
 6764SOL    HW227495   7.442   6.385   3.764 -1.9945 -3.2921 -0.7451
 6765SOL     OW27496   2.252   4.372   4.193 -0.3777  0.4042  0.9137
 6765SOL    HW127497   2.313   4.353   4.116 -0.8270 -0.7247  0.8307
 6765SOL    HW227498   2.304   4.417   4.266  0.3866  0.1250  0.5482
 6766SOL     OW27499   2.322   6.144   5.905  0.5523 -0.0584 -0.0112
 6766SOL    HW127500   2.314   6.073   5.975 -0.1934 -0.2088 -0.2392
 6766SOL    HW227501   2.418   6.158   5.883  0.8627  0.6227  1.6821
 6769SOL     OW27502   7.277   3.951   6.213  0.7088  0.2172  0.5544
 6769SOL    HW127503   7.373   3.922   6.207  0.7025  0.6423 -2.0719
 6769SOL    HW227504   7.220   3.887   6.163 -0.2917  0.4513  1.3820
 6770SOL     OW27505   8.638   0.287   2.729  0.6774  0.4870 -0.2700
 6770SOL    HW127506   8.583   0.223   2.783  0.8479  0.0385 -0.6276
 6770SOL    HW227507   8.644   0.255   2.635  0.5449  1.1719 -0.5119
 6772SOL     OW27508   7.172   7.586   3.939  0.0878 -0.2492  0.0401
 6772SOL    HW127509   7.169   7.636   4.025 -1.0759  4.6916 -2.6648
 6772SOL    HW227510   7.079   7.566   3.909  0.3035  1.0198 -1.5758
 6774SOL     OW27511   1.938   9.786   0.024  0.4875  0.2028 -0.3997
 6774SOL    HW127512   1.901   9.875   0.047  0.8099  0.0012  0.9623
 6774SOL    HW227513   1.973   9.742   0.107 -0.2561 -1.4587 -0.9486
 6775SOL     OW27514   9.485   0.113   4.394  0.1696 -0.1549  0.3480
 6775SOL    HW127515   9.492   0.059   4.477  1.3811 -0.2853  0.1644
 6775SOL    HW227516   9.542   0.073   4.322 -1.2999 -0.3732 -0.7311
 6776SOL     OW27517   9.045   4.388   2.545  0.3029  0.1037  0.2720
 6776SOL    HW127518   9.077   4.457   2.611  0.5131  0.4314 -0.1678
 6776SOL    HW227519   8.946   4.397   2.533  0.6229  1.7481 -1.3776
 6777SOL     OW27520   8.145   7.452   5.805 -0.0464  0.7588 -0.0696
 6777SOL    HW127521   8.218   7.428   5.869  1.1013 -1.2317 -2.0962
 6777SOL    HW227522   8.148   7.551   5.787  3.3341  0.4555 -1.5115
 6778SOL     OW27523   7.883   7.823   2.404  0.5514 -0.9461 -0.2936
 6778SOL    HW127524   7.923   7.761   2.471  0.2808  0.6435  1.3528
 6778SOL    HW227525   7.934   7.909   2.403 -1.2998  0.1861  0.0940
 6779SOL     OW27526   5.057   7.691   6.115  0.0714  0.2761  0.4041
 6779SOL    HW127527   4.976   7.713   6.170  0.2753  3.6289 -0.5625
 6779SOL    HW227528   5.070   7.760   6.045  1.9460 -1.9873 -1.5704
 6780SOL     OW27529   3.902   8.386   2.458 -0.1139  0.1176  0.1802
 6780SOL    HW127530   3.814   8.409   2.418  0.0788  0.4325 -0.0597
 6780SOL    HW227531   3.946   8.469   2.492  0.9217  0.2215 -1.3667
 6782SOL     OW27532   9.679   4.015   2.495 -0.1565 -0.0329  0.1753
 6782SOL    HW127533   9.661   4.076   2.573  2.3942  0.2894  0.5441
 6782SOL    HW227534   9.694   4.070   2.413  1.5737 -0.1748  0.3888
 6783SOL     OW27535   4.132   5.064   0.522 -0.0768  0.0435  0.0851
 6783SOL    HW127536   4.034   5.081   0.508 -0.2545 -0.6697  0.4127
 6783SOL    HW227537   4.185   5.132   0.473 -0.7173 -0.4637 -1.3364
 6785SOL     OW27538   0.165   8.846   1.146  0.6072 -0.4257  0.3334
 6785SOL    HW127539   0.084   8.809   1.101  0.7412 -1.0077  0.5745
 6785SOL    HW227540   0.147   8.941   1.173  0.8100  0.2061 -1.6763
 6786SOL     OW27541   0.072   5.306   5.662  0.0050  0.3774  0.4198
 6786SOL    HW127542   0.009   5.314   5.586 -0.9376 -1.5181  0.9794
 6786SOL    HW227543   0.165   5.290   5.628 -0.7565 -2.7308 -0.3366
 6787SOL     OW27544   3.057   3.442   4.832 -0.1300 -0.0902 -0.3437
 6787SOL    HW127545   3.048   3.524   4.775 -2.4068 -0.2134 -0.2082
 6787SOL    HW227546   3.072   3.469   4.927 -1.7268  0.2013 -0.1646
 6788SOL     OW27547   4.433   3.949   4.083 -0.4109  0.2935  0.0716
 6788SOL    HW127548   4.407   3.859   4.049 -1.2918  0.7121 -0.3684
 6788SOL    HW227549   4.459   4.007   4.007 -1.1832  0.8396  0.2132
 6789SOL     OW27550   7.612   8.223   5.063 -0.7168 -0.2131  0.5429
 6789SOL    HW127551   7.670   8.187   4.990 -1.1172 -0.1477  0.1988
 6789SOL    HW227552   7.543   8.284   5.025  0.2034  1.2553  1.1611
 6790SOL     OW27553   5.947   8.707   4.445  0.1132 -0.3289  0.1168
 6790SOL    HW127554   5.970   8.616   4.481  0.1947 -0.3884 -0.0846
 6790SOL    HW227555   5.934   8.701   4.346 -1.5604 -0.4488  0.3294
 6791SOL     OW27556   0.574   2.207   3.531  0.1363 -0.0752  0.6075
 6791SOL    HW127557   0.478   2.205   3.558  0.2840  0.7133  1.2225
 6791SOL    HW227558   0.594   2.293   3.484  0.4453 -0.4177  0.1015
 6792SOL     OW27559   8.097   4.705   2.673 -0.0965 -0.3726 -0.2571
 6792SOL    HW127560   8.137   4.779   2.727 -0.3800 -1.0704  0.9346
 6792SOL    HW227561   8.167   4.636   2.654 -0.4222 -0.9731  0.7225
 6793SOL     OW27562   8.438   1.788   3.633  0.2322 -0.6017 -0.2273
 6793SOL    HW127563   8.436   1.787   3.533 -0.9021  0.3217 -0.2392
 6793SOL    HW227564   8.370   1.724   3.668  0.7813 -1.0840 -0.0456
 6794SOL     OW27565   0.607   8.897   4.608  0.0024  0.5421 -0.4897
 6794SOL    HW127566   0.568   8.988   4.624 -2.3882 -0.5515  0.0426
 6794SOL    HW227567   0.706   8.905   4.599  0.0162  2.9890  1.3058
 6795SOL     OW27568   0.553   0.482   3.180  0.2997 -0.1810 -0.0067
 6795SOL    HW127569   0.529   0.386   3.194 -1.2522  0.1565 -0.3192
 6795SOL    HW227570   0.475   0.531   3.142  1.1358  1.1821 -0.0027
 6796SOL     OW27571   2.767   4.771   5.650  0.3047  0.3418  0.2994
 6796SOL    HW127572   2.727   4.746   5.738 -1.6964  0.2748 -0.6040
 6796SOL    HW227573   2.849   4.716   5.633 -1.0880 -1.8802  0.6826
 6797SOL     OW27574   2.437   2.938   1.065 -0.0837  0.1427  0.0192
 6797SOL    HW127575   2.387   2.929   0.979  1.7564 -1.2716 -0.9167
 6797SOL    HW227576   2.496   2.858   1.079  0.6948  1.0113  1.9003
 6798SOL     OW27577   3.590   8.552   4.142  0.3506 -0.2828 -0.2371
 6798SOL    HW127578   3.681   8.593   4.146  0.6290 -0.8135 -1.0930
 6798SOL    HW227579   3.574   8.515   4.051  0.1015 -2.1163  0.5311
 6799SOL     OW27580   5.072   0.451   4.644  0.2901  0.2046  0.3453
 6799SOL    HW127581   5.052   0.356   4.624  0.5735  0.3492 -0.6384
 6799SOL    HW227582   5.165   0.459   4.680  0.4689  0.1692 -0.0999
 6800SOL     OW27583   9.055   9.375   4.559 -0.5765 -0.0362 -0.2283
 6800SOL    HW127584   9.012   9.413   4.477  0.3487  1.3874 -0.0539
 6800SOL    HW227585   9.149   9.407   4.566 -0.0572 -1.6352  0.4121
 6802SOL     OW27586   0.465   2.203   4.855 -0.2266 -0.4302  0.0513
 6802SOL    HW127587   0.547   2.247   4.819 -1.1685  0.3960 -1.1339
 6802SOL    HW227588   0.441   2.124   4.798 -1.4279  0.5774 -0.8814
 6803SOL     OW27589   7.386   1.856   5.436  0.7906 -0.0330 -0.3360
 6803SOL    HW127590   7.295   1.832   5.402  0.3054  0.0848  0.8712
 6803SOL    HW227591   7.424   1.779   5.488  0.6233  0.5833  0.7056
 6804SOL     OW27592   1.883   4.883   4.829 -0.5052  0.7421  0.0314
 6804SOL    HW127593   1.920   4.794   4.800  0.6226  1.3896 -0.5414
 6804SOL    HW227594   1.956   4.938   4.869 -0.3535  2.7683 -2.8082
 6807SOL     OW27595   0.142   1.168   4.679  0.5697  0.1976  0.1459
 6807SOL    HW127596   0.165   1.089   4.735 -2.2876  0.7114  2.1388
 6807SOL    HW227597   0.043   1.182   4.678  0.8576  2.6018 -1.7513
 6808SOL     OW27598   3.502   0.539   2.110  0.0437  1.0392  0.0491
 6808SOL    HW127599   3.409   0.551   2.146 -0.1134 -0.4961  0.1868
 6808SOL    HW227600   3.568   0.581   2.172 -0.4531  0.9071  0.6681
 6809SOL     OW27601   9.674   8.652   1.035 -0.2553 -0.3384 -0.1639
 6809SOL    HW127602   9.620   8.684   0.957 -0.4291  1.2747  0.6002
 6809SOL    HW227603   9.622   8.583   1.086 -1.1024  0.3441 -0.1070
 6810SOL     OW27604   2.383   6.704   4.427  0.1719 -0.1706  0.0367
 6810SOL    HW127605   2.301   6.673   4.474  1.6143 -2.3177  1.1943
 6810SOL    HW227606   2.358   6.742   4.338 -1.9195 -2.3481 -0.3389
 6811SOL     OW27607   0.500   7.350   3.874  0.1225 -0.2945 -0.2485
 6811SOL    HW127608   0.508   7.299   3.960 -1.0288  2.3543  1.4738
 6811SOL    HW227609   0.582   7.406   3.861 -1.6548  2.8980  1.5855
 6814SOL     OW27610   2.305   6.150   1.225 -0.0940  0.0141 -0.1064
 6814SOL    HW127611   2.318   6.102   1.312 -1.7378 -0.2200  0.0145
 6814SOL    HW227612   2.328   6.088   1.150  0.7734  0.0321  0.1401
 6815SOL     OW27613   2.945   4.286   2.572 -0.0783 -0.1541 -0.1021
 6815SOL    HW127614   2.997   4.281   2.486 -0.3943  1.5034 -0.4068
 6815SOL    HW227615   2.911   4.379   2.585 -1.2103 -0.7256  1.1400
 6816SOL     OW27616   3.230   1.394   0.505 -0.3101 -0.0324  0.2629
 6816SOL    HW127617   3.315   1.445   0.504 -0.5746  0.4142  0.2636
 6816SOL    HW227618   3.212   1.360   0.598  0.3954 -1.0290  0.0384
 6821SOL     OW27619   7.628   3.188   2.749 -0.2343  0.4572 -0.0513
 6821SOL    HW127620   7.584   3.120   2.808 -0.4323  0.4208 -0.2402
 6821SOL    HW227621   7.595   3.177   2.655 -0.2214  0.7726 -0.0932
 6822SOL     OW27622   0.888   8.069   0.341  0.1039  1.2128  0.5817
 6822SOL    HW127623   0.851   7.979   0.365  2.0502 -0.2130 -1.5083
 6822SOL    HW227624   0.814   8.130   0.315 -1.2200  0.1029  1.6875
 6824SOL     OW27625   0.865   8.193   0.660  0.4158 -0.2666  0.0503
 6824SOL    HW127626   0.783   8.189   0.717  1.1855 -0.2443  1.1739
 6824SOL    HW227627   0.894   8.099   0.637 -1.2373 -0.2426 -2.2915
 6825SOL     OW27628   4.667   4.198   4.701 -0.3217 -0.5431  0.0881
 6825SOL    HW127629   4.568   4.189   4.700 -0.4584  0.3740  2.2016
 6825SOL    HW227630   4.696   4.255   4.624 -1.3673 -1.1793 -0.7988
 6826SOL     OW27631   8.519   6.110   4.784  0.4128 -0.2999 -0.2519
 6826SOL    HW127632   8.563   6.196   4.758  0.5316 -0.3983 -0.3748
 6826SOL    HW227633   8.427   6.130   4.819  1.1135  0.0557  1.4719
 6827SOL     OW27634   4.948   2.349   0.850  0.2079  0.0747  0.1724
 6827SOL    HW127635   4.878   2.400   0.799 -0.1920 -0.0437  0.5952
 6827SOL    HW227636   5.037   2.361   0.806 -0.4062 -1.3602 -1.5079
 6830SOL     OW27637   6.975   3.746   1.809 -0.0249  0.6771  0.4308
 6830SOL    HW127638   6.907   3.712   1.744  0.3433 -0.0573  0.4272
 6830SOL    HW227639   6.948   3.720   1.902  0.3709  0.1774  0.4080
 6831SOL     OW27640   8.678   3.415   0.960 -0.0355 -0.5557  0.7230
 6831SOL    HW127641   8.675   3.476   1.039 -1.3698  1.0132 -0.5186
 6831SOL    HW227642   8.656   3.322   0.991 -0.2896 -0.0174  2.2404
 6832SOL     OW27643   1.336   0.967   1.221 -1.0094  0.3285 -0.1890
 6832SOL    HW127644   1.431   0.940   1.233 -1.4432 -0.0139  2.8175
 6832SOL    HW227645   1.327   1.065   1.240 -1.0824  0.5961 -1.5696
 6833SOL     OW27646   1.990   0.357   3.637 -0.5791  0.1518  0.3337
 6833SOL    HW127647   1.937   0.442   3.641 -0.7520  0.0320  0.5497
 6833SOL    HW227648   1.933   0.281   3.667  0.3205  0.2964  2.4793
 6834SOL     OW27649   8.440   4.354   4.420 -0.0705 -0.0588  0.1260
 6834SOL    HW127650   8.384   4.271   4.422  2.4133 -1.7700  1.0263
 6834SOL    HW227651   8.484   4.361   4.331 -0.2700  0.2979  0.0555
 6835SOL     OW27652   2.557   0.017   3.525  0.2947  0.2181 -0.1479
 6835SOL    HW127653   2.490  -0.036   3.472 -2.1285 -0.0339  3.0060
 6835SOL    HW227654   2.508   0.075   3.591  3.1086  2.5472 -0.0325
 6836SOL     OW27655   7.289   1.515   3.104 -0.1057 -0.4321  0.6425
 6836SOL    HW127656   7.374   1.481   3.064 -1.3350 -1.3587 -1.2329
 6836SOL    HW227657   7.261   1.599   3.058  0.2646  0.4136  1.9067
 6837SOL     OW27658   3.457   7.598   1.714 -0.4558 -0.5513  0.0745
 6837SOL    HW127659   3.431   7.674   1.773 -1.0676  0.0427 -0.9546
 6837SOL    HW227660   3.415   7.513   1.749 -1.7260 -0.0213 -0.1229
 6839SOL     OW27661   3.830   5.765   4.188  0.0790  0.0135 -0.2136
 6839SOL    HW127662   3.805   5.847   4.136 -0.8370 -0.7526 -0.9853
 6839SOL    HW227663   3.895   5.711   4.135 -0.4841 -0.5265 -0.3509
 6843SOL     OW27664   8.352   7.872   0.237 -0.7651 -0.3235  1.0520
 6843SOL    HW127665   8.284   7.823   0.291 -0.6809  0.3545  1.7887
 6843SOL    HW227666   8.428   7.900   0.296 -0.2493 -0.3493  0.4051
 6844SOL     OW27667   6.703   0.343   1.558  0.0007  0.4882  0.0717
 6844SOL    HW127668   6.684   0.262   1.614  0.6418  0.0435 -0.3392
 6844SOL    HW227669   6.618   0.380   1.522 -0.1580 -1.1447 -1.3066
 6845SOL     OW27670   0.544   6.494   1.382 -0.2071  0.4177 -0.1050
 6845SOL    HW127671   0.630   6.451   1.412  0.7508  1.9016 -0.6417
 6845SOL    HW227672   0.484   6.425   1.343  1.3310 -0.4464 -1.0115
 6846SOL     OW27673   1.379   3.917   1.925  0.2891  0.0282  0.3852
 6846SOL    HW127674   1.320   3.930   2.005 -0.0394  0.2559  0.1050
 6846SOL    HW227675   1.442   3.995   1.918 -0.6313  0.7190 -0.3899
 6847SOL     OW27676   2.744   5.120   2.013 -0.8556 -0.4416 -0.1457
 6847SOL    HW127677   2.671   5.080   1.957 -1.7760 -1.5306  1.7746
 6847SOL    HW227678   2.733   5.089   2.108  0.9889  0.9293  0.5267
 6848SOL     OW27679   2.687   5.464   4.988  0.4207 -0.6454  0.6318
 6848SOL    HW127680   2.685   5.500   4.895  1.1759  1.0289  1.2327
 6848SOL    HW227681   2.731   5.374   4.989 -0.8278 -1.2838 -0.8099
 6849SOL     OW27682   9.599   7.634   1.366 -0.0045  0.6769  0.4736
 6849SOL    HW127683   9.582   7.671   1.457  1.7687  0.2704  0.9797
 6849SOL    HW227684   9.512   7.625   1.318 -1.2066 -0.8462  2.8079
 6850SOL     OW27685   3.581   3.903   3.189 -0.0794 -0.2421 -0.0894
 6850SOL    HW127686   3.620   3.851   3.265 -1.3902 -0.8004  0.1994
 6850SOL    HW227687   3.571   3.999   3.217 -2.7373 -0.8894  1.2674
 6851SOL     OW27688   2.191   9.812   3.376 -0.6155 -0.0406 -0.1754
 6851SOL    HW127689   2.149   9.871   3.307 -0.3618 -0.5578 -0.7815
 6851SOL    HW227690   2.165   9.843   3.467 -0.5575  0.9482 -0.4945
 6852SOL     OW27691   9.952   8.841   3.254  0.4864 -0.5847 -0.4650
 6852SOL    HW127692   9.961   8.880   3.163  0.2009 -0.1264 -0.2975
 6852SOL    HW227693   9.962   8.741   3.249  1.5861 -0.4642 -0.8380
 6853SOL     OW27694   4.719   6.374   0.756  0.1967  0.2645 -0.3040
 6853SOL    HW127695   4.747   6.461   0.795 -0.9563  0.7874 -0.6248
 6853SOL    HW227696   4.770   6.357   0.672  0.7067  0.4317 -0.0327
 6854SOL     OW27697   3.109   7.862   0.934  0.1547  0.5300 -0.2473
 6854SOL    HW127698   3.133   7.816   1.020  1.5574  0.0198 -0.8873
 6854SOL    HW227699   3.193   7.889   0.887 -0.4956 -1.3304 -2.5833
 6855SOL     OW27700   6.478   1.854   3.359 -0.5632  0.1078  0.4404
 6855SOL    HW127701   6.466   1.876   3.262 -0.7355 -0.6415  0.2897
 6855SOL    HW227702   6.532   1.771   3.368 -3.6004 -1.8886  0.8750
 6856SOL     OW27703   9.902   8.778   5.212 -0.0988  0.4813  0.0941
 6856SOL    HW127704   9.842   8.816   5.142  0.8369  1.6190 -0.1231
 6856SOL    HW227705   9.849   8.755   5.293 -1.0268  0.1825 -0.5939
 6858SOL     OW27706   3.248   0.382   0.947 -0.2852 -0.4032 -0.0225
 6858SOL    HW127707   3.298   0.325   0.881  0.1280 -1.5229  1.2452
 6858SOL    HW227708   3.209   0.324   1.018 -0.9974  0.7730  0.5563
 6859SOL     OW27709   8.564   0.215   5.482 -0.2405  0.3306  0.2025
 6859SOL    HW127710   8.656   0.190   5.452 -0.1958 -0.4306  0.9640
 6859SOL    HW227711   8.570   0.256   5.573 -0.6919  0.0265  0.3651
 6862SOL     OW27712   8.537   9.241   1.531  0.1631 -0.2168 -0.1380
 6862SOL    HW127713   8.448   9.206   1.501 -0.4079  2.7466 -2.1803
 6862SOL    HW227714   8.559   9.204   1.621 -2.5487 -1.9999 -0.1484
 6863SOL     OW27715   9.438   7.590   2.003  0.1219  0.8111 -0.5284
 6863SOL    HW127716   9.458   7.651   1.926  1.5113 -0.8861 -1.5418
 6863SOL    HW227717   9.464   7.497   1.980 -0.5137  0.0684  1.5957
 6864SOL     OW27718   0.700   4.736   5.253 -0.6077  0.2497 -0.6868
 6864SOL    HW127719   0.637   4.686   5.193 -0.3801  0.4170 -1.0690
 6864SOL    HW227720   0.791   4.735   5.212  0.3143 -2.5374  1.2969
 6865SOL     OW27721   2.564   3.642   1.686  0.2791 -0.3836 -0.4122
 6865SOL    HW127722   2.585   3.552   1.726  0.6923  0.4517  1.3022
 6865SOL    HW227723   2.520   3.699   1.755  3.5363  2.0611 -0.2274
 6867SOL     OW27724   9.298   2.711   4.551  0.1729  0.4638  0.9261
 6867SOL    HW127725   9.232   2.767   4.502  1.8045  0.2766 -1.5383
 6867SOL    HW227726   9.379   2.765   4.573  1.7297 -0.8151 -1.4127
 6870SOL     OW27727   1.889   9.666   0.833 -0.0109 -0.0634  0.3363
 6870SOL    HW127728   1.871   9.701   0.925 -1.3573  0.6473 -0.1882
 6870SOL    HW227729   1.856   9.731   0.765  0.2517 -0.9430 -0.6493
 6871SOL     OW27730   3.380   1.923   5.907 -0.1259  0.4330  0.2456
 6871SOL    HW127731   3.397   2.006   5.960 -0.2343  1.1452 -0.8288
 6871SOL    HW227732   3.349   1.850   5.969 -0.4184  1.3033  1.1357
 6872SOL     OW27733   2.568   1.203   6.240 -0.4384  0.1940  0.5398
 6872SOL    HW127734   2.652   1.257   6.248  1.5837 -2.5396 -1.2014
 6872SOL    HW227735   2.573   1.126   6.303 -1.5528 -0.1364  0.2230
 6874SOL     OW27736   4.320   0.234   0.756 -0.3412  0.3983 -0.0702
 6874SOL    HW127737   4.355   0.208   0.846  0.1465  1.1424 -0.0441
 6874SOL    HW227738   4.228   0.273   0.766 -1.4290 -2.0109 -0.1898
 6876SOL     OW27739   2.920   8.504   2.374 -0.0652  0.2745  0.8768
 6876SOL    HW127740   2.979   8.430   2.406  0.5052  0.3078 -0.0821
 6876SOL    HW227741   2.828   8.469   2.356  0.2564 -0.2528  0.2245
 6878SOL     OW27742   7.637   1.748   1.656 -0.6075 -0.2155 -0.0428
 6878SOL    HW127743   7.541   1.759   1.685 -0.6039  0.4168 -0.2698
 6878SOL    HW227744   7.641   1.745   1.556 -0.7693 -3.7505 -0.0124
 6879SOL     OW27745   9.969   6.363   0.857  0.1188 -0.3605 -0.2501
 6879SOL    HW127746   9.986   6.378   0.955  0.2275 -2.5574  0.0872
 6879SOL    HW227747  10.056   6.356   0.809  0.0680  1.4060 -0.6465
 6880SOL     OW27748   3.700   3.533   0.060 -0.2460 -0.5343 -0.4096
 6880SOL    HW127749   3.700   3.564  -0.035 -0.3100  0.4111 -0.1047
 6880SOL    HW227750   3.754   3.596   0.116  0.8394 -1.7588 -0.0249
 6881SOL     OW27751   5.696   9.200   5.392  0.1518  0.5950 -0.0940
 6881SOL    HW127752   5.656   9.109   5.394 -1.0416  1.1238  0.3365
 6881SOL    HW227753   5.633   9.264   5.349  0.4900  1.4566  0.6730
 6882SOL     OW27754   0.144   6.570   3.651 -0.6184 -0.1502 -0.1302
 6882SOL    HW127755   0.234   6.526   3.645 -0.1132  0.7090  0.9954
 6882SOL    HW227756   0.107   6.581   3.559  0.8622  0.3723 -0.6867
 6883SOL     OW27757   2.590   3.846   0.628 -0.4056  0.3780  0.3690
 6883SOL    HW127758   2.684   3.820   0.647  0.4590  1.8559 -1.8309
 6883SOL    HW227759   2.582   3.882   0.535 -3.0879  0.5273  0.6036
 6884SOL     OW27760   9.638   5.435   0.811 -0.5331  0.6516 -0.3114
 6884SOL    HW127761   9.693   5.485   0.878  1.3455  0.6105 -1.7595
 6884SOL    HW227762   9.623   5.342   0.843  0.1745  0.6898  0.1455
 6885SOL     OW27763   0.065   7.068   0.990  0.0385 -0.3857 -0.1887
 6885SOL    HW127764   0.098   7.058   0.896  2.1352 -0.8899  0.5908
 6885SOL    HW227765   0.008   6.989   1.014  0.0448 -0.5835 -0.8117
 6886SOL     OW27766   2.979   0.446   3.968  1.1167  0.0780 -0.2190
 6886SOL    HW127767   2.926   0.511   4.023 -0.6303 -1.7194  0.2834
 6886SOL    HW227768   3.070   0.437   4.006 -0.0996 -1.2234  2.5009
 6888SOL     OW27769   8.015   8.190   0.063  0.4234 -0.0271  0.1970
 6888SOL    HW127770   8.063   8.265   0.108 -1.1568  1.4027 -0.4524
 6888SOL    HW227771   8.043   8.185  -0.033  1.8876 -1.4504  0.6803
 6889SOL     OW27772   2.449   6.796   5.011 -0.4056 -0.2046 -0.2018
 6889SOL    HW127773   2.469   6.888   5.046 -0.2138  0.0058 -0.8541
 6889SOL    HW227774   2.524   6.766   4.952 -1.1585 -0.1658 -1.1910
 6890SOL     OW27775   4.126   6.701   0.762  0.4634  0.3672 -0.2103
 6890SOL    HW127776   4.064   6.737   0.692 -0.6039 -0.0792  0.4947
 6890SOL    HW227777   4.208   6.758   0.766 -0.5196  1.8068 -0.1821
 6891SOL     OW27778   9.749   4.443   6.398 -0.1852  0.2036 -0.2343
 6891SOL    HW127779   9.657   4.483   6.401  0.2690  1.3651 -1.1110
 6891SOL    HW227780   9.744   4.345   6.413 -1.6301  0.1954 -0.7204
 6892SOL     OW27781   1.464   2.475   5.415 -0.3335 -0.2812  0.2594
 6892SOL    HW127782   1.463   2.437   5.508 -0.2736  1.4876  1.0019
 6892SOL    HW227783   1.378   2.453   5.370 -1.0144  0.1898  1.3007
 6893SOL     OW27784   4.140   4.178   1.457  0.5385 -1.3111 -0.3585
 6893SOL    HW127785   4.232   4.214   1.442 -0.6503  1.7604 -0.5600
 6893SOL    HW227786   4.097   4.158   1.369  0.3954 -1.1205 -0.3328
 6894SOL     OW27787   0.651   2.423   2.634  0.1169 -0.3576 -0.2013
 6894SOL    HW127788   0.618   2.509   2.593 -1.0391 -0.5653  0.2754
 6894SOL    HW227789   0.636   2.348   2.570  1.7888 -0.1130 -0.9120
 6895SOL     OW27790   4.567   2.470   1.646 -0.3141 -0.3246  0.5467
 6895SOL    HW127791   4.530   2.547   1.698 -0.0621 -0.0770  0.3649
 6895SOL    HW227792   4.549   2.385   1.695 -0.8750 -0.1817  0.5939
 6897SOL     OW27793   5.766   7.870   3.192 -0.2742  0.4717  0.0722
 6897SOL    HW127794   5.731   7.789   3.144  0.0237  1.4257 -1.8237
 6897SOL    HW227795   5.832   7.917   3.133 -1.7093  3.0364  0.4578
 6899SOL     OW27796   5.875   2.656   4.472 -0.5636  0.0416 -0.3572
 6899SOL    HW127797   5.942   2.670   4.399  2.5167 -0.0235  2.3319
 6899SOL    HW227798   5.849   2.744   4.511 -1.0150 -0.0272 -0.4997
 6900SOL     OW27799   8.325   9.445   3.886  0.1869  0.3994 -0.2014
 6900SOL    HW127800   8.407   9.448   3.943 -0.6901 -2.3224  1.3128
 6900SOL    HW227801   8.245   9.459   3.944 -0.6655 -1.6242 -0.8658
 6901SOL     OW27802   7.159   9.264   2.813  0.1882 -0.0507 -0.1896
 6901SOL    HW127803   7.170   9.209   2.730 -0.2463 -0.6168  0.1190
 6901SOL    HW227804   7.223   9.232   2.883  0.5673  0.4384 -0.3114
 6902SOL     OW27805   9.138   8.957   3.896 -0.2445 -0.2901  0.2035
 6902SOL    HW127806   9.041   8.934   3.895 -0.3618  0.1151  1.5044
 6902SOL    HW227807   9.162   9.005   3.812 -1.8506  2.3976  1.2134
 6903SOL     OW27808   8.083   9.428   4.132 -0.0559  0.0927 -0.2319
 6903SOL    HW127809   8.121   9.336   4.120 -0.7018 -0.0984 -0.8282
 6903SOL    HW227810   8.158   9.493   4.144  0.4450 -0.3425 -0.9616
 6904SOL     OW27811   8.817   4.672   1.794  0.0283  0.5895 -0.0025
 6904SOL    HW127812   8.823   4.768   1.822 -1.4511  1.4601 -2.5117
 6904SOL    HW227813   8.904   4.627   1.812  1.0938  2.6762  0.2651
 6905SOL     OW27814   1.573   9.755   0.436  0.3846 -0.0321  0.1513
 6905SOL    HW127815   1.575   9.739   0.534 -1.2800  0.3186  0.2528
 6905SOL    HW227816   1.636   9.829   0.412  0.6952 -0.0367  0.9656
 6906SOL     OW27817   2.331   7.940   1.375 -0.0114  0.2302 -0.0788
 6906SOL    HW127818   2.262   7.917   1.307  0.0677  2.0285 -0.7662
 6906SOL    HW227819   2.299   8.015   1.433  0.3140 -0.6394  1.2647
 6907SOL     OW27820   6.516   3.020   0.256 -0.0066 -0.1938 -0.0216
 6907SOL    HW127821   6.491   3.051   0.347  0.8340  0.0128  0.1405
 6907SOL    HW227822   6.613   2.995   0.255 -0.5707 -2.4739 -0.2300
 6908SOL     OW27823   7.469   6.784   3.732  0.0924 -0.2769  0.1020
 6908SOL    HW127824   7.422   6.718   3.674  0.5515 -0.5803  0.0754
 6908SOL    HW227825   7.530   6.840   3.675 -0.7538  0.5922  0.0224
 6909SOL     OW27826   7.337   9.062   5.752 -0.3764 -0.4723  0.2309
 6909SOL    HW127827   7.400   9.052   5.675 -0.4114 -2.0093  0.3873
 6909SOL    HW227828   7.383   9.036   5.837 -0.6152  0.3349  0.6113
 6910SOL     OW27829   8.091   5.190   1.528  0.2054 -0.4267 -0.0222
 6910SOL    HW127830   8.161   5.121   1.508  0.2991  0.7241 -4.1361
 6910SOL    HW227831   8.001   5.153   1.505 -0.0875 -0.2763  0.8488
 6911SOL     OW27832   8.305   3.978   6.071  0.4627  0.4822 -0.4240
 6911SOL    HW127833   8.229   4.013   6.017 -1.5839  1.1029  2.7167
 6911SOL    HW227834   8.376   3.943   6.010 -2.4717 -0.4651 -3.4316
 6912SOL     OW27835   5.833   8.613   5.794  0.1490  0.7972  0.5605
 6912SOL    HW127836   5.910   8.673   5.817  0.1650  0.5944  1.0511
 6912SOL    HW227837   5.823   8.544   5.866  0.5215 -0.1591 -0.3105
 6914SOL     OW27838   0.031   8.582   4.639  0.0429 -0.7150 -0.1791
 6914SOL    HW127839   0.026   8.634   4.724  2.6342  1.6209 -1.3935
 6914SOL    HW227840   0.114   8.525   4.640  0.7045  0.2145 -1.6101
 6915SOL     OW27841   9.247   8.966   1.023 -0.3934 -0.0968  0.2947
 6915SOL    HW127842   9.205   8.945   0.935 -2.1682 -3.2520  1.8305
 6915SOL    HW227843   9.218   9.057   1.052 -1.5366  0.0945 -1.3682
 6916SOL     OW27844   1.549   3.974   4.261  0.0455  0.6446  0.0054
 6916SOL    HW127845   1.480   3.901   4.260  0.0143  0.6802 -0.3922
 6916SOL    HW227846   1.635   3.937   4.296  0.1716  0.2815 -0.6719
 6917SOL     OW27847   3.166   8.143   2.799 -0.5747 -0.0396  0.2114
 6917SOL    HW127848   3.194   8.114   2.890  0.0305  1.1547  0.4131
 6917SOL    HW227849   3.246   8.167   2.745 -0.8837 -1.3423 -0.8631
 6918SOL     OW27850   9.107   5.628   6.144 -0.1639  0.0251 -0.1479
 6918SOL    HW127851   9.034   5.629   6.076  0.6722  0.5562 -1.0536
 6918SOL    HW227852   9.195   5.621   6.098  0.4734  1.5009  0.8115
 6919SOL     OW27853   8.410   9.694   6.418 -0.2330 -0.4781  0.1106
 6919SOL    HW127854   8.359   9.705   6.333  1.0101  1.0920 -0.4590
 6919SOL    HW227855   8.506   9.676   6.397  0.2136  0.6188  1.1769
 6920SOL     OW27856   7.761   4.665   5.288  0.7028  0.2740  0.2325
 6920SOL    HW127857   7.828   4.617   5.344  1.1073 -0.9949 -1.3370
 6920SOL    HW227858   7.798   4.681   5.197  0.7067  3.8479  0.7598
 6922SOL     OW27859   2.327   9.491   1.833 -0.2926  0.1761  0.0047
 6922SOL    HW127860   2.255   9.483   1.765 -0.4604  1.6080 -0.0086
 6922SOL    HW227861   2.299   9.447   1.918 -0.7908 -0.1025 -0.3070
 6923SOL     OW27862   8.200   8.494   4.589 -0.0425 -0.4142 -0.2663
 6923SOL    HW127863   8.208   8.419   4.524  2.8321  0.7799 -1.3629
 6923SOL    HW227864   8.186   8.457   4.681 -0.1695 -2.2306 -1.0040
 6924SOL     OW27865   4.542   8.343   5.268 -0.1614  0.1751 -0.1228
 6924SOL    HW127866   4.538   8.247   5.295 -1.3217 -0.7715 -3.4813
 6924SOL    HW227867   4.638   8.374   5.269  0.1532 -0.7974  1.5730
 6925SOL     OW27868   7.027   0.709   4.166  0.6886 -0.4457  0.3552
 6925SOL    HW127869   7.100   0.763   4.125  1.1529 -1.2397  0.1169
 6925SOL    HW227870   7.053   0.683   4.259  0.7073 -0.7123  0.2770
 6926SOL     OW27871   3.707   3.362   3.461  0.5347  0.7049  0.0525
 6926SOL    HW127872   3.627   3.375   3.402  0.0724  2.0628  0.9605
 6926SOL    HW227873   3.781   3.324   3.407 -0.9026 -1.1431 -0.6726
 6927SOL     OW27874   4.794   1.234   3.257  0.3622  0.2196  0.0824
 6927SOL    HW127875   4.821   1.150   3.209  0.6613 -0.1405  0.8814
 6927SOL    HW227876   4.778   1.214   3.353 -0.8741  0.8198  0.0118
 6928SOL     OW27877   1.006   6.686   2.093  0.0908  0.4519 -0.1331
 6928SOL    HW127878   0.928   6.637   2.052  1.5842 -0.8023 -1.5602
 6928SOL    HW227879   0.993   6.784   2.082 -1.4468  0.2710 -0.0561
 6929SOL     OW27880   3.497   8.408   5.654 -0.0053  0.1530  0.4481
 6929SOL    HW127881   3.533   8.316   5.670  0.4226  0.3846  0.8272
 6929SOL    HW227882   3.572   8.474   5.652 -0.1778  0.3013 -1.2970
 6930SOL     OW27883   2.291   3.560   4.827 -0.2569 -0.2344 -0.5634
 6930SOL    HW127884   2.235   3.626   4.878  0.7632 -0.5729  1.0319
 6930SOL    HW227885   2.232   3.490   4.788 -1.1364  0.4592 -0.4964
 6932SOL     OW27886   9.733   9.673   1.109 -0.2555 -0.2437  0.0524
 6932SOL    HW127887   9.729   9.605   1.182  0.7594  3.4106  3.6727
 6932SOL    HW227888   9.811   9.653   1.050 -0.9144 -3.0929  0.0658
 6933SOL     OW27889   3.823   2.101   5.237  0.7849  0.3183  0.1579
 6933SOL    HW127890   3.858   2.021   5.285  0.4095  0.0688  0.0111
 6933SOL    HW227891   3.728   2.086   5.211  0.9314  0.5236 -0.5084
 6934SOL     OW27892   1.378   0.485   1.962 -0.0923  0.0352 -0.0175
 6934SOL    HW127893   1.290   0.511   2.001 -0.8579 -2.3379 -0.1213
 6934SOL    HW227894   1.405   0.395   1.996  2.6052  0.9964  0.5078
 6937SOL     OW27895   2.397   1.144   3.387  0.7279 -0.0134  0.3431
 6937SOL    HW127896   2.404   1.235   3.346 -1.4152  1.9506  4.0490
 6937SOL    HW227897   2.309   1.103   3.364  0.3215  0.2906  1.2967
 6938SOL     OW27898   2.163   0.451   0.514  0.0146  0.4483 -0.1438
 6938SOL    HW127899   2.084   0.511   0.498  0.3264  1.7727  3.0109
 6938SOL    HW227900   2.245   0.494   0.476 -0.3116  0.4224 -0.8870
 6940SOL     OW27901   4.011   3.546   0.687  0.7408 -0.4407  0.5236
 6940SOL    HW127902   3.916   3.515   0.699  0.6919  0.3326  2.3026
 6940SOL    HW227903   4.046   3.514   0.599 -1.1504 -0.7942 -0.1194
 6941SOL     OW27904   3.697   1.168   2.696 -0.1097 -0.2675 -0.0552
 6941SOL    HW127905   3.723   1.085   2.745 -1.7059  0.5665  2.2913
 6941SOL    HW227906   3.651   1.143   2.611 -0.2803 -1.7680  0.4599
 6943SOL     OW27907   1.643   4.955   0.196 -0.4131  0.8120 -0.4622
 6943SOL    HW127908   1.618   4.876   0.252 -0.3983  1.2452  0.1682
 6943SOL    HW227909   1.687   4.924   0.112 -0.9429  0.1325 -0.4957
 6944SOL     OW27910   6.648   0.667   2.343  0.1944  0.1992  0.2738
 6944SOL    HW127911   6.716   0.735   2.315  1.0277 -0.5165  0.5452
 6944SOL    HW227912   6.556   0.707   2.335  0.7874  2.1211  2.5998
 6945SOL     OW27913   2.496   0.891   3.213 -0.3614  0.0177 -0.7210
 6945SOL    HW127914   2.525   0.845   3.297  0.4673  1.8196  0.0023
 6945SOL    HW227915   2.459   0.981   3.235  1.4620  1.2341 -2.4256
 6946SOL     OW27916   8.354   5.783   6.361  0.0828  0.0738  0.0745
 6946SOL    HW127917   8.330   5.775   6.264  1.3995 -0.4602 -0.2192
 6946SOL    HW227918   8.277   5.754   6.417  0.2648 -2.3610 -0.8594
 6947SOL     OW27919   4.295   4.784   2.559 -0.1462  0.2370  0.0554
 6947SOL    HW127920   4.304   4.881   2.584 -1.2488  0.6004 -0.8959
 6947SOL    HW227921   4.237   4.738   2.625  1.7916 -0.2015  1.5037
 6948SOL     OW27922   9.512   3.170   0.243 -0.1967  0.0391 -0.1010
 6948SOL    HW127923   9.433   3.120   0.279  0.1175 -0.0913  0.4001
 6948SOL    HW227924   9.500   3.183   0.144  0.3198 -2.1518 -0.4805
 6949SOL     OW27925   8.935   6.616   1.691 -0.1516  0.2474  0.1146
 6949SOL    HW127926   9.030   6.642   1.673  0.1092 -0.7954 -0.0516
 6949SOL    HW227927   8.874   6.688   1.658  0.5032  0.2043 -1.2083
 6950SOL     OW27928   3.542   2.521   5.910 -0.0349 -0.3636  0.4689
 6950SOL    HW127929   3.531   2.512   6.009 -0.9040  0.7252  0.4704
 6950SOL    HW227930   3.536   2.617   5.884 -1.7693 -0.8265 -0.8875
 6951SOL     OW27931   8.675   8.095   1.593 -0.4847  0.3613  0.0893
 6951SOL    HW127932   8.762   8.045   1.603 -0.4314  0.3929 -0.2103
 6951SOL    HW227933   8.683   8.184   1.638 -0.5459  0.1458  0.5321
 6952SOL     OW27934   4.699   6.750   0.532  0.2151 -0.3862 -0.3187
 6952SOL    HW127935   4.684   6.834   0.584 -0.2543 -1.1792  0.8402
 6952SOL    HW227936   4.611   6.706   0.514  0.6599 -2.1754  1.6865
 6953SOL     OW27937   2.300   0.625   1.880 -0.2124 -0.1915  0.6422
 6953SOL    HW127938   2.380   0.566   1.867  0.9903  1.4464  0.3266
 6953SOL    HW227939   2.259   0.646   1.792 -0.9522 -0.9833  0.8005
 6954SOL     OW27940   9.631   8.821   2.486 -0.0692  0.1232  0.2933
 6954SOL    HW127941   9.592   8.820   2.394 -2.7848 -1.9677  1.4124
 6954SOL    HW227942   9.558   8.816   2.554  1.8567  2.1722  2.6146
 6955SOL     OW27943   8.008   3.377   3.293  0.3092 -0.4904  0.4961
 6955SOL    HW127944   7.948   3.453   3.268  1.1676 -0.2618 -0.9460
 6955SOL    HW227945   8.082   3.411   3.352  2.1272  0.3513 -2.1544
 6956SOL     OW27946   7.114   7.855   4.920  0.6598 -0.6285 -0.1627
 6956SOL    HW127947   7.205   7.895   4.923  0.3659  0.1390 -1.1752
 6956SOL    HW227948   7.120   7.760   4.889  1.6751 -2.4265  5.0241
 6958SOL     OW27949   7.723   6.183   2.205  0.0330 -0.7129  0.0164
 6958SOL    HW127950   7.688   6.268   2.168  0.6360  0.2709  1.6564
 6958SOL    HW227951   7.721   6.112   2.134  1.1159  1.0898 -1.8628
 6959SOL     OW27952   5.381   4.262   1.665  0.2229 -0.1769  0.4156
 6959SOL    HW127953   5.455   4.223   1.610  0.8434  0.3567  0.8594
 6959SOL    HW227954   5.417   4.338   1.719 -0.1024 -1.4100  2.4316
 6960SOL     OW27955   2.828   5.821   3.917  0.7702 -0.4543  0.1188
 6960SOL    HW127956   2.762   5.745   3.921  3.5216 -2.8791  0.8650
 6960SOL    HW227957   2.795   5.895   3.976  0.0485 -2.7777  2.7783
 6963SOL     OW27958   8.349   6.873   3.211  0.5786  0.2730  0.3160
 6963SOL    HW127959   8.433   6.826   3.238  0.3255 -0.3314  0.0640
 6963SOL    HW227960   8.276   6.806   3.200  0.0516  0.8051  0.5754
 6964SOL     OW27961   2.016   0.760   2.302 -0.2788 -0.1972  0.2558
 6964SOL    HW127962   2.039   0.751   2.205 -0.0665  0.3513  0.2581
 6964SOL    HW227963   2.099   0.748   2.357 -0.3079  0.0220  0.3460
 6965SOL     OW27964   0.202   8.491   6.124  0.0653 -0.2667 -0.3452
 6965SOL    HW127965   0.239   8.398   6.115 -1.9355 -1.1257  0.0383
 6965SOL    HW227966   0.124   8.501   6.062  0.0747  1.0749 -0.1459
 6967SOL     OW27967   4.796   3.058   3.575  0.4950 -0.0346  0.4913
 6967SOL    HW127968   4.769   3.140   3.525  1.9397  1.2833  1.7865
 6967SOL    HW227969   4.834   3.084   3.664  0.6697 -2.1321  1.0707
 6969SOL     OW27970   0.145   4.916   2.167 -0.1472  0.2219  0.0172
 6969SOL    HW127971   0.092   4.989   2.123  0.7071  0.6797 -0.2691
 6969SOL    HW227972   0.187   4.952   2.251 -0.1972 -0.1055  0.1818
 6971SOL     OW27973   7.111   3.659   2.174 -0.0853 -0.4220 -0.1762
 6971SOL    HW127974   7.181   3.699   2.115  0.1688  0.3308  0.6358
 6971SOL    HW227975   7.022   3.699   2.150 -0.0920 -0.6359 -0.5211
 6972SOL     OW27976   0.107   6.660   0.760  0.2765  0.0521  0.2526
 6972SOL    HW127977   0.078   6.698   0.848  0.2071  0.8721 -0.1266
 6972SOL    HW227978   0.206   6.668   0.751  0.5872 -2.1904  1.2789
 6973SOL     OW27979   3.041   6.596   5.952 -0.3034 -0.0041 -0.5664
 6973SOL    HW127980   3.124   6.541   5.945 -0.9098 -1.0310  0.2018
 6973SOL    HW227981   3.034   6.635   6.043 -0.2456  0.7684 -0.8853
 6974SOL     OW27982   0.572   7.090   2.165 -0.0436 -0.2959 -0.4169
 6974SOL    HW127983   0.637   7.082   2.241 -0.6292 -0.1149  0.1110
 6974SOL    HW227984   0.527   7.179   2.169 -1.1885 -0.8824 -0.0702
 6975SOL     OW27985   5.232   8.930   2.408  0.2131  0.4046  0.5167
 6975SOL    HW127986   5.191   8.886   2.328  0.0846 -0.5158  1.0765
 6975SOL    HW227987   5.161   8.980   2.459  0.6565  2.6275 -0.9921
 6977SOL     OW27988   2.202   6.720   0.673  0.0603  0.2209  0.3141
 6977SOL    HW127989   2.150   6.770   0.743 -0.4736  0.1727 -0.0412
 6977SOL    HW227990   2.140   6.695   0.598  0.9317  1.5776 -0.8768
 6978SOL     OW27991   9.737   7.823   4.716  0.8139 -0.2091  0.1439
 6978SOL    HW127992   9.649   7.860   4.745  0.8183 -0.6335  0.7049
 6978SOL    HW227993   9.725   7.731   4.680  0.9652 -0.0959 -0.2015
 6979SOL     OW27994   6.184   4.348   0.367 -0.0171  0.5255 -0.5580
 6979SOL    HW127995   6.161   4.251   0.357  0.1007  0.4993 -0.5701
 6979SOL    HW227996   6.101   4.400   0.388  0.0728  0.2791  0.4664
 6980SOL     OW27997   1.202   4.695   4.918 -0.1486  0.2619  0.0826
 6980SOL    HW127998   1.210   4.682   5.017 -1.8321 -2.4143 -0.0800
 6980SOL    HW227999   1.293   4.706   4.879  0.5343  1.3719  1.9242
 6982SOL     OW28000   7.156   2.300   0.963 -0.3529  0.4123  0.0894
 6982SOL    HW128001   7.187   2.230   1.027  0.0590 -0.4855 -1.0725
 6982SOL    HW228002   7.230   2.325   0.901 -0.6756  1.4408  0.0995
 6983SOL     OW28003   2.689   8.867   2.402  0.7442 -0.2406 -0.1392
 6983SOL    HW128004   2.646   8.778   2.391 -0.3382  0.1057  1.2989
 6983SOL    HW228005   2.748   8.866   2.483  0.4721  0.4459  0.0703
 6985SOL     OW28006   1.478   0.096   1.881 -0.2655 -0.0701 -0.0498
 6985SOL    HW128007   1.525   0.158   1.818  0.5967  0.3214  0.9672
 6985SOL    HW228008   1.413   0.148   1.937  0.4308 -0.0880  0.7781
 6986SOL     OW28009   0.718   2.147   5.472  0.2929 -0.3781 -0.0541
 6986SOL    HW128010   0.719   2.196   5.385 -2.1050 -1.1987 -0.5764
 6986SOL    HW228011   0.780   2.069   5.467  0.4206 -0.2282 -0.8974
 6987SOL     OW28012   9.084   1.820   3.457  0.3514  0.2058  0.0570
 6987SOL    HW128013   9.036   1.903   3.430 -1.2771 -0.2421  1.4586
 6987SOL    HW228014   9.165   1.843   3.511  0.3066  0.9128 -0.1884
 6989SOL     OW28015   2.873   6.123   3.538  0.2705 -0.3931  0.4728
 6989SOL    HW128016   2.836   6.207   3.578  0.4050  0.8944 -2.0258
 6989SOL    HW228017   2.923   6.072   3.608 -1.0909  0.8577  2.3870
 6990SOL     OW28018   5.482   8.783   2.515  0.1577  0.2825  0.5773
 6990SOL    HW128019   5.401   8.825   2.475  1.0828  0.6141 -0.9981
 6990SOL    HW228020   5.560   8.846   2.507  1.4511 -1.4547 -1.3961
 6992SOL     OW28021   8.918   6.559   2.983 -0.2946 -0.0344  0.0593
 6992SOL    HW128022   8.872   6.633   2.934  1.2859  1.1698  0.3563
 6992SOL    HW228023   8.855   6.520   3.051 -1.3221  0.6444 -0.4865
 6993SOL     OW28024   1.993   1.088   3.702 -0.1286 -0.0299 -0.3357
 6993SOL    HW128025   2.092   1.093   3.690 -0.0315  0.0502  0.4508
 6993SOL    HW228026   1.954   1.023   3.636  0.3535  0.4953 -1.1329
 6994SOL     OW28027   7.694   9.817   3.668  0.0310  0.0748  0.4648
 6994SOL    HW128028   7.667   9.872   3.589 -1.1800 -0.7211  0.3151
 6994SOL    HW228029   7.695   9.720   3.644  0.1238 -0.1372  1.2882
 6995SOL     OW28030   4.768   8.698   5.238  0.0092  0.1345  0.4978
 6995SOL    HW128031   4.825   8.741   5.309  0.6448 -0.9320  0.6436
 6995SOL    HW228032   4.772   8.599   5.248 -2.3454  0.0520  0.8649
 6996SOL     OW28033   0.615   3.247   1.179  0.1714  0.3358 -0.2086
 6996SOL    HW128034   0.708   3.282   1.172  0.3960 -0.2273 -0.0575
 6996SOL    HW228035   0.606   3.193   1.263 -0.4266  0.7961  0.0282
 6998SOL     OW28036   1.750   5.986   4.182  0.3475 -0.1794  0.5253
 6998SOL    HW128037   1.704   5.900   4.207  0.4979 -0.8261 -1.3173
 6998SOL    HW228038   1.770   5.985   4.084  0.3601  1.9699  0.4864
 7000SOL     OW28039   2.674   2.199   3.176  0.0722  0.1245  0.7733
 7000SOL    HW128040   2.663   2.268   3.104 -1.8409 -1.1543 -0.2196
 7000SOL    HW228041   2.594   2.201   3.237  1.0857  0.3405  2.0996
 7001SOL     OW28042   3.576   6.532   3.435 -0.4443  0.1451 -0.5755
 7001SOL    HW128043   3.574   6.483   3.523 -0.3746 -1.3928 -1.4215
 7001SOL    HW228044   3.514   6.487   3.371  1.5932 -0.4075 -2.1958
 7005SOL     OW28045   3.099   0.333   4.382 -0.3955 -0.5052 -0.6987
 7005SOL    HW128046   3.010   0.357   4.421  0.4965 -0.4247  1.3641
 7005SOL    HW228047   3.108   0.234   4.379 -0.1125 -0.5126  0.1803
 7007SOL     OW28048   7.860   0.487   4.871  0.0332 -0.2566  0.0797
 7007SOL    HW128049   7.931   0.520   4.934 -1.3433  2.7932  0.1063
 7007SOL    HW228050   7.771   0.489   4.916 -0.8248  0.9793 -1.5846
 7008SOL     OW28051   7.271   9.251   6.016  0.0220  0.3740 -0.5394
 7008SOL    HW128052   7.318   9.238   5.929  2.0482 -0.4689  0.6335
 7008SOL    HW228053   7.247   9.348   6.027  0.2655  0.5796 -1.7740
 7009SOL     OW28054   9.221   4.517   5.995 -0.1755 -0.1347  0.2771
 7009SOL    HW128055   9.197   4.483   5.904  1.0914 -2.0042  0.5983
 7009SOL    HW228056   9.312   4.559   5.991 -0.1179 -0.2250  0.6715
 7010SOL     OW28057   2.558   8.579   5.946 -0.7189 -0.0707 -0.5289
 7010SOL    HW128058   2.478   8.605   5.892 -0.0738 -0.7176 -1.8195
 7010SOL    HW228059   2.632   8.643   5.929 -0.3518 -0.5631 -0.8084
 7011SOL     OW28060   0.889   0.193   4.557 -0.0202 -0.1936 -0.3934
 7011SOL    HW128061   0.972   0.187   4.501  0.1752  2.2163 -0.4023
 7011SOL    HW228062   0.842   0.105   4.556  0.7799 -0.6376 -3.1333
 7012SOL     OW28063   2.336   0.254   0.083 -0.6214  0.1417 -0.5580
 7012SOL    HW128064   2.325   0.348   0.115  1.2815  1.0852 -2.5050
 7012SOL    HW228065   2.379   0.200   0.155 -2.7448  0.4371  0.9944
 7013SOL     OW28066   9.510   8.896   3.265  0.0901  0.1239 -0.4914
 7013SOL    HW128067   9.572   8.929   3.335  0.7470  0.1628 -1.0937
 7013SOL    HW228068   9.556   8.827   3.209 -1.3328 -2.0306  0.9233
 7014SOL     OW28069   0.692   0.551   5.884 -0.0256  0.2869 -0.3833
 7014SOL    HW128070   0.754   0.563   5.807  1.9486 -0.5902  1.0217
 7014SOL    HW228071   0.718   0.612   5.959 -0.5270 -0.4731  0.4276
 7015SOL     OW28072   9.230   8.509   1.385  0.2407 -0.1097  0.0908
 7015SOL    HW128073   9.216   8.417   1.348  0.6722  0.4449 -1.4790
 7015SOL    HW228074   9.175   8.574   1.333  1.8070  0.8582 -0.3843
 7016SOL     OW28075   4.408   7.400   2.252  0.0977  0.2087  0.0800
 7016SOL    HW128076   4.393   7.454   2.169  1.3382 -0.2514 -0.4477
 7016SOL    HW228077   4.416   7.462   2.330 -1.8524  0.6142  0.0080
 7017SOL     OW28078   5.493   5.402   0.725 -0.2223  0.3435 -0.0226
 7017SOL    HW128079   5.475   5.429   0.819 -0.1670  0.9410 -0.1827
 7017SOL    HW228080   5.419   5.342   0.693  0.1203 -0.4388  0.6287
 7018SOL     OW28081   9.022   8.378   1.946 -0.0324 -0.1545 -0.0490
 7018SOL    HW128082   9.102   8.436   1.962  0.7290 -0.7650 -1.5022
 7018SOL    HW228083   8.963   8.422   1.878  0.8481 -1.3321 -1.6057
 7019SOL     OW28084   8.857   8.738   0.864 -0.3463 -0.0285  0.6680
 7019SOL    HW128085   8.840   8.660   0.803  0.5212  0.6715 -0.5047
 7019SOL    HW228086   8.785   8.744   0.932 -2.0402 -0.0804 -1.0834
 7020SOL     OW28087   9.821   1.385   2.242 -0.0560  0.1056 -0.8836
 7020SOL    HW128088   9.727   1.388   2.209  0.0135  0.2439 -1.0756
 7020SOL    HW228089   9.825   1.339   2.330 -0.4480  1.0361 -0.3743
 7021SOL     OW28090   3.664   4.083   0.941 -0.3026 -0.0992 -0.1192
 7021SOL    HW128091   3.763   4.094   0.928 -0.6665  1.2662 -1.8251
 7021SOL    HW228092   3.633   4.143   1.014  0.1170 -0.5363  0.4261
 7022SOL     OW28093   3.121   7.689   5.711 -0.3642 -0.2661  0.0479
 7022SOL    HW128094   3.124   7.789   5.707  0.1928 -0.1093  3.1298
 7022SOL    HW228095   3.028   7.657   5.691 -1.2107  1.0626  1.7641
 7024SOL     OW28096   0.395   2.763   2.838  0.9809  0.6076  0.1244
 7024SOL    HW128097   0.359   2.693   2.899  0.9744  1.0326  0.6125
 7024SOL    HW228098   0.332   2.776   2.761  0.7563  0.4083  0.2736
 7025SOL     OW28099   1.989   8.082   1.010 -0.1247  0.3954 -0.1037
 7025SOL    HW128100   1.985   8.010   0.942 -0.6644  0.0494  0.2913
 7025SOL    HW228101   2.010   8.169   0.966  2.4389 -0.3099 -0.3523
 7026SOL     OW28102   2.568   2.986   4.638  0.0177 -0.2550 -0.1653
 7026SOL    HW128103   2.567   3.062   4.703 -1.0270  0.4266 -0.9661
 7026SOL    HW228104   2.662   2.966   4.612  0.4237 -0.4193  1.4266
 7027SOL     OW28105   9.605   1.106   2.023 -0.2669 -0.1178 -0.2608
 7027SOL    HW128106   9.592   1.027   1.963 -0.6729  0.0334 -0.3769
 7027SOL    HW228107   9.697   1.103   2.063  0.5449  0.5758 -2.0473
 7028SOL     OW28108   7.067   9.496   5.546 -0.2342 -0.2129 -0.5068
 7028SOL    HW128109   7.045   9.505   5.643  0.9701  2.3593 -0.4220
 7028SOL    HW228110   7.157   9.453   5.536  0.1939  0.6457 -0.4183
 7029SOL     OW28111   1.575   2.714   0.891 -0.6951  0.1587 -0.1323
 7029SOL    HW128112   1.563   2.615   0.884 -1.6213  0.3567 -1.6636
 7029SOL    HW228113   1.509   2.752   0.956  0.4936 -0.3643  1.4100
 7030SOL     OW28114   8.715   2.417   0.907 -0.0081 -0.1716  0.1509
 7030SOL    HW128115   8.621   2.422   0.941  0.5195  1.3918  1.4238
 7030SOL    HW228116   8.768   2.355   0.965  0.2625  0.5549  0.6838
 7031SOL     OW28117   9.814   0.095   6.299  0.1831  0.1135 -0.2950
 7031SOL    HW128118   9.906   0.123   6.326  0.1021 -1.6752  2.0144
 7031SOL    HW228119   9.819   0.005   6.255 -0.5640 -0.3217  0.5260
 7032SOL     OW28120   3.286   1.264   4.651 -0.5264  0.0162 -0.4817
 7032SOL    HW128121   3.245   1.353   4.635 -1.4877 -0.3362  0.0200
 7032SOL    HW228122   3.329   1.231   4.567 -2.0116 -0.0061 -1.2368
 7035SOL     OW28123   4.981   7.906   2.278 -0.0111  0.3504  0.6982
 7035SOL    HW128124   5.070   7.864   2.260 -0.2887 -0.3101  0.8376
 7035SOL    HW228125   4.934   7.923   2.192  0.6036  1.5001  0.5730
 7036SOL     OW28126   4.603   9.281   2.187  0.2693 -0.1780  0.1918
 7036SOL    HW128127   4.638   9.221   2.259  1.3878  0.6339  0.3311
 7036SOL    HW228128   4.579   9.225   2.107 -1.5846 -1.1640  1.3753
 7037SOL     OW28129   1.242   3.616   3.638 -0.7244  0.0918  0.6561
 7037SOL    HW128130   1.324   3.624   3.581 -0.2982 -1.4136  1.0353
 7037SOL    HW228131   1.243   3.528   3.686 -1.8256  0.6960  1.8190
 7038SOL     OW28132   1.730   4.041   5.301 -0.0803  0.1837  1.0046
 7038SOL    HW128133   1.661   4.112   5.319 -0.6503 -0.3543  0.9771
 7038SOL    HW228134   1.690   3.971   5.241  0.1183 -0.7192  1.9141
 7039SOL     OW28135   2.437   0.429   4.835 -1.0566  0.0076 -0.5048
 7039SOL    HW128136   2.520   0.467   4.877 -2.0355  0.1916  1.3146
 7039SOL    HW228137   2.434   0.455   4.738  1.3847 -0.6547 -0.7931
 7040SOL     OW28138   8.067   6.832   2.908 -0.7624  0.4862 -0.0336
 7040SOL    HW128139   8.081   6.882   2.823 -0.5927 -0.4944 -0.5881
 7040SOL    HW228140   8.002   6.757   2.893 -0.5695  0.1734  0.6495
 7041SOL     OW28141   9.990   1.770   5.036  0.1189  0.2475 -0.4198
 7041SOL    HW128142   9.958   1.695   5.094 -1.4080  1.9357  1.0068
 7041SOL    HW228143  10.069   1.814   5.079 -0.0052  0.4820 -0.4308
 7042SOL     OW28144   9.718   8.159   0.855 -0.3854 -0.3958 -0.1181
 7042SOL    HW128145   9.657   8.235   0.832  0.4511  0.0079 -1.0111
 7042SOL    HW228146   9.666   8.089   0.904 -0.8536  1.3908  2.0145
 7043SOL     OW28147   2.958   7.859   3.203 -0.5647  0.1130 -0.3246
 7043SOL    HW128148   3.038   7.815   3.163  0.2343 -0.3994  1.7668
 7043SOL    HW228149   2.927   7.934   3.143  2.8263  1.7800 -0.1210
 7044SOL     OW28150   7.567   2.504   4.765  1.0321  0.2142  0.2693
 7044SOL    HW128151   7.626   2.439   4.814  0.7670 -0.8655 -0.8244
 7044SOL    HW228152   7.601   2.515   4.672  0.5005  0.9100  0.1598
 7045SOL     OW28153   1.020   2.055   5.714 -0.1669 -0.4368  0.2254
 7045SOL    HW128154   0.990   1.967   5.678 -3.3040  0.9132 -0.6478
 7045SOL    HW228155   1.118   2.068   5.696 -0.0067 -3.0844 -0.9121
 7046SOL     OW28156   4.856   1.542   5.643 -0.0164 -0.5458  0.0894
 7046SOL    HW128157   4.943   1.536   5.693 -0.4992  0.8388  1.1338
 7046SOL    HW228158   4.791   1.476   5.680  0.6917 -1.8730 -0.9634
 7048SOL     OW28159   3.101   1.684   1.555 -0.3952 -0.0296  0.2554
 7048SOL    HW128160   3.012   1.729   1.548 -0.1174  0.4879  0.0471
 7048SOL    HW228161   3.090   1.597   1.603 -0.9823  0.1193  0.3980
 7049SOL     OW28162   8.687   4.543   2.012  0.1839  0.0337  0.0188
 7049SOL    HW128163   8.781   4.525   2.042  0.1920 -0.5018 -0.3322
 7049SOL    HW228164   8.687   4.615   1.943  0.2755  0.4546  0.4497
 7051SOL     OW28165   9.336   9.816   5.424  0.5978  0.3092 -0.3406
 7051SOL    HW128166   9.393   9.752   5.476  0.6430  0.4193 -0.2524
 7051SOL    HW228167   9.379   9.836   5.336 -1.2344 -2.6909 -2.0014
 7052SOL     OW28168   1.547   4.421   2.999 -0.2417  0.0510 -0.5275
 7052SOL    HW128169   1.495   4.349   2.953 -0.9919 -0.5532  1.2297
 7052SOL    HW228170   1.644   4.397   2.998 -0.1650  0.3645 -2.3403
 7053SOL     OW28171   7.202   4.326   2.791  0.0837  0.0066  0.3325
 7053SOL    HW128172   7.105   4.306   2.805  0.1461  0.5505  1.6201
 7053SOL    HW228173   7.257   4.254   2.832  0.2451  0.5168  1.0188
 7056SOL     OW28174   5.922   1.614   5.737 -0.3166  0.1723  0.7061
 7056SOL    HW128175   5.838   1.615   5.792  1.4145  2.7278  3.4795
 7056SOL    HW228176   5.978   1.535   5.763 -0.1648  0.5691  1.6120
 7057SOL     OW28177   1.015   3.564   1.815 -0.2624 -0.0356  0.0819
 7057SOL    HW128178   1.047   3.658   1.813  0.4031 -0.1894  2.3604
 7057SOL    HW228179   0.918   3.561   1.839  0.2258 -0.0065  2.1635
 7058SOL     OW28180   0.177   7.923   5.279  0.3120  0.0933 -0.7259
 7058SOL    HW128181   0.240   7.845   5.274  1.2388  0.7327  0.7739
 7058SOL    HW228182   0.087   7.895   5.245  0.6473 -1.6231 -0.2617
 7059SOL     OW28183   2.015   8.423   5.480 -0.2297 -0.0995  0.2712
 7059SOL    HW128184   2.017   8.331   5.440  0.6785 -0.2774  0.7182
 7059SOL    HW228185   2.027   8.491   5.408 -0.4395 -0.3458  0.0021
 7060SOL     OW28186   1.206   7.596   6.043 -0.5585 -0.8441 -0.1518
 7060SOL    HW128187   1.290   7.543   6.057  1.5403  2.9573  2.5363
 7060SOL    HW228188   1.210   7.641   5.954  0.4996 -0.3092  0.1600
 7061SOL     OW28189   5.086   1.616   6.327 -0.4605  0.2579 -0.1563
 7061SOL    HW128190   5.126   1.704   6.302 -1.9247  1.7197  2.4149
 7061SOL    HW228191   5.101   1.599   6.425 -0.5506 -2.1606 -0.5359
 7062SOL     OW28192   2.271   1.873   0.617  0.2203 -0.4919  0.2629
 7062SOL    HW128193   2.238   1.810   0.547  0.1394 -0.1236 -0.0326
 7062SOL    HW228194   2.204   1.877   0.692 -2.1272  2.8229 -1.8793
 7063SOL     OW28195   1.522   7.321   6.254 -0.0860  0.0765 -0.2867
 7063SOL    HW128196   1.499   7.224   6.255  0.8586 -0.1727  1.6040
 7063SOL    HW228197   1.471   7.368   6.326  2.1721  0.2513  1.2672
 7065SOL     OW28198   2.491   6.037   2.441  0.1753  0.1524 -0.6412
 7065SOL    HW128199   2.404   6.052   2.394 -0.0680 -0.6896 -0.4535
 7065SOL    HW228200   2.539   6.124   2.449 -0.7183  0.6514 -0.6046
 7066SOL     OW28201   7.136   0.762   1.835  0.1538 -0.5064  0.2203
 7066SOL    HW128202   7.129   0.761   1.735 -0.1613  2.9917  0.1449
 7066SOL    HW228203   7.047   0.787   1.874  1.0697  1.3272  1.1937
 7067SOL     OW28204   2.611   0.059   5.878  0.1070  0.4637 -0.2253
 7067SOL    HW128205   2.540  -0.007   5.903  0.2555  0.3220 -0.1765
 7067SOL    HW228206   2.611   0.071   5.779  0.5459 -0.1355 -0.2993
 7068SOL     OW28207   7.160   7.587   5.959  0.2626 -0.1684  0.2416
 7068SOL    HW128208   7.062   7.580   5.977  0.0174  0.9628 -0.6321
 7068SOL    HW228209   7.207   7.620   6.041 -0.3691  1.3684 -0.0078
 7069SOL     OW28210   4.952   8.745   2.414 -0.3242 -0.3255  0.2132
 7069SOL    HW128211   5.050   8.760   2.403 -0.7308  1.9116 -0.5103
 7069SOL    HW228212   4.917   8.697   2.333 -0.5990  2.9278 -1.7129
 7070SOL     OW28213   8.515   8.754   4.258  0.0856  0.4079 -0.2896
 7070SOL    HW128214   8.524   8.667   4.208  1.4706  0.6901 -0.5437
 7070SOL    HW228215   8.504   8.828   4.192  0.9285  0.6634 -0.1404
 7071SOL     OW28216   2.664   1.960   3.375 -0.1446  0.2648  0.4889
 7071SOL    HW128217   2.669   2.055   3.345 -0.6158  0.7654  1.9631
 7071SOL    HW228218   2.640   1.901   3.297 -1.8904  1.5977  0.0004
 7072SOL     OW28219   9.527   0.255   5.737  0.3242 -0.4823  0.6154
 7072SOL    HW128220   9.489   0.164   5.719  2.8401 -1.0711 -1.9751
 7072SOL    HW228221   9.605   0.246   5.799  0.9132 -0.1507 -0.0800
 7073SOL     OW28222   5.547   9.780   5.883  0.2650  0.4420 -1.1436
 7073SOL    HW128223   5.467   9.733   5.919  1.3614 -0.0436  0.7453
 7073SOL    HW228224   5.523   9.827   5.799 -2.0831  0.6097 -0.4153
 7074SOL     OW28225   8.494   1.905   2.190  0.1025  0.0047 -0.2926
 7074SOL    HW128226   8.544   1.982   2.231 -0.2195 -0.0466  0.1974
 7074SOL    HW228227   8.396   1.925   2.191 -0.1023 -1.0392  1.1660
 7075SOL     OW28228   2.637   4.161   5.017 -0.5772  0.9296  0.3450
 7075SOL    HW128229   2.684   4.104   4.949  0.0405 -1.0170  2.3324
 7075SOL    HW228230   2.650   4.257   4.994  0.4465  0.3331 -1.7418
 7076SOL     OW28231   4.271   9.487   0.184 -0.3955  0.2795 -0.5293
 7076SOL    HW128232   4.278   9.471   0.282 -0.1598 -0.3715 -0.6514
 7076SOL    HW228233   4.224   9.411   0.141  0.0724  0.2592 -1.0108
 7077SOL     OW28234   0.306   8.694   5.045 -0.0052  0.0895 -0.0912
 7077SOL    HW128235   0.273   8.600   5.034 -2.4936  0.7386  1.3794
 7077SOL    HW228236   0.251   8.740   5.115  1.2787  2.6057 -0.6935
 7078SOL     OW28237   4.549   0.719   4.263  0.3208  0.0587  0.2009
 7078SOL    HW128238   4.459   0.738   4.302  0.2329 -0.1237  0.0884
 7078SOL    HW228239   4.545   0.635   4.209  1.2768 -1.7102  2.7772
 7079SOL     OW28240   7.815   9.818   0.277  0.0393 -0.3022  0.5599
 7079SOL    HW128241   7.816   9.886   0.203  3.2431  1.2878  1.9759
 7079SOL    HW228242   7.879   9.745   0.255 -0.1835 -0.6380  1.0313
 7080SOL     OW28243   3.631   7.731   3.597  0.4193  0.4299  0.5366
 7080SOL    HW128244   3.545   7.738   3.647  0.8668 -0.0199  1.3681
 7080SOL    HW228245   3.707   7.749   3.659  0.9283  0.8642 -0.2050
 7081SOL     OW28246   2.381   9.344   5.736  0.4493  0.3413 -0.1934
 7081SOL    HW128247   2.400   9.246   5.744  1.4359  0.5755  0.4772
 7081SOL    HW228248   2.327   9.361   5.654 -1.5528 -1.0029  0.8056
 7082SOL     OW28249   4.577   1.520   5.240 -0.0313 -0.0197  0.0776
 7082SOL    HW128250   4.643   1.581   5.283 -1.6659  1.0073  1.1709
 7082SOL    HW228251   4.501   1.503   5.303 -1.0655 -0.7854 -1.3434
 7083SOL     OW28252   4.600   4.754   3.013 -0.2458  0.1114 -0.0800
 7083SOL    HW128253   4.584   4.790   3.105  0.6920  1.6101 -0.4877
 7083SOL    HW228254   4.689   4.785   2.980  0.2294 -1.9370 -0.7872
 7084SOL     OW28255   1.853   6.266   1.044  0.3161 -0.2270  0.5537
 7084SOL    HW128256   1.832   6.354   1.003 -0.4855 -1.1100 -0.9611
 7084SOL    HW228257   1.921   6.279   1.117  0.5645  1.5605  0.0326
 7085SOL     OW28258   8.923   4.341   1.547 -0.3757  0.0024  0.1188
 7085SOL    HW128259   8.848   4.336   1.613 -0.1979 -0.2736  0.3021
 7085SOL    HW228260   8.908   4.275   1.473  1.1583 -2.1673  1.6924
 7086SOL     OW28261   8.484   8.124   3.502  0.0969  0.2246 -0.4270
 7086SOL    HW128262   8.425   8.068   3.445  1.5187 -1.0453 -0.6864
 7086SOL    HW228263   8.542   8.181   3.444  0.7418 -0.2238 -0.2225
 7087SOL     OW28264   8.881   7.508   4.617 -0.2404  0.5889 -0.4719
 7087SOL    HW128265   8.865   7.588   4.674  0.1922 -0.4712  1.1474
 7087SOL    HW228266   8.968   7.519   4.568  1.9185 -0.6550  2.8984
 7088SOL     OW28267   9.401   3.945   5.501  0.1845 -0.3061  0.0550
 7088SOL    HW128268   9.305   3.938   5.474  0.7934 -0.6473 -2.1463
 7088SOL    HW228269   9.458   3.908   5.428  2.0300  0.5337  1.0554
 7089SOL     OW28270   6.841   7.536   5.169  0.5935  0.1323 -0.2613
 7089SOL    HW128271   6.810   7.481   5.092 -0.9500  1.8432 -0.8930
 7089SOL    HW228272   6.937   7.560   5.157  0.4428  0.1290 -1.4817
 7090SOL     OW28273   0.863   0.004   5.948  0.0060  0.0899  0.1931
 7090SOL    HW128274   0.775  -0.012   5.993 -1.1011 -1.3498 -2.4053
 7090SOL    HW228275   0.880   0.103   5.942 -0.7163  0.3397  2.0207
 7091SOL     OW28276   9.398   2.411   1.207  0.6367  0.1713  0.2570
 7091SOL    HW128277   9.349   2.491   1.238  0.9887  0.5861 -0.2481
 7091SOL    HW228278   9.447   2.432   1.122  1.7889 -0.1843  0.8140
 7092SOL     OW28279   4.445   8.120   3.741 -0.1665 -0.3122  0.7461
 7092SOL    HW128280   4.423   8.127   3.644 -0.5282  1.0532  0.9238
 7092SOL    HW228281   4.540   8.148   3.756 -0.2287 -0.1531  0.8425
 7093SOL     OW28282   3.196   0.653   2.131  0.3115  0.5280  0.3239
 7093SOL    HW128283   3.208   0.752   2.131 -2.3447  0.8646  1.4143
 7093SOL    HW228284   3.145   0.626   2.050 -0.5662  0.2484  0.9723
 7094SOL     OW28285   8.694   7.149   1.710  0.2298 -0.1163  0.8051
 7094SOL    HW128286   8.627   7.075   1.715 -1.4548  1.0695 -2.3728
 7094SOL    HW228287   8.651   7.234   1.741 -0.4331  1.0006 -2.8631
 7095SOL     OW28288   3.053   1.312   3.017  0.1964  0.9630  0.3078
 7095SOL    HW128289   3.121   1.248   3.051  1.2350  1.1656 -1.3524
 7095SOL    HW228290   3.039   1.385   3.084  1.8527  1.0887  0.5216
 7096SOL     OW28291   8.131   9.405   2.146 -0.2792 -0.2212 -0.1440
 7096SOL    HW128292   8.189   9.479   2.182 -1.4412  0.8905 -0.5150
 7096SOL    HW228293   8.142   9.401   2.046  1.1960 -1.7918  0.0619
 7097SOL     OW28294   6.524   2.888   5.330 -0.2893  0.4531 -0.3871
 7097SOL    HW128295   6.560   2.809   5.379 -0.5306 -0.2880 -1.4011
 7097SOL    HW228296   6.436   2.865   5.288 -0.5137  1.3530 -0.4171
 7098SOL     OW28297   6.026   2.527   0.190  0.5323  0.8022 -0.3037
 7098SOL    HW128298   6.056   2.622   0.179  0.5792  0.5362 -2.6419
 7098SOL    HW228299   5.979   2.496   0.108 -2.1798 -0.2730  1.5722
 7099SOL     OW28300   1.263   9.403   4.934 -0.0993  0.3403 -0.2228
 7099SOL    HW128301   1.258   9.306   4.957  2.6770  0.0274 -0.6784
 7099SOL    HW228302   1.247   9.458   5.016  0.3606 -0.5555  0.4777
 7100SOL     OW28303   9.153   0.379   3.096 -0.0975  0.0990 -0.2623
 7100SOL    HW128304   9.154   0.477   3.113  0.5245  0.2733 -1.2691
 7100SOL    HW228305   9.192   0.360   3.006 -3.2128 -0.8104 -1.4837
 7101SOL     OW28306   0.383   6.885   2.226  0.4026  0.1156  0.1481
 7101SOL    HW128307   0.377   6.822   2.149 -3.0190 -0.6328  0.9138
 7101SOL    HW228308   0.428   6.969   2.197  0.1127 -0.5575 -2.3725
 7102SOL     OW28309   7.730   4.081   5.234 -0.2208  0.1371 -0.5001
 7102SOL    HW128310   7.830   4.084   5.235 -0.1945 -0.7751 -0.0152
 7102SOL    HW228311   7.695   4.166   5.194  0.7383  0.5534 -0.4812
 7103SOL     OW28312   3.549   7.878   0.367  0.0247 -0.4365 -0.2659
 7103SOL    HW128313   3.635   7.888   0.418  0.0014 -0.0330 -0.3071
 7103SOL    HW228314   3.569   7.840   0.276  0.2237  0.1550 -0.4763
 7104SOL     OW28315   1.176   4.949   5.684  0.2967 -0.7836  0.1756
 7104SOL    HW128316   1.213   4.856   5.681  1.5132 -0.3127 -0.1563
 7104SOL    HW228317   1.087   4.952   5.639  1.0342 -1.4560 -1.3607
 7105SOL     OW28318   1.299   3.193   2.865 -0.3764 -0.0162  0.1009
 7105SOL    HW128319   1.236   3.136   2.917  0.1266 -0.5237  0.1706
 7105SOL    HW228320   1.267   3.200   2.770 -1.3891  1.0631  0.5186
 7106SOL     OW28321   3.870   5.345   2.134 -0.1924  0.0378 -0.1081
 7106SOL    HW128322   3.770   5.356   2.133 -0.0427  1.2574 -2.2276
 7106SOL    HW228323   3.913   5.420   2.085  1.8362 -0.1478  1.3225
 7107SOL     OW28324   1.952   5.906   0.707  0.0780 -0.2697  0.1867
 7107SOL    HW128325   2.014   5.831   0.726  1.2848  0.7165  0.2115
 7107SOL    HW228326   1.992   5.992   0.739 -1.3903  0.3590  0.4009
 7109SOL     OW28327   1.400   4.839   0.588  0.1683  0.0982  0.2301
 7109SOL    HW128328   1.327   4.771   0.584 -1.0322  1.3811  0.2055
 7109SOL    HW228329   1.480   4.805   0.538 -1.4898 -0.0181 -2.4191
 7110SOL     OW28330   3.802   4.270   5.449 -0.5015  0.6222 -0.3260
 7110SOL    HW128331   3.795   4.193   5.386  0.1731  0.0597  0.2762
 7110SOL    HW228332   3.854   4.243   5.529  0.9739  2.1212 -0.7492
 7111SOL     OW28333   6.548   2.295   0.911 -0.0955  0.0531 -0.1824
 7111SOL    HW128334   6.530   2.269   1.006  0.5119  0.0061 -0.0782
 7111SOL    HW228335   6.608   2.227   0.869 -2.8449 -1.5861 -1.5406
 7112SOL     OW28336   0.485   2.445   4.159  0.0042  0.1776  0.4161
 7112SOL    HW128337   0.388   2.461   4.144  0.1848 -0.3597 -1.5916
 7112SOL    HW228338   0.504   2.347   4.153  0.9522  0.4372 -1.2897
 7113SOL     OW28339   4.171   9.242   5.182  0.2625  0.3076 -0.0425
 7113SOL    HW128340   4.195   9.328   5.226  0.2637 -0.3851  1.3569
 7113SOL    HW228341   4.104   9.193   5.239  1.4560 -1.3264  0.0067
 7114SOL     OW28342   5.851   4.591   0.040 -0.2223  0.1552 -0.5396
 7114SOL    HW128343   5.757   4.593   0.006 -0.6635  2.1061  0.7236
 7114SOL    HW228344   5.887   4.684   0.043 -0.4362  0.2124  4.8315
 7115SOL     OW28345   9.450   1.322   0.041  0.3420 -0.2591 -0.4233
 7115SOL    HW128346   9.391   1.310   0.121  1.4508 -1.5385  0.2258
 7115SOL    HW228347   9.543   1.342   0.071  1.1518 -2.4531 -1.3195
 7116SOL     OW28348   1.089   3.838   3.298 -0.0364  0.0610 -0.1375
 7116SOL    HW128349   1.084   3.822   3.199  2.0776 -4.0885  0.3348
 7116SOL    HW228350   1.185   3.848   3.325 -0.5908  1.1138  1.5462
 7118SOL     OW28351   0.719   7.332   5.909  0.7396 -0.5261  0.0309
 7118SOL    HW128352   0.623   7.309   5.893  1.0661 -1.2546 -0.9752
 7118SOL    HW228353   0.728   7.431   5.921 -0.2199 -0.5265  0.8270
 7120SOL     OW28354   8.262   5.173   2.565  0.3362  0.2441  0.4354
 7120SOL    HW128355   8.195   5.244   2.546  0.1759 -0.4814 -1.7858
 7120SOL    HW228356   8.275   5.165   2.664 -0.6048  2.4455  0.7532
 7121SOL     OW28357   7.971   3.042   5.881  0.5337  0.3869  0.5853
 7121SOL    HW128358   7.929   2.986   5.809  0.5059  2.1685 -0.8105
 7121SOL    HW228359   8.066   3.061   5.857  0.6696  0.5769  1.2643
 7123SOL     OW28360   0.873   8.313   2.683 -0.3912 -0.2932 -0.7829
 7123SOL    HW128361   0.843   8.219   2.697 -1.6236  0.1470 -0.4391
 7123SOL    HW228362   0.839   8.346   2.595  1.6035 -0.7722 -1.7775
 7125SOL     OW28363   0.317   9.196   2.922  0.4324  0.0526  0.0709
 7125SOL    HW128364   0.372   9.231   2.846  0.4983  1.2816  0.6862
 7125SOL    HW228365   0.364   9.211   3.008 -0.5617  0.5170  0.5447
 7126SOL     OW28366   3.049   1.440   4.021  1.0409  0.1140  0.1833
 7126SOL    HW128367   2.984   1.473   4.089 -0.8810 -2.0245 -0.5616
 7126SOL    HW228368   3.059   1.509   3.949  0.7758  1.1031  1.0848
 7127SOL     OW28369   6.920   1.057   6.116 -0.6488  0.2041 -0.0506
 7127SOL    HW128370   6.941   1.132   6.179 -0.4525  1.0521 -1.1116
 7127SOL    HW228371   6.824   1.032   6.123 -0.4285 -0.3248  1.2386
 7128SOL     OW28372   9.131   1.184   3.880  0.2019  0.2000 -0.1145
 7128SOL    HW128373   9.062   1.249   3.910  0.4068  0.0696  0.6463
 7128SOL    HW228374   9.150   1.119   3.953  2.5893  1.4488  0.4406
 7129SOL     OW28375   1.591   2.281   3.148 -1.1197 -0.2001 -0.0857
 7129SOL    HW128376   1.666   2.279   3.082 -0.7234  0.3612  0.3402
 7129SOL    HW228377   1.618   2.231   3.230 -0.5558  1.4323  0.7449
 7130SOL     OW28378   6.981   8.541   4.553 -0.1540  0.0318 -0.1464
 7130SOL    HW128379   6.941   8.633   4.560  0.4725  0.3135 -0.1876
 7130SOL    HW228380   7.054   8.543   4.485 -1.8401 -1.1051 -2.0376
 7132SOL     OW28381   4.934   8.727   2.727  0.5607 -0.4280 -0.0853
 7132SOL    HW128382   4.958   8.731   2.630 -1.4446  0.4891 -0.5763
 7132SOL    HW228383   4.853   8.784   2.744  0.8737 -0.5872  2.1284
 7133SOL     OW28384   9.389   9.124   5.751 -0.3612 -0.5169 -0.1710
 7133SOL    HW128385   9.460   9.059   5.777  0.3200  0.6592  0.9904
 7133SOL    HW228386   9.368   9.114   5.653  1.9215 -0.4074 -0.6947
 7136SOL     OW28387   5.501   9.726   4.457 -0.7250 -0.0561 -0.1561
 7136SOL    HW128388   5.491   9.650   4.392 -0.0600  0.0908 -0.4330
 7136SOL    HW228389   5.575   9.786   4.427 -0.6197  0.1831  0.5791
 7137SOL     OW28390   9.070   6.892   3.178  0.3167 -0.0695 -0.1635
 7137SOL    HW128391   9.022   6.909   3.092  0.5335  1.5493  0.0264
 7137SOL    HW228392   9.149   6.833   3.161  2.0906  2.5982 -1.6261
 7138SOL     OW28393   8.585   1.557   0.569  0.8907 -0.3353  0.4804
 7138SOL    HW128394   8.616   1.577   0.662  0.8387  0.9867  0.2173
 7138SOL    HW228395   8.610   1.632   0.509 -1.6213  0.1302 -0.0184
 7140SOL     OW28396   1.398   7.868   3.021  0.1758  0.1961 -0.2275
 7140SOL    HW128397   1.433   7.897   3.110 -0.3877  2.1170 -0.6175
 7140SOL    HW228398   1.312   7.819   3.033  0.0432  0.5512  0.2881
 7141SOL     OW28399   3.717   9.188   3.891 -0.2551  0.0642 -0.1088
 7141SOL    HW128400   3.737   9.190   3.989  1.3866  0.7484 -0.4376
 7141SOL    HW228401   3.738   9.098   3.854 -2.4454 -0.7004  0.4684
 7142SOL     OW28402   2.746   4.863   0.866  0.3306 -0.1610  0.0219
 7142SOL    HW128403   2.706   4.793   0.925  0.2804 -0.2716 -0.1435
 7142SOL    HW228404   2.748   4.950   0.915 -0.3110 -0.1069 -0.0474
 7143SOL     OW28405   0.335   8.572   1.674 -0.0058  0.4861 -0.0481
 7143SOL    HW128406   0.390   8.525   1.743 -1.0531  0.6188  0.8782
 7143SOL    HW228407   0.321   8.511   1.595  0.3470 -0.0230  0.2807
 7144SOL     OW28408   5.166   0.820   4.037 -0.3894  0.3327 -0.4860
 7144SOL    HW128409   5.160   0.838   4.135  1.0951  0.6858 -0.4389
 7144SOL    HW228410   5.143   0.903   3.987  0.4376  0.6240 -0.3945
 7145SOL     OW28411   6.296   3.985   1.132  0.0090  0.1159  0.1873
 7145SOL    HW128412   6.216   4.042   1.115  0.4736  0.6551 -0.2268
 7145SOL    HW228413   6.329   4.000   1.225  0.9161  1.5182 -0.3545
 7146SOL     OW28414   9.840   9.096   0.223 -0.4939 -0.2200  0.5010
 7146SOL    HW128415   9.873   9.065   0.312  1.4563 -0.1707 -0.1775
 7146SOL    HW228416   9.918   9.116   0.164 -1.7603  0.6798 -0.9027
 7147SOL     OW28417   2.356   1.190   3.030  0.0428  0.3666 -0.3195
 7147SOL    HW128418   2.273   1.145   2.998  0.0802  0.6662 -0.8430
 7147SOL    HW228419   2.332   1.276   3.075 -0.0326 -0.1913  0.7229
 7148SOL     OW28420   4.913   4.288   5.991  0.1471 -0.0542  0.3585
 7148SOL    HW128421   4.856   4.207   5.983 -2.1460  1.5944 -0.5297
 7148SOL    HW228422   4.920   4.316   6.087 -1.9753  0.6958  0.3132
 7149SOL     OW28423   8.549   6.840   4.050  0.0846 -0.0483 -0.6945
 7149SOL    HW128424   8.555   6.765   4.116 -0.7812  2.1342  1.9470
 7149SOL    HW228425   8.559   6.804   3.957  0.2317 -3.3315  0.5445
 7150SOL     OW28426   1.013   2.879   1.113  0.1271  0.2674 -0.0661
 7150SOL    HW128427   1.061   2.827   1.042 -0.2703  1.6899 -1.4168
 7150SOL    HW228428   0.983   2.817   1.185  1.4668 -1.0592 -0.6189
 7151SOL     OW28429   5.217   6.398   1.549  0.3939 -0.0481 -0.3592
 7151SOL    HW128430   5.193   6.301   1.559 -0.0134 -0.0475 -1.2508
 7151SOL    HW228431   5.264   6.429   1.631  0.2150 -0.9135  0.0812
 7153SOL     OW28432   6.787   3.553   2.245  0.4242 -0.5198  0.0720
 7153SOL    HW128433   6.843   3.518   2.320 -0.6125  0.6923  1.4321
 7153SOL    HW228434   6.765   3.478   2.182  1.6566 -1.4601  0.7346
 7154SOL     OW28435   8.491   7.914   1.781  0.5915 -0.4027  0.5109
 7154SOL    HW128436   8.477   7.939   1.685 -1.1846 -1.1027  0.5799
 7154SOL    HW228437   8.501   7.815   1.788 -1.8869 -0.6170  1.3418
 7155SOL     OW28438   5.245   7.820   4.229 -0.5876  0.4218 -0.7946
 7155SOL    HW128439   5.238   7.890   4.158  1.2071  0.6986 -0.7118
 7155SOL    HW228440   5.296   7.741   4.194 -1.0087 -0.0773 -0.3020
 7156SOL     OW28441   3.327   7.132   2.664  0.4430  0.3073  0.2674
 7156SOL    HW128442   3.278   7.092   2.587  0.1684 -0.3511  0.7758
 7156SOL    HW228443   3.423   7.146   2.638  0.0898  1.1901 -0.5800
 7157SOL     OW28444   3.089   8.266   1.884 -0.0345 -0.2694 -0.4108
 7157SOL    HW128445   3.187   8.267   1.904 -0.0945 -1.8459  0.0384
 7157SOL    HW228446   3.075   8.292   1.788  0.8301 -0.1484 -0.5130
 7158SOL     OW28447   1.583   5.318   0.543 -0.0791  0.3045 -0.1782
 7158SOL    HW128448   1.542   5.256   0.477 -2.6106  0.4337  1.2031
 7158SOL    HW228449   1.675   5.287   0.566 -0.6410 -1.9156 -0.8359
 7159SOL     OW28450   8.761   2.490   6.328 -0.1861  0.6043  0.0633
 7159SOL    HW128451   8.773   2.408   6.384  0.9986  0.7693  0.0644
 7159SOL    HW228452   8.682   2.477   6.267 -0.3013 -0.3368  0.4011
 7160SOL     OW28453   1.542   7.478   2.235 -0.2131 -0.2693 -0.2536
 7160SOL    HW128454   1.628   7.525   2.252 -0.5137 -0.2488  1.2525
 7160SOL    HW228455   1.466   7.542   2.246 -0.4092 -0.1758 -2.0177
 7161SOL     OW28456   0.022   6.361   4.709  0.1384 -0.2082  0.0505
 7161SOL    HW128457   0.087   6.427   4.672  0.4186 -0.4435  0.1187
 7161SOL    HW228458  -0.022   6.399   4.790  2.3777 -1.1721  1.7986
 7162SOL     OW28459   9.570   7.710   3.140  0.0129  0.2149  0.3945
 7162SOL    HW128460   9.592   7.737   3.046  0.3073 -0.0034  0.3995
 7162SOL    HW228461   9.523   7.622   3.139 -0.7436  0.6171  0.3934
 7164SOL     OW28462   5.050   0.922   5.528 -0.1135  0.2044  0.0023
 7164SOL    HW128463   5.002   0.891   5.446  2.5753 -1.3216 -1.0897
 7164SOL    HW228464   5.071   0.843   5.586  0.2086  0.9516  0.9150
 7165SOL     OW28465   1.753   8.381   3.087  0.3439 -0.0474 -0.2757
 7165SOL    HW128466   1.746   8.480   3.089 -0.2343 -0.0542 -1.6247
 7165SOL    HW228467   1.661   8.341   3.082  0.5407 -0.6676  0.9461
 7167SOL     OW28468   7.224   2.161   2.484 -0.6540  0.0622 -0.2223
 7167SOL    HW128469   7.190   2.137   2.575 -0.5325  1.1497  0.1173
 7167SOL    HW228470   7.153   2.146   2.416  0.0727 -3.3306 -0.3475
 7168SOL     OW28471   8.817   5.728   3.746 -0.2702 -0.0578 -0.0415
 7168SOL    HW128472   8.837   5.819   3.783  0.3369 -0.7523  1.3674
 7168SOL    HW228473   8.888   5.664   3.775 -1.2666 -1.2120 -0.1190
 7169SOL     OW28474   4.503   4.759   0.708  0.0925 -0.0034 -0.7648
 7169SOL    HW128475   4.422   4.703   0.724  1.1896 -1.0295  1.5774
 7169SOL    HW228476   4.476   4.854   0.691 -1.5502 -0.0389  1.4765
 7170SOL     OW28477   0.401   9.724   4.141  0.3408  0.1264 -0.3511
 7170SOL    HW128478   0.401   9.635   4.094  0.0971  0.2156 -0.5209
 7170SOL    HW228479   0.307   9.747   4.167  0.1057  1.3103 -2.1675
 7172SOL     OW28480   4.825   4.133   2.453 -0.3435 -0.9271  0.2593
 7172SOL    HW128481   4.899   4.098   2.395  0.2045  1.2288 -0.3593
 7172SOL    HW228482   4.760   4.185   2.397 -1.6603 -1.7235  1.0154
 7173SOL     OW28483   2.834   6.010   4.181  0.5465 -0.3907 -0.2048
 7173SOL    HW128484   2.755   5.964   4.139 -0.6153  0.6075  0.8259
 7173SOL    HW228485   2.872   5.952   4.253  1.8856 -1.6464 -1.8965
 7175SOL     OW28486   5.485   9.344   5.254 -0.2528 -0.2324  0.0832
 7175SOL    HW128487   5.516   9.439   5.249 -0.4059 -0.0710  1.8901
 7175SOL    HW228488   5.386   9.342   5.270 -0.1639 -0.6872  0.5889
 7176SOL     OW28489   4.369   3.407   2.131 -0.9285 -0.0509  0.1599
 7176SOL    HW128490   4.288   3.395   2.074  0.5410 -2.7180 -1.4853
 7176SOL    HW228491   4.372   3.334   2.200 -1.0627  1.3397  1.6608
 7177SOL     OW28492   8.970   6.369   4.886 -0.1321 -0.0149  0.7003
 7177SOL    HW128493   8.955   6.376   4.985  0.4958 -0.0227  0.7968
 7177SOL    HW228494   8.962   6.273   4.859 -1.8849  0.1743  0.4836
 7178SOL     OW28495   4.399   6.873   3.248  0.3239  0.0109 -0.0107
 7178SOL    HW128496   4.433   6.938   3.180  0.9467  0.3270  0.5932
 7178SOL    HW228497   4.427   6.903   3.339 -0.3758 -0.4944  0.3673
 7181SOL     OW28498   2.288   3.875   1.695 -0.2310 -0.1468 -0.5749
 7181SOL    HW128499   2.207   3.920   1.659  0.0595  0.4302 -0.5284
 7181SOL    HW228500   2.321   3.807   1.630 -2.1431 -2.1101  0.4554
 7183SOL     OW28501   0.132   6.217   2.584  0.1771  0.0004  0.1500
 7183SOL    HW128502   0.091   6.305   2.560  0.8110  0.1133 -0.5289
 7183SOL    HW228503   0.060   6.150   2.602 -0.3987  1.4718  3.8544
 7184SOL     OW28504   0.207   8.151   4.636 -0.1680  0.0983 -0.1172
 7184SOL    HW128505   0.190   8.121   4.542  0.6116  0.9335 -0.5224
 7184SOL    HW228506   0.248   8.242   4.636  1.7653 -0.7369  0.9410
 7185SOL     OW28507   6.190   0.180   6.256 -0.6294  0.1904  0.4661
 7185SOL    HW128508   6.173   0.116   6.331 -0.4336  0.0394  0.3817
 7185SOL    HW228509   6.243   0.134   6.185  0.4648  0.7699  0.8967
 7186SOL     OW28510   6.295   3.452   0.499 -1.0264 -0.0306 -0.2075
 7186SOL    HW128511   6.380   3.490   0.536 -0.1001 -1.7034 -0.6068
 7186SOL    HW228512   6.220   3.516   0.518  0.1257  1.0015  1.0222
 7187SOL     OW28513   3.700   0.293   5.329  0.2109  0.1947  0.0644
 7187SOL    HW128514   3.681   0.195   5.325  2.5841 -0.3367  1.2256
 7187SOL    HW228515   3.725   0.326   5.238  2.5017 -0.9413  0.2724
 7188SOL     OW28516   1.986   0.252   5.709 -0.1901  0.6429  0.2529
 7188SOL    HW128517   2.046   0.185   5.665 -0.0285 -0.6923  2.4412
 7188SOL    HW228518   1.991   0.338   5.658  1.3752 -0.2943 -1.2655
 7189SOL     OW28519   7.081   8.073   5.956 -0.0405 -0.2825 -0.0312
 7189SOL    HW128520   7.090   8.170   5.977  0.8984 -0.6547  1.3486
 7189SOL    HW228521   7.172   8.033   5.942 -0.5111 -0.5459 -2.6342
 7191SOL     OW28522   8.307   3.920   1.740 -0.0682 -0.4674  0.0842
 7191SOL    HW128523   8.331   3.823   1.743  1.6753 -0.1244 -1.8553
 7191SOL    HW228524   8.348   3.962   1.659 -1.1458  1.8045  0.6897
 7192SOL     OW28525   0.254   8.081   4.314  0.0030 -0.0017 -0.3691
 7192SOL    HW128526   0.266   8.092   4.216 -0.1586  1.4295 -0.2321
 7192SOL    HW228527   0.159   8.059   4.334  0.2758 -1.5283 -0.6145
 7193SOL     OW28528   7.287   4.354   0.781  0.1172  0.4170 -0.5002
 7193SOL    HW128529   7.360   4.380   0.719 -0.3974  1.1339 -0.8108
 7193SOL    HW228530   7.221   4.296   0.732  0.1164  0.3377 -0.4051
 7194SOL     OW28531   7.100   6.577   5.385  0.4149 -0.3247  0.2498
 7194SOL    HW128532   7.100   6.508   5.313  1.2781  0.5764 -0.6346
 7194SOL    HW228533   7.182   6.634   5.377  1.0148 -0.7982  2.5244
 7195SOL     OW28534   4.403   5.358   1.923  0.2968  0.1726 -0.7726
 7195SOL    HW128535   4.320   5.375   1.976  1.3471  2.4550  0.1777
 7195SOL    HW228536   4.463   5.296   1.974 -0.8365 -1.5789 -1.5153
 7196SOL     OW28537   9.315   7.696   2.824 -0.5285 -0.3201 -0.2444
 7196SOL    HW128538   9.359   7.643   2.752 -0.8548 -1.4534  0.3774
 7196SOL    HW228539   9.240   7.644   2.864  0.4556 -0.2504  1.7932
 7199SOL     OW28540   8.401   8.638   5.441  0.1646 -0.0294 -0.1920
 7199SOL    HW128541   8.367   8.729   5.466 -0.3303 -0.4820  0.8082
 7199SOL    HW228542   8.324   8.579   5.417  0.4885 -0.1906 -0.8554
 7200SOL     OW28543   7.223   2.929   5.298  0.3024 -1.0061  0.8712
 7200SOL    HW128544   7.304   2.949   5.352  0.2963 -1.5603  1.0887
 7200SOL    HW228545   7.248   2.873   5.218  0.4508  0.5527 -0.1953
 7201SOL     OW28546   3.687   6.053   4.461  0.6324 -0.0950  0.0835
 7201SOL    HW128547   3.689   6.106   4.377  0.9275  0.7449  0.6097
 7201SOL    HW228548   3.606   6.078   4.514 -0.9761 -2.5590 -1.1701
 7202SOL     OW28549   1.432   4.692   4.676 -0.0295 -0.4676 -0.0451
 7202SOL    HW128550   1.338   4.711   4.651  0.1345 -0.2207 -0.4687
 7202SOL    HW228551   1.490   4.695   4.595  0.1546 -1.8153  0.0306
 7203SOL     OW28552   3.353   3.249   0.149 -0.1076  0.7372  0.3921
 7203SOL    HW128553   3.324   3.287   0.061 -1.2269 -0.6033  0.1511
 7203SOL    HW228554   3.374   3.152   0.137  0.2494  0.6726  1.4920
 7205SOL     OW28555   0.234   4.011   4.300  0.0056 -0.3658 -0.1828
 7205SOL    HW128556   0.179   4.050   4.227 -0.6522  0.6797  0.8520
 7205SOL    HW228557   0.194   3.925   4.331 -2.1471  1.3204  1.8477
 7206SOL     OW28558   9.837   9.477   4.526 -0.0203 -0.2807 -0.1206
 7206SOL    HW128559   9.898   9.440   4.456  0.9515  0.8484  0.1123
 7206SOL    HW228560   9.763   9.528   4.482  0.8984  0.9002 -0.3328
 7207SOL     OW28561   9.260   9.123   5.278  0.2582  0.3303 -0.1351
 7207SOL    HW128562   9.217   9.071   5.204  0.9473 -0.1568 -0.1966
 7207SOL    HW228563   9.308   9.202   5.240  1.3910 -0.4251 -0.3246
 7208SOL     OW28564   2.772   3.665   2.623  0.3027 -0.4440  0.1608
 7208SOL    HW128565   2.786   3.607   2.542 -2.2264 -0.4306 -0.3195
 7208SOL    HW228566   2.720   3.614   2.692  1.2702  0.0079  1.2411
 7210SOL     OW28567   1.791   3.842   2.076 -0.1434  0.0801 -0.0550
 7210SOL    HW128568   1.888   3.859   2.093  0.3522 -1.2631 -1.4118
 7210SOL    HW228569   1.752   3.922   2.030  1.0331 -0.4728 -2.1032
 7211SOL     OW28570   3.327   4.366   1.168  0.0082  0.3306 -0.4634
 7211SOL    HW128571   3.241   4.343   1.122 -1.9081  2.3966  1.9515
 7211SOL    HW228572   3.332   4.465   1.183  0.6996 -0.2094  3.4039
 7213SOL     OW28573   8.255   6.426   2.345  0.0025  0.0465 -0.5548
 7213SOL    HW128574   8.269   6.431   2.444  1.2110  0.6007 -0.7458
 7213SOL    HW228575   8.178   6.366   2.325 -1.1194  1.0069  0.7859
 7215SOL     OW28576   1.123   1.436   2.713 -0.1610  0.3224 -0.0753
 7215SOL    HW128577   1.160   1.509   2.771  0.8836 -0.9778  0.9401
 7215SOL    HW228578   1.105   1.355   2.770 -0.9849 -0.3225 -1.2411
 7216SOL     OW28579   2.113   5.026   0.644  0.2895 -0.2016  0.0603
 7216SOL    HW128580   2.141   5.001   0.551  0.7167 -1.5916  0.5575
 7216SOL    HW228581   2.194   5.057   0.695  0.4948 -1.8142  0.7266
 7219SOL     OW28582   7.192   7.179   4.299  0.5592  0.1406  0.0226
 7219SOL    HW128583   7.192   7.096   4.355 -1.2678 -0.1710 -0.3971
 7219SOL    HW228584   7.213   7.155   4.204  0.7159  0.2453  0.0319
 7220SOL     OW28585   5.448   0.101   5.950  0.2517  0.7553  0.2662
 7220SOL    HW128586   5.469   0.175   6.013  1.3938  0.8409 -0.2069
 7220SOL    HW228587   5.444   0.137   5.856 -0.6097  0.4758  0.1881
 7221SOL     OW28588   7.115   1.330   3.152  0.0640 -0.1503  0.3321
 7221SOL    HW128589   7.133   1.286   3.240  2.7073 -1.5049 -0.8157
 7221SOL    HW228590   7.190   1.393   3.131  0.2233 -0.9549 -1.5925
 7222SOL     OW28591   3.783   9.743   5.844 -0.3666 -0.4014 -0.2969
 7222SOL    HW128592   3.724   9.677   5.796 -1.7611  0.7973 -0.2709
 7222SOL    HW228593   3.778   9.831   5.797 -2.0630  0.9063  2.2461
 7223SOL     OW28594   6.856   4.053   0.280  0.4148  0.2113 -0.0687
 7223SOL    HW128595   6.801   4.001   0.345  1.4898  0.2492  0.8938
 7223SOL    HW228596   6.821   4.038   0.187 -1.4898  0.6243  0.5710
 7224SOL     OW28597   4.736   1.193   3.536  0.5674  0.7343 -0.4034
 7224SOL    HW128598   4.683   1.259   3.589 -0.9755 -0.4476 -0.4305
 7224SOL    HW228599   4.707   1.100   3.559  1.9817  0.0863 -1.1227
 7225SOL     OW28600   2.679   9.210   3.692 -0.1471  0.4358 -0.4361
 7225SOL    HW128601   2.773   9.191   3.664  0.0062 -1.0436  1.0482
 7225SOL    HW228602   2.678   9.242   3.787 -1.0360  1.6323 -0.8299
 7227SOL     OW28603   6.370   1.692   4.141 -0.1662 -0.0872 -0.0991
 7227SOL    HW128604   6.422   1.613   4.172  0.2997  0.5133  0.6832
 7227SOL    HW228605   6.354   1.685   4.043  1.5419 -0.1980 -0.3919
 7228SOL     OW28606   2.637   7.481   5.316  0.0610  0.1236  0.3192
 7228SOL    HW128607   2.680   7.477   5.226 -0.4324  1.2470  0.0277
 7228SOL    HW228608   2.553   7.536   5.311  1.1894  2.0719  1.9134
 7229SOL     OW28609   8.032   2.570   0.664  0.0013  0.1490 -0.0808
 7229SOL    HW128610   8.061   2.637   0.732 -1.1045  0.1179  0.4329
 7229SOL    HW228611   8.047   2.478   0.701 -2.1582  0.1312  0.8229
 7230SOL     OW28612   0.207   5.237   6.403  0.0991 -0.4715  0.2998
 7230SOL    HW128613   0.107   5.237   6.395  0.1973 -2.8357 -1.3862
 7230SOL    HW228614   0.245   5.161   6.351  2.7987  0.2914  1.0561
 7231SOL     OW28615   4.537   3.096   3.356 -0.4094  0.3326 -0.0220
 7231SOL    HW128616   4.473   3.155   3.406 -1.5354 -0.3065 -0.6796
 7231SOL    HW228617   4.530   3.002   3.390  0.1257  0.2451 -0.1490
 7233SOL     OW28618   7.557   3.678   2.726 -0.0698  0.0563  0.4480
 7233SOL    HW128619   7.464   3.660   2.696  0.4576 -1.8035 -0.1833
 7233SOL    HW228620   7.566   3.653   2.822  0.1285 -1.2129  0.1180
 7234SOL     OW28621   4.275   1.388   1.835 -0.0512 -0.0133  0.5544
 7234SOL    HW128622   4.347   1.321   1.852 -0.7416 -0.9844 -0.3308
 7234SOL    HW228623   4.195   1.365   1.890 -0.7564 -0.6763 -0.7407
 7235SOL     OW28624   2.465   7.294   3.913  0.1711  0.1399  0.0290
 7235SOL    HW128625   2.466   7.198   3.940 -0.0191  0.0056 -0.4267
 7235SOL    HW228626   2.447   7.300   3.814 -2.3913  0.7318  0.4982
 7236SOL     OW28627   1.688   0.092   2.228  0.3472 -0.4199 -0.4049
 7236SOL    HW128628   1.661   0.049   2.314  0.1251 -0.0844 -0.3039
 7236SOL    HW228629   1.651   0.040   2.151 -0.3981 -0.0938 -0.2720
 7239SOL     OW28630   0.066   9.125   5.232 -0.3159 -0.7651 -0.5326
 7239SOL    HW128631   0.075   9.223   5.245 -0.6015 -1.0287  1.8205
 7239SOL    HW228632   0.157   9.083   5.234  0.2144 -0.1972 -5.3088
 7240SOL     OW28633   9.058   3.052   3.460 -0.8073 -0.4166 -0.3432
 7240SOL    HW128634   9.069   3.028   3.364 -2.3652  0.5280 -0.7846
 7240SOL    HW228635   9.034   3.149   3.468 -1.8654 -0.7639  0.9074
 7241SOL     OW28636   0.619   1.925   0.370  0.0780  1.4649 -0.6024
 7241SOL    HW128637   0.542   1.983   0.345 -0.7544  0.4694 -0.3829
 7241SOL    HW228638   0.665   1.893   0.287 -0.8597  0.5879 -0.7930
 7242SOL     OW28639   8.832   5.210   5.355  0.6936  0.2399  0.2047
 7242SOL    HW128640   8.795   5.182   5.443  1.6242 -1.8699 -0.0250
 7242SOL    HW228641   8.759   5.216   5.288  0.4530 -1.9669  0.2182
 7244SOL     OW28642   1.219   2.445   1.139 -0.2936 -0.3425 -0.3198
 7244SOL    HW128643   1.251   2.381   1.069 -1.7196 -0.3180 -0.9954
 7244SOL    HW228644   1.138   2.409   1.184  0.0322  0.1012  0.6489
 7245SOL     OW28645   7.440   1.408   0.353 -0.2880 -0.1181  0.5899
 7245SOL    HW128646   7.475   1.368   0.437  0.6463 -0.5529  0.0048
 7245SOL    HW228647   7.360   1.465   0.373  0.2359  0.1783  1.8227
 7246SOL     OW28648   5.212   9.555   2.671  0.0138 -0.0815  0.0011
 7246SOL    HW128649   5.267   9.538   2.589  1.2656 -0.0302  0.8250
 7246SOL    HW228650   5.201   9.654   2.684 -0.8363 -0.1005 -0.5255
 7247SOL     OW28651   9.516   9.743   6.077 -0.2771  0.4359 -0.4712
 7247SOL    HW128652   9.539   9.777   5.986 -3.0977  0.1086 -1.3616
 7247SOL    HW228653   9.528   9.644   6.080 -0.8314  0.3567 -0.7210
 7248SOL     OW28654   2.690   0.274   6.022 -0.4782 -0.4613  0.0720
 7248SOL    HW128655   2.651   0.290   6.113 -1.4734 -0.1786 -0.4030
 7248SOL    HW228656   2.629   0.215   5.969  0.1570 -0.7204 -0.3849
 7249SOL     OW28657   9.308   2.937   2.853  0.4912  0.3160  0.3844
 7249SOL    HW128658   9.297   2.891   2.941  0.8328 -1.4098 -0.4383
 7249SOL    HW228659   9.367   3.017   2.863  1.2109 -0.3544  1.5733
 7250SOL     OW28660   0.958   2.246   4.934 -0.2541 -0.7358 -0.4389
 7250SOL    HW128661   1.040   2.276   4.886  0.1965 -0.7209  0.3514
 7250SOL    HW228662   0.894   2.323   4.943 -0.7584 -0.9598 -1.8601
 7251SOL     OW28663   2.036   9.311   3.728  0.3402 -0.0167  0.0088
 7251SOL    HW128664   2.109   9.343   3.667  0.5677  0.1751  0.3752
 7251SOL    HW228665   2.076   9.288   3.817 -0.3798  2.2166  0.9342
 7252SOL     OW28666   7.864   0.772   5.319 -0.1405 -0.1344  0.0661
 7252SOL    HW128667   7.936   0.833   5.286 -0.7935 -0.3203 -1.7940
 7252SOL    HW228668   7.778   0.822   5.325  0.0332 -0.0415  1.7870
 7253SOL     OW28669   4.905   5.363   0.746 -0.5087  0.1681  0.1441
 7253SOL    HW128670   4.847   5.378   0.825  0.5252 -0.0406  0.9521
 7253SOL    HW228671   4.913   5.265   0.728  0.9417  0.0946  1.0764
 7254SOL     OW28672   1.152   2.799   0.305 -0.2508 -0.0897  0.1763
 7254SOL    HW128673   1.188   2.890   0.323  0.5867 -0.4110  0.1702
 7254SOL    HW228674   1.145   2.784   0.207  0.6796 -0.4367  0.1595
 7256SOL     OW28675   4.917   7.485   2.206  0.0080 -0.3790  0.0086
 7256SOL    HW128676   4.850   7.461   2.136 -1.2577  2.4106  0.1984
 7256SOL    HW228677   4.997   7.526   2.162  0.3761 -1.0983  0.0033
 7257SOL     OW28678   7.284   5.719   1.882  0.1055 -0.0347 -0.1697
 7257SOL    HW128679   7.380   5.702   1.902  0.1773  2.8564  2.2937
 7257SOL    HW228680   7.277   5.769   1.795  0.8643 -0.0065 -0.2187
 7258SOL     OW28681   4.087   4.349   4.960 -0.3235 -0.2242 -0.0992
 7258SOL    HW128682   4.074   4.287   4.882  0.5797 -1.3678  0.6281
 7258SOL    HW228683   4.079   4.443   4.929  0.3724 -0.6481 -1.6658
 7259SOL     OW28684   7.587   9.045   2.164 -0.1426  0.0323  0.2199
 7259SOL    HW128685   7.615   8.949   2.159 -0.0512 -0.1333  3.0153
 7259SOL    HW228686   7.607   9.091   2.077 -2.0289 -2.9476 -1.8870
 7260SOL     OW28687   2.061   1.213   4.665  0.2696 -0.5366 -0.1746
 7260SOL    HW128688   2.045   1.278   4.591  0.2032  1.2197  1.3635
 7260SOL    HW228689   1.975   1.169   4.691 -0.2888  1.2159  1.0185
 7261SOL     OW28690   2.736   8.600   5.660 -0.0229  0.7315 -0.0708
 7261SOL    HW128691   2.689   8.512   5.657 -0.9207  1.1887  0.5113
 7261SOL    HW228692   2.787   8.607   5.746 -0.9424  1.2851  0.4311
 7262SOL     OW28693   3.196   3.878   2.130  0.4046  0.1728 -0.4082
 7262SOL    HW128694   3.171   3.972   2.110  1.3326 -0.0286 -2.6868
 7262SOL    HW228695   3.114   3.821   2.131 -0.1588  0.9900  0.9867
 7263SOL     OW28696   3.312   5.244   1.538  0.2467  0.0561  0.2754
 7263SOL    HW128697   3.398   5.287   1.510 -0.5419  0.8688 -0.9445
 7263SOL    HW228698   3.325   5.145   1.544  0.9021  0.0266 -1.3612
 7264SOL     OW28699   0.795   7.497   2.203 -0.1319 -0.3212 -0.5877
 7264SOL    HW128700   0.817   7.594   2.193  0.4452 -0.4093 -0.1987
 7264SOL    HW228701   0.711   7.487   2.256  0.5302 -0.0713  0.5243
 7265SOL     OW28702   7.946   9.290   2.784 -0.0176  0.4514 -0.3615
 7265SOL    HW128703   8.006   9.212   2.768 -0.1603  0.0405  1.0593
 7265SOL    HW228704   7.941   9.309   2.882 -0.4634  1.8658 -0.6492
 7266SOL     OW28705   9.671   8.868   6.119 -0.4562 -0.0578 -0.3023
 7266SOL    HW128706   9.729   8.934   6.166  0.9363  0.4074 -2.6100
 7266SOL    HW228707   9.715   8.778   6.120 -0.1115  0.0909 -1.2357
 7267SOL     OW28708   2.915   0.101   2.403 -0.1983 -0.4203  0.2282
 7267SOL    HW128709   2.953   0.194   2.408  0.7581 -0.8860  2.2180
 7267SOL    HW228710   2.937   0.061   2.314 -1.2518  1.5058 -0.9400
 7269SOL     OW28711   0.110   3.756   4.408  0.0682 -0.6662 -0.8125
 7269SOL    HW128712   0.069   3.699   4.479 -0.7452 -0.1328 -0.8447
 7269SOL    HW228713   0.208   3.737   4.402  0.2970 -0.0999  1.0202
 7270SOL     OW28714   0.561   9.749   4.412  0.2178  0.5379 -0.1272
 7270SOL    HW128715   0.543   9.654   4.386  0.0992  0.5350 -0.0321
 7270SOL    HW228716   0.543   9.809   4.333 -0.1291  0.5269 -0.0551
 7271SOL     OW28717   1.970   4.884   4.200 -0.1879  0.7468  0.2950
 7271SOL    HW128718   1.998   4.914   4.108 -1.7400  0.7581 -0.1838
 7271SOL    HW228719   1.966   4.964   4.261  1.2109  0.6878  0.4877
 7272SOL     OW28720   5.494   0.248   2.786  0.2100 -0.4101  0.2146
 7272SOL    HW128721   5.424   0.318   2.803 -0.1229 -1.1339  1.9603
 7272SOL    HW228722   5.463   0.187   2.713  0.2168  0.8431 -0.8713
 7273SOL     OW28723   9.533   5.860   1.475 -0.5145  0.0158 -0.2096
 7273SOL    HW128724   9.520   5.850   1.376 -0.6218  1.0700 -0.3102
 7273SOL    HW228725   9.453   5.823   1.522 -0.2581 -0.9274 -0.4834
 7274SOL     OW28726   4.029   1.507   1.649 -0.1918  0.4808  0.2756
 7274SOL    HW128727   4.039   1.408   1.639 -2.3020  0.1200  1.5112
 7274SOL    HW228728   4.112   1.545   1.691  0.4444 -0.8066  0.1997
 7275SOL     OW28729   6.190   2.797   4.983 -0.1660  0.6358 -0.1049
 7275SOL    HW128730   6.217   2.805   5.079 -2.0522  2.6310  0.2748
 7275SOL    HW228731   6.103   2.748   4.977  0.0728  0.2938 -0.8254
 7276SOL     OW28732   6.760   2.409   2.304  0.4725  0.3739  0.0655
 7276SOL    HW128733   6.699   2.461   2.244 -0.7560 -0.6484  0.4195
 7276SOL    HW228734   6.808   2.472   2.365 -2.4435  0.9991  1.8312
 7277SOL     OW28735   8.013   0.736   3.502 -0.2297 -0.4066  1.0538
 7277SOL    HW128736   7.973   0.818   3.544 -0.1132 -0.5532  1.4506
 7277SOL    HW228737   8.099   0.760   3.457  0.7650 -0.6720  2.7856
 7279SOL     OW28738   3.253   1.908   1.293 -0.0880  0.2306  0.1330
 7279SOL    HW128739   3.302   1.830   1.331 -0.7144  0.2906  1.0679
 7279SOL    HW228740   3.192   1.947   1.362 -0.7505  0.7454 -0.7221
 7280SOL     OW28741   8.738   8.427   5.711 -0.1776 -0.2548  0.0708
 7280SOL    HW128742   8.777   8.414   5.802  0.7593  0.6976 -0.1916
 7280SOL    HW228743   8.678   8.507   5.712 -2.8923 -2.2087  0.7008
 7281SOL     OW28744   7.849   4.127   3.187 -0.1421 -0.2405 -0.9098
 7281SOL    HW128745   7.895   4.068   3.252 -1.6079  0.5283  0.8807
 7281SOL    HW228746   7.773   4.174   3.233 -0.3747  1.3285 -2.8418
 7282SOL     OW28747   4.208   8.003   3.347 -0.2043 -0.4760  0.2207
 7282SOL    HW128748   4.190   8.007   3.249 -0.7788  0.5043  0.3519
 7282SOL    HW228749   4.173   7.917   3.384  0.7063 -1.1829 -0.5589
 7283SOL     OW28750   4.139   9.288   0.046 -0.5514  0.3748 -0.2993
 7283SOL    HW128751   4.061   9.236   0.080  1.0564 -0.8125  1.6882
 7283SOL    HW228752   4.146   9.277  -0.053 -0.3363 -3.1827  0.0334
 7284SOL     OW28753   4.002   3.532   3.810  0.5862 -0.2944 -0.4597
 7284SOL    HW128754   3.972   3.461   3.745 -1.1996 -0.8740  0.9722
 7284SOL    HW228755   3.936   3.607   3.811  0.8195 -0.0937  0.3786
 7287SOL     OW28756   4.024   5.605   1.784 -0.3159  0.1667 -0.2989
 7287SOL    HW128757   3.935   5.608   1.738 -0.2797  0.8053 -0.3249
 7287SOL    HW228758   4.051   5.509   1.798 -1.6716 -0.0621  0.9689
 7288SOL     OW28759   1.964   9.324   0.361  0.0433 -0.3786 -0.5404
 7288SOL    HW128760   1.956   9.385   0.282  1.9486  0.0227 -0.4441
 7288SOL    HW228761   2.057   9.287   0.366 -0.5091 -1.6789  0.5922
 7289SOL     OW28762   7.784   6.607   6.317 -0.1872 -0.1540 -0.0264
 7289SOL    HW128763   7.741   6.550   6.248 -0.2659  1.9397 -1.7520
 7289SOL    HW228764   7.879   6.578   6.331 -0.4728 -1.2143 -0.2775
 7290SOL     OW28765   1.667   5.592   2.787 -0.0647 -0.5423 -0.0806
 7290SOL    HW128766   1.699   5.576   2.880 -0.4181  0.0666  0.1471
 7290SOL    HW228767   1.660   5.505   2.739 -0.7406 -0.9540  0.7423
 7291SOL     OW28768   2.520   0.130   6.226 -0.3705  0.1359 -0.1200
 7291SOL    HW128769   2.461   0.050   6.242  0.0973  0.0257  1.0933
 7291SOL    HW228770   2.465   0.213   6.235  0.2896  0.1746  4.2499
 7292SOL     OW28771   9.921   8.488   0.941  0.0631  0.0053  0.6019
 7292SOL    HW128772   9.974   8.570   0.916 -0.1152  0.1956  0.8472
 7292SOL    HW228773   9.831   8.515   0.975 -1.0051 -0.3959 -1.7749
 7293SOL     OW28774   9.523   3.449   3.995  0.1100 -0.4672  0.3752
 7293SOL    HW128775   9.430   3.475   4.020  0.0998  0.4017 -0.5607
 7293SOL    HW228776   9.520   3.364   3.943 -0.2556  0.1250 -0.5769
 7294SOL     OW28777   2.478   0.812   2.268  0.4116 -0.2625 -0.1884
 7294SOL    HW128778   2.570   0.779   2.288  0.5232  0.3419  0.3133
 7294SOL    HW228779   2.483   0.890   2.205  0.3607  0.8468  1.1548
 7295SOL     OW28780   4.607   8.382   3.930  0.5996  0.2354  0.3073
 7295SOL    HW128781   4.680   8.444   3.957  0.6598  0.0453  0.5757
 7295SOL    HW228782   4.643   8.313   3.867 -0.1971  2.6410 -2.9675
 7296SOL     OW28783   6.703   9.795   6.016 -0.6629 -0.5640 -0.1439
 7296SOL    HW128784   6.704   9.711   6.068  2.6435 -0.4558  0.0489
 7296SOL    HW228785   6.746   9.780   5.927 -2.6239  0.2357 -1.2591
 7297SOL     OW28786   2.576   9.806   5.087  0.1198  0.0518  0.0958
 7297SOL    HW128787   2.540   9.858   5.010 -3.3462  1.4250  2.4938
 7297SOL    HW228788   2.533   9.715   5.089 -1.9236  1.0027  1.8702
 7299SOL     OW28789   4.614   6.451   2.453  0.1056  0.0782 -0.4291
 7299SOL    HW128790   4.586   6.517   2.524  1.7107 -1.3311  1.5856
 7299SOL    HW228791   4.559   6.368   2.461  0.0355  0.0591 -1.0898
 7300SOL     OW28792   0.322   0.864   2.240 -1.1453 -0.1586 -0.2627
 7300SOL    HW128793   0.255   0.826   2.175  0.0689 -3.8277  0.4891
 7300SOL    HW228794   0.334   0.801   2.316  1.9775  1.1825  0.4414
 7301SOL     OW28795   2.343   2.227   3.708 -0.3196  0.2431 -0.2373
 7301SOL    HW128796   2.309   2.283   3.633 -0.8750  0.0424 -0.1387
 7301SOL    HW228797   2.345   2.131   3.680 -0.1767  0.2127 -0.1230
 7302SOL     OW28798   7.081   3.926   1.211  0.1952 -0.0044 -0.4486
 7302SOL    HW128799   7.168   3.900   1.252 -0.6641 -0.4203  1.1751
 7302SOL    HW228800   7.087   3.918   1.111  1.9661 -0.1259 -0.3505
 7303SOL     OW28801   3.645   6.349   2.101 -0.2691  0.2391  0.1726
 7303SOL    HW128802   3.664   6.415   2.028 -0.5264 -1.9029 -1.9145
 7303SOL    HW228803   3.547   6.345   2.118 -0.1574  1.1360  1.0166
 7304SOL     OW28804   1.771   0.985   4.397  0.2445 -0.0999 -0.5266
 7304SOL    HW128805   1.677   0.993   4.366  0.8470  1.2242 -2.0671
 7304SOL    HW228806   1.784   1.042   4.479  0.2395  1.3922 -1.5555
 7305SOL     OW28807   0.019   7.199   2.117  0.2872  0.2448 -0.4817
 7305SOL    HW128808   0.085   7.221   2.189  1.5925  0.7317 -1.8104
 7305SOL    HW228809  -0.074   7.202   2.155  0.9789  0.0777  1.2717
 7306SOL     OW28810   8.100   9.756   1.464 -0.2055 -0.0878  0.1440
 7306SOL    HW128811   8.022   9.743   1.526 -0.7020 -0.6630 -0.5860
 7306SOL    HW228812   8.105   9.852   1.437  0.3543  0.2790  1.5076
 7307SOL     OW28813   3.246   6.589   4.460 -0.2831  0.4316  0.1805
 7307SOL    HW128814   3.201   6.569   4.546 -0.7551  3.1052  0.6067
 7307SOL    HW228815   3.311   6.664   4.473 -0.0819  0.6047 -1.6833
 7308SOL     OW28816   8.521   4.442   1.223 -0.2970  0.2141  0.3257
 7308SOL    HW128817   8.619   4.432   1.237  0.0490  1.7104 -0.8850
 7308SOL    HW228818   8.472   4.380   1.283  1.3913 -0.5300  0.9553
 7309SOL     OW28819   9.462   1.931   0.784  0.6051 -0.1263  0.0482
 7309SOL    HW128820   9.449   2.024   0.818 -0.6491 -0.1838 -0.2516
 7309SOL    HW228821   9.502   1.935   0.692  1.7987  0.0738  0.5595
 7310SOL     OW28822   2.717   0.745   2.326 -0.1961 -0.4444 -0.2123
 7310SOL    HW128823   2.776   0.675   2.283  0.0803  0.1358 -0.7877
 7310SOL    HW228824   2.769   0.829   2.337 -0.2250 -0.6215  1.4075
 7311SOL     OW28825   2.250   5.971   0.403 -0.3360 -0.4462  0.0909
 7311SOL    HW128826   2.158   5.934   0.391 -0.9824  1.1995 -0.1687
 7311SOL    HW228827   2.293   5.930   0.483 -0.5043 -2.7535 -0.9686
 7313SOL     OW28828   6.383   1.558   1.376 -0.1042  0.4220 -0.1342
 7313SOL    HW128829   6.456   1.529   1.314 -0.7961 -0.2872 -0.6244
 7313SOL    HW228830   6.331   1.478   1.406  0.3703  0.7288  1.5572
 7314SOL     OW28831   9.137   5.340   0.227  0.3596 -0.3070 -0.5031
 7314SOL    HW128832   9.130   5.261   0.288  1.7236 -1.2393 -1.5045
 7314SOL    HW228833   9.146   5.307   0.132 -1.9198  1.0983 -1.2633
 7315SOL     OW28834   4.508   2.583   6.371  0.2091  0.4492  1.0033
 7315SOL    HW128835   4.554   2.609   6.287  1.2091 -0.1009  1.3737
 7315SOL    HW228836   4.564   2.610   6.450  0.4825 -1.3182  1.4324
 7316SOL     OW28837   3.921   3.447   5.072  0.1939 -0.2454  0.3023
 7316SOL    HW128838   3.842   3.497   5.107  1.2618 -0.4171  3.0935
 7316SOL    HW228839   3.890   3.361   5.031 -1.2451  0.6037 -0.3970
 7317SOL     OW28840   1.007   3.370   5.241 -0.4515 -0.0157 -0.3245
 7317SOL    HW128841   0.943   3.331   5.307 -0.1835 -0.4004 -0.2935
 7317SOL    HW228842   1.064   3.439   5.286  0.8509 -1.4368  0.2446
 7318SOL     OW28843   7.960   0.384   5.842 -0.0752  0.2322 -0.0100
 7318SOL    HW128844   7.932   0.427   5.928  0.5203  0.1629  0.2179
 7318SOL    HW228845   8.018   0.447   5.790 -1.0226  0.5503 -0.6945
 7319SOL     OW28846   4.033   1.583   2.003  0.4434  0.0223  0.9243
 7319SOL    HW128847   4.083   1.576   2.089  0.3208  0.7250  1.0545
 7319SOL    HW228848   4.026   1.492   1.961  1.6985 -0.1182  0.9857
 7320SOL     OW28849   1.500   4.528   5.342  0.1916 -0.2607 -0.0281
 7320SOL    HW128850   1.505   4.481   5.253 -0.8068  1.5674 -1.0717
 7320SOL    HW228851   1.521   4.625   5.330  1.2858 -0.2361  1.9580
 7322SOL     OW28852   6.729   8.174   5.120  0.1159  0.2917  0.0186
 7322SOL    HW128853   6.811   8.118   5.131 -0.7401 -0.8223  0.8999
 7322SOL    HW228854   6.692   8.197   5.211  0.0151  1.6196 -0.3535
 7323SOL     OW28855   6.867   8.379   5.501  0.0520 -0.4409  0.3066
 7323SOL    HW128856   6.837   8.422   5.416 -0.9788  0.5312  1.1502
 7323SOL    HW228857   6.967   8.369   5.501 -0.0267 -1.3373 -1.4207
 7326SOL     OW28858   2.133   1.185   5.455 -0.1530  0.1598 -0.0371
 7326SOL    HW128859   2.197   1.108   5.460  2.7393  2.6210  2.8911
 7326SOL    HW228860   2.107   1.200   5.359  0.5008 -3.3825 -0.8417
 7327SOL     OW28861   3.074   1.377   2.759 -0.2590  0.7321  0.2865
 7327SOL    HW128862   3.037   1.378   2.852  0.7379  0.4358  0.6916
 7327SOL    HW228863   3.170   1.406   2.761 -0.1075  0.3115 -0.5962
 7330SOL     OW28864   3.895   5.353   0.674 -0.5689  0.2270 -0.3140
 7330SOL    HW128865   3.930   5.403   0.595  1.4589  0.3965  0.6484
 7330SOL    HW228866   3.972   5.316   0.726 -1.9861 -3.5686 -0.7570
 7332SOL     OW28867   8.328   5.509   0.461 -0.2538  0.8605 -0.3108
 7332SOL    HW128868   8.228   5.508   0.453 -0.2800 -0.7839  0.0064
 7332SOL    HW228869   8.368   5.524   0.370 -0.7736  0.2927 -0.6371
 7333SOL     OW28870   0.652   0.206   0.406  0.1792  0.3165  0.2375
 7333SOL    HW128871   0.577   0.254   0.451  0.4503  0.4361  0.5654
 7333SOL    HW228872   0.739   0.236   0.445  0.4825  1.1524 -1.0627
 7334SOL     OW28873   0.940   6.648   3.028  0.0129  0.0517  0.0275
 7334SOL    HW128874   0.882   6.629   2.949  0.9008  2.3257 -1.2257
 7334SOL    HW228875   1.034   6.665   2.998  0.8481 -1.2100  1.8035
 7335SOL     OW28876   6.584   0.140   3.736  0.5616  0.1795 -0.2946
 7335SOL    HW128877   6.507   0.106   3.790  0.4190 -0.8791 -1.1396
 7335SOL    HW228878   6.668   0.093   3.762  0.0941 -2.0351 -2.5322
 7336SOL     OW28879   0.892   7.460   6.320 -0.4074 -0.4376 -0.6598
 7336SOL    HW128880   0.961   7.505   6.376 -0.6892 -0.0856 -0.5932
 7336SOL    HW228881   0.916   7.469   6.223 -1.0480  0.8448 -0.7093
 7337SOL     OW28882   1.482   4.951   4.556 -0.0468 -0.3285  0.3375
 7337SOL    HW128883   1.386   4.951   4.580  0.0806  0.8210  0.8960
 7337SOL    HW228884   1.538   4.956   4.639  0.4485  0.7200 -0.0419
 7338SOL     OW28885   0.580   5.513   0.882  0.0067  0.3521 -0.3803
 7338SOL    HW128886   0.660   5.572   0.892 -0.0318  0.3346  0.0359
 7338SOL    HW228887   0.497   5.568   0.890 -0.0221  0.4079 -1.0497
 7339SOL     OW28888   8.573   5.102   3.743 -0.3285  0.3669 -0.3959
 7339SOL    HW128889   8.634   5.118   3.666 -2.0272  1.0334 -1.6228
 7339SOL    HW228890   8.545   5.190   3.783 -2.2503  0.1603 -1.2530
 7340SOL     OW28891   4.392   8.514   0.025 -0.3168  0.0736  0.5957
 7340SOL    HW128892   4.488   8.523  -0.002  0.3183 -1.1664  2.3608
 7340SOL    HW228893   4.387   8.477   0.118 -2.5056  0.3939  0.6213
 7341SOL     OW28894   7.893   8.944   3.570  0.3068 -0.2481 -0.0873
 7341SOL    HW128895   7.920   8.934   3.665  0.7525 -2.9665 -0.4620
 7341SOL    HW228896   7.875   8.854   3.530 -1.3112  0.9346 -2.1715
 7342SOL     OW28897   6.715   3.534   1.107  0.3160 -0.5724  0.0262
 7342SOL    HW128898   6.733   3.579   1.194  0.9012 -0.4044 -0.1774
 7342SOL    HW228899   6.797   3.484   1.078  0.8743  1.2294 -1.5324
 7343SOL     OW28900   4.195   8.433   1.501 -0.7375 -0.2099  0.2774
 7343SOL    HW128901   4.141   8.423   1.417 -1.2320  0.8378  0.4627
 7343SOL    HW228902   4.155   8.377   1.573 -0.4309 -0.9556 -0.1228
 7344SOL     OW28903   9.596   4.961   6.058 -0.3781  0.5436  0.1821
 7344SOL    HW128904   9.535   5.014   6.118 -0.4292 -0.5626  1.1285
 7344SOL    HW228905   9.666   4.916   6.114 -0.1477 -0.1332 -0.6468
 7345SOL     OW28906   8.360   7.442   2.552 -0.3530  0.0963 -0.0413
 7345SOL    HW128907   8.391   7.498   2.629  1.1684 -0.6410 -0.1029
 7345SOL    HW228908   8.288   7.379   2.583 -0.0705  0.1205  0.6686
 7346SOL     OW28909   1.049   8.881   2.913 -0.6641  0.6145 -0.0322
 7346SOL    HW128910   1.060   8.795   2.864 -0.5943  0.9156 -0.5473
 7346SOL    HW228911   1.006   8.863   3.002 -1.5107  0.1660 -0.5299
 7347SOL     OW28912   7.744   1.316   1.421 -0.0294  0.4577  0.2590
 7347SOL    HW128913   7.745   1.231   1.475  0.7580  0.8670  0.8966
 7347SOL    HW228914   7.836   1.335   1.388 -0.4751  0.3305 -1.0481
 7348SOL     OW28915   3.623   1.544   1.547 -0.0588 -0.1316 -0.5818
 7348SOL    HW128916   3.528   1.535   1.576 -0.1540  1.3085 -0.4427
 7348SOL    HW228917   3.678   1.582   1.621  0.4742 -0.2027 -0.9335
 7350SOL     OW28918   9.767   8.305   3.756  0.0387  0.1958  0.1052
 7350SOL    HW128919   9.841   8.345   3.703 -0.5428  1.8118  0.5024
 7350SOL    HW228920   9.699   8.265   3.694  0.1553  0.6553 -0.3233
 7351SOL     OW28921   8.827   5.607   5.429 -0.1887  0.0633  0.4532
 7351SOL    HW128922   8.893   5.554   5.376 -0.9360  0.2715 -0.7097
 7351SOL    HW228923   8.745   5.622   5.373 -0.2693  1.8291  1.0410
 7353SOL     OW28924   7.799   7.298   1.634  0.0458 -0.3936 -0.1622
 7353SOL    HW128925   7.818   7.394   1.652 -0.4146 -0.2105 -0.6540
 7353SOL    HW228926   7.885   7.248   1.625  0.2912  0.1567 -0.8852
 7355SOL     OW28927   3.132   6.912   5.016 -0.0009  0.1898 -0.0784
 7355SOL    HW128928   3.054   6.877   4.964 -0.5656  0.3419  0.6470
 7355SOL    HW228929   3.128   6.874   5.109  1.2510 -0.4562 -0.2918
 7356SOL     OW28930   4.822   2.010   5.662  0.0695 -0.2817  0.1686
 7356SOL    HW128931   4.782   2.095   5.696 -0.8976 -1.1433  1.2345
 7356SOL    HW228932   4.754   1.960   5.609  0.5707 -0.4774 -0.2908
 7357SOL     OW28933   8.784   9.748   4.896 -0.1134 -0.0672  0.2956
 7357SOL    HW128934   8.761   9.802   4.978 -0.6947  1.1882 -0.6760
 7357SOL    HW228935   8.845   9.673   4.922  0.0649  0.5732  1.8069
 7358SOL     OW28936   4.401   3.571   6.163  0.1881  0.3429  0.6397
 7358SOL    HW128937   4.338   3.646   6.181  2.9248  2.3478  2.3401
 7358SOL    HW228938   4.385   3.534   6.071 -2.1090  2.0752  0.3118
 7359SOL     OW28939   6.707   7.914   3.928 -0.0999  0.5223 -0.1590
 7359SOL    HW128940   6.693   7.931   4.026 -2.2368  0.9923 -0.5153
 7359SOL    HW228941   6.678   7.820   3.907  2.7175 -0.4419  0.0860
 7360SOL     OW28942   9.457   5.352   4.663  0.2347  0.2115 -0.2517
 7360SOL    HW128943   9.432   5.299   4.744 -1.2486 -0.8370 -1.3668
 7360SOL    HW228944   9.540   5.404   4.682  2.1555 -3.0071  0.6785
 7361SOL     OW28945   9.662   7.892   3.880  0.1459 -0.3990 -0.2844
 7361SOL    HW128946   9.612   7.958   3.936  1.3090  0.7264 -0.5315
 7361SOL    HW228947   9.599   7.826   3.842 -1.1995  1.1847 -0.8557
 7362SOL     OW28948   1.860   3.796   4.752  0.3400  0.2747  0.3118
 7362SOL    HW128949   1.817   3.827   4.667 -1.0410 -0.5685  0.6903
 7362SOL    HW228950   1.796   3.806   4.828  0.9570 -0.5927  0.9631
 7363SOL     OW28951   1.515   3.307   5.078  0.2284  0.0196  0.2172
 7363SOL    HW128952   1.595   3.256   5.111  1.1146  0.4225 -1.2765
 7363SOL    HW228953   1.467   3.251   5.011  0.1910  0.4365 -0.1009
 7364SOL     OW28954   1.453   5.262   4.670  0.1921  0.0264 -0.2972
 7364SOL    HW128955   1.511   5.234   4.593 -0.7455  0.5923 -1.2400
 7364SOL    HW228956   1.417   5.181   4.716  0.8609 -0.3218 -0.3781
 7367SOL     OW28957   0.925   6.348   1.140 -0.2478  0.1377  0.2067
 7367SOL    HW128958   0.970   6.321   1.225  1.3473  1.7331 -0.1027
 7367SOL    HW228959   0.921   6.448   1.134 -2.3889  0.0466 -0.5475
 7368SOL     OW28960   7.315   0.256   5.449 -0.1848 -0.0340  0.1361
 7368SOL    HW128961   7.231   0.201   5.455  0.3020 -0.5668  2.5229
 7368SOL    HW228962   7.325   0.310   5.533  1.9409 -0.1217 -0.0490
 7369SOL     OW28963   9.751   4.695   2.462 -0.1367  0.2303  0.1834
 7369SOL    HW128964   9.727   4.621   2.400 -1.1072 -0.3355  1.2190
 7369SOL    HW228965   9.801   4.766   2.412 -0.3718 -0.5038 -1.1003
 7370SOL     OW28966   6.381   0.092   3.943 -0.3999  0.2854 -0.2761
 7370SOL    HW128967   6.433   0.145   4.010 -0.4357 -0.9778  0.7853
 7370SOL    HW228968   6.312   0.038   3.990 -0.6615 -0.3560 -1.3743
 7371SOL     OW28969   8.059   7.190   1.654  0.7254 -0.1271  0.0606
 7371SOL    HW128970   8.118   7.271   1.653  0.9435 -0.2928 -0.7696
 7371SOL    HW228971   8.103   7.116   1.603 -1.2267  0.4700 -2.5679
 7372SOL     OW28972   2.101   2.072   3.511  0.1530 -0.0871  0.8383
 7372SOL    HW128973   2.057   2.070   3.601  0.4064  0.5545  0.9804
 7372SOL    HW228974   2.189   2.025   3.516  0.4885  0.5582  1.1044
 7373SOL     OW28975   9.939   2.938   3.689 -0.0447  0.0781  0.0269
 7373SOL    HW128976   9.899   2.855   3.651 -0.3281 -0.9023  2.3750
 7373SOL    HW228977   9.976   2.994   3.615  3.8372 -4.0122 -1.3484
 7374SOL     OW28978   3.338   1.975   5.418  0.3687 -0.0474 -0.1328
 7374SOL    HW128979   3.353   2.069   5.451 -2.0624 -0.0519  1.1064
 7374SOL    HW228980   3.309   1.978   5.323  0.4603  0.4451 -0.1476
 7375SOL     OW28981   4.054   2.887   2.565  0.1270 -0.0720  0.4346
 7375SOL    HW128982   3.966   2.909   2.609 -0.6040  0.2776 -1.1632
 7375SOL    HW228983   4.049   2.795   2.525  0.2780  0.1817 -0.1703
 7376SOL     OW28984   0.048   8.740   4.868  0.0191  0.8657  0.9488
 7376SOL    HW128985  -0.005   8.808   4.917  0.2709  0.3151  2.0164
 7376SOL    HW228986   0.144   8.768   4.865  0.1202  0.5909  1.3742
 7377SOL     OW28987   4.095   5.220   6.299 -0.2445  0.1334  0.1002
 7377SOL    HW128988   4.193   5.210   6.282 -0.4258 -0.4527 -0.6285
 7377SOL    HW228989   4.045   5.155   6.242 -1.1491  1.4937 -0.6806
 7378SOL     OW28990   9.252   1.136   3.152  0.2379 -0.3940 -0.4072
 7378SOL    HW128991   9.266   1.194   3.232  2.4612 -0.8556 -0.4421
 7378SOL    HW228992   9.212   1.190   3.078  0.4065  0.5971  0.2245
 7379SOL     OW28993   9.182   2.952   0.631 -0.1434  0.2266  0.3416
 7379SOL    HW128994   9.096   2.998   0.608  1.1660  1.3890 -2.4830
 7379SOL    HW228995   9.253   3.021   0.648  0.6741 -0.7261  0.8083
 7382SOL     OW28996   3.737   3.418   4.675  0.1685 -0.6691  0.1287
 7382SOL    HW128997   3.687   3.332   4.681  0.8149 -1.0981 -0.6246
 7382SOL    HW228998   3.688   3.488   4.728 -0.4784 -1.4292  0.5522
 7384SOL     OW28999   2.351   1.342   4.002  0.1505 -0.5594 -0.1929
 7384SOL    HW129000   2.326   1.364   4.096  2.9545  0.8725  0.2382
 7384SOL    HW229001   2.450   1.351   3.990 -0.2500  0.0586 -3.4781
 7386SOL     OW29002   3.892   8.275   3.171  0.0354  0.1655 -0.2519
 7386SOL    HW129003   3.991   8.285   3.163  0.2343  1.0584  2.7823
 7386SOL    HW229004   3.856   8.344   3.234 -2.1607 -1.7534  0.6766
 7387SOL     OW29005   4.973   2.028   6.250  0.1054  0.7527  0.2119
 7387SOL    HW129006   4.969   2.114   6.301  0.6771  1.0141 -0.1759
 7387SOL    HW229007   4.941   2.044   6.156 -0.1716  0.4539  0.2549
 7388SOL     OW29008   1.966   8.823   3.799  0.0954  0.1235  0.1870
 7388SOL    HW129009   1.974   8.908   3.747  1.2414 -0.6314 -0.8900
 7388SOL    HW229010   2.020   8.831   3.883  1.3377 -0.0342 -0.5827
 7389SOL     OW29011   9.506   0.813   2.711 -0.1656 -0.5638  0.0644
 7389SOL    HW129012   9.546   0.766   2.633 -1.2415  0.4016 -1.0967
 7389SOL    HW229013   9.412   0.781   2.725 -1.0911  1.5427 -1.0578
 7390SOL     OW29014   8.579   9.481   2.313 -0.7123  0.0337 -0.2771
 7390SOL    HW129015   8.617   9.467   2.405  0.2844  1.4987 -0.4500
 7390SOL    HW229016   8.485   9.513   2.321 -0.8699 -0.5414  0.2197
 7391SOL     OW29017   1.786   2.154   2.822  0.0366  0.0405  0.3165
 7391SOL    HW129018   1.802   2.199   2.910 -1.7913 -0.5360  0.9552
 7391SOL    HW229019   1.770   2.056   2.836 -1.0467  0.0736 -0.5549
 7392SOL     OW29020   8.099   9.059   5.809  0.3689 -0.4655 -0.1851
 7392SOL    HW129021   8.051   9.031   5.726 -0.9382  1.4914 -0.1264
 7392SOL    HW229022   8.043   9.037   5.889  1.5253 -2.1454  0.1823
 7393SOL     OW29023   8.226   0.547   0.028  0.7142 -0.4910  0.4034
 7393SOL    HW129024   8.314   0.499   0.028 -0.1105 -2.0077  0.8700
 7393SOL    HW229025   8.193   0.556   0.121  0.5209  0.3885  0.2586
 7394SOL     OW29026   0.281   3.594   0.803  0.4249  0.2418  0.1147
 7394SOL    HW129027   0.299   3.638   0.890 -0.0977 -1.5135  1.1332
 7394SOL    HW229028   0.368   3.576   0.756  0.7700  0.2439  0.7567
 7395SOL     OW29029   1.342   7.019   4.329  0.3538 -0.2984 -0.1765
 7395SOL    HW129030   1.397   7.057   4.403  0.9253  0.0329 -0.7743
 7395SOL    HW229031   1.393   6.946   4.283 -0.0048 -0.5091 -0.2425
 7396SOL     OW29032   8.705   1.309   1.770  0.1372  0.0774  0.0260
 7396SOL    HW129033   8.748   1.240   1.711  1.2135  1.1268 -0.4407
 7396SOL    HW229034   8.616   1.276   1.799 -0.1485 -0.7412 -1.6890
 7397SOL     OW29035   8.600   9.133   1.760 -0.0389 -0.1445  0.5272
 7397SOL    HW129036   8.654   9.161   1.840  0.0406 -1.0750  0.7990
 7397SOL    HW229037   8.513   9.095   1.791 -0.4615  0.4710  0.1208
 7398SOL     OW29038   9.228   6.263   4.540 -0.0111 -0.0688 -0.0844
 7398SOL    HW129039   9.266   6.180   4.498  0.8713  0.1177  0.3374
 7398SOL    HW229040   9.132   6.273   4.513 -0.2878 -1.5326  0.3118
 7400SOL     OW29041   0.127   6.064   1.069 -0.3651 -0.3120 -0.0008
 7400SOL    HW129042   0.060   6.137   1.057 -0.2188  0.0293  1.1786
 7400SOL    HW229043   0.083   5.983   1.106 -0.5139 -0.8178 -1.2442
 7401SOL     OW29044   2.660   0.371   1.110  0.4595 -0.4179 -0.9427
 7401SOL    HW129045   2.564   0.347   1.093  1.0536 -2.5126 -1.4989
 7401SOL    HW229046   2.689   0.442   1.047 -0.6935  0.1308 -0.8544
 7402SOL     OW29047   2.239   3.986   4.946 -0.3464 -0.1910  0.1998
 7402SOL    HW129048   2.314   4.009   4.883 -0.8736 -0.9180 -0.7017
 7402SOL    HW229049   2.218   3.889   4.938 -1.9230  0.1650 -0.1221
 7403SOL     OW29050   3.996   5.958   1.191 -0.8493  0.2583 -0.2689
 7403SOL    HW129051   3.953   5.959   1.101 -1.4932 -0.5621  0.0319
 7403SOL    HW229052   4.072   5.893   1.191  0.9834  2.3072 -1.0526
 7404SOL     OW29053   9.958   5.693   2.244  0.4656 -0.4218  0.1549
 7404SOL    HW129054   9.993   5.702   2.338 -2.3928  0.5594  1.1653
 7404SOL    HW229055   9.969   5.599   2.213  1.3997 -0.7668  1.4858
 7405SOL     OW29056   5.642   3.795   0.807 -0.2804  0.5939 -0.6036
 7405SOL    HW129057   5.697   3.770   0.886 -2.7369  1.6929  1.4905
 7405SOL    HW229058   5.672   3.884   0.772  0.0198  0.6620 -0.1672
 7406SOL     OW29059   3.760   9.350   5.428  0.2855 -0.4418  0.3959
 7406SOL    HW129060   3.746   9.343   5.527 -4.0340 -1.3026 -0.1768
 7406SOL    HW229061   3.673   9.336   5.381  1.7847  2.2544 -3.4638
 7407SOL     OW29062   0.921   6.100   5.688  0.1073  0.1234  0.2755
 7407SOL    HW129063   0.936   6.164   5.613 -0.9645 -0.2224 -0.2488
 7407SOL    HW229064   0.937   6.146   5.775 -0.0329  0.9180 -0.1127
 7408SOL     OW29065   0.545   6.526   5.477 -0.7457 -0.6868  0.0655
 7408SOL    HW129066   0.598   6.583   5.539 -1.1542 -2.4248  2.0555
 7408SOL    HW229067   0.449   6.554   5.480 -0.6343 -0.2503 -0.3951
 7410SOL     OW29068   8.578   1.172   3.415  0.6196 -0.3746  0.6618
 7410SOL    HW129069   8.486   1.185   3.378  0.6264  1.1018  1.1531
 7410SOL    HW229070   8.575   1.178   3.515  1.4789  1.2570  0.6072
 7412SOL     OW29071   9.070   1.991   1.637  0.7140  0.2690 -0.2900
 7412SOL    HW129072   9.073   1.917   1.704 -1.1713  0.5785  0.1583
 7412SOL    HW229073   9.038   2.075   1.682 -1.4742  0.2483 -1.7736
 7414SOL     OW29074   8.224   7.434   1.633  0.8146  0.7494  0.1305
 7414SOL    HW129075   8.292   7.440   1.559 -2.4430  1.6749 -2.9183
 7414SOL    HW229076   8.187   7.525   1.651  0.1327  0.2066  1.5332
 7415SOL     OW29077   1.337   9.321   0.906  0.0170 -0.0505 -0.1289
 7415SOL    HW129078   1.283   9.401   0.885 -0.5158  0.0118  1.4149
 7415SOL    HW229079   1.435   9.344   0.902 -0.1326  0.6553  0.2257
 7416SOL     OW29080   2.098   3.071   4.127  0.7634  0.0468 -0.3118
 7416SOL    HW129081   2.054   3.139   4.185  2.1948  0.2484  0.5813
 7416SOL    HW229082   2.151   3.008   4.184 -1.6494 -2.7074 -0.9820
 7417SOL     OW29083   3.779   4.411   4.677 -0.4693  0.1161 -0.4695
 7417SOL    HW129084   3.827   4.496   4.658 -2.2845  0.8992 -1.6428
 7417SOL    HW229085   3.774   4.397   4.776 -0.3771  1.4905 -0.2668
 7419SOL     OW29086   3.279   0.920   2.150  0.3412 -0.3953  0.0170
 7419SOL    HW129087   3.285   0.984   2.228 -1.4576 -2.2149  1.7042
 7419SOL    HW229088   3.262   0.972   2.066  1.3112  1.5324  0.9697
 7423SOL     OW29089   1.311   4.145   5.513  0.2684  0.5254 -0.4168
 7423SOL    HW129090   1.232   4.162   5.454 -1.7919  0.9102  2.3045
 7423SOL    HW229091   1.344   4.232   5.550  1.2222  0.2542 -0.6206
 7424SOL     OW29092   9.860   7.204   1.728  0.6633  0.7193 -0.1025
 7424SOL    HW129093   9.828   7.262   1.803 -2.2679 -0.1807 -0.6258
 7424SOL    HW229094   9.915   7.129   1.765  0.1096  0.8789  1.0544
 7425SOL     OW29095   3.490   0.686   1.802  0.7000  0.5379  0.7283
 7425SOL    HW129096   3.405   0.678   1.749  1.2481  0.7254 -0.1868
 7425SOL    HW229097   3.470   0.729   1.890 -0.1554  0.6210  0.5004
 7426SOL     OW29098   9.604   6.790   5.548  0.7387  0.1379  0.2999
 7426SOL    HW129099   9.631   6.885   5.564  1.7618 -0.2695  1.1318
 7426SOL    HW229100   9.637   6.733   5.624 -2.6944 -0.3910  1.4825
 7427SOL     OW29101   8.639   8.732   5.626 -0.6370  0.3904 -0.3533
 7427SOL    HW129102   8.587   8.786   5.692 -1.4595 -0.5857 -0.1928
 7427SOL    HW229103   8.590   8.728   5.539  0.1881  1.2223 -0.8693
 7430SOL     OW29104   8.582   4.502   0.448  0.1761  0.3395  0.8914
 7430SOL    HW129105   8.676   4.503   0.413 -0.0665  2.7421  0.2065
 7430SOL    HW229106   8.546   4.595   0.450 -1.7858 -0.4026  2.3157
 7431SOL     OW29107   2.745   2.029   1.574 -0.1833  0.4086  0.3937
 7431SOL    HW129108   2.650   2.007   1.596  0.1697 -0.5674  0.9830
 7431SOL    HW229109   2.749   2.119   1.531 -1.3193  0.6882  0.8415
 7432SOL     OW29110   5.333   2.184   0.932  0.3358 -0.1173 -0.1873
 7432SOL    HW129111   5.309   2.271   0.974 -1.3132 -0.6095 -0.0744
 7432SOL    HW229112   5.430   2.165   0.947  1.2689  2.7240 -2.0637
 7433SOL     OW29113   0.127   9.634   0.161  0.4282  0.4787 -0.2259
 7433SOL    HW129114   0.088   9.629   0.253  0.5555 -1.8387 -0.2678
 7433SOL    HW229115   0.097   9.555   0.108  2.0957  0.6717 -1.5034
 7434SOL     OW29116   2.759   7.135   5.017  0.4860 -0.1114 -0.1197
 7434SOL    HW129117   2.784   7.061   4.955  0.6698  0.5790 -0.8807
 7434SOL    HW229118   2.837   7.160   5.073  0.4511 -0.4232  0.0704
 7435SOL     OW29119   1.225   9.589   4.158 -0.2562  0.0917  0.5787
 7435SOL    HW129120   1.197   9.653   4.086  0.2120  0.0267  0.3387
 7435SOL    HW229121   1.208   9.631   4.247 -1.6206 -0.1602  0.4512
 7438SOL     OW29122   9.580   4.760   3.604 -0.0911  0.0643 -0.1892
 7438SOL    HW129123   9.631   4.761   3.519  0.1699 -0.3293 -0.0374
 7438SOL    HW229124   9.582   4.852   3.645 -0.4108  0.3110 -0.7172
 7439SOL     OW29125   1.135   3.602   0.281 -0.3414  0.1322 -0.1319
 7439SOL    HW129126   1.120   3.525   0.343  0.0644  0.9320  0.9676
 7439SOL    HW229127   1.220   3.588   0.230 -0.4305 -0.2954 -0.1667
 7440SOL     OW29128   4.504   0.770   3.940 -0.0863  0.5232  0.0580
 7440SOL    HW129129   4.454   0.841   3.988  1.1701  0.7183  1.1249
 7440SOL    HW229130   4.584   0.809   3.894  0.4840 -0.1376  0.4587
 7443SOL     OW29131   0.473   3.583   5.386 -0.6969  0.2238 -0.1275
 7443SOL    HW129132   0.549   3.567   5.323  0.8043  2.5119  1.0256
 7443SOL    HW229133   0.484   3.525   5.466 -1.6989 -1.4682 -1.1912
 7444SOL     OW29134   1.098   0.362   5.657 -0.7645  0.4788 -0.3270
 7444SOL    HW129135   1.117   0.458   5.676 -0.6639  0.3121  0.4666
 7444SOL    HW229136   1.002   0.351   5.630 -0.8535  0.7666 -0.1244
 7445SOL     OW29137   8.606   2.839   5.704  0.4610 -0.3331  0.2982
 7445SOL    HW129138   8.648   2.785   5.632 -0.7583 -0.0700 -0.6239
 7445SOL    HW229139   8.508   2.820   5.708  0.2814  0.6676  0.9741
 7446SOL     OW29140   8.014   3.219   3.617  0.2309  0.1276  0.6564
 7446SOL    HW129141   7.916   3.224   3.640  0.1224  1.7032 -0.0629
 7446SOL    HW229142   8.066   3.275   3.682  0.4138  1.0044 -0.2440
 7448SOL     OW29143   0.295   8.342   0.418 -0.0044 -0.4393  0.3367
 7448SOL    HW129144   0.336   8.285   0.347  0.3313  0.0189  0.1602
 7448SOL    HW229145   0.196   8.326   0.420  0.0684 -0.9243  0.1965
 7449SOL     OW29146   2.183   1.649   0.432  0.3911 -1.0481 -0.3321
 7449SOL    HW129147   2.085   1.635   0.448  0.3538  0.5168  0.8409
 7449SOL    HW229148   2.205   1.620   0.339 -1.6526  0.7834 -1.4282
 7450SOL     OW29149   3.643   6.949   0.976 -0.3202  0.0443 -0.3944
 7450SOL    HW129150   3.712   6.958   1.048 -1.7893 -1.8321  1.3181
 7450SOL    HW229151   3.658   6.863   0.927  0.6596  1.3004 -2.3687
 7452SOL     OW29152   3.474   0.859   6.394 -0.3924 -1.0155  0.2063
 7452SOL    HW129153   3.491   0.777   6.449 -0.4671 -0.9976  0.2560
 7452SOL    HW229154   3.485   0.836   6.297  0.2485 -0.9244  0.2505
 7453SOL     OW29155   5.306   9.662   6.450  0.3879 -0.2782  0.5810
 7453SOL    HW129156   5.340   9.589   6.509 -0.6743 -1.1568  0.1421
 7453SOL    HW229157   5.209   9.677   6.468  0.5993  1.0333  0.6629
 7457SOL     OW29158   4.584   2.867   3.526 -0.8730  0.1446 -0.1720
 7457SOL    HW129159   4.588   2.805   3.448 -2.2207  1.3954 -1.2596
 7457SOL    HW229160   4.676   2.898   3.550 -0.2770 -1.5673 -0.1646
 7458SOL     OW29161   2.365   7.253   0.097 -0.7648  0.1104 -0.2725
 7458SOL    HW129162   2.273   7.265   0.135 -0.5804  0.5460  0.0384
 7458SOL    HW229163   2.362   7.266  -0.002 -0.9198  0.7825 -0.1796
 7459SOL     OW29164   1.373   7.085   3.938 -0.2932 -0.1314  0.5465
 7459SOL    HW129165   1.381   6.987   3.917  2.3250 -0.1867  1.6500
 7459SOL    HW229166   1.372   7.098   4.037  1.1955  1.0899  0.4088
 7460SOL     OW29167   5.843   4.496   0.777  0.3246  0.5464  0.6551
 7460SOL    HW129168   5.943   4.492   0.786  0.5084 -2.1750 -1.7174
 7460SOL    HW229169   5.801   4.428   0.837  0.0240  0.0943 -0.0689
 7461SOL     OW29170   2.358   0.152   3.668  0.0111  0.0387 -0.0351
 7461SOL    HW129171   2.356   0.154   3.768 -2.6434 -1.6504  0.0029
 7461SOL    HW229172   2.302   0.226   3.631  0.8551  0.5616 -0.2669
 7463SOL     OW29173   8.877   5.013   3.145  0.8195  0.4430  0.0284
 7463SOL    HW129174   8.960   5.035   3.093  1.9676 -0.7362  1.3234
 7463SOL    HW229175   8.901   4.995   3.240 -0.7587 -1.1038  0.1678
 7464SOL     OW29176   9.267   8.783   3.309  0.0169  0.3543  0.0730
 7464SOL    HW129177   9.253   8.703   3.250 -0.8347 -0.6793  1.6501
 7464SOL    HW229178   9.360   8.817   3.297 -0.3120  0.5274 -2.2977
 7465SOL     OW29179   7.853   1.284   2.443 -0.2336 -0.4393  0.4444
 7465SOL    HW129180   7.777   1.219   2.442 -0.9345  0.3903 -0.4182
 7465SOL    HW229181   7.828   1.363   2.499 -0.7481  0.7052 -1.3654
 7469SOL     OW29182   3.777   4.764   4.949  0.5074 -0.0423  0.0041
 7469SOL    HW129183   3.802   4.834   5.016  2.4430  0.5473 -1.3039
 7469SOL    HW229184   3.705   4.799   4.890  1.2574  0.7444 -0.4573
 7470SOL     OW29185   9.789   6.502   1.334  0.6125  0.3239 -0.3008
 7470SOL    HW129186   9.855   6.494   1.408  0.7391 -0.7629 -0.5214
 7470SOL    HW229187   9.696   6.489   1.371  0.5107  1.8550  0.0087
 7471SOL     OW29188   4.408   6.766   2.011 -0.6016  0.0631  0.3055
 7471SOL    HW129189   4.424   6.751   1.914 -0.3154 -2.0277  0.6358
 7471SOL    HW229190   4.361   6.686   2.049 -1.4774  1.2294  1.7055
 7472SOL     OW29191   5.174   1.596   6.022  0.3933  0.3343  0.0064
 7472SOL    HW129192   5.262   1.551   6.007  1.1916  2.0248 -0.6263
 7472SOL    HW229193   5.180   1.655   6.104  0.5321  2.0340 -1.1922
 7473SOL     OW29194   3.177   8.888   3.445 -0.3639  0.1743 -0.0711
 7473SOL    HW129195   3.199   8.984   3.462 -0.5129  0.1144  0.4575
 7473SOL    HW229196   3.202   8.864   3.351  2.8978 -0.1839  0.8422
 7474SOL     OW29197   9.362   6.599   1.398 -0.0804 -0.4169 -0.0828
 7474SOL    HW129198   9.396   6.693   1.397 -1.0794 -0.0553 -0.4962
 7474SOL    HW229199   9.275   6.594   1.348 -0.4582 -1.4024  0.6533
 7475SOL     OW29200   7.402   9.400   2.215 -0.1653 -0.0859 -0.2148
 7475SOL    HW129201   7.421   9.312   2.257  1.3966  1.1893  1.8769
 7475SOL    HW229202   7.362   9.461   2.283  0.3677  1.3521 -1.1642
 7476SOL     OW29203   1.882   5.521   6.431  0.0720 -0.2345 -0.1600
 7476SOL    HW129204   1.908   5.425   6.433 -0.1005 -0.3233 -1.8329
 7476SOL    HW229205   1.961   5.578   6.452  0.3353 -0.7156  0.1516
 7477SOL     OW29206   6.183   9.217   4.292 -0.2870 -0.2542  0.6040
 7477SOL    HW129207   6.231   9.135   4.260 -1.6528 -0.6819 -0.3779
 7477SOL    HW229208   6.087   9.213   4.264  0.3153  3.2598 -2.4539
 7478SOL     OW29209   4.557   3.952   0.993  0.1089  0.3390  0.5807
 7478SOL    HW129210   4.640   4.009   0.996  0.0769  0.3996  0.3738
 7478SOL    HW229211   4.576   3.870   0.939  0.0690  0.2944  0.6357
 7483SOL     OW29212   3.081   9.790   4.211  1.0139  0.0995  0.5845
 7483SOL    HW129213   3.116   9.713   4.265  2.4926  0.0026 -0.4850
 7483SOL    HW229214   2.982   9.799   4.227  1.0380 -1.2537  1.6545
 7484SOL     OW29215   3.438   7.454   4.706 -0.4055 -0.0039 -0.0144
 7484SOL    HW129216   3.489   7.489   4.628 -0.8131  0.1402 -0.2182
 7484SOL    HW229217   3.474   7.365   4.733  0.9371  0.7619  0.7847
 7485SOL     OW29218   2.857   4.047   2.498  0.6445 -0.1035 -0.1525
 7485SOL    HW129219   2.800   3.999   2.564  1.0318 -0.0784  0.2036
 7485SOL    HW229220   2.870   4.142   2.528  0.0120  0.1790 -0.7710
 7486SOL     OW29221   6.102   8.287   3.808 -0.7125 -0.3888  0.1472
 7486SOL    HW129222   6.031   8.221   3.833 -1.6363  0.3696 -0.4172
 7486SOL    HW229223   6.180   8.239   3.769 -1.3009 -1.1698 -0.0948
 7488SOL     OW29224   6.758   2.451   4.048  0.1925 -0.6474 -0.3150
 7488SOL    HW129225   6.669   2.485   4.017  1.0519  2.6427  0.5956
 7488SOL    HW229226   6.808   2.412   3.971 -0.5603  0.8379 -1.5800
 7489SOL     OW29227   1.547   8.920   1.525 -0.4529 -0.3885  0.1958
 7489SOL    HW129228   1.622   8.924   1.592 -0.3674  0.5938  0.0436
 7489SOL    HW229229   1.462   8.951   1.568 -0.6985 -1.0956  0.2424
 7490SOL     OW29230   4.455   8.467   1.557 -0.2388  0.5906 -0.1636
 7490SOL    HW129231   4.356   8.459   1.547 -0.4338  0.2342  1.8322
 7490SOL    HW229232   4.482   8.438   1.649  1.7434  0.5099 -0.7415
 7491SOL     OW29233   7.774   0.610   2.976 -0.3744  0.4168 -0.0043
 7491SOL    HW129234   7.856   0.600   2.920 -1.1677  0.0685 -1.1228
 7491SOL    HW229235   7.712   0.676   2.934 -1.2608 -0.3197  0.1181
 7492SOL     OW29236   9.197   8.368   0.418 -0.5949  0.4314 -0.0602
 7492SOL    HW129237   9.187   8.394   0.321  1.1583  0.8944 -0.1333
 7492SOL    HW229238   9.241   8.442   0.468  0.1699 -0.5412  0.7234
 7493SOL     OW29239   0.991   9.242   0.618  0.0101  0.0652 -0.1315
 7493SOL    HW129240   0.989   9.304   0.539 -1.8758 -0.1942 -0.3026
 7493SOL    HW229241   1.082   9.201   0.626  0.0278 -0.4688 -2.6232
 7495SOL     OW29242   6.966   2.087   2.414 -0.1417 -0.3941  0.1564
 7495SOL    HW129243   6.958   2.064   2.511 -0.4598 -1.3333 -0.0886
 7495SOL    HW229244   6.876   2.114   2.378  0.5788  3.2792  0.9304
 7496SOL     OW29245   0.507   8.912   5.643  0.1141  0.3209 -0.1554
 7496SOL    HW129246   0.600   8.918   5.678 -0.0463 -1.4940  0.5958
 7496SOL    HW229247   0.442   8.912   5.719 -0.5281  1.6044 -0.6735
 7497SOL     OW29248   1.584   5.945   5.471 -0.5563  0.4579  0.1475
 7497SOL    HW129249   1.628   6.030   5.500 -2.6878  1.2124  1.2649
 7497SOL    HW229250   1.590   5.937   5.371  0.8646  1.2232  0.1593
 7499SOL     OW29251   2.752   7.188   3.585  0.3949  0.0478 -0.2082
 7499SOL    HW129252   2.783   7.258   3.649 -0.2253 -0.4815  0.6888
 7499SOL    HW229253   2.781   7.211   3.492  2.6222  0.0504  0.4699
 7501SOL     OW29254   8.818   0.000   3.313  0.4547  0.4430 -0.0072
 7501SOL    HW129255   8.917   0.007   3.327  0.3160  1.1510  0.6652
 7501SOL    HW229256   8.776   0.089   3.333 -0.3132  0.1450 -0.3090
 7502SOL     OW29257   1.128   5.859   6.455  0.3831  0.1167  0.2751
 7502SOL    HW129258   1.112   5.943   6.404  1.7194  0.6901  0.7792
 7502SOL    HW229259   1.049   5.839   6.513 -0.7490 -0.0362 -1.2943
 7503SOL     OW29260   2.795   9.478   4.846  0.3949 -0.3065  0.1302
 7503SOL    HW129261   2.828   9.423   4.770  1.3967  1.4875 -0.7578
 7503SOL    HW229262   2.871   9.526   4.889 -0.7217  2.1523 -0.5561
 7504SOL     OW29263   3.764   8.833   2.388 -0.0474 -0.2679 -0.0029
 7504SOL    HW129264   3.823   8.808   2.464 -0.4702 -0.3328  0.3029
 7504SOL    HW229265   3.670   8.841   2.419 -0.1030  0.4873 -0.3567
 7505SOL     OW29266   0.206   2.404   2.761 -0.1197  0.0529  0.2887
 7505SOL    HW129267   0.190   2.316   2.806 -0.7713  0.2832  0.5178
 7505SOL    HW229268   0.278   2.454   2.810  0.5146 -0.5114 -0.0677
 7506SOL     OW29269   4.154   8.469   3.577 -0.0332  0.1592 -0.2241
 7506SOL    HW129270   4.111   8.532   3.642 -1.9135  0.5579 -1.8195
 7506SOL    HW229271   4.093   8.392   3.561 -0.3063  0.8360 -2.6790
 7507SOL     OW29272   1.773   2.526   3.214 -0.0936 -0.2614  0.0663
 7507SOL    HW129273   1.675   2.518   3.229  0.1121 -1.5911  0.7691
 7507SOL    HW229274   1.815   2.576   3.289 -0.4423  1.7595 -1.0408
 7508SOL     OW29275   4.869   8.971   5.887 -0.0936 -0.3537 -0.3008
 7508SOL    HW129276   4.811   8.942   5.963  0.8627 -1.8021 -0.1136
 7508SOL    HW229277   4.952   9.014   5.922 -0.9465  1.5791 -0.5717
 7509SOL     OW29278   4.238   1.750   6.452  0.7869  0.0255 -0.4100
 7509SOL    HW129279   4.332   1.757   6.418  1.8195  1.0398  2.4849
 7509SOL    HW229280   4.201   1.842   6.467  0.0992 -0.3877  0.5040
 7510SOL     OW29281   7.343   1.362   1.106 -0.0500 -0.0837 -0.2051
 7510SOL    HW129282   7.289   1.334   1.185 -1.1106  2.0644 -0.1532
 7510SOL    HW229283   7.345   1.462   1.099 -0.8328 -0.2177 -3.4786
 7511SOL     OW29284   3.606   0.931   5.429  0.3226 -0.2612  0.3545
 7511SOL    HW129285   3.559   0.844   5.437  0.1700 -0.0941  1.3586
 7511SOL    HW229286   3.546   1.005   5.460  1.3301 -0.0711  1.8887
 7512SOL     OW29287   0.422   0.438   0.806 -0.2847 -0.0837 -0.0884
 7512SOL    HW129288   0.479   0.462   0.884 -0.3043  0.1381 -0.1428
 7512SOL    HW229289   0.332   0.408   0.838  0.3161 -1.7996  0.0845
 7513SOL     OW29290   3.969   2.401   3.810 -0.0749 -0.3837 -0.1805
 7513SOL    HW129291   3.995   2.478   3.750 -0.9422 -0.8124 -1.1302
 7513SOL    HW229292   4.051   2.359   3.847  0.4143  1.0001  0.3462
 7514SOL     OW29293   5.129   4.021   4.544 -0.0355 -0.2806 -0.7966
 7514SOL    HW129294   5.164   4.045   4.453  1.1025  0.1381 -0.2633
 7514SOL    HW229295   5.156   4.092   4.609 -0.9297 -0.5335 -0.1488
 7516SOL     OW29296   0.349   3.270   3.646 -0.1406 -0.3321 -0.4019
 7516SOL    HW129297   0.289   3.222   3.711  0.4227 -2.1879 -1.2181
 7516SOL    HW229298   0.438   3.225   3.644  0.8064  1.4977 -0.3200
 7519SOL     OW29299   8.706   9.418   2.577  0.3595 -0.1499  0.0946
 7519SOL    HW129300   8.661   9.367   2.650 -1.2797  0.2062 -0.6464
 7519SOL    HW229301   8.755   9.496   2.616 -0.6277  0.1204  0.8151
 7520SOL     OW29302   8.579   7.698   6.284  0.5689  0.2529  0.3753
 7520SOL    HW129303   8.617   7.707   6.192 -0.1785  0.0835  0.0448
 7520SOL    HW229304   8.599   7.780   6.336  1.1339  0.2864  0.1096
 7521SOL     OW29305   3.697   3.080   3.047 -0.1031 -0.6531 -0.3536
 7521SOL    HW129306   3.699   3.172   3.084  0.7861 -0.4664 -0.8629
 7521SOL    HW229307   3.617   3.070   2.986  0.8364  0.3633 -1.7885
 7522SOL     OW29308   4.329   9.037   4.579  0.1381  0.0157  0.1133
 7522SOL    HW129309   4.371   9.033   4.670 -0.0981  0.6223  0.2519
 7522SOL    HW229310   4.233   9.011   4.587  0.1996 -0.2493 -0.0151
 7523SOL     OW29311   3.088   1.256   1.965  0.3200 -0.2440 -0.0267
 7523SOL    HW129312   3.008   1.315   1.955 -0.1829 -1.1056 -1.2644
 7523SOL    HW229313   3.171   1.309   1.949 -0.1435  0.0700 -1.4787
 7524SOL     OW29314   8.667   3.155   1.013 -0.1328  0.3329 -0.3162
 7524SOL    HW129315   8.680   3.098   1.094 -0.0753 -0.6802 -1.0240
 7524SOL    HW229316   8.569   3.166   0.996 -0.2004 -2.3225 -2.0473
 7525SOL     OW29317   3.807   7.914   0.445 -0.9908 -0.5563 -0.2482
 7525SOL    HW129318   3.805   7.876   0.538 -1.1186 -0.5855 -0.2630
 7525SOL    HW229319   3.886   7.974   0.436 -0.9585 -0.5802 -0.1306
 7529SOL     OW29320   6.076   7.422   3.862 -0.4691 -0.4329 -0.2364
 7529SOL    HW129321   6.053   7.381   3.951  0.0096 -1.6891 -0.6738
 7529SOL    HW229322   6.042   7.516   3.859  0.9082  0.1597  1.8768
 7530SOL     OW29323   0.159   8.748   6.152 -0.5012  0.4167 -0.0060
 7530SOL    HW129324   0.175   8.649   6.157  0.5286  0.5760 -0.1670
 7530SOL    HW229325   0.153   8.786   6.244 -0.6440  0.2520  0.0539
 7531SOL     OW29326   2.063   1.579   1.781 -0.2226 -0.3827 -0.3897
 7531SOL    HW129327   1.976   1.565   1.733  0.2181 -1.9780 -0.7498
 7531SOL    HW229328   2.086   1.676   1.780 -1.8942  0.0413 -0.4711
 7532SOL     OW29329   5.161   2.537   5.240  0.3208  0.2311 -0.1471
 7532SOL    HW129330   5.257   2.510   5.236 -0.3730 -2.5270  0.6017
 7532SOL    HW229331   5.103   2.457   5.222 -1.8363  1.9599 -1.1105
 7533SOL     OW29332   6.122   0.147   3.050 -0.5537  0.1375  0.3921
 7533SOL    HW129333   6.040   0.146   2.993 -0.4143 -0.7137  0.2012
 7533SOL    HW229334   6.096   0.151   3.146 -0.8502 -1.5935  0.3884
 7535SOL     OW29335   5.857   1.126   3.222 -0.2338 -0.1486 -0.4531
 7535SOL    HW129336   5.947   1.142   3.261 -0.0352 -1.7891 -0.2209
 7535SOL    HW229337   5.865   1.068   3.141 -0.9991  0.3689 -0.9067
 7536SOL     OW29338   5.322   1.403   5.622 -0.4423  0.6145  0.7400
 7536SOL    HW129339   5.296   1.306   5.619  1.2617  0.1844 -1.3068
 7536SOL    HW229340   5.422   1.410   5.626 -0.5154  2.3032 -0.2197
 7537SOL     OW29341   1.812   6.541   0.021  0.0673  0.0577  0.0329
 7537SOL    HW129342   1.893   6.542   0.079 -0.0527 -1.8096  0.2539
 7537SOL    HW229343   1.787   6.447  -0.001 -2.8002  0.5370  1.0364
 7538SOL     OW29344   3.734   7.213   2.754  0.3034  0.3212 -0.4058
 7538SOL    HW129345   3.716   7.161   2.837  0.0070  0.0657 -0.6306
 7538SOL    HW229346   3.730   7.311   2.774 -4.6947  0.3896 -1.1101
 7539SOL     OW29347   1.220   8.634   3.645  1.1215  0.2108  0.2073
 7539SOL    HW129348   1.206   8.547   3.597  1.3847  0.9149 -1.1655
 7539SOL    HW229349   1.306   8.630   3.696  2.3261  0.4626 -1.7317
 7540SOL     OW29350   4.625   0.199   6.310 -0.2121 -0.4618 -0.4153
 7540SOL    HW129351   4.631   0.297   6.329 -0.5408 -0.1505 -1.8782
 7540SOL    HW229352   4.657   0.148   6.390 -0.4247  0.8252  0.5149
 7541SOL     OW29353   9.096   3.222   6.186 -0.1910  0.4819 -0.1512
 7541SOL    HW129354   9.046   3.272   6.256 -0.4735  0.3909 -0.2885
 7541SOL    HW229355   9.193   3.216   6.212 -0.4507 -0.3004  0.6504
 7542SOL     OW29356   8.219   0.457   1.803 -0.7358 -0.5408 -0.0894
 7542SOL    HW129357   8.120   0.459   1.800 -0.6978  1.1111 -0.7405
 7542SOL    HW229358   8.256   0.515   1.730  0.6970 -0.4234  0.7050
 7543SOL     OW29359   0.589   6.919   5.408  0.0593 -0.2153 -0.0839
 7543SOL    HW129360   0.674   6.927   5.356  1.5869 -0.1886  2.3244
 7543SOL    HW229361   0.608   6.931   5.506 -2.6065 -0.9610  0.5803
 7544SOL     OW29362   2.880   2.229   4.269 -0.6655  0.5444  0.3559
 7544SOL    HW129363   2.813   2.226   4.195  0.0268  1.8901 -0.3463
 7544SOL    HW229364   2.953   2.163   4.251  0.0364  1.5865 -0.7145
 7545SOL     OW29365   4.537   8.787   2.776 -0.0980  0.2005 -0.1892
 7545SOL    HW129366   4.488   8.845   2.711  0.6900 -0.6398 -1.5618
 7545SOL    HW229367   4.606   8.841   2.824 -1.2652  1.0184  0.5829
 7546SOL     OW29368   3.402   4.702   4.735 -0.0332 -0.1357  0.2773
 7546SOL    HW129369   3.475   4.769   4.731 -1.6345  1.6347 -0.1010
 7546SOL    HW229370   3.439   4.610   4.721  2.0001  0.7874 -0.4933
 7547SOL     OW29371   8.308   8.847   2.928  0.3289 -0.0267 -0.5827
 7547SOL    HW129372   8.263   8.936   2.922 -0.4358 -0.5411 -3.4003
 7547SOL    HW229373   8.392   8.848   2.874  1.9883 -0.1205  1.8958
 7548SOL     OW29374   1.113   2.880   5.246  0.2367  0.0114  0.0084
 7548SOL    HW129375   1.106   2.812   5.318  1.9679  0.3523  0.5365
 7548SOL    HW229376   1.030   2.936   5.243  0.7199  0.9348  2.6944
 7549SOL     OW29377   5.108   7.341   2.827  0.4767  0.6990  0.2496
 7549SOL    HW129378   5.088   7.383   2.916  0.6233  0.0987  0.5684
 7549SOL    HW229379   5.065   7.251   2.823  0.5771  0.6734 -0.2405
 7551SOL     OW29380   5.102   0.771   1.389 -0.3894 -0.1844  0.4571
 7551SOL    HW129381   5.047   0.728   1.461 -0.5795  0.8331  0.9259
 7551SOL    HW229382   5.057   0.855   1.358  0.4602  0.1887  0.2222
 7552SOL     OW29383   7.145   8.590   4.322  0.0146  0.6855 -0.3756
 7552SOL    HW129384   7.148   8.492   4.304  0.3249  0.6347 -0.0440
 7552SOL    HW229385   7.121   8.639   4.238  0.3514  0.3654 -0.6586
 7553SOL     OW29386   2.137   1.386   1.098  0.2346 -0.2836 -0.4369
 7553SOL    HW129387   2.076   1.325   1.149 -0.4147  1.1702  0.5942
 7553SOL    HW229388   2.199   1.432   1.162  0.3530  0.5149 -1.1111
 7557SOL     OW29389   0.972   4.932   2.205 -0.0268 -0.3246 -0.3397
 7557SOL    HW129390   0.890   4.970   2.163  0.5788  0.3998 -0.8885
 7557SOL    HW229391   0.953   4.907   2.300 -1.4533 -2.1116 -1.0629
 7558SOL     OW29392   7.207   3.553   0.290  0.0993  0.0036  0.5669
 7558SOL    HW129393   7.156   3.482   0.243  1.7148 -0.2370 -0.8532
 7558SOL    HW229394   7.187   3.642   0.249 -0.6423  0.1624  1.2621
 7559SOL     OW29395   4.354   2.013   3.844 -0.6671  0.2727  0.0878
 7559SOL    HW129396   4.289   2.006   3.921 -1.7413  0.1931 -0.8121
 7559SOL    HW229397   4.343   1.934   3.784 -0.5959  0.8761 -0.7307
 7561SOL     OW29398   6.223   1.748   6.098 -0.3613 -0.1443 -0.1602
 7561SOL    HW129399   6.323   1.741   6.098 -0.3487 -0.0162  1.2829
 7561SOL    HW229400   6.197   1.835   6.057  0.0948 -0.4352 -1.0873
 7563SOL     OW29401   1.996   9.387   4.270 -0.1063  0.4723 -0.1337
 7563SOL    HW129402   2.038   9.387   4.361 -1.2235  1.5473  0.4111
 7563SOL    HW229403   1.896   9.382   4.280 -0.1818 -0.8542 -1.3555
 7564SOL     OW29404   1.218   2.006   5.473  0.6534  0.2821 -0.0025
 7564SOL    HW129405   1.200   1.909   5.490  1.5354 -0.0644 -0.9673
 7564SOL    HW229406   1.209   2.025   5.375  1.7967  0.8958  0.0071
 7565SOL     OW29407   2.419   2.342   5.345  0.0644 -0.1271  0.2550
 7565SOL    HW129408   2.391   2.361   5.251  1.8792  3.5465  0.3776
 7565SOL    HW229409   2.338   2.337   5.404 -0.8765  1.2502 -0.8915
 7566SOL     OW29410   8.795   0.420   2.890 -0.5888 -0.7597 -0.1213
 7566SOL    HW129411   8.739   0.360   2.833  2.0088 -3.2383 -0.2298
 7566SOL    HW229412   8.814   0.374   2.977  1.2603  0.0033 -0.1050
 7567SOL     OW29413   8.229   7.723   6.034  0.0039  0.1489 -0.4487
 7567SOL    HW129414   8.255   7.689   5.944 -0.8957  1.7940 -1.3463
 7567SOL    HW229415   8.309   7.764   6.078  0.7316 -1.7447  0.0210
 7568SOL     OW29416   0.352   0.817   2.525  0.4687 -1.0336 -0.0753
 7568SOL    HW129417   0.416   0.757   2.573 -0.1321  0.2971  2.5295
 7568SOL    HW229418   0.258   0.794   2.552  0.1119 -0.2491 -0.6265
 7569SOL     OW29419   3.344   5.662   1.279  0.0952  0.1754 -0.1222
 7569SOL    HW129420   3.437   5.699   1.283  0.2757 -0.1534 -1.0743
 7569SOL    HW229421   3.326   5.607   1.361  0.8944 -0.0942 -0.1236
 7570SOL     OW29422   5.389   6.079   1.401  0.1698 -0.6398  0.0011
 7570SOL    HW129423   5.463   6.082   1.468 -0.0726 -1.8231  0.3273
 7570SOL    HW229424   5.321   6.149   1.423  2.2612  1.9849 -1.5808
 7572SOL     OW29425   3.605   5.423   2.116 -0.6560 -0.3819 -0.1790
 7572SOL    HW129426   3.635   5.500   2.060  1.1087 -1.5898 -0.9546
 7572SOL    HW229427   3.523   5.382   2.076 -1.8420  1.3021  0.4623
 7573SOL     OW29428   8.653   3.806   5.090 -0.3919  0.1534  0.2925
 7573SOL    HW129429   8.558   3.783   5.067  0.1597 -1.1594 -0.7120
 7573SOL    HW229430   8.702   3.723   5.116  0.8989  0.5911 -0.7019
 7574SOL     OW29431   4.553   8.679   4.822 -0.2194  1.4530 -0.1488
 7574SOL    HW129432   4.505   8.640   4.901  0.7676  2.8571  1.1941
 7574SOL    HW229433   4.578   8.606   4.758  0.7413  0.0253  1.8090
 7575SOL     OW29434   1.677   1.979   1.907 -0.4843 -0.0018 -0.2830
 7575SOL    HW129435   1.597   1.988   1.848 -0.9139  1.6775  0.5267
 7575SOL    HW229436   1.757   2.014   1.859 -0.5510 -0.0376 -0.4221
 7577SOL     OW29437   0.754   4.648   2.012  0.3798  0.2476  0.1329
 7577SOL    HW129438   0.659   4.659   1.984  0.7639  2.0288 -0.5189
 7577SOL    HW229439   0.771   4.552   2.038 -0.8384 -0.6927 -2.4381
 7578SOL     OW29440   3.306   2.645   2.323 -0.3402 -0.2337  0.3123
 7578SOL    HW129441   3.401   2.617   2.340 -0.5535 -0.6056  0.8950
 7578SOL    HW229442   3.306   2.737   2.283  0.1928  0.4306  1.8199
 7579SOL     OW29443   9.012   1.244   5.485  0.3130  0.0584 -0.3475
 7579SOL    HW129444   9.069   1.320   5.455  1.0925 -0.1899  0.5008
 7579SOL    HW229445   8.938   1.278   5.543 -0.3312  0.3629 -1.3320
 7580SOL     OW29446   1.229   1.321   0.323 -0.3967 -0.5889 -0.3237
 7580SOL    HW129447   1.192   1.266   0.397 -1.1340 -0.5475 -0.6619
 7580SOL    HW229448   1.315   1.364   0.353 -0.2860 -1.1987  0.2361
 7581SOL     OW29449   8.984   4.913   2.612 -0.0688 -0.8532 -0.4438
 7581SOL    HW129450   9.007   4.878   2.703 -0.4529 -0.7044 -0.2891
 7581SOL    HW229451   8.907   4.861   2.575 -2.0030  1.1445  0.6408
 7582SOL     OW29452   8.214   3.932   5.606  0.1720  0.4766 -0.2374
 7582SOL    HW129453   8.299   3.881   5.595  0.8262  1.6913 -0.9754
 7582SOL    HW229454   8.142   3.871   5.639  0.8409 -0.9823 -1.4218
 7583SOL     OW29455   2.405   5.123   5.399  0.5785  0.2476 -0.0754
 7583SOL    HW129456   2.431   5.220   5.395  0.0852  0.4327  0.8159
 7583SOL    HW229457   2.464   5.075   5.464  0.8223 -0.0501 -0.5166
 7584SOL     OW29458   7.237   6.605   5.894 -0.6177 -0.0446 -0.3215
 7584SOL    HW129459   7.214   6.537   5.824  3.1102 -0.8183 -0.8592
 7584SOL    HW229460   7.247   6.695   5.850  1.1477 -0.4232 -0.7205
 7586SOL     OW29461   0.399   2.615   5.918 -1.0213  0.0592  0.1552
 7586SOL    HW129462   0.403   2.527   5.870  1.9664  1.1995 -1.7985
 7586SOL    HW229463   0.443   2.606   6.008  0.5885 -0.1338 -0.6277
 7587SOL     OW29464   4.917   5.117   3.780 -0.0412 -0.0324 -0.4204
 7587SOL    HW129465   4.897   5.199   3.834 -1.2257 -0.3613 -0.3413
 7587SOL    HW229466   4.923   5.038   3.841 -0.3115 -0.2328 -0.6546
 7588SOL     OW29467   8.499   8.200   1.888  0.2460 -0.9106 -0.4583
 7588SOL    HW129468   8.514   8.242   1.799  0.1781 -0.4854 -0.2708
 7588SOL    HW229469   8.457   8.110   1.876 -3.5592  0.7874 -0.7300
 7589SOL     OW29470   3.903   7.193   5.149  0.0656  0.3444  0.0312
 7589SOL    HW129471   3.906   7.101   5.189  2.0232 -0.3595 -1.6104
 7589SOL    HW229472   3.835   7.248   5.197 -2.5190 -2.5194 -0.1035
 7590SOL     OW29473   9.854   6.801   4.370 -0.0075 -0.2225 -0.1935
 7590SOL    HW129474   9.827   6.710   4.403  2.0886 -0.6804  0.3333
 7590SOL    HW229475   9.872   6.797   4.272  0.8686 -0.5700 -0.0205
 7591SOL     OW29476   0.133   7.047   4.316 -0.8064 -0.0019  0.3726
 7591SOL    HW129477   0.069   7.009   4.249  0.2906  0.8562 -1.1771
 7591SOL    HW229478   0.081   7.097   4.386 -1.8222  0.8054 -0.9422
 7592SOL     OW29479   7.927   0.078   4.860  0.2714 -0.4472  0.5514
 7592SOL    HW129480   7.844   0.113   4.817 -0.8996 -0.4194  2.7851
 7592SOL    HW229481   7.904  -0.002   4.917  1.8604 -0.7682  0.7580
 7593SOL     OW29482   0.217   2.332   4.503 -0.2004 -0.4805  0.1961
 7593SOL    HW129483   0.194   2.426   4.528 -1.0746 -0.5569 -0.2972
 7593SOL    HW229484   0.166   2.268   4.561 -0.6557 -0.6452 -0.3695
 7595SOL     OW29485   8.929   3.441   0.157  0.4810 -0.5714 -0.0851
 7595SOL    HW129486   9.004   3.487   0.204 -0.2497 -0.0192  0.5502
 7595SOL    HW229487   8.841   3.473   0.194 -0.0979 -0.2135 -1.7407
 7597SOL     OW29488   8.983   5.917   3.240  0.2149  0.2196  0.2962
 7597SOL    HW129489   8.904   5.943   3.296  0.7616 -0.8859  1.5785
 7597SOL    HW229490   8.956   5.919   3.143 -1.9434 -1.8663  0.7854
 7598SOL     OW29491   8.126   6.397   4.276 -0.0057  0.1805 -0.7593
 7598SOL    HW129492   8.164   6.320   4.225  1.2881  0.6680 -0.5751
 7598SOL    HW229493   8.171   6.403   4.366 -2.1709 -0.5956  0.4139
 7599SOL     OW29494   3.787   8.825   3.360  0.1847  0.0057 -0.1423
 7599SOL    HW129495   3.805   8.852   3.265 -0.3763 -2.9547 -1.1693
 7599SOL    HW229496   3.823   8.894   3.422  2.9783  0.7080 -2.4282
 7600SOL     OW29497   6.361   8.095   3.430  0.3480  0.2971  0.2052
 7600SOL    HW129498   6.330   8.106   3.335  2.2573  1.3907 -0.3202
 7600SOL    HW229499   6.373   7.998   3.450 -1.3793 -0.0225 -0.2252
 7601SOL     OW29500   6.179   0.500   1.806 -0.5884 -0.5163  0.4885
 7601SOL    HW129501   6.155   0.441   1.729  0.6650 -0.6447  0.1812
 7601SOL    HW229502   6.100   0.510   1.866 -2.0236  0.7949 -1.5715
 7602SOL     OW29503   9.839   5.447   6.442 -0.1716 -0.3247  0.0587
 7602SOL    HW129504   9.741   5.430   6.456 -0.0391 -2.0627 -0.9827
 7602SOL    HW229505   9.851   5.516   6.370 -0.6343  0.0666  0.3535
 7604SOL     OW29506   0.171   5.162   1.128  0.2180 -0.1859 -0.2500
 7604SOL    HW129507   0.123   5.075   1.123 -1.5386  0.7913 -0.6548
 7604SOL    HW229508   0.235   5.169   1.051 -0.7384 -0.4653 -1.0825
 7605SOL     OW29509   0.804   1.042   4.818 -0.1908  0.0953  0.0151
 7605SOL    HW129510   0.831   1.081   4.906  1.1955  0.6553 -0.6573
 7605SOL    HW229511   0.719   1.086   4.787  0.3704  1.2845  0.1424
 7606SOL     OW29512   7.627   7.845   6.291  0.1099 -0.1957 -0.2434
 7606SOL    HW129513   7.688   7.777   6.331 -0.5849  0.0692  1.3115
 7606SOL    HW229514   7.561   7.875   6.360 -0.3876  1.1316 -1.2725
 7607SOL     OW29515   8.705   9.279   5.791  0.5410 -0.1939  0.4386
 7607SOL    HW129516   8.656   9.237   5.714  1.0512  0.1801 -0.0887
 7607SOL    HW229517   8.643   9.341   5.839  0.8999  1.4247 -1.1275
 7608SOL     OW29518   9.127   8.088   5.598 -0.0534  0.3902 -0.1212
 7608SOL    HW129519   9.037   8.054   5.569 -0.4383  1.4997 -0.2222
 7608SOL    HW229520   9.199   8.039   5.548 -0.6703  1.2145 -1.8283
 7609SOL     OW29521   7.358   6.232   5.679  0.1769 -0.1031  0.4490
 7609SOL    HW129522   7.455   6.217   5.660 -0.0850 -0.1472 -0.8924
 7609SOL    HW229523   7.320   6.150   5.723  0.5202 -0.4478  0.1084
 7612SOL     OW29524   4.142   5.255   0.775 -0.0688  0.5027 -0.1070
 7612SOL    HW129525   4.236   5.270   0.743  0.9412 -1.6887  1.7011
 7612SOL    HW229526   4.131   5.159   0.803 -2.1717  1.3028  1.9342
 7613SOL     OW29527   7.616   0.393   3.001 -0.5147 -0.1021 -0.0601
 7613SOL    HW129528   7.677   0.473   3.001 -0.3908 -0.1957 -0.0596
 7613SOL    HW229529   7.643   0.332   3.075 -1.0995  0.2275  0.4305
 7615SOL     OW29530   9.988   7.276   4.853 -0.2848  0.2002 -0.5197
 7615SOL    HW129531  10.003   7.207   4.782  1.0486  0.8965 -0.9471
 7615SOL    HW229532   9.891   7.297   4.859 -0.6658 -1.4168 -0.6556
 7616SOL     OW29533   7.434   2.233   2.118 -0.2954  0.1370  0.2075
 7616SOL    HW129534   7.491   2.243   2.200  0.6881  1.3227 -0.5801
 7616SOL    HW229535   7.381   2.149   2.124  2.1532 -1.4576  0.6315
 7617SOL     OW29536   4.636   7.597   1.707 -0.2686 -0.5243 -0.2520
 7617SOL    HW129537   4.648   7.555   1.617 -0.5960  0.2965 -0.6814
 7617SOL    HW229538   4.540   7.590   1.734 -0.7920  1.9295 -1.3292
 7619SOL     OW29539   5.211   1.674   3.622  0.1433 -0.3377 -0.4396
 7619SOL    HW129540   5.279   1.697   3.553  2.1223  3.0122  2.4631
 7619SOL    HW229541   5.248   1.603   3.683 -0.4637 -1.2313 -1.1104
 7620SOL     OW29542   0.746   5.175   1.192 -0.1789 -0.0273 -0.2413
 7620SOL    HW129543   0.808   5.143   1.120 -0.1332 -0.1901 -0.1292
 7620SOL    HW229544   0.672   5.229   1.151  0.1049  0.2686 -0.3624
 7621SOL     OW29545   2.528   4.729   6.090 -0.0611  0.6470 -0.0987
 7621SOL    HW129546   2.610   4.780   6.065  0.2955 -0.7307 -1.8300
 7621SOL    HW229547   2.539   4.633   6.063 -0.9291 -0.2664  2.6142
 7622SOL     OW29548   0.155   7.484   2.455 -0.1974  0.1818 -0.0827
 7622SOL    HW129549   0.221   7.557   2.436 -0.2648 -0.2751 -2.2915
 7622SOL    HW229550   0.064   7.524   2.466 -0.5087  0.3491 -2.8902
 7623SOL     OW29551   9.461   7.794   4.806  0.0198  0.1995  0.3505
 7623SOL    HW129552   9.467   7.808   4.905 -3.7322 -1.0507  0.8273
 7623SOL    HW229553   9.487   7.700   4.785  0.8958  0.4896  0.1072
 7624SOL     OW29554   2.809   3.810   6.433 -0.0776 -0.3013  0.2655
 7624SOL    HW129555   2.724   3.771   6.469 -0.4814  1.3965  1.2122
 7624SOL    HW229556   2.857   3.857   6.507  1.0174 -0.0861 -0.5748
 7625SOL     OW29557   9.201   0.946   6.334 -0.4919  0.3567 -0.0833
 7625SOL    HW129558   9.223   1.039   6.306 -0.2462  0.1001 -0.7364
 7625SOL    HW229559   9.285   0.894   6.349 -0.6342  0.0791 -0.2475
 7626SOL     OW29560   4.011   2.253   5.148 -0.4417  0.2551  0.0083
 7626SOL    HW129561   3.926   2.208   5.175 -0.4119  1.0410  1.4790
 7626SOL    HW229562   4.088   2.207   5.190 -0.1053 -0.5793 -1.4891
 7627SOL     OW29563   0.192   7.406   4.247 -0.3188  0.6382  0.2808
 7627SOL    HW129564   0.134   7.380   4.325  1.5354 -0.5722  1.2830
 7627SOL    HW229565   0.273   7.347   4.244  0.4548  1.7569 -1.5940
 7628SOL     OW29566   5.747   8.857   4.713 -0.0934 -0.7728 -0.0356
 7628SOL    HW129567   5.841   8.890   4.699 -0.1752 -0.6022 -0.1860
 7628SOL    HW229568   5.748   8.758   4.724  0.0205 -0.8586 -0.8127
 7630SOL     OW29569   8.067   4.198   4.627 -0.2173  0.2610 -0.0983
 7630SOL    HW129570   8.091   4.278   4.572 -0.4353  0.0248 -0.5378
 7630SOL    HW229571   8.070   4.116   4.570 -0.0209 -0.0432  0.3446
 7631SOL     OW29572   6.324   1.140   2.255  0.3391 -0.0989  0.6458
 7631SOL    HW129573   6.234   1.113   2.221  0.0911  0.9571  0.4602
 7631SOL    HW229574   6.387   1.062   2.248 -0.3403 -0.5908 -0.0034
 7632SOL     OW29575   2.175   1.083   2.680 -0.1444  0.0720 -0.6780
 7632SOL    HW129576   2.162   1.030   2.597  0.5640 -0.5851 -0.3748
 7632SOL    HW229577   2.181   1.181   2.657  0.6293 -0.1574 -1.4607
 7633SOL     OW29578   2.361   5.157   0.993 -0.1811  0.3334  0.3376
 7633SOL    HW129579   2.412   5.242   1.008  0.6102 -0.0809  0.0017
 7633SOL    HW229580   2.270   5.166   1.034  0.9373  0.2670  2.9542
 7634SOL     OW29581   9.851   3.836   1.031  0.0154 -0.0203  0.6001
 7634SOL    HW129582   9.869   3.743   0.998  0.9611  0.3301  0.1250
 7634SOL    HW229583   9.794   3.831   1.113 -0.5469 -0.9860  0.1576
 7638SOL     OW29584   3.682   9.235   0.171 -0.1673 -0.2212  0.2255
 7638SOL    HW129585   3.615   9.256   0.242 -0.0913  0.0637  0.2150
 7638SOL    HW229586   3.651   9.273   0.083 -0.0056 -0.1071  0.2167
 7639SOL     OW29587   7.944   8.130   3.640  0.6374  0.8069  0.0180
 7639SOL    HW129588   8.006   8.193   3.593 -0.9134  1.4373 -1.2075
 7639SOL    HW229589   7.864   8.180   3.673  0.3232 -0.1725  0.7706
 7640SOL     OW29590   0.918   6.730   0.648 -0.1761 -0.1429  0.0941
 7640SOL    HW129591   0.953   6.815   0.608 -1.3346 -0.2660 -1.2428
 7640SOL    HW229592   0.886   6.748   0.741  0.4034  0.6824  0.1429
 7642SOL     OW29593   1.467   7.969   6.177 -0.3777 -0.1169 -0.3766
 7642SOL    HW129594   1.493   7.886   6.227 -0.0403  0.5910  0.6374
 7642SOL    HW229595   1.406   8.024   6.235  0.6517  1.0989 -0.4331
 7643SOL     OW29596   1.164   8.017   5.313 -0.4619  0.0980 -0.1542
 7643SOL    HW129597   1.221   8.097   5.294  1.8163 -1.4622 -0.2046
 7643SOL    HW229598   1.113   7.992   5.231 -1.6557  1.8169  0.0355
 7644SOL     OW29599   2.047   8.979   1.609  0.2971 -0.6880  0.1531
 7644SOL    HW129600   2.121   9.043   1.591  1.0648 -1.4275  0.6147
 7644SOL    HW229601   2.017   8.988   1.704  0.2487 -0.8396  0.1530
 7645SOL     OW29602   4.506   1.150   0.765 -0.4318 -0.0380 -0.1954
 7645SOL    HW129603   4.581   1.157   0.700  0.5159  2.0707  1.0926
 7645SOL    HW229604   4.424   1.193   0.728 -0.5484 -0.8333 -0.8877
 7646SOL     OW29605   4.596   9.776   3.800 -0.4694 -0.2965  0.2130
 7646SOL    HW129606   4.506   9.819   3.805 -0.1472  0.2212  1.9884
 7646SOL    HW229607   4.642   9.785   3.889  0.9699 -1.3362 -0.4091
 7647SOL     OW29608   4.441   4.623   4.168 -0.1394 -0.2783 -0.3197
 7647SOL    HW129609   4.480   4.596   4.256 -0.3367 -0.9461 -0.4302
 7647SOL    HW229610   4.343   4.643   4.180 -0.0146  0.3020 -0.2574
 7648SOL     OW29611   7.837   0.257   0.114  0.0686  0.9241  0.1900
 7648SOL    HW129612   7.892   0.319   0.058  0.5821  0.9072  0.6712
 7648SOL    HW229613   7.764   0.218   0.059  1.1201  0.2050 -0.7142
 7649SOL     OW29614   1.296   2.691   1.283  0.7105  0.0172  0.5008
 7649SOL    HW129615   1.245   2.604   1.287  0.2099  0.3656  1.7872
 7649SOL    HW229616   1.252   2.758   1.343  3.2449  0.0381  2.3995
 7650SOL     OW29617   6.472   0.214   4.643 -1.2410  0.0843 -0.0863
 7650SOL    HW129618   6.475   0.114   4.638 -0.5609  0.0735  0.4611
 7650SOL    HW229619   6.377   0.244   4.640 -1.4705 -0.5992  0.1210
 7652SOL     OW29620   3.435   0.935   2.815 -0.4218  0.3513  0.3536
 7652SOL    HW129621   3.535   0.927   2.805 -0.5107 -0.9737  0.4935
 7652SOL    HW229622   3.410   1.032   2.819  1.0608  0.6832  2.3433
 7653SOL     OW29623   4.649   1.982   2.325 -0.4199  0.7092  0.2731
 7653SOL    HW129624   4.658   1.980   2.226  0.5809  1.3619  0.3463
 7653SOL    HW229625   4.651   1.888   2.361  0.9028  0.5554 -0.1801
 7654SOL     OW29626   0.369   4.804   6.417  0.1844  0.2424  0.4335
 7654SOL    HW129627   0.317   4.890   6.424 -0.0004  0.0317  1.8372
 7654SOL    HW229628   0.376   4.763   6.508  1.5934 -0.4609  0.0078
 7655SOL     OW29629   2.245   3.221   0.884 -0.1131  0.3174  0.0859
 7655SOL    HW129630   2.304   3.268   0.949  2.7285 -0.3281 -1.9038
 7655SOL    HW229631   2.229   3.280   0.804 -1.4061  0.1274  0.1947
 7656SOL     OW29632   6.731   3.084   0.800 -0.2120 -0.0136  0.2023
 7656SOL    HW129633   6.689   3.093   0.891  0.7324  0.1138  0.6338
 7656SOL    HW229634   6.789   3.003   0.799  0.8990  0.7709  0.1645
 7657SOL     OW29635   5.669   7.676   2.971  0.4095  0.1687 -0.2601
 7657SOL    HW129636   5.642   7.599   3.028  1.9882 -0.2119 -0.0062
 7657SOL    HW229637   5.661   7.650   2.874 -0.2198  0.1089 -0.1973
 7658SOL     OW29638   3.791   2.542   3.074  0.2340 -0.4222 -0.5457
 7658SOL    HW129639   3.882   2.574   3.098  0.1325  0.3911 -1.2052
 7658SOL    HW229640   3.723   2.589   3.130  0.2376 -1.2444  0.1506
 7660SOL     OW29641   6.680   5.258   1.523  0.5410  0.7584 -0.8550
 7660SOL    HW129642   6.640   5.344   1.554 -0.0843  0.1942 -0.0848
 7660SOL    HW229643   6.617   5.183   1.544  1.3209  0.0519 -1.0416
 7661SOL     OW29644   4.810   9.730   4.597 -1.1451 -0.1950 -0.1200
 7661SOL    HW129645   4.832   9.820   4.636  2.3304 -1.4929  1.1650
 7661SOL    HW229646   4.739   9.686   4.652 -1.7786  1.1377  0.1416
 7662SOL     OW29647   9.962   2.434   0.754  0.3080  0.2677  0.0406
 7662SOL    HW129648   9.911   2.518   0.769  0.4035 -0.1187  2.6825
 7662SOL    HW229649  10.060   2.454   0.752  0.2465  0.4784 -1.2950
 7664SOL     OW29650   1.801   7.038   5.597 -0.3446  0.7637 -0.3362
 7664SOL    HW129651   1.737   7.020   5.672  0.8517 -1.4044  0.2379
 7664SOL    HW229652   1.813   6.954   5.543  2.3741  0.9532 -0.1008
 7665SOL     OW29653   9.345   4.669   4.146 -0.0197  0.3731 -0.2484
 7665SOL    HW129654   9.306   4.605   4.079  0.1257 -0.4414  0.4242
 7665SOL    HW229655   9.438   4.639   4.169 -0.5881 -0.1809  1.3755
 7666SOL     OW29656   7.878   8.499   2.668 -0.0469  0.3578  0.6793
 7666SOL    HW129657   7.941   8.568   2.632 -0.1015  0.6941  1.2169
 7666SOL    HW229658   7.800   8.544   2.711  1.1352  0.0111  3.2376
 7667SOL     OW29659   2.716   8.130   0.273 -0.3121  0.0025  0.0693
 7667SOL    HW129660   2.706   8.224   0.305  2.0351  1.0308 -1.9809
 7667SOL    HW229661   2.779   8.080   0.333  0.7845  0.6557 -0.5244
 7669SOL     OW29662   7.549   2.579   2.979 -0.5702 -0.8337 -0.0138
 7669SOL    HW129663   7.600   2.541   2.902 -1.3199  0.0531 -0.9682
 7669SOL    HW229664   7.494   2.507   3.021  0.3084 -1.4578  0.0844
 7670SOL     OW29665   1.126   9.299   5.895  0.4239 -0.0389 -0.2350
 7670SOL    HW129666   1.202   9.342   5.847  1.3528  0.7248  1.8919
 7670SOL    HW229667   1.049   9.363   5.899  0.6769  0.2422  0.1304
 7671SOL     OW29668   6.991   2.022   1.178  0.3167  0.0033 -0.1396
 7671SOL    HW129669   7.010   1.997   1.083  0.5155  1.9041 -0.6205
 7671SOL    HW229670   6.893   2.035   1.190  0.2944 -0.2143 -0.0822
 7672SOL     OW29671   4.135   1.777   3.976 -0.1831 -0.1326 -0.4279
 7672SOL    HW129672   4.099   1.845   3.912  1.3246  0.2171 -0.9224
 7672SOL    HW229673   4.235   1.776   3.971 -0.1593 -1.9782 -0.0007
 7673SOL     OW29674   3.587   9.264   3.145 -0.2292  0.2342  0.1383
 7673SOL    HW129675   3.683   9.275   3.171  0.2772  0.0068 -1.5608
 7673SOL    HW229676   3.538   9.220   3.219  1.2469 -0.7292  0.5721
 7675SOL     OW29677   2.033   7.161   4.076  0.6907  0.0660  0.8490
 7675SOL    HW129678   1.966   7.217   4.028  1.4060  1.6405  1.6232
 7675SOL    HW229679   1.993   7.072   4.098  0.0198 -0.2956 -1.7023
 7676SOL     OW29680   0.776   5.410   1.550  0.0350  0.1610 -0.3348
 7676SOL    HW129681   0.692   5.458   1.573 -0.2292 -0.5739  0.2620
 7676SOL    HW229682   0.768   5.314   1.577  0.0351 -0.5575 -2.7272
 7678SOL     OW29683   2.893   1.517   4.218 -0.3385  0.1956 -0.1866
 7678SOL    HW129684   2.803   1.559   4.233 -0.7329 -1.0501  1.0550
 7678SOL    HW229685   2.912   1.453   4.292  1.6978  0.6374 -0.3146
 7679SOL     OW29686   2.709   7.892   2.335 -0.1614  0.0594 -0.2725
 7679SOL    HW129687   2.638   7.849   2.279 -0.7271  0.9271 -0.2330
 7679SOL    HW229688   2.693   7.869   2.431 -1.3065  1.5008 -0.0966
 7680SOL     OW29689   0.364   4.988   1.007 -0.7427 -0.6006  0.1982
 7680SOL    HW129690   0.341   5.039   0.924  1.2530 -0.2784 -0.1854
 7680SOL    HW229691   0.419   4.908   0.983 -1.0026 -1.0563  1.1164
 7681SOL     OW29692   4.625   5.683   0.131 -0.0732  0.8819 -0.8975
 7681SOL    HW129693   4.604   5.659   0.037  1.3468  1.2922 -1.3327
 7681SOL    HW229694   4.718   5.652   0.154 -0.2374  1.1711  0.2148
 7684SOL     OW29695   2.637   6.269   1.701 -0.0957  0.0706  0.3760
 7684SOL    HW129696   2.570   6.267   1.627  0.7514 -1.8605 -0.3385
 7684SOL    HW229697   2.595   6.311   1.782 -1.8501 -0.1858 -0.3835
 7685SOL     OW29698   2.914   0.037   2.135  0.5379 -0.2622 -0.2473
 7685SOL    HW129699   2.829   0.013   2.089 -0.3355  1.2769  0.5152
 7685SOL    HW229700   2.962   0.107   2.082  1.1618 -0.8570 -0.4834
 7686SOL     OW29701   0.118   3.734   1.191 -1.0577  0.2904  0.2830
 7686SOL    HW129702   0.075   3.663   1.246 -1.5899  0.0161 -0.4804
 7686SOL    HW229703   0.055   3.765   1.121 -0.5838  1.0398  0.1755
 7687SOL     OW29704   7.925   0.771   0.496 -0.3514  0.6641  0.0934
 7687SOL    HW129705   7.890   0.824   0.418 -0.3664  0.1076 -0.2836
 7687SOL    HW229706   7.911   0.673   0.478 -0.9485  0.5629  1.0831
 7688SOL     OW29707   2.494   6.024   0.298 -0.2666 -0.4355  0.4033
 7688SOL    HW129708   2.522   5.933   0.268  1.8400 -0.2207  1.6178
 7688SOL    HW229709   2.395   6.025   0.312 -0.3695 -2.4229 -0.0418
 7689SOL     OW29710   7.668   7.202   2.266 -0.1330 -0.6378 -0.3769
 7689SOL    HW129711   7.724   7.180   2.186  0.8142 -1.9278  0.6115
 7689SOL    HW229712   7.615   7.285   2.248 -0.8678 -1.5718 -2.8064
 7691SOL     OW29713   9.338   5.533   1.233 -0.0679 -0.4465  0.5219
 7691SOL    HW129714   9.315   5.601   1.302 -3.8069 -0.3554 -0.6768
 7691SOL    HW229715   9.381   5.577   1.155 -0.1677  0.1844  0.8241
 7692SOL     OW29716   1.177   1.428   1.795  0.1336 -0.0813 -0.0148
 7692SOL    HW129717   1.079   1.435   1.812 -0.2113  1.1394 -2.3098
 7692SOL    HW229718   1.193   1.419   1.696  2.3239 -0.1448  0.3266
 7695SOL     OW29719   1.222   0.412   0.704  0.2966 -0.0278 -0.2397
 7695SOL    HW129720   1.180   0.468   0.633  1.6601  1.1383 -0.1553
 7695SOL    HW229721   1.152   0.357   0.750 -1.3052  2.7291  0.7017
 7696SOL     OW29722   1.928   8.074   6.442  0.5236 -0.2957  0.2643
 7696SOL    HW129723   1.870   8.141   6.489  1.3932  0.1514  0.7034
 7696SOL    HW229724   2.002   8.046   6.502  1.5509  0.1516 -0.7670
 7698SOL     OW29725   3.328   6.862   1.373  0.4704 -0.5215  0.1353
 7698SOL    HW129726   3.315   6.937   1.309 -0.9029 -1.0150 -0.1900
 7698SOL    HW229727   3.264   6.788   1.351  1.0690 -1.3454  1.1009
 7699SOL     OW29728   2.421   3.569   0.901  0.6848 -0.1293  0.3014
 7699SOL    HW129729   2.496   3.588   0.964  1.0219 -1.1414  0.2105
 7699SOL    HW229730   2.441   3.487   0.848  1.3185  1.7807 -2.5462
 7700SOL     OW29731   1.361   6.572   5.022 -0.1721 -0.1751  0.0346
 7700SOL    HW129732   1.334   6.513   4.946  0.1794  0.1530 -0.3475
 7700SOL    HW229733   1.281   6.622   5.056 -0.1656  0.3650 -0.7206
 7701SOL     OW29734   4.892   4.958   1.998  0.6084 -0.9344 -0.6819
 7701SOL    HW129735   4.825   5.018   1.953  0.3820  0.5828  1.6322
 7701SOL    HW229736   4.966   4.938   1.935 -1.1122 -1.1798 -2.6979
 7702SOL     OW29737   1.110   5.862   3.586 -0.1422  0.0992 -0.1122
 7702SOL    HW129738   1.114   5.956   3.619  0.1926  0.1154 -0.2001
 7702SOL    HW229739   1.026   5.849   3.533 -0.6569  0.0887  0.6837
 7703SOL     OW29740   3.480   7.125   4.529 -0.0233 -0.4109  0.2714
 7703SOL    HW129741   3.537   7.106   4.609  1.9328 -2.9268 -1.6228
 7703SOL    HW229742   3.539   7.134   4.448 -2.0590  0.7119 -1.1318
 7704SOL     OW29743   9.978   7.134   4.003 -0.1025 -0.3726  0.2557
 7704SOL    HW129744  10.071   7.119   3.970 -0.3839  1.0752 -1.2388
 7704SOL    HW229745   9.963   7.232   4.018 -0.8252 -0.7488  2.2375
 7705SOL     OW29746   4.699   9.863   3.072 -0.6391  0.2247  0.0725
 7705SOL    HW129747   4.735   9.935   3.131 -0.7909  0.0412  0.3873
 7705SOL    HW229748   4.621   9.819   3.116  0.4905 -1.2644  0.6092
 7706SOL     OW29749   8.927   2.503   2.895 -0.1048  0.1991  0.4343
 7706SOL    HW129750   8.925   2.482   2.797 -0.8535  0.1207  0.4570
 7706SOL    HW229751   8.931   2.602   2.908 -2.8003  0.3713  0.2981
 7707SOL     OW29752   4.694   7.671   2.247 -0.7200 -0.3150  0.2293
 7707SOL    HW129753   4.719   7.762   2.281 -2.3847 -0.5372  2.0785
 7707SOL    HW229754   4.775   7.612   2.248 -0.6856 -0.3251  3.8665
 7708SOL     OW29755   5.475   5.036   1.965 -0.2884  0.0510 -0.3577
 7708SOL    HW129756   5.558   5.071   2.007 -0.8293 -0.1655  0.8999
 7708SOL    HW229757   5.406   5.109   1.960 -0.1329  0.1492 -1.1135
 7709SOL     OW29758   9.357   7.321   6.409  0.4552 -0.5674  0.1421
 7709SOL    HW129759   9.415   7.302   6.330  0.1741 -0.8705  0.0059
 7709SOL    HW229760   9.414   7.342   6.489  0.8467 -4.4953  0.9695
 7710SOL     OW29761   8.892   8.476   0.708  0.0870  0.0357  0.3468
 7710SOL    HW129762   8.822   8.511   0.645 -0.3270 -0.4257  0.5477
 7710SOL    HW229763   8.934   8.395   0.669  0.4608  0.2740  0.2573
 7712SOL     OW29764   7.077   6.000   6.340  0.2082 -0.1070 -0.2218
 7712SOL    HW129765   7.141   5.975   6.414  0.6990 -0.5333 -0.7882
 7712SOL    HW229766   7.055   6.098   6.348  1.8826  0.3325 -0.7350
 7713SOL     OW29767   4.053   4.315   4.193 -0.6188  0.1126  0.0292
 7713SOL    HW129768   4.099   4.375   4.127 -1.9319 -1.3736 -2.3015
 7713SOL    HW229769   4.086   4.221   4.181 -0.6001 -0.1248  1.7908
 7714SOL     OW29770   1.486   3.772   0.966 -0.1791 -0.0403 -0.2110
 7714SOL    HW129771   1.563   3.833   0.949  0.6494 -0.7565  0.9122
 7714SOL    HW229772   1.495   3.732   1.057 -1.6366 -0.4852 -0.2561
 7715SOL     OW29773   8.727   7.531   1.679 -0.1647 -0.0992  0.6757
 7715SOL    HW129774   8.643   7.532   1.732 -0.4694 -0.3497  0.1984
 7715SOL    HW229775   8.707   7.557   1.584  0.4604  0.8744  0.8108
 7716SOL     OW29776   7.892   5.941   0.188 -0.2361 -0.2308  0.2899
 7716SOL    HW129777   7.798   5.965   0.163  0.5888  2.8312 -0.1262
 7716SOL    HW229778   7.936   5.895   0.111 -1.1378 -0.9956  0.2160
 7717SOL     OW29779   8.167   3.472   3.512  0.4108  0.2750  0.1139
 7717SOL    HW129780   8.159   3.491   3.610  1.6873 -0.4337  0.3599
 7717SOL    HW229781   8.262   3.483   3.483 -0.0101  0.8174 -1.1321
 7718SOL     OW29782   6.139   0.141   5.508  0.0759  0.6559  0.0680
 7718SOL    HW129783   6.118   0.168   5.414 -0.4137  2.0414  0.5641
 7718SOL    HW229784   6.231   0.101   5.511 -1.3624 -2.9027 -1.6299
 7719SOL     OW29785   7.863   5.648   3.031  0.1498  0.3463  0.4552
 7719SOL    HW129786   7.928   5.694   3.092  0.4218  0.1433  0.3185
 7719SOL    HW229787   7.841   5.558   3.068 -1.1690  0.9808  1.2563
 7721SOL     OW29788   7.615   4.779   2.729 -0.0901  0.2264  0.1103
 7721SOL    HW129789   7.673   4.699   2.739  0.9796  0.9183 -0.4408
 7721SOL    HW229790   7.615   4.832   2.813 -0.6471 -0.2465  0.4107
 7722SOL     OW29791   0.083   2.168   0.396 -0.2595 -0.0205 -0.6603
 7722SOL    HW129792   0.142   2.102   0.443 -1.3055 -1.7307 -1.6668
 7722SOL    HW229793   0.139   2.233   0.345  0.8060 -0.0892  0.4155
 7724SOL     OW29794   2.442   0.912   4.414  0.5929 -0.3128  0.1280
 7724SOL    HW129795   2.352   0.912   4.458  1.3660  2.3729  1.8666
 7724SOL    HW229796   2.439   0.968   4.331  0.5780 -0.5697 -0.0472
 7725SOL     OW29797   5.886   2.268   4.125 -0.6650  0.7146  0.3882
 7725SOL    HW129798   5.971   2.215   4.128 -0.9154  0.3394  1.0584
 7725SOL    HW229799   5.857   2.289   4.219 -0.3684  2.3668  0.1205
 7726SOL     OW29800   9.566   6.267   3.956 -0.2235 -0.4666  0.2769
 7726SOL    HW129801   9.611   6.345   3.912 -0.6648  0.0409  0.7112
 7726SOL    HW229802   9.469   6.288   3.968 -0.1741 -0.7447  1.1717
 7727SOL     OW29803   8.860   1.392   6.406 -0.7258  0.4651 -0.1983
 7727SOL    HW129804   8.860   1.292   6.399 -3.0531  0.3261  1.0864
 7727SOL    HW229805   8.803   1.430   6.332 -1.5823  0.6976  0.5722
 7728SOL     OW29806   4.607   0.510   4.563 -0.2498 -0.6008  0.5600
 7728SOL    HW129807   4.588   0.607   4.551 -1.2649 -0.7388  0.9883
 7728SOL    HW229808   4.643   0.472   4.478 -0.2119  0.0648  0.2760
 7729SOL     OW29809   0.583   4.071   2.860 -0.0828 -0.3637  0.3724
 7729SOL    HW129810   0.541   4.111   2.778 -1.8687 -1.1440  0.8850
 7729SOL    HW229811   0.616   3.980   2.839 -0.1512 -0.3953  0.4014
 7731SOL     OW29812   7.189   0.052   3.586 -0.2555  0.4090  0.4378
 7731SOL    HW129813   7.098   0.030   3.621 -0.3837  0.7127  0.2990
 7731SOL    HW229814   7.233   0.116   3.648  0.0873 -0.1788  0.8026
 7732SOL     OW29815   1.364   1.225   2.750  0.1043 -0.1869 -0.1183
 7732SOL    HW129816   1.281   1.245   2.698 -0.7059 -0.2589  1.1141
 7732SOL    HW229817   1.405   1.310   2.783  1.5089 -0.0248 -2.1770
 7734SOL     OW29818   2.049   3.678   4.580 -0.4921 -0.1795  0.8601
 7734SOL    HW129819   2.139   3.711   4.609 -0.2966 -1.5296  1.8100
 7734SOL    HW229820   1.983   3.691   4.655 -1.1756  1.1008  0.0579
 7735SOL     OW29821   2.539   6.086   2.864 -0.6234 -0.2518 -0.1000
 7735SOL    HW129822   2.597   6.144   2.922  0.6494 -0.7371 -0.8582
 7735SOL    HW229823   2.590   6.004   2.838 -1.8094 -0.8975 -0.4441
 7736SOL     OW29824   4.231   9.487   2.839  0.2934  0.1408 -0.1576
 7736SOL    HW129825   4.197   9.400   2.802 -0.9485 -0.1125  1.5203
 7736SOL    HW229826   4.182   9.563   2.796  0.4579 -0.0481 -0.6831
 7737SOL     OW29827   7.804   9.925   2.902 -0.0336  0.6210  0.1653
 7737SOL    HW129828   7.864   9.875   2.839 -1.4327 -0.2217 -0.5458
 7737SOL    HW229829   7.847   9.932   2.992  0.4318 -1.4474  0.1366
 7738SOL     OW29830   8.921   1.928   0.931  0.6161  0.4958 -0.0337
 7738SOL    HW129831   8.828   1.964   0.939  0.2023 -0.5891  0.1512
 7738SOL    HW229832   8.984   2.002   0.908 -0.0802  1.4878  1.1693
 7739SOL     OW29833   2.931   4.629   3.607 -0.4878  0.2242  0.2542
 7739SOL    HW129834   2.867   4.647   3.532  0.2489  0.7153 -0.2677
 7739SOL    HW229835   2.902   4.548   3.658 -0.4879 -0.6712 -1.1420
 7740SOL     OW29836   8.481   6.922   1.663 -0.2168 -0.3267 -0.1763
 7740SOL    HW129837   8.393   6.894   1.625 -0.3039 -0.6560  0.2550
 7740SOL    HW229838   8.490   6.883   1.755 -1.0527  2.4226  1.1009
 7741SOL     OW29839   8.538   4.046   3.045  0.6734 -0.7824  0.0291
 7741SOL    HW129840   8.591   3.971   3.004  0.4315 -1.1918  0.4587
 7741SOL    HW229841   8.538   4.037   3.145  1.8898  0.6407  0.1698
 7744SOL     OW29842   1.586   3.633   4.511  0.3047 -0.1562  0.1488
 7744SOL    HW129843   1.503   3.643   4.456  0.4634  0.8449  0.0779
 7744SOL    HW229844   1.649   3.571   4.465 -0.0217 -0.1950 -0.2493
 7746SOL     OW29845   3.651   8.982   4.804 -0.0461 -0.2542  0.4318
 7746SOL    HW129846   3.586   8.911   4.777 -1.0976  1.0125 -0.4468
 7746SOL    HW229847   3.711   9.003   4.727  0.2859 -0.2263  0.6982
 7747SOL     OW29848   8.857   4.977   3.443  0.0596 -0.1339  0.0550
 7747SOL    HW129849   8.759   4.962   3.448  0.1592 -0.6299  0.5007
 7747SOL    HW229850   8.904   4.911   3.501  0.7097 -0.5122 -0.8868
 7748SOL     OW29851   1.084   3.831   1.798  0.9054 -0.1058  0.4073
 7748SOL    HW129852   1.048   3.913   1.841 -0.4926 -0.2625 -0.4276
 7748SOL    HW229853   1.182   3.843   1.778  0.8656  1.0741  0.9124
 7750SOL     OW29854   3.800   6.780   4.923 -0.2465 -0.2524 -0.3766
 7750SOL    HW129855   3.808   6.760   4.825  0.1555  0.0983 -0.4178
 7750SOL    HW229856   3.886   6.819   4.956 -0.3146 -0.5426  0.1590
 7751SOL     OW29857   0.073   2.508   6.294  0.0178 -0.3134 -0.1212
 7751SOL    HW129858  -0.015   2.554   6.290  0.1195 -0.1358 -0.2790
 7751SOL    HW229859   0.127   2.531   6.214  0.7043  0.5893  0.5930
 7753SOL     OW29860   3.099   5.705   3.188  0.7961  0.4607  0.1540
 7753SOL    HW129861   3.074   5.616   3.227  0.7683  0.9376  1.2353
 7753SOL    HW229862   3.094   5.775   3.259  1.0439  1.2905 -0.6421
 7754SOL     OW29863   4.110   9.674   5.117 -0.7762  0.0507  0.0452
 7754SOL    HW129864   4.067   9.715   5.036 -1.0412  0.1125  0.2169
 7754SOL    HW229865   4.168   9.742   5.161 -1.7488  0.4607  0.7188
 7755SOL     OW29866   2.420   7.600   5.598  0.1595  0.0782  0.4852
 7755SOL    HW129867   2.510   7.557   5.603  0.5282  0.9360  1.4462
 7755SOL    HW229868   2.422   7.673   5.530  0.2862  0.2993  0.7239
 7756SOL     OW29869   9.041   8.052   4.866  0.2108 -0.2231 -0.0094
 7756SOL    HW129870   9.055   8.135   4.812  0.7516 -0.7249 -0.6559
 7756SOL    HW229871   9.122   8.035   4.922 -0.3813  0.3419  1.0324
 7757SOL     OW29872   9.772   2.606   1.790 -0.3162  0.0967  0.2532
 7757SOL    HW129873   9.685   2.656   1.795 -0.4330 -0.1681  0.9474
 7757SOL    HW229874   9.776   2.554   1.706 -1.2813 -0.7206  0.7060
 7758SOL     OW29875   8.953   3.043   1.940 -0.4513 -0.0030 -0.1379
 7758SOL    HW129876   9.052   3.036   1.947 -0.3333 -0.3612 -1.9986
 7758SOL    HW229877   8.915   3.070   2.028  1.2721 -0.1409  0.6538
 7759SOL     OW29878   8.013   5.208   0.307 -0.3070  0.3538 -0.1290
 7759SOL    HW129879   8.094   5.261   0.285  0.3792 -0.7143 -0.2057
 7759SOL    HW229880   7.998   5.139   0.237 -0.4143 -0.4363  0.6582
 7762SOL     OW29881   3.593   3.409   4.320 -0.3333  0.1919 -0.5050
 7762SOL    HW129882   3.630   3.444   4.234 -0.3284  0.7515 -0.2774
 7762SOL    HW229883   3.661   3.352   4.365 -1.1978 -2.1568 -2.0687
 7763SOL     OW29884   5.256   9.134   5.377  0.6866 -0.0421  0.0260
 7763SOL    HW129885   5.351   9.102   5.370  0.7443  0.1078  0.1164
 7763SOL    HW229886   5.250   9.229   5.346  0.9125  0.5684  1.8098
 7764SOL     OW29887   7.131   7.303   5.413 -0.1721 -0.1845 -0.0990
 7764SOL    HW129888   7.178   7.232   5.465 -1.5053 -0.1601  1.1891
 7764SOL    HW229889   7.080   7.362   5.476 -2.8913 -0.9226 -1.4988
 7765SOL     OW29890   2.156   7.456   5.300  0.0162 -0.0354  0.4127
 7765SOL    HW129891   2.143   7.511   5.217  0.5919 -1.2122 -0.4675
 7765SOL    HW229892   2.069   7.451   5.350 -0.5958 -0.1736 -0.6500
 7766SOL     OW29893   3.786   7.568   4.107 -0.4892 -0.0511 -0.0328
 7766SOL    HW129894   3.870   7.517   4.090 -0.8094 -0.6692  0.2296
 7766SOL    HW229895   3.736   7.527   4.183 -1.7769 -0.6115 -1.1554
 7767SOL     OW29896   0.948   9.800   5.305  0.3024 -0.2719 -0.0111
 7767SOL    HW129897   0.979   9.865   5.375 -0.9034  0.6628 -0.3302
 7767SOL    HW229898   1.024   9.741   5.278  1.1261  0.2657  1.0934
 7768SOL     OW29899   5.010   3.764   0.483  0.3370 -0.1161 -0.7626
 7768SOL    HW129900   5.025   3.859   0.456  0.0818  0.4714  1.1375
 7768SOL    HW229901   4.927   3.730   0.438 -1.9459  1.9021  1.7350
 7769SOL     OW29902   9.147   6.006   2.242 -0.1175 -0.3700  0.4629
 7769SOL    HW129903   9.246   5.990   2.236 -0.2709 -0.9195 -0.7957
 7769SOL    HW229904   9.117   5.997   2.337  1.3441  1.6019  1.1477
 7770SOL     OW29905   1.647   6.897   2.571 -0.2577  0.1947 -0.2066
 7770SOL    HW129906   1.714   6.970   2.574  0.6185 -0.6527  1.7781
 7770SOL    HW229907   1.563   6.926   2.616 -0.3082  0.3742 -0.4188
 7771SOL     OW29908   4.017   8.015   0.719  0.3255 -0.4933  0.3295
 7771SOL    HW129909   3.959   7.935   0.704  0.3017 -0.6906  1.4138
 7771SOL    HW229910   4.075   7.999   0.799  0.2383  0.6335  0.6211
 7772SOL     OW29911   8.610   8.601   3.119 -0.3851 -0.0190  0.0138
 7772SOL    HW129912   8.536   8.533   3.115 -0.4607  0.0132  0.8329
 7772SOL    HW229913   8.623   8.631   3.214  0.1606  0.5493 -0.2369
 7773SOL     OW29914   6.221   1.188   3.935 -0.0083  0.3933  0.2308
 7773SOL    HW129915   6.223   1.269   3.876 -1.0633  0.5425  0.3853
 7773SOL    HW229916   6.131   1.181   3.979  0.6461  0.0969  1.5584
 7774SOL     OW29917   4.368   0.032   2.683  0.3584  0.1931  0.4702
 7774SOL    HW129918   4.433   0.002   2.613  0.7081  2.5517 -0.2585
 7774SOL    HW229919   4.413   0.095   2.746 -0.5087 -0.3079  1.6047
 7775SOL     OW29920   9.230   9.733   6.092  0.0858 -0.1393 -0.1661
 7775SOL    HW129921   9.320   9.690   6.099 -0.9807 -2.4927 -0.2546
 7775SOL    HW229922   9.197   9.726   5.997  0.8940  3.0370 -0.7192
 7776SOL     OW29923   4.562   4.420   0.692 -0.2423 -0.3016 -0.5621
 7776SOL    HW129924   4.646   4.465   0.723 -1.2153  1.5149 -0.5141
 7776SOL    HW229925   4.550   4.335   0.744  0.4236  0.5197  0.9767
 7777SOL     OW29926   3.993   5.485   3.269  0.1934  0.0701 -0.1520
 7777SOL    HW129927   4.021   5.408   3.211  0.8942  0.4026 -0.2692
 7777SOL    HW229928   3.917   5.457   3.327  0.4305 -0.7092 -0.2033
 7778SOL     OW29929   0.490   5.273   5.777  0.0878  0.3166  0.4299
 7778SOL    HW129930   0.581   5.235   5.762 -0.3540 -0.5308 -0.1081
 7778SOL    HW229931   0.436   5.265   5.693 -0.5106  0.7510  0.7697
 7779SOL     OW29932   0.172   0.415   0.509 -0.0694 -0.0157 -0.5805
 7779SOL    HW129933   0.222   0.347   0.563 -0.7645  0.5122  0.7475
 7779SOL    HW229934   0.210   0.418   0.417  1.8605 -0.1648  0.1810
 7780SOL     OW29935   8.267   8.456   1.442 -0.4225  0.0222 -0.1397
 7780SOL    HW129936   8.317   8.465   1.356 -0.9169 -0.4101 -0.4754
 7780SOL    HW229937   8.321   8.495   1.517 -0.0518  0.5162 -0.6688
 7781SOL     OW29938   1.962   4.074   3.270 -0.1102 -0.0107  0.5243
 7781SOL    HW129939   2.000   4.115   3.188 -0.8414  1.3867  0.8576
 7781SOL    HW229940   1.952   3.975   3.257 -1.4526  0.3707 -1.5503
 7782SOL     OW29941   2.674   6.654   2.683  0.2351 -0.4789 -0.5352
 7782SOL    HW129942   2.733   6.583   2.720  2.5134  0.7569 -1.6679
 7782SOL    HW229943   2.611   6.685   2.753  1.3483 -1.4058  0.8987
 7783SOL     OW29944   9.134   8.666   1.790 -0.0934 -0.1310  0.0050
 7783SOL    HW129945   9.175   8.701   1.706 -2.2703 -0.2418 -1.1332
 7783SOL    HW229946   9.193   8.595   1.828  0.8723 -0.1443 -1.4575
 7784SOL     OW29947   0.311   0.012   0.874 -0.2215  0.1215 -0.2260
 7784SOL    HW129948   0.390  -0.041   0.906  0.1364  1.1864  0.7194
 7784SOL    HW229949   0.338   0.066   0.794 -0.1499  0.0309 -0.2634
 7785SOL     OW29950   8.447   4.303   0.299 -0.3440  0.6507 -0.0283
 7785SOL    HW129951   8.488   4.371   0.360 -0.9559  0.0726  1.0422
 7785SOL    HW229952   8.488   4.214   0.319  1.1894  0.8565 -2.1133
 7788SOL     OW29953   1.301   5.587   1.453 -0.6948 -0.7656 -0.2216
 7788SOL    HW129954   1.368   5.513   1.447  0.4065  0.1440  0.5995
 7788SOL    HW229955   1.304   5.627   1.544 -0.0268  1.4315 -1.1669
 7789SOL     OW29956   1.974   9.145   5.484 -0.5204  0.5052  0.0468
 7789SOL    HW129957   1.932   9.055   5.490 -1.3445  0.8089 -1.0394
 7789SOL    HW229958   1.904   9.213   5.463  0.3400  1.1720 -0.6726
 7790SOL     OW29959   1.265   3.323   3.691  0.1505 -0.6662 -0.5179
 7790SOL    HW129960   1.350   3.296   3.647  0.9221  0.8370  0.0279
 7790SOL    HW229961   1.269   3.301   3.789  0.8246  1.4121 -0.0468
 7791SOL     OW29962   8.098   8.773   1.242  0.0823  0.3812 -0.5130
 7791SOL    HW129963   8.117   8.698   1.179 -0.1332 -0.8036  0.8143
 7791SOL    HW229964   8.181   8.794   1.294 -0.8046 -1.3844  1.6788
 7793SOL     OW29965   9.687   3.007   5.721  0.0227  0.2547  1.2133
 7793SOL    HW129966   9.597   2.999   5.678 -0.4686  1.6362  1.9577
 7793SOL    HW229967   9.679   3.060   5.805  1.5617  0.5026  1.2125
 7794SOL     OW29968   1.482   3.427   3.305 -0.3357 -0.2084  0.6492
 7794SOL    HW129969   1.433   3.395   3.224 -1.5653  2.1605  0.4146
 7794SOL    HW229970   1.504   3.524   3.295  1.9134 -0.5393  1.9948
 7795SOL     OW29971   7.709   6.587   4.228 -0.0327 -0.3185 -0.3627
 7795SOL    HW129972   7.640   6.597   4.156 -1.8358  0.2267  1.4109
 7795SOL    HW229973   7.753   6.676   4.244  0.1333 -0.3664 -0.5519
 7796SOL     OW29974   6.818   0.376   0.223 -0.7472  0.4056 -0.3283
 7796SOL    HW129975   6.767   0.429   0.155  0.5471  2.1595  0.0213
 7796SOL    HW229976   6.825   0.429   0.308  0.8653 -0.1815 -0.0779
 7797SOL     OW29977   9.984   7.012   1.900 -0.1013 -0.4951 -0.3859
 7797SOL    HW129978   9.976   7.076   1.976 -0.3963  1.0336 -1.6714
 7797SOL    HW229979  10.077   6.976   1.896  0.2296  0.3012  0.0109
 7798SOL     OW29980   0.399   0.148   3.717  0.8156  0.3507  0.9052
 7798SOL    HW129981   0.396   0.129   3.815  2.2236  0.6152  1.0067
 7798SOL    HW229982   0.349   0.232   3.697  1.2683  0.7726  1.5240
 7799SOL     OW29983   1.776   2.086   4.867 -0.2870 -0.0251 -0.1649
 7799SOL    HW129984   1.747   2.164   4.923 -0.9728 -0.5927  0.2874
 7799SOL    HW229985   1.808   2.119   4.778 -1.1786  0.7260 -0.2200
 7800SOL     OW29986   7.295   2.111   4.129 -1.2589 -0.2163 -0.1802
 7800SOL    HW129987   7.246   2.127   4.043 -0.2416 -0.0447 -0.7451
 7800SOL    HW229988   7.369   2.045   4.113 -0.0554  1.0236  0.1927
 7801SOL     OW29989   6.058   7.835   4.086  0.1876  0.1996  0.4640
 7801SOL    HW129990   6.034   7.767   4.017  1.3224 -1.3786  1.5631
 7801SOL    HW229991   6.157   7.843   4.092  0.0779  1.2635  1.0279
 7802SOL     OW29992   9.908   0.889   4.028 -0.2324  0.4393 -0.0419
 7802SOL    HW129993   9.985   0.911   4.087 -0.0401  0.5428 -0.3294
 7802SOL    HW229994   9.889   0.791   4.033  0.7967  0.1802 -1.0208
 7803SOL     OW29995   6.617   5.286   1.044 -0.4031  0.0674 -0.5527
 7803SOL    HW129996   6.715   5.284   1.064 -0.4104  0.6437 -0.4632
 7803SOL    HW229997   6.591   5.202   0.996 -0.1914 -0.8768  0.9378
 7804SOL     OW29998   5.245   0.446   5.999 -0.2502  0.2367 -0.4309
 7804SOL    HW129999   5.169   0.412   6.054 -1.4549  0.9676 -1.6225
 7804SOL    HW230000   5.262   0.542   6.021  2.4454 -0.7672  2.1499
 7805SOL     OW30001   4.812   1.673   2.997  0.3214 -0.0215  0.8408
 7805SOL    HW130002   4.810   1.582   3.039 -1.4409  0.1846  1.2569
 7805SOL    HW230003   4.833   1.742   3.067 -1.9691  0.2542  1.2871
 7807SOL     OW30004   6.783   1.745   5.755 -0.1603  0.1535 -0.2129
 7807SOL    HW130005   6.873   1.702   5.751 -0.3492 -0.3350  0.6046
 7807SOL    HW230006   6.724   1.708   5.683  0.3541  0.6249 -0.8775
 7808SOL     OW30007   8.877   4.831   4.495  0.0816  0.1779 -0.5770
 7808SOL    HW130008   8.888   4.930   4.507 -1.2193  0.2897 -0.2801
 7808SOL    HW230009   8.843   4.813   4.403  0.4965 -0.0067 -0.6937
 7809SOL     OW30010   4.119   9.431   1.485 -0.0191  0.2759 -0.3503
 7809SOL    HW130011   4.151   9.439   1.579  1.4857 -1.3727 -0.6807
 7809SOL    HW230012   4.020   9.426   1.483 -0.0783  0.6888  1.1232
 7810SOL     OW30013   0.031   7.334   3.398 -0.4609  0.4289  0.2323
 7810SOL    HW130014   0.070   7.426   3.401 -0.5854  0.4641  0.9942
 7810SOL    HW230015   0.089   7.272   3.452 -0.9563  0.2897  0.6100
 7816SOL     OW30016   9.143   2.401   4.394 -0.0828 -0.2471 -0.8124
 7816SOL    HW130017   9.062   2.346   4.416  0.9962 -1.6547 -0.3184
 7816SOL    HW230018   9.218   2.375   4.455 -0.4297  3.9189  1.5929
 7817SOL     OW30019   4.912   9.236   5.315 -0.3248  0.0922 -0.2349
 7817SOL    HW130020   4.826   9.185   5.318  0.0770 -0.6134 -0.3856
 7817SOL    HW230021   4.982   9.186   5.367  0.3850 -0.1156 -1.3741
 7820SOL     OW30022   2.837   6.147   3.216  0.0574  0.0018  0.1098
 7820SOL    HW130023   2.802   6.160   3.309 -0.6677  1.6193 -0.3803
 7820SOL    HW230024   2.937   6.153   3.218 -0.0610  2.9542  0.3958
 7821SOL     OW30025   3.222   0.659   5.878 -0.1192 -0.1667  0.1669
 7821SOL    HW130026   3.283   0.706   5.813 -0.4750 -1.2738 -0.9804
 7821SOL    HW230027   3.238   0.561   5.874 -0.6659 -0.3028  1.2323
 7822SOL     OW30028   2.804   5.553   2.494  0.7040 -0.2662 -0.5802
 7822SOL    HW130029   2.737   5.481   2.514 -0.2010  1.4945  3.0190
 7822SOL    HW230030   2.757   5.638   2.472  1.7712  0.5738  0.3330
 7825SOL     OW30031   6.060   8.454   2.943  0.3786  0.2485  1.3285
 7825SOL    HW130032   6.131   8.524   2.930 -0.9118  1.2479 -0.5358
 7825SOL    HW230033   5.980   8.495   2.985 -0.7111  0.1256 -0.5578
 7826SOL     OW30034   1.132   6.666   5.112 -0.0480  0.0226  0.0602
 7826SOL    HW130035   1.057   6.706   5.060 -0.2135 -1.3240 -0.7526
 7826SOL    HW230036   1.111   6.671   5.210 -0.0434  1.9280 -0.0219
 7827SOL     OW30037   8.365   5.333   5.979 -0.9110  0.3113  0.5822
 7827SOL    HW130038   8.408   5.404   5.923 -0.8136 -1.2113 -1.2990
 7827SOL    HW230039   8.398   5.243   5.952 -2.0256 -0.5754  2.0551
 7828SOL     OW30040   7.191   0.146   1.951  0.4066  0.0241 -0.4746
 7828SOL    HW130041   7.237   0.231   1.926 -0.5953  0.6862 -0.1228
 7828SOL    HW230042   7.099   0.167   1.986  0.6130 -1.1153  0.7737
 7829SOL     OW30043   8.153   2.944   6.126  0.1959 -0.3578 -0.3125
 7829SOL    HW130044   8.059   2.963   6.152 -0.0852  1.3577 -2.4251
 7829SOL    HW230045   8.154   2.891   6.041  1.1348 -0.6748 -0.1110
 7830SOL     OW30046   8.460   4.063   5.308 -0.1892  0.1096 -0.0542
 7830SOL    HW130047   8.481   4.084   5.212 -0.2846  0.1003 -0.0762
 7830SOL    HW230048   8.543   4.074   5.363 -0.0792 -0.1127 -0.1763
 7831SOL     OW30049   5.014   8.423   2.478  0.7378  0.6836  0.2807
 7831SOL    HW130050   5.050   8.515   2.494  1.7272  0.2986  0.2908
 7831SOL    HW230051   5.014   8.371   2.563 -0.2554  0.8234  0.3685
 7832SOL     OW30052   2.521   6.459   5.801  0.4581  1.3429 -0.0490
 7832SOL    HW130053   2.434   6.472   5.753  0.0368 -1.9212 -0.3165
 7832SOL    HW230054   2.597   6.477   5.738  0.0020  3.0853 -0.1327
 7833SOL     OW30055   4.552   3.963   2.483 -0.0530  0.2100  0.8427
 7833SOL    HW130056   4.640   3.923   2.511 -0.6086 -2.5038 -1.1005
 7833SOL    HW230057   4.553   3.979   2.385 -1.6252  0.4118  0.8540
 7834SOL     OW30058   9.806   8.645   5.934  0.1291 -0.1499 -0.1421
 7834SOL    HW130059   9.794   8.628   5.837  0.7179 -1.3991 -0.0159
 7834SOL    HW230060   9.721   8.626   5.983 -0.8051  2.5616 -0.6531
 7835SOL     OW30061   6.925   9.799   6.194 -0.2293 -0.0293 -0.3326
 7835SOL    HW130062   6.887   9.804   6.286 -0.2702 -1.7204 -0.2327
 7835SOL    HW230063   6.851   9.814   6.127 -0.8352 -1.9342 -0.1182
 7838SOL     OW30064   3.244   6.140   2.756 -0.0997 -0.6362  0.1017
 7838SOL    HW130065   3.287   6.210   2.700 -0.0769  1.5098  2.7238
 7838SOL    HW230066   3.309   6.106   2.824 -1.3033 -0.3031  1.4371
 7839SOL     OW30067   3.246   7.460   0.891  0.1454  0.1079  0.7464
 7839SOL    HW130068   3.218   7.486   0.799 -1.9000 -1.3569  0.9403
 7839SOL    HW230069   3.311   7.527   0.926  0.7530  0.8161 -1.6552
 7840SOL     OW30070   6.672   7.620   3.869  0.3095  0.0626 -0.2924
 7840SOL    HW130071   6.645   7.530   3.905  0.2088 -0.2481 -1.1390
 7840SOL    HW230072   6.646   7.627   3.773  0.5283  0.9138 -0.2947
 7841SOL     OW30073   4.124   3.035   3.337  0.0229  0.4898 -0.2589
 7841SOL    HW130074   4.125   2.975   3.416 -0.0870  1.6442  0.6297
 7841SOL    HW230075   4.097   2.983   3.256  2.5027 -1.2498 -0.0236
 7842SOL     OW30076   7.832   0.356   1.406 -0.0600  0.1894 -0.4364
 7842SOL    HW130077   7.893   0.328   1.332  0.2393  1.3231 -0.6352
 7842SOL    HW230078   7.839   0.291   1.481  0.9204 -0.0523 -0.7225
 7843SOL     OW30079   1.810   1.883   1.606 -0.4683 -0.6597  0.1454
 7843SOL    HW130080   1.728   1.903   1.553  0.5235  0.9399 -0.8256
 7843SOL    HW230081   1.867   1.817   1.556 -0.4210 -0.5841  0.0999
 7845SOL     OW30082   0.117   5.687   3.549 -0.4440  0.0878 -0.1512
 7845SOL    HW130083   0.133   5.778   3.511 -0.0085  0.4738  0.9246
 7845SOL    HW230084   0.167   5.678   3.635 -1.9603 -0.5103  0.6889
 7846SOL     OW30085   0.799   8.251   2.268  0.0189 -0.9877 -0.1756
 7846SOL    HW130086   0.828   8.157   2.286 -0.7844 -1.4752 -1.3821
 7846SOL    HW230087   0.699   8.255   2.264  0.1073 -0.4755 -2.2216
 7848SOL     OW30088   9.686   5.080   5.209  0.1366  0.1641  0.3193
 7848SOL    HW130089   9.767   5.079   5.267 -0.5827 -0.2217  1.3367
 7848SOL    HW230090   9.698   5.017   5.133  0.6379 -0.1913  0.6906
 7850SOL     OW30091   3.973   7.290   2.466 -0.0318 -0.3921  0.1289
 7850SOL    HW130092   3.972   7.244   2.555 -2.9065 -4.1120 -1.6771
 7850SOL    HW230093   4.056   7.266   2.416  0.2294 -0.5876  0.6552
 7851SOL     OW30094   9.353   2.572   3.093  0.4949  0.1410 -0.2419
 7851SOL    HW130095   9.274   2.559   3.153  0.5937  1.0554  0.1031
 7851SOL    HW230096   9.346   2.510   3.015  1.4734 -2.6404  1.8067
 7852SOL     OW30097   8.747   1.366   3.254  0.3589 -0.0740  0.3101
 7852SOL    HW130098   8.844   1.341   3.266  0.2773 -1.0431 -0.9330
 7852SOL    HW230099   8.689   1.295   3.294  0.1470  0.4528  0.9535
 7855SOL     OW30100   5.092   7.414   4.112  0.7033  0.4846 -0.3184
 7855SOL    HW130101   5.069   7.492   4.170  0.6091 -0.4942  0.9669
 7855SOL    HW230102   5.011   7.386   4.061 -0.0021 -0.5370  1.3324
 7856SOL     OW30103   3.809   1.894   2.769  0.4589  0.2937  0.4333
 7856SOL    HW130104   3.892   1.849   2.738 -0.3853  0.0343 -1.4917
 7856SOL    HW230105   3.822   1.993   2.765  0.6738  0.2550  0.1379
 7858SOL     OW30106   2.056   6.831   6.345  0.4325 -0.3201  0.7164
 7858SOL    HW130107   2.055   6.814   6.246  1.5896  0.5730  0.5369
 7858SOL    HW230108   2.072   6.744   6.393 -3.8587 -1.4303  0.3547
 7859SOL     OW30109   3.067   7.942   0.551 -0.0468  0.3214  0.0206
 7859SOL    HW130110   3.022   7.917   0.638  0.4998 -1.1457 -0.0959
 7859SOL    HW230111   3.158   7.900   0.548  0.7288  2.0298 -0.4070
 7860SOL     OW30112   2.802   1.050   3.141  0.5309  0.7857 -0.1506
 7860SOL    HW130113   2.816   1.115   3.215  0.6788  0.5825  0.0019
 7860SOL    HW230114   2.838   0.961   3.168  1.6755  1.0082 -0.9391
 7861SOL     OW30115   9.175   5.503   3.403 -0.0036 -0.6873 -0.2550
 7861SOL    HW130116   9.159   5.600   3.423  2.8149  0.1463 -1.6502
 7861SOL    HW230117   9.227   5.462   3.478  0.7439 -0.5045 -0.6616
 7862SOL     OW30118   1.654   7.789   0.496 -0.2548 -0.0494 -0.1922
 7862SOL    HW130119   1.736   7.836   0.529 -0.6018  0.5012 -0.1124
 7862SOL    HW230120   1.573   7.843   0.519 -0.7102 -1.0035  0.4656
 7863SOL     OW30121   1.418   1.182   4.712 -0.0189  0.5753  0.7423
 7863SOL    HW130122   1.400   1.211   4.618 -0.6416  0.9454  0.9744
 7863SOL    HW230123   1.364   1.100   4.732  1.4684 -0.5519  0.2008
 7865SOL     OW30124   5.166   9.463   4.821  0.4605  0.1152  0.9485
 7865SOL    HW130125   5.153   9.560   4.839 -1.4796  0.0670 -0.0243
 7865SOL    HW230126   5.154   9.410   4.905  1.8211  0.7163  1.5384
 7866SOL     OW30127   0.990   6.081   1.543 -0.4243  0.4716 -0.0220
 7866SOL    HW130128   0.958   6.103   1.634 -0.7333 -0.7304  0.1683
 7866SOL    HW230129   1.054   6.004   1.547 -0.2414  0.5689 -0.7874
 7867SOL     OW30130   9.029   1.874   5.878 -0.1091  0.4650  0.0679
 7867SOL    HW130131   8.962   1.891   5.950 -1.0291  0.1085 -0.7025
 7867SOL    HW230132   9.077   1.788   5.897 -0.6612  0.1445  0.0238
 7868SOL     OW30133   1.981   4.215   5.275  0.0675  0.3278 -0.5129
 7868SOL    HW130134   1.993   4.223   5.176 -1.4675  2.6217 -0.5360
 7868SOL    HW230135   1.910   4.146   5.294 -0.7319  0.9909 -1.0673
 7869SOL     OW30136   9.771   3.743   2.439  0.2629  0.1680 -0.2907
 7869SOL    HW130137   9.712   3.812   2.480  1.3151  1.3531 -0.7393
 7869SOL    HW230138   9.866   3.775   2.442  0.3813  0.2675 -3.5946
 7870SOL     OW30139   4.193   8.718   4.717  0.2109  0.3143 -0.1554
 7870SOL    HW130140   4.284   8.688   4.688  1.0279  1.9171  0.6980
 7870SOL    HW230141   4.202   8.790   4.786 -1.7080  0.0041  0.4362
 7871SOL     OW30142   3.684   0.666   5.775 -0.1460 -0.6097  0.1969
 7871SOL    HW130143   3.650   0.741   5.832  1.4935  0.2260  0.0982
 7871SOL    HW230144   3.722   0.702   5.690 -1.7295 -1.7832 -1.0318
 7872SOL     OW30145   2.029   8.001   3.221  0.2155 -0.1889  0.3874
 7872SOL    HW130146   2.015   8.069   3.148 -0.3538  0.0409  0.7088
 7872SOL    HW230147   2.026   7.909   3.182 -2.5685 -0.1670  0.5016
 7873SOL     OW30148   1.363   8.771   4.186  0.5253  0.0299  0.2878
 7873SOL    HW130149   1.307   8.813   4.114  1.0813 -0.0469 -0.1863
 7873SOL    HW230150   1.308   8.703   4.235  0.6559 -1.1430 -1.1796
 7874SOL     OW30151   0.637   8.712   2.195  0.7981 -0.6897  0.3823
 7874SOL    HW130152   0.590   8.752   2.274  0.3167  0.5038 -0.4808
 7874SOL    HW230153   0.724   8.672   2.224 -0.7701 -3.0267  2.0274
 7875SOL     OW30154   7.575   9.809   3.913 -0.5035  0.3612 -0.2656
 7875SOL    HW130155   7.637   9.796   3.836  0.3455 -0.7482  0.5769
 7875SOL    HW230156   7.511   9.732   3.917 -0.6810  0.5221  0.0063
 7876SOL     OW30157   3.115   2.097   3.934 -0.3574 -0.2526  0.4238
 7876SOL    HW130158   3.048   2.168   3.916 -0.6220 -0.3050  1.1704
 7876SOL    HW230159   3.207   2.133   3.921 -0.5447 -0.3616 -1.2412
 7877SOL     OW30160   7.891   8.928   3.850  0.4178  0.2879 -0.2057
 7877SOL    HW130161   7.894   9.006   3.912  0.7857  0.6626 -0.6847
 7877SOL    HW230162   7.947   8.854   3.886 -2.8717 -1.1795  2.1139
 7879SOL     OW30163   5.241   3.354   1.154  0.5032 -0.9270 -0.4970
 7879SOL    HW130164   5.338   3.349   1.130  0.6130  1.4069 -0.7336
 7879SOL    HW230165   5.188   3.368   1.070  0.2217  0.2990 -0.1228
 7880SOL     OW30166   4.621   0.978   5.643 -0.2488  0.5282  0.7069
 7880SOL    HW130167   4.620   1.064   5.593  1.1589  0.7885  1.0890
 7880SOL    HW230168   4.617   0.902   5.579 -1.2750  0.8654  0.3561
 7881SOL     OW30169   9.548   8.609   0.765  0.6063  0.2839 -0.4401
 7881SOL    HW130170   9.478   8.668   0.725 -0.7926  0.2218  1.8132
 7881SOL    HW230171   9.533   8.514   0.737  0.5735  0.4512 -0.9973
 7882SOL     OW30172   7.688   0.938   4.245  0.2132 -0.0091  0.2290
 7882SOL    HW130173   7.746   0.895   4.176  0.2634  0.3617  0.0406
 7882SOL    HW230174   7.743   0.961   4.325  0.4908  1.0576 -0.2581
 7884SOL     OW30175   1.705   8.511   2.147 -0.3618 -0.1290  0.2049
 7884SOL    HW130176   1.796   8.552   2.158  0.7833 -2.6260  0.3771
 7884SOL    HW230177   1.687   8.497   2.050 -2.3309  4.0994 -0.1396
 7885SOL     OW30178   5.446   9.884   1.788 -0.2109  0.8299 -0.2326
 7885SOL    HW130179   5.460   9.870   1.886 -0.5601 -0.3537 -0.3418
 7885SOL    HW230180   5.353   9.918   1.772 -1.1031 -1.5512 -0.3432
 7886SOL     OW30181   0.249   8.571   2.146 -0.4580 -0.3750  0.1377
 7886SOL    HW130182   0.247   8.473   2.129 -0.5185 -0.1477 -1.2090
 7886SOL    HW230183   0.312   8.591   2.221 -0.2734 -1.4229  0.2584
 7887SOL     OW30184   8.815   0.348   0.985 -0.1798  0.5697  0.1902
 7887SOL    HW130185   8.756   0.272   1.013  0.3215  0.6344  1.4431
 7887SOL    HW230186   8.768   0.435   1.002 -1.6058  0.5184 -3.1943
 7889SOL     OW30187   2.202   7.705   0.079 -0.0284  0.1631  0.0635
 7889SOL    HW130188   2.253   7.642   0.137 -1.1221 -1.7131 -0.9651
 7889SOL    HW230189   2.217   7.683  -0.018 -0.9150  1.0758 -0.3053
 7892SOL     OW30190   2.530   7.636   5.862 -0.0725 -0.1779 -0.1642
 7892SOL    HW130191   2.480   7.639   5.776  0.0500  0.5946 -0.2107
 7892SOL    HW230192   2.474   7.677   5.934 -0.4068 -1.3411  0.2420
 7894SOL     OW30193   2.357   5.629   4.113 -0.0405 -0.1551  0.2275
 7894SOL    HW130194   2.413   5.692   4.060  0.7156 -2.9256 -2.3867
 7894SOL    HW230195   2.279   5.678   4.152 -0.2983  2.1169 -2.9708
 7896SOL     OW30196   1.793   7.860   6.316 -0.0954  0.0727  0.0345
 7896SOL    HW130197   1.828   7.950   6.340 -0.6945  0.4099 -0.3693
 7896SOL    HW230198   1.864   7.791   6.334  0.6037  0.6988 -0.3096
 7897SOL     OW30199   1.011   5.774   0.101  0.3048  0.3181 -0.1445
 7897SOL    HW130200   0.911   5.774   0.093  0.2612 -0.5850  0.2429
 7897SOL    HW230201   1.039   5.839   0.171 -0.0169  0.5493 -0.2292
 7898SOL     OW30202   6.465   8.768   6.071 -0.3623  0.1292  0.7017
 7898SOL    HW130203   6.537   8.769   6.141  0.3276  1.1486 -0.0220
 7898SOL    HW230204   6.492   8.709   5.995  0.3507  1.6700 -0.2453
 7899SOL     OW30205   7.317   1.512   5.433  0.9135 -0.0258 -0.0608
 7899SOL    HW130206   7.302   1.413   5.441  0.7519 -0.1060 -1.2372
 7899SOL    HW230207   7.275   1.545   5.349  0.9840  1.0476  0.3211
 7900SOL     OW30208   2.054   3.109   1.079 -0.4641  0.2759 -0.3083
 7900SOL    HW130209   2.102   3.123   1.166 -0.9826 -1.4047  0.2620
 7900SOL    HW230210   2.098   3.164   1.008  0.4302  1.0861  0.8485
 7901SOL     OW30211   8.409   5.084   5.828  0.1780 -0.0936  0.3551
 7901SOL    HW130212   8.449   5.048   5.744  0.0414 -3.2632  1.5457
 7901SOL    HW230213   8.315   5.050   5.837 -0.4228  1.6640  0.9395
 7904SOL     OW30214   9.216   8.829   2.594  0.3240  0.3990  0.0074
 7904SOL    HW130215   9.228   8.774   2.512 -0.8329 -0.4535  0.3830
 7904SOL    HW230216   9.137   8.889   2.583 -0.6821 -0.7186  1.0024
 7905SOL     OW30217   6.595   4.681   0.467 -0.1330  0.0459 -0.4355
 7905SOL    HW130218   6.668   4.673   0.399  0.3506 -0.0987  0.1046
 7905SOL    HW230219   6.618   4.628   0.548 -1.1394 -0.5389 -0.5215
 7906SOL     OW30220   1.111   7.333   0.522 -0.3194  0.0860 -0.3577
 7906SOL    HW130221   1.082   7.240   0.500 -0.4452 -0.4091  1.8238
 7906SOL    HW230222   1.163   7.370   0.445  1.4949 -2.5281 -0.4584
 7907SOL     OW30223   8.952   5.912   2.061 -0.6271 -0.5529  0.1377
 7907SOL    HW130224   8.901   5.990   2.025 -2.7330 -2.4765 -1.2099
 7907SOL    HW230225   9.016   5.943   2.131 -2.1403  2.2368  0.3477
 7908SOL     OW30226   1.175   1.704   0.015 -0.3302 -0.1052 -0.7700
 7908SOL    HW130227   1.149   1.794   0.049  2.8468  0.2157  0.9280
 7908SOL    HW230228   1.153   1.635   0.083  2.6549  0.1096  0.4550
 7909SOL     OW30229   1.288   8.955   2.361 -0.0509 -0.1553 -0.1017
 7909SOL    HW130230   1.278   9.012   2.280 -0.1648  0.0057  0.0259
 7909SOL    HW230231   1.340   8.872   2.338  1.3905  0.6924  0.0346
 7910SOL     OW30232   6.002   8.690   6.366 -0.0504 -0.0515 -1.0313
 7910SOL    HW130233   6.081   8.747   6.344  1.2684 -1.5212 -0.2198
 7910SOL    HW230234   5.976   8.706   6.462 -2.6322  2.6206 -2.1077
 7911SOL     OW30235   2.359   5.234   3.252 -0.0522  0.7989  0.2910
 7911SOL    HW130236   2.366   5.162   3.321 -0.8761  0.1329 -0.3018
 7911SOL    HW230237   2.272   5.283   3.263 -0.5898  0.1055 -0.8193
 7912SOL     OW30238   9.460   0.852   6.415 -0.5441  0.3589  0.2127
 7912SOL    HW130239   9.509   0.911   6.352  0.8767  1.1825  2.0376
 7912SOL    HW230240   9.467   0.757   6.385  1.3025  0.5902 -0.1163
 7913SOL     OW30241   8.713   2.231   5.603  0.4406  0.4526  0.4671
 7913SOL    HW130242   8.811   2.249   5.604  0.5503 -0.1780  1.9854
 7913SOL    HW230243   8.696   2.133   5.596 -0.0239  0.3506  2.5403
 7915SOL     OW30244   4.707   4.831   0.055 -0.5056  0.8741 -0.7855
 7915SOL    HW130245   4.728   4.782   0.140 -0.0437  1.5646 -0.4992
 7915SOL    HW230246   4.779   4.813  -0.012 -0.7216  0.5615 -0.9351
 7916SOL     OW30247   0.522   4.919   3.730 -0.7722  0.3208 -0.6012
 7916SOL    HW130248   0.428   4.906   3.701 -1.2746 -0.6488  1.4419
 7916SOL    HW230249   0.528   4.997   3.793 -0.6041 -1.0415  1.1020
 7917SOL     OW30250   0.472   1.455   3.301  0.3978  0.2446 -0.2450
 7917SOL    HW130251   0.402   1.394   3.338  0.4926  0.2663 -0.0329
 7917SOL    HW230252   0.453   1.549   3.330  0.3860  0.2830 -0.3762
 7918SOL     OW30253   0.770   9.694   5.110 -0.1190 -0.6105  0.0621
 7918SOL    HW130254   0.833   9.737   5.174 -0.7098 -0.6224  0.6562
 7918SOL    HW230255   0.676   9.712   5.138 -0.4323  1.1465 -1.9393
 7919SOL     OW30256   0.482   5.870   4.722 -0.0350 -0.2299 -0.4421
 7919SOL    HW130257   0.453   5.915   4.638 -0.2299 -0.3596 -0.4445
 7919SOL    HW230258   0.434   5.912   4.800 -2.0166 -2.0140 -0.6688
 7921SOL     OW30259   9.952   0.520   2.600  0.4060  0.0692  0.8119
 7921SOL    HW130260   9.893   0.440   2.606  0.4408 -0.0966 -0.7222
 7921SOL    HW230261   9.938   0.578   2.680  0.2248 -1.3527  1.8345
 7922SOL     OW30262   0.850   8.479   2.127  0.1343 -0.6901 -0.1958
 7922SOL    HW130263   0.824   8.394   2.171  0.6737 -1.0697 -0.5945
 7922SOL    HW230264   0.868   8.463   2.029 -0.4408  0.0099 -0.4231
 7924SOL     OW30265   2.062   4.203   4.992  0.0658  0.0152  0.5052
 7924SOL    HW130266   2.104   4.122   4.952  0.4329  0.4749 -0.0521
 7924SOL    HW230267   1.964   4.203   4.973 -0.0953 -0.7688  1.3150
 7925SOL     OW30268   9.266   2.325   1.454 -0.5383 -0.5435 -0.4683
 7925SOL    HW130269   9.237   2.235   1.420  0.7029 -1.2253  0.2271
 7925SOL    HW230270   9.309   2.377   1.380 -0.2356 -0.9750 -0.5976
 7926SOL     OW30271   0.852   9.150   6.087 -0.0783  0.5133  0.5576
 7926SOL    HW130272   0.860   9.226   6.152 -1.1943  2.3893 -1.4229
 7926SOL    HW230273   0.802   9.181   6.006  0.0028 -2.1858 -0.5714
 7927SOL     OW30274   8.269   2.321   5.610 -0.3413  0.4277  0.3613
 7927SOL    HW130275   8.197   2.352   5.548  0.8686 -0.2650 -1.4428
 7927SOL    HW230276   8.308   2.236   5.575  0.6455  0.2512  1.8643
 7928SOL     OW30277   1.149   0.893   5.790  0.9757 -0.0923 -0.1553
 7928SOL    HW130278   1.194   0.853   5.870  1.3894  0.5694 -0.0549
 7928SOL    HW230279   1.050   0.878   5.797  0.9623  0.3966  0.7248
 7930SOL     OW30280   1.796   1.099   2.034  0.8989 -0.9135 -0.4183
 7930SOL    HW130281   1.730   1.050   2.092  1.4171 -1.1926 -0.0631
 7930SOL    HW230282   1.783   1.071   1.939  0.2928 -0.7289 -0.3965
 7931SOL     OW30283   5.549   1.279   1.961  0.0423  0.3956  0.4210
 7931SOL    HW130284   5.552   1.379   1.968  1.0372  0.3067  1.3650
 7931SOL    HW230285   5.640   1.241   1.980 -0.0728 -0.6323 -0.9997
 7933SOL     OW30286   0.161   7.127   3.524  0.2015 -0.4005  1.0373
 7933SOL    HW130287   0.235   7.185   3.558 -0.6474 -0.0130  2.2614
 7933SOL    HW230288   0.113   7.085   3.602 -1.4552  0.0804  0.2987
 7934SOL     OW30289   3.529   2.034   5.160  0.4767 -0.2745 -0.0408
 7934SOL    HW130290   3.531   2.133   5.143 -0.3054 -0.6472 -2.5627
 7934SOL    HW230291   3.464   1.991   5.097  0.6752 -2.3806  1.1589
 7935SOL     OW30292   8.154   6.905   5.798 -0.4254  0.1249  0.2692
 7935SOL    HW130293   8.154   7.005   5.797 -0.0330  0.1230 -1.1334
 7935SOL    HW230294   8.109   6.871   5.716  0.8748 -0.8514 -0.0505
 7936SOL     OW30295   1.834   7.126   5.999 -0.0982  0.3241  0.1755
 7936SOL    HW130296   1.823   7.203   6.062 -2.8405  0.1657 -0.0593
 7936SOL    HW230297   1.873   7.048   6.048 -1.5182  0.4348  1.5163
 7938SOL     OW30298   5.499   8.249   3.854 -0.2159  0.2691 -0.1348
 7938SOL    HW130299   5.494   8.162   3.903  2.4238  0.5790  0.7332
 7938SOL    HW230300   5.418   8.305   3.876 -0.1240 -0.4667  2.1711
 7939SOL     OW30301   9.279   6.850   6.178 -0.4047 -0.2385 -0.4155
 7939SOL    HW130302   9.367   6.868   6.133 -0.3061 -0.3885 -0.2850
 7939SOL    HW230303   9.287   6.874   6.275 -0.5169 -0.2207 -0.4111
 7940SOL     OW30304   3.992   1.610   6.377 -0.6616  0.4173 -0.7528
 7940SOL    HW130305   4.030   1.540   6.318 -1.1039  0.7510 -1.4412
 7940SOL    HW230306   4.064   1.674   6.403 -0.2642 -0.2768 -0.1400
 7941SOL     OW30307   6.262   3.901   0.086  0.7565  0.3862 -0.4235
 7941SOL    HW130308   6.197   3.971   0.058  0.2768 -0.4524 -1.4310
 7941SOL    HW230309   6.348   3.914   0.036  0.3389 -0.3286 -1.3306
 7942SOL     OW30310   1.381   5.179   5.865 -0.0412  0.2585 -0.0530
 7942SOL    HW130311   1.289   5.162   5.899  0.4596 -1.0835  0.6813
 7942SOL    HW230312   1.385   5.269   5.823 -1.3378  0.8831  1.1195
 7944SOL     OW30313   3.819   8.202   0.249 -0.4791  0.2388  0.1328
 7944SOL    HW130314   3.811   8.254   0.163 -1.7975 -0.2652 -0.0658
 7944SOL    HW230315   3.742   8.225   0.308  0.0807  0.0902  0.9171
 7945SOL     OW30316   4.992   4.552   1.269  0.0037  0.2088 -0.0156
 7945SOL    HW130317   5.046   4.554   1.185 -0.6084  1.7166 -0.3950
 7945SOL    HW230318   4.963   4.645   1.292 -2.9318 -0.6156 -0.1581
 7946SOL     OW30319   6.919   6.640   6.360 -0.2985  0.2128  0.1289
 7946SOL    HW130320   6.974   6.595   6.290 -1.7121 -0.5087 -0.5412
 7946SOL    HW230321   6.880   6.571   6.421  0.7167  0.8183  1.4842
 7947SOL     OW30322   3.243   9.259   2.303 -0.2656  0.1963 -0.7866
 7947SOL    HW130323   3.246   9.340   2.243  0.8532  0.6882 -0.0688
 7947SOL    HW230324   3.225   9.288   2.397 -0.0116 -0.4175 -0.5512
 7948SOL     OW30325   6.136   7.607   3.065 -0.2889 -0.1132 -0.4216
 7948SOL    HW130326   6.228   7.578   3.036 -0.3257 -0.2685 -0.3877
 7948SOL    HW230327   6.095   7.664   2.994  0.0229  0.3510 -0.2259
 7950SOL     OW30328   1.361   0.881   5.416  0.0612  0.0349  1.0917
 7950SOL    HW130329   1.383   0.843   5.326 -0.4681  1.9753  0.1146
 7950SOL    HW230330   1.340   0.978   5.406 -0.6468  0.1095  3.2291
 7951SOL     OW30331   6.134   0.458   4.440  0.5081  0.5771  0.1399
 7951SOL    HW130332   6.172   0.371   4.473 -1.1672  0.6179  2.3151
 7951SOL    HW230333   6.195   0.533   4.466  1.0184  0.2343 -0.0654
 7952SOL     OW30334   7.173   5.716   0.043  0.3159  0.2496 -0.5723
 7952SOL    HW130335   7.186   5.653  -0.033  0.1385 -1.0826  0.4743
 7952SOL    HW230336   7.076   5.740   0.050  0.1708 -0.4408 -0.1478
 7953SOL     OW30337   2.016   0.046   5.021  0.1608  0.2022 -0.0055
 7953SOL    HW130338   2.021   0.024   4.924 -0.2974  0.4088 -0.0770
 7953SOL    HW230339   1.960   0.128   5.034 -1.6301 -1.0769  0.6045
 7954SOL     OW30340   8.735   8.040   4.090  0.3833  0.3887  0.0280
 7954SOL    HW130341   8.736   8.118   4.028  0.1570  0.5495  0.2240
 7954SOL    HW230342   8.827   8.023   4.124  0.7564 -0.5670 -1.4323
 7956SOL     OW30343   9.844   8.546   2.373 -0.1056 -0.3057 -0.3511
 7956SOL    HW130344   9.808   8.454   2.359  0.0670 -0.6595  1.4392
 7956SOL    HW230345   9.887   8.552   2.463 -0.4857  1.6468 -0.2705
 7957SOL     OW30346   1.271   2.188   2.854  0.9653  0.0168  0.1506
 7957SOL    HW130347   1.264   2.255   2.928  1.0964 -0.3518  0.5014
 7957SOL    HW230348   1.274   2.235   2.766  1.0443  0.4673  0.3944
 7958SOL     OW30349   7.920   5.413   1.576  0.6214 -0.2428 -0.0315
 7958SOL    HW130350   7.977   5.336   1.607 -0.6584 -2.1916 -2.3837
 7958SOL    HW230351   7.930   5.424   1.477 -1.1098  1.0813 -0.0759
 7959SOL     OW30352   8.954   6.773   2.092  0.3391  0.3040 -0.3533
 7959SOL    HW130353   8.941   6.756   2.190  1.0947 -0.5718 -0.4078
 7959SOL    HW230354   8.968   6.687   2.044 -0.5225  0.6858 -1.3192
 7960SOL     OW30355   1.593   7.028   6.058 -0.0981  0.4020 -0.6378
 7960SOL    HW130356   1.685   7.054   6.029  1.2170  0.0092  2.9609
 7960SOL    HW230357   1.590   7.022   6.158 -3.4032 -1.9244 -0.8029
 7961SOL     OW30358   2.869   4.822   0.280  0.5956  0.3340  0.0302
 7961SOL    HW130359   2.785   4.871   0.303 -1.3734 -2.8720  0.0622
 7961SOL    HW230360   2.913   4.790   0.363 -0.7753 -2.0934 -0.1388
 7962SOL     OW30361   0.714   8.341   3.613 -0.0683 -0.2700  0.1786
 7962SOL    HW130362   0.657   8.272   3.568 -2.0298  1.4364 -0.0122
 7962SOL    HW230363   0.656   8.413   3.650  1.8970  0.8331  1.1803
 7965SOL     OW30364   2.285   1.149   0.612 -0.0735 -0.0294  0.3109
 7965SOL    HW130365   2.263   1.112   0.521 -1.3753  0.5325  0.3842
 7965SOL    HW230366   2.286   1.249   0.608 -0.4841  0.0065  0.9812
 7966SOL     OW30367   2.770   6.490   2.994 -0.4598 -0.4371 -0.2800
 7966SOL    HW130368   2.864   6.519   2.976 -0.9306  0.7281 -0.9664
 7966SOL    HW230369   2.741   6.524   3.083 -0.9331  1.0420 -0.9843
 7967SOL     OW30370   2.186   2.574   5.328  0.5244 -0.1866 -0.0860
 7967SOL    HW130371   2.088   2.579   5.345  0.5166 -0.6743  0.0402
 7967SOL    HW230372   2.203   2.510   5.253  0.8139 -0.9221  0.5903
 7968SOL     OW30373   4.379   7.180   0.666  0.3169 -0.1098 -0.1159
 7968SOL    HW130374   4.336   7.257   0.619  1.5538  0.2365 -0.6944
 7968SOL    HW230375   4.361   7.188   0.764 -1.1237 -0.1030 -0.3624
 7969SOL     OW30376   8.473   9.220   0.210 -0.1352  0.3318  0.1768
 7969SOL    HW130377   8.373   9.232   0.211 -0.0766  0.9642  2.4654
 7969SOL    HW230378   8.515   9.292   0.266  1.7340  0.9331 -1.9191
 7970SOL     OW30379   7.726   0.148   3.109  0.1969 -0.1975 -0.2021
 7970SOL    HW130380   7.636   0.116   3.079 -0.0008  0.1641  0.0088
 7970SOL    HW230381   7.725   0.163   3.208 -0.3213  2.4343 -0.5699
 7971SOL     OW30382   6.966   1.323   6.201  0.2496  0.0369 -0.8087
 7971SOL    HW130383   7.006   1.341   6.291 -0.1832  0.3152 -0.6705
 7971SOL    HW230384   6.977   1.404   6.143 -1.3434  0.6229 -0.3169
 7972SOL     OW30385   3.374   3.000   0.032 -0.4047  0.0761  0.3382
 7972SOL    HW130386   3.322   2.918   0.011 -0.1370  0.3122 -1.3068
 7972SOL    HW230387   3.462   2.974   0.073 -1.3858 -0.3459  2.2506
 7973SOL     OW30388   2.468   9.956   1.058 -0.6661  0.4540  0.0082
 7973SOL    HW130389   2.386   9.904   1.034  0.2950 -0.7966 -0.6320
 7973SOL    HW230390   2.442  10.048   1.088 -2.2937  0.0709 -0.1960
 7974SOL     OW30391   1.491   0.079   5.196  0.6494 -0.4204  0.0893
 7974SOL    HW130392   1.476   0.174   5.225 -0.3311 -0.6269  0.2988
 7974SOL    HW230393   1.423   0.020   5.240  3.1013 -1.6733  2.3124
 7976SOL     OW30394   5.810   1.222   5.974  1.1142 -0.5993  0.2698
 7976SOL    HW130395   5.748   1.273   5.914 -0.1403 -0.4653  1.6811
 7976SOL    HW230396   5.904   1.254   5.958  0.5533  0.9052 -0.1337
 7977SOL     OW30397   8.607   2.847   1.291 -0.3635  0.2801 -0.1615
 7977SOL    HW130398   8.526   2.890   1.250 -0.6618 -0.4470 -0.3533
 7977SOL    HW230399   8.689   2.898   1.264 -0.8998  2.0556  1.4438
 7978SOL     OW30400   5.730   9.757   6.325 -0.0177 -0.1881 -0.0341
 7978SOL    HW130401   5.709   9.665   6.294 -0.0099  0.3030 -1.5569
 7978SOL    HW230402   5.686   9.823   6.264  0.3369  0.8122  0.7826
 7979SOL     OW30403   1.798   2.448   0.042  0.0084 -0.3572  0.7702
 7979SOL    HW130404   1.821   2.376   0.106 -0.9884  0.4624  2.0821
 7979SOL    HW230405   1.751   2.522   0.090 -0.7444  0.2837 -0.8989
 7981SOL     OW30406   7.674   6.379   1.637 -0.3846 -0.0429 -0.4048
 7981SOL    HW130407   7.710   6.468   1.663  0.7975 -0.7266  0.3202
 7981SOL    HW230408   7.644   6.329   1.718 -0.2495 -0.6491 -0.7225
 7982SOL     OW30409   9.630   7.946   3.279  0.2755  0.0007 -0.7535
 7982SOL    HW130410   9.550   7.982   3.327  0.3264 -2.1458  1.0019
 7982SOL    HW230411   9.602   7.871   3.219  0.5735  1.1483 -2.3749
 7983SOL     OW30412   1.598   9.574   5.179  0.5047 -0.3607 -0.1569
 7983SOL    HW130413   1.651   9.609   5.257  0.6638 -1.7367  0.3688
 7983SOL    HW230414   1.635   9.486   5.152 -0.2192 -0.3650 -1.1296
 7984SOL     OW30415   3.062   6.595   2.759 -0.4290  0.7253  0.1434
 7984SOL    HW130416   3.036   6.514   2.707  0.7285  0.7038 -0.4140
 7984SOL    HW230417   3.042   6.580   2.856  0.2697 -0.4515  0.1191
 7985SOL     OW30418   3.336   0.834   3.224 -0.2280 -0.3409  0.2140
 7985SOL    HW130419   3.365   0.919   3.180 -0.5720  0.2495  1.1135
 7985SOL    HW230420   3.417   0.784   3.254 -0.0231 -0.3413 -0.3284
 7986SOL     OW30421   9.345   3.447   5.962 -0.2507 -0.5218  0.3025
 7986SOL    HW130422   9.391   3.362   5.937  0.0402 -0.3663  0.2995
 7986SOL    HW230423   9.391   3.487   6.042 -0.7305 -0.6522  0.6441
 7987SOL     OW30424   0.534   9.566   3.832 -0.6492 -0.0561  0.0024
 7987SOL    HW130425   0.622   9.599   3.799 -1.1739  0.6568 -0.6856
 7987SOL    HW230426   0.516   9.475   3.794  0.7169 -1.1023  1.7723
 7989SOL     OW30427   8.784   0.668   1.636  0.3280 -0.3281 -0.2640
 7989SOL    HW130428   8.739   0.701   1.554  0.9154 -0.3824 -0.6087
 7989SOL    HW230429   8.723   0.681   1.715  0.0312  0.3417 -0.6004
 7990SOL     OW30430   0.733   2.959   0.201  0.0395  0.4103 -0.0778
 7990SOL    HW130431   0.719   3.047   0.156 -1.2940  0.6887  0.8574
 7990SOL    HW230432   0.769   2.893   0.135  2.2756  1.9786 -0.4946
 7991SOL     OW30433   6.608   0.708   1.275  0.5547  0.5810 -0.3580
 7991SOL    HW130434   6.688   0.731   1.220  1.4724  0.2423  0.8408
 7991SOL    HW230435   6.586   0.784   1.336  0.2491  0.4811 -0.3422
 7993SOL     OW30436   9.294   0.755   0.948  0.1832 -0.0660 -0.1726
 7993SOL    HW130437   9.368   0.790   1.005 -0.7894  0.9830  0.4745
 7993SOL    HW230438   9.211   0.747   1.003 -0.8670  1.2848 -1.5033
 7994SOL     OW30439   3.138   1.892   4.789 -0.2221 -0.3560 -0.2723
 7994SOL    HW130440   3.148   1.945   4.705  0.1362  0.6204  0.3725
 7994SOL    HW230441   3.046   1.905   4.825 -0.0402  0.0831  0.0448
 7995SOL     OW30442   5.755   8.175   2.808 -0.0344 -0.0433  0.2049
 7995SOL    HW130443   5.657   8.187   2.791 -0.0937 -1.7344 -0.7941
 7995SOL    HW230444   5.806   8.212   2.731  0.0235 -0.8299 -0.1402
 7996SOL     OW30445   6.345   9.724   4.056 -0.1586  0.3339 -1.1916
 7996SOL    HW130446   6.440   9.723   4.087 -0.3672  0.7042 -0.5195
 7996SOL    HW230447   6.309   9.817   4.064 -0.4522  0.2767 -1.8349
 7997SOL     OW30448   2.532   2.024   5.016 -0.3204 -0.8068  0.3416
 7997SOL    HW130449   2.437   2.017   5.048 -1.8820 -0.1594 -3.7719
 7997SOL    HW230450   2.560   1.936   4.977 -0.4342 -0.0666 -1.4469
 7998SOL     OW30451   2.202   5.731   4.885  0.0245  0.1410 -0.2520
 7998SOL    HW130452   2.123   5.671   4.900 -0.6736  1.0536 -0.2249
 7998SOL    HW230453   2.267   5.687   4.823 -0.7744 -0.3862 -0.7170
 8001SOL     OW30454   3.683   7.501   2.788  0.1612 -0.0969  0.2186
 8001SOL    HW130455   3.611   7.536   2.727 -1.8294 -2.9649  0.8417
 8001SOL    HW230456   3.672   7.543   2.878 -0.1496  0.1578  0.0671
 8002SOL     OW30457   1.920   0.204   6.433  0.4556 -0.0484  0.3982
 8002SOL    HW130458   1.994   0.166   6.378 -0.0364  0.6820 -0.7927
 8002SOL    HW230459   1.885   0.135   6.496 -0.4322 -1.5788 -1.7244
 8003SOL     OW30460   3.727   5.931   3.545 -0.7448  0.0020 -0.4271
 8003SOL    HW130461   3.744   5.856   3.481 -1.1231  1.2008 -1.9504
 8003SOL    HW230462   3.643   5.912   3.597 -1.7452  0.1324 -1.9743
 8004SOL     OW30463   0.890   7.887   1.367 -0.4633  0.0688  0.0585
 8004SOL    HW130464   0.810   7.872   1.426  0.6554 -0.6319  1.4050
 8004SOL    HW230465   0.900   7.985   1.350 -0.6471  0.3009  1.2449
 8005SOL     OW30466   6.634   3.206   0.077  0.3601  0.1907  0.1048
 8005SOL    HW130467   6.552   3.162   0.116  0.2552  1.1292  0.9552
 8005SOL    HW230468   6.612   3.244  -0.012 -0.0069  0.0180  0.1210
 8006SOL     OW30469   5.361   1.674   2.708 -0.8534 -0.0532  0.1209
 8006SOL    HW130470   5.361   1.670   2.608 -0.7329  0.6219  0.0907
 8006SOL    HW230471   5.449   1.640   2.742 -1.3276 -1.3837  0.0548
 8007SOL     OW30472   0.669   6.663   3.406 -0.7044  0.7093  0.1777
 8007SOL    HW130473   0.708   6.700   3.321 -0.1181  0.9800  0.5659
 8007SOL    HW230474   0.724   6.584   3.435 -0.5667  0.9683  0.6159
 8009SOL     OW30475   3.780   6.710   4.214  0.0390  0.3981 -0.0922
 8009SOL    HW130476   3.792   6.613   4.195 -1.0039  0.3953 -0.7441
 8009SOL    HW230477   3.685   6.736   4.197 -0.2662  1.0152  2.3444
 8011SOL     OW30478   7.102   0.021   2.769 -0.5408 -0.0339  0.0430
 8011SOL    HW130479   7.068   0.006   2.676  2.0174  0.2294 -0.9724
 8011SOL    HW230480   7.171  -0.048   2.791  1.0922  1.7407  0.5935
 8012SOL     OW30481   7.029   0.218   2.943  0.4049 -0.7561  0.0746
 8012SOL    HW130482   6.976   0.295   2.906  0.3607 -0.4619  0.7370
 8012SOL    HW230483   7.046   0.152   2.871  0.9378  0.1521 -0.6375
 8013SOL     OW30484   7.348   5.635   0.499  0.0788  0.0365  0.1853
 8013SOL    HW130485   7.366   5.588   0.413  0.7800  0.9949 -0.1903
 8013SOL    HW230486   7.312   5.726   0.481  1.2902  0.6694  0.8899
 8014SOL     OW30487   8.446   2.753   5.364 -0.1173  0.6278  0.7847
 8014SOL    HW130488   8.497   2.788   5.442  0.0923  0.5132  0.6956
 8014SOL    HW230489   8.466   2.809   5.283  1.0569 -0.3561  0.3795
 8015SOL     OW30490   1.654   6.820   4.405 -0.5063  0.2518  0.3182
 8015SOL    HW130491   1.640   6.850   4.499 -0.0076  0.9603  0.1717
 8015SOL    HW230492   1.715   6.885   4.358 -0.4609 -0.2916 -0.3810
 8016SOL     OW30493   1.764   5.791   0.889  0.6072 -0.2026  0.5645
 8016SOL    HW130494   1.815   5.840   0.817  1.4370  0.3521  1.5209
 8016SOL    HW230495   1.781   5.693   0.880 -0.8260 -0.3117 -1.1781
 8017SOL     OW30496   5.136   9.034   6.422  0.1739  0.0360  0.2564
 8017SOL    HW130497   5.225   9.060   6.384  0.2184 -1.3305 -0.6247
 8017SOL    HW230498   5.103   8.952   6.375 -3.0083  2.2890 -1.5777
 8019SOL     OW30499   0.229   2.870   4.519 -0.1345 -0.1528 -0.2712
 8019SOL    HW130500   0.314   2.866   4.467 -0.2250 -0.1100 -0.4234
 8019SOL    HW230501   0.154   2.835   4.463 -0.3651  0.6088 -0.4361
 8020SOL     OW30502   2.352   8.862   2.350  0.2179  0.0803  0.6003
 8020SOL    HW130503   2.417   8.790   2.327  1.7366  1.7464 -0.4937
 8020SOL    HW230504   2.372   8.899   2.440  1.6706  1.4859 -0.2685
 8021SOL     OW30505   7.686   3.017   0.272 -0.0521  0.4863 -0.3247
 8021SOL    HW130506   7.629   3.017   0.354 -0.6756  1.6617 -0.7487
 8021SOL    HW230507   7.629   3.026   0.191  0.7363  1.9833 -0.7395
 8022SOL     OW30508   5.642   8.004   4.591 -0.0199 -0.7102  0.3015
 8022SOL    HW130509   5.546   8.018   4.616 -0.3133  0.2634 -1.3009
 8022SOL    HW230510   5.658   7.907   4.575 -0.9088 -0.8066 -0.0391
 8023SOL     OW30511   1.794   1.567   6.054 -0.0121 -0.2964 -0.2302
 8023SOL    HW130512   1.743   1.550   6.138 -2.5043  2.3142 -1.1316
 8023SOL    HW230513   1.839   1.656   6.060 -0.3798  0.0052 -1.7213
 8024SOL     OW30514   0.192   7.989   1.105 -0.2081 -0.1411  0.2794
 8024SOL    HW130515   0.105   8.037   1.117 -1.0446 -1.7877  0.9665
 8024SOL    HW230516   0.189   7.902   1.153  2.1292  0.1189  0.9634
 8025SOL     OW30517   0.337   1.856   0.054  0.0056  0.3300  0.4323
 8025SOL    HW130518   0.237   1.855   0.050 -0.0754  1.6172  1.6881
 8025SOL    HW230519   0.374   1.883  -0.035 -0.7765  0.1113  0.0421
 8026SOL     OW30520   8.041   9.515   8.192 -0.6602  0.4416  0.4657
 8026SOL    HW130521   7.989   9.462   8.126 -0.1330 -1.1118  1.2565
 8026SOL    HW230522   8.081   9.595   8.148  1.1114 -1.4745 -1.5144
 8027SOL     OW30523   3.589   4.594   2.556 -0.4971 -0.5765 -0.5494
 8027SOL    HW130524   3.491   4.604   2.538 -0.3096 -0.1055 -1.3377
 8027SOL    HW230525   3.637   4.575   2.470  0.2283  0.1877 -0.3247
 8028SOL     OW30526   6.271   8.644   5.812  0.1109  0.4545 -0.1206
 8028SOL    HW130527   6.283   8.716   5.744  1.8307  1.0652  0.7827
 8028SOL    HW230528   6.361   8.605   5.835 -0.6193 -0.8335  0.6247
 8029SOL     OW30529   2.473   0.415   1.811  0.2596  0.0290 -0.1140
 8029SOL    HW130530   2.420   0.359   1.875 -0.6741 -0.0564 -0.9534
 8029SOL    HW230531   2.563   0.432   1.850  0.8158 -2.6282 -0.1500
 8030SOL     OW30532   9.629   7.647   3.417  0.5015  0.5812  0.1596
 8030SOL    HW130533   9.618   7.662   3.319 -2.1443 -0.6068  0.2352
 8030SOL    HW230534   9.688   7.568   3.432  2.9157  2.2010 -0.3869
 8031SOL     OW30535   6.489   9.197   6.274 -0.4738 -0.0088  0.0916
 8031SOL    HW130536   6.521   9.149   6.356  0.4008  1.1033  0.3999
 8031SOL    HW230537   6.439   9.132   6.216  2.4802 -1.8375 -0.5002
 8032SOL     OW30538   0.557   4.830   6.200  0.3192  0.4112  0.1535
 8032SOL    HW130539   0.564   4.927   6.220 -1.2860  0.8146 -1.1595
 8032SOL    HW230540   0.483   4.790   6.253 -1.4777  0.7108 -2.0395
 8033SOL     OW30541   6.448   0.550   3.330  0.7891 -0.1685  0.4950
 8033SOL    HW130542   6.402   0.461   3.320 -0.4580  0.4382  0.7837
 8033SOL    HW230543   6.414   0.595   3.413  1.0139  0.8217  0.0531
 8034SOL     OW30544   8.739   3.823   3.106  0.4831 -0.2789  0.1886
 8034SOL    HW130545   8.801   3.894   3.140  0.0756  0.1999 -0.0580
 8034SOL    HW230546   8.758   3.736   3.153  1.0542 -0.0315  0.4147
 8035SOL     OW30547   4.406   5.195   6.272 -0.3604  0.3080  0.7421
 8035SOL    HW130548   4.415   5.103   6.233  0.3076  0.6041  0.1941
 8035SOL    HW230549   4.462   5.202   6.354 -0.7732  0.0839  1.0461
 8036SOL     OW30550   2.449   2.702   5.388 -0.2709 -0.2507  0.0449
 8036SOL    HW130551   2.522   2.654   5.436  0.8979 -0.1876 -1.6305
 8036SOL    HW230552   2.365   2.648   5.392  0.8531 -2.1521 -1.2759
 8037SOL     OW30553   0.552   0.492   1.800  0.5665  0.0586 -0.2442
 8037SOL    HW130554   0.608   0.409   1.806 -0.3381 -0.5392  0.0905
 8037SOL    HW230555   0.464   0.476   1.845  0.7350  1.5031  0.6246
 8039SOL     OW30556   4.170   1.714   1.408  0.0186  0.4286  0.3733
 8039SOL    HW130557   4.234   1.678   1.477 -0.7575  1.2832  1.5623
 8039SOL    HW230558   4.130   1.638   1.357 -2.0040 -0.4866  3.2025
 8040SOL     OW30559   2.539   6.164   5.574 -0.1884  0.1571  0.3838
 8040SOL    HW130560   2.531   6.066   5.593  1.3534  0.1342  0.9549
 8040SOL    HW230561   2.635   6.190   5.568 -0.5346  1.8898  1.6188
 8041SOL     OW30562   8.177   7.167   1.304  0.5226 -0.1544 -0.3416
 8041SOL    HW130563   8.084   7.130   1.308  0.1321  0.7084 -1.3161
 8041SOL    HW230564   8.208   7.168   1.209 -0.1869  3.7300 -0.6155
 8042SOL     OW30565   9.585   9.882   1.051  0.2347  0.2139 -0.1272
 8042SOL    HW130566   9.651   9.808   1.064 -0.0200 -0.4267 -2.1943
 8042SOL    HW230567   9.497   9.856   1.089 -0.1940 -1.1020 -1.9411
 8044SOL     OW30568   3.790   6.399   1.784 -0.0444 -0.3695  0.5568
 8044SOL    HW130569   3.763   6.394   1.688 -0.1010  0.8869  0.5092
 8044SOL    HW230570   3.776   6.309   1.826 -0.5737 -0.7745 -0.4490
 8045SOL     OW30571   8.523   8.301   5.511 -0.4029 -0.9000 -0.3552
 8045SOL    HW130572   8.436   8.293   5.558 -0.4340  0.4162 -0.1634
 8045SOL    HW230573   8.597   8.270   5.571 -0.4840  0.4053  0.4475
 8046SOL     OW30574   1.593   7.433   4.986  0.2845 -0.0166 -0.4003
 8046SOL    HW130575   1.574   7.509   4.924 -0.2777  0.6283  0.5513
 8046SOL    HW230576   1.691   7.413   4.986  0.2318 -0.3590 -1.8740
 8047SOL     OW30577   0.106   2.318   1.521  0.7490  0.1855  0.0356
 8047SOL    HW130578   0.105   2.219   1.530  2.6881  0.0645 -0.8582
 8047SOL    HW230579   0.156   2.358   1.598 -0.3675  0.5066  0.6041
 8048SOL     OW30580   4.308   7.290   5.083 -0.1396 -0.1303 -0.1805
 8048SOL    HW130581   4.273   7.199   5.103 -0.5668  0.3427  1.2934
 8048SOL    HW230582   4.288   7.314   4.988 -0.2566 -1.4622 -0.4938
 8049SOL     OW30583   0.927   2.705   1.306  0.0449 -0.2479  0.0604
 8049SOL    HW130584   0.859   2.633   1.289 -0.6379  0.5006 -0.4191
 8049SOL    HW230585   1.000   2.669   1.364 -0.5302 -1.1942  0.2078
 8050SOL     OW30586   5.397   2.024   0.208  0.0462 -0.6035 -0.1185
 8050SOL    HW130587   5.471   2.092   0.207  0.3690 -0.9665 -0.8154
 8050SOL    HW230588   5.349   2.030   0.296 -1.2586  1.9485 -0.9590
 8054SOL     OW30589   2.026   6.684   3.690  0.2760 -0.1513 -0.3268
 8054SOL    HW130590   1.952   6.747   3.667  1.3251  0.5533 -1.8070
 8054SOL    HW230591   2.018   6.601   3.635  0.1815 -0.3863  0.0362
 8055SOL     OW30592   4.231   8.276   1.748  0.2320  0.4184 -0.1495
 8055SOL    HW130593   4.191   8.184   1.745  0.2836  0.3911 -0.0450
 8055SOL    HW230594   4.173   8.335   1.804  1.5281 -0.2038  1.9202
 8056SOL     OW30595   3.542   7.314   3.047 -0.5079  0.4191  0.6716
 8056SOL    HW130596   3.480   7.306   2.970  0.2578 -1.3787  0.2034
 8056SOL    HW230597   3.591   7.401   3.043 -0.5588  0.3789 -0.7922
 8057SOL     OW30598   9.539   6.816   4.205  0.2306 -0.1328  0.9218
 8057SOL    HW130599   9.620   6.839   4.152  0.5509 -0.4172  1.2817
 8057SOL    HW230600   9.461   6.869   4.172 -0.0657 -1.8242 -1.1800
 8058SOL     OW30601   7.641   2.024   3.747 -0.0704 -0.1317  0.4783
 8058SOL    HW130602   7.570   2.033   3.816 -0.1575 -1.1775  0.5363
 8058SOL    HW230603   7.728   2.059   3.783 -0.2338 -0.1918  0.9325
 8059SOL     OW30604   9.530   6.746   3.433  0.1877  0.3810  0.7430
 8059SOL    HW130605   9.611   6.787   3.474  1.1176 -1.8833  1.2937
 8059SOL    HW230606   9.557   6.665   3.381 -1.8481 -1.1661  2.0069
 8060SOL     OW30607   3.772   5.757   1.628  0.8490 -0.6117 -0.0354
 8060SOL    HW130608   3.676   5.783   1.622  0.4929 -1.5783  1.2102
 8060SOL    HW230609   3.825   5.831   1.669  0.5544 -0.2585 -0.2983
 8061SOL     OW30610   0.716   7.229   3.705  0.4886 -0.4936 -0.2540
 8061SOL    HW130611   0.732   7.160   3.635  1.0668  0.5636 -1.1693
 8061SOL    HW230612   0.618   7.245   3.713  0.4230 -0.5508 -0.8899
 8064SOL     OW30613   3.665   7.321   5.969  0.1792 -0.0345  0.1392
 8064SOL    HW130614   3.676   7.225   5.945  0.0209  0.0932 -0.4608
 8064SOL    HW230615   3.712   7.378   5.902  0.3802  0.3028  0.5652
 8066SOL     OW30616   0.526   5.178   3.828 -0.1850 -0.2985 -0.0246
 8066SOL    HW130617   0.583   5.252   3.791  0.5152 -0.3627  0.8877
 8066SOL    HW230618   0.432   5.211   3.839 -0.1905  0.0027 -0.9729
 8067SOL     OW30619   3.556   2.874   3.808  0.2127 -0.4645 -0.3118
 8067SOL    HW130620   3.507   2.887   3.894 -0.2276 -1.6199 -0.3821
 8067SOL    HW230621   3.502   2.911   3.733 -0.0815 -0.8127 -0.2705
 8068SOL     OW30622   3.024   6.989   2.154 -0.2822 -0.3818  0.0892
 8068SOL    HW130623   3.124   6.984   2.152 -0.3454 -1.0285 -1.4250
 8068SOL    HW230624   2.988   7.001   2.062 -1.6561 -0.9804  0.5270
 8069SOL     OW30625   7.479   3.088   3.882 -0.1212 -0.7574  0.1012
 8069SOL    HW130626   7.451   3.049   3.969 -1.0276 -1.3954 -0.4599
 8069SOL    HW230627   7.492   3.187   3.891  0.6986 -0.9520  1.1686
 8070SOL     OW30628   9.185   5.715   2.550 -0.2004 -0.2569 -0.3238
 8070SOL    HW130629   9.092   5.724   2.586 -0.1315  0.4892 -0.3392
 8070SOL    HW230630   9.189   5.756   2.459  0.2968  0.2368 -0.0765
 8072SOL     OW30631   1.745   4.811   0.942  0.9881 -0.2540 -0.4691
 8072SOL    HW130632   1.779   4.800   1.035 -0.7327 -0.1712  0.1884
 8072SOL    HW230633   1.719   4.721   0.906  1.2803 -0.2342 -0.7325
 8073SOL     OW30634   9.427   4.673   4.945  0.1246  0.4791  0.5159
 8073SOL    HW130635   9.374   4.617   5.009  1.6551 -0.6819  0.7857
 8073SOL    HW230636   9.520   4.638   4.940  1.0656  2.9001  0.5403
 8074SOL     OW30637   0.354   4.850   5.892 -0.1865 -0.0376  0.2191
 8074SOL    HW130638   0.438   4.796   5.894  1.5145  2.4303 -0.8241
 8074SOL    HW230639   0.347   4.897   5.803 -1.7051  1.2177  0.9793
 8075SOL     OW30640   2.954   6.463   0.527  0.2765 -0.1461  0.3057
 8075SOL    HW130641   2.897   6.498   0.601  0.6950  0.2084  0.4618
 8075SOL    HW230642   2.902   6.395   0.474  0.0905 -0.6419  1.1152
 8076SOL     OW30643   1.682   3.290   3.861  0.9276  0.2054  0.4596
 8076SOL    HW130644   1.780   3.312   3.854  0.7255  0.5413 -1.5946
 8076SOL    HW230645   1.670   3.191   3.849  1.0884  0.0067  1.7858
 8077SOL     OW30646   0.295   7.070   5.476  0.0768 -0.2297  0.5910
 8077SOL    HW130647   0.221   7.006   5.495 -1.6396  1.2527 -0.9680
 8077SOL    HW230648   0.358   7.029   5.409 -0.5669 -0.5985  0.2062
 8078SOL     OW30649   3.265   0.278   1.501  0.1802 -0.4666 -0.3650
 8078SOL    HW130650   3.178   0.244   1.536  0.4368 -0.5509  0.1885
 8078SOL    HW230651   3.248   0.351   1.435 -0.2887 -0.1854  0.0657
 8079SOL     OW30652   2.927   3.347   4.542 -0.7501  0.1103  0.0536
 8079SOL    HW130653   3.003   3.285   4.560 -1.9589 -1.0350  1.2826
 8079SOL    HW230654   2.954   3.413   4.472  1.5561  0.0761  0.8794
 8080SOL     OW30655   0.957   5.131   6.349  0.5236  0.1425  0.0989
 8080SOL    HW130656   0.923   5.213   6.303 -0.8071  0.2764  1.2829
 8080SOL    HW230657   1.049   5.109   6.315  1.2989  2.6754  0.4597
 8082SOL     OW30658   3.156   3.923   4.285 -0.1235 -0.5408 -0.4638
 8082SOL    HW130659   3.232   3.863   4.309  0.4067  0.5285  0.5369
 8082SOL    HW230660   3.186   4.018   4.286 -1.2074 -0.1812 -1.1142
 8083SOL     OW30661   9.533   9.821   4.883  0.2817  0.1164 -0.3818
 8083SOL    HW130662   9.631   9.828   4.904  0.2409 -1.0777  0.2642
 8083SOL    HW230663   9.503   9.727   4.898 -1.0564  0.5742 -0.1789
 8085SOL     OW30664   0.969   9.649   4.897  0.2664  0.0601 -0.0489
 8085SOL    HW130665   0.896   9.663   4.964  0.1096 -2.4765  0.3480
 8085SOL    HW230666   0.946   9.572   4.837  1.5815  0.6788 -1.4030
 8086SOL     OW30667   8.627   6.724   5.320 -0.7784  0.4020  0.0383
 8086SOL    HW130668   8.621   6.819   5.290  1.7220  1.1448  1.6675
 8086SOL    HW230669   8.695   6.717   5.394  1.2363 -3.1225 -2.0110
 8087SOL     OW30670   0.230   2.325   3.360 -0.2042 -0.5040  0.0021
 8087SOL    HW130671   0.261   2.293   3.450 -0.8961 -0.7652  0.1550
 8087SOL    HW230672   0.297   2.300   3.291  1.0470  0.9825  0.6490
 8088SOL     OW30673   3.963   8.140   2.449  0.1338 -0.0957  0.3412
 8088SOL    HW130674   3.953   8.100   2.541 -0.4970  1.4786  0.9665
 8088SOL    HW230675   3.943   8.238   2.452  2.3928  0.4386 -1.0576
 8089SOL     OW30676   9.241   5.594   0.018  0.4356  0.4177  0.6856
 8089SOL    HW130677   9.154   5.595  -0.031  1.3629  0.6863 -0.9845
 8089SOL    HW230678   9.225   5.568   0.113 -1.2154 -1.5216 -0.0863
 8090SOL     OW30679   3.011   3.783   5.550  0.0920 -0.5089  0.3905
 8090SOL    HW130680   2.968   3.864   5.510  2.8707  0.9303  0.1851
 8090SOL    HW230681   2.962   3.701   5.520 -1.1392  0.9074 -1.5949
 8092SOL     OW30682   4.353   0.261   3.939  0.4760  0.3927  0.6802
 8092SOL    HW130683   4.439   0.214   3.919  0.1153 -0.0714  0.1955
 8092SOL    HW230684   4.277   0.207   3.902 -0.0303  0.7246  1.2362
 8093SOL     OW30685   6.595   1.192   4.492 -0.2334  0.0433  0.0814
 8093SOL    HW130686   6.553   1.165   4.578 -0.4003  0.9471  0.2892
 8093SOL    HW230687   6.525   1.197   4.421 -0.0588 -0.9275 -0.1681
 8094SOL     OW30688   1.918   6.872   0.246 -0.0673 -0.0701 -0.1783
 8094SOL    HW130689   1.864   6.798   0.285 -1.3654  0.4070 -1.0543
 8094SOL    HW230690   1.967   6.839   0.166  0.3793 -0.3091  0.1885
 8095SOL     OW30691   9.585   4.538   1.245 -0.0005 -0.0729 -0.4303
 8095SOL    HW130692   9.603   4.633   1.270  1.3138 -0.1115 -1.1921
 8095SOL    HW230693   9.492   4.514   1.272  0.0856  1.0406  0.9410
 8096SOL     OW30694   9.796   5.801   4.963  0.1006  0.1154 -0.2007
 8096SOL    HW130695   9.756   5.866   4.899  0.1381 -1.5521 -1.9605
 8096SOL    HW230696   9.779   5.831   5.057 -0.3694  2.3393 -0.9773
 8097SOL     OW30697   0.900   1.650   6.380 -0.2475 -0.2850 -0.4162
 8097SOL    HW130698   0.956   1.678   6.458  0.9742 -2.6714 -0.4028
 8097SOL    HW230699   0.955   1.654   6.296 -0.4486 -1.3377 -0.6014
 8099SOL     OW30700   3.239   4.054   6.084 -0.0202  0.3597 -0.5483
 8099SOL    HW130701   3.334   4.023   6.076 -0.2684 -0.6222  0.2474
 8099SOL    HW230702   3.183   4.007   6.015 -0.4463 -1.1966  0.8353
 8100SOL     OW30703   1.086   2.076   1.357 -0.4906  0.3906 -0.4304
 8100SOL    HW130704   1.044   2.106   1.443 -1.1018 -0.2297 -0.5107
 8100SOL    HW230705   1.017   2.036   1.298 -0.4907  2.8932 -2.1910
 8101SOL     OW30706   5.830   8.256   4.227 -0.0308 -0.0585  0.0336
 8101SOL    HW130707   5.806   8.284   4.319 -0.2601 -1.3400  0.3799
 8101SOL    HW230708   5.803   8.160   4.213  2.7547 -0.8437 -0.3441
 8102SOL     OW30709   1.519   1.315   3.686 -0.1084 -0.6750 -0.1213
 8102SOL    HW130710   1.527   1.217   3.666  0.4137 -0.7327  0.3733
 8102SOL    HW230711   1.585   1.366   3.631 -0.0267 -0.6499 -0.0002
 8103SOL     OW30712   1.666   5.820   5.716  0.4236 -0.2878 -0.3157
 8103SOL    HW130713   1.661   5.813   5.616 -1.9245  0.2024 -0.2644
 8103SOL    HW230714   1.671   5.916   5.743  0.5073 -0.3934  0.0535
 8104SOL     OW30715   5.243   8.348   5.697  0.0652 -0.1139 -0.1413
 8104SOL    HW130716   5.223   8.253   5.673  0.8484  0.1800 -1.9931
 8104SOL    HW230717   5.226   8.406   5.618 -0.8552  1.3731  1.1137
 8105SOL     OW30718   0.084   0.219   3.287  0.3296 -0.1793 -0.1689
 8105SOL    HW130719   0.111   0.309   3.321 -0.6080 -0.0617  0.3069
 8105SOL    HW230720   0.135   0.148   3.335 -0.5447  0.0172  1.0838
 8108SOL     OW30721   4.373   0.928   0.163  0.5283  0.1648 -0.0932
 8108SOL    HW130722   4.446   0.947   0.098  0.5857 -0.4134 -0.1946
 8108SOL    HW230723   4.406   0.944   0.256  1.1743 -1.3283 -0.0565
 8109SOL     OW30724   1.246   4.080   6.176 -0.0119  0.4513 -0.4301
 8109SOL    HW130725   1.147   4.072   6.182 -0.3267  2.8251 -1.6499
 8109SOL    HW230726   1.283   4.109   6.265 -0.5240  0.3896 -0.1999
 8110SOL     OW30727   5.183   7.605   2.422 -0.1292 -0.3505 -0.1285
 8110SOL    HW130728   5.107   7.640   2.477  1.1940  0.2924  1.3016
 8110SOL    HW230729   5.182   7.505   2.425 -1.5922 -0.3839 -1.0626
 8111SOL     OW30730   3.709   1.432   5.439 -0.0555 -0.0691 -0.7537
 8111SOL    HW130731   3.682   1.504   5.503 -0.8191 -0.4046 -0.6994
 8111SOL    HW230732   3.756   1.474   5.361 -0.5944  0.4970 -0.7775
 8112SOL     OW30733   0.624   2.630   1.464 -0.3658 -0.4520 -0.3248
 8112SOL    HW130734   0.676   2.716   1.465  0.2802 -0.8423  0.1738
 8112SOL    HW230735   0.681   2.557   1.501  0.2249 -1.7393 -3.5531
 8113SOL     OW30736   7.029   0.090   4.443  0.3720  0.1810 -0.0014
 8113SOL    HW130737   7.076   0.147   4.511 -0.7079  1.4083 -0.2533
 8113SOL    HW230738   7.064   0.111   4.352 -0.4840  0.9478 -0.1667
 8114SOL     OW30739   3.698   6.213   4.250 -0.0001  0.1203 -0.1539
 8114SOL    HW130740   3.775   6.245   4.195 -0.0090 -0.3910 -0.4776
 8114SOL    HW230741   3.627   6.175   4.189 -0.8378  1.2722  0.0871
 8115SOL     OW30742   7.950   1.238   3.088 -0.4151  0.1023  0.0690
 8115SOL    HW130743   7.950   1.144   3.122 -0.6460  0.2376  0.4468
 8115SOL    HW230744   8.003   1.243   3.003  1.1354 -0.0229  1.0044
 8116SOL     OW30745   8.255   7.934   4.432 -0.1706 -0.4171  0.2521
 8116SOL    HW130746   8.273   7.845   4.473 -1.5643 -1.1296 -0.6223
 8116SOL    HW230747   8.251   7.925   4.332 -0.0541  0.6713  0.1418
 8118SOL     OW30748   7.174   4.691   0.719 -0.5508  0.7271 -0.7844
 8118SOL    HW130749   7.185   4.791   0.719  1.2618  0.5523  1.9140
 8118SOL    HW230750   7.152   4.660   0.811  1.5150 -1.6515 -1.0608
 8120SOL     OW30751   2.356   2.014   3.135 -0.7171  0.2899 -0.0936
 8120SOL    HW130752   2.403   1.962   3.063 -1.1584 -0.9398  0.4947
 8120SOL    HW230753   2.258   1.996   3.130 -0.8039  0.6002  0.4897
 8121SOL     OW30754   1.826   1.075   4.651 -0.4732 -0.6258  0.0542
 8121SOL    HW130755   1.774   1.153   4.684 -3.5262 -0.8326 -3.9670
 8121SOL    HW230756   1.812   0.998   4.714 -0.7883  0.8130  1.8034
 8122SOL     OW30757   1.830   5.157   2.307  0.0099  0.2144 -0.2121
 8122SOL    HW130758   1.744   5.145   2.258  0.3271 -0.0755 -0.7020
 8122SOL    HW230759   1.836   5.251   2.341 -0.6888  0.1145  0.1902
 8123SOL     OW30760   7.926   4.050   4.878  0.3130 -0.2246  0.6741
 8123SOL    HW130761   7.947   4.123   4.943  0.3427 -0.2400  0.6816
 8123SOL    HW230762   7.952   4.079   4.786  1.2902 -0.6264  0.8182
 8124SOL     OW30763   4.956   5.306   3.563 -0.4005  0.4959 -0.5878
 8124SOL    HW130764   4.869   5.334   3.522 -1.7271 -1.4876  0.7719
 8124SOL    HW230765   4.938   5.241   3.637  2.3032 -0.7917 -1.0071
 8125SOL     OW30766   3.809   7.385   5.337  0.5583 -0.5956 -0.5587
 8125SOL    HW130767   3.858   7.464   5.374 -0.2025 -0.8873  1.1425
 8125SOL    HW230768   3.712   7.407   5.332  0.7189 -0.3708 -2.9614
 8126SOL     OW30769   5.091   5.627   0.344 -0.7882 -0.7422 -0.1073
 8126SOL    HW130770   5.141   5.709   0.317  0.7184 -1.2834  1.0182
 8126SOL    HW230771   5.065   5.634   0.440 -1.3301 -1.2576 -0.2103
 8128SOL     OW30772   7.693   2.997   3.528  0.0331 -0.1435  0.2512
 8128SOL    HW130773   7.741   3.082   3.505 -0.7588  0.5589  1.1540
 8128SOL    HW230774   7.746   2.946   3.595 -0.3380  0.4868  1.0233
 8129SOL     OW30775   7.351   8.434   6.366  0.0969  0.4364 -0.4064
 8129SOL    HW130776   7.274   8.423   6.429  0.0263 -1.6670 -0.8093
 8129SOL    HW230777   7.433   8.395   6.408  0.4085  0.5030 -0.9550
 8130SOL     OW30778   6.600   4.209   1.074  0.5824 -0.0120 -0.2603
 8130SOL    HW130779   6.516   4.166   1.040  0.6338  0.9485 -1.6553
 8130SOL    HW230780   6.578   4.264   1.155  0.1190 -0.8889  0.2076
 8131SOL     OW30781   9.177   8.320   1.070 -0.3716  0.3807 -0.1578
 8131SOL    HW130782   9.142   8.407   1.035 -0.9312  0.6730  1.0924
 8131SOL    HW230783   9.273   8.330   1.096 -0.5745  0.7740  0.4559
 8132SOL     OW30784   3.734   5.130   4.145 -0.8425  0.0984  0.0466
 8132SOL    HW130785   3.796   5.208   4.138  0.4765 -0.8785  0.7318
 8132SOL    HW230786   3.732   5.097   4.239 -1.1828 -0.8642 -0.2919
 8133SOL     OW30787   6.490   0.970   5.407 -0.2301 -0.1966  0.5374
 8133SOL    HW130788   6.562   0.996   5.344  0.4105  0.5066  1.5372
 8133SOL    HW230789   6.401   0.998   5.369  0.0590 -0.6285 -0.4678
 8134SOL     OW30790   6.711   2.497   5.156 -0.4397  0.0778 -0.1099
 8134SOL    HW130791   6.627   2.476   5.106 -1.0142  2.1318 -0.0623
 8134SOL    HW230792   6.775   2.544   5.095  0.4719 -1.0157 -0.0038
 8135SOL     OW30793   7.580   3.121   2.138 -0.2940 -0.1285 -0.0426
 8135SOL    HW130794   7.523   3.040   2.150 -0.9047  0.2766 -0.1642
 8135SOL    HW230795   7.551   3.192   2.203 -0.7590  0.5225 -0.9470
 8136SOL     OW30796   8.269   7.191   2.967  0.6385 -0.4371 -0.3575
 8136SOL    HW130797   8.235   7.217   3.058  0.2488 -1.8933 -0.0749
 8136SOL    HW230798   8.346   7.130   2.977 -0.9097 -2.5429 -0.9934
 8138SOL     OW30799   2.663   1.268   0.408  0.3588  0.1758 -0.3069
 8138SOL    HW130800   2.584   1.326   0.387  1.4452  0.9819 -2.3351
 8138SOL    HW230801   2.663   1.190   0.345  1.7640  0.7670 -1.0564
 8140SOL     OW30802   7.931   6.792   4.557  0.7341 -0.0838  0.2977
 8140SOL    HW130803   7.890   6.721   4.614  0.2624 -1.3689 -1.5725
 8140SOL    HW230804   8.025   6.767   4.534  0.4829 -0.2332 -0.5788
 8141SOL     OW30805   3.335   3.497   6.290 -0.3425 -0.7816  0.2677
 8141SOL    HW130806   3.259   3.554   6.322 -0.0503 -0.9518  1.3052
 8141SOL    HW230807   3.330   3.486   6.191 -1.1437 -0.0307  0.2205
 8142SOL     OW30808   4.090   4.730   0.117 -0.7407  0.1738  0.2195
 8142SOL    HW130809   4.064   4.820   0.082  0.4941  0.2184 -0.6267
 8142SOL    HW230810   4.152   4.741   0.194 -1.1744  0.0464  0.5902
 8143SOL     OW30811   9.045   8.423   2.348  0.1417 -0.0666  0.6659
 8143SOL    HW130812   9.052   8.372   2.434  2.4888 -3.1353 -1.2383
 8143SOL    HW230813   9.117   8.492   2.345 -0.9876  1.1785  1.8551
 8144SOL     OW30814   7.601   2.012   2.406  0.1993  0.3178  0.5230
 8144SOL    HW130815   7.558   1.976   2.489  1.2970 -2.8664 -0.2201
 8144SOL    HW230816   7.696   2.037   2.425 -0.3548  2.2584  0.8620
 8146SOL     OW30817   9.356   5.314   2.201  0.2959 -0.0743 -0.3325
 8146SOL    HW130818   9.397   5.401   2.230 -0.1091 -0.1000  0.3261
 8146SOL    HW230819   9.382   5.242   2.265 -0.2883 -0.2064 -0.2362
 8148SOL     OW30820   9.719   9.844   2.632  0.1728  0.1711 -0.0332
 8148SOL    HW130821   9.795   9.778   2.632  1.2430  1.3592 -1.4728
 8148SOL    HW230822   9.650   9.815   2.698  0.7008 -2.2802 -0.4992
 8149SOL     OW30823   4.440   0.022   5.607  0.1328  0.4729  0.1037
 8149SOL    HW130824   4.426   0.044   5.704 -0.7885 -0.1442  0.1190
 8149SOL    HW230825   4.431   0.105   5.553 -0.1869  0.6776  0.4653
 8150SOL     OW30826   4.101   0.078   1.487  0.3794 -0.6607  0.3360
 8150SOL    HW130827   4.049   0.073   1.572  0.4088 -3.2391  0.2233
 8150SOL    HW230828   4.038   0.080   1.409  0.3547  1.6054  0.3742
 8151SOL     OW30829   1.837   5.243   1.144 -0.3058  0.0124 -0.3086
 8151SOL    HW130830   1.920   5.198   1.112  0.5582  0.1499  1.6197
 8151SOL    HW230831   1.759   5.215   1.088  0.2664 -3.6542  0.5822
 8152SOL     OW30832   0.888   9.748   0.727 -0.4126 -1.0184  0.3353
 8152SOL    HW130833   0.905   9.654   0.696  1.1216 -0.3758 -0.8993
 8152SOL    HW230834   0.893   9.809   0.648 -0.1754  0.2325  1.3118
 8153SOL     OW30835   4.935   5.113   0.672  0.0427  0.6898 -0.4706
 8153SOL    HW130836   4.897   5.071   0.755  1.8809  1.3812  0.7544
 8153SOL    HW230837   5.030   5.084   0.660  1.1258  3.8161 -0.0031
 8155SOL     OW30838   7.326   8.558   3.328  0.6004  0.0142  0.1058
 8155SOL    HW130839   7.300   8.637   3.384 -0.0610 -1.2049  1.5508
 8155SOL    HW230840   7.264   8.551   3.250  1.4741  1.6745 -0.7662
 8156SOL     OW30841   4.548   1.418   3.036  0.6671  0.1240 -0.4589
 8156SOL    HW130842   4.514   1.503   3.077  0.1603 -0.5943  0.6504
 8156SOL    HW230843   4.641   1.401   3.067  1.0822  0.7004 -1.3581
 8157SOL     OW30844   5.529   8.481   3.078 -0.5885  0.0914  0.4117
 8157SOL    HW130845   5.453   8.489   3.143  0.8738 -0.5301  2.2619
 8157SOL    HW230846   5.509   8.410   3.011 -1.6511 -0.0443  0.8623
 8158SOL     OW30847   9.612   5.914   5.166 -0.2039 -0.3540 -0.0074
 8158SOL    HW130848   9.646   6.007   5.181 -0.8731 -0.1201  0.0361
 8158SOL    HW230849   9.667   5.851   5.221 -0.8353  0.2024  1.2890
 8160SOL     OW30850   6.115   8.472   5.092  0.7122 -0.2487 -0.2176
 8160SOL    HW130851   6.146   8.561   5.125  0.2793  0.2552 -1.1672
 8160SOL    HW230852   6.020   8.479   5.061  1.4700 -0.4112 -2.6759
 8161SOL     OW30853   9.893   5.174   0.293 -0.1970 -0.5381  0.1754
 8161SOL    HW130854   9.936   5.108   0.353 -1.3837 -1.0548  0.4756
 8161SOL    HW230855   9.871   5.130   0.206  1.4274  0.1815 -0.6150
 8162SOL     OW30856   8.061   8.583   5.187  0.0974 -0.1830  0.6874
 8162SOL    HW130857   8.030   8.545   5.275  0.5445  0.5088  1.1404
 8162SOL    HW230858   7.983   8.587   5.124 -0.1320 -1.0979  0.8943
 8163SOL     OW30859   6.270   0.458   3.608 -0.0804  0.2984  0.1888
 8163SOL    HW130860   6.255   0.553   3.635  0.2741  0.3159  0.3215
 8163SOL    HW230861   6.235   0.397   3.680  1.5879  0.3522  1.0797
 8164SOL     OW30862   9.773   7.401   2.400  0.3204  0.6879 -0.3360
 8164SOL    HW130863   9.820   7.478   2.441 -1.3917  1.0462  1.0093
 8164SOL    HW230864   9.700   7.370   2.460 -1.7954  0.7675 -2.7577
 8165SOL     OW30865   3.508   0.275   5.087  0.1490  0.4719 -0.3226
 8165SOL    HW130866   3.555   0.200   5.133 -0.3560 -0.7547 -1.7604
 8165SOL    HW230867   3.564   0.358   5.091  0.3429  0.2545  1.9969
 8166SOL     OW30868   9.320   9.362   1.351 -0.4876 -0.3432 -0.8114
 8166SOL    HW130869   9.299   9.354   1.253 -3.5084  0.5817 -0.3065
 8166SOL    HW230870   9.235   9.355   1.404  1.1943 -1.5202  1.8082
 8167SOL     OW30871   8.729   3.520   6.443  0.2729  0.2624  0.0094
 8167SOL    HW130872   8.639   3.507   6.401  0.2883  0.4881 -0.0959
 8167SOL    HW230873   8.759   3.614   6.429  2.3338 -0.8127 -3.6044
 8169SOL     OW30874   5.427   8.389   3.602 -0.4573  0.2250 -0.1289
 8169SOL    HW130875   5.511   8.382   3.549 -1.2213  1.4574 -1.5410
 8169SOL    HW230876   5.429   8.322   3.676  1.1703 -0.6757 -0.9535
 8170SOL     OW30877   7.648   6.327   5.633  0.0300  0.1762  0.2182
 8170SOL    HW130878   7.707   6.274   5.572 -1.6161 -3.2211  1.4504
 8170SOL    HW230879   7.702   6.361   5.710  0.7624 -1.3020  0.3692
 8171SOL     OW30880   9.742   1.034   4.922 -0.3280 -0.0469 -0.1565
 8171SOL    HW130881   9.731   0.942   4.960  0.2877  0.2361  0.7293
 8171SOL    HW230882   9.694   1.040   4.835  1.0437 -1.7397 -1.0703
 8172SOL     OW30883   3.600   3.526   6.082 -0.5647  0.1186  0.2220
 8172SOL    HW130884   3.594   3.620   6.113 -1.1837 -0.5019  2.0704
 8172SOL    HW230885   3.683   3.484   6.118 -1.1700 -0.5477  0.8547
 8173SOL     OW30886   8.270   7.044   0.129 -0.3300 -0.7872  0.1437
 8173SOL    HW130887   8.201   7.095   0.180  1.6623 -0.8190  2.9899
 8173SOL    HW230888   8.284   6.955   0.172 -0.7883 -2.1011 -2.3301
 8174SOL     OW30889   0.402   8.208   5.076  0.0667  0.3292  0.1329
 8174SOL    HW130890   0.308   8.174   5.066 -0.4821  0.8051  3.0803
 8174SOL    HW230891   0.433   8.247   4.989 -2.7298  0.8293 -0.7023
 8176SOL     OW30892   3.325   4.157   3.145  0.3171 -0.5893  0.0562
 8176SOL    HW130893   3.365   4.080   3.094  1.1138  0.0313 -0.2475
 8176SOL    HW230894   3.225   4.145   3.148  0.4208 -1.5616 -0.1195
 8177SOL     OW30895   9.121   2.955   1.397 -0.5977  0.2816  0.1866
 8177SOL    HW130896   9.074   2.886   1.341 -1.5562  0.3878  0.8480
 8177SOL    HW230897   9.102   2.938   1.494  3.3928 -1.6780  0.7466
 8178SOL     OW30898   9.774   0.255   0.987 -0.7556  0.0554  0.0925
 8178SOL    HW130899   9.774   0.283   0.890 -1.9516 -0.8734 -0.1766
 8178SOL    HW230900   9.811   0.162   0.994 -0.3587  0.2515  0.5662
 8179SOL     OW30901   8.711   1.375   1.371 -0.1640  0.1980 -0.1392
 8179SOL    HW130902   8.780   1.354   1.441 -0.4621  0.5714  0.2728
 8179SOL    HW230903   8.675   1.289   1.334  0.0910 -0.0037  0.0731
 8180SOL     OW30904   1.832   4.512   1.532  0.1124  0.0505  0.4757
 8180SOL    HW130905   1.800   4.587   1.589 -0.4935 -1.2628  1.9115
 8180SOL    HW230906   1.788   4.427   1.561  1.3937 -1.0059 -0.5928
 8181SOL     OW30907   5.671   9.565   3.061  0.0630 -0.0750  0.2381
 8181SOL    HW130908   5.709   9.586   2.971 -1.6180  0.5808 -0.3429
 8181SOL    HW230909   5.736   9.594   3.132  0.5032  1.3332 -0.7110
 8183SOL     OW30910   2.703   6.504   5.507  0.2828 -0.5189 -0.4937
 8183SOL    HW130911   2.717   6.579   5.571 -1.0061  0.0004 -0.7881
 8183SOL    HW230912   2.785   6.490   5.452  2.1117 -2.2464  2.5720
 8184SOL     OW30913   2.331   2.102   2.066 -0.0471 -0.1191  0.3877
 8184SOL    HW130914   2.376   2.127   2.152  0.8681  0.8772 -0.3683
 8184SOL    HW230915   2.394   2.120   1.990 -1.5315  0.7372 -0.6423
 8186SOL     OW30916   2.852   8.365   1.139 -0.5807  0.5400  0.6190
 8186SOL    HW130917   2.797   8.341   1.059  0.7678 -0.1449 -0.1183
 8186SOL    HW230918   2.829   8.303   1.214 -1.7976  1.1388  0.7627
 8187SOL     OW30919   4.868   5.759   1.054  0.0214  0.0996 -0.3305
 8187SOL    HW130920   4.911   5.679   1.096  0.2029  0.8228  0.8744
 8187SOL    HW230921   4.914   5.780   0.967  1.3251  0.1494  0.3664
 8188SOL     OW30922   0.537   3.456   2.194 -0.0009 -0.2313 -0.4442
 8188SOL    HW130923   0.560   3.390   2.123  0.5093  2.4341 -2.8420
 8188SOL    HW230924   0.621   3.494   2.232 -0.2378  2.3973 -2.3863
 8189SOL     OW30925   7.469   9.181   2.367 -0.1996 -0.0534 -0.2104
 8189SOL    HW130926   7.519   9.117   2.310  1.4705 -0.8131  2.0615
 8189SOL    HW230927   7.372   9.157   2.367 -0.0797 -0.6050 -1.9296
 8190SOL     OW30928   2.772   4.574   0.925  0.1028 -0.1726 -0.5701
 8190SOL    HW130929   2.818   4.615   1.003 -1.4087  1.7729 -0.6573
 8190SOL    HW230930   2.830   4.503   0.885  1.3851 -0.3790  1.5779
 8191SOL     OW30931   5.756   1.173   2.099 -0.0699 -0.0061 -0.3767
 8191SOL    HW130932   5.814   1.230   2.157 -0.7810  0.6587 -0.2995
 8191SOL    HW230933   5.811   1.128   2.029  0.3264  1.7773 -1.2272
 8192SOL     OW30934   3.925   5.978   1.734  0.3393 -0.0523  0.2775
 8192SOL    HW130935   3.929   6.007   1.638 -0.3025 -0.4446  0.1275
 8192SOL    HW230936   4.017   5.953   1.765  0.7943  1.4807  0.2118
 8193SOL     OW30937   3.025   7.026   5.343  0.2174  0.2528 -0.0383
 8193SOL    HW130938   2.962   6.958   5.381  0.7498  1.0633  2.3932
 8193SOL    HW230939   3.105   7.033   5.403  1.2267  1.3749 -1.4969
 8194SOL     OW30940   4.100   1.973   6.422  0.2257  0.7400 -0.0802
 8194SOL    HW130941   4.168   2.025   6.473  1.7823 -0.6457 -0.6941
 8194SOL    HW230942   4.094   2.009   6.328  0.7516  0.3121 -0.2805
 8196SOL     OW30943   1.109   6.581   6.378  0.6203 -0.0221  0.3465
 8196SOL    HW130944   1.062   6.523   6.445  2.9208 -1.4062  0.8362
 8196SOL    HW230945   1.100   6.541   6.287  0.1483  0.1566  0.3165
 8197SOL     OW30946   9.091   1.674   0.357 -0.2757 -0.3779  0.4993
 8197SOL    HW130947   8.994   1.669   0.334  0.5997  1.3946 -3.9787
 8197SOL    HW230948   9.106   1.753   0.416 -1.2523  0.4615 -0.3605
 8198SOL     OW30949   4.922   1.809   1.623 -0.0820  0.5029  0.2748
 8198SOL    HW130950   4.943   1.749   1.546  1.4066  0.2777  0.8348
 8198SOL    HW230951   4.866   1.885   1.592 -0.4225 -0.1804 -0.8081
 8199SOL     OW30952   1.720   8.350   1.617 -0.3619  0.4379 -0.4898
 8199SOL    HW130953   1.659   8.275   1.590  1.3594 -0.8266 -0.9648
 8199SOL    HW230954   1.815   8.321   1.606  0.3772  1.4267  2.8331
 8200SOL     OW30955   4.008   3.948   2.975  0.2380 -0.1858  0.0398
 8200SOL    HW130956   3.989   3.882   3.048 -0.9369 -0.4271 -0.4643
 8200SOL    HW230957   3.935   4.017   2.973 -0.8001 -1.3017 -2.1513
 8201SOL     OW30958   2.691   8.031   1.462 -0.1305  0.6230  0.2252
 8201SOL    HW130959   2.755   8.087   1.514  0.1738 -1.5845  2.2807
 8201SOL    HW230960   2.598   8.045   1.497 -0.4052  1.5600 -0.8101
 8203SOL     OW30961   9.927   5.461   1.451 -0.2687  0.1715  0.1375
 8203SOL    HW130962   9.990   5.528   1.491 -1.0375  0.8966  0.1505
 8203SOL    HW230963   9.833   5.484   1.477 -0.5400 -0.9449  0.1859
 8204SOL     OW30964   7.933   2.648   6.019  0.4490 -0.8467 -0.5420
 8204SOL    HW130965   7.978   2.583   6.080 -0.5593 -1.0806 -0.0243
 8204SOL    HW230966   7.913   2.732   6.069 -0.1855 -0.9568 -0.6092
 8205SOL     OW30967   2.203   9.330   5.536 -0.1812 -0.4177  0.0854
 8205SOL    HW130968   2.153   9.247   5.510 -0.8829 -0.2787  0.9652
 8205SOL    HW230969   2.272   9.351   5.467 -0.8899 -0.9970 -0.7975
 8206SOL     OW30970   3.907   5.027   1.761  0.2688 -0.5085  0.5375
 8206SOL    HW130971   3.892   5.108   1.705  0.0462 -0.9140 -0.0069
 8206SOL    HW230972   3.941   5.053   1.851 -2.7520  0.4039  1.4774
 8207SOL     OW30973   8.775   9.792   5.848  0.3004 -0.5971  0.0119
 8207SOL    HW130974   8.780   9.718   5.781 -0.9894 -0.6718 -0.0133
 8207SOL    HW230975   8.777   9.753   5.940  0.6182 -0.5975  0.0038
 8208SOL     OW30976   6.148   5.348   0.876  0.1860 -0.1403 -0.1285
 8208SOL    HW130977   6.164   5.444   0.854  0.8444 -0.1859  0.1296
 8208SOL    HW230978   6.108   5.302   0.797  0.1722  0.2753 -0.3647
 8210SOL     OW30979   8.962   3.596   3.062  0.7151 -0.4615  0.5409
 8210SOL    HW130980   9.031   3.545   3.010  1.7296 -0.4759  1.8608
 8210SOL    HW230981   8.872   3.557   3.044  1.1271 -0.8800 -0.6917
 8211SOL     OW30982   6.770   7.293   5.031 -0.2342  0.0953 -0.6073
 8211SOL    HW130983   6.836   7.239   5.084  1.4825  0.9965 -1.8272
 8211SOL    HW230984   6.764   7.257   4.938 -1.2483  0.2195 -0.5995
 8212SOL     OW30985   4.151   4.049   3.451 -0.1756  0.3623  0.9020
 8212SOL    HW130986   4.167   4.135   3.500 -0.9911  0.9759  0.1052
 8212SOL    HW230987   4.183   4.058   3.357 -0.5499 -0.0990  0.7288
 8213SOL     OW30988   3.918   3.687   2.121  0.0126 -0.3500  0.0336
 8213SOL    HW130989   3.995   3.742   2.153 -0.0065 -0.0888 -0.3629
 8213SOL    HW230990   3.879   3.637   2.198 -0.4945  0.8305  0.5518
 8214SOL     OW30991   0.961   3.159   0.340 -0.5105  0.2847 -0.1384
 8214SOL    HW130992   0.992   3.179   0.247  0.6272 -0.8106 -0.0097
 8214SOL    HW230993   0.870   3.119   0.337 -0.2511 -0.2694 -0.8362
 8215SOL     OW30994   7.813   4.184   6.423 -0.4455  0.9580 -0.0986
 8215SOL    HW130995   7.872   4.229   6.490 -0.3828 -0.3146  0.7139
 8215SOL    HW230996   7.722   4.224   6.425 -0.1739  1.5637  0.0761
 8217SOL     OW30997   1.541   4.758   6.237 -0.0285  0.0928 -0.5187
 8217SOL    HW130998   1.627   4.734   6.192  1.1818  1.6458  0.9035
 8217SOL    HW230999   1.480   4.801   6.171  0.4698 -0.5825 -1.4310
 8219SOL     OW31000   9.452   1.381   1.274 -0.2552 -0.5414  0.9943
 8219SOL    HW131001   9.385   1.318   1.236  1.0441 -1.4486  0.1591
 8219SOL    HW231002   9.418   1.419   1.361 -3.0387  1.1656 -0.7844
 8221SOL     OW31003   7.433   3.125   3.381  0.0492 -0.6241  0.4043
 8221SOL    HW131004   7.364   3.180   3.427 -0.8479 -1.2560 -0.1858
 8221SOL    HW231005   7.466   3.054   3.443 -0.5887 -0.9781  0.3408
 8222SOL     OW31006   4.345   3.278   2.433 -0.1892 -0.0766  0.1964
 8222SOL    HW131007   4.385   3.291   2.524 -0.5579 -1.2249  0.5331
 8222SOL    HW231008   4.255   3.236   2.442  0.2265 -1.2027 -0.7409
 8223SOL     OW31009   7.985   9.580   0.269  0.7213 -0.3720 -0.3136
 8223SOL    HW131010   7.993   9.527   0.186 -0.1858  1.0215 -1.3151
 8223SOL    HW231011   8.069   9.632   0.285  1.0742 -1.0114 -0.0921
 8224SOL     OW31012   3.248   9.173   1.736 -0.2939  0.1457 -0.4140
 8224SOL    HW131013   3.343   9.162   1.704 -0.3668 -0.9092 -0.2982
 8224SOL    HW231014   3.248   9.192   1.834 -0.2673 -2.0664  0.0447
 8225SOL     OW31015   3.728   9.922   4.535  0.1045  0.0990 -0.3310
 8225SOL    HW131016   3.793   9.995   4.555  0.1965  0.1481 -0.7953
 8225SOL    HW231017   3.671   9.949   4.457  1.0900 -0.9022 -1.4295
 8227SOL     OW31018   1.724   6.349   4.632 -0.2720  0.1877  0.2012
 8227SOL    HW131019   1.816   6.324   4.602  0.1412  1.6898  0.1667
 8227SOL    HW231020   1.678   6.403   4.561  0.0869  2.3158  1.5166
 8228SOL     OW31021   2.941   6.228   4.559 -0.1697  1.3158 -0.5158
 8228SOL    HW131022   2.897   6.232   4.649 -0.3849  0.3311 -0.5711
 8228SOL    HW231023   3.039   6.212   4.570 -0.1945  1.2049 -0.4466
 8229SOL     OW31024   1.567   1.619   5.785 -0.1476  0.4831  0.0465
 8229SOL    HW131025   1.509   1.550   5.827  1.0292  1.3036  3.1470
 8229SOL    HW231026   1.662   1.588   5.785 -0.1394  0.4134 -2.2704
 8230SOL     OW31027   9.441   3.041   3.247 -0.8705  0.2395 -0.3270
 8230SOL    HW131028   9.464   3.120   3.190  1.7159 -0.9797 -1.0825
 8230SOL    HW231029   9.391   2.974   3.193 -0.1453 -0.0627 -0.6316
 8231SOL     OW31030   0.609   5.575   2.410  0.3145  0.6482  0.3774
 8231SOL    HW131031   0.646   5.668   2.403  1.3800  0.2656  0.9884
 8231SOL    HW231032   0.670   5.518   2.465 -0.3917 -0.3925  0.0974
 8232SOL     OW31033   9.143   9.106   3.663  0.5743 -0.1778  0.1574
 8232SOL    HW131034   9.190   9.080   3.578  0.0912  2.4107 -0.9602
 8232SOL    HW231035   9.044   9.096   3.651  0.4380  1.1808  0.0253
 8233SOL     OW31036   6.250   0.226   5.780 -0.2252  0.4295 -0.0771
 8233SOL    HW131037   6.275   0.142   5.731 -1.3774 -0.0814  0.2036
 8233SOL    HW231038   6.272   0.216   5.877  0.9191  0.9856 -0.2633
 8234SOL     OW31039   2.428   3.363   4.658  0.1289 -0.1000 -0.1276
 8234SOL    HW131040   2.480   3.316   4.729 -0.1783  1.3485  1.0920
 8234SOL    HW231041   2.330   3.349   4.674  0.0123  1.5796  0.7130
 8236SOL     OW31042   8.407   5.065   2.330 -0.4049 -0.1122 -0.3355
 8236SOL    HW131043   8.377   5.121   2.408  0.5251  1.5205 -1.1263
 8236SOL    HW231044   8.344   5.077   2.254  0.9995  1.6268 -1.2594
 8237SOL     OW31045   2.076   2.720   3.028 -0.1241  0.5050 -0.1084
 8237SOL    HW131046   1.985   2.761   3.036  0.0588  0.7666  0.6424
 8237SOL    HW231047   2.120   2.719   3.118  0.1984 -0.5954 -0.2746
 8238SOL     OW31048   4.684   0.226   2.167  0.1767 -0.2842  0.0807
 8238SOL    HW131049   4.700   0.281   2.085 -0.1144 -0.3676 -0.0346
 8238SOL    HW231050   4.726   0.136   2.156 -0.5893 -0.5983 -0.3317
 8239SOL     OW31051   9.059   6.527   0.656  0.4106 -0.1493  0.7158
 8239SOL    HW131052   9.148   6.503   0.615  1.0330  0.8503  1.4609
 8239SOL    HW231053   8.988   6.466   0.619  1.0886  0.2110 -1.2678
 8240SOL     OW31054   9.202   0.101   3.156  0.3917  0.2450  0.0624
 8240SOL    HW131055   9.182   0.183   3.103  1.6184  0.4731 -0.0530
 8240SOL    HW231056   9.277   0.118   3.219  0.9551 -0.9125 -0.2796
 8241SOL     OW31057   0.838   1.901   5.438  0.1561  0.0088  0.4551
 8241SOL    HW131058   0.851   1.873   5.533 -1.6980  0.2487  0.7898
 8241SOL    HW231059   0.871   1.829   5.377  0.3339 -0.6080  1.2733
 8242SOL     OW31060   3.427   9.446   1.441  0.3251 -0.5538 -0.2853
 8242SOL    HW131061   3.403   9.410   1.532 -0.8452  0.9941  0.0294
 8242SOL    HW231062   3.344   9.474   1.393  1.1493  1.0793 -0.7938
 8243SOL     OW31063   7.783   9.566   3.971  0.5462  0.1536 -0.3301
 8243SOL    HW131064   7.712   9.619   4.017 -0.0612 -0.3871 -0.6411
 8243SOL    HW231065   7.741   9.499   3.909  1.2266 -2.1675  1.6428
 8244SOL     OW31066   0.765   0.923   5.363 -0.3438  0.4796  0.2026
 8244SOL    HW131067   0.735   0.834   5.328  0.3469  0.6076 -0.7296
 8244SOL    HW231068   0.721   0.940   5.452  0.7924 -1.5302  1.1880
 8245SOL     OW31069   8.859   8.199   1.812  0.0716  0.0859 -0.3180
 8245SOL    HW131070   8.911   8.148   1.744  0.0248 -1.2850  0.6665
 8245SOL    HW231071   8.921   8.238   1.879 -0.0138  0.1075 -0.2517
 8246SOL     OW31072   2.116   8.415   2.170  0.0246 -0.7869  0.2578
 8246SOL    HW131073   2.086   8.335   2.221 -1.2808 -0.0391  0.6899
 8246SOL    HW231074   2.166   8.387   2.088 -1.7757 -2.0489 -0.4217
 8247SOL     OW31075   7.912   4.403   3.982  0.1173 -0.3125  0.0713
 8247SOL    HW131076   7.980   4.419   4.055  0.0507  0.8679 -0.1200
 8247SOL    HW231077   7.849   4.480   3.978  2.0016  1.1652 -3.3052
 8248SOL     OW31078   5.001   9.656   3.923 -0.4224  0.2744  0.6196
 8248SOL    HW131079   5.047   9.615   4.002 -0.1676 -1.8154 -0.5695
 8248SOL    HW231080   4.937   9.590   3.884 -0.1383  1.0800 -1.2683
 8249SOL     OW31081   4.510   8.786   5.178  0.0981  0.1193  0.3069
 8249SOL    HW131082   4.604   8.764   5.203  0.3068  1.2637  0.5155
 8249SOL    HW231083   4.474   8.713   5.119  0.8393 -0.7152  0.8725
 8251SOL     OW31084   2.467   0.242   0.361 -0.1360  0.0880  0.2068
 8251SOL    HW131085   2.462   0.227   0.459 -1.2594 -0.6210  0.0540
 8251SOL    HW231086   2.475   0.340   0.342  5.3212 -0.0149  1.1628
 8252SOL     OW31087   2.384   0.813   2.986 -0.7191  0.1751  0.0424
 8252SOL    HW131088   2.309   0.878   2.991 -0.3742  0.6364 -0.7381
 8252SOL    HW231089   2.455   0.838   3.052 -0.0585  1.2650 -1.0771
 8253SOL     OW31090   0.835   3.328   3.150 -0.5777  0.3617  0.2860
 8253SOL    HW131091   0.852   3.426   3.156 -0.1162  0.2485  0.8896
 8253SOL    HW231092   0.758   3.304   3.210 -1.5369  0.5488 -0.8488
 8256SOL     OW31093   5.707   8.949   2.391 -1.2185  0.1894  0.3307
 8256SOL    HW131094   5.769   8.916   2.320  0.2320  0.7227  1.3044
 8256SOL    HW231095   5.760   8.970   2.473 -2.8101 -0.0755  1.4523
 8257SOL     OW31096   0.496   4.589   1.934  0.1447  0.7191  0.0407
 8257SOL    HW131097   0.495   4.541   1.846  0.9650  0.7180  0.0362
 8257SOL    HW231098   0.409   4.639   1.945 -1.2818 -1.8135  0.6318
 8258SOL     OW31099   1.807   2.786   3.066 -0.3249  0.4307  0.1733
 8258SOL    HW131100   1.744   2.842   3.120 -0.5754  0.2671  0.0493
 8258SOL    HW231101   1.792   2.689   3.088  0.9168  0.4749  1.2732
 8259SOL     OW31102   0.269   1.498   0.382 -0.4252  0.7080  0.3525
 8259SOL    HW131103   0.345   1.540   0.431 -1.0766  1.3654  0.8157
 8259SOL    HW231104   0.272   1.399   0.395  0.9275  0.6378 -0.4735
 8261SOL     OW31105   3.040   2.641   1.470  0.7504 -0.4359  0.4139
 8261SOL    HW131106   3.091   2.671   1.390  1.4830  0.4303  1.1968
 8261SOL    HW231107   3.097   2.650   1.552  0.5359 -2.6798  0.8620
 8262SOL     OW31108   0.637   0.406   5.308  0.3309  0.0774 -0.2969
 8262SOL    HW131109   0.543   0.438   5.319  0.1335  0.4646 -2.8063
 8262SOL    HW231110   0.662   0.348   5.386 -1.4287  1.2324  1.1739
 8263SOL     OW31111   0.068   1.396   3.891  0.2767  1.3076 -0.0372
 8263SOL    HW131112  -0.002   1.340   3.846 -0.3883  0.6009  1.8103
 8263SOL    HW231113   0.157   1.380   3.848  0.2324 -1.7192  0.8819
 8265SOL     OW31114   6.685   2.102   4.816  0.0405  0.4844 -0.5433
 8265SOL    HW131115   6.702   2.004   4.809  0.1915  0.5788 -1.6599
 8265SOL    HW231116   6.591   2.117   4.847  0.1932 -0.0085  0.1838
 8266SOL     OW31117   8.951   4.008   2.148 -0.4185  0.1046 -0.0568
 8266SOL    HW131118   8.927   3.989   2.243  1.3768  1.0325  0.5979
 8266SOL    HW231119   8.913   3.937   2.089  0.5517 -1.8307  1.6083
 8267SOL     OW31120   8.642   3.238   3.607  0.3122  0.3022 -0.4866
 8267SOL    HW131121   8.580   3.286   3.669  0.1736 -1.1212  0.5056
 8267SOL    HW231122   8.698   3.174   3.659  0.8059 -0.2827 -1.7193
 8268SOL     OW31123   7.733   4.966   3.288  0.1494  0.0227  0.1459
 8268SOL    HW131124   7.789   4.941   3.209  0.5549  0.9776  0.1280
 8268SOL    HW231125   7.789   5.017   3.354  0.2974 -2.2470  1.8687
 8269SOL     OW31126   7.571   4.358   2.736 -0.4008 -0.2153  0.1161
 8269SOL    HW131127   7.587   4.433   2.670  0.2317 -1.2525 -0.9390
 8269SOL    HW231128   7.611   4.274   2.700 -2.7090 -1.4805  0.4485
 8270SOL     OW31129   9.668   3.427   0.860 -0.0021  0.1819 -0.2514
 8270SOL    HW131130   9.654   3.509   0.805  0.8123  2.2410  2.4852
 8270SOL    HW231131   9.582   3.400   0.903 -0.4503 -0.9314 -1.7835
 8271SOL     OW31132   2.308   5.225   0.319 -0.0726 -0.4412  0.7222
 8271SOL    HW131133   2.242   5.289   0.358 -1.0266 -0.9027 -0.0936
 8271SOL    HW231134   2.272   5.132   0.327 -0.3942 -0.5240 -1.3985
 8272SOL     OW31135   2.298   0.179   6.047  0.1426  0.2134  0.3497
 8272SOL    HW131136   2.234   0.242   6.003 -0.8872 -1.0006  0.0763
 8272SOL    HW231137   2.326   0.215   6.135 -0.3123  1.1249  0.1177
 8273SOL     OW31138   2.664   0.040   5.588  0.3892  0.3084 -0.7055
 8273SOL    HW131139   2.598  -0.034   5.598  1.1262 -0.5855 -2.3083
 8273SOL    HW231140   2.616   0.124   5.561 -0.3517  0.2268  0.3287
 8274SOL     OW31141   1.259   7.735   2.130 -1.1641  0.1726 -0.2744
 8274SOL    HW131142   1.344   7.762   2.085 -0.4360 -0.7824  0.4796
 8274SOL    HW231143   1.279   7.711   2.226 -2.2373 -0.2830 -0.1601
 8275SOL     OW31144   2.979   6.212   4.898 -0.3413 -0.4761  0.2826
 8275SOL    HW131145   2.969   6.113   4.907 -1.3718 -0.7166 -2.8172
 8275SOL    HW231146   3.068   6.233   4.857  0.0131 -0.0856  1.2379
 8276SOL     OW31147   4.215   8.022   1.895 -0.1484  0.1881 -0.0979
 8276SOL    HW131148   4.220   7.971   1.981 -2.9611 -2.5388 -1.4427
 8276SOL    HW231149   4.307   8.039   1.861  0.9481 -0.6381  2.3264
 8277SOL     OW31150   7.486   3.419   6.094  0.2819  0.3367 -0.0959
 8277SOL    HW131151   7.420   3.345   6.086 -0.0950  0.7082 -0.4427
 8277SOL    HW231152   7.576   3.382   6.115  0.2621 -0.2720 -1.0952
 8278SOL     OW31153   3.593   4.825   2.317 -0.1752 -0.0854  0.0541
 8278SOL    HW131154   3.653   4.756   2.278  0.7320  0.2269  0.8685
 8278SOL    HW231155   3.646   4.908   2.338 -1.2115  0.8015 -0.7641
 8279SOL     OW31156   1.965   6.211   4.570 -0.3287  0.4089 -0.5414
 8279SOL    HW131157   1.994   6.149   4.642  0.3296  0.8900 -0.3935
 8279SOL    HW231158   1.975   6.166   4.481 -0.6535  0.0017 -0.3709
 8280SOL     OW31159   3.917   1.692   3.714  0.5744 -0.4640  0.7563
 8280SOL    HW131160   3.979   1.756   3.759 -0.2093  1.4691 -0.8582
 8280SOL    HW231161   3.970   1.630   3.656  1.3388 -1.3423  2.3615
 8281SOL     OW31162   2.135   1.319   5.222  0.0149  0.2301  0.0123
 8281SOL    HW131163   2.112   1.363   5.135  0.5962 -0.4288 -0.4814
 8281SOL    HW231164   2.231   1.335   5.242  0.4281 -1.5013 -0.5768
 8282SOL     OW31165   4.944   8.422   3.785 -0.0492 -0.2129  0.1466
 8282SOL    HW131166   4.872   8.455   3.845 -1.0281 -0.4070 -0.9105
 8282SOL    HW231167   5.013   8.493   3.772  0.1739 -0.1722  1.4927
 8284SOL     OW31168   9.002   7.331   6.035  0.9428 -0.1963 -0.1623
 8284SOL    HW131169   9.003   7.315   6.134  1.6710 -0.6073 -0.2285
 8284SOL    HW231170   8.975   7.248   5.988  0.3198  0.0825 -0.2966
 8286SOL     OW31171   1.986   2.481   6.453  0.2145  0.2630 -0.3322
 8286SOL    HW131172   1.978   2.431   6.367  0.3601 -0.5475  0.1273
 8286SOL    HW231173   2.054   2.554   6.443 -1.1835  1.4629 -1.5111
 8288SOL     OW31174   1.185   6.673   1.502  0.2743  0.0369  0.2587
 8288SOL    HW131175   1.224   6.586   1.472 -1.6486 -0.3583 -1.1440
 8288SOL    HW231176   1.108   6.656   1.563  0.4096  0.7780  0.6457
 8289SOL     OW31177   5.617   0.135   3.693 -0.2374 -0.2987  0.1238
 8289SOL    HW131178   5.690   0.186   3.738  1.1049 -0.6420 -1.5966
 8289SOL    HW231179   5.573   0.073   3.759  0.7301  0.2308  1.2735
 8290SOL     OW31180   3.265   7.240   4.899 -0.1465  0.2234  0.5709
 8290SOL    HW131181   3.289   7.334   4.872  1.5477  0.0092  1.2786
 8290SOL    HW231182   3.312   7.217   4.985  0.3369 -1.6496 -0.1756
 8291SOL     OW31183   3.735   2.640   0.534 -0.3740  0.0201  0.0701
 8291SOL    HW131184   3.663   2.601   0.592 -0.0448 -0.4091  0.1899
 8291SOL    HW231185   3.797   2.695   0.590  0.4197 -1.0668  0.2637
 8293SOL     OW31186   8.055   3.947   1.673 -1.0568 -0.4284  0.1036
 8293SOL    HW131187   8.004   3.897   1.742  0.8704 -0.2618  1.7093
 8293SOL    HW231188   8.151   3.953   1.701  0.2399 -2.2284 -3.6052
 8294SOL     OW31189   8.388   9.070   6.247 -0.7803  0.1403  0.0286
 8294SOL    HW131190   8.468   9.061   6.308 -0.5369  1.5387 -0.0796
 8294SOL    HW231191   8.305   9.045   6.298 -0.2779 -1.3984  0.1209
 8295SOL     OW31192   1.533   2.405   3.820  0.4808 -1.1431 -0.2689
 8295SOL    HW131193   1.539   2.411   3.920 -0.2221 -1.6028 -0.1995
 8295SOL    HW231194   1.497   2.492   3.785 -0.4091 -1.4039 -0.0232
 8296SOL     OW31195   8.147   4.418   3.150  0.1451  0.4272 -0.1224
 8296SOL    HW131196   8.176   4.330   3.189  1.3381  1.0656  0.4468
 8296SOL    HW231197   8.064   4.449   3.197  0.1588 -0.0176  0.2030
 8297SOL     OW31198   1.274   8.222   2.821  0.1348 -0.2627 -0.6506
 8297SOL    HW131199   1.198   8.236   2.757 -0.9512 -1.7795  0.2786
 8297SOL    HW231200   1.243   8.239   2.914  1.8389  2.3821 -0.5068
 8298SOL     OW31201   9.769   2.225   4.564  0.1792 -0.0985 -0.9373
 8298SOL    HW131202   9.833   2.201   4.490 -0.1502  0.5712 -1.4379
 8298SOL    HW231203   9.777   2.157   4.637  1.6496  0.1011 -0.8835
 8299SOL     OW31204   9.442   1.856   0.212 -0.7102 -0.1289 -0.1914
 8299SOL    HW131205   9.356   1.875   0.166 -1.2434 -0.1999  0.7674
 8299SOL    HW231206   9.516   1.855   0.145 -1.5138 -0.5121 -1.0826
 8300SOL     OW31207   2.234   3.323   1.427 -0.4587  0.0920 -0.1336
 8300SOL    HW131208   2.174   3.244   1.439 -0.7697  0.2253 -0.8117
 8300SOL    HW231209   2.325   3.301   1.461 -0.7520 -0.2862  0.4229
 8301SOL     OW31210   4.163   3.191   4.131  0.4236  0.0751 -0.2518
 8301SOL    HW131211   4.192   3.269   4.075  1.9653  1.1672  1.9389
 8301SOL    HW231212   4.075   3.157   4.099  0.7883  1.2925 -2.6529
 8302SOL     OW31213   8.378   0.410   2.931 -0.1560  0.3126 -0.1289
 8302SOL    HW131214   8.282   0.415   2.903  0.0625  0.6720 -0.8525
 8302SOL    HW231215   8.428   0.487   2.891  0.6156 -0.3688 -0.5102
 8303SOL     OW31216   2.319   4.189   2.193 -0.1284  0.5758  0.1753
 8303SOL    HW131217   2.347   4.242   2.273  0.6484  1.3495 -0.5989
 8303SOL    HW231218   2.352   4.234   2.110  1.9758 -1.9391 -0.4212
 8304SOL     OW31219   0.618   2.822   3.697 -0.1278 -0.3875  0.1781
 8304SOL    HW131220   0.684   2.747   3.706 -0.9249 -1.0222  0.7697
 8304SOL    HW231221   0.567   2.833   3.782  0.3562  1.1949  0.2805
 8305SOL     OW31222   4.004   3.790   1.181  0.6717 -0.5185 -0.1448
 8305SOL    HW131223   3.919   3.814   1.227  1.6000  1.2062  0.7285
 8305SOL    HW231224   3.986   3.772   1.085 -0.4972  1.1299 -0.2589
 8306SOL     OW31225   2.584   2.030   4.307 -0.1160 -0.1708  0.8323
 8306SOL    HW131226   2.498   2.080   4.294 -0.6274 -0.6534  2.3222
 8306SOL    HW231227   2.590   1.998   4.401  1.3688 -0.7697  0.5390
 8308SOL     OW31228   7.470   2.167   5.120 -0.3684  0.2204 -0.1619
 8308SOL    HW131229   7.396   2.217   5.166 -0.5182 -1.2187  1.1982
 8308SOL    HW231230   7.510   2.101   5.183  2.8693  1.7438 -0.5300
 8309SOL     OW31231   0.543   0.335   6.032 -0.2166 -0.2699  0.1206
 8309SOL    HW131232   0.481   0.384   6.094 -0.7555 -1.5549  0.6271
 8309SOL    HW231233   0.602   0.400   5.985 -1.5654  0.9420  0.0588
 8310SOL     OW31234   7.045   0.053   0.752  0.0311  0.0555 -0.1003
 8310SOL    HW131235   7.107   0.094   0.819 -0.2618  0.9274 -0.3544
 8310SOL    HW231236   6.951   0.072   0.779 -0.0902  0.1983 -0.6222
 8311SOL     OW31237   3.616   6.289   5.028 -0.2431 -0.3343 -0.5526
 8311SOL    HW131238   3.605   6.327   5.120  0.7394 -0.1663 -0.5014
 8311SOL    HW231239   3.666   6.203   5.033  1.3939  0.5700 -1.0965
 8313SOL     OW31240   4.563   6.555   3.218 -0.0803  0.0424 -0.0166
 8313SOL    HW131241   4.547   6.530   3.122 -0.2975  1.3219 -0.3188
 8313SOL    HW231242   4.477   6.554   3.268  0.0053 -0.4410  0.1232
 8314SOL     OW31243   8.325   2.504   6.185 -0.3820 -0.1905 -0.1014
 8314SOL    HW131244   8.312   2.553   6.099  2.8719 -0.4449 -0.8196
 8314SOL    HW231245   8.357   2.569   6.255 -0.1443 -0.5319  0.1063
 8315SOL     OW31246   8.577   8.258   4.335 -0.1584  0.1401  0.3047
 8315SOL    HW131247   8.578   8.159   4.345  0.6636 -0.0009 -0.9670
 8315SOL    HW231248   8.661   8.296   4.374  0.0108  0.2278 -0.1404
 8316SOL     OW31249   8.280   9.907   0.689  0.2196  0.7324  0.1697
 8316SOL    HW131250   8.236   9.844   0.753  2.0062 -0.0201  0.6642
 8316SOL    HW231251   8.363   9.866   0.652  0.1801  1.8895 -1.2510
 8317SOL     OW31252   0.238   9.686   4.839 -0.7851  0.0330  0.1647
 8317SOL    HW131253   0.258   9.716   4.746 -0.8472 -0.5170 -0.0261
 8317SOL    HW231254   0.323   9.679   4.891 -0.8206  1.1455  0.4023
 8318SOL     OW31255   4.573   0.353   2.423 -0.0021 -0.5135 -0.2136
 8318SOL    HW131256   4.603   0.311   2.338 -0.2522  0.0380 -0.5814
 8318SOL    HW231257   4.477   0.381   2.414  0.6752  1.7557 -0.6175
 8319SOL     OW31258   3.759   5.120   6.011  0.2824 -0.2426 -0.2317
 8319SOL    HW131259   3.836   5.123   5.947 -0.7530  1.2800 -1.4432
 8319SOL    HW231260   3.673   5.125   5.960 -0.6361 -1.6650  1.1253
 8321SOL     OW31261   2.367   1.386   3.293 -0.2239  0.2620  0.2832
 8321SOL    HW131262   2.277   1.422   3.317 -0.1606  0.8498 -0.3454
 8321SOL    HW231263   2.423   1.459   3.253  0.1755 -0.3425 -0.2765
 8322SOL     OW31264   3.150   8.905   5.283  0.7447  0.1252  0.1354
 8322SOL    HW131265   3.214   8.849   5.230 -1.1793 -1.2934 -0.7333
 8322SOL    HW231266   3.131   8.859   5.370 -1.0392 -0.7782 -0.6887
 8323SOL     OW31267   4.089   3.981   1.950 -0.9439 -0.3429  0.0712
 8323SOL    HW131268   4.027   4.031   2.011 -0.2391 -1.9684  2.1953
 8323SOL    HW231269   4.140   3.914   2.003  2.8287  1.0991 -1.5793
 8324SOL     OW31270   3.425   0.337   2.439 -0.1749 -0.4791 -0.1163
 8324SOL    HW131271   3.429   0.266   2.510 -0.0388 -0.2511  0.1019
 8324SOL    HW231272   3.422   0.293   2.349 -1.0118 -0.7794  0.0539
 8325SOL     OW31273   0.356   4.180   4.465 -0.2892 -0.6659  0.0422
 8325SOL    HW131274   0.455   4.189   4.459 -0.3768 -0.7654 -2.2842
 8325SOL    HW231275   0.324   4.121   4.390 -2.1204 -0.3947  0.5905
 8326SOL     OW31276   7.684   4.651   3.490 -0.3925 -0.2595  0.1821
 8326SOL    HW131277   7.768   4.706   3.491  0.0465 -0.9247  1.1774
 8326SOL    HW231278   7.615   4.697   3.434  0.7622  0.0917 -0.9876
 8328SOL     OW31279   2.164   8.374   6.096 -0.3677  0.3491 -0.2496
 8328SOL    HW131280   2.157   8.380   5.997  1.0768 -2.1178 -0.5497
 8328SOL    HW231281   2.112   8.294   6.128  0.8977 -0.0918  0.7447
 8330SOL     OW31282   5.584   9.032   1.971  0.1241 -0.2979 -0.3396
 8330SOL    HW131283   5.680   9.048   1.992  0.2563  1.3257 -2.0181
 8330SOL    HW231284   5.527   9.074   2.041  0.6309 -0.9279  0.4553
 8332SOL     OW31285   0.538   6.264   1.795 -0.0310  0.0633  0.0585
 8332SOL    HW131286   0.543   6.196   1.722  1.8774  0.3539 -0.1108
 8332SOL    HW231287   0.449   6.257   1.841 -0.3993 -1.5984 -0.8613
 8334SOL     OW31288   3.594   4.133   3.371 -0.1954  0.3098  0.3845
 8334SOL    HW131289   3.654   4.071   3.421  1.4998  0.9517 -0.8097
 8334SOL    HW231290   3.577   4.215   3.427  0.1304  0.1707  0.6895
 8335SOL     OW31291   1.085   7.087   1.566 -0.0292 -0.2463 -0.0889
 8335SOL    HW131292   1.069   7.166   1.623  1.7412  1.0141 -1.2894
 8335SOL    HW231293   1.017   7.085   1.491  0.4694  0.6280 -0.5659
 8336SOL     OW31294   2.559   1.602   1.846  0.2183  0.1154 -0.3573
 8336SOL    HW131295   2.501   1.658   1.906 -0.1885 -1.4775  0.7554
 8336SOL    HW231296   2.654   1.608   1.876  0.1504  0.0577 -0.1321
 8337SOL     OW31297   9.721   3.472   1.131 -0.0670  0.0029 -0.0068
 8337SOL    HW131298   9.650   3.528   1.173 -1.0894 -1.5932  0.4180
 8337SOL    HW231299   9.696   3.451   1.037 -0.5656 -1.2462  0.3975
 8339SOL     OW31300   0.534   2.469   6.148 -0.2142  0.6047  0.1081
 8339SOL    HW131301   0.491   2.493   6.235 -2.3284  0.6121 -0.9126
 8339SOL    HW231302   0.612   2.408   6.165  0.0600  1.4936  2.0712
 8340SOL     OW31303   8.866   4.908   1.921 -0.0012  0.0287 -0.4142
 8340SOL    HW131304   8.939   4.930   1.857 -0.0274 -0.2259 -0.5288
 8340SOL    HW231305   8.798   4.981   1.920  0.2232  0.2395 -0.3467
 8341SOL     OW31306   4.028   6.866   3.325  1.0079  0.0320 -0.4215
 8341SOL    HW131307   3.931   6.843   3.329  0.7487  1.2135  0.1659
 8341SOL    HW231308   4.069   6.823   3.245  0.2602 -1.4387 -0.0298
 8342SOL     OW31309   4.576   5.043   0.241 -0.2561  0.4811 -0.0316
 8342SOL    HW131310   4.622   5.027   0.328  1.7847  0.8134 -1.0271
 8342SOL    HW231311   4.625   4.998   0.167 -2.0851  0.0146 -1.0119
 8343SOL     OW31312   5.083   2.601   3.375  0.1253 -0.4332  0.5558
 8343SOL    HW131313   5.085   2.701   3.377  2.2603 -0.2164 -5.0686
 8343SOL    HW231314   5.003   2.570   3.324  0.1184 -1.5949  1.2497
 8344SOL     OW31315   3.259   4.411   5.892 -0.0174  0.2138 -0.5898
 8344SOL    HW131316   3.251   4.385   5.988  2.7070  2.1859  0.2125
 8344SOL    HW231317   3.187   4.477   5.869 -1.7165 -1.5261 -0.4070
 8346SOL     OW31318   3.054   8.736   0.700 -0.2783 -0.1207 -0.0769
 8346SOL    HW131319   3.122   8.687   0.646 -1.3421  1.2932 -2.7954
 8346SOL    HW231320   3.025   8.678   0.777  0.7859 -2.4675 -1.3717
 8347SOL     OW31321   5.224   4.309   0.285  0.1029  0.2712 -0.1541
 8347SOL    HW131322   5.272   4.225   0.308 -1.2602 -0.4349  0.2060
 8347SOL    HW231323   5.136   4.311   0.333  0.6680  2.5049  0.8797
 8350SOL     OW31324   9.226   4.790   4.356 -0.2148 -0.1860  0.2587
 8350SOL    HW131325   9.132   4.756   4.350 -0.2795  0.0477 -0.0308
 8350SOL    HW231326   9.277   4.764   4.273 -0.8991  2.3685 -1.0100
 8351SOL     OW31327   7.876   7.703   3.980 -0.5497 -0.0380 -0.1631
 8351SOL    HW131328   7.825   7.618   3.992 -3.1708  1.5949  0.5676
 8351SOL    HW231329   7.961   7.698   4.033 -1.9150 -1.1960  1.9785
 8352SOL     OW31330   9.457   3.327   1.275 -0.3273 -0.0585  0.0325
 8352SOL    HW131331   9.545   3.360   1.309 -0.3751 -0.4435  0.5530
 8352SOL    HW231332   9.435   3.241   1.321 -0.1943 -0.8204 -1.3024
 8353SOL     OW31333   3.017   2.668   6.446  0.0185 -0.0781 -0.1205
 8353SOL    HW131334   3.025   2.756   6.492 -1.1876  0.1569 -0.3322
 8353SOL    HW231335   2.980   2.600   6.510 -1.0743  0.0995 -0.5556
 8354SOL     OW31336   5.069   5.903   1.328  0.0704 -0.3573 -0.3779
 8354SOL    HW131337   4.982   5.904   1.279 -0.0282  0.1635 -0.1936
 8354SOL    HW231338   5.056   5.937   1.421  0.6889  0.8687 -0.7347
 8355SOL     OW31339   4.949   3.137   1.676 -1.0676  0.3390 -0.8285
 8355SOL    HW131340   4.885   3.159   1.749  2.0274 -1.7167  2.6970
 8355SOL    HW231341   5.034   3.189   1.689  0.6539 -2.2813 -1.1100
 8356SOL     OW31342   0.894   5.707   3.463 -0.8829  0.0166  0.6016
 8356SOL    HW131343   0.871   5.626   3.516  0.8010 -0.2488  0.9601
 8356SOL    HW231344   0.970   5.686   3.402  0.2262  1.5868  1.4071
 8357SOL     OW31345   4.976   3.235   5.573  0.2573  0.3375 -0.3731
 8357SOL    HW131346   4.961   3.136   5.564 -2.4916  0.1123  4.9516
 8357SOL    HW231347   5.066   3.252   5.612  0.8947  0.0003 -1.6647
 8358SOL     OW31348   1.670   5.921   1.598  0.7306 -0.5183  0.2423
 8358SOL    HW131349   1.671   5.939   1.500 -0.0270 -0.1064  0.3055
 8358SOL    HW231350   1.603   5.850   1.618  0.3630 -0.0975  0.5373
 8359SOL     OW31351   1.467   1.506   2.407  0.2537 -0.1015 -0.2258
 8359SOL    HW131352   1.533   1.522   2.333  0.0255 -1.1735 -0.6676
 8359SOL    HW231353   1.453   1.591   2.457  1.7290  0.2249 -0.3260
 8360SOL     OW31354   3.424   2.637   4.569 -0.1942  0.2586 -0.4046
 8360SOL    HW131355   3.340   2.620   4.621 -0.7707 -0.0817 -1.4479
 8360SOL    HW231356   3.499   2.656   4.633 -1.0354  0.4579  0.5356
 8361SOL     OW31357   4.814   3.961   0.307 -0.1467 -0.1513  0.7201
 8361SOL    HW131358   4.903   3.988   0.270 -0.1951 -1.0372 -0.0593
 8361SOL    HW231359   4.749   4.037   0.295  0.3438  0.2733  0.7457
 8362SOL     OW31360   8.931   6.266   0.143  0.4373  1.3521 -0.5465
 8362SOL    HW131361   8.886   6.349   0.111 -0.3574  0.9981 -0.3671
 8362SOL    HW231362   8.862   6.201   0.174  1.0932  0.9376  0.0713
 8363SOL     OW31363   9.916   5.004   5.382 -0.5749  0.2319 -0.9697
 8363SOL    HW131364  10.002   5.022   5.429 -0.2875  0.6214 -1.6408
 8363SOL    HW231365   9.844   4.989   5.450  0.0837 -0.4467 -0.4016
 8364SOL     OW31366   0.199   3.345   0.927 -0.3167  0.0718 -0.1444
 8364SOL    HW131367   0.153   3.389   0.850 -0.6069 -0.3726 -0.2276
 8364SOL    HW231368   0.298   3.348   0.913 -0.2287  2.3996  0.7729
 8365SOL     OW31369   3.467   7.628   1.436  0.0275 -0.4361  0.1851
 8365SOL    HW131370   3.456   7.627   1.535  0.1738  0.2752  0.2131
 8365SOL    HW231371   3.455   7.536   1.400 -1.4513 -0.4509  0.7006
 8366SOL     OW31372   0.500   2.294   1.479  0.1496  0.2693  0.4648
 8366SOL    HW131373   0.514   2.271   1.383  0.2823  0.6208  0.4008
 8366SOL    HW231374   0.574   2.352   1.511 -0.9924  1.9321  0.1841
 8367SOL     OW31375   2.431   1.265   1.016 -0.2197 -0.0785 -0.2021
 8367SOL    HW131376   2.495   1.282   1.091  0.2385 -2.9866  0.1205
 8367SOL    HW231377   2.408   1.352   0.972  2.8151  1.1841  0.5624
 8368SOL     OW31378   4.396   4.482   2.092  0.3841  0.4860 -0.3645
 8368SOL    HW131379   4.341   4.403   2.064  1.5379 -1.6279  3.0288
 8368SOL    HW231380   4.366   4.513   2.181  2.9836  0.9093  0.4061
 8369SOL     OW31381   4.331   3.083   5.378  0.4141 -0.5407 -0.2858
 8369SOL    HW131382   4.319   2.984   5.369  2.1750 -0.7611 -0.3691
 8369SOL    HW231383   4.331   3.125   5.287 -1.1257 -0.3415 -0.2156
 8370SOL     OW31384   3.201   3.705   2.852  0.0113  0.0266 -0.0760
 8370SOL    HW131385   3.126   3.742   2.797  1.3562  1.2016 -1.1303
 8370SOL    HW231386   3.251   3.780   2.896  0.8575 -0.7274  0.2667
 8372SOL     OW31387   4.588   0.865   6.363  0.0731 -0.5548  0.4532
 8372SOL    HW131388   4.540   0.921   6.294  3.3326  0.3560 -1.1731
 8372SOL    HW231389   4.542   0.776   6.371 -2.4225  0.6167 -0.3343
 8373SOL     OW31390   2.488   0.482   3.817  0.1339 -0.1964  0.0784
 8373SOL    HW131391   2.566   0.446   3.765 -0.4645 -0.5202 -0.6001
 8373SOL    HW231392   2.405   0.474   3.762 -0.5906 -0.9794  1.2620
 8374SOL     OW31393   9.087   4.132   3.498  0.0835 -0.0576 -0.5591
 8374SOL    HW131394   9.158   4.167   3.558 -0.2272  0.0188 -0.2347
 8374SOL    HW231395   9.026   4.207   3.472 -0.7527 -0.4048  0.3699
 8375SOL     OW31396   2.359   4.381   5.219  0.6793 -0.5643 -0.4253
 8375SOL    HW131397   2.436   4.319   5.227  1.4427  0.5289  0.9592
 8375SOL    HW231398   2.383   4.457   5.159  0.2626 -0.8252 -0.9307
 8377SOL     OW31399   3.093   2.613   0.753  0.5989 -0.7343  0.0281
 8377SOL    HW131400   3.048   2.586   0.838  1.1546  0.6431  0.7710
 8377SOL    HW231401   3.161   2.684   0.772  0.2574  0.0703 -1.6645
 8378SOL     OW31402   0.133   5.739   1.711  0.2355 -0.0784 -0.3637
 8378SOL    HW131403   0.092   5.652   1.739  3.4753 -1.7011 -0.3663
 8378SOL    HW231404   0.177   5.782   1.791  0.2436  0.6222 -0.7426
 8382SOL     OW31405   9.498   9.821   2.936 -0.1570  0.5100 -0.1600
 8382SOL    HW131406   9.415   9.871   2.916 -1.7325 -1.0287  2.2169
 8382SOL    HW231407   9.520   9.760   2.860 -0.6417  1.6420 -1.2133
 8383SOL     OW31408   3.909   2.278   2.411 -0.0967  0.0151  0.0286
 8383SOL    HW131409   3.882   2.374   2.418  0.1499  0.0243  0.9085
 8383SOL    HW231410   3.867   2.238   2.330 -0.8208  0.6686  0.0708
 8384SOL     OW31411   2.695   6.199   5.117 -0.0662  0.5495  0.3535
 8384SOL    HW131412   2.632   6.149   5.177  0.7010 -2.3294 -1.1810
 8384SOL    HW231413   2.785   6.205   5.160  0.3283 -1.0049 -0.2361
 8385SOL     OW31414   0.245   5.462   5.406  0.6349 -0.4045  0.1974
 8385SOL    HW131415   0.279   5.379   5.361 -1.8264 -1.0322 -0.6024
 8385SOL    HW231416   0.315   5.497   5.468  2.1402 -2.4723 -0.2622
 8386SOL     OW31417   3.687   3.618   2.795  0.6990  0.6811  0.5503
 8386SOL    HW131418   3.636   3.536   2.823 -0.5023  0.3434 -2.4032
 8386SOL    HW231419   3.665   3.694   2.856 -1.3686 -0.1511  0.8775
 8388SOL     OW31420   0.353   7.916   5.801 -0.2576 -0.5252 -0.2808
 8388SOL    HW131421   0.321   7.930   5.895  1.2949  1.1791  0.0019
 8388SOL    HW231422   0.274   7.901   5.742 -1.4251  0.8487  0.8887
 8389SOL     OW31423   4.019   0.276   4.182  0.9831  0.3978 -0.3117
 8389SOL    HW131424   3.947   0.269   4.252  0.3526 -0.5735 -1.0435
 8389SOL    HW231425   4.023   0.191   4.130  2.3063  0.6565 -0.6380
 8390SOL     OW31426   5.769   2.200   8.190 -0.1700 -0.5960  0.1343
 8390SOL    HW131427   5.818   2.116   8.166 -0.9418 -1.4128  1.3373
 8390SOL    HW231428   5.683   2.204   8.140 -0.1509 -0.5401  0.1063
 8391SOL     OW31429   9.693   8.449   5.450 -0.3615  0.0436  0.2101
 8391SOL    HW131430   9.595   8.444   5.467  0.0241 -0.5094  2.4829
 8391SOL    HW231431   9.725   8.542   5.468 -0.2925 -0.0437  0.5429
 8392SOL     OW31432   0.762   2.888   4.945  0.3028 -0.4609 -0.1067
 8392SOL    HW131433   0.720   2.838   4.869  0.2420 -0.0189 -0.3622
 8392SOL    HW231434   0.758   2.986   4.927  3.1202 -0.4805 -1.0109
 8394SOL     OW31435   5.343   9.454   2.181  0.3573 -0.6203  0.0684
 8394SOL    HW131436   5.435   9.466   2.143  0.2557  0.8341  0.2320
 8394SOL    HW231437   5.280   9.427   2.108  0.2964  1.4772 -0.7085
 8395SOL     OW31438   2.494   5.373   5.375 -0.1442 -0.0493 -0.2255
 8395SOL    HW131439   2.489   5.439   5.450 -0.9235 -0.1762 -0.1605
 8395SOL    HW231440   2.476   5.419   5.288  2.4368  0.4353 -0.5483
 8396SOL     OW31441   2.570   4.302   1.605  0.2763 -0.4725 -0.2115
 8396SOL    HW131442   2.663   4.337   1.592  0.2391 -1.2562 -3.0309
 8396SOL    HW231443   2.566   4.207   1.572 -1.9358  0.1701 -1.9237
 8397SOL     OW31444   8.147   2.005   1.188  0.7353 -0.2464 -0.3580
 8397SOL    HW131445   8.152   1.923   1.244  0.7978  0.0004 -0.0005
 8397SOL    HW231446   8.187   1.987   1.098  2.7199 -0.0023  0.4491
 8399SOL     OW31447   1.102   2.036   2.594 -0.5240 -0.0380  0.4045
 8399SOL    HW131448   1.084   1.951   2.544 -1.8595  0.0402  0.7298
 8399SOL    HW231449   1.192   2.031   2.637 -0.2980 -1.0041 -0.1653
 8401SOL     OW31450   4.227   8.758   4.234 -0.2897 -0.4175 -0.4949
 8401SOL    HW131451   4.159   8.820   4.273  0.1173  0.0926 -0.5879
 8401SOL    HW231452   4.314   8.771   4.282  0.2012  0.1702 -1.5257
 8402SOL     OW31453   8.998   4.121   5.077 -0.3571 -0.0227  0.3126
 8402SOL    HW131454   9.073   4.059   5.053  0.3552  0.8800  0.1772
 8402SOL    HW231455   8.950   4.086   5.157  1.8061  0.6617  1.9687
 8403SOL     OW31456   8.808   0.543   2.511 -0.6159  0.5563 -0.4560
 8403SOL    HW131457   8.808   0.540   2.611 -1.3538  0.7978 -0.4454
 8403SOL    HW231458   8.856   0.626   2.480  1.3524 -0.5081 -0.3539
 8404SOL     OW31459   5.864   9.426   6.027 -0.5331 -0.9401  0.3242
 8404SOL    HW131460   5.823   9.370   5.956 -0.8355 -0.9260  0.4862
 8404SOL    HW231461   5.953   9.388   6.053  0.2581 -0.1191 -1.0942
 8405SOL     OW31462   6.428   3.797   0.541  0.0036  0.2256 -0.5794
 8405SOL    HW131463   6.459   3.838   0.627 -1.7413 -0.2117  0.2699
 8405SOL    HW231464   6.488   3.720   0.518 -0.0430 -0.2073  0.7174
 8407SOL     OW31465   8.697   1.850   4.834 -0.0100  0.2666  0.2473
 8407SOL    HW131466   8.684   1.871   4.737 -1.9918 -0.3790  0.3619
 8407SOL    HW231467   8.628   1.785   4.864  0.2878  0.8291  2.2244
 8408SOL     OW31468   4.823   3.220   3.817  0.0046 -0.0333  0.1784
 8408SOL    HW131469   4.812   3.173   3.904  1.1328  2.3509  1.6877
 8408SOL    HW231470   4.733   3.245   3.781 -0.5609 -2.7704 -0.3567
 8409SOL     OW31471   9.836   4.366   2.545  0.1279 -0.6708  0.5729
 8409SOL    HW131472   9.928   4.374   2.506  0.1123 -1.3324  0.3913
 8409SOL    HW231473   9.773   4.425   2.495  0.2922 -0.8242  0.1808
 8410SOL     OW31474   9.351   0.479   3.678  1.0864  0.3217 -0.2473
 8410SOL    HW131475   9.354   0.438   3.587  4.5372  3.0612 -1.4718
 8410SOL    HW231476   9.385   0.413   3.746 -0.2654 -1.2639 -1.0679
 8411SOL     OW31477   3.677   0.612   4.733  0.0628 -0.1039 -0.5522
 8411SOL    HW131478   3.628   0.696   4.755 -1.0073 -0.4880 -1.4601
 8411SOL    HW231479   3.763   0.610   4.784  0.7848  2.2286 -1.5967
 8412SOL     OW31480   9.020   5.691   0.552 -0.0822 -0.0518  0.2158
 8412SOL    HW131481   8.935   5.725   0.591 -0.4907  1.7795 -2.2005
 8412SOL    HW231482   9.069   5.637   0.621 -2.6746 -0.2687  1.9401
 8413SOL     OW31483   2.929   3.587   0.216  0.0651  0.3419 -0.1423
 8413SOL    HW131484   2.971   3.667   0.173  0.0545  0.3932 -0.0578
 8413SOL    HW231485   2.890   3.528   0.146  3.6605 -1.6732 -0.5070
 8414SOL     OW31486   2.809   4.775   0.008  0.3433  0.1113 -0.3454
 8414SOL    HW131487   2.714   4.745   0.021 -0.5106  2.0541 -1.9003
 8414SOL    HW231488   2.843   4.812   0.095  0.9967 -3.9439  1.2680
 8415SOL     OW31489   0.332   3.769   6.233  0.3988 -0.0439 -0.0419
 8415SOL    HW131490   0.292   3.728   6.150 -1.3631 -0.6948  1.1042
 8415SOL    HW231491   0.292   3.859   6.248 -0.2838 -0.4931  0.8419
 8416SOL     OW31492   8.750   7.443   5.170  0.1747 -0.3583 -0.5853
 8416SOL    HW131493   8.704   7.482   5.091 -0.1783 -0.4093 -0.4076
 8416SOL    HW231494   8.848   7.458   5.162  0.0266  0.8018 -0.3932
 8417SOL     OW31495   8.747   7.114   4.116  0.0579 -0.5732 -0.5164
 8417SOL    HW131496   8.728   7.205   4.079 -0.7507 -1.0437 -1.2886
 8417SOL    HW231497   8.688   7.047   4.071  0.3966 -1.4307  0.2976
 8418SOL     OW31498   6.093   9.887   1.890  0.1736  0.4504  0.5114
 8418SOL    HW131499   6.039   9.802   1.895  0.5890  0.1629  0.1802
 8418SOL    HW231500   6.035   9.965   1.915 -0.6901  0.2737 -0.8924
 8419SOL     OW31501   2.903   3.909   4.369  0.0349  0.6050  0.1986
 8419SOL    HW131502   2.998   3.907   4.340  0.3714 -0.4117  1.3537
 8419SOL    HW231503   2.847   3.949   4.296  1.0505 -0.6414 -1.2878
 8420SOL     OW31504   5.869   8.634   3.046 -0.1471 -0.1948 -0.4868
 8420SOL    HW131505   5.936   8.706   3.065  0.3505 -0.3635 -1.5543
 8420SOL    HW231506   5.802   8.668   2.980  0.2934 -0.8197 -1.2620
 8421SOL     OW31507   2.463   9.246   2.880  0.0313 -0.1704  0.6888
 8421SOL    HW131508   2.445   9.341   2.854 -1.7743 -1.3942 -2.8912
 8421SOL    HW231509   2.392   9.216   2.944 -0.3589  0.4184  0.5404
 8422SOL     OW31510   6.658   0.817   0.129 -0.2722 -0.2175  0.0094
 8422SOL    HW131511   6.587   0.887   0.134  0.5868  0.7572 -1.0240
 8422SOL    HW231512   6.704   0.810   0.217  0.8947  1.9017 -0.3989
 8425SOL     OW31513   7.655   9.952   5.400 -0.0397 -0.2913  0.4053
 8425SOL    HW131514   7.710  10.030   5.372 -1.2606  0.4092 -0.1180
 8425SOL    HW231515   7.713   9.882   5.439  0.9207  1.4983  2.2790
 8426SOL     OW31516   9.385   7.862   0.586  0.0033 -0.1053  0.5550
 8426SOL    HW131517   9.476   7.830   0.613  0.4489 -0.2580 -1.0774
 8426SOL    HW231518   9.388   7.898   0.493 -1.2456  1.5215  1.1282
 8427SOL     OW31519   8.230   9.625   3.311  0.5894  0.4538 -0.3462
 8427SOL    HW131520   8.252   9.578   3.396  0.5583  0.1405 -0.5095
 8427SOL    HW231521   8.175   9.706   3.331  0.7086  0.4641 -0.0575
 8428SOL     OW31522   8.135   2.394   0.881 -0.3848 -0.1395  0.3266
 8428SOL    HW131523   8.221   2.434   0.847 -0.8668  0.3674 -0.3092
 8428SOL    HW231524   8.126   2.301   0.846 -0.9820  0.4497 -1.1548
 8429SOL     OW31525   2.561   6.460   1.340  0.1945 -0.0064 -0.5042
 8429SOL    HW131526   2.480   6.481   1.285  0.0386  0.7313 -0.0102
 8429SOL    HW231527   2.639   6.443   1.280 -0.5684 -1.8054 -1.0162
 8430SOL     OW31528   8.841   2.200   5.172  0.2226 -0.1220  0.4908
 8430SOL    HW131529   8.902   2.165   5.244 -0.8187 -0.9870  0.9649
 8430SOL    HW231530   8.849   2.142   5.091 -0.7817 -0.9181  0.9422
 8431SOL     OW31531   1.295   1.351   3.081  0.5985  0.7389  0.1283
 8431SOL    HW131532   1.255   1.284   3.143  0.2698  0.6206 -0.2097
 8431SOL    HW231533   1.227   1.421   3.059 -0.3859 -1.0090 -2.7006
 8432SOL     OW31534   5.251   0.771   6.399 -0.2944  0.0274 -0.1882
 8432SOL    HW131535   5.252   0.869   6.382  0.5001  0.0594  0.0190
 8432SOL    HW231536   5.281   0.753   6.493 -0.7890 -0.3877 -0.1074
 8433SOL     OW31537   5.267   1.668   4.084  0.3375  0.0287 -0.1698
 8433SOL    HW131538   5.281   1.738   4.014  0.7114 -0.6669 -0.8085
 8433SOL    HW231539   5.344   1.604   4.083  0.3168 -0.0244  0.8483
 8434SOL     OW31540   0.285   0.815   1.519 -0.1959 -0.0797  0.0409
 8434SOL    HW131541   0.382   0.827   1.539 -0.3911  1.2045  0.2441
 8434SOL    HW231542   0.270   0.819   1.420  0.3068 -3.0304 -0.2093
 8435SOL     OW31543   3.785   1.756   5.035  0.2377 -0.3878  0.4286
 8435SOL    HW131544   3.884   1.752   5.042  0.3039  0.3276 -0.0433
 8435SOL    HW231545   3.757   1.844   4.996 -0.6846  0.2403  2.4208
 8436SOL     OW31546   1.200   7.503   5.700 -0.5496  0.0635  0.3485
 8436SOL    HW131547   1.100   7.499   5.707 -0.3888  0.3857  2.9220
 8436SOL    HW231548   1.235   7.410   5.691 -1.2144  0.0756 -3.2644
 8437SOL     OW31549   0.155   4.893   4.239 -0.4952  0.1879 -0.1564
 8437SOL    HW131550   0.144   4.992   4.226 -1.1691 -0.1024 -2.0015
 8437SOL    HW231551   0.076   4.856   4.287 -0.5374  0.4543 -0.0235
 8438SOL     OW31552   6.945   0.243   1.417 -0.5625 -0.2320  0.7972
 8438SOL    HW131553   6.932   0.231   1.318  1.1661 -1.3095  0.6979
 8438SOL    HW231554   6.855   0.254   1.460 -1.3465  0.2129 -0.8720
 8439SOL     OW31555   2.222   2.297   4.424 -0.0201 -0.2128 -0.4120
 8439SOL    HW131556   2.259   2.212   4.463 -0.2673 -0.3283 -0.4304
 8439SOL    HW231557   2.270   2.375   4.464 -0.0002 -0.3492 -0.1687
 8440SOL     OW31558   2.391   2.698   2.052  0.7446  0.1972 -0.0707
 8440SOL    HW131559   2.336   2.690   2.135  0.6807  1.3560  0.0021
 8440SOL    HW231560   2.475   2.749   2.073  1.2122 -0.4042 -0.4812
 8441SOL     OW31561   0.314   8.507   4.639 -0.1440 -0.2625  0.0798
 8441SOL    HW131562   0.364   8.585   4.676 -1.8417 -0.1485  2.2435
 8441SOL    HW231563   0.350   8.484   4.549  1.7317  1.7236  0.2806
 8442SOL     OW31564   1.217   7.513   1.314  0.5795  0.3266 -0.1748
 8442SOL    HW131565   1.130   7.468   1.335  0.5361  0.0010 -1.0528
 8442SOL    HW231566   1.210   7.560   1.227  2.0009 -1.6370 -1.3848
 8443SOL     OW31567   2.837   9.590   0.120  0.3227  0.0110 -0.4138
 8443SOL    HW131568   2.748   9.619   0.086 -0.0256  1.6781  1.7948
 8443SOL    HW231569   2.834   9.493   0.145 -0.8984  0.0738 -0.2958
 8445SOL     OW31570   0.047   9.568   4.062 -0.2834  0.4643  0.7697
 8445SOL    HW131571   0.012   9.649   4.014  2.2759  2.5011  2.1510
 8445SOL    HW231572   0.082   9.502   3.996 -1.4320  0.9619 -0.3471
 8446SOL     OW31573   2.611   3.296   5.186  0.4473 -0.4915  0.1463
 8446SOL    HW131574   2.671   3.351   5.128 -0.1752  0.2239  0.1851
 8446SOL    HW231575   2.570   3.354   5.256 -1.8539 -0.5712 -1.0858
 8448SOL     OW31576   4.381   2.734   3.008 -0.1503 -0.3092  0.5970
 8448SOL    HW131577   4.359   2.742   3.105 -0.6609 -0.9366  0.5339
 8448SOL    HW231578   4.310   2.778   2.953  0.7878  1.1826  0.5500
 8449SOL     OW31579   0.233   8.293   2.109 -0.1727  0.0665  0.2122
 8449SOL    HW131580   0.265   8.214   2.161  0.6949  0.1145 -0.2368
 8449SOL    HW231581   0.207   8.264   2.017  2.3458  0.6478 -0.7308
 8450SOL     OW31582   1.574   2.144   2.604 -0.1944  0.4977 -0.3212
 8450SOL    HW131583   1.649   2.142   2.671 -0.8608 -1.5297  0.3913
 8450SOL    HW231584   1.500   2.202   2.639  0.8753  2.2261 -0.8739
 8451SOL     OW31585   1.652   4.687   4.089  0.0216 -0.4551 -0.1539
 8451SOL    HW131586   1.727   4.665   4.150  2.2397 -0.4251 -2.7736
 8451SOL    HW231587   1.570   4.708   4.143  2.1053  0.4398  2.7851
 8452SOL     OW31588   8.962   8.240   0.126  0.0712  0.0942  0.6549
 8452SOL    HW131589   8.884   8.220   0.066  0.2492  0.0284  0.4443
 8452SOL    HW231590   9.047   8.235   0.073  0.2228  0.0946  0.9016
 8453SOL     OW31591   3.620   6.213   6.201 -0.4717 -0.0420 -0.0218
 8453SOL    HW131592   3.602   6.117   6.223 -1.3503 -0.0905 -0.8727
 8453SOL    HW231593   3.546   6.269   6.237 -2.0976 -0.1601 -2.9701
 8455SOL     OW31594   3.338   1.503   2.864  0.8505 -0.3400 -0.1300
 8455SOL    HW131595   3.403   1.488   2.790  1.5926  1.2854  0.1625
 8455SOL    HW231596   3.313   1.600   2.867  0.2780 -0.5182  1.2737
 8456SOL     OW31597   8.811   0.280   2.403  0.2681  0.2147 -0.2025
 8456SOL    HW131598   8.739   0.211   2.401  0.5317 -0.0115 -2.5415
 8456SOL    HW231599   8.780   0.358   2.457 -1.1059 -0.5503  0.1508
 8457SOL     OW31600   0.423   1.820   5.017 -0.6800 -0.1296 -0.4312
 8457SOL    HW131601   0.346   1.837   5.079 -0.2291  0.3550 -0.0047
 8457SOL    HW231602   0.460   1.907   4.985  0.8466 -0.3211  0.7886
 8458SOL     OW31603   1.118   9.136   3.129 -0.3513  0.0049  0.0802
 8458SOL    HW131604   1.074   9.054   3.091  1.0662 -0.8752  0.3044
 8458SOL    HW231605   1.063   9.170   3.205 -0.8642 -0.8568  0.1106
 8459SOL     OW31606   5.310   9.659   6.159  0.4904 -0.1922 -0.0241
 8459SOL    HW131607   5.323   9.663   6.258  1.6645 -0.1593 -0.1710
 8459SOL    HW231608   5.252   9.735   6.129 -1.0147 -0.9889  0.8038
 8460SOL     OW31609   8.036   3.770   0.614 -0.0259 -0.3591 -0.3927
 8460SOL    HW131610   7.949   3.721   0.606 -0.5283  0.4693 -0.0395
 8460SOL    HW231611   8.030   3.857   0.565  0.1822  0.2723  0.7114
 8461SOL     OW31612   2.646   3.374   2.478 -0.6485  0.0587 -0.2394
 8461SOL    HW131613   2.559   3.341   2.440 -1.0232 -0.5958  1.1711
 8461SOL    HW231614   2.705   3.297   2.498 -0.9470  0.3134  1.6926
 8462SOL     OW31615   2.019   0.071   6.191 -0.2859 -0.0772 -0.1808
 8462SOL    HW131616   1.946   0.042   6.129  0.1603 -0.5657 -0.4856
 8462SOL    HW231617   2.076   0.140   6.145  0.3212 -0.7791 -0.4920
 8463SOL     OW31618   7.803   4.209   2.619 -0.2201 -0.4767  0.4738
 8463SOL    HW131619   7.864   4.281   2.586  0.9335 -1.6006  0.1041
 8463SOL    HW231620   7.736   4.186   2.549  0.5097 -0.9539 -0.0801
 8464SOL     OW31621   3.781   0.259   1.528 -0.3212 -0.0353 -0.2269
 8464SOL    HW131622   3.691   0.289   1.499 -0.5248  0.0296  0.4488
 8464SOL    HW231623   3.789   0.160   1.514  0.1936  0.2466 -2.0474
 8465SOL     OW31624   3.871   1.336   0.623 -0.2141 -0.3902  0.3394
 8465SOL    HW131625   3.816   1.411   0.659 -0.1020  0.5782 -1.4316
 8465SOL    HW231626   3.812   1.269   0.578 -0.3009 -1.3107  1.8000
 8466SOL     OW31627   4.033   5.799   3.281 -0.2920  0.0581 -0.7275
 8466SOL    HW131628   4.096   5.797   3.359 -1.0198 -0.0244 -0.1340
 8466SOL    HW231629   3.947   5.755   3.307 -0.3531 -0.4309 -1.7456
 8467SOL     OW31630   7.341   3.253   0.811 -0.0025 -0.3659  0.2868
 8467SOL    HW131631   7.306   3.160   0.818  0.6844 -0.7425 -1.0772
 8467SOL    HW231632   7.427   3.260   0.862 -0.2819 -0.3587  0.7565
 8469SOL     OW31633   9.444   8.463   2.484  0.0281 -0.3746  0.1744
 8469SOL    HW131634   9.416   8.406   2.407 -0.3799 -0.1705  0.1662
 8469SOL    HW231635   9.528   8.427   2.525  0.1042 -0.6283 -0.2068
 8471SOL     OW31636   1.793   0.334   1.936  0.8413  0.1751 -0.1462
 8471SOL    HW131637   1.814   0.430   1.920 -1.3262  0.9416  1.3358
 8471SOL    HW231638   1.719   0.327   2.003  0.4180 -2.5085 -0.8309
 8472SOL     OW31639   3.673   2.398   0.102 -0.3770 -0.3104 -0.0160
 8472SOL    HW131640   3.700   2.480   0.152  0.9815 -0.5499 -0.3432
 8472SOL    HW231641   3.640   2.330   0.168 -2.1106  0.7070  0.1967
 8473SOL     OW31642   1.481   6.518   3.195 -0.3861  0.0010 -0.2876
 8473SOL    HW131643   1.515   6.597   3.143  0.5181 -0.0502  0.2193
 8473SOL    HW231644   1.551   6.448   3.199  0.4539  0.9353  2.9886
 8474SOL     OW31645   8.135   3.621   0.394  1.0497 -0.3912  0.5162
 8474SOL    HW131646   8.041   3.586   0.387  1.0611 -0.7237  1.9039
 8474SOL    HW231647   8.140   3.689   0.467  1.2044  1.9842 -1.6303
 8475SOL     OW31648   6.122   9.295   5.134  0.1036  0.1077 -0.0549
 8475SOL    HW131649   6.047   9.285   5.199 -1.1095  0.6014 -1.3604
 8475SOL    HW231650   6.166   9.383   5.147 -0.9557  0.7466 -0.7374
 8476SOL     OW31651   3.708   3.153   5.226  0.1066  0.3353  0.5589
 8476SOL    HW131652   3.660   3.228   5.180  2.9692  0.5696 -2.2541
 8476SOL    HW231653   3.710   3.074   5.166  0.0510 -0.8855  2.1488
 8477SOL     OW31654   8.395   8.127   4.139  0.4655  0.5357  0.4844
 8477SOL    HW131655   8.387   8.201   4.073  0.4649 -0.6504 -0.8773
 8477SOL    HW231656   8.490   8.121   4.171  0.4707  1.1105  0.5822
 8478SOL     OW31657   4.362   5.504   1.626 -0.3680 -0.0926 -0.3497
 8478SOL    HW131658   4.439   5.521   1.688  0.4884 -1.0775 -1.1147
 8478SOL    HW231659   4.313   5.589   1.608  0.8963  0.6455 -0.3126
 8479SOL     OW31660   9.693   2.169   4.125 -0.1762  0.1923 -0.1496
 8479SOL    HW131661   9.610   2.117   4.108 -0.6168  0.7012  0.4338
 8479SOL    HW231662   9.770   2.105   4.137 -0.3327 -0.2480 -1.4232
 8480SOL     OW31663   7.031   0.493   0.116  0.1359 -0.1983  0.0524
 8480SOL    HW131664   6.961   0.426   0.141  0.6007 -0.3109  1.0782
 8480SOL    HW231665   7.108   0.486   0.180  0.9183  0.1828 -0.8376
 8481SOL     OW31666   7.848   5.801   1.201 -0.3783  0.0654  0.4819
 8481SOL    HW131667   7.864   5.874   1.267  0.3305  0.1344  0.2375
 8481SOL    HW231668   7.910   5.812   1.123 -0.6131 -0.5106  0.2126
 8482SOL     OW31669   1.312   6.884   4.780 -0.1018  0.1937 -0.5278
 8482SOL    HW131670   1.242   6.945   4.816  0.0639 -1.3163  2.5319
 8482SOL    HW231671   1.269   6.811   4.726 -0.4595  1.7655 -2.4358
 8483SOL     OW31672   8.495   5.661   2.722 -0.2871 -0.0743 -0.2587
 8483SOL    HW131673   8.486   5.570   2.682 -0.6249  0.2458 -0.9157
 8483SOL    HW231674   8.569   5.661   2.789 -1.2288 -1.2207  0.8162
 8484SOL     OW31675   0.928   9.036   1.057  0.5383 -0.3654  0.4891
 8484SOL    HW131676   0.902   9.118   1.006  1.1599 -0.9794 -0.8481
 8484SOL    HW231677   0.999   8.987   1.007 -0.1961 -2.0009  1.0002
 8485SOL     OW31678   9.180   1.195   3.594 -0.4743  0.3781 -0.1993
 8485SOL    HW131679   9.104   1.239   3.546 -1.5578 -1.3767 -0.1328
 8485SOL    HW231680   9.167   1.204   3.693 -0.0102  1.0331 -0.1927
 8486SOL     OW31681   4.450   9.648   4.127 -0.9834  0.0387  0.4662
 8486SOL    HW131682   4.486   9.738   4.151 -1.8408  0.5479 -0.1386
 8486SOL    HW231683   4.495   9.615   4.045 -1.0547  0.1590  0.3782
 8487SOL     OW31684   9.961   5.539   2.798  0.8642  0.3458 -0.1519
 8487SOL    HW131685   9.876   5.487   2.800 -0.0091  1.7624  2.3013
 8487SOL    HW231686  10.036   5.482   2.832  0.2097  0.1657  1.0260
 8488SOL     OW31687   1.885   7.970   5.304  0.6797  0.2790 -0.4642
 8488SOL    HW131688   1.918   7.884   5.344  1.1454  1.0672  0.8604
 8488SOL    HW231689   1.785   7.972   5.310  0.7519  0.4763  0.8571
 8490SOL     OW31690   1.087   5.683   3.278 -0.0427 -0.2920 -0.9702
 8490SOL    HW131691   1.094   5.772   3.232 -2.0624 -1.3404 -3.4373
 8490SOL    HW231692   1.172   5.632   3.264 -0.0648  0.0093 -2.3365
 8491SOL     OW31693   7.353   3.977   2.199 -0.2475 -0.6340 -0.3665
 8491SOL    HW131694   7.426   3.924   2.241  0.0500  1.6166  2.0860
 8491SOL    HW231695   7.392   4.034   2.126 -0.2428 -2.2823 -1.6763
 8492SOL     OW31696   0.018   4.139   1.297 -0.4280  0.2007  0.4297
 8492SOL    HW131697   0.089   4.074   1.270  0.1736  1.3825 -0.8908
 8492SOL    HW231698   0.027   4.160   1.394  2.0563  1.5584 -0.0679
 8493SOL     OW31699   9.377   8.154   3.820  0.6242  0.2380  0.0630
 8493SOL    HW131700   9.441   8.148   3.896  1.0716 -1.9286 -0.4554
 8493SOL    HW231701   9.345   8.248   3.811  2.2286  0.9505  1.5484
 8494SOL     OW31702   8.186   2.428   3.449 -0.5197 -0.2656  0.0412
 8494SOL    HW131703   8.229   2.393   3.532  0.6729  0.1099 -0.4098
 8494SOL    HW231704   8.256   2.444   3.380 -1.4398 -0.0261 -0.8391
 8495SOL     OW31705   0.340   9.260   1.308 -0.0281  0.4442 -0.5497
 8495SOL    HW131706   0.349   9.355   1.276  3.5123  0.6402  0.8480
 8495SOL    HW231707   0.344   9.258   1.408  0.7708 -1.2838 -0.6095
 8497SOL     OW31708   2.892   8.615   5.869  0.6099  0.1967  0.4746
 8497SOL    HW131709   2.990   8.623   5.852  1.6043 -1.0872  5.0001
 8497SOL    HW231710   2.863   8.685   5.934 -1.2706 -0.1615  0.0690
 8499SOL     OW31711   4.526   1.872   3.297 -0.1772 -0.6405  0.6011
 8499SOL    HW131712   4.538   1.935   3.373  0.5186 -1.1792  0.9405
 8499SOL    HW231713   4.486   1.921   3.219  0.5332  0.2634  0.7930
 8500SOL     OW31714   9.273   7.097   2.904  0.3183 -0.2940 -0.2486
 8500SOL    HW131715   9.246   7.168   2.968 -0.0365 -0.5982 -0.0630
 8500SOL    HW231716   9.245   7.123   2.811 -0.2254 -0.4088 -0.1166
 8502SOL     OW31717   3.983   0.427   6.283  0.2314  0.4477 -0.0927
 8502SOL    HW131718   4.045   0.431   6.205 -1.1417  0.4168 -1.2073
 8502SOL    HW231719   4.035   0.408   6.366  1.6044 -0.4668 -1.1394
 8503SOL     OW31720   6.954   7.155   5.188  0.0423 -0.1226 -1.0353
 8503SOL    HW131721   7.004   7.225   5.239  0.3401 -0.8122 -0.3668
 8503SOL    HW231722   6.904   7.096   5.252 -1.1526  0.1890 -1.6657
 8504SOL     OW31723   9.729   3.789   4.439 -0.8528  0.4068 -0.1697
 8504SOL    HW131724   9.658   3.730   4.400  0.4138 -2.0646  1.1780
 8504SOL    HW231725   9.785   3.826   4.365 -1.9188  0.2801 -1.0596
 8505SOL     OW31726   3.360   8.389   0.277  0.7480 -0.2150 -0.1211
 8505SOL    HW131727   3.357   8.290   0.292  0.3869 -0.1310  0.3778
 8505SOL    HW231728   3.452   8.423   0.296  0.1429 -0.0126  2.5938
 8506SOL     OW31729   9.086   6.431   0.321 -0.1334  0.0713 -0.1045
 8506SOL    HW131730   9.077   6.344   0.272 -1.0252  0.2562 -0.2794
 8506SOL    HW231731   9.158   6.424   0.389  0.5617 -0.4545 -0.8869
 8507SOL     OW31732   8.219   6.704   3.916 -0.2089 -0.4065  0.5319
 8507SOL    HW131733   8.130   6.743   3.893 -0.8554 -1.1698  1.6825
 8507SOL    HW231734   8.225   6.689   4.014 -0.8128 -5.1279 -0.0350
 8508SOL     OW31735   4.753   3.512   1.769 -0.4352 -0.6679  0.2712
 8508SOL    HW131736   4.813   3.433   1.782 -0.4284 -0.6175  0.5548
 8508SOL    HW231737   4.713   3.537   1.857 -2.2033 -1.7651 -0.1968
 8509SOL     OW31738   3.390   2.312   3.000  0.4836 -0.3105  0.4313
 8509SOL    HW131739   3.360   2.355   2.915  0.2020 -0.8275  0.2645
 8509SOL    HW231740   3.486   2.288   2.993  0.8252  0.9233  0.7875
 8510SOL     OW31741   8.116   9.077   2.734  0.3343  0.3242  0.0616
 8510SOL    HW131742   8.129   8.989   2.687  1.0616 -0.0234  0.8963
 8510SOL    HW231743   8.188   9.141   2.706 -0.9810  1.1157 -1.5865
 8511SOL     OW31744   9.819   4.531   1.847  0.5298 -0.8824 -0.1660
 8511SOL    HW131745   9.774   4.500   1.763  2.3399 -2.1451 -0.7129
 8511SOL    HW231746   9.846   4.626   1.838 -0.7632 -0.5254 -0.3626
 8512SOL     OW31747   8.588   1.575   5.331  0.1326  0.0861 -0.6346
 8512SOL    HW131748   8.501   1.558   5.376  0.0357  0.8929 -0.5042
 8512SOL    HW231749   8.662   1.533   5.384 -0.1136 -0.0756 -0.4205
 8514SOL     OW31750   3.891   9.552   0.284 -0.3490  0.0216 -0.0112
 8514SOL    HW131751   3.869   9.489   0.210 -1.9212  0.9135 -0.3249
 8514SOL    HW231752   3.807   9.586   0.325  0.4957  0.7794  1.1301
 8515SOL     OW31753   0.283   8.291   1.551 -0.1150 -0.2947 -0.2003
 8515SOL    HW131754   0.254   8.360   1.484 -1.7825 -1.7442 -0.9850
 8515SOL    HW231755   0.333   8.218   1.504  1.4511  0.2276  0.6005
 8518SOL     OW31756   7.713   5.308   1.903 -0.3933 -0.5274  0.3467
 8518SOL    HW131757   7.807   5.278   1.887  0.6469  1.3650  2.4673
 8518SOL    HW231758   7.703   5.404   1.877 -1.8944 -0.8574 -0.3699
 8519SOL     OW31759   8.119   5.589   2.515 -0.1915 -0.4601 -0.0898
 8519SOL    HW131760   8.108   5.639   2.429 -1.1382 -0.0524  0.2549
 8519SOL    HW231761   8.075   5.641   2.589  1.1487 -0.5084  0.7490
 8520SOL     OW31762   2.985   2.807   5.457  0.0242  0.1917 -0.1602
 8520SOL    HW131763   3.067   2.861   5.435  0.4867  0.0401  1.1429
 8520SOL    HW231764   2.966   2.744   5.382  0.3116  1.1648 -1.0696
 8521SOL     OW31765   7.677   4.269   0.238 -0.2257 -0.1434  0.1779
 8521SOL    HW131766   7.660   4.220   0.324  1.3155  1.0803  1.2276
 8521SOL    HW231767   7.769   4.248   0.206 -0.9219 -0.8665 -1.3780
 8522SOL     OW31768   4.053   5.129   3.420 -0.1019 -0.2593 -0.3751
 8522SOL    HW131769   4.034   5.222   3.389  0.1121  0.6215  2.0432
 8522SOL    HW231770   3.969   5.076   3.419 -0.1972 -0.1056 -1.9242
 8523SOL     OW31771   1.131   0.194   4.383 -0.5572 -0.1729  0.1749
 8523SOL    HW131772   1.229   0.176   4.378 -0.5803  0.2124 -2.3499
 8523SOL    HW231773   1.115   0.292   4.387 -0.8643 -0.2313  0.4641
 8524SOL     OW31774   2.746   3.135   4.457  0.0940  0.5341  0.6579
 8524SOL    HW131775   2.656   3.145   4.499 -0.6902  0.8448 -1.0623
 8524SOL    HW231776   2.802   3.215   4.477  0.2924 -0.0106  2.3974
 8528SOL     OW31777   3.348   0.016   5.398 -0.3165 -0.3152  0.1925
 8528SOL    HW131778   3.270   0.035   5.338  0.6217 -0.7230 -1.1797
 8528SOL    HW231779   3.373   0.099   5.448 -0.7027  0.2011 -0.4659
 8531SOL     OW31780   6.294   0.533   5.868 -0.8276 -0.4860 -0.1657
 8531SOL    HW131781   6.207   0.570   5.899 -1.0724  0.2012 -1.6214
 8531SOL    HW231782   6.289   0.514   5.770 -0.0473 -2.5033  0.1667
 8533SOL     OW31783   9.747   0.958   5.443 -0.3142  0.3479 -0.4315
 8533SOL    HW131784   9.729   0.864   5.473 -1.8394  0.1716 -1.8874
 8533SOL    HW231785   9.669   1.016   5.464 -0.1377  0.8949 -1.2493
 8534SOL     OW31786   1.917   9.583   1.739 -0.0500 -0.0794 -0.0865
 8534SOL    HW131787   1.860   9.639   1.679 -0.9656 -1.9233 -0.9776
 8534SOL    HW231788   1.921   9.625   1.829 -2.3138  0.4359 -0.1872
 8535SOL     OW31789   9.223   8.895   5.999 -0.4807  0.1507 -0.2700
 8535SOL    HW131790   9.142   8.925   6.049 -0.1079  1.1491 -0.2524
 8535SOL    HW231791   9.225   8.939   5.910  0.8593  1.3574  0.3449
 8536SOL     OW31792   8.767   0.739   3.289  0.5206 -0.1908  0.3981
 8536SOL    HW131793   8.710   0.811   3.329  0.6048  0.0622  0.0642
 8536SOL    HW231794   8.764   0.746   3.189  0.5863 -0.6067  0.3680
 8537SOL     OW31795   1.127   9.605   5.124 -1.0265  0.0502  0.4371
 8537SOL    HW131796   1.196   9.677   5.114 -1.3272  0.9280  4.1436
 8537SOL    HW231797   1.069   9.603   5.043  3.1602 -0.6179 -2.7626
 8538SOL     OW31798   9.331   4.005   4.785  0.1824  0.2072  0.5872
 8538SOL    HW131799   9.361   3.919   4.742  2.2964  1.1059  0.2167
 8538SOL    HW231800   9.309   4.071   4.714 -0.0555  0.4554  0.8909
 8539SOL     OW31801   7.546   1.232   3.720 -0.4907  1.2585  0.3361
 8539SOL    HW131802   7.582   1.179   3.798 -1.6143  1.2105  0.8332
 8539SOL    HW231803   7.473   1.180   3.676  1.9219  0.0834 -2.4385
 8540SOL     OW31804   8.735   7.774   1.322  0.0623  0.0317  0.0594
 8540SOL    HW131805   8.674   7.728   1.257 -0.1253  0.7497 -0.2709
 8540SOL    HW231806   8.746   7.870   1.296 -1.0367  0.6541  1.8282
 8541SOL     OW31807   4.582   4.713   5.707  0.3225 -0.3513  0.3234
 8541SOL    HW131808   4.628   4.637   5.753  0.1035 -1.1355 -0.7122
 8541SOL    HW231809   4.635   4.740   5.627 -1.0705 -1.4197 -1.0211
 8543SOL     OW31810   0.342   9.387   2.248 -0.6273  0.0317 -0.2447
 8543SOL    HW131811   0.370   9.302   2.202  1.3101  0.3436  0.2953
 8543SOL    HW231812   0.258   9.421   2.207  0.0982 -0.6473 -2.3791
 8544SOL     OW31813   5.356   8.819   3.158 -0.4962  1.0096  0.0021
 8544SOL    HW131814   5.292   8.769   3.099 -0.4703 -0.3500  1.1061
 8544SOL    HW231815   5.447   8.819   3.116 -0.1671 -1.1319  0.6594
 8549SOL     OW31816   9.609   2.195   2.886  0.2897  0.2649  0.1775
 8549SOL    HW131817   9.675   2.269   2.899  0.6712  0.2184 -1.3301
 8549SOL    HW231818   9.598   2.144   2.971  1.7203  0.6635  0.6137
 8550SOL     OW31819   2.921   6.466   5.325 -0.0849 -0.1163 -0.2198
 8550SOL    HW131820   2.896   6.550   5.277 -0.6305  0.7228  1.4554
 8550SOL    HW231821   2.961   6.490   5.414 -0.8105 -1.6265  0.5372
 8551SOL     OW31822   3.490   1.697   0.963 -0.8969  0.7709 -0.2624
 8551SOL    HW131823   3.472   1.793   0.985  0.0673  0.7542  0.6656
 8551SOL    HW231824   3.589   1.682   0.957 -1.0493 -0.0599 -0.9114
 8552SOL     OW31825   4.568   3.726   0.103 -0.2599 -0.3607  0.4483
 8552SOL    HW131826   4.565   3.755   0.199 -0.9349 -1.3598  0.7273
 8552SOL    HW231827   4.502   3.653   0.088  1.3295 -1.6569 -0.3042
 8553SOL     OW31828   0.779   2.911   4.388 -0.1060 -0.0687 -0.1702
 8553SOL    HW131829   0.702   2.975   4.394 -0.3325 -0.4091  0.6818
 8553SOL    HW231830   0.746   2.821   4.360 -0.2698 -0.6385  1.8112
 8554SOL     OW31831   3.090   5.095   0.823  0.1588  0.3924 -0.1860
 8554SOL    HW131832   3.106   5.123   0.728  1.7704  0.1627  0.0173
 8554SOL    HW231833   3.013   5.147   0.860  0.5278  1.6076 -1.1095
 8556SOL     OW31834   6.269   7.182   5.097 -0.0909  0.0313 -0.4341
 8556SOL    HW131835   6.368   7.189   5.108 -0.2032  0.7518  0.1824
 8556SOL    HW231836   6.224   7.243   5.162 -0.8960  1.3243 -2.1592
 8557SOL     OW31837   4.217   3.277   0.859 -0.0122 -0.8080  0.5359
 8557SOL    HW131838   4.119   3.267   0.840  0.1470 -0.2444 -0.5972
 8557SOL    HW231839   4.231   3.280   0.958 -1.2107 -0.2359  0.7009
 8559SOL     OW31840   0.054   1.267   0.393  0.4665 -0.7126 -0.1909
 8559SOL    HW131841   0.150   1.240   0.384  0.7467  0.4621 -0.7851
 8559SOL    HW231842   0.025   1.257   0.488  1.4945 -0.0418  0.1978
 8560SOL     OW31843   0.614   5.078   6.280 -0.3032 -0.3205  0.5475
 8560SOL    HW131844   0.648   5.029   6.360  1.6631  0.0669 -0.0236
 8560SOL    HW231845   0.691   5.098   6.218 -1.9104 -1.5222 -1.9317
 8562SOL     OW31846   1.624   4.512   6.015 -0.4292 -0.2697 -0.5335
 8562SOL    HW131847   1.640   4.590   5.954 -0.0115 -1.1633 -1.5990
 8562SOL    HW231848   1.679   4.523   6.098 -0.1797  0.4465 -0.7854
 8563SOL     OW31849   2.743   8.194   5.772  0.4132  0.5091  0.8846
 8563SOL    HW131850   2.718   8.263   5.704  0.8587  1.8934  2.0731
 8563SOL    HW231851   2.663   8.169   5.826  0.4452  0.8082  1.0719
 8565SOL     OW31852   1.273   3.483   5.458 -0.1391  0.0163 -0.6336
 8565SOL    HW131853   1.190   3.504   5.509  1.6496 -0.3369  2.5572
 8565SOL    HW231854   1.316   3.401   5.496  1.5348  0.0509 -2.3699
 8566SOL     OW31855   4.144   9.164   3.855  0.3304  0.1269 -0.4306
 8566SOL    HW131856   4.215   9.183   3.787  1.2165  1.6984  0.9137
 8566SOL    HW231857   4.125   9.247   3.908 -1.7142 -0.5778 -0.0300
 8567SOL     OW31858   2.962   4.219   5.764  0.0751 -0.7237 -0.2721
 8567SOL    HW131859   2.927   4.229   5.671  0.3347 -0.8938 -0.3875
 8567SOL    HW231860   2.958   4.307   5.811 -0.4444 -0.7276 -0.3084
 8569SOL     OW31861   3.324   9.678   1.051 -0.0268  0.2737  0.3131
 8569SOL    HW131862   3.347   9.767   1.011  0.5270 -0.3498 -0.7556
 8569SOL    HW231863   3.398   9.613   1.035 -1.2139 -0.8983 -0.5367
 8571SOL     OW31864   6.920   0.984   3.410 -0.5675  0.4111  0.2924
 8571SOL    HW131865   6.877   1.047   3.475 -0.2954  1.2160 -0.2883
 8571SOL    HW231866   7.019   1.001   3.407 -0.6135  0.5640 -0.5205
 8572SOL     OW31867   1.700   8.270   5.482  0.8749 -0.8376  0.3955
 8572SOL    HW131868   1.766   8.339   5.511  0.5982  1.1220 -3.3425
 8572SOL    HW231869   1.611   8.288   5.525  0.8983  0.9651 -0.2733
 8573SOL     OW31870   0.791   4.740   4.674  0.0256  0.7135 -0.4538
 8573SOL    HW131871   0.869   4.778   4.724  0.5193 -0.3255 -0.4366
 8573SOL    HW231872   0.768   4.650   4.710 -1.5960  1.2783 -0.0360
 8574SOL     OW31873   2.216   5.212   4.270  0.0819  0.0176 -0.0124
 8574SOL    HW131874   2.230   5.308   4.297 -1.6086 -0.0092  1.0832
 8574SOL    HW231875   2.227   5.153   4.350 -0.4906 -0.5286 -0.3287
 8575SOL     OW31876   1.277   2.358   3.502 -0.2183  0.0746  1.0948
 8575SOL    HW131877   1.183   2.388   3.518 -0.5042  0.2721 -0.9088
 8575SOL    HW231878   1.329   2.430   3.456  0.6070 -0.4578  1.1730
 8576SOL     OW31879   4.704   3.561   2.033 -0.4482  0.2457 -0.2490
 8576SOL    HW131880   4.748   3.631   2.088 -1.0969 -0.3736  1.0907
 8576SOL    HW231881   4.614   3.539   2.071 -1.0262 -0.0265 -1.6998
 8578SOL     OW31882   2.092   4.904   6.262 -0.3056  0.3392 -0.3954
 8578SOL    HW131883   2.121   4.856   6.179  1.7612  0.3038  0.3152
 8578SOL    HW231884   2.150   4.984   6.276 -2.5717  2.0836 -0.6038
 8579SOL     OW31885   8.194   3.958   5.339  0.6550  0.1364 -0.4314
 8579SOL    HW131886   8.278   4.013   5.342 -0.7894  2.3303  2.6506
 8579SOL    HW231887   8.164   3.938   5.433 -1.8792 -1.2570 -1.4924
 8580SOL     OW31888   8.536   4.783   4.235  0.1837 -0.6642 -0.2581
 8580SOL    HW131889   8.484   4.867   4.252 -0.0146 -0.8703  0.1396
 8580SOL    HW231890   8.558   4.739   4.322  2.4427  0.2918 -0.2828
 8582SOL     OW31891   6.338   7.976   5.240 -0.1526  0.5883  0.0865
 8582SOL    HW131892   6.359   7.958   5.144 -2.6524  2.2165 -0.8470
 8582SOL    HW231893   6.273   7.908   5.273  1.0139 -0.2031  0.7373
 8583SOL     OW31894   5.043   7.469   4.691  0.0653  0.3655 -0.2175
 8583SOL    HW131895   4.953   7.424   4.693  0.6394 -0.7823  0.0255
 8583SOL    HW231896   5.085   7.462   4.781  0.8975 -0.1053 -0.6417
 8584SOL     OW31897   7.641   1.085   3.967  0.1056  0.0379  0.1595
 8584SOL    HW131898   7.617   1.001   4.016  1.1924 -1.3071 -1.5433
 8584SOL    HW231899   7.736   1.079   3.935 -0.1694  1.4189 -0.9745
 8585SOL     OW31900   3.388   4.939   4.417 -0.4622 -0.5793  0.0024
 8585SOL    HW131901   3.397   5.038   4.404 -1.5484 -0.4334  0.3595
 8585SOL    HW231902   3.344   4.899   4.337 -0.2348 -0.7444 -0.0406
 8586SOL     OW31903   2.264   5.129   6.227 -0.1508 -0.3808 -0.3809
 8586SOL    HW131904   2.283   5.082   6.141  0.3245 -0.4031 -0.2655
 8586SOL    HW231905   2.257   5.227   6.210  0.5662 -0.3241 -0.3423
 8589SOL     OW31906   3.722   0.533   6.451  0.1453 -0.5379  0.4342
 8589SOL    HW131907   3.768   0.530   6.362 -2.5140  1.8748 -1.0824
 8589SOL    HW231908   3.772   0.594   6.513 -0.2048  0.9532 -0.7406
 8590SOL     OW31909   7.894   0.534   6.084  0.1191 -0.0872 -0.0609
 8590SOL    HW131910   7.825   0.600   6.114  0.2785 -0.3681  0.9495
 8590SOL    HW231911   7.973   0.539   6.145  2.0240  1.9035 -2.6093
 8591SOL     OW31912   9.137   6.020   0.897 -0.2137  0.5133 -0.0453
 8591SOL    HW131913   9.203   6.018   0.822  0.1495 -0.2324  0.2909
 8591SOL    HW231914   9.136   6.112   0.937 -0.3191  0.8743 -0.8837
 8592SOL     OW31915   4.332   0.938   4.096 -0.4608 -0.0414  0.0132
 8592SOL    HW131916   4.266   1.012   4.107 -0.1114  0.4698 -1.2106
 8592SOL    HW231917   4.334   0.881   4.178 -0.8669  1.1992  0.8817
 8593SOL     OW31918   3.571   8.016   0.878  0.1357 -0.2228 -0.4003
 8593SOL    HW131919   3.605   8.110   0.883  1.4603 -0.6689 -0.7245
 8593SOL    HW231920   3.565   7.977   0.969 -2.1555  0.7697 -0.1045
 8594SOL     OW31921   9.839   1.185   3.265  0.0191 -0.3921 -0.0499
 8594SOL    HW131922   9.853   1.264   3.325 -1.8199  0.2485 -0.4232
 8594SOL    HW231923   9.911   1.117   3.282  1.0169  0.8949  1.0244
 8595SOL     OW31924   3.033   1.582   0.577  0.1594 -0.0624  0.0469
 8595SOL    HW131925   3.103   1.531   0.528 -0.2840 -0.0344 -0.6321
 8595SOL    HW231926   3.054   1.584   0.675  0.4766 -1.0616  0.0018
 8596SOL     OW31927   5.066   9.788   4.737 -0.1563 -0.1334  0.0311
 8596SOL    HW131928   5.116   9.813   4.820 -0.0488 -0.8765  0.1937
 8596SOL    HW231929   5.127   9.799   4.658 -0.0563 -0.0474  0.1191
 8597SOL     OW31930   3.167   9.907   0.381 -0.3598 -0.2258 -0.6937
 8597SOL    HW131931   3.212   9.940   0.298 -0.5783 -2.1993 -1.6359
 8597SOL    HW231932   3.108   9.830   0.358  0.0585 -1.1999  1.4069
 8598SOL     OW31933   2.431   2.308   5.063  0.4694  0.0962 -0.1111
 8598SOL    HW131934   2.332   2.307   5.056  0.3907  0.9058  0.7320
 8598SOL    HW231935   2.465   2.214   5.072 -0.3325 -0.0908  1.0499
 8599SOL     OW31936   0.399   9.941   2.605  0.1018 -0.4763  0.0610
 8599SOL    HW131937   0.341   9.882   2.660  1.6838 -1.8644  0.2745
 8599SOL    HW231938   0.493   9.935   2.637  0.5777  0.8311 -1.0296
 8600SOL     OW31939   1.577   2.617   1.620  0.1121  0.1063 -0.3886
 8600SOL    HW131940   1.617   2.568   1.543 -1.8447  0.7505 -1.8171
 8600SOL    HW231941   1.564   2.553   1.697  1.2078 -0.7250 -0.8821
 8602SOL     OW31942   5.681   0.627   5.325 -0.0023  0.5208  0.1282
 8602SOL    HW131943   5.752   0.558   5.308 -0.2607 -0.0020  1.1543
 8602SOL    HW231944   5.723   0.712   5.357  0.2488  0.5696 -0.3305
 8603SOL     OW31945   4.191   0.623   4.676  0.5014  0.4080  0.0288
 8603SOL    HW131946   4.253   0.698   4.701  0.5178  0.6196 -0.6343
 8603SOL    HW231947   4.097   0.657   4.673  0.4293  0.2421  0.3846
 8604SOL     OW31948   4.593   1.291   0.363 -0.1758 -0.2847 -0.1455
 8604SOL    HW131949   4.635   1.256   0.446 -0.2610 -0.8276 -0.3276
 8604SOL    HW231950   4.597   1.391   0.362  1.1801 -0.3329 -0.1933
 8606SOL     OW31951   1.697   0.780   3.175 -0.4309 -0.0162 -0.3958
 8606SOL    HW131952   1.748   0.713   3.121 -1.7947  1.4244 -3.5850
 8606SOL    HW231953   1.679   0.743   3.266 -0.2166 -3.5247 -1.7188
 8607SOL     OW31954   1.506   9.473   4.604 -0.6048 -0.3072 -0.1805
 8607SOL    HW131955   1.475   9.543   4.668 -1.3225 -0.2940 -0.5461
 8607SOL    HW231956   1.589   9.504   4.557 -0.1472 -0.2636  0.6476
 8608SOL     OW31957   2.653  -0.000   4.557 -0.2636  0.2657  0.3343
 8608SOL    HW131958   2.609   0.038   4.476 -0.1225 -0.4209 -0.0702
 8608SOL    HW231959   2.680   0.074   4.619 -0.5488  0.7758 -0.1513
 8609SOL     OW31960   0.618   8.924   5.399  0.1283  0.2165  0.7200
 8609SOL    HW131961   0.617   8.841   5.344 -0.9178  1.3288 -0.9970
 8609SOL    HW231962   0.577   8.906   5.488 -1.2630 -0.7891 -0.1055
 8610SOL     OW31963   0.433   7.359   5.161 -0.5168  0.2083 -0.0498
 8610SOL    HW131964   0.511   7.338   5.219  1.5895 -0.4307 -3.0156
 8610SOL    HW231965   0.457   7.432   5.097 -2.9954  1.3603  0.2826
 8611SOL     OW31966   1.979   7.647   6.334  0.3998  0.1759  0.1353
 8611SOL    HW131967   1.968   7.561   6.385  0.3341 -1.0007 -1.8205
 8611SOL    HW231968   2.004   7.627   6.240  0.0821  2.3240 -0.4348
 8612SOL     OW31969   9.325   0.068   5.689  0.1817 -0.0640 -0.4680
 8612SOL    HW131970   9.275   0.043   5.606 -1.5135 -0.3970  0.6228
 8612SOL    HW231971   9.265   0.058   5.769  1.4826  1.1560  0.7068
 8613SOL     OW31972   4.633   8.744   1.587  0.2062 -0.1203 -0.4940
 8613SOL    HW131973   4.577   8.662   1.598  0.9427 -0.5235  0.3106
 8613SOL    HW231974   4.707   8.726   1.522 -2.3107  1.3109 -3.8481
 8614SOL     OW31975   9.366   7.014   4.084  0.0871  0.4208  0.3162
 8614SOL    HW131976   9.403   6.979   3.998  1.7364  0.2555  1.0717
 8614SOL    HW231977   9.355   7.113   4.077 -0.6488  0.2965 -0.3905
 8616SOL     OW31978   4.565   2.802   4.285 -0.7723 -0.5319 -0.1595
 8616SOL    HW131979   4.511   2.739   4.340  0.5495 -2.3088 -0.8495
 8616SOL    HW231980   4.594   2.879   4.342 -0.4005 -1.7477  1.3372
 8617SOL     OW31981   6.059   0.306   1.080 -0.2977 -0.0478  0.3404
 8617SOL    HW131982   6.117   0.263   1.011 -0.9113  1.5225 -1.2024
 8617SOL    HW231983   6.108   0.384   1.120 -1.4725  1.6380 -1.3730
 8618SOL     OW31984   3.592   7.034   1.772  0.0850  0.1016  0.3353
 8618SOL    HW131985   3.626   6.948   1.811  0.1536  0.5474  1.2677
 8618SOL    HW231986   3.606   7.108   1.837 -2.5295  0.3367  0.6897
 8619SOL     OW31987   4.368   3.496   4.489 -0.4971 -0.2627  0.3843
 8619SOL    HW131988   4.293   3.463   4.547 -0.8671  0.5099  0.3555
 8619SOL    HW231989   4.338   3.578   4.440  0.3628  0.0329  0.3455
 8620SOL     OW31990   0.055   9.025   0.394 -0.2286 -0.2424  0.7287
 8620SOL    HW131991   0.101   8.962   0.332  1.9479  1.1006  0.9243
 8620SOL    HW231992   0.079   9.003   0.488 -2.3863 -1.3749  1.0468
 8621SOL     OW31993   9.910   4.493   0.471 -0.5002 -0.3137 -0.2121
 8621SOL    HW131994   9.832   4.553   0.488  0.2619  0.9576 -1.0696
 8621SOL    HW231995   9.885   4.427   0.399 -0.3049  1.0726 -1.5762
 8622SOL     OW31996   4.578   5.520   0.741 -0.2500 -0.0883  0.1020
 8622SOL    HW131997   4.601   5.580   0.818 -2.1578  2.0572 -0.9297
 8622SOL    HW231998   4.640   5.538   0.665  0.0652 -0.4161  0.2842
 8623SOL     OW31999   1.935   7.549   0.233 -0.4448  0.3574  0.4259
 8623SOL    HW132000   1.855   7.601   0.203 -0.8898  0.0388  1.0491
 8623SOL    HW232001   1.925   7.525   0.330  1.2574  1.8900  1.0111
 8624SOL     OW32002   1.482   8.388   6.035 -0.8629 -0.0184  0.0205
 8624SOL    HW132003   1.521   8.458   5.974  0.4880 -1.0327 -0.3085
 8624SOL    HW232004   1.552   8.319   6.055 -2.1385 -1.1980  0.4684
 8625SOL     OW32005   9.320   6.931   3.821 -0.6412  0.0823  0.6230
 8625SOL    HW132006   9.264   6.911   3.740 -0.0385 -0.5541  0.3526
 8625SOL    HW232007   9.411   6.960   3.792 -0.8905  1.3145  1.0583
 8626SOL     OW32008   0.290   8.339   3.145 -0.7382 -0.0463 -0.4727
 8626SOL    HW132009   0.212   8.276   3.133 -1.7799  1.3524 -1.1610
 8626SOL    HW232010   0.298   8.365   3.241  0.0112 -1.6153 -0.0947
 8627SOL     OW32011   4.422   3.022   4.130  0.4080 -0.0009 -0.2347
 8627SOL    HW132012   4.435   2.944   4.190 -0.0418  2.1735  2.7836
 8627SOL    HW232013   4.324   3.038   4.117  0.4893  0.6565 -0.0340
 8628SOL     OW32014   3.530   4.020   5.625 -0.2148  0.3919 -0.1000
 8628SOL    HW132015   3.489   4.111   5.632  0.1189  0.6906 -1.7810
 8628SOL    HW232016   3.630   4.029   5.629 -0.1763  0.1318 -0.4251
 8629SOL     OW32017   6.390   8.371   3.429 -0.8209  0.2827  0.4819
 8629SOL    HW132018   6.374   8.273   3.446 -0.7941  0.3397  0.8527
 8629SOL    HW232019   6.373   8.391   3.333 -2.3868  0.2282  0.7274
 8630SOL     OW32020   1.071   1.903   2.211  0.7297  0.2883 -0.5636
 8630SOL    HW132021   1.082   1.902   2.310  0.3290 -0.7059 -0.5264
 8630SOL    HW232022   0.993   1.846   2.185  1.0163  0.2994 -1.4721
 8631SOL     OW32023   0.197   4.312   2.743 -0.1833 -0.3525  0.1092
 8631SOL    HW132024   0.221   4.235   2.802  0.4734 -0.0467  0.2430
 8631SOL    HW232025   0.149   4.381   2.797 -0.2350 -0.3995  0.1238
 8632SOL     OW32026   1.395   3.059   3.261  0.4679  0.3007  0.0657
 8632SOL    HW132027   1.312   3.004   3.274 -0.2345  1.2381 -0.4001
 8632SOL    HW232028   1.373   3.140   3.206  1.8183  0.2517 -0.5597
 8633SOL     OW32029   9.669   8.275   0.314  0.4006 -0.6390  0.1255
 8633SOL    HW132030   9.643   8.316   0.227  0.6861 -0.2926  0.2042
 8633SOL    HW232031   9.762   8.240   0.308  1.2721  1.4516  1.0104
 8634SOL     OW32032   8.785   6.983   3.472  0.1565  0.0843  0.1170
 8634SOL    HW132033   8.698   6.952   3.511 -0.6736  1.0911 -0.8923
 8634SOL    HW232034   8.769   7.066   3.417  1.8278  0.5358  0.2929
 8637SOL     OW32035   2.323   6.095   5.126  0.1862 -0.1030 -0.0561
 8637SOL    HW132036   2.301   6.173   5.184  0.4619 -1.1004  1.3998
 8637SOL    HW232037   2.393   6.039   5.169 -0.6817 -1.6849 -0.6286
 8638SOL     OW32038   9.754   9.405   2.126 -0.1205 -0.2645  0.2006
 8638SOL    HW132039   9.766   9.504   2.121 -2.2287  0.0950  1.3639
 8638SOL    HW232040   9.812   9.367   2.198  1.7611 -0.0893 -1.2116
 8639SOL     OW32041   8.837   3.401   4.996 -0.2174 -0.4051  0.2875
 8639SOL    HW132042   8.852   3.478   5.057 -0.5105 -1.4119  1.6633
 8639SOL    HW232043   8.786   3.431   4.915  1.2685  1.1815 -0.0657
 8640SOL     OW32044   5.299   1.929   5.665  0.2690 -0.1471  0.4694
 8640SOL    HW132045   5.205   1.896   5.660  0.4517 -0.6571  0.3632
 8640SOL    HW232046   5.323   1.977   5.581  0.3809 -0.7545  0.1599
 8641SOL     OW32047   5.771   2.386   0.742 -0.2760  0.2088  0.2335
 8641SOL    HW132048   5.698   2.445   0.708  1.3189  1.3170 -1.3371
 8641SOL    HW232049   5.780   2.306   0.683  0.7078  0.7901 -0.4259
 8642SOL     OW32050   2.916   7.625   2.530  0.2532  0.4964 -0.0299
 8642SOL    HW132051   2.965   7.639   2.616  1.6791  0.6634 -0.8654
 8642SOL    HW232052   2.842   7.560   2.545  0.8011  0.1303  1.2014
 8643SOL     OW32053   3.918   9.040   5.451 -0.2733  0.6542  0.0889
 8643SOL    HW132054   3.930   9.092   5.366 -0.3603  0.1343 -0.2410
 8643SOL    HW232055   3.844   8.974   5.440 -1.2957  1.6055  1.0551
 8644SOL     OW32056   3.417   6.347   5.997  0.3378 -0.2478 -0.2644
 8644SOL    HW132057   3.396   6.439   5.962 -0.8898  0.3518  1.9135
 8644SOL    HW232058   3.419   6.350   6.097  1.3298 -2.3958 -0.2029
 8645SOL     OW32059   7.959   0.389   4.659 -0.5668 -0.1585  0.1616
 8645SOL    HW132060   8.008   0.304   4.678  0.0051  0.3948  1.2291
 8645SOL    HW232061   7.912   0.420   4.742 -0.2463  0.8902 -0.0318
 8646SOL     OW32062   1.565   8.093   5.758  0.5870 -0.6735  0.8514
 8646SOL    HW132063   1.489   8.029   5.771 -0.6888  0.6927  0.2867
 8646SOL    HW232064   1.641   8.067   5.816 -1.2093 -0.6614  3.2751
 8648SOL     OW32065   5.531   0.909   5.553  0.3992 -0.1739 -0.4180
 8648SOL    HW132066   5.600   0.979   5.534  1.5111 -1.2329 -0.3291
 8648SOL    HW232067   5.518   0.851   5.472  2.2403 -2.2036  0.6844
 8649SOL     OW32068   0.981   9.691   3.067 -0.0421  0.1777  0.0491
 8649SOL    HW132069   1.038   9.726   3.141 -0.0957  0.8649 -0.2291
 8649SOL    HW232070   1.023   9.609   3.029  1.2892  1.2351 -0.8152
 8651SOL     OW32071   3.549   1.690   4.597 -0.0385 -0.3806  0.1640
 8651SOL    HW132072   3.492   1.704   4.678 -1.6478  0.6230 -1.1063
 8651SOL    HW232073   3.521   1.606   4.550 -0.9669  0.4808 -0.8461
 8652SOL     OW32074   8.104   1.566   2.217  0.1589 -0.2413 -0.3649
 8652SOL    HW132075   8.190   1.618   2.216  1.0946 -1.7553 -1.4715
 8652SOL    HW232076   8.047   1.595   2.140  0.8840 -1.1719 -1.2615
 8653SOL     OW32077   7.601   9.252   4.556  0.3520 -0.5767  0.2868
 8653SOL    HW132078   7.513   9.298   4.571 -0.7257 -2.4105 -0.3699
 8653SOL    HW232079   7.622   9.252   4.458  0.9832 -0.3294  0.4236
 8654SOL     OW32080   1.451   5.015   5.503  0.3015  0.2332 -0.0045
 8654SOL    HW132081   1.364   5.061   5.523  1.1193  1.4706  0.8029
 8654SOL    HW232082   1.502   5.069   5.435  1.5379  0.8497  1.3998
 8655SOL     OW32083   2.472   1.330   4.855 -0.5461 -0.4191  0.0768
 8655SOL    HW132084   2.438   1.240   4.883 -0.2994 -0.8087 -0.8494
 8655SOL    HW232085   2.564   1.321   4.818 -1.0197  0.0077 -1.2456
 8656SOL     OW32086   6.457   1.203   2.794 -0.2450 -0.1350 -0.3505
 8656SOL    HW132087   6.460   1.261   2.874 -0.8221  1.2939 -1.3508
 8656SOL    HW232088   6.455   1.107   2.822 -0.6437  0.3576  1.3337
 8658SOL     OW32089   0.290   6.624   5.415 -0.4199  0.0282 -0.0491
 8658SOL    HW132090   0.261   6.549   5.357 -1.9743  0.1765  0.4999
 8658SOL    HW232091   0.295   6.708   5.361  1.1654 -0.4195 -0.6268
 8659SOL     OW32092   4.110   7.490   2.891 -0.0350 -0.3087 -0.3773
 8659SOL    HW132093   4.051   7.530   2.821 -2.8861 -2.1949  0.8716
 8659SOL    HW232094   4.182   7.437   2.847 -1.3929 -0.9180 -1.9180
 8660SOL     OW32095   0.951   0.980   0.290  0.0709 -0.0643 -0.7749
 8660SOL    HW132096   0.972   1.052   0.223  0.2468  0.2144 -0.4196
 8660SOL    HW232097   0.879   0.921   0.253  0.7138 -0.3820 -1.5426
 8661SOL     OW32098   4.786   3.206   1.885  0.1656 -0.3716 -0.4273
 8661SOL    HW132099   4.782   3.226   1.983  1.6990 -2.2489  0.0460
 8661SOL    HW232100   4.711   3.144   1.861  0.5711 -0.9693 -0.1672
 8662SOL     OW32101   9.470   7.894   2.948 -0.3627 -0.0317 -0.5895
 8662SOL    HW132102   9.414   7.816   2.919 -0.1005 -0.1979 -0.6504
 8662SOL    HW232103   9.428   7.937   3.028  0.8529 -1.8468  1.0741
 8663SOL     OW32104   9.042   9.637   3.171 -0.4230 -0.4012  0.5113
 8663SOL    HW132105   9.087   9.554   3.137 -1.7479 -1.2489  0.8124
 8663SOL    HW232106   9.063   9.648   3.268 -2.5385 -1.9646  1.1932
 8666SOL     OW32107   2.683   5.715   0.188 -0.1105 -0.3112 -0.3192
 8666SOL    HW132108   2.665   5.639   0.125  0.2990 -0.0049 -0.8083
 8666SOL    HW232109   2.665   5.802   0.142 -0.3566 -0.1021  0.1684
 8667SOL     OW32110   5.327   2.790   4.234  0.0716 -0.7557  0.0978
 8667SOL    HW132111   5.414   2.811   4.189 -0.0014  0.6493  0.5659
 8667SOL    HW232112   5.340   2.791   4.334 -0.9760  1.9771  0.2535
 8668SOL     OW32113   8.083   0.614   2.085  0.0939  0.0724 -0.3977
 8668SOL    HW132114   8.048   0.546   2.021  0.3495  0.2586 -0.7360
 8668SOL    HW232115   8.019   0.624   2.161  0.4160 -1.1013  0.0438
 8669SOL     OW32116   4.619   0.020   6.067  0.1508  0.0318  0.0731
 8669SOL    HW132117   4.651   0.059   6.154  3.4599 -1.3960 -0.4590
 8669SOL    HW232118   4.649   0.078   5.991 -1.4596  0.4588 -0.2767
 8670SOL     OW32119   0.508   1.143   5.380 -0.1708  0.0312  0.4644
 8670SOL    HW132120   0.506   1.088   5.297 -0.4058  0.3901  0.2344
 8670SOL    HW232121   0.442   1.218   5.373  1.5138  1.4996 -0.0207
 8671SOL     OW32122   3.758   5.036   2.404  0.5512  0.0858  0.1742
 8671SOL    HW132123   3.691   5.049   2.477  0.1133 -1.4867  0.0501
 8671SOL    HW232124   3.839   5.091   2.425 -0.2022  0.8944  1.0355
 8672SOL     OW32125   3.485   6.152   4.069  0.4968 -0.3221  0.1112
 8672SOL    HW132126   3.402   6.196   4.103  0.7126  0.1292  0.0625
 8672SOL    HW232127   3.478   6.054   4.082 -0.5921 -0.4156 -1.0779
 8673SOL     OW32128   9.837   0.072   5.589 -0.6798  0.2926  0.6446
 8673SOL    HW132129   9.852  -0.027   5.586  0.1323  0.4274  0.2164
 8673SOL    HW232130   9.743   0.090   5.616 -1.1057 -0.6146 -0.1943
 8674SOL     OW32131   1.779   8.622   3.769  0.0305 -0.5945  0.2403
 8674SOL    HW132132   1.808   8.561   3.696  2.9920 -1.4488  2.0380
 8674SOL    HW232133   1.846   8.695   3.780  0.2090 -1.0891  2.7571
 8675SOL     OW32134   8.060   8.985   1.023 -0.4651 -0.3028 -0.2776
 8675SOL    HW132135   8.034   8.938   0.939 -1.1879 -1.3156  0.4968
 8675SOL    HW232136   7.981   8.988   1.085 -1.0675  3.7368 -1.0968
 8676SOL     OW32137   8.559   2.748   0.071  0.3725  0.0287 -0.0257
 8676SOL    HW132138   8.654   2.780   0.068  1.1221 -2.2070 -1.5555
 8676SOL    HW232139   8.544   2.699   0.157  0.7379  0.0289  0.0414
 8677SOL     OW32140   9.731   1.368   0.005  0.6352  0.0123 -0.0014
 8677SOL    HW132141   9.778   1.310  -0.061  0.0005 -1.4068  0.7891
 8677SOL    HW232142   9.760   1.344   0.098 -0.2075  0.4246  0.3760
 8678SOL     OW32143   4.322   5.361   3.635 -0.3472  0.2013  0.9243
 8678SOL    HW132144   4.346   5.292   3.568 -1.1242  0.8878 -0.0872
 8678SOL    HW232145   4.378   5.350   3.717  1.1637 -0.1564 -0.1408
 8679SOL     OW32146   5.870   8.394   6.010  0.2014  0.3483 -0.3674
 8679SOL    HW132147   5.929   8.400   6.091 -1.6461 -0.5330  1.0794
 8679SOL    HW232148   5.778   8.365   6.038 -0.9311  1.7201 -2.5833
 8680SOL     OW32149   1.810   8.390   5.962 -0.2203 -0.0565 -0.5262
 8680SOL    HW132150   1.726   8.423   5.918 -0.4871 -2.1929 -1.7064
 8680SOL    HW232151   1.795   8.297   5.998  1.2562  0.0419  0.3980
 8681SOL     OW32152   2.502   9.060   3.961 -0.4741  0.6415 -0.3428
 8681SOL    HW132153   2.587   9.023   3.998 -0.1199  1.7404 -0.0359
 8681SOL    HW232154   2.458   8.992   3.902  0.8477  0.2436 -0.8750
 8683SOL     OW32155   1.338   5.469   2.546 -0.1667 -0.2937  0.1141
 8683SOL    HW132156   1.258   5.479   2.487 -1.1684  0.3155  1.5778
 8683SOL    HW232157   1.398   5.548   2.534  0.2541 -0.7707 -1.0147
 8685SOL     OW32158   8.980   5.741   2.304  0.3485 -0.4469 -0.2536
 8685SOL    HW132159   8.972   5.777   2.211 -0.9790  0.8133  0.3348
 8685SOL    HW232160   8.889   5.726   2.342  0.8861 -0.8280  0.8985
 8687SOL     OW32161   5.110   9.442   2.019  0.0788 -0.2777  0.0973
 8687SOL    HW132162   5.104   9.364   1.956  0.8808  0.8744 -1.4399
 8687SOL    HW232163   5.024   9.452   2.068 -0.8691 -0.6784 -1.4617
 8688SOL     OW32164   1.603   8.209   6.428 -0.2200 -0.0501 -0.0583
 8688SOL    HW132165   1.551   8.293   6.411 -0.5216 -0.1622  0.3018
 8688SOL    HW232166   1.635   8.209   6.523  0.2136 -0.1035 -0.2063
 8689SOL     OW32167   7.970   4.912   2.123 -0.0974  0.1657 -0.0416
 8689SOL    HW132168   7.900   4.884   2.057 -0.0142  0.7700 -0.3969
 8689SOL    HW232169   7.934   4.904   2.216  0.1032 -1.5894 -0.1062
 8692SOL     OW32170   7.461   3.418   2.156  0.0380  0.3752 -0.1589
 8692SOL    HW132171   7.493   3.443   2.247  0.1308  1.8070 -0.5572
 8692SOL    HW232172   7.396   3.343   2.162 -0.1955  0.6692  1.1149
 8693SOL     OW32173   1.559   1.219   1.018  0.4355 -0.4272 -0.1777
 8693SOL    HW132174   1.492   1.289   0.992  0.9787 -0.4508 -1.7073
 8693SOL    HW232175   1.545   1.193   1.113  0.4228  1.9956  0.5255
 8694SOL     OW32176   5.185   7.399   3.850  0.1961 -0.9532  0.7099
 8694SOL    HW132177   5.120   7.474   3.846 -0.8763 -1.9828 -2.0616
 8694SOL    HW232178   5.202   7.375   3.946 -1.9306  0.6586  1.5226
 8695SOL     OW32179   8.225   9.788   5.038  0.3769 -0.7282 -0.9237
 8695SOL    HW132180   8.195   9.717   4.974 -0.3618 -0.5429 -0.7878
 8695SOL    HW232181   8.147   9.846   5.062  0.7836 -0.4193 -0.3355
 8697SOL     OW32182   7.287   5.078   2.057  0.2950 -0.0727  0.5145
 8697SOL    HW132183   7.266   5.123   1.970  0.6099  0.8405  0.9054
 8697SOL    HW232184   7.208   5.084   2.118  0.6404  0.7311  0.8888
 8698SOL     OW32185   9.200   5.154   1.088  0.2021 -0.0473  0.2372
 8698SOL    HW132186   9.299   5.171   1.084  0.3541 -1.0077 -0.4266
 8698SOL    HW232187   9.159   5.211   1.158  1.5979 -1.3352  2.1561
 8699SOL     OW32188   1.071   4.605   1.404 -0.0646 -0.2511  0.0657
 8699SOL    HW132189   1.015   4.559   1.473  0.8154 -0.8624  0.3789
 8699SOL    HW232190   1.074   4.550   1.321  0.2960 -0.3556  0.1459
 8701SOL     OW32191   7.074   7.325   4.933  0.1129 -0.3708 -0.1390
 8701SOL    HW132192   7.075   7.268   5.015  0.2402 -0.3574 -0.1311
 8701SOL    HW232193   6.989   7.377   4.930  0.4008  0.1322  0.3308
 8702SOL     OW32194   3.712   1.514   0.738 -0.1207 -0.1778 -0.7231
 8702SOL    HW132195   3.748   1.524   0.830  0.2206 -1.2543 -0.7313
 8702SOL    HW232196   3.623   1.468   0.741  0.8734 -2.2109 -1.0598
 8703SOL     OW32197   1.977   7.456   3.026  0.0842  0.2740 -0.2369
 8703SOL    HW132198   2.009   7.492   2.938 -2.3097 -1.1708 -1.7473
 8703SOL    HW232199   2.001   7.359   3.033 -0.2511  0.2390  0.4484
 8704SOL     OW32200   2.623   4.367   5.480  0.1622  0.4937 -0.7009
 8704SOL    HW132201   2.593   4.399   5.390 -1.3645  0.6537 -0.1497
 8704SOL    HW232202   2.577   4.281   5.502 -0.2463  0.9815  0.3640
 8707SOL     OW32203   7.738   3.458   2.667  0.3175  0.2112 -0.0417
 8707SOL    HW132204   7.673   3.530   2.691 -0.2749 -0.8608  1.6751
 8707SOL    HW232205   7.710   3.373   2.712  2.2082 -0.5589 -0.3174
 8708SOL     OW32206   4.369   9.171   1.152 -0.2897  0.1154 -0.1867
 8708SOL    HW132207   4.340   9.111   1.227 -1.4006  1.1045  0.1888
 8708SOL    HW232208   4.290   9.196   1.097  0.2745  0.7303 -0.7211
 8709SOL     OW32209   9.092   1.583   5.910 -0.1346 -0.2571 -0.2510
 8709SOL    HW132210   9.189   1.579   5.887  0.2548 -1.4229  1.4310
 8709SOL    HW232211   9.076   1.529   5.993 -2.0264  0.8835  0.1482
 8710SOL     OW32212   3.563   5.748   5.860  0.2284 -0.5980 -0.1658
 8710SOL    HW132213   3.595   5.821   5.801  1.7092 -2.0744 -1.2346
 8710SOL    HW232214   3.642   5.694   5.893 -0.8108 -1.6095  0.7317
 8711SOL     OW32215   3.133   7.418   2.509  0.1387 -0.1709 -0.0466
 8711SOL    HW132216   3.140   7.374   2.599  0.7197 -0.1543 -0.0848
 8711SOL    HW232217   3.079   7.502   2.518 -2.3590 -1.7057 -0.2721
 8712SOL     OW32218   1.636   2.819   1.894 -0.0494  0.5909 -0.0766
 8712SOL    HW132219   1.678   2.747   1.838 -0.2119  0.6533 -0.2821
 8712SOL    HW232220   1.627   2.787   1.988  2.4943  1.3844  0.4775
 8713SOL     OW32221   6.760   1.660   3.913  0.0981 -0.1968 -0.6553
 8713SOL    HW132222   6.815   1.677   3.995  0.0376  0.0626 -0.6661
 8713SOL    HW232223   6.666   1.691   3.930  0.2841  0.6436 -1.1106
 8715SOL     OW32224   2.327   9.973   2.671 -0.0228 -0.3533  0.3658
 8715SOL    HW132225   2.273  10.023   2.738 -0.1741  2.2018 -1.5970
 8715SOL    HW232226   2.424   9.977   2.697  0.1111  2.0958 -0.4486
 8716SOL     OW32227   8.984   8.068   2.751 -0.4488 -0.1849 -0.2506
 8716SOL    HW132228   9.007   8.143   2.812 -2.3777 -0.5064  0.9105
 8716SOL    HW232229   8.918   8.100   2.682 -0.6271 -0.5989 -0.2725
 8717SOL     OW32230   4.707   4.490   3.888 -0.5465  0.1725  0.3601
 8717SOL    HW132231   4.713   4.394   3.912 -0.1832  0.5019  1.5833
 8717SOL    HW232232   4.685   4.498   3.791 -1.1220 -1.1419  0.3729
 8718SOL     OW32233   1.115   6.057   3.775 -0.5853  0.4286  0.8521
 8718SOL    HW132234   1.113   6.122   3.699  1.8739  0.1533  0.5364
 8718SOL    HW232235   1.067   6.097   3.853 -0.2701  2.0674  0.2359
 8719SOL     OW32236   0.959   4.817   4.410  0.1679 -0.4053 -0.8595
 8719SOL    HW132237   0.914   4.881   4.472  0.7391  0.1038 -0.9672
 8719SOL    HW232238   0.891   4.755   4.372 -0.1366 -0.9445  0.5400
 8720SOL     OW32239   9.104   5.966   4.045 -0.5240  0.5773  0.0969
 8720SOL    HW132240   9.165   5.908   4.098  0.5124 -0.1444 -1.8596
 8720SOL    HW232241   9.124   6.062   4.064 -1.0227  0.3275  1.9573
 8721SOL     OW32242   2.120   4.471   1.551  0.8179 -0.5028  0.0452
 8721SOL    HW132243   2.187   4.433   1.488  0.1090  0.0032 -1.0405
 8721SOL    HW232244   2.033   4.483   1.503 -0.2216 -1.7129  1.5813
 8722SOL     OW32245   4.657   8.761   3.546 -0.4524  0.2502  0.1552
 8722SOL    HW132246   4.741   8.815   3.544  0.1869 -0.7347  0.1173
 8722SOL    HW232247   4.622   8.756   3.639 -0.0822  0.0827  0.2855
 8723SOL     OW32248   7.977   1.761   1.614  0.3659 -0.1954 -0.0032
 8723SOL    HW132249   8.056   1.823   1.622  0.5219 -0.0778 -2.1976
 8723SOL    HW232250   7.893   1.813   1.627  0.5767  0.0457  0.4250
 8724SOL     OW32251   2.566   2.410   3.044  0.1564 -0.0849  0.3196
 8724SOL    HW132252   2.467   2.401   3.044  0.2843 -1.6136 -0.5222
 8724SOL    HW232253   2.598   2.435   2.953  0.5124  0.8367  0.6917
 8726SOL     OW32254   5.196   2.734   3.731  0.2490  0.0851 -0.4910
 8726SOL    HW132255   5.186   2.655   3.670  1.8225  0.6632 -1.5360
 8726SOL    HW232256   5.145   2.811   3.693  2.2538  0.8122 -1.7811
 8727SOL     OW32257   1.480   1.652   1.544 -0.1939 -0.1150  0.2116
 8727SOL    HW132258   1.493   1.657   1.643 -0.7171 -1.8304  0.3795
 8727SOL    HW232259   1.502   1.741   1.503  2.6927 -0.1643  1.5340
 8729SOL     OW32260   8.807   7.178   5.866 -0.1031  0.4024  0.2973
 8729SOL    HW132261   8.728   7.239   5.873 -0.0573  0.4026  0.7817
 8729SOL    HW232262   8.874   7.217   5.802  0.3999  1.3648  1.4036
 8730SOL     OW32263   8.714   8.476   1.387  0.0722 -0.4170  0.6292
 8730SOL    HW132264   8.710   8.505   1.482  0.7113 -0.1818  0.5838
 8730SOL    HW232265   8.693   8.553   1.327  2.5300  0.1762  0.4815
 8731SOL     OW32266   0.400   0.864   3.238  0.2509  0.2402  0.0180
 8731SOL    HW132267   0.421   0.819   3.325  2.0172 -0.6536 -0.8392
 8731SOL    HW232268   0.479   0.919   3.209 -0.2649  0.4002 -1.1057
 8732SOL     OW32269   3.181   2.211   2.712  0.2507  0.1862 -0.4063
 8732SOL    HW132270   3.251   2.146   2.680  0.2674 -0.1028  0.2116
 8732SOL    HW232271   3.190   2.297   2.662  1.8297  0.5745  0.4948
 8733SOL     OW32272   0.882   5.103   0.956 -1.0569  1.0856 -0.1657
 8733SOL    HW132273   0.957   5.053   0.913 -2.1274 -1.7468  1.1577
 8733SOL    HW232274   0.864   5.187   0.904  1.5031  0.6802 -1.8020
 8735SOL     OW32275   0.745   7.106   2.394 -0.0815 -0.4179 -0.0857
 8735SOL    HW132276   0.840   7.136   2.408  0.6671 -3.0266  0.8306
 8735SOL    HW232277   0.690   7.131   2.474 -0.1220  0.9371 -0.5355
 8736SOL     OW32278   8.012   3.379   1.165 -0.1341  0.5992  0.9481
 8736SOL    HW132279   8.111   3.365   1.167 -0.0958  0.7606  0.3325
 8736SOL    HW232280   7.978   3.386   1.259  0.5516  1.3327  1.1498
 8738SOL     OW32281   8.247   0.095   5.533  0.1568 -0.1252  0.4074
 8738SOL    HW132282   8.290   0.074   5.445  0.2744 -0.0134  0.4385
 8738SOL    HW232283   8.148   0.088   5.524  0.0589  1.8803 -0.2553
 8739SOL     OW32284   4.548   9.963   4.082  0.8168  0.0083 -0.1866
 8739SOL    HW132285   4.627   9.903   4.092 -0.9039 -2.2261  0.4326
 8739SOL    HW232286   4.564  10.027   4.006  3.5956  0.2807  0.5761
 8740SOL     OW32287   3.210   7.888   3.965 -0.3208  0.2164  0.2187
 8740SOL    HW132288   3.248   7.980   3.975 -1.0641  0.7129 -1.3680
 8740SOL    HW232289   3.118   7.893   3.927 -0.4967 -1.1750  0.4097
 8742SOL     OW32290   9.392   4.681   6.313 -0.3134  0.3358  0.0438
 8742SOL    HW132291   9.315   4.744   6.303  0.2689  0.9422 -0.6607
 8742SOL    HW232292   9.365   4.605   6.372 -1.5845  0.3498 -0.4911
 8744SOL     OW32293   7.395   0.333   0.182 -0.4584 -0.0699  0.2684
 8744SOL    HW132294   7.378   0.412   0.122 -0.9259  0.9182  1.6866
 8744SOL    HW232295   7.474   0.353   0.240 -2.8593  0.9346  3.2974
 8745SOL     OW32296   4.712   6.525   2.051  0.0595  0.1176  0.1415
 8745SOL    HW132297   4.739   6.453   2.115 -0.5260 -1.1109 -0.9894
 8745SOL    HW232298   4.678   6.604   2.103 -2.9673 -1.8724  1.3024
 8746SOL     OW32299   2.333   3.756   4.606  0.1822 -0.1666  0.5216
 8746SOL    HW132300   2.408   3.723   4.549  1.3014  1.2341  1.1345
 8746SOL    HW232301   2.318   3.693   4.681 -1.0211 -1.8065 -1.0599
 8747SOL     OW32302   1.847   2.531   1.889 -0.7735 -0.4574  0.2629
 8747SOL    HW132303   1.934   2.502   1.847 -0.2426  0.3073  0.8293
 8747SOL    HW232304   1.772   2.485   1.843 -0.2878  1.1553 -2.2637
 8748SOL     OW32305   9.292   5.378   1.612 -0.1477 -0.2758 -0.1324
 8748SOL    HW132306   9.281   5.359   1.709  0.8901  1.4951  0.3627
 8748SOL    HW232307   9.298   5.477   1.598 -1.0701 -0.4652 -2.0896
 8749SOL     OW32308   6.279   5.024   2.053 -0.3063 -0.0765 -0.0926
 8749SOL    HW132309   6.340   5.090   2.096 -2.8253  2.1241  0.2295
 8749SOL    HW232310   6.285   5.032   1.953 -0.2149  0.2499 -0.0595
 8751SOL     OW32311   2.098   2.353   5.875  0.3126  0.2508  0.1988
 8751SOL    HW132312   2.123   2.415   5.949  0.9350  0.0200  0.1916
 8751SOL    HW232313   2.052   2.272   5.912 -0.8402  0.8849  0.1727
 8752SOL     OW32314   3.945   9.864   2.705 -0.9196  0.1697  0.4256
 8752SOL    HW132315   4.011   9.813   2.649 -1.4827 -0.8493  0.6700
 8752SOL    HW232316   3.937   9.957   2.670 -0.0231  0.0326 -0.1656
 8753SOL     OW32317   8.421   0.611   4.396 -0.1594  0.4794  0.2834
 8753SOL    HW132318   8.520   0.602   4.401 -0.3190 -2.0075 -0.3034
 8753SOL    HW232319   8.393   0.621   4.300 -0.5014  0.7382  0.4097
 8754SOL     OW32320   9.647   6.223   0.159 -0.6679 -0.0695  0.4101
 8754SOL    HW132321   9.595   6.162   0.219 -1.0881  0.4621  0.6010
 8754SOL    HW232322   9.665   6.178   0.072 -0.9144 -0.4888  0.5749
 8755SOL     OW32323   0.431   8.449   3.793 -0.0927  0.0997  0.3869
 8755SOL    HW132324   0.441   8.350   3.803  1.1722  0.1544 -0.1686
 8755SOL    HW232325   0.442   8.493   3.882  1.4448 -0.1186  0.3202
 8757SOL     OW32326   6.101   0.119   3.356 -0.2443  0.3421 -0.0199
 8757SOL    HW132327   6.045   0.147   3.435 -1.4198  1.1087 -1.1035
 8757SOL    HW232328   6.095   0.020   3.345 -0.0490  0.2211  0.8639
 8758SOL     OW32329   6.656   1.215   5.767 -0.6323  0.5674 -0.1586
 8758SOL    HW132330   6.623   1.296   5.719 -1.0228  0.1713 -0.5609
 8758SOL    HW232331   6.721   1.242   5.838 -2.8910  1.4791  1.6094
 8761SOL     OW32332   4.319   2.296   0.403  0.3457 -0.6837 -0.2223
 8761SOL    HW132333   4.279   2.300   0.495  0.4758 -0.3490 -0.1822
 8761SOL    HW232334   4.266   2.231   0.348  0.1174 -0.7040  0.0153
 8762SOL     OW32335   6.098   5.296   0.174 -0.0611  0.4226 -0.3305
 8762SOL    HW132336   6.138   5.291   0.083 -0.6561 -1.0840 -0.5203
 8762SOL    HW232337   6.056   5.385   0.187 -2.3306 -0.2900 -2.5332
 8763SOL     OW32338   2.150   4.303   1.302 -0.3828  0.0046 -0.3460
 8763SOL    HW132339   2.246   4.275   1.301  0.5257  2.8896  0.8231
 8763SOL    HW232340   2.126   4.345   1.215  0.0213  1.1588  0.0928
 8765SOL     OW32341   0.780   2.593   0.164 -0.1398  0.3252  0.4491
 8765SOL    HW132342   0.801   2.502   0.201 -0.2200 -0.6973 -1.8971
 8765SOL    HW232343   0.688   2.593   0.126  1.2228  0.1697 -3.0343
 8766SOL     OW32344   2.866   6.515   0.801  0.4607 -0.0393  0.1425
 8766SOL    HW132345   2.776   6.489   0.837 -0.2558  1.3344 -0.6082
 8766SOL    HW232346   2.931   6.441   0.818 -0.8224 -1.0891  0.6241
 8767SOL     OW32347   1.150   9.064   2.583 -0.1462 -0.2978 -0.5357
 8767SOL    HW132348   1.208   9.095   2.658 -0.5224 -0.6625 -0.0918
 8767SOL    HW232349   1.207   9.035   2.506  0.3205 -2.1291  0.4645
 8771SOL     OW32350   2.184   9.791   2.071 -0.1135  0.1597 -0.0829
 8771SOL    HW132351   2.148   9.704   2.107 -0.5844  0.6597  0.6716
 8771SOL    HW232352   2.112   9.860   2.072 -0.0588  0.2581 -1.7735
 8772SOL     OW32353   7.382   9.235   5.061  0.2041 -0.3422  0.0508
 8772SOL    HW132354   7.344   9.325   5.082 -0.4896 -0.4996 -0.5251
 8772SOL    HW232355   7.420   9.236   4.969  0.2811 -0.6200  0.0795
 8773SOL     OW32356   7.687   8.121   6.328 -0.6409 -0.1685 -0.5073
 8773SOL    HW132357   7.674   8.023   6.316 -0.1724 -0.5348  1.7189
 8773SOL    HW232358   7.768   8.151   6.279 -1.1370 -0.7673 -1.7075
 8774SOL     OW32359   3.575   8.320   0.719  0.4376  0.1582  0.7173
 8774SOL    HW132360   3.650   8.272   0.765  1.0374  0.2980 -0.1023
 8774SOL    HW232361   3.607   8.409   0.688 -0.1927  0.3930  0.7374
 8775SOL     OW32362   3.491   6.188   4.769  0.2313  0.0978 -0.2156
 8775SOL    HW132363   3.513   6.247   4.847  0.8219 -0.1769 -0.1683
 8775SOL    HW232364   3.472   6.096   4.801  0.3323  0.0191 -0.3808
 8776SOL     OW32365   7.816   3.703   2.212  0.1504  1.0184  0.0695
 8776SOL    HW132366   7.806   3.724   2.310 -1.0502  1.7358 -0.1949
 8776SOL    HW232367   7.805   3.786   2.159  0.1463  0.5164 -0.7194
 8777SOL     OW32368   1.424   4.281   4.857 -0.2536  0.2392  0.7145
 8777SOL    HW132369   1.350   4.327   4.808  0.0150  2.9447  2.7378
 8777SOL    HW232370   1.499   4.262   4.794 -2.8154 -3.1106 -1.5157
 8778SOL     OW32371   4.799   4.865   4.277  0.3713 -0.0976  0.2765
 8778SOL    HW132372   4.852   4.849   4.193  0.9665  0.3823  0.5526
 8778SOL    HW232373   4.805   4.961   4.301  1.2778 -0.4676  1.5798
 8779SOL     OW32374   0.402   1.835   1.261  0.1293 -0.6011  0.2840
 8779SOL    HW132375   0.439   1.763   1.202  0.7865 -0.9653  1.1205
 8779SOL    HW232376   0.327   1.798   1.315 -0.4910 -0.2600 -0.3335
 8781SOL     OW32377   7.394   0.408   0.586  0.0372 -0.5158 -0.1806
 8781SOL    HW132378   7.327   0.335   0.582 -2.4411  1.6226  0.5661
 8781SOL    HW232379   7.406   0.448   0.495  0.5337 -1.1040 -0.3731
 8782SOL     OW32380   3.200   1.141   5.646  0.1753 -0.0643 -0.2840
 8782SOL    HW132381   3.213   1.229   5.693 -2.8611  0.9713 -1.2329
 8782SOL    HW232382   3.160   1.075   5.710 -2.7732  0.9655 -1.0008
 8783SOL     OW32383   6.500   1.047   4.979  0.4555  0.3806 -0.2373
 8783SOL    HW132384   6.534   1.105   4.904  0.7897  0.6651  0.1335
 8783SOL    HW232385   6.411   1.008   4.953  0.6474  0.3451 -0.8496
 8785SOL     OW32386   5.617   0.924   2.415  0.5065 -0.0873  0.1697
 8785SOL    HW132387   5.638   0.926   2.318  3.2833 -2.6063  0.6456
 8785SOL    HW232388   5.536   0.868   2.431  2.7782 -3.7001 -0.3610
 8787SOL     OW32389   3.061   7.055   1.001  0.1378 -0.3874  0.4008
 8787SOL    HW132390   3.033   7.141   0.959 -0.4614 -1.6506 -1.9009
 8787SOL    HW232391   2.993   7.027   1.069 -1.6892 -0.9106 -1.5695
 8788SOL     OW32392   2.796   4.584   5.912  0.1456 -0.7383  0.1214
 8788SOL    HW132393   2.708   4.536   5.915 -0.1385 -0.2094  0.5289
 8788SOL    HW232394   2.803   4.644   5.992  0.2124  0.3698 -0.6926
 8789SOL     OW32395   4.135   2.902   1.405 -0.3620 -0.3395 -0.6869
 8789SOL    HW132396   4.193   2.870   1.330 -1.0569  0.5289 -1.6009
 8789SOL    HW232397   4.159   2.996   1.428 -1.1641 -0.1045 -0.8146
 8790SOL     OW32398   3.265   0.487   4.768  0.2656 -0.1645 -0.3409
 8790SOL    HW132399   3.235   0.501   4.674  0.2944  0.8016 -0.2143
 8790SOL    HW232400   3.338   0.419   4.770 -1.6568 -2.2859 -0.6870
 8791SOL     OW32401   0.851   1.961   1.218 -0.0307 -0.5825  0.3530
 8791SOL    HW132402   0.797   1.991   1.139 -1.3619 -3.4446  0.1088
 8791SOL    HW232403   0.789   1.946   1.296  0.9884  0.0680  1.2982
 8792SOL     OW32404   8.558   8.165   6.104 -0.1358  0.4195  0.7582
 8792SOL    HW132405   8.644   8.127   6.138 -0.0173  0.2679  0.2845
 8792SOL    HW232406   8.492   8.091   6.092  0.1366  0.3467 -0.2922
 8793SOL     OW32407   0.812   8.471   1.004 -0.0785  0.1652  0.0082
 8793SOL    HW132408   0.715   8.454   0.983  0.3925 -1.1643 -1.1909
 8793SOL    HW232409   0.848   8.539   0.940 -0.3163  0.9755  0.7246
 8794SOL     OW32410   1.293   0.663   3.595  0.4541 -0.2510  0.2240
 8794SOL    HW132411   1.331   0.680   3.504 -2.5881  1.2393 -0.8327
 8794SOL    HW232412   1.249   0.573   3.596 -1.5651  0.7083 -0.5255
 8795SOL     OW32413   9.079   1.797   4.661  1.1137  0.1084  0.1636
 8795SOL    HW132414   9.073   1.877   4.601 -1.1152 -0.4053 -0.3611
 8795SOL    HW232415   9.075   1.714   4.605 -1.2522 -0.3772  1.0019
 8796SOL     OW32416   0.591   4.116   1.783 -0.1192 -0.2773  0.9666
 8796SOL    HW132417   0.601   4.196   1.724  0.8947 -0.5637  0.7465
 8796SOL    HW232418   0.495   4.087   1.784  0.2630 -1.9689 -2.8249
 8798SOL     OW32419   0.620   3.609   1.351 -0.6437 -0.8182 -0.3532
 8798SOL    HW132420   0.585   3.519   1.377 -0.2390 -1.3016 -1.4202
 8798SOL    HW232421   0.656   3.605   1.257  3.2122 -0.6253  0.9997
 8800SOL     OW32422   0.847   5.449   5.176  0.2657 -0.1153 -0.1306
 8800SOL    HW132423   0.835   5.352   5.199  0.4335  0.2547  1.5259
 8800SOL    HW232424   0.780   5.474   5.106  0.2715 -1.4434 -0.6296
 8801SOL     OW32425   2.042   6.704   2.046 -0.0313 -0.4291 -0.5048
 8801SOL    HW132426   2.122   6.704   1.986 -0.4192 -0.3078 -1.0299
 8801SOL    HW232427   2.068   6.673   2.137  0.6915 -0.0240 -0.5709
 8802SOL     OW32428   7.472   9.167   5.304 -0.3665  0.0930 -0.2919
 8802SOL    HW132429   7.537   9.234   5.340 -2.1801  0.3215  2.6431
 8802SOL    HW232430   7.444   9.195   5.212 -0.0848  2.6333  0.3642
 8803SOL     OW32431   2.992   3.805   0.075 -0.9060  0.5802  0.0702
 8803SOL    HW132432   2.977   3.807  -0.024 -0.3657 -1.6624 -0.0965
 8803SOL    HW232433   3.076   3.853   0.098 -0.2668 -0.1274 -0.7482
 8805SOL     OW32434   7.152   2.556   1.060 -0.0153 -0.3833 -1.1285
 8805SOL    HW132435   7.145   2.457   1.049  0.2648 -0.6954  1.3821
 8805SOL    HW232436   7.081   2.588   1.122  2.5741  0.3635  1.5578
 8806SOL     OW32437   1.435   3.446   1.955 -0.0439 -0.1510  0.1293
 8806SOL    HW132438   1.405   3.415   2.046  0.5922  1.2586  0.8290
 8806SOL    HW232439   1.479   3.370   1.907 -0.7264 -1.0143  0.8373
 8807SOL     OW32440   9.682   3.286   3.600  0.0404  0.1399 -0.5588
 8807SOL    HW132441   9.782   3.282   3.595 -0.0714 -0.8145 -2.3841
 8807SOL    HW232442   9.643   3.210   3.549 -1.6590  1.6002 -1.4819
 8808SOL     OW32443   7.654   9.640   3.046 -0.2663  0.0054 -0.2481
 8808SOL    HW132444   7.621   9.606   2.958  2.1172 -1.6132 -0.5637
 8808SOL    HW232445   7.674   9.562   3.106  1.9389  0.9256  0.2668
 8809SOL     OW32446   1.922   8.068   5.926 -0.2139 -0.5294  0.4153
 8809SOL    HW132447   1.977   8.114   5.996  0.4856 -0.3694 -0.2282
 8809SOL    HW232448   1.866   7.997   5.969  1.7918 -1.9009  0.8975
 8810SOL     OW32449   8.970   1.188   1.385 -0.3048  0.2587  0.3531
 8810SOL    HW132450   9.040   1.117   1.392 -1.9445 -1.4882 -0.3988
 8810SOL    HW232451   8.936   1.192   1.292 -2.6836 -0.4168  1.1603
 8811SOL     OW32452   0.975   3.506   6.400  0.0050  0.0204 -0.0922
 8811SOL    HW132453   0.889   3.500   6.451  0.1307 -1.5334 -0.0365
 8811SOL    HW232454   1.037   3.434   6.431  0.5566 -0.1409 -1.5507
 8812SOL     OW32455   2.188   8.355   4.130  0.3971  0.8313 -0.1832
 8812SOL    HW132456   2.097   8.316   4.142  1.0466 -1.0767 -1.2479
 8812SOL    HW232457   2.227   8.379   4.219  0.1705 -1.4167  0.5495
 8813SOL     OW32458   6.871   3.036   1.076 -0.1071  0.2787 -0.1284
 8813SOL    HW132459   6.853   2.993   1.164 -0.3506 -0.2537 -0.4358
 8813SOL    HW232460   6.785   3.074   1.039 -0.0984  0.0769 -0.3584
 8814SOL     OW32461   3.234   6.033   0.566 -1.1367 -0.0783 -0.2479
 8814SOL    HW132462   3.245   5.944   0.610  0.3544 -0.5912 -1.5791
 8814SOL    HW232463   3.324   6.067   0.538 -2.0003  0.2152 -2.8323
 8815SOL     OW32464   8.413   1.548   1.682  0.2449  0.1591  0.1607
 8815SOL    HW132465   8.465   1.492   1.747 -0.7573 -0.5490  0.3729
 8815SOL    HW232466   8.316   1.525   1.689  0.2724 -0.9643 -2.6054
 8816SOL     OW32467   0.159   6.451   0.256  0.6107 -0.0303  0.5651
 8816SOL    HW132468   0.136   6.537   0.211 -1.9617 -0.2851  1.3386
 8816SOL    HW232469   0.075   6.402   0.280  2.0166 -2.8358  0.0042
 8817SOL     OW32470   8.983   7.750   5.851 -0.6169 -0.1183  0.2541
 8817SOL    HW132471   8.928   7.833   5.857 -1.8126 -0.9124  0.4295
 8817SOL    HW232472   9.071   7.765   5.897 -0.7452  1.1006  0.1205
 8818SOL     OW32473   7.260   0.998   1.953 -1.1401 -0.2581 -0.2075
 8818SOL    HW132474   7.336   0.940   1.924 -0.5434 -0.7038  2.1177
 8818SOL    HW232475   7.174   0.957   1.924 -0.5363 -0.0286 -2.4019
 8819SOL     OW32476   7.872   6.023   5.194  0.0155 -0.2804 -0.1699
 8819SOL    HW132477   7.872   6.086   5.117 -0.3747  1.7643  1.4723
 8819SOL    HW232478   7.863   6.074   5.279  0.5722 -2.4968  1.2538
 8820SOL     OW32479   1.512   0.689   5.223  0.3071 -0.5855  0.2209
 8820SOL    HW132480   1.612   0.684   5.222  0.3096 -0.8859  1.0325
 8820SOL    HW232481   1.476   0.648   5.140  0.8182 -1.8705  0.6198
 8821SOL     OW32482   3.301   7.497   5.023 -0.4863 -0.2054  0.2897
 8821SOL    HW132483   3.399   7.490   5.041 -0.5002 -4.2490 -0.7515
 8821SOL    HW232484   3.261   7.566   5.083  2.4419 -0.7407  2.9917
 8822SOL     OW32485   8.690   2.044   0.961  0.8839  0.2650  0.1765
 8822SOL    HW132486   8.672   2.066   1.057 -1.6607 -0.3114 -0.1315
 8822SOL    HW232487   8.605   2.051   0.909  1.5764 -2.4902 -1.4370
 8823SOL     OW32488   4.960   3.273   0.227  0.4425  0.2380 -0.3248
 8823SOL    HW132489   4.904   3.298   0.306 -1.0224 -1.4241 -0.8234
 8823SOL    HW232490   4.948   3.176   0.207  1.4999  0.4557 -2.0351
 8824SOL     OW32491   5.193   8.837   4.779  0.0949  0.1329 -0.5038
 8824SOL    HW132492   5.278   8.849   4.830 -0.3619 -1.5190  0.6790
 8824SOL    HW232493   5.167   8.923   4.736  0.8434  1.3688  1.4942
 8825SOL     OW32494   9.562   1.889   1.091  0.4901  0.3465  0.2061
 8825SOL    HW132495   9.540   1.938   1.007 -0.5333  0.3615  0.4754
 8825SOL    HW232496   9.535   1.944   1.170  0.4489 -0.1278  0.5259
 8826SOL     OW32497   9.645   6.467   3.792 -0.2261 -0.3347  0.4313
 8826SOL    HW132498   9.609   6.431   3.706  0.6017 -0.5768  0.1758
 8826SOL    HW232499   9.587   6.541   3.825  0.2601  0.7462 -1.0948
 8827SOL     OW32500   9.093   8.327   3.234 -0.0272 -0.4397 -0.2654
 8827SOL    HW132501   9.148   8.294   3.311  0.1247 -0.1551 -0.2513
 8827SOL    HW232502   9.047   8.249   3.191 -2.5644 -0.2492  2.0016
 8828SOL     OW32503   7.110   2.586   0.722 -0.0287  0.8347 -0.1680
 8828SOL    HW132504   7.141   2.611   0.814 -0.7767 -1.6862  0.8471
 8828SOL    HW232505   7.188   2.579   0.660  0.9460 -0.9439  1.2005
 8829SOL     OW32506   1.136   7.232   1.131 -0.2979 -0.2474  0.1826
 8829SOL    HW132507   1.234   7.219   1.149 -0.0826 -1.0072 -1.4561
 8829SOL    HW232508   1.107   7.168   1.060 -2.1860 -0.6072  1.2578
 8830SOL     OW32509   3.424   8.774   5.566 -0.8627 -0.3047  0.2337
 8830SOL    HW132510   3.356   8.726   5.510 -1.2165 -0.3185  0.6699
 8830SOL    HW232511   3.511   8.725   5.563 -0.7866 -0.1368 -0.5599
 8831SOL     OW32512   8.306   9.167   1.415  0.4526  0.1900  0.6715
 8831SOL    HW132513   8.318   9.209   1.325  1.0463  0.0433  0.6791
 8831SOL    HW232514   8.229   9.209   1.461 -0.0835  0.0207 -0.0513
 8832SOL     OW32515   0.503   2.416   1.899 -0.2001  0.1269 -0.0541
 8832SOL    HW132516   0.533   2.505   1.935  1.9704 -1.6025  2.6172
 8832SOL    HW232517   0.424   2.384   1.952  0.1712 -0.3756  0.1925
 8833SOL     OW32518   6.110   1.530   4.225  0.2328  0.3487 -0.1106
 8833SOL    HW132519   6.198   1.491   4.253  0.0367 -0.4439 -0.5694
 8833SOL    HW232520   6.083   1.601   4.290 -0.4636 -1.7986  2.0719
 8835SOL     OW32521   4.007   1.315   4.203  0.0234 -0.4340  0.0999
 8835SOL    HW132522   3.985   1.346   4.296  1.5973 -1.2568  0.7508
 8835SOL    HW232523   4.021   1.395   4.144 -1.8579  0.1003  0.3412
 8836SOL     OW32524   6.696   2.097   0.815 -0.0246  0.0472  0.4803
 8836SOL    HW132525   6.782   2.148   0.817  0.8374 -1.3544  0.5362
 8836SOL    HW232526   6.693   2.039   0.734 -0.7677 -0.1570  0.6471
 8838SOL     OW32527   7.005   5.560   1.848 -0.7805  0.2202 -0.6187
 8838SOL    HW132528   7.094   5.603   1.836  0.1499 -1.4298  0.1918
 8838SOL    HW232529   6.964   5.591   1.934 -1.2230  1.3799 -1.2470
 8839SOL     OW32530   7.810   9.728   6.206 -0.3826  0.3583  0.3520
 8839SOL    HW132531   7.895   9.774   6.232 -1.4391  1.3074  2.2307
 8839SOL    HW232532   7.806   9.639   6.251  1.3964 -1.4162 -2.8329
 8840SOL     OW32533   4.811   5.033   0.428  0.4336  0.6457 -0.1074
 8840SOL    HW132534   4.760   4.954   0.464  1.6183  0.3160  0.9141
 8840SOL    HW232535   4.848   5.086   0.505 -0.0493  2.0056 -0.7987
 8841SOL     OW32536   3.507   7.221   5.042  0.0590  0.1582  0.0939
 8841SOL    HW132537   3.526   7.309   5.087 -1.0048 -0.1439  1.1547
 8841SOL    HW232538   3.559   7.216   4.957  0.9916  1.3509  0.5665
 8842SOL     OW32539   4.071   1.420   2.636  0.6349 -0.5627  0.5062
 8842SOL    HW132540   4.146   1.419   2.570  1.1903 -0.5176  1.1248
 8842SOL    HW232541   4.005   1.349   2.612 -0.5320  1.1812 -1.6035
 8844SOL     OW32542   3.727   8.323   1.146 -0.7805 -0.2331 -0.1168
 8844SOL    HW132543   3.740   8.415   1.109 -0.7449 -0.8386 -1.6499
 8844SOL    HW232544   3.766   8.255   1.084 -1.3345 -1.3341  0.6984
 8846SOL     OW32545   6.250   7.862   4.360 -0.0040 -0.1229 -0.4813
 8846SOL    HW132546   6.196   7.914   4.294 -1.8407  0.7463  1.6690
 8846SOL    HW232547   6.273   7.920   4.438 -0.7219 -2.0855  1.2148
 8847SOL     OW32548   9.813   0.219   3.267 -0.2743 -0.4989  1.0886
 8847SOL    HW132549   9.785   0.123   3.254  1.9112 -0.9701 -0.5298
 8847SOL    HW232550   9.913   0.225   3.265 -0.3758  1.7720  1.6106
 8849SOL     OW32551   9.428   4.250   2.655  0.2275 -0.4208 -0.0637
 8849SOL    HW132552   9.484   4.170   2.678 -0.7201 -1.6070 -1.7832
 8849SOL    HW232553   9.332   4.231   2.675  0.0033  0.3115 -0.4071
 8850SOL     OW32554   0.153   3.138   4.493  0.4089 -0.3528 -0.3107
 8850SOL    HW132555   0.196   3.048   4.506 -1.7117 -1.4328 -0.5741
 8850SOL    HW232556   0.081   3.150   4.561 -0.9408  0.1362 -1.8088
 8853SOL     OW32557   2.289   6.263   0.411 -0.2840  0.3255  0.1268
 8853SOL    HW132558   2.299   6.348   0.359 -0.2732 -0.9270 -1.9517
 8853SOL    HW232559   2.228   6.200   0.363  1.3727 -1.6906  0.5643
 8854SOL     OW32560   9.421   2.973   3.700 -0.3238  0.9524  0.2987
 8854SOL    HW132561   9.401   3.044   3.633  0.8478  0.1334 -0.9646
 8854SOL    HW232562   9.519   2.973   3.720 -0.0801 -1.1654 -0.7579
 8855SOL     OW32563   6.629   0.135   2.255 -0.5145 -0.5461 -0.2881
 8855SOL    HW132564   6.593   0.051   2.295  0.6323 -1.0887 -0.3900
 8855SOL    HW232565   6.702   0.113   2.190 -0.0655  0.5354 -0.1645
 8856SOL     OW32566   3.217   1.485   4.499 -0.2116  0.3990  0.2098
 8856SOL    HW132567   3.312   1.457   4.482  0.5603  2.2294  1.3497
 8856SOL    HW232568   3.180   1.528   4.416  1.2467  3.0884  0.8739
 8857SOL     OW32569   0.553   5.283   1.059  0.0944  0.0418 -0.2051
 8857SOL    HW132570   0.563   5.313   0.964  0.0584  0.0135 -0.2176
 8857SOL    HW232571   0.465   5.238   1.071  0.0453  0.1586 -0.1282
 8858SOL     OW32572   1.205   8.368   3.422  0.0562 -0.2402  0.4403
 8858SOL    HW132573   1.144   8.292   3.443 -0.8718  0.3051 -0.3081
 8858SOL    HW232574   1.168   8.422   3.346  1.5465 -0.0182 -0.1475
 8860SOL     OW32575   1.811   1.009   5.816  0.1174  0.0174  0.2134
 8860SOL    HW132576   1.891   1.058   5.781  0.4162 -0.4878  0.1723
 8860SOL    HW232577   1.738   1.010   5.747  0.1797  0.2738  0.1528
 8861SOL     OW32578   5.906   5.065   0.531 -0.4853 -0.5191  0.1824
 8861SOL    HW132579   5.984   5.075   0.593 -1.1084 -1.0214  1.0524
 8861SOL    HW232580   5.844   4.995   0.566 -2.3076  1.2223  0.5103
 8862SOL     OW32581   8.349   5.089   1.366 -0.6012 -0.1906  0.4494
 8862SOL    HW132582   8.312   4.999   1.342  0.4445 -0.3697 -0.5059
 8862SOL    HW232583   8.445   5.094   1.340 -1.1732  1.9161 -1.4378
 8864SOL     OW32584   6.678   1.049   1.075 -0.6372  0.1082  0.2388
 8864SOL    HW132585   6.680   1.084   1.168  0.1711 -2.8638  1.4093
 8864SOL    HW232586   6.758   1.082   1.025 -1.4813  2.3454  0.3222
 8866SOL     OW32587   8.346   6.212   0.173 -0.4557  0.4921 -0.5265
 8866SOL    HW132588   8.400   6.236   0.092 -1.3600 -0.2521 -1.3566
 8866SOL    HW232589   8.396   6.240   0.255  0.8168  0.5795 -1.3100
 8867SOL     OW32590   3.919   4.653   3.410 -0.6217 -0.0433  0.2442
 8867SOL    HW132591   3.979   4.674   3.333  1.7646 -1.9773  1.5138
 8867SOL    HW232592   3.957   4.577   3.462 -3.2808 -0.1358  2.1453
 8868SOL     OW32593   0.773   1.206   2.708  0.6840  0.4422  0.0117
 8868SOL    HW132594   0.691   1.262   2.695  1.4716  1.5327 -0.2507
 8868SOL    HW232595   0.831   1.248   2.778  0.3477 -1.0817  1.2242
 8869SOL     OW32596   0.305   6.924   1.462  0.1738 -0.3434  0.4282
 8869SOL    HW132597   0.349   6.950   1.548 -0.4348 -0.3419  0.7425
 8869SOL    HW232598   0.221   6.977   1.450  0.4672 -0.0446 -0.3691
 8870SOL     OW32599   7.543   2.212   0.416 -0.0326  0.2713  0.2936
 8870SOL    HW132600   7.573   2.285   0.477 -0.2734 -1.0495  2.0305
 8870SOL    HW232601   7.498   2.140   0.469  0.6662 -1.3971 -1.3069
 8871SOL     OW32602   9.351   0.395   6.369  0.2508 -0.4843  0.1895
 8871SOL    HW132603   9.408   0.315   6.387  0.1067 -0.2180  1.8830
 8871SOL    HW232604   9.255   0.366   6.364  0.3620 -0.6710 -0.9231
 8872SOL     OW32605   4.544   9.793   6.227 -0.2597  0.3186 -0.2002
 8872SOL    HW132606   4.606   9.865   6.196  0.9783 -0.6276  0.0518
 8872SOL    HW232607   4.551   9.715   6.165 -1.3117  0.2604 -0.2507
 8873SOL     OW32608   9.018   7.113   2.416 -0.0663  0.1353  0.6202
 8873SOL    HW132609   8.943   7.052   2.390 -1.2001  1.2018  1.3169
 8873SOL    HW232610   9.000   7.205   2.381  1.7674  0.0232 -0.6642
 8874SOL     OW32611   3.599   8.778   5.063 -0.2372 -0.0775 -0.1802
 8874SOL    HW132612   3.600   8.875   5.087  0.8637 -0.3926  1.1110
 8874SOL    HW232613   3.656   8.764   4.982 -1.2659  0.4998 -1.0210
 8875SOL     OW32614   2.185   2.345   1.208  0.2778  0.3488  0.4692
 8875SOL    HW132615   2.238   2.398   1.141  2.1035 -0.8504  0.9360
 8875SOL    HW232616   2.119   2.288   1.160  1.1489 -0.0326 -0.3039
 8876SOL     OW32617   1.630   7.939   5.473  0.1570 -0.2380  0.5766
 8876SOL    HW132618   1.639   7.868   5.543 -0.0485 -0.5944  0.2441
 8876SOL    HW232619   1.624   8.029   5.517  0.8593 -0.3831  0.9790
 8877SOL     OW32620   4.103   1.258   1.570 -0.2050 -0.6897 -0.3648
 8877SOL    HW132621   4.086   1.255   1.472 -0.0613 -0.4390 -0.3979
 8877SOL    HW232622   4.196   1.225   1.589 -0.7384 -2.1107 -0.1803
 8879SOL     OW32623   3.143   7.285   3.077  0.3775 -0.3103 -0.2817
 8879SOL    HW132624   3.214   7.268   3.145  1.6546 -1.6372 -1.9031
 8879SOL    HW232625   3.114   7.198   3.037 -0.9718  0.3795 -0.8294
 8880SOL     OW32626   8.389   6.317   3.262  0.4924 -0.0286 -0.6202
 8880SOL    HW132627   8.378   6.309   3.362  1.8107 -0.0178 -0.4576
 8880SOL    HW232628   8.377   6.412   3.235 -1.4337 -0.2806 -0.6872
 8881SOL     OW32629   8.052   5.381   5.956 -0.6440  0.0917 -0.2445
 8881SOL    HW132630   8.044   5.448   6.030 -0.1843  0.5475 -0.6051
 8881SOL    HW232631   8.142   5.338   5.958 -1.5189 -1.7396  1.0094
 8882SOL     OW32632   8.041   4.910   0.757 -0.1991 -0.1406 -0.0537
 8882SOL    HW132633   7.961   4.883   0.705  0.2605 -1.4013 -0.1234
 8882SOL    HW232634   8.070   4.834   0.816  1.2135  0.1328 -0.3802
 8884SOL     OW32635   2.130   4.853   1.174 -0.2883 -0.2261 -0.5525
 8884SOL    HW132636   2.169   4.866   1.265 -0.4241  0.3121 -0.5701
 8884SOL    HW232637   2.203   4.838   1.108 -0.1670 -0.1715 -0.4313
 8885SOL     OW32638   0.648   4.280   2.288  0.1833  0.2362 -0.5237
 8885SOL    HW132639   0.592   4.212   2.336  1.9699 -0.1039  1.1565
 8885SOL    HW232640   0.613   4.371   2.309 -0.5097 -0.0345 -0.4884
 8886SOL     OW32641   2.514   4.937   1.057 -0.2552 -0.8255  0.4829
 8886SOL    HW132642   2.449   4.870   1.021 -1.0786 -0.6888  1.6982
 8886SOL    HW232643   2.473   5.028   1.053 -0.9267 -0.9804  3.0695
 8887SOL     OW32644   2.062   5.182   2.116  0.3924  0.5984  1.0929
 8887SOL    HW132645   1.964   5.166   2.128  0.0411  1.9776  0.1657
 8887SOL    HW232646   2.078   5.227   2.028  1.8902  0.1381  1.1164
 8889SOL     OW32647   4.165   5.027   4.175 -0.2338 -0.0653 -0.4624
 8889SOL    HW132648   4.126   5.003   4.086 -1.8696  0.2905  0.1456
 8889SOL    HW232649   4.092   5.037   4.242  1.0305 -1.0205  1.1012
 8890SOL     OW32650   0.457   3.725   3.484  0.4100  0.5739 -0.0138
 8890SOL    HW132651   0.469   3.815   3.526  0.7630  0.0687  0.9729
 8890SOL    HW232652   0.433   3.736   3.387 -1.2301  1.7554  0.5181
 8891SOL     OW32653   8.600   5.657   1.288  0.4895 -0.0494 -0.4862
 8891SOL    HW132654   8.607   5.656   1.388 -1.2071  0.9339 -0.3276
 8891SOL    HW232655   8.689   5.678   1.248  0.8416  1.0874  0.8715
 8893SOL     OW32656   2.252   4.726   0.309  0.6387 -0.6410 -0.3391
 8893SOL    HW132657   2.220   4.631   0.308 -0.0616 -0.4368  1.1600
 8893SOL    HW232658   2.332   4.733   0.370  0.9673 -0.3434 -0.7978
 8894SOL     OW32659   3.324   2.873   2.185  0.0514  0.6288 -0.3554
 8894SOL    HW132660   3.358   2.856   2.093  0.5282  1.0367 -0.2524
 8894SOL    HW232661   3.271   2.957   2.186  0.0372  0.6192 -0.2605
 8895SOL     OW32662   6.762   9.408   3.463 -0.1170  0.2029  0.2109
 8895SOL    HW132663   6.699   9.438   3.534 -0.3051  1.4947 -0.4961
 8895SOL    HW232664   6.772   9.479   3.394  1.3974 -0.3503 -0.1726
 8897SOL     OW32665   1.190   6.465   2.988 -0.3339 -0.0293 -0.0412
 8897SOL    HW132666   1.256   6.399   3.023 -1.0475 -0.2174  0.9523
 8897SOL    HW232667   1.162   6.526   3.061 -0.4925  0.7041 -0.7054
 8898SOL     OW32668   2.147   3.578   3.103 -0.1150 -0.4672 -0.0267
 8898SOL    HW132669   2.175   3.526   3.022  0.7071  1.1865 -0.8313
 8898SOL    HW232670   2.074   3.529   3.150  1.6947 -3.1176  0.1128
 8899SOL     OW32671   0.357   3.209   3.380 -0.5958 -0.6139 -0.6797
 8899SOL    HW132672   0.357   3.259   3.466  0.9004 -0.3438 -0.8220
 8899SOL    HW232673   0.276   3.232   3.328  0.8144  2.9120 -1.4541
 8900SOL     OW32674   2.107   0.696   5.452 -0.2811  0.4901 -0.1111
 8900SOL    HW132675   2.058   0.778   5.482 -1.3052 -0.3028  0.4133
 8900SOL    HW232676   2.070   0.665   5.364 -0.6285 -0.0092  0.2040
 8901SOL     OW32677   0.720   7.520   3.860  0.1905  0.1536  0.0625
 8901SOL    HW132678   0.755   7.596   3.805  0.6264 -0.6900 -0.8552
 8901SOL    HW232679   0.774   7.513   3.944  0.8900  0.1652 -0.3754
 8902SOL     OW32680   3.055   3.162   2.450  0.1591 -0.2833  0.3855
 8902SOL    HW132681   3.010   3.221   2.517 -2.2415 -3.4349  1.6419
 8902SOL    HW232682   2.995   3.150   2.371  0.2092 -1.8610  0.5899
 8903SOL     OW32683   2.497   8.882   1.822 -0.2427  0.5247  0.1076
 8903SOL    HW132684   2.427   8.953   1.810 -0.3380  0.1882 -1.4802
 8903SOL    HW232685   2.456   8.792   1.808  0.2550  0.2615  0.3287
 8904SOL     OW32686   6.847   7.199   3.960  0.1080 -0.0925 -0.2324
 8904SOL    HW132687   6.885   7.265   4.024  0.3428 -0.1799 -0.2799
 8904SOL    HW232688   6.773   7.241   3.908 -0.2902 -0.1139  0.3114
 8905SOL     OW32689   4.315   3.235   3.427  0.0979 -0.0621  0.4423
 8905SOL    HW132690   4.263   3.293   3.490  1.2099  1.6517 -0.1562
 8905SOL    HW232691   4.261   3.156   3.402 -1.8021  1.1300  0.6638
 8906SOL     OW32692   9.158   1.167   0.199 -0.2214  0.3612  0.3071
 8906SOL    HW132693   9.208   1.231   0.257  0.0308 -0.6650  1.2454
 8906SOL    HW232694   9.221   1.126   0.133 -0.0087 -0.2631  0.8969
 8907SOL     OW32695   9.525   5.730   3.393  0.2161  0.1044 -0.4419
 8907SOL    HW132696   9.430   5.701   3.390  0.3962 -0.6072  0.3375
 8907SOL    HW232697   9.572   5.698   3.310 -0.2343  0.5121 -0.8574
 8908SOL     OW32698   0.478   8.176   3.487 -0.1418 -0.4137  0.0695
 8908SOL    HW132699   0.439   8.193   3.578  0.5925  1.4545  0.0582
 8908SOL    HW232700   0.459   8.081   3.460 -0.8286 -0.8413  1.9383
 8910SOL     OW32701   2.208   9.005   5.403 -0.5476 -0.5792 -0.0280
 8910SOL    HW132702   2.263   8.970   5.479 -2.8172 -4.2605  0.0569
 8910SOL    HW232703   2.126   9.050   5.438 -0.9432 -1.1152 -0.2573
 8911SOL     OW32704   0.378   1.101   1.003 -0.2271  0.1077 -0.0708
 8911SOL    HW132705   0.326   1.118   1.086  2.0897  1.6695  1.1186
 8911SOL    HW232706   0.422   1.011   1.009 -2.0427 -0.8627 -0.7321
 8912SOL     OW32707   7.978   8.094   2.335  0.5084  0.0273  0.6344
 8912SOL    HW132708   7.892   8.143   2.323  1.2848  1.5004  0.9210
 8912SOL    HW232709   8.032   8.099   2.251  1.3985  1.2898  1.2675
 8913SOL     OW32710   8.776   8.966   6.086 -0.1414 -0.1488  0.0102
 8913SOL    HW132711   8.691   9.017   6.071 -1.1205 -0.9328  2.5742
 8913SOL    HW232712   8.849   9.029   6.111 -0.2614  0.4122 -1.0297
 8914SOL     OW32713   8.611   3.100   5.733 -0.2038 -0.0197  0.1305
 8914SOL    HW132714   8.601   3.140   5.824  0.9210 -1.0451  0.7152
 8914SOL    HW232715   8.595   3.001   5.738 -2.3945  0.2120 -1.1979
 8916SOL     OW32716   6.671   7.885   6.056 -0.0553 -0.0378  0.1106
 8916SOL    HW132717   6.592   7.826   6.039  0.4156 -0.1439 -1.7220
 8916SOL    HW232718   6.728   7.844   6.128 -0.1034 -1.4671 -0.6494
 8917SOL     OW32719   8.660   9.678   1.916 -0.4135  0.2783 -0.5960
 8917SOL    HW132720   8.638   9.769   1.880  1.2412  0.1468 -1.9889
 8917SOL    HW232721   8.634   9.609   1.848 -0.2160 -0.1876 -0.1946
 8918SOL     OW32722   8.903   7.602   6.316 -0.1299  0.2417  0.7476
 8918SOL    HW132723   8.836   7.663   6.275  1.1886  0.8914 -0.5214
 8918SOL    HW232724   8.904   7.614   6.415  0.9270  3.1501  0.4156
 8919SOL     OW32725   4.735   3.971   1.925 -0.1057 -0.1623  0.4157
 8919SOL    HW132726   4.702   4.065   1.927 -1.5787 -0.6912  1.4443
 8919SOL    HW232727   4.713   3.929   1.837 -0.0616  0.2385  0.2163
 8920SOL     OW32728   8.943   0.868   5.526  0.2614  0.3441 -0.3591
 8920SOL    HW132729   8.855   0.914   5.533 -0.9272 -1.6590 -1.6151
 8920SOL    HW232730   8.966   0.825   5.613  0.8303  2.2885  0.4716
 8921SOL     OW32731   9.293   5.799   4.145 -0.0463  0.1538  0.1864
 8921SOL    HW132732   9.265   5.704   4.152 -0.8396  0.2635 -1.2304
 8921SOL    HW232733   9.393   5.805   4.144  0.0038 -0.6872 -0.0157
 8922SOL     OW32734   2.938   6.771   3.581  0.7696 -0.0523 -0.2509
 8922SOL    HW132735   2.850   6.801   3.618  0.9839  0.4174 -0.1279
 8922SOL    HW232736   3.012   6.808   3.637  1.0200 -1.1623  0.1682
 8923SOL     OW32737   0.250   5.247   0.893 -0.0419  0.3608 -0.5774
 8923SOL    HW132738   0.251   5.195   0.808  1.0028  1.1971 -1.0925
 8923SOL    HW232739   0.196   5.331   0.880 -0.6655  0.0332 -0.1298
 8924SOL     OW32740   5.275   2.445   0.156  0.2576  0.3630 -0.6327
 8924SOL    HW132741   5.264   2.490   0.067 -0.6977  0.3643 -0.5170
 8924SOL    HW232742   5.352   2.488   0.205 -0.3763  1.5999 -0.6942
 8925SOL     OW32743   4.544   3.900   1.343 -0.0602  0.0609  0.5295
 8925SOL    HW132744   4.470   3.887   1.278  1.6416 -1.5654 -1.1613
 8925SOL    HW232745   4.600   3.978   1.315 -0.9936  1.1582  1.6863
 8926SOL     OW32746   3.370   3.858   1.936  0.0485 -0.2351 -0.4345
 8926SOL    HW132747   3.311   3.855   2.016  1.0864  2.3990  0.4793
 8926SOL    HW232748   3.440   3.787   1.944  0.4702  0.3385  1.2785
 8928SOL     OW32749   6.944   4.951   1.641 -0.2707 -0.2515  0.3265
 8928SOL    HW132750   6.891   4.866   1.642  0.3450 -0.6726 -1.8336
 8928SOL    HW232751   7.011   4.949   1.716  1.0726 -2.5649 -0.8776
 8929SOL     OW32752   3.918   4.330   0.592 -0.0594  0.2002 -0.1883
 8929SOL    HW132753   3.911   4.276   0.676  1.5570 -0.1117 -0.2307
 8929SOL    HW232754   3.842   4.394   0.587  0.0739  0.5554  1.7763
 8931SOL     OW32755   3.661   7.161   4.827  0.2970 -0.5949  0.1174
 8931SOL    HW132756   3.695   7.087   4.768 -0.7049  0.0892 -1.3595
 8931SOL    HW232757   3.720   7.241   4.817 -1.1461  0.2769 -1.7249
 8932SOL     OW32758   2.489   8.767   3.068  0.2346  1.0871  1.0932
 8932SOL    HW132759   2.549   8.815   3.003 -0.2949  0.9872  0.5157
 8932SOL    HW232760   2.527   8.774   3.160  1.7410  0.0181  0.5699
 8933SOL     OW32761   4.918   1.052   1.403  0.6115  0.1566 -0.3149
 8933SOL    HW132762   4.887   1.147   1.410  0.6312  0.1457 -0.0651
 8933SOL    HW232763   4.875   0.999   1.476  0.4872 -0.0566 -0.5433
 8934SOL     OW32764   7.423   3.355   2.554 -0.1906  0.0905  0.1220
 8934SOL    HW132765   7.373   3.273   2.583 -0.9939  0.5534  0.0710
 8934SOL    HW232766   7.376   3.436   2.590  0.0176  0.5715 -0.6900
 8935SOL     OW32767   3.471   2.037   0.022  0.1728  0.3833  0.0046
 8935SOL    HW132768   3.378   2.064   0.044 -0.2591  0.7412 -2.1499
 8935SOL    HW232769   3.535   2.108   0.051 -0.6596  2.2706 -2.5761
 8936SOL     OW32770   4.814   6.381   2.748  0.9459  0.5667 -0.5587
 8936SOL    HW132771   4.907   6.397   2.783  0.0533 -0.1341  2.2579
 8936SOL    HW232772   4.805   6.284   2.723  0.5366  0.2959  0.6045
 8937SOL     OW32773   7.964   8.091   4.483  0.3345 -0.0520  0.1500
 8937SOL    HW132774   7.889   8.060   4.424  0.4209  1.0984 -0.5936
 8937SOL    HW232775   8.015   8.012   4.517  1.4232 -0.7016 -2.8265
 8939SOL     OW32776   6.816   9.993   1.515 -0.5366 -0.0578  0.2443
 8939SOL    HW132777   6.887  10.058   1.489  0.7538 -1.4651  0.1178
 8939SOL    HW232778   6.846   9.941   1.595 -2.9396  1.7376  2.3584
 8940SOL     OW32779   8.136   6.029   1.688 -0.3756 -0.3665  0.3469
 8940SOL    HW132780   8.182   5.964   1.628 -1.0685 -1.8589  1.4130
 8940SOL    HW232781   8.063   5.983   1.738 -1.4457  1.4288  0.4775
 8942SOL     OW32782   0.155   6.283   6.032 -0.2407  0.2398 -0.1844
 8942SOL    HW132783   0.248   6.247   6.034  0.2514  1.5330  1.0639
 8942SOL    HW232784   0.090   6.208   6.048  0.6834 -0.3599  0.8931
 8943SOL     OW32785   5.487   0.030   3.909  0.5407  0.7282 -0.1662
 8943SOL    HW132786   5.508  -0.016   3.996  0.3557 -0.3174 -0.6630
 8943SOL    HW232787   5.389   0.020   3.889  0.4974  1.3523 -0.2834
 8944SOL     OW32788   0.447   9.626   5.017  0.2135 -0.2037  0.2922
 8944SOL    HW132789   0.423   9.540   5.063 -0.0378 -0.2193  0.1323
 8944SOL    HW232790   0.520   9.608   4.950  0.0230 -0.3304  0.1169
 8945SOL     OW32791   1.610   1.251   5.139 -0.2542  0.2957 -0.3319
 8945SOL    HW132792   1.606   1.219   5.045  1.4223  0.5171 -0.4939
 8945SOL    HW232793   1.611   1.351   5.141  1.2418  0.2976 -0.1849
 8946SOL     OW32794   9.417   4.415   0.462  0.0431 -0.1273 -0.4726
 8946SOL    HW132795   9.500   4.391   0.411  1.6809  1.2611  1.4887
 8946SOL    HW232796   9.408   4.355   0.541 -1.3621 -0.8844 -1.1750
 8947SOL     OW32797   7.809   9.531   5.271  0.0624  0.0580 -0.1563
 8947SOL    HW132798   7.832   9.620   5.309  1.6728 -0.3675 -0.0715
 8947SOL    HW232799   7.882   9.466   5.292 -0.9463 -1.2121 -0.4654
 8948SOL     OW32800   6.383   4.110   0.909  0.6897 -0.0451 -0.0573
 8948SOL    HW132801   6.355   4.043   0.978 -0.8387 -1.0182 -1.5754
 8948SOL    HW232802   6.308   4.125   0.845  1.7200  1.6424 -0.8969
 8949SOL     OW32803   7.666   4.021   3.524  0.1819  0.1420 -0.6595
 8949SOL    HW132804   7.580   3.972   3.541  0.4087 -0.3676 -0.9804
 8949SOL    HW232805   7.682   4.086   3.599 -1.2033  1.2726 -1.3203
 8950SOL     OW32806   9.440   1.018   2.546  0.4623  0.2432  0.2277
 8950SOL    HW132807   9.483   1.036   2.457 -0.0747 -0.9578 -0.2810
 8950SOL    HW232808   9.507   0.977   2.607  0.2244 -1.0451 -0.3625
 8951SOL     OW32809   4.860   2.506   3.283  0.2389  0.6544  0.5327
 8951SOL    HW132810   4.768   2.527   3.249  0.4972  1.7346  0.4697
 8951SOL    HW232811   4.857   2.422   3.337 -0.4272 -0.3805 -1.0769
 8954SOL     OW32812   4.759   1.326   2.441 -0.4968 -0.7845 -0.5787
 8954SOL    HW132813   4.791   1.419   2.460 -1.8800  0.0297 -2.1778
 8954SOL    HW232814   4.670   1.313   2.484 -1.2972 -0.6291 -2.1607
 8955SOL     OW32815   2.087   5.741   3.715  0.2560  0.0525 -0.3635
 8955SOL    HW132816   2.082   5.791   3.801 -0.0831 -0.0976 -0.2938
 8955SOL    HW232817   2.169   5.769   3.664  0.1628  0.5431 -0.2436
 8956SOL     OW32818   1.029   7.854   4.720  0.5609 -0.4383 -0.8139
 8956SOL    HW132819   0.936   7.844   4.684  0.2720 -0.7205 -0.0059
 8956SOL    HW232820   1.092   7.802   4.662 -0.0547 -1.7754 -0.3130
 8957SOL     OW32821   3.328   2.509   0.324 -0.0773  0.2986  0.3154
 8957SOL    HW132822   3.360   2.550   0.239 -0.2689  0.7750  0.4713
 8957SOL    HW232823   3.403   2.457   0.366 -0.5041 -1.4639 -1.0620
 8958SOL     OW32824   1.688   8.294   0.771  0.0371  0.2348  0.4830
 8958SOL    HW132825   1.610   8.352   0.797  0.1043  1.5006 -1.9970
 8958SOL    HW232826   1.657   8.199   0.763 -1.2698  0.7118 -0.4140
 8959SOL     OW32827   6.242   9.962   4.130  0.8305 -0.3554 -0.1889
 8959SOL    HW132828   6.291  10.022   4.192 -0.4439 -0.0431  0.5373
 8959SOL    HW232829   6.167   9.917   4.179 -0.6564  0.4635 -1.6773
 8960SOL     OW32830   0.661   7.671   3.399 -0.1823 -0.3999  0.0866
 8960SOL    HW132831   0.672   7.759   3.445  2.3502 -0.2779 -0.6373
 8960SOL    HW232832   0.749   7.622   3.400 -0.7201 -1.5108 -2.3116
 8961SOL     OW32833   7.440   4.852   0.302  0.3931  0.0066  0.8765
 8961SOL    HW132834   7.398   4.853   0.211  0.2112 -0.6204  0.9528
 8961SOL    HW232835   7.372   4.882   0.369  1.8009  5.0109  0.2945
 8964SOL     OW32836   9.091   7.863   5.413 -0.3050  0.5591  0.1068
 8964SOL    HW132837   9.087   7.817   5.502 -2.8804  0.0702 -0.2281
 8964SOL    HW232838   9.132   7.801   5.346  2.0274  1.0718  0.9882
 8965SOL     OW32839   2.957   3.070   4.296 -0.0079  0.3171 -0.0184
 8965SOL    HW132840   2.944   3.078   4.197 -2.5463  0.7069  0.3127
 8965SOL    HW232841   2.870   3.085   4.342  0.8946 -1.1073  2.2257
 8966SOL     OW32842   1.738   6.010   4.951  0.5050  0.4376  0.0805
 8966SOL    HW132843   1.789   6.038   4.870  0.8265  0.5348  0.3108
 8966SOL    HW232844   1.798   6.017   5.031 -0.1631  1.4786  0.4942
 8967SOL     OW32845   3.237   5.932   1.928  0.2698 -0.1880  0.2906
 8967SOL    HW132846   3.261   5.857   1.989  1.8801 -0.6142 -0.8346
 8967SOL    HW232847   3.244   5.901   1.833  0.9042  1.3528 -0.1804
 8968SOL     OW32848   0.114   6.886   5.545  0.0548  0.2989 -0.1257
 8968SOL    HW132849   0.085   6.903   5.639 -0.9977  0.8333 -0.5349
 8968SOL    HW232850   0.142   6.791   5.535  1.4839  0.5898  1.0566
 8969SOL     OW32851   1.999   0.449   5.535 -0.0086  0.0498 -0.4211
 8969SOL    HW132852   2.020   0.533   5.584 -0.6705  0.3599 -0.6740
 8969SOL    HW232853   1.998   0.466   5.437  1.1702 -0.5399 -0.5497
 8972SOL     OW32854   4.776   2.863   1.254 -0.2357 -0.1531 -0.0488
 8972SOL    HW132855   4.781   2.889   1.350 -1.0510 -0.4506  0.0724
 8972SOL    HW232856   4.778   2.763   1.246  0.5362 -0.1192 -0.3843
 8973SOL     OW32857   9.746   6.765   1.615 -0.0264  0.1193  0.7273
 8973SOL    HW132858   9.767   6.764   1.713 -1.6265 -0.9284  1.0734
 8973SOL    HW232859   9.654   6.730   1.600  0.8125 -1.3097 -1.3086
 8974SOL     OW32860   8.433   9.594   6.128 -0.1843 -0.2453  0.1489
 8974SOL    HW132861   8.365   9.668   6.130 -0.5884 -0.6343  0.7312
 8974SOL    HW232862   8.505   9.613   6.195 -0.6473 -0.7257  0.7826
 8975SOL     OW32863   3.530   9.710   0.587 -0.1558  0.0764 -1.1873
 8975SOL    HW132864   3.433   9.733   0.595  0.1540  0.7894  0.7425
 8975SOL    HW232865   3.547   9.624   0.635  0.5425  1.0632  0.3840
 8976SOL     OW32866   8.571   9.419   0.385  0.3782 -0.1660 -0.3172
 8976SOL    HW132867   8.647   9.446   0.443 -0.8064  0.2355  1.0656
 8976SOL    HW232868   8.523   9.501   0.353  1.5889 -0.3296 -2.6705
 8977SOL     OW32869   7.605   1.634   0.659  0.4794  0.4713  0.2246
 8977SOL    HW132870   7.573   1.660   0.751 -0.7664 -1.2545  0.2968
 8977SOL    HW232871   7.659   1.550   0.665  2.5395  1.7258 -0.3160
 8978SOL     OW32872   3.283   0.707   4.243 -0.1983  0.0767 -0.4765
 8978SOL    HW132873   3.216   0.755   4.186 -0.7280 -0.2643 -0.1550
 8978SOL    HW232874   3.368   0.694   4.193  0.1633  1.9039 -0.3548
 8979SOL     OW32875   9.692   5.807   4.605  0.4675  0.6052 -0.5518
 8979SOL    HW132876   9.663   5.875   4.672  0.7620 -0.1643  0.3745
 8979SOL    HW232877   9.780   5.834   4.565  0.6185  0.7332 -0.1315
 8980SOL     OW32878   2.114   8.323   3.426  0.8878 -0.0302  0.7879
 8980SOL    HW132879   2.187   8.322   3.495  2.9144  0.8312 -1.3017
 8980SOL    HW232880   2.153   8.340   3.336 -1.9765  1.1422 -0.2989
 8981SOL     OW32881   9.793   1.920   0.639 -0.2553 -0.5133  0.1100
 8981SOL    HW132882   9.842   1.883   0.561 -0.1626 -2.2050  0.9528
 8981SOL    HW232883   9.697   1.935   0.615 -0.0199 -0.1490 -0.5959
 8982SOL     OW32884   1.666   8.903   2.200  0.0928  0.2655 -0.2316
 8982SOL    HW132885   1.646   8.830   2.266 -1.8068  0.4040 -0.6300
 8982SOL    HW232886   1.629   8.989   2.234  1.0608  0.7654 -0.4479
 8983SOL     OW32887   9.401   5.133   4.346  0.1941  0.0094 -0.0804
 8983SOL    HW132888   9.408   5.085   4.433 -0.5146 -0.3514 -0.2153
 8983SOL    HW232889   9.457   5.087   4.277  0.2077 -0.1036  0.0075
 8984SOL     OW32890   2.708   2.005   6.180 -0.0790  0.5818 -0.2352
 8984SOL    HW132891   2.640   2.074   6.205 -0.5028 -0.0888  0.4695
 8984SOL    HW232892   2.756   1.974   6.262  1.9765  1.9692 -0.8526
 8985SOL     OW32893   1.448   6.717   1.334 -0.0062  0.4667 -0.3792
 8985SOL    HW132894   1.371   6.721   1.398  0.3667  0.0386  0.1010
 8985SOL    HW232895   1.498   6.631   1.347  0.6816  0.8371 -0.5324
 8986SOL     OW32896   7.511   5.806   0.086 -0.5143  0.3842 -0.4223
 8986SOL    HW132897   7.522   5.718   0.040  1.1947  0.2089  0.2941
 8986SOL    HW232898   7.466   5.793   0.174  0.4349  0.1056  0.0334
 8987SOL     OW32899   9.066   3.150   5.197  0.3203  0.0976 -0.6627
 8987SOL    HW132900   8.978   3.174   5.238  1.1669  0.2097  1.1482
 8987SOL    HW232901   9.096   3.222   5.135 -0.5744  0.3377 -0.8139
 8988SOL     OW32902   0.695   3.670   0.210  0.2445  0.1678 -0.3853
 8988SOL    HW132903   0.692   3.682   0.309  0.7765  0.9719 -0.4627
 8988SOL    HW232904   0.790   3.669   0.179  0.0481  1.4970 -1.0669
 8990SOL     OW32905   9.311   0.039   2.894  0.2060  0.6315  0.0808
 8990SOL    HW132906   9.314   0.137   2.877  1.6873  0.8596  1.4717
 8990SOL    HW232907   9.265   0.022   2.981 -0.9576  0.0143 -0.6480
 8991SOL     OW32908   8.882   7.081   2.677 -0.1452 -0.4381  0.5451
 8991SOL    HW132909   8.793   7.127   2.670 -0.6944 -1.5036  0.5490
 8991SOL    HW232910   8.942   7.116   2.605 -0.8490 -0.3498 -0.0088
 8992SOL     OW32911   3.461   0.491   0.025  0.1006 -0.0046  0.2704
 8992SOL    HW132912   3.520   0.447   0.093  1.2851 -0.0636 -0.7617
 8992SOL    HW232913   3.488   0.587   0.015  0.4255 -0.1892 -0.6417
 8994SOL     OW32914   7.685   7.160   6.431  0.1334 -0.0767 -0.1892
 8994SOL    HW132915   7.704   7.076   6.481 -1.8243 -0.1624  0.4519
 8994SOL    HW232916   7.665   7.234   6.496  5.2705  1.8611 -0.5624
 8995SOL     OW32917   2.403   3.325   3.828  0.3088 -0.5719  0.0011
 8995SOL    HW132918   2.393   3.284   3.918  1.6644  0.1743  0.5038
 8995SOL    HW232919   2.313   3.350   3.792 -0.1256  0.3721  1.7226
 8996SOL     OW32920   5.875   0.071   2.626  0.3185  0.4503 -0.2327
 8996SOL    HW132921   5.853   0.158   2.583  1.5139  1.8047  1.8219
 8996SOL    HW232922   5.863  -0.003   2.560  2.4046  2.4828 -2.9679
 8998SOL     OW32923   5.092   2.121   3.259 -0.0040  0.2348  0.2008
 8998SOL    HW132924   5.110   2.206   3.210 -0.1596  1.6423  2.4958
 8998SOL    HW232925   5.158   2.051   3.232  0.6882  1.3608 -1.0376
 8999SOL     OW32926   1.215   4.596   0.554 -0.5331 -0.3924 -0.4321
 8999SOL    HW132927   1.132   4.649   0.536 -0.2471  0.1149 -0.2855
 8999SOL    HW232928   1.197   4.526   0.622 -0.7095  0.0641 -0.0104
 9000SOL     OW32929   4.235   5.041   3.841 -0.2119 -0.0313  0.3616
 9000SOL    HW132930   4.302   5.062   3.913 -0.5682  0.5446  0.5298
 9000SOL    HW232931   4.144   5.066   3.872 -0.5724 -1.2853  0.3223
 9001SOL     OW32932   3.044   0.161   6.345 -0.2247  0.5045  0.1602
 9001SOL    HW132933   2.948   0.172   6.370 -0.4020 -0.2251 -0.1766
 9001SOL    HW232934   3.054   0.174   6.246 -0.0923 -0.1285  0.0865
 9003SOL     OW32935   1.913   5.809   5.879 -0.1776  0.2805 -0.2233
 9003SOL    HW132936   1.924   5.719   5.920  0.8384  0.3376 -0.3751
 9003SOL    HW232937   1.843   5.805   5.807 -0.3406 -0.3125 -0.0295
 9005SOL     OW32938   2.682   6.594   0.543  0.3993  0.0987  0.2747
 9005SOL    HW132939   2.599   6.577   0.595  1.2204  1.5349  2.0790
 9005SOL    HW232940   2.696   6.692   0.531  0.7470 -0.1672 -1.8313
 9006SOL     OW32941   2.714   8.674   1.383 -0.1424  0.1827 -0.2287
 9006SOL    HW132942   2.667   8.762   1.382 -1.5830 -0.5662 -0.4186
 9006SOL    HW232943   2.664   8.610   1.442  2.0631  0.1042  1.6252
 9007SOL     OW32944   6.848   9.413   2.042 -0.0216  0.6363  0.5330
 9007SOL    HW132945   6.880   9.434   1.950  1.6565 -1.7264  0.5190
 9007SOL    HW232946   6.910   9.455   2.109 -1.3042  2.4488  0.6292
 9008SOL     OW32947   7.823   8.846   1.185  0.1991  0.5725  0.1634
 9008SOL    HW132948   7.920   8.828   1.201  0.6620  1.2136 -1.7071
 9008SOL    HW232949   7.790   8.789   1.110 -0.6810  0.8952  0.2920
 9009SOL     OW32950   0.153   3.231   2.700 -0.6956  0.0416  0.3985
 9009SOL    HW132951   0.128   3.328   2.698 -0.0970  0.1845 -0.3832
 9009SOL    HW232952   0.250   3.223   2.725 -0.9513 -0.4003  1.2738
 9010SOL     OW32953   2.370   0.667   5.363  0.0311 -0.4093  0.1522
 9010SOL    HW132954   2.438   0.724   5.410 -0.2336  1.8161 -2.1025
 9010SOL    HW232955   2.282   0.678   5.408  0.1959  0.1990  0.3342
 9011SOL     OW32956   0.154   4.611   0.098  0.0329 -0.2663  0.4129
 9011SOL    HW132957   0.251   4.619   0.121 -0.3213 -0.0376  1.8808
 9011SOL    HW232958   0.139   4.526   0.047  0.8432 -0.8798  1.1654
 9012SOL     OW32959   4.150   5.856   2.261  0.0171  0.0558 -0.2116
 9012SOL    HW132960   4.074   5.795   2.238 -0.4843  1.0144 -1.1423
 9012SOL    HW232961   4.190   5.828   2.348 -0.9679 -0.8647 -0.0422
 9013SOL     OW32962   7.013   0.930   5.036  0.4194 -0.1638 -0.0442
 9013SOL    HW132963   6.937   0.905   4.976 -1.6113  0.3337  2.2543
 9013SOL    HW232964   7.051   0.847   5.077 -0.4427 -0.2414  0.6185
 9014SOL     OW32965   2.540   2.382   1.653 -0.2346  0.2759  0.6072
 9014SOL    HW132966   2.474   2.354   1.722 -0.7303 -0.0194  0.0257
 9014SOL    HW232967   2.495   2.386   1.563  0.5762 -0.0950  0.1751
 9015SOL     OW32968   9.164   0.092   3.642  0.1804  0.2450 -0.1589
 9015SOL    HW132969   9.262   0.114   3.644 -0.1882  1.8153  1.1881
 9015SOL    HW232970   9.121   0.123   3.726 -1.0437 -2.6394  0.3309
 9016SOL     OW32971   6.986   2.580   4.134  0.0288  0.1296  0.6078
 9016SOL    HW132972   6.993   2.487   4.169 -0.9743 -0.2162 -0.0709
 9016SOL    HW232973   6.890   2.601   4.114  0.4507  0.6284 -1.0395
 9018SOL     OW32974   7.769   8.030   4.698 -0.5080  0.0538  0.2823
 9018SOL    HW132975   7.794   8.018   4.602  0.4633  0.2905  0.4931
 9018SOL    HW232976   7.851   8.054   4.750 -1.3199  1.5711  0.8917
 9019SOL     OW32977   8.804   0.038   4.003  0.2104  0.6123 -0.0777
 9019SOL    HW132978   8.726  -0.021   4.017 -1.0469  2.6930  1.9847
 9019SOL    HW232979   8.879  -0.014   3.963 -1.4993 -1.8764 -0.1142
 9020SOL     OW32980   3.905   2.388   1.338 -0.0198 -0.0445  0.3262
 9020SOL    HW132981   3.960   2.357   1.416  2.1388  2.1874 -0.2435
 9020SOL    HW232982   3.957   2.378   1.254 -0.9351  0.9701 -0.3821
 9021SOL     OW32983   0.990   8.554   4.486 -0.2663  0.5050 -0.1600
 9021SOL    HW132984   0.909   8.607   4.459 -1.0348  0.6883  2.4058
 9021SOL    HW232985   0.962   8.478   4.543  1.3030 -0.0418 -0.1033
 9022SOL     OW32986   4.109   3.789   5.135  0.3064 -0.2965 -0.1080
 9022SOL    HW132987   4.058   3.728   5.075  0.5491 -1.4903  0.8541
 9022SOL    HW232988   4.204   3.794   5.104  0.2035 -0.1450 -0.3941
 9023SOL     OW32989   9.979   5.416   4.837 -0.2689  0.0893  0.2037
 9023SOL    HW132990  10.050   5.486   4.848  0.4231 -0.9565  2.5233
 9023SOL    HW232991   9.892   5.450   4.871 -0.3809  0.5383 -0.5208
 9024SOL     OW32992   5.035   0.541   1.195 -0.4251  0.1710  0.3350
 9024SOL    HW132993   5.097   0.466   1.172  0.2179  1.4548 -2.3401
 9024SOL    HW232994   5.088   0.614   1.239  0.0410  1.2512 -1.9152
 9025SOL     OW32995   0.258   2.528   2.283  0.0751  1.0888 -0.5628
 9025SOL    HW132996   0.356   2.539   2.270  0.2770 -0.5016 -0.5804
 9025SOL    HW232997   0.214   2.617   2.290  2.0014  1.7978  3.2422
 9026SOL     OW32998  -0.001   4.470   4.919  0.5157  0.1673  0.0238
 9026SOL    HW132999   0.032   4.380   4.890 -0.5547 -1.2489  3.0127
 9026SOL    HW233000   0.007   4.478   5.019  0.0414  3.1872 -0.1261
 9028SOL     OW33001   4.883   1.741   6.161 -0.4890 -0.0601  0.0991
 9028SOL    HW133002   4.930   1.662   6.202 -0.8026 -0.2471  0.0966
 9028SOL    HW233003   4.917   1.825   6.203 -0.7970 -0.2496  0.7284
 9030SOL     OW33004   1.192   5.683   6.268 -0.7967  0.0542 -0.4962
 9030SOL    HW133005   1.225   5.604   6.319  3.1176  1.6256 -0.3982
 9030SOL    HW233006   1.164   5.754   6.333  2.7291  1.4678 -0.3937
 9031SOL     OW33007   8.139   8.777   5.613 -0.0068  0.3407 -0.6167
 9031SOL    HW133008   8.235   8.803   5.604  0.2619 -0.0733  0.9321
 9031SOL    HW233009   8.081   8.856   5.592  0.6282  0.4008 -2.2558
 9032SOL     OW33010   6.849   8.691   5.944  0.2215  0.4697 -0.2954
 9032SOL    HW133011   6.847   8.620   5.873  0.9642  0.6809 -0.5291
 9032SOL    HW233012   6.804   8.656   6.026  0.5894 -0.2863 -0.4059
 9033SOL     OW33013   2.706   3.442   6.251  0.3954  0.5120 -0.3728
 9033SOL    HW133014   2.731   3.537   6.233 -0.5685  0.8246 -0.0882
 9033SOL    HW233015   2.748   3.383   6.181 -0.4808  1.3472 -1.6278
 9035SOL     OW33016   4.393   1.932   2.588  0.4841 -0.1167 -0.4573
 9035SOL    HW133017   4.384   1.881   2.503  1.1694 -1.0591  0.0241
 9035SOL    HW233018   4.485   1.918   2.626 -0.8275 -2.3676  2.0863
 9036SOL     OW33019   0.823   8.145   1.333  0.3575  0.0327 -0.0599
 9036SOL    HW133020   0.864   8.212   1.272  1.7887 -1.2112 -0.4999
 9036SOL    HW233021   0.774   8.192   1.406  1.9732  1.5564  0.0710
 9037SOL     OW33022   8.618   6.433   3.659 -0.1263  0.3335  0.3056
 9037SOL    HW133023   8.669   6.376   3.724 -1.0114  0.9337  1.5477
 9037SOL    HW233024   8.682   6.472   3.593  0.6704 -1.0230  0.2397
 9038SOL     OW33025   7.808   2.139   0.673 -0.0088 -0.3262  0.0487
 9038SOL    HW133026   7.893   2.132   0.726  0.3002 -1.2392 -0.5707
 9038SOL    HW233027   7.787   2.051   0.631 -0.8257  0.1152 -0.4768
 9040SOL     OW33028   9.379   4.397   5.659  0.2210  0.5818  0.1260
 9040SOL    HW133029   9.418   4.339   5.587 -0.9297  0.6941 -0.6127
 9040SOL    HW233030   9.359   4.487   5.621 -1.4116  0.3030  0.2720
 9041SOL     OW33031   8.663   0.431   5.279  0.0119 -0.5667 -0.2108
 9041SOL    HW133032   8.578   0.478   5.259 -0.3794 -0.7686  0.8948
 9041SOL    HW233033   8.660   0.338   5.242 -0.2877 -0.5991 -0.1065
 9042SOL     OW33034   1.887   8.962   4.961  0.6909 -0.8052  0.3637
 9042SOL    HW133035   1.800   8.964   4.914  0.8948  0.1734  0.0177
 9042SOL    HW233036   1.906   8.869   4.993  0.3675 -1.3865 -1.1135
 9043SOL     OW33037   4.395   8.520   5.450 -0.1950 -0.0216 -0.1898
 9043SOL    HW133038   4.354   8.429   5.446 -0.2325 -0.0510  0.8451
 9043SOL    HW233039   4.461   8.529   5.375 -1.6881 -0.1476 -1.5606
 9044SOL     OW33040   8.361   5.368   3.424  0.0126 -0.1290  0.8607
 9044SOL    HW133041   8.391   5.443   3.483 -1.7086 -1.1512  3.1468
 9044SOL    HW233042   8.276   5.394   3.378 -0.4174 -0.5476  1.4115
 9045SOL     OW33043   7.392   0.230   5.156  0.0932  0.2392  0.2384
 9045SOL    HW133044   7.320   0.194   5.097 -0.3312 -1.4684  1.7372
 9045SOL    HW233045   7.406   0.168   5.233  3.5511  0.2629 -0.2945
 9046SOL     OW33046   3.915   6.732   3.790 -0.3917  0.3326  0.8279
 9046SOL    HW133047   3.891   6.806   3.853  1.0969  1.6148 -0.0766
 9046SOL    HW233048   3.995   6.759   3.736  0.0289 -1.8541  0.3294
 9047SOL     OW33049   2.468   3.685   4.210 -0.4939  0.0010  0.2032
 9047SOL    HW133050   2.496   3.639   4.294 -0.3089 -0.5980 -0.1833
 9047SOL    HW233051   2.386   3.740   4.228  0.4781  1.1439  1.1462
 9048SOL     OW33052   2.020   4.442   2.533  0.1879  0.5417  0.0279
 9048SOL    HW133053   1.975   4.522   2.494 -0.1513  0.4767  0.2735
 9048SOL    HW233054   2.004   4.363   2.474 -1.5224  0.1326  0.9824
 9049SOL     OW33055   6.820   9.609   1.402  0.2773 -1.3260  0.6333
 9049SOL    HW133056   6.834   9.536   1.470 -0.2482 -0.5391  1.5933
 9049SOL    HW233057   6.735   9.657   1.422  1.1097  0.2000  0.5871
 9050SOL     OW33058   7.453   7.342   0.083 -0.3932 -0.1417  0.3957
 9050SOL    HW133059   7.373   7.403   0.092  1.4595  2.1854  1.9379
 9050SOL    HW233060   7.455   7.303  -0.009 -1.6083  2.2153 -0.6852
 9051SOL     OW33061   1.909   9.772   4.795  0.1081  0.3069  0.4647
 9051SOL    HW133062   1.816   9.757   4.828 -0.1266 -0.9015 -0.7166
 9051SOL    HW233063   1.971   9.709   4.840  0.5525  1.8268  2.0461
 9052SOL     OW33064   9.116   4.371   2.914  0.0630 -0.0508 -0.5575
 9052SOL    HW133065   9.114   4.335   3.007  1.1927 -0.9167 -0.8545
 9052SOL    HW233066   9.112   4.295   2.849  1.2053  0.4263 -1.1979
 9053SOL     OW33067   1.323   2.025   1.471 -0.1653  0.2106 -0.2651
 9053SOL    HW133068   1.369   2.114   1.482  1.9497 -0.6940 -1.5017
 9053SOL    HW233069   1.233   2.040   1.430  0.2264  1.7846 -0.6170
 9054SOL     OW33070   0.156   0.565   3.860  0.6656 -0.1482  0.3152
 9054SOL    HW133071   0.082   0.576   3.794  0.8388  0.8286  0.2726
 9054SOL    HW233072   0.214   0.646   3.859  1.1210 -0.4524  1.1147
 9056SOL     OW33073   7.845   6.234   1.448 -0.3345 -0.2583  0.2680
 9056SOL    HW133074   7.777   6.282   1.503 -0.9296 -0.1914 -0.5193
 9056SOL    HW233075   7.834   6.260   1.352  1.8642  1.0251  0.3322
 9057SOL     OW33076   2.335   2.701   2.535  0.4581 -0.3478  0.3166
 9057SOL    HW133077   2.249   2.664   2.499 -0.2660  2.3506 -0.8218
 9057SOL    HW233078   2.319   2.749   2.621  1.4745 -2.9196  2.0246
 9058SOL     OW33079   1.289   8.665   6.244 -0.3692 -0.3117  0.0509
 9058SOL    HW133080   1.241   8.627   6.324  0.8421  1.0351  1.4589
 9058SOL    HW233081   1.272   8.764   6.240  1.5590  0.0434  0.0765
 9059SOL     OW33082   4.324   3.689   0.465 -0.3227  0.5689  0.1197
 9059SOL    HW133083   4.364   3.605   0.503 -0.2548  0.3709 -0.3923
 9059SOL    HW233084   4.243   3.714   0.519 -0.2415  0.2723  0.3813
 9060SOL     OW33085   0.074   8.699   0.790  0.2024  0.0858  0.7676
 9060SOL    HW133086   0.123   8.639   0.726  0.6021  0.7010  0.4878
 9060SOL    HW233087  -0.012   8.729   0.748  0.1961  0.0364  0.7469
 9061SOL     OW33088   8.417   6.951   2.144  0.8867  0.1882 -0.1855
 9061SOL    HW133089   8.366   6.990   2.221  2.1595  0.6080  0.4538
 9061SOL    HW233090   8.439   6.856   2.163  1.3900  0.3557  0.0524
 9062SOL     OW33091   3.165   1.382   2.270 -0.6789 -0.4719  0.2900
 9062SOL    HW133092   3.199   1.382   2.176 -1.2033  0.5219  0.0914
 9062SOL    HW233093   3.071   1.348   2.272 -0.6621 -0.5087  0.4536
 9064SOL     OW33094   1.370   3.799   5.018  0.1418  0.5700  0.4385
 9064SOL    HW133095   1.296   3.731   5.025  0.2554  0.5212  1.1668
 9064SOL    HW233096   1.444   3.761   4.962 -0.0719  0.3367  0.3103
 9065SOL     OW33097   8.733   2.177   3.725 -0.4788  0.0842  0.0508
 9065SOL    HW133098   8.780   2.227   3.798  0.9292 -1.5351  0.2722
 9065SOL    HW233099   8.664   2.116   3.765  0.8971 -1.4597  0.1280
 9066SOL     OW33100   6.852   4.295   0.721 -0.6995 -0.1039  0.1056
 9066SOL    HW133101   6.812   4.347   0.797  1.8131  3.7358 -1.0958
 9066SOL    HW233102   6.790   4.295   0.644 -1.2915 -0.0548  0.5788
 9067SOL     OW33103   7.934   1.018   3.247 -0.2088  0.7982 -0.0000
 9067SOL    HW133104   7.880   0.934   3.246 -1.0729  1.3418 -0.1702
 9067SOL    HW233105   7.904   1.076   3.323 -0.6321  1.5883 -0.7561
 9069SOL     OW33106   1.596   9.135   6.067  0.0303 -0.0423 -0.7560
 9069SOL    HW133107   1.520   9.082   6.030  0.8864 -0.1174 -2.4545
 9069SOL    HW233108   1.677   9.077   6.073  0.1444  0.2208  0.4197
 9070SOL     OW33109   8.491   5.370   1.247  0.5924  0.6844  0.2594
 9070SOL    HW133110   8.547   5.294   1.280  2.0864  0.7161 -2.0396
 9070SOL    HW233111   8.546   5.454   1.247 -0.0149  1.0839 -0.3203
 9073SOL     OW33112   5.771   0.570   6.312 -0.2699  0.1157 -0.1583
 9073SOL    HW133113   5.699   0.611   6.369 -0.2506  1.7436 -1.2592
 9073SOL    HW233114   5.793   0.479   6.346 -5.2690 -1.8741 -1.7695
 9074SOL     OW33115   5.375   2.071   4.514 -0.1780  0.1274 -0.8003
 9074SOL    HW133116   5.387   1.977   4.547 -1.3291  0.6962  1.3610
 9074SOL    HW233117   5.283   2.082   4.478 -0.0025  0.4051 -1.1625
 9076SOL     OW33118   9.448   2.106   3.376  0.4837 -0.0337  0.0255
 9076SOL    HW133119   9.521   2.175   3.374 -1.3419  1.9462  0.3062
 9076SOL    HW233120   9.360   2.151   3.390 -0.7897 -2.4183 -0.1139
 9078SOL     OW33121   2.023   1.346   4.134  0.0744 -0.6055 -0.0410
 9078SOL    HW133122   1.994   1.296   4.052  1.7396 -0.6193 -0.6488
 9078SOL    HW233123   2.028   1.284   4.211 -1.5380 -0.5880  0.0892
 9079SOL     OW33124   0.876   0.804   1.484  0.4259 -0.2950 -0.1591
 9079SOL    HW133125   0.962   0.830   1.440  1.0543 -1.4573  0.3645
 9079SOL    HW233126   0.814   0.767   1.416 -0.7483  3.1426 -1.0522
 9080SOL     OW33127   5.579   1.316   5.838  0.7054  0.1281  0.2394
 9080SOL    HW133128   5.564   1.217   5.846 -2.1176  0.5687  0.7830
 9080SOL    HW233129   5.559   1.345   5.745  1.3098  0.2393  0.1412
 9081SOL     OW33130   8.505   1.419   6.447 -0.2423  0.1120 -0.1085
 9081SOL    HW133131   8.415   1.460   6.460 -0.5348 -0.3547 -0.6383
 9081SOL    HW233132   8.556   1.422   6.533 -0.4767  1.0691 -0.0041
 9082SOL     OW33133   7.938   2.907   2.193 -0.0926 -0.2493 -0.2794
 9082SOL    HW133134   7.892   2.931   2.108 -0.0097 -1.9229 -0.8306
 9082SOL    HW233135   7.872   2.909   2.268 -0.6420 -0.7617 -0.7386
 9083SOL     OW33136   0.983   0.544   0.030  0.6492  0.0397  0.2716
 9083SOL    HW133137   0.896   0.509   0.066  0.5081  0.8049  0.6906
 9083SOL    HW233138   1.014   0.620   0.087  1.6696 -0.3239  0.2045
 9084SOL     OW33139   3.767   9.781   1.669 -0.0703 -0.0402  0.5097
 9084SOL    HW133140   3.717   9.777   1.756  1.3054 -3.0613  1.2182
 9084SOL    HW233141   3.716   9.731   1.600 -1.1083  2.2721 -0.4831
 9085SOL     OW33142   2.706   7.763   5.384  0.3641 -0.2100 -0.1098
 9085SOL    HW133143   2.728   7.668   5.403  0.4676 -0.5800 -1.9449
 9085SOL    HW233144   2.661   7.770   5.294 -0.6558  1.3361  0.4937
 9086SOL     OW33145   5.621   5.968   0.839  0.3919  0.1930 -0.2423
 9086SOL    HW133146   5.577   5.878   0.846  0.4038  0.3610  2.4767
 9086SOL    HW233147   5.569   6.026   0.776 -1.3474 -0.7385  0.3125
 9087SOL     OW33148   7.136   3.775   6.054  0.1596 -0.2805 -0.2086
 9087SOL    HW133149   7.173   3.799   5.964 -0.4788 -0.0985 -0.4210
 9087SOL    HW233150   7.037   3.780   6.052  0.1388 -0.3855  0.4808
 9089SOL     OW33151   8.424   2.296   0.464 -0.5119 -0.0401 -0.1862
 9089SOL    HW133152   8.344   2.355   0.454 -1.5343 -1.4736 -0.7343
 9089SOL    HW233153   8.478   2.324   0.543 -0.4903  2.1603 -0.9475
 9091SOL     OW33154   9.192   8.332   5.094  0.4193  0.2831 -0.2164
 9091SOL    HW133155   9.180   8.305   5.189  0.9623 -2.4851 -0.9052
 9091SOL    HW233156   9.103   8.342   5.050  0.1732  1.4159  0.5001
 9092SOL     OW33157   8.664   7.650   2.498 -0.0461  0.3233  0.1384
 9092SOL    HW133158   8.568   7.664   2.523  0.3872 -0.3757  2.2597
 9092SOL    HW233159   8.669   7.587   2.420 -1.2481 -0.4567  0.6788
 9093SOL     OW33160   9.062   2.459   3.774 -0.7482  0.4224 -0.3727
 9093SOL    HW133161   9.045   2.391   3.844 -1.9451 -2.0707 -2.9840
 9093SOL    HW233162   8.976   2.490   3.734 -0.1569  2.6026 -0.0619
 9094SOL     OW33163   9.560   3.210   3.847  0.3463 -0.1421  0.1349
 9094SOL    HW133164   9.618   3.238   3.770 -0.7961 -0.3136 -0.8190
 9094SOL    HW233165   9.595   3.126   3.887  0.7392 -0.2592 -0.4455
 9095SOL     OW33166   5.815   0.408   1.153  0.5376 -0.2270  0.0740
 9095SOL    HW133167   5.897   0.358   1.128  0.4421 -0.7403  0.7646
 9095SOL    HW233168   5.809   0.492   1.099  2.0489  0.3271  0.7420
 9098SOL     OW33169   9.880   3.359   1.338 -0.5095 -0.1587 -0.2478
 9098SOL    HW133170   9.830   3.387   1.420 -1.5785 -0.2854 -0.8600
 9098SOL    HW233171   9.833   3.393   1.257  1.4671  1.4541 -0.7584
 9099SOL     OW33172   1.592   6.396   1.861  0.3055  0.4485 -0.2516
 9099SOL    HW133173   1.671   6.451   1.887  0.9823 -1.0656  1.0014
 9099SOL    HW233174   1.524   6.399   1.933  1.9038 -3.2303  1.5803
 9101SOL     OW33175   8.544   2.753   4.010  0.5356  0.2514 -0.0084
 9101SOL    HW133176   8.545   2.843   3.966 -1.3418  0.7154  0.8462
 9101SOL    HW233177   8.554   2.765   4.109 -1.1620 -0.3814  0.2458
 9102SOL     OW33178   8.364   0.661   3.427  0.9334 -0.2778 -0.0964
 9102SOL    HW133179   8.400   0.736   3.371  0.2008  0.4998  0.4687
 9102SOL    HW233180   8.419   0.652   3.510  1.4488 -0.8253 -0.4940
 9103SOL     OW33181   0.151   1.097   2.985  0.2261 -0.0566 -0.2548
 9103SOL    HW133182   0.054   1.118   2.975  0.1611  0.6035  1.6069
 9103SOL    HW233183   0.164   1.043   3.068  1.4323 -0.2517 -0.5738
 9105SOL     OW33184   1.478   2.768   5.502  0.1319 -0.1859 -0.8665
 9105SOL    HW133185   1.556   2.807   5.550  0.2305 -1.2828 -0.1063
 9105SOL    HW233186   1.503   2.681   5.461 -0.6791 -0.5521 -0.6124
 9106SOL     OW33187   1.917   7.934   4.037 -0.0203 -0.4185 -0.1532
 9106SOL    HW133188   1.997   7.947   3.979 -0.5612  1.1117 -0.5880
 9106SOL    HW233189   1.836   7.970   3.990 -0.7302 -0.6671  0.8689
 9107SOL     OW33190   3.513   6.114   1.711 -0.2705 -0.2285  0.1574
 9107SOL    HW133191   3.446   6.186   1.693 -0.8441 -0.6727  0.4996
 9107SOL    HW233192   3.567   6.138   1.792 -0.2921 -0.0708  0.1255
 9108SOL     OW33193   1.991   1.279   2.024 -0.1431  0.2258  0.4255
 9108SOL    HW133194   1.934   1.210   2.067 -0.5177  0.2419 -0.0372
 9108SOL    HW233195   1.968   1.286   1.927 -0.7694  1.6626  0.6531
 9109SOL     OW33196   3.519   4.572   5.922  0.0143  0.1984  0.0691
 9109SOL    HW133197   3.452   4.503   5.895  0.2989 -0.6830  1.6006
 9109SOL    HW233198   3.474   4.641   5.979  0.2528  0.0346  0.4491
 9110SOL     OW33199   1.203   5.402   3.690  0.6922  0.1871  0.3746
 9110SOL    HW133200   1.294   5.360   3.688  0.4396 -0.4752  2.1104
 9110SOL    HW233201   1.212   5.500   3.703  1.1904  0.3396 -0.9566
 9111SOL     OW33202   2.921   4.058   4.675 -0.2387  0.8920 -0.1917
 9111SOL    HW133203   2.997   4.043   4.738 -0.3868 -2.2916 -0.6786
 9111SOL    HW233204   2.954   4.051   4.581 -1.5135 -3.3180 -0.4251
 9113SOL     OW33205   3.634   5.988   5.717 -0.3908 -0.4815 -0.3030
 9113SOL    HW133206   3.699   6.053   5.679  2.0831 -2.3619  0.6008
 9113SOL    HW233207   3.553   6.037   5.750  0.6284  1.9040 -1.2747
 9115SOL     OW33208   4.648   7.670   5.446 -0.4175  0.6870  0.5139
 9115SOL    HW133209   4.564   7.688   5.496 -0.3963 -1.2065  1.2745
 9115SOL    HW233210   4.672   7.573   5.455  1.6065  1.1162 -0.0629
 9116SOL     OW33211   3.882   5.807   2.390 -0.1474  0.2027  0.0273
 9116SOL    HW133212   3.800   5.751   2.378  0.8134 -1.0991 -0.6492
 9116SOL    HW233213   3.860   5.886   2.446 -1.3233 -1.3364  1.8020
 9117SOL     OW33214   5.410   9.971   3.561  0.1963 -0.1412 -0.5647
 9117SOL    HW133215   5.469  10.048   3.587  0.6535 -0.0290 -1.8919
 9117SOL    HW233216   5.394   9.913   3.641 -0.7423  1.7111  0.6318
 9119SOL     OW33217   9.587   9.525   5.738  0.1867 -0.1768 -0.1638
 9119SOL    HW133218   9.618   9.607   5.785  0.6795  0.0254 -0.8355
 9119SOL    HW233219   9.556   9.457   5.805  0.3021  0.3424  0.4136
 9121SOL     OW33220   2.495   7.283   3.643 -0.3184 -0.6887  0.1707
 9121SOL    HW133221   2.474   7.376   3.611 -0.1776 -0.4858  0.6574
 9121SOL    HW233222   2.588   7.259   3.618 -1.2259 -1.7334 -2.3297
 9122SOL     OW33223   5.291   1.365   4.954  0.0471  0.1380  0.0728
 9122SOL    HW133224   5.301   1.464   4.940 -1.3815  0.3453  0.4440
 9122SOL    HW233225   5.261   1.322   4.869  1.4765 -0.1127 -0.3233
 9123SOL     OW33226   3.022   3.202   1.771  0.8497 -0.0470  0.1490
 9123SOL    HW133227   3.004   3.255   1.854  1.3525 -0.0290  0.2495
 9123SOL    HW233228   2.969   3.117   1.773  0.2136  0.3431  0.0920
 9124SOL     OW33229   4.139   2.107   0.304 -0.5000 -0.1479  0.3488
 9124SOL    HW133230   4.069   2.148   0.244  0.1656 -0.2993 -0.5349
 9124SOL    HW233231   4.118   2.010   0.318 -0.7836 -0.0584  0.5461
 9125SOL     OW33232   3.815   9.942   3.791  0.2640 -0.2811 -0.9026
 9125SOL    HW133233   3.881   9.910   3.723  0.1405 -1.6427 -0.3932
 9125SOL    HW233234   3.766  10.021   3.754  1.7251  0.3699 -1.5334
 9127SOL     OW33235   4.740   2.766   4.993  0.2551  0.6155 -0.0276
 9127SOL    HW133236   4.834   2.733   5.003  0.6613  1.7857  0.1081
 9127SOL    HW233237   4.739   2.847   4.935 -0.7718  0.1660 -0.6451
 9128SOL     OW33238   9.902   2.598   2.039 -0.0147  0.1952  0.0989
 9128SOL    HW133239   9.861   2.598   1.948  1.1844 -0.4685 -0.4555
 9128SOL    HW233240   9.966   2.522   2.047  0.1012  0.4097  1.4088
 9129SOL     OW33241   9.403   5.256   5.681  0.0669 -0.6041 -0.1833
 9129SOL    HW133242   9.394   5.172   5.735 -1.0119 -1.0263 -0.9931
 9129SOL    HW233243   9.426   5.233   5.587  0.0106  0.0136 -0.3480
 9130SOL     OW33244   8.249   4.618   3.859 -0.1596 -0.2185 -0.4491
 9130SOL    HW133245   8.194   4.556   3.803 -0.3177 -1.5081  1.0882
 9130SOL    HW233246   8.277   4.570   3.942 -1.6854  2.2799  1.5791
 9131SOL     OW33247   3.616   7.792   4.024 -0.3179 -0.5638 -0.6362
 9131SOL    HW133248   3.668   7.707   4.035  1.3709 -0.0508 -3.9235
 9131SOL    HW233249   3.678   7.870   4.033 -1.6123  0.2950  1.0516
 9132SOL     OW33250   3.538   0.404   1.468  0.4795  0.5280 -0.1280
 9132SOL    HW133251   3.502   0.475   1.408 -1.7081  2.0506  2.8465
 9132SOL    HW233252   3.468   0.334   1.482  0.9584  0.2100  0.7010
 9133SOL     OW33253   2.951   8.784   5.100 -0.3039  0.9636  0.0735
 9133SOL    HW133254   3.021   8.777   5.170  1.3247 -0.4238 -1.6174
 9133SOL    HW233255   2.863   8.809   5.141  0.6621  0.3691  2.5376
 9134SOL     OW33256   9.449   2.159   3.673 -0.5173 -0.1159  0.0847
 9134SOL    HW133257   9.464   2.249   3.631  0.2081 -0.2039  0.1423
 9134SOL    HW233258   9.524   2.098   3.647  0.0299 -0.1271  1.6270
 9135SOL     OW33259   3.980   3.037   6.266  0.7182  0.0048  0.0670
 9135SOL    HW133260   4.072   3.076   6.261  0.4636  0.6900  0.5336
 9135SOL    HW233261   3.919   3.088   6.204  0.8429 -1.0158 -0.9112
 9137SOL     OW33262   6.198   1.212   1.678 -0.1096  0.2767 -0.6768
 9137SOL    HW133263   6.134   1.283   1.708 -1.3993 -0.0259 -2.6033
 9137SOL    HW233264   6.209   1.144   1.750 -1.1796  0.8852  0.0720
 9138SOL     OW33265   0.842   4.419   1.070  0.2949 -0.6135  0.2197
 9138SOL    HW133266   0.750   4.457   1.075  0.5255  0.0486 -0.3843
 9138SOL    HW233267   0.851   4.365   0.986  0.0408 -1.8141  0.9619
 9139SOL     OW33268   1.264   0.504   6.216  0.3222  0.2899  0.4645
 9139SOL    HW133269   1.286   0.431   6.151  1.3681  1.2344 -0.2726
 9139SOL    HW233270   1.349   0.548   6.247 -0.1965  0.1294  2.1550
 9141SOL     OW33271   8.800   9.169   3.180  0.0816  0.2521  0.1123
 9141SOL    HW133272   8.781   9.222   3.098  2.7551 -0.6888 -1.1830
 9141SOL    HW233273   8.833   9.230   3.252  0.0964  0.7518 -0.3163
 9142SOL     OW33274   9.035   5.367   2.112  0.7033  0.0976  0.2559
 9142SOL    HW133275   9.130   5.350   2.141  0.9397  0.8130 -0.0889
 9142SOL    HW233276   8.981   5.396   2.191  0.8471 -0.0001  0.3898
 9144SOL     OW33277   0.792   8.635   6.444  0.1055  0.2163  0.3313
 9144SOL    HW133278   0.701   8.673   6.432 -0.4276  0.4263  4.5368
 9144SOL    HW233279   0.857   8.686   6.387 -2.1932  0.5411 -2.1410
 9145SOL     OW33280   3.394   6.533   3.867  0.0775  0.2142 -0.1265
 9145SOL    HW133281   3.438   6.527   3.957  0.8881  0.8598 -0.4755
 9145SOL    HW233282   3.295   6.528   3.878  0.0553  2.5023  1.0205
 9146SOL     OW33283   0.426   3.844   2.144 -0.2643 -0.7992  0.2725
 9146SOL    HW133284   0.419   3.936   2.105 -2.1021 -0.9231  0.2792
 9146SOL    HW233285   0.457   3.781   2.073  0.4729 -0.2822  0.1246
 9147SOL     OW33286   2.293   7.383   5.816 -0.2421 -0.1225  0.1367
 9147SOL    HW133287   2.294   7.374   5.716 -3.0559 -0.7266  0.1261
 9147SOL    HW233288   2.363   7.323   5.855 -0.7331 -1.7398 -1.3742
 9148SOL     OW33289   1.691   5.825   2.234 -0.0416  0.4420 -0.5674
 9148SOL    HW133290   1.757   5.759   2.199  0.2949 -0.2599  1.3144
 9148SOL    HW233291   1.737   5.888   2.297 -0.3550  2.5123 -2.3522
 9149SOL     OW33292   3.816   8.255   6.218  0.3687 -0.0398  0.1653
 9149SOL    HW133293   3.751   8.193   6.174  0.9500  0.2923 -1.1648
 9149SOL    HW233294   3.813   8.344   6.174  1.3252  0.1491  0.4678
 9151SOL     OW33295   3.777   8.569   1.443 -0.1840 -0.4893 -0.2829
 9151SOL    HW133296   3.778   8.643   1.377  3.5675  0.2335  0.4680
 9151SOL    HW233297   3.841   8.498   1.415  0.1076 -1.0206  1.6371
 9152SOL     OW33298   8.432   9.510   5.614 -0.1951 -0.0443 -0.2217
 9152SOL    HW133299   8.379   9.442   5.564 -0.9600  1.1129 -1.0070
 9152SOL    HW233300   8.499   9.552   5.553  1.5225 -1.3658  0.7163
 9153SOL     OW33301   1.371   9.732   5.158  0.9039 -0.5881 -0.9130
 9153SOL    HW133302   1.423   9.817   5.147  0.6203 -0.5551 -1.9743
 9153SOL    HW233303   1.433   9.654   5.152  1.2163 -0.4577  0.3854
 9154SOL     OW33304   8.015   4.872   0.382 -0.4550  0.2322  0.2835
 9154SOL    HW133305   8.093   4.932   0.399  0.3074 -0.4488 -0.7734
 9154SOL    HW233306   7.954   4.873   0.462  1.0113  0.1715  1.4254
 9155SOL     OW33307   0.809   7.925   3.251 -0.0821 -0.0525 -0.5999
 9155SOL    HW133308   0.771   8.015   3.271 -0.2899 -0.0026 -1.2214
 9155SOL    HW233309   0.850   7.925   3.160  0.3179 -0.4561 -0.4204
 9156SOL     OW33310   1.490   8.341   5.645  0.2201  0.4111 -0.3015
 9156SOL    HW133311   1.496   8.255   5.697  0.1170  0.4969 -0.1476
 9156SOL    HW233312   1.400   8.347   5.602 -0.7605  1.7062  1.8870
 9157SOL     OW33313   2.113   3.178   1.861  0.3238  0.1264 -0.4140
 9157SOL    HW133314   2.161   3.259   1.895 -0.3149 -1.0453  3.5614
 9157SOL    HW233315   2.026   3.206   1.820 -0.1070  1.4794  1.3285
 9158SOL     OW33316   2.912   9.456   2.155 -0.3267 -0.0128 -0.2949
 9158SOL    HW133317   2.937   9.549   2.128  0.3212 -0.2923 -0.6617
 9158SOL    HW233318   2.943   9.391   2.086 -2.2400 -0.3555 -0.8392
 9159SOL     OW33319   8.536   2.110   4.877  0.3860 -0.9307 -0.7011
 9159SOL    HW133320   8.524   2.160   4.963 -1.3097 -1.0060 -0.8767
 9159SOL    HW233321   8.599   2.034   4.892  2.0189  0.5142 -0.1333
 9160SOL     OW33322   2.905   6.913   4.859  1.0967 -0.4290 -0.2646
 9160SOL    HW133323   2.952   6.936   4.774  0.3846 -0.9952 -0.8146
 9160SOL    HW233324   2.818   6.868   4.839  0.1766  0.8599  0.7473
 9161SOL     OW33325   7.313   2.667   1.854 -0.4546 -0.1469  0.0816
 9161SOL    HW133326   7.314   2.575   1.894 -0.4815 -0.6025 -0.9391
 9161SOL    HW233327   7.348   2.662   1.760 -1.0597  0.7807 -0.1919
 9162SOL     OW33328   7.562   1.989   4.075  0.1458  0.2251  0.5750
 9162SOL    HW133329   7.655   2.027   4.068  0.8016 -1.4497  0.0662
 9162SOL    HW233330   7.567   1.891   4.091 -1.5488  0.3610  2.1136
 9163SOL     OW33331   1.696   1.876   4.525 -0.5423 -0.3202  0.1135
 9163SOL    HW133332   1.721   1.971   4.547  1.0107 -0.6916  0.0471
 9163SOL    HW233333   1.661   1.872   4.432  0.6555  0.0009 -0.3668
 9164SOL     OW33334   4.514   0.378   2.686 -0.2128 -0.0321 -0.7916
 9164SOL    HW133335   4.577   0.433   2.741 -0.3799 -1.0597  0.4458
 9164SOL    HW233336   4.551   0.369   2.593  1.3646 -0.4261 -0.1465
 9165SOL     OW33337   7.950   2.562   1.465 -0.1853 -0.0948  0.1911
 9165SOL    HW133338   7.939   2.641   1.525 -0.0223 -0.2313  0.3986
 9165SOL    HW233339   7.939   2.591   1.370 -0.5071  0.1081  0.2904
 9166SOL     OW33340   4.183   1.238   5.291  0.2064 -0.3330  0.3158
 9166SOL    HW133341   4.180   1.295   5.209 -0.5256 -2.1444 -0.9249
 9166SOL    HW233342   4.105   1.261   5.350 -0.5310 -0.6077 -0.5492
 9167SOL     OW33343   0.762   5.628   2.029  0.6760 -0.1930  0.5264
 9167SOL    HW133344   0.707   5.595   1.952 -0.4916  2.4095  0.2132
 9167SOL    HW233345   0.737   5.577   2.111  0.3788 -1.4841 -0.3329
 9168SOL     OW33346   2.425   5.287   2.983  0.3650  0.3358  0.7039
 9168SOL    HW133347   2.412   5.281   3.082 -1.1753  0.9692  0.5530
 9168SOL    HW233348   2.385   5.372   2.949 -1.0135 -0.8794 -0.7616
 9169SOL     OW33349   8.297   9.131   1.031  0.0391  0.0009  0.1378
 9169SOL    HW133350   8.251   9.202   1.083  0.0796  0.2330 -0.1429
 9169SOL    HW233351   8.228   9.068   0.993 -0.0885  0.7037 -0.8033
 9170SOL     OW33352   0.173   0.913   5.365  0.8000  0.4722  0.1046
 9170SOL    HW133353   0.157   1.012   5.369 -0.0185  0.4001 -1.0587
 9170SOL    HW233354   0.100   0.870   5.313  0.8093 -0.8392  1.1605
 9171SOL     OW33355   1.223   1.737   1.387  0.0472 -0.0744  0.0596
 9171SOL    HW133356   1.246   1.673   1.460  0.7538  0.1664  0.0547
 9171SOL    HW233357   1.252   1.829   1.413 -1.5645  0.3667  0.3551
 9172SOL     OW33358   2.138   9.336   1.979  0.6562 -0.4317 -0.2672
 9172SOL    HW133359   2.148   9.248   2.025  0.1785  0.5889  1.8484
 9172SOL    HW233360   2.067   9.329   1.909  1.0891 -1.8889 -0.5755
 9173SOL     OW33361   3.585   2.409   4.157 -0.0459  0.5386  0.0762
 9173SOL    HW133362   3.508   2.406   4.221  0.2847 -0.2704  0.4520
 9173SOL    HW233363   3.667   2.372   4.202 -0.2124 -1.5975 -1.3242
 9174SOL     OW33364   5.215   8.649   5.173 -0.1932  0.3175  0.4305
 9174SOL    HW133365   5.140   8.616   5.116 -0.9176 -1.2193  2.2071
 9174SOL    HW233366   5.204   8.747   5.190 -1.9090  0.0648  0.8257
 9176SOL     OW33367   1.507   9.068   2.919 -0.4094  0.4362  0.6137
 9176SOL    HW133368   1.595   9.025   2.902 -0.1730  1.4836 -0.8862
 9176SOL    HW233369   1.509   9.113   3.009  0.7832  0.9405  0.3469
 9177SOL     OW33370   8.977   7.229   1.740 -0.3571  0.7589  0.0889
 9177SOL    HW133371   8.888   7.188   1.720  1.0008 -0.9544 -2.7917
 9177SOL    HW233372   9.046   7.157   1.744  1.2124  2.2684  0.3701
 9178SOL     OW33373   1.905   1.533   0.630  0.5203 -0.1774 -0.4243
 9178SOL    HW133374   1.940   1.502   0.719  1.6866 -0.2445 -0.8998
 9178SOL    HW233375   1.860   1.622   0.641  2.0676  0.5657 -0.0472
 9179SOL     OW33376   2.536   5.474   3.318  0.5987 -0.3339 -0.5202
 9179SOL    HW133377   2.489   5.562   3.326  0.2868 -0.3268 -2.3680
 9179SOL    HW233378   2.476   5.407   3.275  1.2176 -1.1526 -0.1169
 9181SOL     OW33379   9.995   2.384   0.069  0.4176  0.1344 -0.3110
 9181SOL    HW133380  10.021   2.447   0.142 -3.4974  1.1998  0.3093
 9181SOL    HW233381   9.991   2.433  -0.018 -0.2358  0.1666 -0.2640
 9184SOL     OW33382   1.844   5.890   3.924  0.6301  0.2944 -0.6846
 9184SOL    HW133383   1.931   5.869   3.969  0.4320  0.3029 -0.2970
 9184SOL    HW233384   1.797   5.804   3.903 -0.0466  0.3372  0.6383
 9185SOL     OW33385   3.955   1.139   1.759  0.4868 -0.5143 -0.2750
 9185SOL    HW133386   4.021   1.171   1.691 -0.1979  0.3570 -0.5328
 9185SOL    HW233387   3.876   1.098   1.712  0.7174 -1.3214  0.0283
 9186SOL     OW33388   0.864   2.860   3.009  0.0428 -0.3328  0.2578
 9186SOL    HW133389   0.824   2.896   2.925  1.1038 -0.2314 -0.2111
 9186SOL    HW233390   0.904   2.770   2.991 -1.2137 -1.0691  1.0568
 9188SOL     OW33391   9.898   2.649   2.442  0.5127  0.5801 -0.0346
 9188SOL    HW133392   9.969   2.663   2.373  0.2013 -0.8208 -0.6423
 9188SOL    HW233393   9.825   2.592   2.405 -0.0473  0.4797  1.1881
 9189SOL     OW33394   9.070   4.501   6.366 -0.3177  0.1137  1.0974
 9189SOL    HW133395   9.100   4.557   6.443  0.3003 -0.3155  1.1696
 9189SOL    HW233396   9.032   4.414   6.400 -0.8616  0.2939  0.9619
 9190SOL     OW33397   9.699   2.709   5.379 -0.2197 -0.0335 -0.4988
 9190SOL    HW133398   9.703   2.766   5.461  0.2450 -1.4520  0.4856
 9190SOL    HW233399   9.616   2.653   5.380 -0.4124  0.2304 -1.1921
 9191SOL     OW33400   2.063   6.656   0.448 -0.9844  0.3557 -0.3951
 9191SOL    HW133401   1.995   6.692   0.384 -1.7169 -1.7232 -0.8352
 9191SOL    HW233402   2.117   6.584   0.403 -0.2650  0.1533  0.7517
 9192SOL     OW33403   5.082   9.940   4.373  0.3562  0.3409  0.4558
 9192SOL    HW133404   5.059  10.013   4.437  0.0074 -0.4421  1.2293
 9192SOL    HW233405   5.164   9.892   4.406 -0.0826 -0.3470  0.5430
 9193SOL     OW33406   5.537   9.728   1.561 -0.0179  0.6230  0.0212
 9193SOL    HW133407   5.539   9.788   1.481  0.4023  1.1476  0.4218
 9193SOL    HW233408   5.496   9.777   1.639 -0.0779  0.2445  0.2267
 9194SOL     OW33409   2.636   7.525   3.884  0.4393 -0.5716  0.2732
 9194SOL    HW133410   2.591   7.525   3.795  0.6628 -3.6305  0.1019
 9194SOL    HW233411   2.602   7.601   3.940 -1.1687  0.1653 -1.6710
 9195SOL     OW33412   7.355   4.552   0.312 -0.5297 -0.0571 -0.3167
 9195SOL    HW133413   7.280   4.572   0.249 -1.2396 -1.9005 -0.0982
 9195SOL    HW233414   7.435   4.520   0.261 -0.5014  0.1854 -0.4211
 9197SOL     OW33415   6.322   1.873   0.555 -0.4318 -0.0250  0.2270
 9197SOL    HW133416   6.267   1.815   0.494 -0.5433  1.0587 -0.7065
 9197SOL    HW233417   6.273   1.959   0.573  0.7255  0.7262 -0.1776
 9198SOL     OW33418   0.618   3.295   1.979  0.4872  0.9631  0.2411
 9198SOL    HW133419   0.640   3.324   1.886  1.2289 -0.1283  0.0696
 9198SOL    HW233420   0.618   3.195   1.983  1.0151  1.0103  1.5497
 9200SOL     OW33421   9.631   1.016   5.193  0.3886  0.0405 -0.0649
 9200SOL    HW133422   9.693   0.993   5.268 -1.5805  1.4000  2.0721
 9200SOL    HW233423   9.677   1.077   5.128  1.8714 -0.5082  0.4615
 9201SOL     OW33424   0.063   5.105   1.640  0.2342  0.3421  0.6453
 9201SOL    HW133425  -0.003   5.041   1.680  0.1170  0.2233  0.2595
 9201SOL    HW233426   0.029   5.138   1.552  0.1713  1.1427  0.9664
 9202SOL     OW33427   0.450   7.304   5.845  0.1234 -0.4209  0.3542
 9202SOL    HW133428   0.454   7.220   5.790 -1.4741 -0.6151  0.5245
 9202SOL    HW233429   0.395   7.372   5.798  1.9214  0.7851 -0.0736
 9203SOL     OW33430   2.563   3.558   4.834 -0.0951 -0.2890 -0.2394
 9203SOL    HW133431   2.607   3.540   4.745 -0.8967  2.2378 -1.1901
 9203SOL    HW233432   2.464   3.551   4.824 -0.2204  0.7373  0.2891
 9204SOL     OW33433   1.185   6.204   4.987  0.4981  0.0881 -0.0030
 9204SOL    HW133434   1.091   6.172   4.984  0.3542  0.4863  0.2836
 9204SOL    HW233435   1.247   6.128   4.963  0.2178 -0.6813  1.6200
 9205SOL     OW33436   2.739   5.301   3.351  0.2171 -0.6327 -0.2394
 9205SOL    HW133437   2.785   5.323   3.265  1.9626  2.4914  1.4318
 9205SOL    HW233438   2.666   5.367   3.368  0.2846 -0.8609  0.9936
 9206SOL     OW33439   6.615   9.748   4.133  0.1962 -0.4665 -0.1768
 9206SOL    HW133440   6.640   9.776   4.226  1.0070  0.5206 -0.6804
 9206SOL    HW233441   6.682   9.783   4.068 -0.9837 -0.1664 -1.2632
 9207SOL     OW33442   0.532   9.246   5.002 -0.0315 -0.0019 -0.1106
 9207SOL    HW133443   0.480   9.281   5.079 -0.3112 -1.5247  0.3974
 9207SOL    HW233444   0.623   9.288   5.001 -0.5261  1.0824  0.2166
 9209SOL     OW33445   8.422   6.193   5.501  0.4894 -0.2520  0.3506
 9209SOL    HW133446   8.470   6.238   5.426  0.3359 -0.8473 -0.1065
 9209SOL    HW233447   8.380   6.108   5.469 -1.1778  0.4341  0.6695
 9210SOL     OW33448   5.482   0.789   1.802  0.0837  0.1218  0.6638
 9210SOL    HW133449   5.473   0.749   1.894  0.8977  1.9651  1.5655
 9210SOL    HW233450   5.494   0.888   1.810  0.3240  0.2744 -1.4421
 9211SOL     OW33451   1.987   2.896   0.757  0.2399  0.0361 -0.1509
 9211SOL    HW133452   1.995   2.861   0.664  0.4931 -1.4322  0.4181
 9211SOL    HW233453   1.895   2.932   0.771 -0.6678 -2.2695 -0.1052
 9213SOL     OW33454   5.233   7.793   5.264  0.6017 -0.2894 -0.3413
 9213SOL    HW133455   5.136   7.815   5.269  0.5469 -0.7908  0.9247
 9213SOL    HW233456   5.270   7.782   5.356  1.7410 -0.6330 -0.8256
 9214SOL     OW33457   8.238   5.795   2.714  0.0402 -0.8544 -0.8453
 9214SOL    HW133458   8.314   5.735   2.691 -0.1844 -1.8723  0.9983
 9214SOL    HW233459   8.191   5.761   2.796  0.5601  2.3672  0.8716
 9215SOL     OW33460   5.178   6.134   1.633 -0.1198 -0.4278  0.1831
 9215SOL    HW133461   5.230   6.114   1.716  1.1385 -0.7753 -0.6603
 9215SOL    HW233462   5.097   6.076   1.630 -0.2852 -0.2665  1.2620
 9216SOL     OW33463   0.088   9.667   5.842 -0.3442 -0.1194 -0.5503
 9216SOL    HW133464   0.031   9.592   5.876 -0.6476 -0.2120 -1.2535
 9216SOL    HW233465   0.045   9.754   5.864  0.6618 -0.0982  1.4435
 9218SOL     OW33466   3.173   5.959   2.318 -0.1755  0.2499 -0.0611
 9218SOL    HW133467   3.149   5.911   2.233 -1.3489 -0.4653  0.6642
 9218SOL    HW233468   3.097   6.018   2.346 -0.4411 -0.7401  1.3535
 9223SOL     OW33469   0.119   2.077   6.351  0.0118  0.0490 -0.1172
 9223SOL    HW133470   0.047   2.126   6.303  2.2460  1.8703 -1.7520
 9223SOL    HW233471   0.130   1.986   6.311 -1.1271 -0.1011 -0.0880
 9224SOL     OW33472   1.442   1.972   3.716 -0.8268  0.2268  0.5777
 9224SOL    HW133473   1.440   1.923   3.629 -3.1515 -0.7643  1.1447
 9224SOL    HW233474   1.404   2.063   3.704  0.3825  0.6931  0.2258
 9225SOL     OW33475   0.922   7.834   4.444 -0.7088 -0.2482 -0.7467
 9225SOL    HW133476   0.920   7.862   4.348  0.7288 -0.8660 -0.9775
 9225SOL    HW233477   0.981   7.754   4.453 -2.2309 -1.2605  0.3898
 9228SOL     OW33478   1.599   7.701   2.910 -0.3012 -0.3031  0.1190
 9228SOL    HW133479   1.647   7.748   2.836 -2.8305 -0.3280 -1.6065
 9228SOL    HW233480   1.536   7.766   2.954  0.3339 -0.6036  1.4765
 9229SOL     OW33481   4.378   1.371   4.937 -0.3145 -0.5155  0.0305
 9229SOL    HW133482   4.464   1.326   4.964 -1.1038 -2.2583 -0.2527
 9229SOL    HW233483   4.346   1.428   5.012  1.3913  0.6306 -0.0773
 9230SOL     OW33484   1.762   1.869   6.106  0.0418 -0.0633  0.7916
 9230SOL    HW133485   1.759   1.891   6.203 -2.3519  2.1513  0.2802
 9230SOL    HW233486   1.669   1.863   6.070  0.8886  0.8413 -1.7054
 9232SOL     OW33487   1.407   2.099   5.095 -0.0392  0.6048 -0.5918
 9232SOL    HW133488   1.462   2.051   5.163  0.3816  0.8475 -0.7591
 9232SOL    HW233489   1.426   2.060   5.004  1.4638  2.1031 -0.9420
 9233SOL     OW33490   9.040   2.106   6.197  0.2494 -0.0691  0.3177
 9233SOL    HW133491   8.988   2.101   6.112 -0.7324 -0.1535  0.9186
 9233SOL    HW233492   9.103   2.028   6.203 -2.1390 -1.9572  1.2797
 9234SOL     OW33493   8.047   3.549   1.632  0.6586  0.3678 -0.0565
 9234SOL    HW133494   7.983   3.550   1.709 -0.7159  0.5800 -1.1604
 9234SOL    HW233495   8.091   3.459   1.626  0.2966  0.1420  0.5787
 9235SOL     OW33496   0.945   6.899   3.326 -0.2977 -0.5519 -0.4877
 9235SOL    HW133497   0.890   6.910   3.409 -0.2709  1.0916 -0.6737
 9235SOL    HW233498   0.888   6.863   3.252 -1.0578  0.7802 -0.5702
 9238SOL     OW33499   2.373   1.857   2.881  0.2204 -0.3613 -0.3417
 9238SOL    HW133500   2.356   1.760   2.897  1.6856 -0.4169  1.0565
 9238SOL    HW233501   2.353   1.879   2.786  1.5249 -2.3987 -1.1195
 9239SOL     OW33502   7.866   0.833   4.067  0.5226  0.3311 -0.3570
 9239SOL    HW133503   7.866   0.743   4.024  3.3046 -0.0786  0.4172
 9239SOL    HW233504   7.896   0.902   4.001  0.4806  0.3722 -0.3335
 9240SOL     OW33505   9.062   7.627   3.739  0.2767 -0.2409  0.5266
 9240SOL    HW133506   9.004   7.708   3.739 -0.1480 -0.4886  3.8237
 9240SOL    HW233507   9.132   7.636   3.667 -0.3931  2.5605  0.1784
 9241SOL     OW33508   9.401   1.940   5.193 -0.4477 -0.1282  0.0261
 9241SOL    HW133509   9.447   1.940   5.104 -0.7168 -1.1969 -0.1221
 9241SOL    HW233510   9.469   1.933   5.266 -0.2453  0.4492 -0.1009
 9244SOL     OW33511   8.581   2.389   4.732  0.2224 -0.3069  0.5285
 9244SOL    HW133512   8.495   2.406   4.779  0.0745 -0.7928  0.4378
 9244SOL    HW233513   8.656   2.390   4.799  0.2326  0.7496  0.5138
 9245SOL     OW33514   7.722   8.403   2.448 -0.5713  0.0158 -0.3260
 9245SOL    HW133515   7.783   8.417   2.526 -0.8664  0.5930 -0.1945
 9245SOL    HW233516   7.751   8.323   2.396 -1.4830 -1.5001  1.4530
 9246SOL     OW33517   9.610   8.049   2.772 -0.3225 -0.1463  0.0245
 9246SOL    HW133518   9.520   8.080   2.741  0.5343  2.1415 -0.3238
 9246SOL    HW233519   9.599   7.989   2.851 -2.2716 -2.0820 -1.6806
 9247SOL     OW33520   8.315   3.638   2.653 -0.3887  0.1248  0.0271
 9247SOL    HW133521   8.321   3.538   2.656 -3.5591 -0.0993  2.7591
 9247SOL    HW233522   8.367   3.676   2.729  3.5094  0.8603 -2.8411
 9248SOL     OW33523   2.212   9.782   5.669  0.9705 -0.1711 -0.1217
 9248SOL    HW133524   2.225   9.699   5.723 -0.6806 -1.0985 -1.1080
 9248SOL    HW233525   2.179   9.757   5.577  1.8285  1.4880 -0.8999
 9249SOL     OW33526   4.061   9.722   3.194  0.2358 -0.8919 -0.4467
 9249SOL    HW133527   4.130   9.728   3.266 -0.8458 -0.8619  0.5917
 9249SOL    HW233528   4.097   9.765   3.111  0.1975  2.2908  1.0822
 9250SOL     OW33529   6.629   7.463   5.347  0.1741  0.1267  0.4721
 9250SOL    HW133530   6.716   7.475   5.299  0.1664  0.4396  0.5328
 9250SOL    HW233531   6.646   7.428   5.439  0.1980 -0.3461  0.2847
 9251SOL     OW33532   0.799   6.406   3.904  0.6339  0.6400  0.0347
 9251SOL    HW133533   0.894   6.424   3.931  0.3125  0.5154  1.3158
 9251SOL    HW233534   0.744   6.487   3.924 -0.1007 -0.3618  2.2316
 9252SOL     OW33535   7.370   1.736   0.560  0.0407 -0.1213  0.1500
 9252SOL    HW133536   7.338   1.802   0.629  2.2540  0.6805  0.4264
 9252SOL    HW233537   7.461   1.702   0.585 -0.7709 -2.8245 -0.3229
 9253SOL     OW33538   4.361   7.199   3.607 -0.1792  0.0428  0.2493
 9253SOL    HW133539   4.274   7.194   3.558  0.7960  0.4894 -1.5910
 9253SOL    HW233540   4.397   7.292   3.602  0.7063 -0.2858  0.4221
 9254SOL     OW33541   9.586   4.602   4.252  0.0930 -0.2755  0.9172
 9254SOL    HW133542   9.619   4.509   4.238 -0.9292 -0.4550 -0.3815
 9254SOL    HW233543   9.638   4.645   4.326  1.4389 -1.4316  0.6637
 9255SOL     OW33544   0.736   7.669   0.488 -0.0586  0.3885 -0.1947
 9255SOL    HW133545   0.834   7.683   0.479  0.0468  0.8962  1.6301
 9255SOL    HW233546   0.688   7.733   0.427  0.6991  1.5183  0.3818
 9256SOL     OW33547   5.783   3.634   0.185  0.4899  0.1616 -0.6784
 9256SOL    HW133548   5.812   3.704   0.250  2.1695 -0.2243 -0.9880
 9256SOL    HW233549   5.689   3.605   0.206  0.5239  1.0274  0.7040
 9257SOL     OW33550   4.018   0.162   2.289  0.0739 -0.3870 -0.0253
 9257SOL    HW133551   4.094   0.108   2.325 -0.0019 -0.1880  0.4426
 9257SOL    HW233552   4.001   0.137   2.194  1.6966  0.6185 -0.6052
 9258SOL     OW33553   2.824   4.955   0.618 -0.3037 -0.1550  0.2794
 9258SOL    HW133554   2.805   4.878   0.679 -3.5985 -0.0530 -0.5011
 9258SOL    HW233555   2.915   4.945   0.579  0.0086 -2.7309  1.5309
 9259SOL     OW33556   7.599   0.421   6.325 -0.1604  0.3904  0.2041
 9259SOL    HW133557   7.525   0.450   6.387 -0.4559  3.6896 -1.5725
 9259SOL    HW233558   7.564   0.415   6.232  1.1244 -1.0643 -0.1995
 9260SOL     OW33559   0.918   8.941   5.418 -0.4578  0.3066 -0.0649
 9260SOL    HW133560   0.927   8.842   5.408 -2.7586  0.1125 -0.4379
 9260SOL    HW233561   0.822   8.967   5.412  0.1201  2.5867 -0.0587
 9261SOL     OW33562   1.018   0.630   4.673 -0.4881  0.1726 -0.0482
 9261SOL    HW133563   0.985   0.674   4.756 -1.3671 -0.1571 -0.2164
 9261SOL    HW233564   1.074   0.694   4.621 -1.1461  0.8470  0.0721
 9262SOL     OW33565   0.771   6.610   2.795  0.6339 -0.3822 -0.0187
 9262SOL    HW133566   0.678   6.582   2.771  0.2293  2.3505 -1.9656
 9262SOL    HW233567   0.836   6.569   2.731  0.5778 -0.8550  0.2271
 9263SOL     OW33568   6.675   2.479   3.563 -0.7946  0.1661 -0.3836
 9263SOL    HW133569   6.740   2.456   3.489 -0.5456  1.1319 -0.4669
 9263SOL    HW233570   6.648   2.575   3.555 -0.6263  0.3268  0.8947
 9264SOL     OW33571   4.694   9.077   5.339  0.3058 -0.0633  0.3784
 9264SOL    HW133572   4.692   8.995   5.397  2.0492  0.7297  1.6115
 9264SOL    HW233573   4.612   9.132   5.356  0.2243 -0.4376  1.2065
 9266SOL     OW33574   8.847   7.956   6.187 -0.0293  0.0417  0.4482
 9266SOL    HW133575   8.921   7.889   6.178 -2.0969 -2.1628 -0.6729
 9266SOL    HW233576   8.845   7.991   6.281 -0.3220 -3.1704  1.6873
 9267SOL     OW33577   1.037   0.035   3.055 -0.6382  0.2459 -0.5697
 9267SOL    HW133578   1.034   0.127   3.094  1.2016  0.9250 -1.9149
 9267SOL    HW233579   1.065  -0.030   3.125 -1.0330  0.8654  0.1675
 9268SOL     OW33580   2.527   8.590   0.635  0.6203 -1.3267  0.0174
 9268SOL    HW133581   2.501   8.642   0.717 -2.4366 -0.7162 -1.2597
 9268SOL    HW233582   2.551   8.653   0.561 -0.0677 -1.7759 -0.6000
 9270SOL     OW33583   6.257   0.286   2.864  0.0258 -0.6148  0.4184
 9270SOL    HW133584   6.201   0.232   2.927  1.8068 -1.1845  1.5549
 9270SOL    HW233585   6.335   0.324   2.913 -1.8732  4.1975 -0.0508
 9271SOL     OW33586   2.342   9.566   4.650  0.5329 -0.1177 -0.2782
 9271SOL    HW133587   2.252   9.577   4.607 -0.1503 -1.7498  0.6862
 9271SOL    HW233588   2.413   9.601   4.589 -0.7555  1.1429 -1.0695
 9272SOL     OW33589   3.638   3.981   0.697  0.5507 -0.1276  0.7929
 9272SOL    HW133590   3.686   4.048   0.640 -1.9737  1.6203  0.6569
 9272SOL    HW233591   3.646   4.006   0.793  1.7101 -1.0505  0.9528
 9273SOL     OW33592   1.155   4.259   1.951 -0.3892  0.2052 -0.5641
 9273SOL    HW133593   1.230   4.321   1.929 -0.8630  0.7593 -0.6323
 9273SOL    HW233594   1.090   4.258   1.875 -1.1612  0.8099  0.0768
 9274SOL     OW33595   7.204   0.787   6.085 -0.0833  0.0922 -0.3806
 9274SOL    HW133596   7.162   0.745   6.166 -0.0120  1.2786  0.2755
 9274SOL    HW233597   7.136   0.843   6.038 -0.1294 -0.6117 -1.1674
 9275SOL     OW33598   9.543   5.563   6.116  0.6816 -0.0645  0.4867
 9275SOL    HW133599   9.494   5.502   6.053  1.6059 -1.1572  0.8137
 9275SOL    HW233600   9.613   5.614   6.066  2.4898 -2.0917  0.8757
 9276SOL     OW33601   5.834   5.646   1.684  0.7041 -0.3499 -0.4460
 9276SOL    HW133602   5.870   5.709   1.614  0.0212  0.4655 -0.0718
 9276SOL    HW233603   5.740   5.621   1.660  0.0118  0.9412  0.8305
 9277SOL     OW33604   6.061   1.516   6.176 -0.0612 -0.0097  0.1046
 9277SOL    HW133605   6.110   1.431   6.157  0.2052 -0.0914  1.1244
 9277SOL    HW233606   6.106   1.592   6.129  0.7661 -0.1566  0.6445
 9278SOL     OW33607   9.387   8.289   2.284 -0.0744 -0.4527 -0.1246
 9278SOL    HW133608   9.423   8.305   2.192 -1.7771  2.0436 -0.3735
 9278SOL    HW233609   9.305   8.232   2.279 -0.0092 -0.5482 -0.1146
 9279SOL     OW33610   9.862   1.274   3.781 -0.0122  0.0933 -0.1730
 9279SOL    HW133611   9.815   1.352   3.739 -0.2499 -0.0598 -0.1895
 9279SOL    HW233612   9.842   1.191   3.730  0.4447  0.0610 -0.3024
 9281SOL     OW33613   1.857   9.973   6.002 -0.7570  0.8979  0.0119
 9281SOL    HW133614   1.759   9.964   5.985 -0.6164  2.3064 -1.6147
 9281SOL    HW233615   1.906   9.901   5.953 -0.9811 -0.0475  1.1385
 9282SOL     OW33616   4.314   6.936   0.484  0.2704  0.0458 -0.3878
 9282SOL    HW133617   4.220   6.919   0.512 -0.0528  2.0364 -0.1956
 9282SOL    HW233618   4.366   6.973   0.561 -0.0001  3.2541 -1.6654
 9283SOL     OW33619   6.819   8.482   6.143  0.0664 -0.3904  0.2283
 9283SOL    HW133620   6.881   8.463   6.066 -0.7501  0.4879 -0.6624
 9283SOL    HW233621   6.856   8.556   6.198  0.6701 -1.0423  0.7224
 9284SOL     OW33622   9.930   7.857   6.279 -0.3739 -0.2503 -0.0570
 9284SOL    HW133623   9.976   7.773   6.252 -0.3249  0.2731 -1.6365
 9284SOL    HW233624   9.861   7.881   6.210 -0.6537  0.7974  0.5775
 9285SOL     OW33625   7.775   9.702   5.932 -0.2124  0.5682  0.1120
 9285SOL    HW133626   7.677   9.719   5.918 -0.2929  0.9551  1.1311
 9285SOL    HW233627   7.796   9.704   6.030  0.9586  1.2524 -0.1389
 9287SOL     OW33628   3.267   0.919   0.623  0.2372  0.0481  0.0407
 9287SOL    HW133629   3.280   1.010   0.582  2.3238 -0.9657 -1.6476
 9287SOL    HW233630   3.171   0.892   0.614 -0.6066  2.4066  1.3360
 9288SOL     OW33631   2.483   9.790   2.991 -0.3370  0.6522  0.1417
 9288SOL    HW133632   2.582   9.805   2.989 -0.1192 -0.2541  2.0836
 9288SOL    HW233633   2.454   9.743   2.908  0.7233  1.6884 -0.8265
 9289SOL     OW33634   1.851   1.442   1.608  0.5677  0.3218 -1.0120
 9289SOL    HW133635   1.762   1.465   1.568  0.3556  0.6182 -0.3765
 9289SOL    HW233636   1.922   1.445   1.538 -0.0047 -0.4051 -1.6302
 9292SOL     OW33637   2.523   3.009   1.843 -0.2514 -0.2070  0.3529
 9292SOL    HW133638   2.517   3.100   1.884 -1.2304 -1.0425  2.1587
 9292SOL    HW233639   2.444   2.994   1.783  0.0306  0.2156 -0.1239
 9293SOL     OW33640   9.555   2.414   5.007 -1.1600  0.0565 -0.2091
 9293SOL    HW133641   9.615   2.340   5.039  1.1842  1.8363 -0.4070
 9293SOL    HW233642   9.504   2.382   4.927 -1.3065 -1.8452  0.5984
 9294SOL     OW33643   7.109   9.898   4.682 -0.5200 -0.1090 -0.1938
 9294SOL    HW133644   7.129   9.823   4.619  0.7897  0.0301  0.0449
 9294SOL    HW233645   7.167   9.977   4.659 -0.4011  0.1193  0.8618
 9297SOL     OW33646   0.644   6.425   4.959 -0.1576  0.6012  0.5792
 9297SOL    HW133647   0.661   6.453   5.053 -0.3919  1.1429  0.4622
 9297SOL    HW233648   0.549   6.442   4.935 -0.3555 -0.4996  0.5688
 9298SOL     OW33649   0.406   8.616   5.332 -0.2000 -0.2325  0.5603
 9298SOL    HW133650   0.418   8.520   5.305  1.1368  0.3846 -1.1413
 9298SOL    HW233651   0.323   8.652   5.289 -1.1331 -0.8232  1.8275
 9301SOL     OW33652   1.528   4.958   2.749  0.7058 -0.0933  0.1546
 9301SOL    HW133653   1.623   4.984   2.769  1.6745 -2.6208 -1.0522
 9301SOL    HW233654   1.512   4.865   2.781 -1.3416  0.2422  0.1479
 9303SOL     OW33655   7.966   7.581   2.952  0.3065 -0.0236  0.2014
 9303SOL    HW133656   7.939   7.666   2.906 -1.8474  0.9688  3.1924
 9303SOL    HW233657   8.063   7.586   2.977  0.4504  1.1117 -0.5527
 9304SOL     OW33658   9.942   7.896   4.318  0.1497 -0.3427  0.0731
 9304SOL    HW133659   9.966   7.878   4.223  0.3944 -0.8252  0.2278
 9304SOL    HW233660   9.966   7.991   4.340 -1.8617  0.4493 -0.9608
 9305SOL     OW33661   6.013   1.424   1.851  0.4045  0.4771 -0.0883
 9305SOL    HW133662   5.930   1.478   1.837  0.8375  1.2051  0.1374
 9305SOL    HW233663   6.088   1.484   1.879  1.7551  0.2879 -3.0456
 9306SOL     OW33664   7.175   3.959   2.524  0.6923 -0.5388  0.1286
 9306SOL    HW133665   7.243   4.033   2.530 -0.0510  0.1578  0.1283
 9306SOL    HW233666   7.115   3.963   2.604 -1.5515  1.0863 -1.5517
 9307SOL     OW33667   1.235   3.282   1.234  0.7528  0.0275  0.2022
 9307SOL    HW133668   1.229   3.310   1.330 -1.7124  0.7496 -0.1273
 9307SOL    HW233669   1.160   3.219   1.212  1.7613 -0.7755 -1.0604
 9308SOL     OW33670   3.878   2.962   3.816 -0.5099  0.1500  0.3102
 9308SOL    HW133671   3.875   2.987   3.719  0.2629  1.1920  0.5416
 9308SOL    HW233672   3.786   2.945   3.849 -0.6715 -1.6141 -0.9590
 9309SOL     OW33673   0.588   8.689   1.616 -0.3785 -0.4859  0.1523
 9309SOL    HW133674   0.493   8.659   1.630 -0.6563 -0.3539 -1.4312
 9309SOL    HW233675   0.589   8.772   1.560  0.6955 -0.6933 -0.1398
 9310SOL     OW33676   5.576   0.467   3.093 -0.2965  0.3832 -0.6761
 9310SOL    HW133677   5.586   0.373   3.127  1.1182  1.1260  1.0148
 9310SOL    HW233678   5.512   0.467   3.016 -2.2909 -1.5849  0.8988
 9311SOL     OW33679   2.428   8.876   3.768  0.1554 -0.0167  0.2104
 9311SOL    HW133680   2.340   8.832   3.747  0.0091  0.0377  0.7156
 9311SOL    HW233681   2.496   8.846   3.701  0.1298 -1.2576  0.7188
 9313SOL     OW33682   2.087   8.522   2.871 -0.2301  0.3138  0.5004
 9313SOL    HW133683   2.011   8.569   2.917 -0.6825 -0.4104  0.4942
 9313SOL    HW233684   2.172   8.571   2.890 -0.6481  0.9487  0.7693
 9315SOL     OW33685   3.413   4.870   3.794 -0.1096 -0.1801 -0.1593
 9315SOL    HW133686   3.470   4.842   3.872 -0.7573  0.9228  0.7156
 9315SOL    HW233687   3.387   4.789   3.741 -0.7724 -1.0955  1.5272
 9316SOL     OW33688   8.019   9.269   6.044 -0.1473 -0.1336 -0.2323
 9316SOL    HW133689   7.998   9.355   5.997 -1.2288 -0.8785 -1.1439
 9316SOL    HW233690   8.118   9.257   6.049  0.0679  1.9084  1.2873
 9317SOL     OW33691   5.138   2.635   4.763  0.4129  0.0363  0.0279
 9317SOL    HW133692   5.209   2.704   4.758  0.4797  0.0292  0.8789
 9317SOL    HW233693   5.131   2.588   4.675 -0.8315  2.2958 -1.1127
 9318SOL     OW33694   8.694   0.748   0.280  0.8921 -0.4700 -0.3901
 9318SOL    HW133695   8.755   0.799   0.220  0.4432 -0.5670 -0.9298
 9318SOL    HW233696   8.721   0.652   0.281  0.2927 -0.6550 -1.2218
 9319SOL     OW33697   8.893   4.915   3.852 -0.1213 -0.4334 -0.7345
 9319SOL    HW133698   8.898   5.011   3.822  0.2366 -0.1239  0.3128
 9319SOL    HW233699   8.804   4.898   3.893  0.1368 -0.3052 -0.1124
 9320SOL     OW33700   7.500   6.987   6.207 -0.6561  0.0015 -0.2235
 9320SOL    HW133701   7.585   6.937   6.223 -0.4607 -0.0275 -1.2840
 9320SOL    HW233702   7.428   6.952   6.266 -0.2984 -0.9476 -0.3454
 9321SOL     OW33703   0.415   6.634   0.551  0.1618 -0.0928 -0.0407
 9321SOL    HW133704   0.459   6.682   0.627 -3.7081  0.1471  2.2012
 9321SOL    HW233705   0.474   6.560   0.520  2.9705  1.4325  1.4215
 9322SOL     OW33706   7.383   8.825   2.992  0.0054  0.8470 -0.5871
 9322SOL    HW133707   7.365   8.872   3.078 -3.0883 -1.3863  0.0510
 9322SOL    HW233708   7.482   8.818   2.978  0.5484  2.3228  2.1408
 9324SOL     OW33709   9.490   6.049   0.278  0.3135 -0.6864  0.4805
 9324SOL    HW133710   9.437   5.984   0.333  0.1367 -0.7657  0.2187
 9324SOL    HW233711   9.443   6.064   0.191  2.0306 -2.7458 -0.8380
 9325SOL     OW33712   4.414   2.766   1.281  0.9329  0.7213  0.3951
 9325SOL    HW133713   4.459   2.704   1.345  0.5712  2.1162  2.0349
 9325SOL    HW233714   4.385   2.715   1.200  3.4861 -0.6208  0.2604
 9326SOL     OW33715   2.084   6.508   6.430  0.2184 -0.1094  0.1773
 9326SOL    HW133716   1.999   6.485   6.383 -0.4286  0.2099  1.1807
 9326SOL    HW233717   2.072   6.495   6.529  1.1436  0.5181  0.3756
 9327SOL     OW33718   6.022   0.378   4.952 -0.6014 -0.0451  0.2072
 9327SOL    HW133719   6.121   0.389   4.945 -0.3061 -1.4408  1.7132
 9327SOL    HW233720   5.981   0.463   4.984  0.0059  0.7795 -1.1483
 9328SOL     OW33721   8.079   3.093   2.931  0.2050 -0.3671  0.2345
 9328SOL    HW133722   8.119   3.142   3.008  1.4411  1.1467 -1.3470
 9328SOL    HW233723   7.980   3.084   2.945 -0.0950  2.8208  0.4446
 9329SOL     OW33724   2.238   3.506   5.692  0.0826 -0.1740 -0.3055
 9329SOL    HW133725   2.140   3.517   5.702  0.0316 -1.2885  0.5061
 9329SOL    HW233726   2.283   3.518   5.780  0.5768 -0.5828 -0.4944
 9330SOL     OW33727   1.098   5.481   2.431  0.0211 -0.1950  0.1419
 9330SOL    HW133728   1.054   5.421   2.365  1.6754 -0.2042 -0.9939
 9330SOL    HW233729   1.127   5.566   2.386  3.0960 -1.0902  0.2777
 9332SOL     OW33730   4.016   6.573   3.368 -0.3629 -0.2216  0.9383
 9332SOL    HW133731   3.983   6.498   3.310  1.2799  1.4856 -2.3403
 9332SOL    HW233732   3.941   6.635   3.389 -0.6398  0.1190 -0.9577
 9333SOL     OW33733   8.066   4.408   3.767  0.4848  0.5762 -0.1281
 9333SOL    HW133734   8.134   4.343   3.798  0.7877  2.0030  2.3240
 9333SOL    HW233735   7.990   4.412   3.832 -1.0467  0.4074 -1.8448
 9334SOL     OW33736   4.207   8.463   0.733  0.2226 -0.1764  0.2973
 9334SOL    HW133737   4.270   8.502   0.801 -1.3044  1.1557  0.9872
 9334SOL    HW233738   4.216   8.514   0.647  0.4006 -0.2843  0.2512
 9337SOL     OW33739   9.032   2.300   3.547  0.3365  0.4088 -0.0551
 9337SOL    HW133740   9.023   2.348   3.459 -0.7574  0.6566  0.1928
 9337SOL    HW233741   9.096   2.351   3.605 -0.0879  1.0634 -0.1509
 9338SOL     OW33742   9.753   1.728   3.572 -0.1663  0.3136 -0.1322
 9338SOL    HW133743   9.736   1.698   3.478  0.3126  1.6326 -0.6432
 9338SOL    HW233744   9.850   1.746   3.584  0.0935 -1.8161  1.2131
 9340SOL     OW33745   5.310   0.691   3.341 -0.4275  0.1470 -0.3814
 9340SOL    HW133746   5.220   0.647   3.341  0.0394 -0.8283 -0.2414
 9340SOL    HW233747   5.333   0.720   3.434  0.0287 -0.9167 -0.1591
 9342SOL     OW33748   6.162   1.645   4.938 -0.0698 -0.4199  1.0905
 9342SOL    HW133749   6.201   1.699   4.863 -0.0421 -0.9510  0.7216
 9342SOL    HW233750   6.155   1.549   4.910 -0.3865 -0.5588  1.6412
 9343SOL     OW33751   1.662   1.771   4.088  1.3094  0.5195  0.1469
 9343SOL    HW133752   1.632   1.772   3.993 -0.4916  0.6556  0.6816
 9343SOL    HW233753   1.750   1.817   4.096  2.0968 -0.6160 -1.6302
 9344SOL     OW33754   7.930   2.010   1.949  0.2064  0.1843 -0.2496
 9344SOL    HW133755   7.866   2.035   2.022  0.2379  0.0586 -0.1786
 9344SOL    HW233756   8.020   2.048   1.970 -0.2901  2.0018 -1.3089
 9345SOL     OW33757   0.376   7.272   3.600  0.2466  0.5607  0.4356
 9345SOL    HW133758   0.422   7.287   3.688 -0.2002  1.2212  0.5573
 9345SOL    HW233759   0.409   7.339   3.534  0.2004  0.3915  0.2429
 9346SOL     OW33760   9.743   9.336   2.679  0.2511 -0.9248 -0.5222
 9346SOL    HW133761   9.814   9.268   2.660  2.3461  1.0827 -0.0801
 9346SOL    HW233762   9.707   9.372   2.592  1.9203  0.1967 -0.7739
 9347SOL     OW33763   3.984   0.421   4.938  0.3259  0.3725 -0.3723
 9347SOL    HW133764   3.956   0.328   4.913  2.5131 -0.9897  2.0252
 9347SOL    HW233765   4.083   0.429   4.931  0.3314  1.9964  1.1102
 9348SOL     OW33766   7.152   9.016   5.211  0.5247 -0.4269  0.1852
 9348SOL    HW133767   7.163   9.073   5.292  1.8532 -0.5821  0.1377
 9348SOL    HW233768   7.219   8.941   5.215  0.7053 -0.3473 -1.1173
 9349SOL     OW33769   1.641   6.644   0.601  0.0421 -0.2196  0.2942
 9349SOL    HW133770   1.560   6.601   0.639 -0.4627 -0.6376 -1.2234
 9349SOL    HW233771   1.718   6.581   0.606  0.3397  0.2388  1.8895
 9350SOL     OW33772   9.219   2.102   2.800 -0.7011 -0.6597 -0.6202
 9350SOL    HW133773   9.283   2.036   2.762 -0.1049  0.0689 -0.9031
 9350SOL    HW233774   9.132   2.057   2.821 -0.7392 -1.2486 -2.0301
 9352SOL     OW33775   8.931   5.905   5.499  0.6833 -0.0581  0.1075
 9352SOL    HW133776   8.974   5.821   5.464 -1.2140 -0.1883 -2.0552
 9352SOL    HW233777   8.842   5.883   5.539  0.4909  0.8192  0.1794
 9356SOL     OW33778   9.124   8.148   0.841 -0.1997  0.0005 -0.7185
 9356SOL    HW133779   9.116   8.203   0.924  1.3583  2.1621 -1.9381
 9356SOL    HW233780   9.220   8.124   0.826 -0.3255  0.4662 -2.3813
 9357SOL     OW33781   5.806   2.272   4.391  0.3159 -0.3661 -0.0729
 9357SOL    HW133782   5.881   2.215   4.424 -0.9184 -1.4269  0.9397
 9357SOL    HW233783   5.721   2.219   4.390 -0.7166  1.2333  0.2199
 9358SOL     OW33784   6.775   0.473   4.581 -0.5489  0.0505  0.0919
 9358SOL    HW133785   6.743   0.444   4.671  0.2326 -1.1185  0.0024
 9358SOL    HW233786   6.729   0.419   4.510  1.8182 -1.9336 -0.0264
 9359SOL     OW33787   1.257   1.057   3.816  0.2701 -0.4745  0.7912
 9359SOL    HW133788   1.218   1.119   3.884 -1.6047 -1.6306  0.7944
 9359SOL    HW233789   1.357   1.068   3.814  0.0112  2.1639  1.1235
 9360SOL     OW33790   7.826   1.463   1.652  0.7403  1.1914  0.7326
 9360SOL    HW133791   7.822   1.559   1.622  0.4280  0.7961 -0.5133
 9360SOL    HW233792   7.779   1.405   1.585  2.6779 -0.0846  0.4324
 9361SOL     OW33793   2.237   0.348   5.032  0.1552 -0.5993 -0.0895
 9361SOL    HW133794   2.294   0.382   4.957 -2.4030 -1.0659 -2.3247
 9361SOL    HW233795   2.249   0.249   5.041 -0.2332 -0.6895 -0.5268
 9362SOL     OW33796   1.137   5.856   3.084 -0.1549  0.1557 -0.3856
 9362SOL    HW133797   1.169   5.799   3.009 -2.4543 -1.8266  0.0568
 9362SOL    HW233798   1.042   5.883   3.067 -0.5367  0.1103  1.5598
 9363SOL     OW33799   4.069   3.516   1.146 -0.5545  0.1454 -0.0662
 9363SOL    HW133800   4.163   3.486   1.130 -0.7723 -2.0875  2.5177
 9363SOL    HW233801   4.070   3.605   1.193  0.3528 -0.8363  1.8273
 9366SOL     OW33802   0.683   0.262   3.921  0.0210  0.3387 -0.3255
 9366SOL    HW133803   0.600   0.304   3.957 -0.4047 -1.1663  0.4989
 9366SOL    HW233804   0.699   0.293   3.828 -1.7651  0.2095 -0.6862
 9367SOL     OW33805   0.998   3.927   5.907  0.6977 -0.3358 -0.0851
 9367SOL    HW133806   1.056   3.870   5.965  1.3258 -2.5776 -2.8167
 9367SOL    HW233807   1.056   3.982   5.847  0.0433  1.6794  1.0682
 9368SOL     OW33808   3.626   7.273   3.743 -0.0757  0.7315  0.0559
 9368SOL    HW133809   3.643   7.363   3.783 -0.1746  0.2984  1.1165
 9368SOL    HW233810   3.532   7.269   3.710 -0.4788  0.6028  1.1848
 9369SOL     OW33811   3.975   8.815   0.492 -0.9343 -0.1900 -0.0907
 9369SOL    HW133812   4.055   8.771   0.534 -1.6700 -1.1251  0.3549
 9369SOL    HW233813   4.005   8.889   0.432  0.3190 -1.1615 -0.6743
 9370SOL     OW33814   0.945   1.689   5.264  0.0150  0.4448  0.1577
 9370SOL    HW133815   0.971   1.599   5.298  0.7132  0.0164 -1.4247
 9370SOL    HW233816   0.874   1.679   5.194  2.2473  0.8213 -2.2322
 9371SOL     OW33817   2.704   9.258   6.190  0.3070  0.1712 -0.1166
 9371SOL    HW133818   2.688   9.356   6.186  1.8641  0.4037 -0.7553
 9371SOL    HW233819   2.775   9.238   6.257  0.3940 -0.4747 -0.3948
 9372SOL     OW33820   4.333   9.008   5.757 -0.4276  0.3728 -0.3279
 9372SOL    HW133821   4.284   9.063   5.690  1.4262 -0.1902 -2.1807
 9372SOL    HW233822   4.279   8.926   5.778 -1.1682  0.7136 -0.8717
 9373SOL     OW33823   5.822   3.037   0.660  0.0124  0.1223  0.3533
 9373SOL    HW133824   5.849   2.965   0.596 -0.9987  0.0080  0.0437
 9373SOL    HW233825   5.897   3.056   0.723  1.2750  0.7748 -1.3385
 9374SOL     OW33826   0.855   4.760   3.488 -0.0060 -0.1166 -0.1087
 9374SOL    HW133827   0.844   4.850   3.444  0.6070  0.5049  0.9982
 9374SOL    HW233828   0.951   4.745   3.511  0.0533 -1.4989 -1.1959
 9375SOL     OW33829   8.370   1.069   1.055  0.1269  0.1405 -0.8248
 9375SOL    HW133830   8.465   1.071   1.086 -0.3346  0.7836  0.5581
 9375SOL    HW233831   8.352   1.149   0.998  0.0640  0.6804 -0.0443
 9377SOL     OW33832   9.013   8.804   6.411 -0.4109 -0.8090 -0.1494
 9377SOL    HW133833   9.022   8.857   6.495  0.5283 -1.6436  0.2881
 9377SOL    HW233834   9.101   8.761   6.389  0.1267  1.6683 -3.0948
 9380SOL     OW33835   9.227   4.890   6.441  0.2693 -0.5284 -0.0818
 9380SOL    HW133836   9.159   4.955   6.406  0.5723  0.4340  1.0708
 9380SOL    HW233837   9.314   4.938   6.456  0.1815 -0.9397  1.8257
 9381SOL     OW33838   2.396   2.418   2.290  0.5722  0.5368 -0.5165
 9381SOL    HW133839   2.421   2.327   2.323 -0.0283 -0.4458 -2.6564
 9381SOL    HW233840   2.320   2.410   2.225  1.1995  2.4569 -1.5217
 9382SOL     OW33841   8.710   6.733   0.317  0.5812  0.3026  0.1616
 9382SOL    HW133842   8.645   6.662   0.292  0.2866  0.5753  0.1542
 9382SOL    HW233843   8.802   6.704   0.292  0.6160 -0.6410  1.3711
 9383SOL     OW33844   9.343   7.502   3.470 -0.0335 -0.5554 -0.2847
 9383SOL    HW133845   9.426   7.529   3.422 -0.2885 -1.0108 -0.9823
 9383SOL    HW233846   9.321   7.407   3.448  0.5527 -1.1827  1.7298
 9384SOL     OW33847   9.374   6.349   6.018  0.2207 -0.0218  0.0077
 9384SOL    HW133848   9.428   6.421   6.063  0.7795 -1.5231  1.7765
 9384SOL    HW233849   9.352   6.378   5.924 -0.1787  2.7637  0.9170
 9385SOL     OW33850   9.540   8.741   3.750  0.1484 -0.3390 -0.1653
 9385SOL    HW133851   9.465   8.676   3.739  0.2914 -0.5731  0.2052
 9385SOL    HW233852   9.602   8.708   3.821 -0.2155  0.5986  0.6177
 9386SOL     OW33853   1.012   8.504   3.985 -0.5233 -0.2378 -0.4490
 9386SOL    HW133854   1.066   8.431   4.026  0.2523  0.0162 -1.0037
 9386SOL    HW233855   1.054   8.592   4.005 -1.1737  0.0189 -0.2098
 9387SOL     OW33856   0.506   9.623   0.338 -0.0364 -0.1059  0.6715
 9387SOL    HW133857   0.457   9.709   0.352 -1.5337 -1.0890  1.6343
 9387SOL    HW233858   0.443   9.546   0.351  1.1665 -1.3425 -0.6646
 9388SOL     OW33859   1.686   8.186   4.022  0.2515 -0.7121 -0.6118
 9388SOL    HW133860   1.693   8.113   3.954 -2.0617 -0.4368 -1.1645
 9388SOL    HW233861   1.606   8.171   4.080 -1.3698  2.3800 -1.9344
 9389SOL     OW33862   5.290   7.586   2.776  0.2615  0.3405 -0.1173
 9389SOL    HW133863   5.328   7.605   2.866  0.6769 -0.0077 -0.2230
 9389SOL    HW233864   5.243   7.498   2.778  0.0386  0.4583 -0.1691
 9390SOL     OW33865   9.411   8.935   3.904 -0.1820  0.4034  0.4313
 9390SOL    HW133866   9.433   8.852   3.852  0.3733  0.0224  1.2441
 9390SOL    HW233867   9.316   8.932   3.933 -0.3325  0.3413 -0.0657
 9391SOL     OW33868   2.537   5.159   6.411 -0.2273 -0.5587 -0.1411
 9391SOL    HW133869   2.549   5.063   6.433  0.3366 -0.6978 -1.0269
 9391SOL    HW233870   2.557   5.174   6.314  3.0039  1.0136  0.7022
 9392SOL     OW33871   1.610   6.630   5.173 -0.6694 -0.5597 -0.6577
 9392SOL    HW133872   1.640   6.552   5.229 -0.2757 -0.4672 -0.7390
 9392SOL    HW233873   1.535   6.601   5.113 -1.2116 -0.6164  0.0363
 9393SOL     OW33874   3.856   4.068   1.529  0.4810 -0.1267  0.3094
 9393SOL    HW133875   3.950   4.053   1.499  0.3295  1.8121 -1.2574
 9393SOL    HW233876   3.794   4.020   1.468  0.3766 -0.2263  0.4922
 9394SOL     OW33877   3.573   9.327   2.604  0.5683  0.3144 -0.4714
 9394SOL    HW133878   3.567   9.318   2.505 -0.0171 -0.0264 -0.4087
 9394SOL    HW233879   3.555   9.239   2.648  0.8692  0.4502 -0.0628
 9395SOL     OW33880   8.703   9.339   1.356 -0.7170  0.5334  0.0107
 9395SOL    HW133881   8.713   9.285   1.272  1.1132 -0.5714  0.9003
 9395SOL    HW233882   8.627   9.303   1.410 -0.6245 -0.0375 -0.2353
 9397SOL     OW33883   0.258   3.971   1.253  0.3284 -0.1028  0.4262
 9397SOL    HW133884   0.204   3.892   1.282  0.3469  0.5405  2.2463
 9397SOL    HW233885   0.352   3.962   1.287  1.1202 -0.6937 -1.8210
 9398SOL     OW33886   4.527   1.504   6.303 -0.0480  0.5072 -0.1166
 9398SOL    HW133887   4.560   1.589   6.262  2.2416  0.2487  1.0564
 9398SOL    HW233888   4.495   1.522   6.396 -2.7668  0.6408 -1.0374
 9399SOL     OW33889   7.531   1.928   1.275  0.6683 -0.0111  0.1456
 9399SOL    HW133890   7.489   2.013   1.243 -0.9674 -0.9342 -0.2422
 9399SOL    HW233891   7.569   1.878   1.197  1.0966  0.0806  0.2951
 9400SOL     OW33892   8.691   5.822   5.576  0.2524 -0.1010 -0.1355
 9400SOL    HW133893   8.601   5.845   5.611 -1.3425  0.2174 -4.1197
 9400SOL    HW233894   8.709   5.725   5.593 -0.9702 -0.2405  0.4486
 9401SOL     OW33895   5.321   2.752   0.208  0.4388  0.5574 -0.1473
 9401SOL    HW133896   5.223   2.751   0.188  0.0908 -2.4406  1.3206
 9401SOL    HW233897   5.337   2.786   0.300  0.4665 -1.7472  0.7328
 9403SOL     OW33898   3.938   6.649   2.271 -0.4292 -0.2207 -0.2642
 9403SOL    HW133899   3.856   6.609   2.311  0.7944 -2.8316 -0.2770
 9403SOL    HW233900   3.938   6.748   2.287 -2.8970 -0.3687  0.8860
 9404SOL     OW33901   9.367   7.455   5.707 -0.3283  0.0643  0.1364
 9404SOL    HW133902   9.302   7.454   5.783  2.0715 -1.6346  2.2550
 9404SOL    HW233903   9.344   7.382   5.643 -1.9032  1.0140 -0.4265
 9406SOL     OW33904   6.804   2.144   1.584 -0.5477 -0.4720 -0.1636
 9406SOL    HW133905   6.784   2.073   1.517  1.3082  0.0246 -1.3135
 9406SOL    HW233906   6.835   2.102   1.670 -0.5887 -1.0802 -0.4453
 9407SOL     OW33907   4.251   8.133   2.842  0.0865 -0.5817 -0.2556
 9407SOL    HW133908   4.270   8.057   2.779  0.5538  0.3412 -1.2484
 9407SOL    HW233909   4.234   8.216   2.789 -0.4653  0.0001  0.8233
 9408SOL     OW33910   2.706   1.061   0.869 -0.1213 -0.4642 -0.4519
 9408SOL    HW133911   2.674   1.079   0.776 -1.2216  0.6070  0.1124
 9408SOL    HW233912   2.628   1.065   0.932  0.7259 -0.4582  0.6120
 9409SOL     OW33913   4.773   0.938   1.054  0.2860 -0.3008  0.0141
 9409SOL    HW133914   4.714   0.994   1.113  0.6282 -0.6881  0.7267
 9409SOL    HW233915   4.784   0.847   1.095  0.2587 -0.6829 -0.8165
 9410SOL     OW33916   2.067   8.579   2.576 -0.3077  0.3706  0.2196
 9410SOL    HW133917   2.070   8.575   2.676  1.1735  0.8406  0.2091
 9410SOL    HW233918   1.994   8.641   2.547  1.3702  2.8758  1.1116
 9411SOL     OW33919   2.072   5.271   1.864 -0.2367 -0.1387 -0.0149
 9411SOL    HW133920   2.100   5.207   1.793  0.3898 -0.8664  0.8753
 9411SOL    HW233921   1.972   5.271   1.871 -0.3313  0.3898 -1.2974
 9412SOL     OW33922   8.440   8.659   4.494 -0.5160 -0.6414  0.3887
 9412SOL    HW133923   8.469   8.689   4.403 -2.2627 -4.0215 -1.3692
 9412SOL    HW233924   8.341   8.670   4.502 -0.5525 -1.6167  1.3830
 9413SOL     OW33925   2.997   4.798   2.854  0.3950  0.0999  0.5933
 9413SOL    HW133926   2.917   4.858   2.863 -0.8019 -1.2015 -0.9514
 9413SOL    HW233927   3.027   4.768   2.944 -0.5229  1.0532  1.2259
 9414SOL     OW33928   8.600   7.590   3.660 -0.2147 -0.1879  0.0110
 9414SOL    HW133929   8.561   7.503   3.690 -0.9029 -0.2012 -0.9090
 9414SOL    HW233930   8.536   7.636   3.599  0.7590  0.3023 -0.6511
 9415SOL     OW33931   5.957   0.662   2.481 -0.1892  0.3250 -0.0772
 9415SOL    HW133932   6.008   0.748   2.488 -0.7306  0.7754 -1.4912
 9415SOL    HW233933   5.898   0.652   2.561  1.0679  0.4730  0.8903
 9416SOL     OW33934   3.970   5.234   2.365  0.3428 -0.3263  0.3447
 9416SOL    HW133935   3.952   5.273   2.275 -1.0246  0.5484  0.9924
 9416SOL    HW233936   3.945   5.300   2.436  0.2702 -1.4696  1.3950
 9417SOL     OW33937   0.214   5.306   0.364  0.0293  0.1989  0.3292
 9417SOL    HW133938   0.303   5.273   0.397  0.2367 -1.4142 -1.7465
 9417SOL    HW233939   0.150   5.230   0.359 -0.4555  0.7056 -1.4480
 9418SOL     OW33940   8.570   4.156   5.044 -0.5516 -0.0900  0.0295
 9418SOL    HW133941   8.591   4.095   4.968 -0.2981 -1.6242  1.3076
 9418SOL    HW233942   8.539   4.244   5.008 -0.4549 -0.7901 -1.8387
 9419SOL     OW33943   0.946   8.354   5.680 -0.5109  0.2566 -0.1822
 9419SOL    HW133944   0.848   8.338   5.671 -0.5237  0.1203  0.2003
 9419SOL    HW233945   0.996   8.272   5.653 -0.5643 -0.3087  1.4240
 9420SOL     OW33946   0.637   3.052   4.159 -0.1861 -0.0323  0.6877
 9420SOL    HW133947   0.699   2.989   4.205  0.4954 -0.7755 -1.1807
 9420SOL    HW233948   0.601   3.118   4.225 -0.6914 -2.1847  2.6353
 9421SOL     OW33949   5.828   2.440   5.294  0.4750 -0.2787  0.3398
 9421SOL    HW133950   5.747   2.440   5.237  1.1768  0.2242 -0.6725
 9421SOL    HW233951   5.802   2.432   5.390 -0.7941  0.4296  0.0554
 9422SOL     OW33952   1.904   4.087   4.367  0.3534 -0.6287 -0.4950
 9422SOL    HW133953   1.924   4.143   4.448 -1.3826 -0.6333 -0.0265
 9422SOL    HW233954   1.850   4.142   4.302 -0.2185 -1.3309 -0.6201
 9423SOL     OW33955   8.405   8.556   1.202  0.2339  0.3282 -0.1926
 9423SOL    HW133956   8.467   8.627   1.236 -0.6270  0.5508  0.9375
 9423SOL    HW233957   8.453   8.499   1.136  2.2035 -0.5918  1.9558
 9424SOL     OW33958   4.880   1.108   4.392  0.2851  0.0178  0.5245
 9424SOL    HW133959   4.921   1.140   4.307  1.6143 -1.1222  0.7103
 9424SOL    HW233960   4.888   1.008   4.397 -2.5885 -0.2537  0.5443
 9425SOL     OW33961   8.944   7.373   1.967  0.2586 -0.4212 -0.7028
 9425SOL    HW133962   8.936   7.336   1.875  1.3669 -0.4253 -0.8052
 9425SOL    HW233963   8.934   7.473   1.963  0.3887 -0.4135 -0.8315
 9426SOL     OW33964   0.892   9.926   6.314 -0.2411  0.4939  0.0631
 9426SOL    HW133965   0.929   9.845   6.269 -1.2250 -0.0855  0.2873
 9426SOL    HW233966   0.898  10.004   6.252  1.7775  0.5253  0.2587
 9427SOL     OW33967   4.351   0.657   2.437 -0.0070 -0.2268  0.1830
 9427SOL    HW133968   4.335   0.560   2.419  0.4310 -0.4670  1.0832
 9427SOL    HW233969   4.297   0.712   2.373 -1.9717 -1.0330  1.0994
 9428SOL     OW33970   4.977   6.209   1.133  0.1647  0.1631 -0.3356
 9428SOL    HW133971   4.945   6.267   1.058  1.2501  1.9246  0.5255
 9428SOL    HW233972   4.912   6.213   1.208 -0.2027 -0.4578 -0.6154
 9429SOL     OW33973   1.756   5.646   5.179  0.0865 -0.1786  0.1419
 9429SOL    HW133974   1.711   5.681   5.097  1.2510 -0.0665 -0.4585
 9429SOL    HW233975   1.720   5.555   5.201  0.2445 -0.4843 -0.8640
 9430SOL     OW33976   4.384   7.820   6.332  0.6843  0.1893 -0.3592
 9430SOL    HW133977   4.483   7.809   6.331  0.6356 -0.4155  0.8300
 9430SOL    HW233978   4.344   7.760   6.401 -0.4563  0.8710 -0.4059
 9431SOL     OW33979   9.720   2.351   3.540 -0.0107  0.7063  0.0864
 9431SOL    HW133980   9.777   2.269   3.547 -0.2961  0.5737  0.8700
 9431SOL    HW233981   9.672   2.350   3.452 -0.1858 -0.0734  0.1853
 9432SOL     OW33982   7.633   4.721   6.137 -0.1582  0.5783 -0.2468
 9432SOL    HW133983   7.646   4.670   6.222  0.7945  2.1992  0.5981
 9432SOL    HW233984   7.592   4.660   6.068 -2.6603 -0.2685  1.8862
 9433SOL     OW33985   6.542   8.885   4.154  0.5841 -0.3993  0.0295
 9433SOL    HW133986   6.567   8.889   4.057 -0.2896  2.3896 -0.1163
 9433SOL    HW233987   6.444   8.904   4.164  0.8524  0.2629  1.5211
 9434SOL     OW33988   3.137   6.474   1.426 -0.1573 -0.1715 -0.4784
 9434SOL    HW133989   3.137   6.547   1.357 -1.4285  0.6313  0.3615
 9434SOL    HW233990   3.150   6.386   1.380  0.1870  0.4583 -1.6288
 9435SOL     OW33991   2.303   9.270   2.476 -0.3053 -0.0528 -0.0480
 9435SOL    HW133992   2.352   9.310   2.399  2.6630 -1.4517  1.0002
 9435SOL    HW233993   2.247   9.339   2.521  0.3627  1.5102 -1.5959
 9436SOL     OW33994   2.549   4.823   1.525  0.1152 -0.7002 -0.7590
 9436SOL    HW133995   2.452   4.800   1.532 -0.0677  0.2038 -0.1077
 9436SOL    HW233996   2.566   4.868   1.438 -0.1426 -0.4510 -0.6826
 9437SOL     OW33997   3.376   1.541   1.162 -0.3443  0.0321 -0.2682
 9437SOL    HW133998   3.419   1.594   1.089 -1.4872  0.2525 -0.8108
 9437SOL    HW233999   3.405   1.446   1.156  0.5290  0.2935 -0.2436
 9438SOL     OW34000   3.619   8.245   5.399  0.7064 -0.0329 -0.2617
 9438SOL    HW134001   3.614   8.262   5.498 -0.0947  2.0958 -0.6373
 9438SOL    HW234002   3.649   8.151   5.383  1.3513 -0.2531  2.0050
 9439SOL     OW34003   8.964   9.536   4.940 -0.1892 -0.7463  0.0328
 9439SOL    HW134004   8.972   9.458   4.879  0.2898 -1.9164  1.5536
 9439SOL    HW234005   9.054   9.559   4.978 -0.7062 -1.0627  1.5140
 9440SOL     OW34006   3.791   6.713   3.500  0.3995 -0.1251 -0.2119
 9440SOL    HW134007   3.780   6.750   3.592  0.5792 -0.6077  0.0048
 9440SOL    HW234008   3.719   6.646   3.482  0.5097 -0.2136 -0.3302
 9441SOL     OW34009   1.661   2.318   6.393 -0.2565  0.0731 -0.9359
 9441SOL    HW134010   1.604   2.393   6.360  1.4069  0.6631 -2.6054
 9441SOL    HW234011   1.751   2.353   6.417  0.2894 -1.2550 -0.9826
 9442SOL     OW34012   7.733   7.838   4.910  0.2516  0.4040 -0.3359
 9442SOL    HW134013   7.722   7.880   4.820 -2.5739  0.9444  0.2110
 9442SOL    HW234014   7.644   7.811   4.945  1.3800 -0.3343  2.0601
 9443SOL     OW34015   3.814   1.762   4.174  0.3478 -0.1428 -0.0488
 9443SOL    HW134016   3.778   1.782   4.083  1.0138  0.4052 -0.1936
 9443SOL    HW234017   3.745   1.786   4.243  0.5190  1.1256 -0.3094
 9444SOL     OW34018   9.524   9.169   2.782 -0.4645  0.1569  0.2414
 9444SOL    HW134019   9.621   9.171   2.757 -0.5358  0.2359 -0.0296
 9444SOL    HW234020   9.516   9.154   2.881 -0.1903 -1.0439  0.0918
 9446SOL     OW34021   4.776   7.287   2.601  0.2324 -0.0150 -0.3275
 9446SOL    HW134022   4.862   7.252   2.564 -0.9585  0.2462 -3.5181
 9446SOL    HW234023   4.780   7.387   2.604 -0.3112  0.0514 -1.4732
 9447SOL     OW34024   0.477   5.532   5.573 -0.2485 -0.2692  0.0673
 9447SOL    HW134025   0.574   5.521   5.594 -0.1319 -0.6711 -0.6452
 9447SOL    HW234026   0.432   5.580   5.648  0.6598  0.6655  0.0299
 9448SOL     OW34027   3.290   3.472   3.225 -0.1026  0.1907  0.5982
 9448SOL    HW134028   3.224   3.463   3.151  0.3382 -1.1335  0.3496
 9448SOL    HW234029   3.312   3.569   3.239 -1.2899  0.5566 -0.0141
 9449SOL     OW34030   5.347   7.560   4.102 -0.2482 -0.2058 -0.2586
 9449SOL    HW134031   5.298   7.483   4.142 -0.1842  0.4214  1.0711
 9449SOL    HW234032   5.433   7.528   4.061  0.2901 -0.7039  1.2123
 9450SOL     OW34033   8.673   6.167   2.222  0.2660 -0.5965  0.5907
 9450SOL    HW134034   8.665   6.079   2.270  0.1052 -0.6162  0.5310
 9450SOL    HW234035   8.601   6.173   2.152 -0.1392 -0.1309  1.0470
 9452SOL     OW34036   9.544   9.611   1.676 -0.1381 -0.2539  0.3389
 9452SOL    HW134037   9.533   9.617   1.576  0.7839 -2.0961  0.1087
 9452SOL    HW234038   9.510   9.523   1.708 -0.1505  0.2098  1.6308
 9453SOL     OW34039   1.235   5.224   2.641 -0.2445 -0.1329  0.4191
 9453SOL    HW134040   1.136   5.209   2.639 -0.2623 -0.1192  0.9402
 9453SOL    HW234041   1.256   5.314   2.602 -0.6002  0.5840  1.8339
 9454SOL     OW34042   5.245   2.516   4.283 -0.0960  0.1616  0.0365
 9454SOL    HW134043   5.335   2.559   4.271  0.3311 -0.5490  0.6282
 9454SOL    HW234044   5.220   2.469   4.199  0.7972 -0.9294  0.3560
 9455SOL     OW34045   2.768   2.283   6.025 -0.5887 -0.8974  0.3457
 9455SOL    HW134046   2.678   2.327   6.024 -0.3521 -0.4192 -0.5831
 9455SOL    HW234047   2.783   2.238   5.937 -0.0254 -1.2065  0.6011
 9456SOL     OW34048   1.528   0.017   3.265 -0.0381  0.3269  0.2416
 9456SOL    HW134049   1.540   0.016   3.166 -1.4786  0.7518  0.0455
 9456SOL    HW234050   1.588   0.085   3.306  2.0557 -1.2520 -0.1087
 9457SOL     OW34051   7.140   1.400   5.081 -0.1375 -0.5158  0.0429
 9457SOL    HW134052   7.214   1.360   5.026 -0.2445 -0.4307 -0.1630
 9457SOL    HW234053   7.104   1.330   5.143  1.8354  0.1442  1.9676
 9458SOL     OW34054   1.169   4.640   6.188 -0.5549 -0.3955  0.2967
 9458SOL    HW134055   1.084   4.615   6.141 -0.9492  0.6988  0.4080
 9458SOL    HW234056   1.175   4.739   6.194 -0.2877 -0.5151  2.1859
 9459SOL     OW34057   6.849   0.493   0.829  0.0272  0.2374  0.5333
 9459SOL    HW134058   6.775   0.482   0.764  0.7237  1.0702 -0.4128
 9459SOL    HW234059   6.936   0.470   0.786  0.8131  3.3389  0.3060
 9460SOL     OW34060   2.329   5.789   3.605  0.3302 -0.4616 -0.2969
 9460SOL    HW134061   2.309   5.741   3.520 -2.4494 -0.3578  0.2732
 9460SOL    HW234062   2.310   5.887   3.592  0.8094 -0.3044  0.1820
 9461SOL     OW34063   7.844   4.668   2.822 -0.4873  0.3873 -0.6883
 9461SOL    HW134064   7.929   4.665   2.769  1.9421 -0.5066  3.0820
 9461SOL    HW234065   7.817   4.575   2.846 -2.8669  0.6257 -2.2216
 9462SOL     OW34066   2.754   9.877   5.375 -0.0920  0.0873 -0.7108
 9462SOL    HW134067   2.758   9.953   5.440  0.1658  0.3078 -0.9805
 9462SOL    HW234068   2.668   9.881   5.324 -0.4402 -0.2754 -0.1580
 9463SOL     OW34069   9.006   7.735   0.997  0.8232 -0.0353  0.4326
 9463SOL    HW134070   8.958   7.647   1.003  1.1968 -0.2544  0.1605
 9463SOL    HW234071   9.001   7.781   1.086  0.1871 -0.1003  0.4328
 9465SOL     OW34072   3.361   9.465   4.589  0.0591  0.2844 -0.2484
 9465SOL    HW134073   3.418   9.401   4.639 -0.2313 -1.8145 -2.5382
 9465SOL    HW234074   3.272   9.423   4.569 -0.1241  1.3516 -1.8107
 9466SOL     OW34075   1.915   7.685   5.340 -0.1469 -0.5965  0.2626
 9466SOL    HW134076   1.992   7.663   5.399 -0.8500 -1.2583  0.9471
 9466SOL    HW234077   1.833   7.637   5.372 -0.9754  0.5193 -0.1286
 9467SOL     OW34078   4.110   7.435   4.579  0.0027  0.2436  0.3301
 9467SOL    HW134079   4.049   7.425   4.500  0.2927  0.5099  0.0696
 9467SOL    HW234080   4.130   7.344   4.616  0.2794  0.0745 -0.2238
 9468SOL     OW34081   3.368   8.824   2.768  0.6238 -0.3002 -0.3329
 9468SOL    HW134082   3.428   8.751   2.737  0.1051 -0.5560 -0.7599
 9468SOL    HW234083   3.394   8.853   2.859 -0.3694 -2.3741  0.6565
 9471SOL     OW34084   4.562   5.716   1.349  0.0931 -0.1596  0.2073
 9471SOL    HW134085   4.643   5.771   1.327  0.8284 -1.3874 -0.1750
 9471SOL    HW234086   4.508   5.764   1.419  1.9983 -0.0831  1.6924
 9472SOL     OW34087   6.669   3.920   1.414  0.1652 -0.3698 -0.2061
 9472SOL    HW134088   6.704   3.992   1.474  0.9807  0.1032 -1.2445
 9472SOL    HW234089   6.701   3.936   1.321 -3.6255  0.6558 -1.4232
 9473SOL     OW34090   9.583   2.665   0.977 -0.2100 -0.4333  0.0563
 9473SOL    HW134091   9.589   2.710   0.888 -2.3817 -0.5862 -0.2024
 9473SOL    HW234092   9.602   2.568   0.966 -0.5956 -0.4744 -0.2827
 9474SOL     OW34093   2.831   2.973   2.342  1.0199 -0.3261  0.8358
 9474SOL    HW134094   2.771   3.025   2.280  1.0432 -1.7195 -0.3575
 9474SOL    HW234095   2.855   2.886   2.301 -0.0740 -1.8945  3.3774
 9475SOL     OW34096   0.497   3.954   1.416 -0.4085  0.1722 -0.3172
 9475SOL    HW134097   0.515   3.895   1.338  0.9826  0.0601  0.0793
 9475SOL    HW234098   0.583   3.994   1.448 -0.9341  0.0126  1.3176
 9476SOL     OW34099   5.169   8.629   2.581 -0.4381  0.1188 -0.1888
 9476SOL    HW134100   5.258   8.627   2.536 -1.0752 -0.2052 -1.4409
 9476SOL    HW234101   5.181   8.610   2.679  1.0522  1.7664 -0.0337
 9477SOL     OW34102   8.779   3.801   2.048 -0.3957  0.1014  0.8500
 9477SOL    HW134103   8.848   3.778   1.979 -1.6884  0.5148 -0.6179
 9477SOL    HW234104   8.717   3.724   2.060 -0.2297  0.0667  1.4913
 9478SOL     OW34105   0.913   0.572   3.645 -0.3086  0.1888  0.0579
 9478SOL    HW134106   0.953   0.567   3.554 -0.0884  0.6594  0.1308
 9478SOL    HW234107   0.973   0.525   3.711 -0.4888 -0.1877 -0.0467
 9479SOL     OW34108   1.321   6.377   4.826  0.0059  0.1517 -0.5439
 9479SOL    HW134109   1.291   6.309   4.893 -0.3177 -0.6425 -1.4796
 9479SOL    HW234110   1.393   6.338   4.769 -0.4152  0.4860 -1.3050
 9480SOL     OW34111   9.716   2.662   4.222 -0.3388 -0.1678  0.4538
 9480SOL    HW134112   9.686   2.678   4.128 -0.2838  0.9303  0.6179
 9480SOL    HW234113   9.658   2.592   4.264  0.2743 -1.3857 -0.7165
 9481SOL     OW34114   9.921   9.787   3.454 -0.2051  0.5906 -0.2450
 9481SOL    HW134115   9.892   9.698   3.488 -1.0620  0.0494 -2.2770
 9481SOL    HW234116   9.997   9.776   3.390 -0.1339  1.3222 -0.2953
 9483SOL     OW34117   4.001   4.506   6.109  0.4768  0.1984  0.2458
 9483SOL    HW134118   3.951   4.479   6.026 -0.7494 -2.0127  1.6555
 9483SOL    HW234119   3.962   4.591   6.145  0.0284  0.3544 -0.5914
 9484SOL     OW34120   3.284   4.638   1.221 -0.1953 -0.5858  0.3554
 9484SOL    HW134121   3.313   4.713   1.161 -1.7750  0.7769  1.2415
 9484SOL    HW234122   3.200   4.664   1.269  0.8064 -1.7869  2.8845
 9485SOL     OW34123   8.562   6.089   1.161 -0.6844 -0.5134  0.0482
 9485SOL    HW134124   8.646   6.037   1.141 -0.6071  0.0587 -1.1538
 9485SOL    HW234125   8.573   6.138   1.248 -0.1101 -1.1426  0.3351
 9486SOL     OW34126   5.960   1.584   2.902 -0.3545 -0.5652  0.3904
 9486SOL    HW134127   5.900   1.646   2.954  0.7295  0.6652  0.2082
 9486SOL    HW234128   5.994   1.512   2.961 -0.4292 -0.1165  0.9816
 9487SOL     OW34129   2.310   4.001   3.356  0.3575 -0.4694  0.3869
 9487SOL    HW134130   2.328   3.923   3.416 -0.9948 -0.8784  0.2750
 9487SOL    HW234131   2.283   3.967   3.266 -1.5506  0.1171  0.7228
 9489SOL     OW34132   9.853   4.757   4.019 -0.1742 -0.0218  0.3790
 9489SOL    HW134133   9.828   4.786   4.111 -1.6973 -1.9761  0.5979
 9489SOL    HW234134   9.865   4.658   4.016  2.3289  0.2800 -0.9767
 9490SOL     OW34135   0.543   6.426   2.173  0.2504  0.0586 -0.4591
 9490SOL    HW134136   0.555   6.342   2.121  0.0536 -1.0764  1.3265
 9490SOL    HW234137   0.620   6.439   2.235  0.7875  1.7317 -1.4101
 9491SOL     OW34138   1.131   7.369   1.770 -0.6689  0.1703 -0.4728
 9491SOL    HW134139   1.160   7.428   1.846 -1.4431 -1.7088  1.3532
 9491SOL    HW234140   1.209   7.315   1.738 -0.6872 -0.2035  0.0961
 9492SOL     OW34141   4.155   1.650   1.055  0.0372  0.1300 -0.2813
 9492SOL    HW134142   4.085   1.579   1.047  1.6825 -1.6601  0.6777
 9492SOL    HW234143   4.128   1.715   1.126 -0.0287 -1.3256  1.0614
 9494SOL     OW34144   1.245   3.068   0.386  0.1530  0.4716  0.0179
 9494SOL    HW134145   1.159   3.118   0.374  0.3193  0.8781  0.4946
 9494SOL    HW234146   1.320   3.119   0.345  0.2474  0.3773  0.0716
 9495SOL     OW34147   8.606   6.698   3.800 -0.0049 -0.5799  0.4237
 9495SOL    HW134148   8.575   6.757   3.726  0.4964 -1.1069 -0.2045
 9495SOL    HW234149   8.591   6.602   3.775  0.6428 -0.7770  0.7846
 9496SOL     OW34150   7.283   7.795   4.622 -0.3262  0.1964 -0.6032
 9496SOL    HW134151   7.354   7.860   4.650 -1.6211  1.3953  0.0022
 9496SOL    HW234152   7.239   7.757   4.703 -0.1999 -0.7506 -0.9741
 9497SOL     OW34153   7.918   8.013   5.017  0.8077 -0.8746  0.4714
 9497SOL    HW134154   7.849   7.941   5.020  0.6022 -0.6812  0.4102
 9497SOL    HW234155   7.983   7.994   4.943  0.2802 -0.5669 -0.0765
 9498SOL     OW34156   7.171   9.084   4.810  0.2400  0.1113 -0.1450
 9498SOL    HW134157   7.227   9.032   4.875  2.0352  0.2123 -1.5725
 9498SOL    HW234158   7.149   9.026   4.731  0.5282  0.8877 -0.8037
 9499SOL     OW34159   4.116   4.161   0.500 -0.4155  0.1137  0.4158
 9499SOL    HW134160   4.033   4.215   0.507 -0.7198 -0.3925  0.7815
 9499SOL    HW234161   4.129   4.108   0.585 -0.6745 -1.1720 -0.3289
 9501SOL     OW34162   2.673   5.533   0.455  0.3754  0.0265  0.2426
 9501SOL    HW134163   2.643   5.438   0.448  2.5019 -0.7768  1.4402
 9501SOL    HW234164   2.689   5.570   0.363 -0.0593 -0.9182 -0.2113
 9503SOL     OW34165   3.722   8.177   5.711 -0.2283  0.5147 -0.1213
 9503SOL    HW134166   3.695   8.084   5.735  0.3295  1.2227  3.4566
 9503SOL    HW234167   3.822   8.185   5.716 -0.3306  1.5196  0.3636
 9504SOL     OW34168   2.778   4.048   0.668  0.1268 -0.5209 -0.0433
 9504SOL    HW134169   2.699   4.053   0.729  0.0717  0.4728 -0.1818
 9504SOL    HW234170   2.803   3.953   0.653  0.0887 -0.7809  1.4690
 9505SOL     OW34171   4.647   7.381   3.080 -0.2064 -0.4230  0.3067
 9505SOL    HW134172   4.642   7.450   3.007 -3.4671 -0.5869  0.3063
 9505SOL    HW234173   4.667   7.426   3.167 -0.8665  0.3565  0.0632
 9506SOL     OW34174   1.229   6.643   4.666 -0.3542  0.0161  0.8124
 9506SOL    HW134175   1.182   6.567   4.711 -0.1444 -1.0582 -0.7203
 9506SOL    HW234176   1.326   6.641   4.691 -0.4555  0.0884  1.2008
 9507SOL     OW34177   7.209   0.595   5.846  0.0991 -0.3345 -0.4516
 9507SOL    HW134178   7.131   0.612   5.786  1.7641  2.3057 -1.9776
 9507SOL    HW234179   7.189   0.632   5.937 -0.4950  0.2807 -0.8250
 9508SOL     OW34180   4.878   2.094   4.441  0.9353  0.4819 -0.2531
 9508SOL    HW134181   4.811   2.167   4.448  1.0433  0.5797 -0.2462
 9508SOL    HW234182   4.831   2.006   4.436  0.7866  0.5821 -0.7208
 9509SOL     OW34183   2.162   1.477   5.498 -0.1976 -0.2945  0.5476
 9509SOL    HW134184   2.121   1.402   5.447  0.7936 -0.7262  0.3596
 9509SOL    HW234185   2.231   1.523   5.442 -0.8788  0.8420  0.6211
 9510SOL     OW34186   4.110   8.233   4.513 -0.4626 -0.7802 -0.0939
 9510SOL    HW134187   4.024   8.229   4.464 -1.6853 -0.8347  2.0105
 9510SOL    HW234188   4.115   8.319   4.565  0.9703 -0.5437 -0.5806
 9511SOL     OW34189   7.793   1.460   3.791  0.1028 -0.5708 -0.0994
 9511SOL    HW134190   7.745   1.374   3.774 -0.5856 -0.4937  1.3917
 9511SOL    HW234191   7.837   1.491   3.706 -1.5679 -1.1940 -1.2169
 9512SOL     OW34192   0.688   6.388   0.795  0.8207  0.0599 -0.4173
 9512SOL    HW134193   0.696   6.396   0.894  0.1995 -1.2204 -0.2454
 9512SOL    HW234194   0.779   6.372   0.756  0.9728 -0.1821  0.0265
 9513SOL     OW34195   8.847   1.521   4.222  0.6606 -0.0701 -0.2067
 9513SOL    HW134196   8.826   1.423   4.227 -0.2247  0.0866 -0.7437
 9513SOL    HW234197   8.767   1.570   4.190 -0.0103  1.2389  3.2246
 9514SOL     OW34198   6.906   1.394   1.352  0.7553 -0.4874 -0.8257
 9514SOL    HW134199   6.895   1.294   1.352 -0.1435 -0.3925 -0.2654
 9514SOL    HW234200   6.999   1.417   1.326  1.4432 -1.5284  0.6740
 9515SOL     OW34201   6.619   9.445   5.455  0.3057 -0.3909  0.1215
 9515SOL    HW134202   6.715   9.457   5.430 -0.2238 -0.1115 -1.9450
 9515SOL    HW234203   6.564   9.446   5.371 -1.6809  1.2786  1.4040
 9516SOL     OW34204   4.152   2.851   2.838 -0.0753  0.4966  0.0982
 9516SOL    HW134205   4.114   2.892   2.755  1.0921  0.7168 -0.3313
 9516SOL    HW234206   4.146   2.751   2.833 -2.2361  0.5691  0.8187
 9517SOL     OW34207   1.097   2.451   3.176  0.0152 -0.2406 -0.4517
 9517SOL    HW134208   1.176   2.412   3.129  0.1225  0.8634 -1.2049
 9517SOL    HW234209   1.129   2.510   3.251 -0.1189 -0.6781 -0.0502
 9518SOL     OW34210   1.828   5.981   0.499 -0.4611 -0.2381  0.0743
 9518SOL    HW134211   1.730   5.974   0.515 -0.5548 -0.2303 -0.4971
 9518SOL    HW234212   1.877   5.962   0.584 -0.9507 -0.4227  0.3154
 9520SOL     OW34213   3.323   1.668   6.074  0.3300  0.1016 -0.2994
 9520SOL    HW134214   3.412   1.658   6.031  0.5494 -1.5710  0.5200
 9520SOL    HW234215   3.251   1.652   6.006  0.6214  2.0404 -1.1009
 9521SOL     OW34216   2.452   6.580   2.150  0.0424 -0.3378  0.1505
 9521SOL    HW134217   2.476   6.513   2.221  0.3831 -0.7251 -0.3287
 9521SOL    HW234218   2.496   6.667   2.170  0.7352 -0.6563  0.0121
 9522SOL     OW34219   0.549   1.433   5.698  0.4396  0.2082  0.4802
 9522SOL    HW134220   0.596   1.403   5.781 -0.4899 -0.5243  0.7516
 9522SOL    HW234221   0.450   1.434   5.715  0.4353  3.8897  0.6315
 9523SOL     OW34222   3.114   6.848   3.401 -0.4549 -0.1854  0.3821
 9523SOL    HW134223   3.186   6.893   3.454 -1.5112  0.9609  0.8870
 9523SOL    HW234224   3.035   6.832   3.460 -0.9482 -0.6038 -0.3906
 9524SOL     OW34225   0.074   8.024   0.498 -0.1640  0.2515 -0.0244
 9524SOL    HW134226   0.017   7.953   0.539 -0.5283  0.3243 -0.4032
 9524SOL    HW234227   0.068   8.107   0.553  0.4713 -0.0839  0.5697
 9525SOL     OW34228   9.166   8.408   2.625  1.1147  0.4742  0.5890
 9525SOL    HW134229   9.265   8.397   2.617  1.1588  0.4186  1.1688
 9525SOL    HW234230   9.121   8.329   2.583  1.4055 -1.2085  3.3298
 9526SOL     OW34231   7.171   2.509   0.120  0.8131 -0.3519 -0.1675
 9526SOL    HW134232   7.151   2.606   0.110  1.1727 -0.1764  0.7453
 9526SOL    HW234233   7.270   2.495   0.117  0.7327 -0.7998 -1.1490
 9527SOL     OW34234   8.450   0.653   5.201  0.0666 -0.0747  0.3405
 9527SOL    HW134235   8.451   0.648   5.101  2.1714 -0.6500  0.3604
 9527SOL    HW234236   8.495   0.738   5.231 -0.3919  0.0077  0.8034
 9529SOL     OW34237   0.884   2.772   4.023  0.1898  0.1007 -0.0137
 9529SOL    HW134238   0.791   2.735   4.033  0.2642  0.1045  0.7771
 9529SOL    HW234239   0.884   2.842   3.951  0.0657 -1.4296 -1.5203
 9530SOL     OW34240   1.006   7.587   5.388 -0.3759  0.6685 -0.1080
 9530SOL    HW134241   1.038   7.670   5.434 -0.9670  1.3605 -0.9370
 9530SOL    HW234242   1.074   7.514   5.400  1.2456  1.9431 -1.3559
 9531SOL     OW34243   9.604   6.983   5.310  0.0062 -0.4742 -0.0014
 9531SOL    HW134244   9.672   6.998   5.238  0.3415 -0.5348  0.3045
 9531SOL    HW234245   9.570   6.889   5.304  1.4538 -1.0712  1.1364
 9532SOL     OW34246   1.499   7.219   2.378  0.1460 -0.2258  0.2973
 9532SOL    HW134247   1.569   7.225   2.450  0.3737 -0.6913  0.1114
 9532SOL    HW234248   1.515   7.291   2.310  0.9220 -0.8408 -0.1737
 9533SOL     OW34249   0.572   4.656   5.865 -0.5710  0.1939  0.4929
 9533SOL    HW134250   0.566   4.673   5.964  0.9636  2.3220  0.2446
 9533SOL    HW234251   0.625   4.573   5.849 -0.7353 -0.1039  1.4400
 9534SOL     OW34252   1.205   5.566   1.163  0.2696  0.3129  0.0510
 9534SOL    HW134253   1.124   5.619   1.140 -1.9631 -3.2032 -0.5409
 9534SOL    HW234254   1.230   5.583   1.258 -1.3179  1.2165  0.3254
 9535SOL     OW34255   1.259   5.019   4.331 -0.7469 -0.2854 -0.1365
 9535SOL    HW134256   1.252   5.119   4.331  4.6005  0.2755  1.7383
 9535SOL    HW234257   1.267   4.986   4.237 -0.6479  1.2378 -0.6810
 9536SOL     OW34258   4.243   0.411   4.895 -0.2870  0.2065  0.2056
 9536SOL    HW134259   4.321   0.387   4.952  0.3728 -0.9167 -1.1547
 9536SOL    HW234260   4.271   0.414   4.799 -1.7243  0.6446 -0.2147
 9537SOL     OW34261   9.173   0.495   4.832  0.1922 -0.0843 -0.3493
 9537SOL    HW134262   9.196   0.515   4.927 -1.7427 -3.2513  0.8601
 9537SOL    HW234263   9.236   0.427   4.796 -0.7373 -0.9012 -0.4479
 9538SOL     OW34264   2.823   6.393   2.754 -0.1321  0.0269 -0.4432
 9538SOL    HW134265   2.811   6.413   2.851 -0.7306  0.2770 -0.5685
 9538SOL    HW234266   2.879   6.311   2.744 -2.9508 -2.0657  0.1952
 9539SOL     OW34267   7.400   7.136   5.850  0.0941 -0.4452 -0.4368
 9539SOL    HW134268   7.340   7.216   5.852 -0.3874 -0.7927 -0.7519
 9539SOL    HW234269   7.363   7.065   5.909 -0.0086 -0.7985 -0.9162
 9540SOL     OW34270   7.161   6.444   5.652 -0.3110 -0.5270 -0.0885
 9540SOL    HW134271   7.149   6.483   5.560 -0.7466 -1.9846 -0.6518
 9540SOL    HW234272   7.244   6.389   5.655  0.4741  0.6592  0.8055
 9542SOL     OW34273   8.167   5.630   4.506  0.6495  0.3403 -0.6979
 9542SOL    HW134274   8.081   5.679   4.495  0.6872  0.2731 -1.3248
 9542SOL    HW234275   8.194   5.629   4.602  1.0501  2.2461 -0.7819
 9543SOL     OW34276   2.320   6.912   6.205  0.2737  0.5515  0.3095
 9543SOL    HW134277   2.296   6.987   6.266  1.0104  0.1592  1.0899
 9543SOL    HW234278   2.288   6.933   6.112 -0.7961  1.1768  0.8054
 9544SOL     OW34279   2.635   0.685   1.991 -0.3355 -0.0443 -0.1214
 9544SOL    HW134280   2.709   0.723   1.937 -1.1610  1.0940 -0.4749
 9544SOL    HW234281   2.649   0.587   2.004  1.1769  0.1524 -0.2445
 9546SOL     OW34282   9.955   6.417   2.601  0.1492 -0.2629  0.4017
 9546SOL    HW134283   9.871   6.373   2.631  0.0975 -0.4904 -0.0619
 9546SOL    HW234284   9.935   6.487   2.532  0.3742 -0.6339 -0.0473
 9547SOL     OW34285   8.752   5.057   1.528 -0.3140 -0.3921 -0.2083
 9547SOL    HW134286   8.786   5.144   1.564 -2.4007  0.3962 -0.0429
 9547SOL    HW234287   8.703   5.008   1.601  0.6577 -1.6152 -0.3619
 9549SOL     OW34288   8.888   8.468   3.358 -0.3432 -0.0523  0.4180
 9549SOL    HW134289   8.964   8.411   3.326  0.1017  0.5325  0.4191
 9549SOL    HW234290   8.808   8.410   3.375  0.6538 -0.9500  2.2101
 9550SOL     OW34291   0.293   1.834   3.693 -0.3020 -0.4330  0.1832
 9550SOL    HW134292   0.355   1.786   3.755  1.4416  1.0763 -0.3480
 9550SOL    HW234293   0.278   1.927   3.726  0.8068  0.4590 -1.7310
 9551SOL     OW34294   4.032   8.007   5.609 -0.1025 -0.2676  0.1817
 9551SOL    HW134295   3.964   7.933   5.614 -1.4218  1.0250  1.8534
 9551SOL    HW234296   4.058   8.034   5.702  1.3238  0.5178 -0.4437
 9554SOL     OW34297   0.781   4.772   2.792  0.6306  0.2453  0.0322
 9554SOL    HW134298   0.755   4.862   2.757  1.9282  0.7361  0.2836
 9554SOL    HW234299   0.729   4.753   2.875 -1.6726 -0.4611 -1.5478
 9555SOL     OW34300   3.948   2.660   1.495 -0.0622  0.0022  0.0655
 9555SOL    HW134301   3.935   2.576   1.443  0.5540 -0.1470  0.1533
 9555SOL    HW234302   3.979   2.733   1.433  0.3856 -0.0986  0.1714
 9557SOL     OW34303   5.808   7.584   5.868 -0.2504 -0.6788 -0.3841
 9557SOL    HW134304   5.718   7.543   5.853 -0.2224 -0.6433 -0.6388
 9557SOL    HW234305   5.797   7.681   5.887 -0.3425 -0.8582  0.5324
 9558SOL     OW34306   7.134   1.911   0.948  0.4668  0.4432  0.2873
 9558SOL    HW134307   7.162   1.952   0.860 -2.2009 -1.6947 -1.6264
 9558SOL    HW234308   7.212   1.862   0.987  1.7252  1.4997 -0.7875
 9559SOL     OW34309   0.589   8.188   4.079 -0.0801  0.1308 -0.4354
 9559SOL    HW134310   0.642   8.117   4.034  2.0048  0.5639  1.2755
 9559SOL    HW234311   0.579   8.267   4.019 -3.0469 -1.8055 -2.6413
 9560SOL     OW34312   6.419   2.147   5.906 -0.3777  0.5817 -0.4417
 9560SOL    HW134313   6.517   2.163   5.921 -0.7850  2.2636  0.5160
 9560SOL    HW234314   6.393   2.182   5.817 -0.2758  0.9123 -0.3433
 9561SOL     OW34315   7.826   9.851   1.839  0.0783 -0.1018  0.1035
 9561SOL    HW134316   7.912   9.898   1.857  0.2866 -0.1810 -0.6825
 9561SOL    HW234317   7.845   9.758   1.808 -0.2489  0.4292 -1.7068
 9562SOL     OW34318   3.971   3.070   4.682  0.1634  0.1686  0.3126
 9562SOL    HW134319   4.062   3.029   4.688 -0.1687 -0.4828  0.9707
 9562SOL    HW234320   3.904   2.999   4.661 -0.2737  0.5608  0.3733
 9563SOL     OW34321   2.295   2.676   1.531  0.4448  0.2092  0.0439
 9563SOL    HW134322   2.320   2.705   1.623  1.1381 -2.8686  0.8710
 9563SOL    HW234323   2.378   2.658   1.478  0.1133 -2.9979  0.5026
 9564SOL     OW34324   8.454   5.458   2.525  0.2039 -0.5059  0.3066
 9564SOL    HW134325   8.384   5.393   2.555 -0.2592 -0.3370 -0.3929
 9564SOL    HW234326   8.448   5.470   2.426  0.7010  0.1276  0.3490
 9566SOL     OW34327   5.427   1.266   5.163 -0.0590  0.4258  0.2196
 9566SOL    HW134328   5.364   1.302   5.095 -0.7365 -0.2179  0.4916
 9566SOL    HW234329   5.375   1.214   5.231  0.8051 -0.3919  0.2597
 9567SOL     OW34330   5.526   7.495   5.854 -0.1160 -0.2956  0.0597
 9567SOL    HW134331   5.429   7.509   5.874  0.1799 -0.6329  1.8605
 9567SOL    HW234332   5.557   7.561   5.785 -2.0556 -1.3954 -1.9103
 9568SOL     OW34333   1.165   9.835   3.212  0.2266 -0.3627  0.6728
 9568SOL    HW134334   1.120   9.824   3.300  1.1479  1.3595  1.3698
 9568SOL    HW234335   1.260   9.802   3.218  0.0682 -0.9328  0.1164
 9570SOL     OW34336   7.046   8.895   5.980 -0.1744 -0.3913 -0.0982
 9570SOL    HW134337   6.979   8.821   5.988  0.5080 -1.3371 -2.8349
 9570SOL    HW234338   7.013   8.975   6.031 -3.2093 -0.9820 -1.0346
 9571SOL     OW34339   7.853   2.177   5.246 -0.3374  0.1183 -0.6208
 9571SOL    HW134340   7.760   2.150   5.224 -0.0387 -0.1908 -1.5272
 9571SOL    HW234341   7.879   2.138   5.334 -1.2386  0.6302 -0.1304
 9572SOL     OW34342   3.969   4.116   0.137  0.3235 -0.3558  0.1189
 9572SOL    HW134343   3.925   4.195   0.095 -0.2637 -0.6182  0.2337
 9572SOL    HW234344   4.007   4.057   0.066  1.8193  0.6344  0.0846
 9574SOL     OW34345   3.261   7.065   1.219 -0.2389  0.7076 -0.2532
 9574SOL    HW134346   3.332   7.116   1.172 -0.8516  2.0375  0.2499
 9574SOL    HW234347   3.194   7.032   1.153 -0.1869  1.0912 -0.4964
 9575SOL     OW34348   1.808   4.995   3.595 -0.4005  0.0565  0.3791
 9575SOL    HW134349   1.744   4.924   3.563 -0.3068 -0.6578  1.7382
 9575SOL    HW234350   1.791   5.013   3.692 -0.1302  1.6019  0.1365
 9576SOL     OW34351   2.081   7.644   1.278  0.7634 -0.4057  0.5356
 9576SOL    HW134352   2.070   7.669   1.181 -2.1246 -3.1275  0.0847
 9576SOL    HW234353   2.066   7.724   1.335 -0.7021  0.5431 -1.1518
 9577SOL     OW34354   1.642   9.116   5.608  0.4050  0.0869  0.9157
 9577SOL    HW134355   1.695   9.201   5.617  0.0249  0.2512  1.6265
 9577SOL    HW234356   1.662   9.074   5.519  1.6217  0.2140  1.1126
 9578SOL     OW34357   4.578   7.532   6.254 -0.4537  0.3899 -1.2083
 9578SOL    HW134358   4.486   7.506   6.285 -0.5054  1.5414 -0.3839
 9578SOL    HW234359   4.641   7.529   6.331  0.0508  0.3048 -1.6237
 9580SOL     OW34360   2.836   3.338   6.012 -0.1899 -0.2765 -0.0584
 9580SOL    HW134361   2.930   3.322   6.041  0.1070 -0.3620 -1.0630
 9580SOL    HW234362   2.835   3.368   5.917 -1.2504 -1.3561 -0.4069
 9581SOL     OW34363   1.888   5.136   5.988  0.3015  0.9146 -0.0297
 9581SOL    HW134364   1.906   5.043   6.019  0.4645  1.1609  0.6102
 9581SOL    HW234365   1.791   5.158   6.000  0.2804  0.8620 -0.0999
 9583SOL     OW34366   9.149   9.582   3.756 -0.0625  0.4545  0.6391
 9583SOL    HW134367   9.171   9.675   3.728  2.3622 -0.7482 -1.6280
 9583SOL    HW234368   9.222   9.546   3.814 -0.9445 -0.1112  1.4294
 9584SOL     OW34369   2.572   5.311   0.327  0.0487 -0.0317 -0.3625
 9584SOL    HW134370   2.476   5.286   0.340 -0.0965  0.2407 -0.9057
 9584SOL    HW234371   2.597   5.298   0.231  0.7456 -0.7592 -0.0934
 9585SOL     OW34372   2.120   7.102   6.375  0.0068 -0.1960 -0.8446
 9585SOL    HW134373   2.076   7.012   6.373 -0.1463 -0.1427 -0.1000
 9585SOL    HW234374   2.085   7.158   6.300 -2.3295  0.3718  0.6349
 9586SOL     OW34375   9.021   0.931   3.699 -0.5176  0.0581 -0.0590
 9586SOL    HW134376   9.052   1.013   3.748  0.2233 -1.2639  1.7245
 9586SOL    HW234377   8.942   0.955   3.643  0.0168  2.1275  0.0082
 9587SOL     OW34378   5.686   8.015   4.200 -0.2612  0.5221  0.4009
 9587SOL    HW134379   5.605   7.998   4.257 -0.1234 -0.9487  0.1709
 9587SOL    HW234380   5.754   7.944   4.217  0.6500  1.2830 -0.0358
 9589SOL     OW34381   8.535   6.339   6.197  0.3616 -0.2589  0.5288
 9589SOL    HW134382   8.578   6.416   6.149  0.3058 -0.5998 -0.0695
 9589SOL    HW234383   8.578   6.254   6.169  0.7972 -0.3943  1.6200
 9590SOL     OW34384   9.531   0.997   4.126  0.0957 -0.1828 -0.4134
 9590SOL    HW134385   9.452   0.936   4.132  0.1684 -0.2181  0.1795
 9590SOL    HW234386   9.533   1.040   4.035 -0.9055  0.2153 -0.2545
 9592SOL     OW34387   2.645   8.597   2.635 -0.2411 -0.3449  0.0370
 9592SOL    HW134388   2.547   8.613   2.625 -0.3387 -0.7607  0.3045
 9592SOL    HW234389   2.675   8.530   2.567 -0.1597 -0.2838  0.0128
 9593SOL     OW34390   9.811   6.450   6.186  0.1024  0.5539 -0.4998
 9593SOL    HW134391   9.846   6.359   6.166 -0.3862  0.5262 -1.2669
 9593SOL    HW234392   9.716   6.457   6.155  0.0493  1.2429 -0.2109
 9594SOL     OW34393   2.501   3.760   2.501 -0.0760  0.2839 -0.2215
 9594SOL    HW134394   2.401   3.767   2.502 -0.1240 -0.1383 -1.6793
 9594SOL    HW234395   2.529   3.683   2.558 -0.6943 -0.7295 -1.2671
 9595SOL     OW34396   9.605   3.709   3.584 -0.0096  0.1205 -0.3250
 9595SOL    HW134397   9.618   3.715   3.683  1.5408  1.5601 -0.6062
 9595SOL    HW234398   9.549   3.628   3.563 -0.0663 -0.3885  1.6868
 9596SOL     OW34399   1.825   5.316   3.174 -0.3484  0.1378 -0.6166
 9596SOL    HW134400   1.865   5.246   3.233  4.0394  2.6756 -0.3569
 9596SOL    HW234401   1.765   5.374   3.229 -2.6437 -2.2704 -0.4696
 9597SOL     OW34402   8.945   6.581   4.527  0.0504  0.4725 -0.1412
 9597SOL    HW134403   8.968   6.551   4.434 -1.6046  1.0367 -0.7522
 9597SOL    HW234404   8.967   6.678   4.536  1.0547  0.2099  0.3631
 9598SOL     OW34405   6.165   7.966   2.790 -0.7357 -0.0633  0.3962
 9598SOL    HW134406   6.157   8.001   2.697  0.1304 -0.7082  0.0727
 9598SOL    HW234407   6.088   7.905   2.809  0.5077 -2.0834 -0.8705
 9599SOL     OW34408   6.635   9.460   4.209  0.2693 -0.1846 -0.5564
 9599SOL    HW134409   6.630   9.552   4.171  0.1822 -0.4990 -1.3183
 9599SOL    HW234410   6.605   9.461   4.305 -1.0239  0.3376 -0.9621
 9600SOL     OW34411   7.891   0.653   0.746 -0.3644 -0.0038 -0.2010
 9600SOL    HW134412   7.913   0.702   0.662 -0.7524 -0.2307 -0.4331
 9600SOL    HW234413   7.802   0.609   0.737  0.1359 -1.0291 -0.1028
 9601SOL     OW34414   6.954   3.462   2.429 -0.6161 -0.1049  0.0247
 9601SOL    HW134415   7.004   3.539   2.467  0.9546 -0.7290 -0.7217
 9601SOL    HW234416   6.990   3.377   2.467 -2.6667 -0.4766  1.2217
 9602SOL     OW34417   4.997   0.405   4.100  0.3483  0.1296  0.2029
 9602SOL    HW134418   4.978   0.318   4.054 -1.6792  0.7457 -0.1700
 9602SOL    HW234419   5.039   0.468   4.035  1.3715 -0.4011  0.3417
 9605SOL     OW34420   6.519   1.829   2.047 -0.2072 -0.1531 -0.0985
 9605SOL    HW134421   6.480   1.914   2.011  1.8596  0.7026 -0.3823
 9605SOL    HW234422   6.447   1.760   2.053 -1.8858  1.5530 -0.0223
 9606SOL     OW34423   2.629   8.821   5.539 -0.4931  0.2747 -0.2526
 9606SOL    HW134424   2.663   8.730   5.562  0.4678  0.0652 -2.3062
 9606SOL    HW234425   2.705   8.879   5.511 -1.1103  1.6939  0.9699
 9607SOL     OW34426   5.582   7.944   2.962 -0.8530  0.8121  0.7214
 9607SOL    HW134427   5.598   7.980   2.870 -0.5134  1.0632  0.8774
 9607SOL    HW234428   5.629   7.857   2.973 -1.2234  0.5864  0.5248
 9610SOL     OW34429   5.204   8.150   6.447  0.2243 -0.6827 -0.1384
 9610SOL    HW134430   5.140   8.215   6.488 -0.0442 -2.1997  1.8800
 9610SOL    HW234431   5.296   8.190   6.447  0.2268 -0.6390  1.9306
 9611SOL     OW34432   8.205   8.752   0.547 -0.0808 -0.2642 -0.3354
 9611SOL    HW134433   8.153   8.834   0.524 -2.2074 -1.4616  0.1448
 9611SOL    HW234434   8.233   8.705   0.463  1.8167  1.3506 -0.6257
 9612SOL     OW34435   3.686   8.146   3.601 -0.1212  0.0245  0.0553
 9612SOL    HW134436   3.635   8.103   3.676  1.1386  0.0172  0.9479
 9612SOL    HW234437   3.783   8.120   3.609 -0.2883 -1.7402 -2.8374
 9613SOL     OW34438   0.682   9.047   4.043  0.7377 -0.0338 -0.0027
 9613SOL    HW134439   0.651   9.140   4.063 -0.7663 -0.6618  0.5958
 9613SOL    HW234440   0.733   9.048   3.957 -1.6173  0.8877 -1.4419
 9615SOL     OW34441   3.200   3.493   2.151 -0.1103 -0.1482  0.0937
 9615SOL    HW134442   3.130   3.517   2.083  0.9250  0.1021 -0.8938
 9615SOL    HW234443   3.229   3.576   2.199 -0.1136 -0.1712  0.1340
 9616SOL     OW34444   3.876   2.229   0.962 -0.3104  0.5672  0.4767
 9616SOL    HW134445   3.933   2.155   0.925 -0.1009 -0.5518  2.9290
 9616SOL    HW234446   3.934   2.298   1.004 -0.5675  1.6691 -0.9360
 9617SOL     OW34447   7.744   8.409   2.042 -0.1000 -0.4005 -0.1574
 9617SOL    HW134448   7.793   8.493   2.064 -0.8954  0.2411 -0.8097
 9617SOL    HW234449   7.727   8.405   1.944  0.7958 -1.7998 -0.2565
 9618SOL     OW34450   9.324   5.991   4.474  0.1211  0.1958 -0.3009
 9618SOL    HW134451   9.389   5.979   4.398  0.4875  1.3359 -0.1689
 9618SOL    HW234452   9.338   5.918   4.541  0.1518 -0.5168 -1.0712
 9622SOL     OW34453   0.803   8.068   2.779 -0.2049  0.1968 -0.0056
 9622SOL    HW134454   0.859   8.099   2.856  1.4999 -0.4083 -0.9687
 9622SOL    HW234455   0.810   7.969   2.771 -2.1355  0.0231  0.3951
 9623SOL     OW34456   1.030   2.484   6.122  0.0626  0.2719  0.1490
 9623SOL    HW134457   0.992   2.560   6.175  0.0076  1.4690 -1.5372
 9623SOL    HW234458   1.097   2.520   6.057 -0.7215 -0.9900 -1.3809
 9624SOL     OW34459   8.428   3.504   3.414  0.3019 -0.1393 -0.0952
 9624SOL    HW134460   8.499   3.556   3.461 -0.2874  0.1262  0.5097
 9624SOL    HW234461   8.418   3.539   3.320  0.9346 -0.1503 -0.1711
 9627SOL     OW34462   6.758   0.854   0.869  0.3634  0.2330 -0.4056
 9627SOL    HW134463   6.795   0.777   0.921 -0.3419 -0.8677 -1.5056
 9627SOL    HW234464   6.700   0.910   0.929  1.6722  0.4874  0.6522
 9628SOL     OW34465   8.244   3.282   1.474  0.1409  0.0413 -0.4233
 9628SOL    HW134466   8.186   3.266   1.554 -0.8463  0.3239 -1.0663
 9628SOL    HW234467   8.223   3.214   1.404  0.5496  0.1857 -0.6841
 9629SOL     OW34468   8.688   0.153   5.213 -0.1575  0.4288  0.2226
 9629SOL    HW134469   8.687   0.087   5.138  1.3646  1.6944 -0.9526
 9629SOL    HW234470   8.750   0.120   5.285 -1.5093 -0.7161  0.8844
 9630SOL     OW34471   1.229   1.290   2.197  0.6679 -0.7619  0.2663
 9630SOL    HW134472   1.146   1.339   2.171  0.1783 -1.3342  0.7295
 9630SOL    HW234473   1.221   1.194   2.169  1.5811 -0.5988 -0.5556
 9631SOL     OW34474   6.953   1.878   2.977 -0.1300 -0.4066 -0.3152
 9631SOL    HW134475   6.928   1.956   3.035 -0.3167 -0.9523  0.3539
 9631SOL    HW234476   6.871   1.829   2.951 -0.0436 -0.1589 -1.0581
 9632SOL     OW34477   1.254   0.213   3.931  0.0325  0.5411 -0.3927
 9632SOL    HW134478   1.228   0.172   4.019  0.2614  1.0118 -0.1025
 9632SOL    HW234479   1.302   0.300   3.948 -1.8414  1.7345 -1.0271
 9633SOL     OW34480   3.358   4.697   2.800  0.0928 -0.2025  0.3821
 9633SOL    HW134481   3.260   4.698   2.778 -0.0374  0.6459  1.0181
 9633SOL    HW234482   3.400   4.783   2.772  0.3054  0.1408  1.7432
 9635SOL     OW34483   2.361   2.194   4.197 -0.0535  0.2444 -0.5337
 9635SOL    HW134484   2.290   2.250   4.239 -0.1655 -0.0238 -0.3645
 9635SOL    HW234485   2.352   2.198   4.097  0.1448  0.7914 -0.5295
 9636SOL     OW34486   9.319   4.691   3.696 -0.1276 -0.1822 -0.1662
 9636SOL    HW134487   9.417   4.706   3.692 -0.0090 -0.7821  0.3071
 9636SOL    HW234488   9.283   4.727   3.782  0.0696 -2.0289  0.7267
 9637SOL     OW34489   7.564   0.971   3.430  0.3048  0.3247  0.2055
 9637SOL    HW134490   7.542   0.914   3.351  2.3345 -1.5387  0.9246
 9637SOL    HW234491   7.583   0.912   3.509  1.9400  2.0122  1.1001
 9638SOL     OW34492   2.078   4.092   2.312 -0.1731  0.1371  0.7761
 9638SOL    HW134493   2.031   4.033   2.246 -0.9165  1.9566 -0.3711
 9638SOL    HW234494   2.164   4.124   2.272  0.5918 -0.7365  1.6863
 9639SOL     OW34495   8.110   5.459   1.946  0.1789 -0.2954  0.4762
 9639SOL    HW134496   8.171   5.472   2.023 -0.4675 -0.1047  0.9605
 9639SOL    HW234497   8.120   5.535   1.882  0.7849 -0.5029  0.3225
 9640SOL     OW34498   9.404   8.168   1.496  0.8670  0.9431 -0.3990
 9640SOL    HW134499   9.307   8.171   1.471  1.1785  1.6724 -1.5498
 9640SOL    HW234500   9.457   8.128   1.421  1.5375  1.1053 -0.0194
 9642SOL     OW34501   1.917   8.122   3.450 -0.3594  0.4332 -0.4836
 9642SOL    HW134502   1.961   8.212   3.451  0.0431  0.2355 -0.4255
 9642SOL    HW234503   1.942   8.074   3.367  0.7736 -0.2948  0.2750
 9643SOL     OW34504   1.537   7.727   6.294 -0.4883 -0.2262  0.1181
 9643SOL    HW134505   1.515   7.643   6.343  1.0212 -0.1922  0.8591
 9643SOL    HW234506   1.636   7.733   6.280 -0.7137  0.7428 -1.1756
 9644SOL     OW34507   2.993   3.736   0.878  0.1663 -0.2020 -0.8434
 9644SOL    HW134508   2.910   3.792   0.876 -0.3745 -0.9152  0.7999
 9644SOL    HW234509   3.007   3.700   0.970  2.1338 -0.3659 -1.1754
 9645SOL     OW34510   4.588   4.931   0.984  0.2557  0.8241  0.3962
 9645SOL    HW134511   4.688   4.933   0.973  0.2496  1.7255  0.4832
 9645SOL    HW234512   4.561   4.844   1.026  0.7795 -0.4346 -1.7805
 9646SOL     OW34513   3.885   4.473   5.863  0.5250  0.3024 -0.0336
 9646SOL    HW134514   3.836   4.561   5.867  1.3621  0.7397  1.1234
 9646SOL    HW234515   3.968   4.484   5.808 -1.0599 -0.6591 -2.7095
 9647SOL     OW34516   0.927   2.779   0.010  0.1599  0.1391  0.1677
 9647SOL    HW134517   0.879   2.717   0.072 -0.3086  0.4040  0.0705
 9647SOL    HW234518   0.904   2.756  -0.084 -0.3661  0.7371  0.1426
 9648SOL     OW34519   4.251   0.362   4.588  0.4534  0.0785 -0.7931
 9648SOL    HW134520   4.245   0.457   4.618  2.1704  0.2567 -0.9833
 9648SOL    HW234521   4.258   0.359   4.488  0.1845 -0.2619 -0.8042
 9649SOL     OW34522   0.909   3.622   3.563  0.4119  0.1257  0.4093
 9649SOL    HW134523   0.979   3.610   3.492  0.1520  0.5310  0.0770
 9649SOL    HW234524   0.929   3.563   3.640  0.4298 -0.6892 -0.2101
 9650SOL     OW34525   5.032   4.303   0.962 -0.6194 -0.6975  0.1685
 9650SOL    HW134526   5.098   4.259   0.901  0.9159 -0.8466  1.9159
 9650SOL    HW234527   5.077   4.376   1.013 -1.9584 -0.3983  0.9409
 9651SOL     OW34528   8.227   7.698   5.726 -0.0802 -0.3497 -0.0452
 9651SOL    HW134529   8.228   7.736   5.634 -0.0701  1.0223  0.5102
 9651SOL    HW234530   8.172   7.757   5.786  0.2063 -1.0345  0.9041
 9652SOL     OW34531   6.854   0.971   2.189 -0.6351 -0.2797  0.0097
 9652SOL    HW134532   6.906   0.942   2.270 -1.1878 -0.8081  0.1798
 9652SOL    HW234533   6.759   0.990   2.216 -0.8575 -0.6022 -0.5413
 9653SOL     OW34534   7.424   7.927   5.544  0.7545 -0.5089 -0.0409
 9653SOL    HW134535   7.454   7.940   5.450  1.8728 -0.1883  0.3470
 9653SOL    HW234536   7.328   7.953   5.553  1.1705  1.3230 -0.6851
 9655SOL     OW34537   2.684   0.401   3.387 -0.1907 -0.4949  0.2629
 9655SOL    HW134538   2.604   0.365   3.339 -0.5720  0.8028 -0.1059
 9655SOL    HW234539   2.667   0.496   3.413  0.8780 -0.4967  1.0153
 9656SOL     OW34540   1.991   1.238   1.750  0.1753  0.5594  0.0671
 9656SOL    HW134541   1.923   1.167   1.766  1.3860 -0.9676 -1.3571
 9656SOL    HW234542   1.950   1.312   1.696 -0.7528  0.3691  0.5007
 9657SOL     OW34543   0.867   6.601   1.117  0.1931 -0.2091  0.1506
 9657SOL    HW134544   0.778   6.631   1.151 -0.9121 -0.3069 -2.5055
 9657SOL    HW234545   0.923   6.682   1.097 -0.7884  0.0308 -1.8523
 9658SOL     OW34546   0.980   9.431   1.649 -0.0849  0.1218  0.1822
 9658SOL    HW134547   0.900   9.477   1.608  0.5448  1.5848  0.5690
 9658SOL    HW234548   1.058   9.494   1.649  0.9375 -1.1249  0.2872
 9659SOL     OW34549   2.206   8.615   0.406  0.5410  0.2051 -0.2186
 9659SOL    HW134550   2.242   8.550   0.472 -0.0424  0.2472  0.1434
 9659SOL    HW234551   2.106   8.611   0.405  0.5204  0.6394 -0.6512
 9661SOL     OW34552   9.977   8.166   4.406 -0.3186 -0.1048 -0.2074
 9661SOL    HW134553   9.906   8.175   4.476 -0.4970  1.5791 -0.5836
 9661SOL    HW234554   9.949   8.216   4.324  0.2452 -1.3961 -1.2141
 9663SOL     OW34555   7.755   6.296   0.709  0.0884  0.6531 -0.2704
 9663SOL    HW134556   7.694   6.229   0.750 -0.6979  1.4509 -0.1248
 9663SOL    HW234557   7.839   6.302   0.763 -0.9357  1.6918  1.2575
 9664SOL     OW34558   8.151   9.136   1.925  0.5864 -0.1547 -0.3385
 9664SOL    HW134559   8.056   9.135   1.897  0.6308  0.5056 -0.5130
 9664SOL    HW234560   8.194   9.222   1.898  1.6532 -1.0679 -1.6301
 9665SOL     OW34561   5.667   4.048   0.720  0.0150 -0.0438 -0.2563
 9665SOL    HW134562   5.727   4.074   0.645  1.3253 -0.0157  0.7783
 9665SOL    HW234563   5.572   4.060   0.692  0.4364 -1.4151 -2.4037
 9666SOL     OW34564   0.157   9.925   2.799  0.0845 -0.8729  0.9668
 9666SOL    HW134565   0.154   9.969   2.889  1.4715  0.8040  0.2273
 9666SOL    HW234566   0.222   9.848   2.802 -0.9390 -1.7225  1.7610
 9667SOL     OW34567   7.872   7.211   2.454 -0.0196 -0.3723 -0.2931
 9667SOL    HW134568   7.787   7.206   2.402  0.0390  0.2827 -0.4508
 9667SOL    HW234569   7.933   7.137   2.426  1.0184  1.4466 -2.9241
 9668SOL     OW34570   4.829   8.425   5.209 -0.3440 -0.3113 -0.2461
 9668SOL    HW134571   4.927   8.432   5.227 -0.0861 -1.9813 -0.9878
 9668SOL    HW234572   4.814   8.398   5.114 -1.5305  0.2261 -0.2193
 9669SOL     OW34573   8.447   5.607   5.451  0.3756  0.2474  0.1999
 9669SOL    HW134574   8.363   5.658   5.430  0.4665  0.5704  0.6158
 9669SOL    HW234575   8.510   5.613   5.374 -0.6442 -1.3886 -0.8106
 9670SOL     OW34576   4.000   4.631   4.499 -0.0957  0.6521 -0.5376
 9670SOL    HW134577   3.988   4.725   4.530 -0.7006 -0.2115  1.9754
 9670SOL    HW234578   4.081   4.591   4.543  0.0954 -0.0516 -1.5005
 9671SOL     OW34579   8.468   0.080   4.132 -0.1022 -0.1259 -0.3464
 9671SOL    HW134580   8.520   0.063   4.216 -2.0194 -1.5969  0.5711
 9671SOL    HW234581   8.489   0.172   4.098  0.6644  0.5120  1.7734
 9673SOL     OW34582   0.024   7.789   4.682 -0.1748  0.1251  0.2711
 9673SOL    HW134583  -0.074   7.789   4.703  0.0392  0.3089  1.2985
 9673SOL    HW234584   0.075   7.826   4.760  0.9196 -2.1103  0.6542
 9674SOL     OW34585   3.555   3.805   4.706 -0.0755 -0.0306 -0.2009
 9674SOL    HW134586   3.480   3.819   4.770  0.7715 -0.4252  0.8958
 9674SOL    HW234587   3.540   3.720   4.655 -0.1953 -0.2918  0.2685
 9675SOL     OW34588   1.859   5.024   1.487  0.3678 -0.3994  0.4384
 9675SOL    HW134589   1.874   5.030   1.388 -0.8320 -1.5328  0.1849
 9675SOL    HW234590   1.762   5.008   1.506  0.0693  2.7294  1.9180
 9678SOL     OW34591   9.295   8.883   2.970 -0.0670 -0.2147  0.3996
 9678SOL    HW134592   9.331   8.893   2.877 -3.0477 -1.4870 -0.9348
 9678SOL    HW234593   9.303   8.788   2.999 -0.7583 -0.1656  0.7614
 9679SOL     OW34594   9.036   6.974   0.108 -0.0129  0.0123  0.2671
 9679SOL    HW134595   8.939   6.956   0.090  0.4278 -2.0328 -0.2000
 9679SOL    HW234596   9.057   6.948   0.203  0.3010 -0.5401  0.0484
 9680SOL     OW34597   3.133   3.480   5.903 -0.8463  0.1430 -0.3701
 9680SOL    HW134598   3.098   3.429   5.824  0.8004 -2.2821  0.4115
 9680SOL    HW234599   3.110   3.432   5.987  0.2965  0.9678  0.4248
 9682SOL     OW34600   0.162   9.387   3.870 -0.3277 -0.6622 -0.3755
 9682SOL    HW134601   0.118   9.435   3.793 -1.0500  0.6506  0.8147
 9682SOL    HW234602   0.185   9.294   3.843 -1.0171 -0.3709 -2.0319
 9683SOL     OW34603   7.738   2.121   3.303 -0.3581 -0.3634 -0.1122
 9683SOL    HW134604   7.788   2.045   3.346 -1.8962 -0.4933  1.5048
 9683SOL    HW234605   7.803   2.181   3.257  0.9993 -2.0290 -0.4265
 9684SOL     OW34606   3.878   4.257   1.723 -0.2974  0.6753 -0.3973
 9684SOL    HW134607   3.940   4.335   1.712  0.8405 -0.1743 -0.1028
 9684SOL    HW234608   3.884   4.199   1.641 -0.8565  0.7002 -0.4542
 9686SOL     OW34609   5.688   9.728   5.356 -0.3023 -0.2414  0.1814
 9686SOL    HW134610   5.718   9.823   5.350 -0.4456 -0.2556 -0.7439
 9686SOL    HW234611   5.723   9.688   5.441  0.0358  0.5350  0.4159
 9687SOL     OW34612   1.894   2.677   1.419 -0.9114  0.6672 -0.1991
 9687SOL    HW134613   1.972   2.618   1.396 -0.3286  1.1614  0.4921
 9687SOL    HW234614   1.819   2.621   1.453  0.5275  0.4933  2.8868
 9688SOL     OW34615   8.558   5.747   4.104 -0.7771  0.8359 -0.2277
 9688SOL    HW134616   8.626   5.681   4.136  0.4503  1.0456 -2.3117
 9688SOL    HW234617   8.473   5.700   4.082 -0.2613  0.0975 -0.6713
 9689SOL     OW34618   3.320   3.485   2.700  0.0942  0.0532  0.4709
 9689SOL    HW134619   3.406   3.445   2.731 -0.1467 -1.3422 -0.5864
 9689SOL    HW234620   3.287   3.550   2.768  0.8311 -1.0841  1.9577
 9690SOL     OW34621   1.392   0.591   4.773 -0.0279  0.3379 -0.5649
 9690SOL    HW134622   1.489   0.582   4.749  0.7479  0.5070  2.2426
 9690SOL    HW234623   1.341   0.512   4.738  1.3157 -0.2579 -1.2197
 9691SOL     OW34624   9.094   3.601   6.252 -0.5715  0.6224  0.0286
 9691SOL    HW134625   9.016   3.664   6.247 -1.1635 -0.1446 -0.4678
 9691SOL    HW234626   9.097   3.558   6.342 -1.9633 -0.9206 -0.6474
 9692SOL     OW34627   1.156   0.018   5.908  0.2869 -0.3821  0.0935
 9692SOL    HW134628   1.186   0.019   5.813 -0.9122 -1.8990 -0.3091
 9692SOL    HW234629   1.057   0.024   5.913  0.4450  1.7537  1.3358
 9693SOL     OW34630   8.493   3.834   3.373  0.1536  0.3913 -0.2449
 9693SOL    HW134631   8.556   3.774   3.423  2.3514  0.2490 -3.0954
 9693SOL    HW234632   8.533   3.924   3.362 -1.9552  1.5980  1.5320
 9694SOL     OW34633   7.234   4.726   2.495 -0.0807  0.4040 -1.0153
 9694SOL    HW134634   7.234   4.626   2.506 -0.0686  0.5143  0.0405
 9694SOL    HW234635   7.328   4.758   2.483  0.0242  0.3928 -0.2766
 9696SOL     OW34636   9.520   9.168   0.755  0.2781 -0.4370 -0.0750
 9696SOL    HW134637   9.496   9.098   0.822 -0.4083 -0.5161 -0.4072
 9696SOL    HW234638   9.572   9.125   0.680 -0.5321 -0.6704 -0.5030
 9697SOL     OW34639   9.182   8.001   2.254  0.3233 -0.3145 -0.2165
 9697SOL    HW134640   9.131   8.076   2.212  0.2244  0.2379  0.8720
 9697SOL    HW234641   9.261   7.977   2.197  1.0923  1.4823  0.0790
 9698SOL     OW34642   2.421   0.227   3.956 -0.6802 -0.6074 -0.0516
 9698SOL    HW134643   2.462   0.150   4.005  0.3131  0.0949  0.2361
 9698SOL    HW234644   2.493   0.291   3.929 -1.7638  1.4973  1.9524
 9699SOL     OW34645   4.202   2.051   4.422 -0.6348  0.1219 -0.0158
 9699SOL    HW134646   4.224   2.143   4.389  2.6167 -0.7332 -0.4267
 9699SOL    HW234647   4.136   2.008   4.360 -0.8533  1.5342 -0.7835
 9700SOL     OW34648   1.110   6.964   6.062 -0.7126 -0.0343 -0.2264
 9700SOL    HW134649   1.021   6.920   6.062 -0.2860 -0.9796 -2.5948
 9700SOL    HW234650   1.105   7.049   6.008  0.0208 -0.5573 -1.1303
 9702SOL     OW34651   0.203   2.967   5.434  0.3267  0.5027 -0.1327
 9702SOL    HW134652   0.118   2.930   5.397  0.8633 -1.0251  0.1433
 9702SOL    HW234653   0.217   3.059   5.398 -0.8517  0.3179 -1.1072
 9703SOL     OW34654   8.029   5.151   5.158 -0.2158 -0.1761 -0.1573
 9703SOL    HW134655   8.035   5.056   5.187 -1.0130  0.0153  0.6542
 9703SOL    HW234656   8.111   5.201   5.187  1.0421 -1.0142 -2.1496
 9705SOL     OW34657   1.107   0.966   2.985 -0.1321  0.4295 -0.4616
 9705SOL    HW134658   1.108   0.872   3.021 -1.9411  0.0100 -1.4317
 9705SOL    HW234659   1.200   1.003   2.986  0.2676 -0.5280  2.0998
 9707SOL     OW34660   8.608   2.974   2.278 -0.3582 -0.2499 -0.0447
 9707SOL    HW134661   8.703   2.953   2.258 -0.1687 -0.1824  0.7696
 9707SOL    HW234662   8.559   2.890   2.304  0.4653  0.2592  3.4807
 9708SOL     OW34663   7.297   6.499   4.138 -0.2045 -0.1317  0.0833
 9708SOL    HW134664   7.387   6.531   4.108  0.0496 -1.0426 -0.1453
 9708SOL    HW234665   7.254   6.569   4.195  0.6651  0.2929  0.2306
 9709SOL     OW34666   3.011   6.210   5.770 -0.0397  0.6465 -0.1254
 9709SOL    HW134667   2.978   6.298   5.805  1.5427  0.3316  2.3122
 9709SOL    HW234668   2.981   6.136   5.831 -0.1004 -0.3398 -1.3261
 9712SOL     OW34669   8.317   9.364   1.210  0.0509  0.2502  0.1558
 9712SOL    HW134670   8.286   9.421   1.286 -0.4112 -1.3984  1.2315
 9712SOL    HW234671   8.377   9.417   1.150 -1.5478  2.2931  0.3052
 9713SOL     OW34672   9.295   0.737   5.900  0.5784 -0.1293 -0.8011
 9713SOL    HW134673   9.350   0.687   5.967  0.2762 -0.0768 -0.5133
 9713SOL    HW234674   9.355   0.774   5.829  0.8618 -0.4582 -0.7342
 9717SOL     OW34675   7.284   6.917   4.976 -0.3479 -0.2135 -0.3464
 9717SOL    HW134676   7.196   6.874   4.997  0.5392 -1.7750  0.2731
 9717SOL    HW234677   7.354   6.882   5.039  0.6782  1.1824 -0.6759
 9718SOL     OW34678   7.848   8.612   1.667 -0.8040  0.1619  0.2728
 9718SOL    HW134679   7.854   8.680   1.595  0.4708  0.4325  0.6320
 9718SOL    HW234680   7.864   8.655   1.756 -1.5655 -0.3163  0.6470
 9719SOL     OW34681   8.599   6.738   0.978 -0.0465  0.4566 -0.4673
 9719SOL    HW134682   8.613   6.791   1.062  0.3680  2.1688 -1.5768
 9719SOL    HW234683   8.673   6.671   0.968  0.1703  0.5751  0.2933
 9721SOL     OW34684   0.581   7.799   3.126  0.4137  0.0501  0.7815
 9721SOL    HW134685   0.643   7.801   3.204  2.9473 -0.9067 -1.1495
 9721SOL    HW234686   0.579   7.889   3.082 -1.1926  0.6542  2.0500
 9722SOL     OW34687   7.387   0.991   6.142  0.5187  0.1221  0.2940
 9722SOL    HW134688   7.469   0.962   6.190  0.5562  0.7737  0.6395
 9722SOL    HW234689   7.330   0.912   6.122  1.4349 -0.3811 -0.3361
 9724SOL     OW34690   2.549   5.840   0.776  0.1342 -0.2222  0.2830
 9724SOL    HW134691   2.558   5.763   0.840 -0.2309  0.4118  1.1126
 9724SOL    HW234692   2.639   5.879   0.758  0.2951 -0.6953  0.0314
 9725SOL     OW34693   2.500   8.080   0.444  0.1712 -0.0073  0.2903
 9725SOL    HW134694   2.469   7.985   0.454  0.0248  0.2901  2.9505
 9725SOL    HW234695   2.571   8.084   0.374  0.0276 -2.0335 -0.0106
 9728SOL     OW34696   7.621   5.636   0.613 -0.1316  0.0547  0.3551
 9728SOL    HW134697   7.525   5.615   0.595  0.0715 -1.0239  0.5267
 9728SOL    HW234698   7.659   5.687   0.535 -0.2417 -1.4223 -0.6711
 9729SOL     OW34699   6.958   7.980   2.884 -0.3152  0.0131  0.1256
 9729SOL    HW134700   6.910   7.940   2.963 -2.4593  1.5758 -0.3313
 9729SOL    HW234701   6.935   8.077   2.877 -0.0535 -0.0683 -2.3384
 9730SOL     OW34702   9.385   5.575   0.965  0.1339 -0.0697 -0.5285
 9730SOL    HW134703   9.458   5.604   0.903  2.1997 -1.4942  1.1586
 9730SOL    HW234704   9.349   5.486   0.936 -0.6716  0.4475 -1.1298
 9731SOL     OW34705   8.974   8.398   4.962  0.4597  0.3451  0.2129
 9731SOL    HW134706   8.900   8.377   4.897 -0.8658 -0.2624  1.8897
 9731SOL    HW234707   8.976   8.496   4.979 -1.8098  0.0524  2.3040
 9733SOL     OW34708   4.808   3.183   4.501  0.5869  1.1536 -0.2018
 9733SOL    HW134709   4.799   3.223   4.592 -0.0466  1.0802 -0.2313
 9733SOL    HW234710   4.871   3.238   4.446  0.0616  1.8683 -0.0968
 9735SOL     OW34711   6.817   5.264   0.162 -0.2925 -0.0658  0.1540
 9735SOL    HW134712   6.904   5.223   0.189  0.0192  1.5207  1.6818
 9735SOL    HW234713   6.809   5.266   0.063  0.3317 -2.4249  0.0363
 9736SOL     OW34714   4.438   3.683   5.498 -0.0627 -0.1071  0.8623
 9736SOL    HW134715   4.346   3.654   5.472  0.5297 -0.1108 -1.3492
 9736SOL    HW234716   4.504   3.642   5.435  1.0859  3.2334 -0.2218
 9737SOL     OW34717   7.951   0.463   1.827  0.4861  0.4265  0.6589
 9737SOL    HW134718   7.932   0.518   1.746  0.0629 -1.2149 -0.3571
 9737SOL    HW234719   7.867   0.453   1.881  0.1870 -0.6125 -0.0055
 9738SOL     OW34720   2.855   2.622   2.876  0.0414  0.1183 -0.1889
 9738SOL    HW134721   2.897   2.703   2.915 -0.5469 -0.3361  1.4397
 9738SOL    HW234722   2.796   2.648   2.799 -0.5391  1.3041  0.6370
 9739SOL     OW34723   8.950   0.962   0.904  0.2562 -0.2610  0.4126
 9739SOL    HW134724   8.940   0.989   0.808 -0.5195 -1.0187  0.2761
 9739SOL    HW234725   8.924   0.866   0.914  1.2777 -0.4687  1.2088
 9740SOL     OW34726   6.883   0.169   5.295  0.6695 -0.9294  0.0272
 9740SOL    HW134727   6.833   0.137   5.215  1.7421 -2.9350  0.1276
 9740SOL    HW234728   6.980   0.172   5.275  0.7833  0.3409  0.6902
 9741SOL     OW34729   1.910   4.933   5.497  0.3820 -0.0615 -0.1001
 9741SOL    HW134730   1.997   4.912   5.542  1.1601  2.7111 -0.2025
 9741SOL    HW234731   1.857   4.995   5.555 -1.6951 -1.9486  0.0921
 9744SOL     OW34732   2.336   5.098   0.723  0.0077 -0.1124 -0.2148
 9744SOL    HW134733   2.405   5.028   0.704  0.5161 -0.0169  1.2408
 9744SOL    HW234734   2.337   5.120   0.820  0.2265  2.3058 -0.7429
 9745SOL     OW34735   1.514   2.144   1.141 -0.8623 -0.1899 -0.2294
 9745SOL    HW134736   1.438   2.090   1.176 -0.7014 -0.8298 -0.8525
 9745SOL    HW234737   1.521   2.131   1.042  1.0097 -1.3540  0.0328
 9747SOL     OW34738   9.098   7.136   2.116 -0.0404  0.2598 -0.0316
 9747SOL    HW134739   9.011   7.178   2.091  0.6764  2.1044  0.4026
 9747SOL    HW234740   9.127   7.172   2.205  1.1653 -0.2988 -0.1948
 9748SOL     OW34741   9.684   0.893   0.797  0.5470 -0.5494  0.5702
 9748SOL    HW134742   9.629   0.811   0.782  1.8353 -1.5365  1.1213
 9748SOL    HW234743   9.701   0.938   0.709  0.5202 -1.3367  0.1525
 9749SOL     OW34744   4.544   5.579   1.849 -0.1574 -0.1203 -0.2603
 9749SOL    HW134745   4.629   5.606   1.894  0.0646 -1.7651  0.3256
 9749SOL    HW234746   4.511   5.493   1.888 -0.9606 -0.5993 -1.9462
 9750SOL     OW34747   7.616   6.596   5.540  0.7659  0.2017  0.1401
 9750SOL    HW134748   7.564   6.668   5.587  0.6574  1.5825 -2.0226
 9750SOL    HW234749   7.611   6.512   5.593 -2.1064  0.8241  0.9680
 9752SOL     OW34750   3.121   9.267   1.223 -0.5869  0.3020  0.2000
 9752SOL    HW134751   3.051   9.310   1.167  0.2273  2.2938  0.6535
 9752SOL    HW234752   3.171   9.338   1.274  2.1941 -0.9862 -0.6361
 9753SOL     OW34753   6.608   8.454   3.574  0.4572  0.5547 -0.2636
 9753SOL    HW134754   6.580   8.500   3.658  0.4943  0.8959 -0.4362
 9753SOL    HW234755   6.530   8.446   3.512  0.3649  0.0612 -0.0910
 9755SOL     OW34756   1.845   9.657   6.107 -0.4114  0.5102  0.2302
 9755SOL    HW134757   1.900   9.695   6.181 -0.5746  0.4437  0.3862
 9755SOL    HW234758   1.875   9.694   6.019 -0.4318  0.8335  0.3618
 9756SOL     OW34759   1.529   2.448   0.858  0.0783 -0.0359  0.4157
 9756SOL    HW134760   1.456   2.403   0.910  0.1356 -0.5404  0.0498
 9756SOL    HW234761   1.504   2.452   0.762 -0.1870  1.2246  0.5199
 9758SOL     OW34762   1.056   0.946   5.339  0.2662  1.0930 -0.1490
 9758SOL    HW134763   0.976   0.947   5.398 -0.4325 -0.4448 -1.0427
 9758SOL    HW234764   1.136   0.977   5.390 -0.1105 -1.2556  1.9198
 9760SOL     OW34765   3.557   2.923   4.532 -0.1524  0.2437  0.3531
 9760SOL    HW134766   3.484   2.856   4.546 -0.5296  0.8691  1.5023
 9760SOL    HW234767   3.646   2.878   4.541 -0.3413 -0.8843 -2.8110
 9761SOL     OW34768   3.752   8.664   4.844  0.5535  0.2806 -0.2438
 9761SOL    HW134769   3.816   8.588   4.837  0.7545  0.4861 -0.6433
 9761SOL    HW234770   3.697   8.670   4.760 -0.6578 -0.4859  0.4765
 9762SOL     OW34771   2.948   8.151   4.658 -0.1986  0.9855  0.3546
 9762SOL    HW134772   2.924   8.055   4.645  0.3326  1.2839 -3.1854
 9762SOL    HW234773   3.037   8.158   4.703  1.1469 -0.2534 -2.0347
 9763SOL     OW34774   9.199   2.258   5.763 -0.2187  0.3808 -0.1541
 9763SOL    HW134775   9.221   2.333   5.826  1.5317 -1.1526  1.1233
 9763SOL    HW234776   9.281   2.234   5.711 -0.5537 -1.1888  0.0432
 9765SOL     OW34777   0.788   8.721   4.408  0.1091 -0.8062  0.0218
 9765SOL    HW134778   0.717   8.652   4.398 -0.1396 -0.9342  2.3746
 9765SOL    HW234779   0.752   8.811   4.383 -1.4242 -0.6069  2.7396
 9766SOL     OW34780   8.479   1.674   5.933 -0.1211  0.0237  0.1155
 9766SOL    HW134781   8.483   1.586   5.886  1.5043  0.5733 -0.8281
 9766SOL    HW234782   8.497   1.661   6.030 -2.1371 -0.9537  0.3764
 9767SOL     OW34783   9.582   3.239   2.119  0.2823 -0.2419 -0.5344
 9767SOL    HW134784   9.645   3.246   2.197  0.6432 -0.2697 -0.8250
 9767SOL    HW234785   9.618   3.172   2.053  0.4368  0.4552 -1.1606
 9768SOL     OW34786   8.125   7.288   6.175 -0.5026 -0.0165  0.1696
 9768SOL    HW134787   8.150   7.200   6.135  1.8882  1.4992 -1.7922
 9768SOL    HW234788   8.207   7.343   6.190 -1.9167  1.7524  1.7144
 9769SOL     OW34789   7.486   4.816   2.496 -0.1685 -0.1009  0.7305
 9769SOL    HW134790   7.522   4.825   2.589 -1.2140 -0.1187  1.1463
 9769SOL    HW234791   7.443   4.902   2.469 -2.9886 -1.1799  1.6157
 9770SOL     OW34792   0.395   4.293   5.894  0.5050 -0.3565 -0.1135
 9770SOL    HW134793   0.333   4.332   5.826  0.3054 -0.8793 -0.2335
 9770SOL    HW234794   0.466   4.241   5.847  0.7343 -0.1931  0.0493
 9771SOL     OW34795   8.642   7.784   5.184  0.2482  0.0060 -0.1875
 9771SOL    HW134796   8.598   7.797   5.273  0.9263 -1.0011  0.3076
 9771SOL    HW234797   8.621   7.693   5.149  0.5120  0.1632 -0.7631
 9772SOL     OW34798   0.216   4.725   2.734  0.1140  0.2101  0.1963
 9772SOL    HW134799   0.145   4.667   2.771  1.4084 -0.5682  1.5214
 9772SOL    HW234800   0.262   4.679   2.658 -0.5815  0.5773 -0.4456
 9773SOL     OW34801   1.569   4.000   1.280  0.4237 -0.2876  0.2689
 9773SOL    HW134802   1.628   3.923   1.303 -0.2134 -1.9895 -3.4678
 9773SOL    HW234803   1.481   3.991   1.328  0.4059 -1.8178 -0.0422
 9774SOL     OW34804   6.945   6.274   5.751 -0.9412 -0.2461 -0.0976
 9774SOL    HW134805   6.982   6.240   5.838  0.4645 -0.4326 -0.7441
 9774SOL    HW234806   7.016   6.328   5.705 -0.7056 -2.4745 -2.4054
 9775SOL     OW34807   2.054   4.198   3.054  0.2131  0.3914 -0.7775
 9775SOL    HW134808   2.113   4.264   3.101  0.5637  0.1966 -0.9451
 9775SOL    HW234809   2.109   4.144   2.990  0.4159 -1.8456  1.2280
 9777SOL     OW34810   6.100   1.201   2.871  1.1180 -0.3546 -0.5926
 9777SOL    HW134811   6.012   1.155   2.863  0.2083  1.0579  0.9258
 9777SOL    HW234812   6.131   1.231   2.781 -0.6608  0.4390 -0.9469
 9780SOL     OW34813   6.532   1.522   2.176 -0.0839  0.5860 -0.3274
 9780SOL    HW134814   6.489   1.478   2.254  0.4519  0.5411 -0.0527
 9780SOL    HW234815   6.463   1.564   2.118 -0.8116 -2.0822 -1.5077
 9781SOL     OW34816   7.724   2.644   0.737  0.0249 -0.4539 -0.5196
 9781SOL    HW134817   7.821   2.621   0.739  0.0524 -0.3094  1.9529
 9781SOL    HW234818   7.713   2.743   0.729  0.0679 -0.5087 -1.2801
 9783SOL     OW34819   2.318   4.491   6.379 -0.1053 -0.2474  0.3871
 9783SOL    HW134820   2.227   4.512   6.343 -0.7954  0.9150  2.6661
 9783SOL    HW234821   2.357   4.413   6.330 -0.5160  1.8880 -3.4911
 9784SOL     OW34822   7.229   2.052   2.908  0.2125 -0.0125 -0.2937
 9784SOL    HW134823   7.205   2.147   2.930  1.3303  0.8309 -2.6275
 9784SOL    HW234824   7.327   2.039   2.922 -0.6292 -2.2029  4.7117
 9786SOL     OW34825   5.059   8.842   6.233 -0.0708 -0.1150 -0.0354
 9786SOL    HW134826   4.962   8.816   6.236 -0.4130  1.0562 -0.8567
 9786SOL    HW234827   5.115   8.762   6.255 -1.1925 -1.0455 -0.4948
 9789SOL     OW34828   9.163   8.438   4.474  0.6608  0.1470 -0.8474
 9789SOL    HW134829   9.175   8.427   4.573  0.6488  1.2966 -0.7142
 9789SOL    HW234830   9.117   8.525   4.456  1.4956  0.3655 -1.9265
 9791SOL     OW34831   3.778   4.724   5.896 -0.3611  0.1596  0.5612
 9791SOL    HW134832   3.701   4.672   5.859  0.8905 -1.8636  0.7074
 9791SOL    HW234833   3.778   4.816   5.857 -1.2891 -0.6941 -1.5164
 9792SOL     OW34834   9.898   4.524   3.348 -0.2621 -0.0895  0.7186
 9792SOL    HW134835   9.937   4.468   3.276 -3.6292 -0.0946 -1.2226
 9792SOL    HW234836   9.969   4.580   3.390  2.0805 -1.4938 -1.2999
 9793SOL     OW34837   1.180   4.578   2.907  0.6062  0.2482 -0.1612
 9793SOL    HW134838   1.102   4.590   2.969 -0.1780 -0.7737 -0.9445
 9793SOL    HW234839   1.230   4.495   2.931  0.1062 -0.3299 -1.0958
 9794SOL     OW34840   1.987   2.360   5.475  0.7143 -0.3986 -0.2735
 9794SOL    HW134841   1.985   2.330   5.380 -0.4432 -1.4984  0.0852
 9794SOL    HW234842   1.936   2.295   5.532  0.4025  0.8648  0.9206
 9795SOL     OW34843   4.793   9.485   3.906 -0.2337 -0.3107  0.2518
 9795SOL    HW134844   4.694   9.487   3.895 -0.3523  0.8854  1.3658
 9795SOL    HW234845   4.820   9.399   3.950 -0.7251 -0.7918 -0.3704
 9796SOL     OW34846   1.071   7.085   4.304  0.5447  0.4128 -0.2541
 9796SOL    HW134847   1.166   7.059   4.322  0.2182  0.6234  1.8977
 9796SOL    HW234848   1.025   7.105   4.390 -1.7414 -0.6569 -1.1721
 9797SOL     OW34849   2.129   2.725   5.631  0.3211  0.5746 -0.2606
 9797SOL    HW134850   2.164   2.661   5.562  2.6311  2.0679 -0.5390
 9797SOL    HW234851   2.193   2.729   5.708 -0.9451  0.8674  0.7966
 9799SOL     OW34852   6.378   9.971   5.617  0.2037 -0.0736  0.3665
 9799SOL    HW134853   6.435  10.035   5.566 -0.6310 -0.4560 -1.0492
 9799SOL    HW234854   6.422   9.951   5.705  2.0193 -0.0153 -0.5157
 9800SOL     OW34855   6.838   0.516   0.453 -0.0742  0.8289 -0.3257
 9800SOL    HW134856   6.853   0.613   0.431  0.8204  0.6008 -0.7322
 9800SOL    HW234857   6.924   0.474   0.480 -0.2345 -0.1398 -1.2606
 9801SOL     OW34858   0.492   9.160   1.083 -0.4663  0.1650 -0.2655
 9801SOL    HW134859   0.473   9.189   1.177  1.6430  0.4234  0.1091
 9801SOL    HW234860   0.535   9.069   1.084  1.5047  1.0555 -0.8043
 9803SOL     OW34861   2.454   9.021   4.952  0.3052 -0.2064 -0.2187
 9803SOL    HW134862   2.546   9.054   4.973 -0.3919  1.3022  0.5961
 9803SOL    HW234863   2.419   9.070   4.871  0.3716 -1.0687 -0.7727
 9804SOL     OW34864   1.452   5.831   0.021 -0.2167 -0.0902 -0.4253
 9804SOL    HW134865   1.470   5.742  -0.020  0.2431  0.5840 -1.7262
 9804SOL    HW234866   1.524   5.895  -0.005 -0.2100  0.4970  1.0108
 9805SOL     OW34867   8.105   5.656   1.714  0.3524  0.2966  0.1336
 9805SOL    HW134868   8.065   5.747   1.724  3.3914  1.7298 -0.1305
 9805SOL    HW234869   8.052   5.604   1.647 -0.4998  2.4453 -0.9103
 9806SOL     OW34870   9.804   8.591   2.016  0.3739  0.1659 -0.3094
 9806SOL    HW134871   9.843   8.499   2.027 -2.7533 -1.3653 -1.0960
 9806SOL    HW234872   9.796   8.634   2.105 -0.4238 -1.3982  0.4105
 9809SOL     OW34873   8.797   7.430   4.042  0.1029  0.6500  0.5414
 9809SOL    HW134874   8.799   7.511   3.983 -2.0002  0.8976  0.7826
 9809SOL    HW234875   8.869   7.366   4.014 -0.0702  1.3265 -1.5048
 9811SOL     OW34876   3.686   3.765   4.103  0.9498  0.0730  0.0899
 9811SOL    HW134877   3.592   3.743   4.076  1.5337 -1.6386 -0.6235
 9811SOL    HW234878   3.698   3.864   4.103 -0.5253  0.2740 -0.9837
 9813SOL     OW34879   4.771   9.064   1.776  0.0912 -0.2435  0.5364
 9813SOL    HW134880   4.754   9.065   1.678 -0.3570 -0.9426  0.6058
 9813SOL    HW234881   4.854   9.011   1.795  1.6920  2.0966  0.3119
 9814SOL     OW34882   1.224   6.299   0.456 -0.4299  0.2989  0.2868
 9814SOL    HW134883   1.228   6.398   0.460  2.2216  0.1957  1.0072
 9814SOL    HW234884   1.197   6.263   0.546  2.1481  0.2657  1.0904
 9815SOL     OW34885   1.246   3.557   3.137  0.3724 -0.4888 -0.2484
 9815SOL    HW134886   1.175   3.602   3.082  0.1973 -0.6116 -0.1274
 9815SOL    HW234887   1.333   3.603   3.123 -0.0451  0.6779  0.8139
 9816SOL     OW34888   7.095   2.272   1.839 -0.0193  0.1947  0.0036
 9816SOL    HW134889   7.036   2.338   1.792 -0.9871  0.5436  1.6602
 9816SOL    HW234890   7.038   2.204   1.886  0.8834  0.2786  1.2659
 9817SOL     OW34891   9.291   3.691   5.825 -0.0688 -0.5107  0.1684
 9817SOL    HW134892   9.323   3.603   5.860  1.1972  0.1249  0.6540
 9817SOL    HW234893   9.313   3.697   5.727  1.5958  0.0285  0.5524
 9818SOL     OW34894   0.694   9.324   2.506  0.2451  0.3014  0.5593
 9818SOL    HW134895   0.767   9.389   2.525 -0.0926  0.6970  0.5170
 9818SOL    HW234896   0.713   9.238   2.553  0.4561  0.5874  1.0034
 9819SOL     OW34897   7.304   5.794   6.043  0.3971 -0.3351 -0.0394
 9819SOL    HW134898   7.293   5.886   6.079  1.3269  0.0377 -0.6820
 9819SOL    HW234899   7.401   5.775   6.027 -0.0287 -0.0633 -3.3259
 9820SOL     OW34900   9.521   3.298   4.439  0.1733  0.0526  0.5329
 9820SOL    HW134901   9.538   3.253   4.526 -1.0784  0.0687  0.7981
 9820SOL    HW234902   9.427   3.279   4.409  0.4163  0.4888 -0.5390
 9821SOL     OW34903   8.048   0.111   0.211 -0.8195  0.2435  0.6810
 9821SOL    HW134904   8.121   0.143   0.150 -0.2829 -1.7752  0.2074
 9821SOL    HW234905   7.960   0.140   0.175 -0.4035  0.4773 -0.1820
 9822SOL     OW34906   7.645   0.958   1.393 -0.0421 -0.7527 -0.2116
 9822SOL    HW134907   7.554   0.920   1.410 -0.3619 -0.4470 -1.1550
 9822SOL    HW234908   7.676   1.008   1.474 -1.1376 -0.0470 -0.2015
 9823SOL     OW34909   9.761   7.852   0.263 -0.4302 -0.0151  0.2225
 9823SOL    HW134910   9.724   7.836   0.172 -0.1887 -1.1178  0.3145
 9823SOL    HW234911   9.687   7.860   0.329 -0.6088  0.8397 -0.0717
 9824SOL     OW34912   8.518   1.027   2.051 -0.2085 -0.2693 -0.2244
 9824SOL    HW134913   8.439   1.007   2.109 -0.3404 -2.0051 -0.9584
 9824SOL    HW234914   8.602   1.013   2.103 -0.3557 -0.3987 -0.0182
 9825SOL     OW34915   3.097   8.121   0.292  0.5025  0.4542 -0.0943
 9825SOL    HW134916   3.195   8.127   0.272  0.7926  1.0647  1.3749
 9825SOL    HW234917   3.079   8.038   0.345  0.5469  1.2868  1.2599
 9826SOL     OW34918   4.883   0.710   0.473  0.5444  0.4615 -0.7380
 9826SOL    HW134919   4.825   0.791   0.459 -1.3769 -0.9051 -0.8529
 9826SOL    HW234920   4.959   0.713   0.409  0.0255  1.7668 -1.3254
 9828SOL     OW34921   7.888   6.808   3.200 -0.0197 -0.0039  0.3314
 9828SOL    HW134922   7.947   6.843   3.126  0.9881 -0.9031  0.6920
 9828SOL    HW234923   7.865   6.712   3.181  1.0965 -0.5493  1.7002
 9829SOL     OW34924   8.643   4.820   0.236  0.3557  0.0178 -0.2900
 9829SOL    HW134925   8.667   4.771   0.152  0.5413 -0.4136  0.0114
 9829SOL    HW234926   8.677   4.914   0.231 -0.3202  0.2278 -1.0265
 9830SOL     OW34927   2.705   2.247   0.662  0.0892 -0.2448  0.2704
 9830SOL    HW134928   2.666   2.183   0.729 -1.1449 -1.1205 -1.2474
 9830SOL    HW234929   2.637   2.267   0.592  0.5491  2.5674  0.5645
 9831SOL     OW34930   6.927   2.409   1.137  0.2576 -0.3567  0.1885
 9831SOL    HW134931   6.973   2.365   1.059 -0.9071 -1.0565 -0.1202
 9831SOL    HW234932   6.930   2.348   1.216  0.0987 -0.2895  0.2457
 9832SOL     OW34933   9.018   3.215   0.659  0.8843 -0.7187  0.4578
 9832SOL    HW134934   9.067   3.231   0.745  1.0306 -0.5342  0.3402
 9832SOL    HW234935   9.077   3.240   0.582  0.9386 -1.3556  0.2864
 9833SOL     OW34936   0.097   3.360   2.998 -0.4839 -0.9252 -0.4884
 9833SOL    HW134937  -0.002   3.351   2.998 -0.4810 -1.1580  0.7684
 9833SOL    HW234938   0.137   3.292   2.937 -1.1123 -0.6690 -1.1858
 9834SOL     OW34939   5.610   5.137   0.652 -0.1510  0.2015  0.2033
 9834SOL    HW134940   5.672   5.106   0.724  0.6339  0.5331 -0.3233
 9834SOL    HW234941   5.595   5.235   0.662 -0.5547  0.1296  0.2983
 9836SOL     OW34942   9.948   1.264   4.880  0.0786 -0.1455  0.0383
 9836SOL    HW134943   9.877   1.196   4.899 -1.2579  1.3185  0.3574
 9836SOL    HW234944   9.914   1.330   4.813  1.1303  0.5691  0.2038
 9837SOL     OW34945   8.806   1.106   1.631  0.1783 -0.1273  0.3586
 9837SOL    HW134946   8.870   1.140   1.562  0.4013 -2.0305 -0.3960
 9837SOL    HW234947   8.732   1.056   1.585 -1.2035  0.9842  1.3114
 9839SOL     OW34948   0.907   8.219   2.976  0.3713 -0.1039  0.4403
 9839SOL    HW134949   1.000   8.241   3.003  0.1110  0.2489  1.0731
 9839SOL    HW234950   0.868   8.297   2.926  0.8501 -0.7526 -0.9775
 9840SOL     OW34951   8.910   6.224   3.433  0.0202  0.3479 -0.3021
 9840SOL    HW134952   8.822   6.187   3.465  1.9349 -1.9702  2.5932
 9840SOL    HW234953   8.941   6.295   3.496  1.9664 -1.4792  0.8649
 9841SOL     OW34954   8.796   9.179   2.416  0.2153  0.2013 -0.2305
 9841SOL    HW134955   8.703   9.149   2.395  1.2169 -1.1598 -3.0133
 9841SOL    HW234956   8.793   9.263   2.470 -2.6159  0.3615 -0.5733
 9842SOL     OW34957   6.239   1.364   0.924  0.3111  0.1323 -0.7130
 9842SOL    HW134958   6.145   1.375   0.892  0.6349 -0.5883 -1.9524
 9842SOL    HW234959   6.290   1.448   0.906 -0.0372  0.4594 -0.2069
 9843SOL     OW34960   8.665   7.330   1.435 -0.1291  0.4988  0.6560
 9843SOL    HW134961   8.676   7.268   1.512  0.6651  2.0128  1.8015
 9843SOL    HW234962   8.570   7.363   1.432 -0.1987  0.3150  0.8769
 9844SOL     OW34963   7.096   1.824   2.560  0.1269  0.8738 -0.3399
 9844SOL    HW134964   7.098   1.911   2.610  1.0822 -0.1909  1.4979
 9844SOL    HW234965   7.173   1.822   2.496  0.7068  0.9455  0.3525
 9845SOL     OW34966   0.683   7.292   0.688  0.0141  0.1073 -0.2629
 9845SOL    HW134967   0.709   7.323   0.597  0.5345 -2.2152 -0.9477
 9845SOL    HW234968   0.765   7.280   0.744 -0.1616 -0.0841 -0.0407
 9846SOL     OW34969   2.957   7.080   4.477 -0.1109  0.2248  0.0850
 9846SOL    HW134970   3.004   7.114   4.395 -1.1325  1.2242 -0.0981
 9846SOL    HW234971   2.975   7.143   4.553  1.2759 -0.9848  0.7772
 9847SOL     OW34972   0.794   5.839   1.847  0.5040 -0.3755 -0.0250
 9847SOL    HW134973   0.781   5.792   1.760  1.9069 -1.7031  0.4433
 9847SOL    HW234974   0.784   5.773   1.922  1.6154  0.2524  0.6871
 9848SOL     OW34975   9.562   4.606   0.169  0.5657 -0.3243  0.3083
 9848SOL    HW134976   9.581   4.510   0.190  0.4769 -0.0742  1.5740
 9848SOL    HW234977   9.604   4.664   0.239  0.0870  0.5300 -0.1100
 9850SOL     OW34978   3.402   7.669   0.967  0.4240 -0.2559 -0.5919
 9850SOL    HW134979   3.453   7.713   1.041  1.0955 -0.7191 -0.7799
 9850SOL    HW234980   3.400   7.730   0.887 -2.0290  1.1243  0.4538
 9851SOL     OW34981   9.293   0.251   0.029 -0.4939  0.4759  0.0796
 9851SOL    HW134982   9.230   0.174   0.025  0.2027 -0.1828  1.3290
 9851SOL    HW234983   9.380   0.225  -0.012  0.4076 -0.1036  2.2641
 9852SOL     OW34984   3.725   1.437   1.278  0.4246 -0.5503  0.0468
 9852SOL    HW134985   3.787   1.363   1.303  0.8932  0.3019  1.4598
 9852SOL    HW234986   3.675   1.468   1.359  0.8997  1.2797 -0.3323
 9853SOL     OW34987   7.175   4.596   1.327  0.0969  0.3685  0.2426
 9853SOL    HW134988   7.190   4.499   1.344  0.3807  0.4374  0.3853
 9853SOL    HW234989   7.263   4.640   1.306 -0.1566  0.4031 -0.7625
 9855SOL     OW34990   2.467   2.540   6.313 -0.3865  0.2760  0.1019
 9855SOL    HW134991   2.540   2.586   6.363 -0.0919  0.8344 -0.8179
 9855SOL    HW234992   2.439   2.598   6.236 -0.3611 -0.8734 -0.7736
 9857SOL     OW34993   0.025   5.021   6.191  0.4743 -0.6970 -0.3384
 9857SOL    HW134994  -0.051   4.983   6.244  2.1557 -0.7881  2.0985
 9857SOL    HW234995   0.048   4.960   6.116 -0.9409 -1.3559 -0.2485
 9858SOL     OW34996   3.985   8.473   0.572  0.5858 -0.0891  0.4134
 9858SOL    HW134997   4.027   8.445   0.659  0.2187  0.4248  0.7602
 9858SOL    HW234998   4.030   8.426   0.497 -0.0229 -1.6210  0.9872
 9859SOL     OW34999   6.017   9.910   5.254 -0.0056  0.6231  0.2076
 9859SOL    HW135000   6.099   9.879   5.301 -0.6447 -1.5062 -0.0120
 9859SOL    HW235001   5.993   9.845   5.182 -2.0096  1.0543  0.4357
 9860SOL     OW35002   8.383   1.944   2.495  0.5678 -0.3466 -0.2311
 9860SOL    HW135003   8.370   1.860   2.547  1.8030 -1.8847 -2.3528
 9860SOL    HW235004   8.299   1.967   2.446  0.2199 -0.3071  0.3808
 9861SOL     OW35005   1.885   5.623   3.366  0.1383 -0.2832  0.3847
 9861SOL    HW135006   1.930   5.592   3.282  0.1177 -2.3208  1.1052
 9861SOL    HW235007   1.843   5.545   3.412 -0.0510  0.8539  2.1829
 9866SOL     OW35008   0.419   6.001   1.410 -0.4902 -0.1017  0.1411
 9866SOL    HW135009   0.354   6.027   1.482 -0.3722 -0.4625  0.3789
 9866SOL    HW235010   0.393   5.912   1.373  0.1738 -0.5015  0.6099
 9867SOL     OW35011   0.824   6.005   5.329 -0.7723 -0.0719 -0.4340
 9867SOL    HW135012   0.759   5.946   5.376  0.8980 -1.5007  0.1302
 9867SOL    HW235013   0.876   5.951   5.263  0.1589  0.9523 -0.5516
 9868SOL     OW35014   2.460   7.840   4.916 -0.0610  0.5173 -0.2359
 9868SOL    HW135015   2.425   7.747   4.919  1.9697 -0.2203  2.3375
 9868SOL    HW235016   2.475   7.867   4.821  0.4868 -2.2247 -0.9640
 9871SOL     OW35017   7.892   2.867   5.693 -0.2000  0.2862  0.1545
 9871SOL    HW135018   7.828   2.795   5.668  0.2226  0.4850 -1.5615
 9871SOL    HW235019   7.971   2.865   5.631  0.6239  1.1309  1.1631
 9872SOL     OW35020   7.199   4.953   0.791  0.2092 -0.0028  0.3728
 9872SOL    HW135021   7.148   5.039   0.793  0.1046 -0.0420 -0.4168
 9872SOL    HW235022   7.235   4.933   0.882  1.2412  1.4767  0.2956
 9873SOL     OW35023   7.247   2.474   4.371 -0.2602 -0.2165 -0.8071
 9873SOL    HW135024   7.177   2.546   4.366 -2.2401 -1.9920  0.2022
 9873SOL    HW235025   7.281   2.455   4.279 -0.9168  0.8643 -1.2906
 9874SOL     OW35026   9.936   0.325   5.608 -0.0977 -0.2215 -0.4197
 9874SOL    HW135027  10.032   0.347   5.587  0.6093 -1.6516  1.2749
 9874SOL    HW235028   9.924   0.226   5.607 -1.1915 -0.1031  1.0006
 9875SOL     OW35029   8.342   6.811   1.197  0.1877  0.7746  0.2531
 9875SOL    HW135030   8.323   6.817   1.295 -2.0946  0.3558 -0.1401
 9875SOL    HW235031   8.368   6.902   1.164 -1.4944  1.4836  0.7835
 9876SOL     OW35032   9.151   5.058   3.082 -0.0561 -0.4687 -0.1344
 9876SOL    HW135033   9.159   5.148   3.125 -0.8164 -0.9133  0.9853
 9876SOL    HW235034   9.205   4.992   3.134 -0.0502 -0.7950 -0.5556
 9877SOL     OW35035   1.075   6.359   5.225 -0.0181  0.1813  0.3187
 9877SOL    HW135036   1.075   6.330   5.130  0.8898 -0.1027  0.3974
 9877SOL    HW235037   1.166   6.344   5.264 -0.7387 -0.9745  1.6033
 9878SOL     OW35038   7.091   1.303   5.506  0.1202 -0.1260 -0.4939
 9878SOL    HW135039   7.099   1.294   5.605  1.6500 -0.1028 -0.5951
 9878SOL    HW235040   7.023   1.373   5.484 -1.1031 -0.9872  0.5128
 9879SOL     OW35041   5.040   9.069   5.529  0.1657 -0.4260 -0.1809
 9879SOL    HW135042   5.123   9.083   5.475  1.0831 -1.2490  0.9840
 9879SOL    HW235043   5.046   9.122   5.614  0.6672 -2.4809  1.1033
 9880SOL     OW35044   2.470   6.689   0.300 -0.0003  0.2969 -0.3083
 9880SOL    HW135045   2.426   6.776   0.325 -0.0188 -0.0509  0.8583
 9880SOL    HW235046   2.562   6.707   0.265 -0.2121  0.8355 -0.5953
 9881SOL     OW35047   3.894   0.925   4.091  0.3317  0.0539 -0.3244
 9881SOL    HW135048   3.981   0.975   4.092  0.0166  0.6192 -0.8576
 9881SOL    HW235049   3.819   0.988   4.111  0.0693 -0.4911  0.4225
 9882SOL     OW35050   2.015   1.473   2.817  0.2145  0.0785 -0.0704
 9882SOL    HW135051   1.967   1.552   2.855 -1.4191 -0.5827 -0.7463
 9882SOL    HW235052   2.011   1.397   2.882  0.5997  0.1102 -0.0067
 9883SOL     OW35053   9.078   9.987   3.387  0.0436  0.5307 -0.0802
 9883SOL    HW135054   9.141   9.992   3.310  1.2134 -0.1878  0.8095
 9883SOL    HW235055   9.100  10.059   3.453  0.2287 -0.0064  0.4498
 9884SOL     OW35056   1.788   7.167   3.068 -0.1239  0.5243  0.2432
 9884SOL    HW135057   1.883   7.197   3.080 -0.2469  0.4182  1.4754
 9884SOL    HW235058   1.761   7.110   3.145 -0.5676 -1.0678 -1.0576
 9885SOL     OW35059   1.611   4.749   0.377 -0.6155 -0.1124  0.0303
 9885SOL    HW135060   1.571   4.659   0.359 -1.1021  0.3944 -1.6145
 9885SOL    HW235061   1.687   4.740   0.440 -0.6488 -1.6893 -0.1246
 9886SOL     OW35062   2.062   3.926   5.210 -0.2310 -0.1333 -0.2825
 9886SOL    HW135063   2.137   3.905   5.149 -0.7493  0.2243 -1.0494
 9886SOL    HW235064   2.057   4.025   5.224  0.4998 -0.2765  1.1333
 9887SOL     OW35065   1.155   2.957   2.924  0.0208 -0.5190  0.4130
 9887SOL    HW135066   1.086   2.939   2.994 -0.2991  0.3963  0.3425
 9887SOL    HW235067   1.122   2.924   2.836 -0.8601  0.9768  0.1567
 9888SOL     OW35068   5.816   9.769   4.541 -0.1700 -0.0518  0.3802
 9888SOL    HW135069   5.912   9.743   4.537 -0.0656  0.4916 -1.1062
 9888SOL    HW235070   5.764   9.698   4.587  1.0679  0.0599  2.0013
 9889SOL     OW35071   1.137   4.882   3.613  0.2162  0.3685  0.4319
 9889SOL    HW135072   1.089   4.948   3.671  0.0070 -0.8642  1.6880
 9889SOL    HW235073   1.152   4.797   3.664 -0.9508 -1.1561 -1.6823
 9890SOL     OW35074   8.860   3.872   4.053  0.3783 -0.1282 -0.2389
 9890SOL    HW135075   8.891   3.779   4.070  1.2263  0.3361  0.7729
 9890SOL    HW235076   8.869   3.927   4.136 -1.5579  0.4691 -0.3822
 9892SOL     OW35077   4.017   0.603   5.438 -0.2894 -0.3683 -0.2693
 9892SOL    HW135078   4.064   0.659   5.506  0.5119 -0.2148 -0.9447
 9892SOL    HW235079   4.084   0.566   5.374 -1.2597  1.3051 -2.3008
 9893SOL     OW35080   5.260   1.443   3.300 -0.4833 -0.3240 -0.1800
 9893SOL    HW135081   5.177   1.498   3.293 -0.0983  0.0105 -2.3156
 9893SOL    HW235082   5.339   1.499   3.276  0.3232 -0.7746  1.3685
 9895SOL     OW35083   7.425   7.380   6.440  0.3474 -0.1827 -0.0490
 9895SOL    HW135084   7.462   7.323   6.366  2.1881 -1.5202  1.8328
 9895SOL    HW235085   7.329   7.356   6.456  1.1541 -2.9748  0.8539
 9896SOL     OW35086   1.714   3.824   6.030  0.2683  0.6952 -0.6290
 9896SOL    HW135087   1.687   3.755   5.963 -0.8426  0.6530 -0.1455
 9896SOL    HW235088   1.673   3.803   6.118  1.8484  0.6604  0.1244
 9897SOL     OW35089   2.674   2.821   6.345  0.3520 -0.0207 -0.0336
 9897SOL    HW135090   2.722   2.756   6.287 -1.2148 -0.4475 -0.8555
 9897SOL    HW235091   2.659   2.906   6.295  1.4699  0.6298  0.6943
 9899SOL     OW35092   2.788   5.198   0.743 -0.6208  0.0331 -0.2535
 9899SOL    HW135093   2.841   5.245   0.673  1.7146 -1.2133  0.6447
 9899SOL    HW235094   2.789   5.100   0.725 -1.3975 -0.1414  0.6278
 9902SOL     OW35095   2.994   0.223   1.581 -0.1140  0.2673  0.5824
 9902SOL    HW135096   2.951   0.159   1.645  2.4248 -3.0590 -0.8299
 9902SOL    HW235097   2.970   0.197   1.488  0.3642  1.8855 -0.0089
 9903SOL     OW35098   8.244   5.377   4.106 -0.1011 -0.6333 -0.2919
 9903SOL    HW135099   8.235   5.350   4.010 -1.2849  1.4689 -0.7907
 9903SOL    HW235100   8.308   5.315   4.151  1.7949 -0.6114 -2.8421
 9904SOL     OW35101   4.325   9.400   6.020 -0.1331 -0.1923 -0.4116
 9904SOL    HW135102   4.331   9.468   5.947  1.4479 -1.3013 -1.3575
 9904SOL    HW235103   4.229   9.374   6.034 -0.6207  1.3241 -0.8716
 9905SOL     OW35104   6.649   1.670   5.488  0.0777 -0.2589 -0.3058
 9905SOL    HW135105   6.627   1.768   5.487  0.2966 -0.1906  0.9467
 9905SOL    HW235106   6.620   1.629   5.402 -1.9732  0.4624  0.0260
 9907SOL     OW35107   3.015   8.866   2.010  0.1786 -0.5371 -0.5578
 9907SOL    HW135108   3.022   8.927   2.089  0.9184  1.0209 -1.7982
 9907SOL    HW235109   2.919   8.854   1.985  0.0007 -0.2135 -0.0313
 9908SOL     OW35110   3.833   7.728   6.053 -0.3031 -0.1020  0.3923
 9908SOL    HW135111   3.855   7.728   6.151 -0.4190  0.0764  0.4176
 9908SOL    HW235112   3.891   7.661   6.006 -0.3327 -0.2747  0.6023
 9909SOL     OW35113   1.781   4.317   4.254 -0.1322 -0.6260  0.3667
 9909SOL    HW135114   1.774   4.314   4.154 -0.7074 -0.1617  0.3957
 9909SOL    HW235115   1.696   4.350   4.293  0.5238  0.3863  0.9555
 9911SOL     OW35116   7.910   7.282   2.983  0.2000 -0.0013  0.5942
 9911SOL    HW135117   7.891   7.246   2.891 -0.6633  0.7395  0.4850
 9911SOL    HW235118   7.953   7.372   2.975  1.4451 -0.5621  0.8915
 9912SOL     OW35119   6.438   8.627   2.689 -0.1268  0.1022 -0.5181
 9912SOL    HW135120   6.516   8.644   2.750  0.8440 -2.0025 -1.1162
 9912SOL    HW235121   6.438   8.693   2.614  0.9211  0.2891 -0.3540
 9914SOL     OW35122   6.067   8.235   3.132  0.0836  0.0409 -0.4537
 9914SOL    HW135123   5.981   8.248   3.181  0.5994  1.4151  0.1001
 9914SOL    HW235124   6.086   8.316   3.076  2.2282  0.7721  1.2961
 9917SOL     OW35125   9.811   2.189   0.059  0.5720 -0.0299 -0.2422
 9917SOL    HW135126   9.862   2.274   0.066 -0.1094  0.4826 -1.4018
 9917SOL    HW235127   9.730   2.203   0.002 -1.0112 -0.7761  1.7812
 9918SOL     OW35128   9.581   7.823   5.736 -0.5004 -0.4265 -0.1631
 9918SOL    HW135129   9.655   7.883   5.767 -0.1156 -0.0485 -1.7464
 9918SOL    HW235130   9.605   7.728   5.757 -0.1441 -0.2046  0.4654
 9919SOL     OW35131   8.218   6.657   4.463 -0.3065  0.1876  0.2983
 9919SOL    HW135132   8.206   6.566   4.504  1.9972 -0.2021  0.1727
 9919SOL    HW235133   8.301   6.699   4.499 -1.2480  2.1769  0.1844
 9920SOL     OW35134   4.625   4.204   0.236  0.1109  0.3728 -0.4394
 9920SOL    HW135135   4.561   4.169   0.305  0.9513  0.2400  0.2761
 9920SOL    HW235136   4.573   4.241   0.159 -0.8174 -0.6305 -0.3064
 9922SOL     OW35137   6.640   0.840   0.599  0.1004 -0.5327  0.3169
 9922SOL    HW135138   6.628   0.939   0.596  0.2034 -0.5092  0.6375
 9922SOL    HW235139   6.677   0.814   0.688  1.6907 -0.6836 -0.3601
 9923SOL     OW35140   2.401   4.855   2.853  0.2907 -0.5427 -0.3506
 9923SOL    HW135141   2.421   4.923   2.924 -1.1799 -1.4099  0.9197
 9923SOL    HW235142   2.445   4.769   2.877 -0.1319 -0.8122 -0.5446
 9925SOL     OW35143   4.778   0.204   5.559 -0.1955  0.3034  0.3838
 9925SOL    HW135144   4.754   0.260   5.479  0.8018  0.1464 -0.0322
 9925SOL    HW235145   4.840   0.256   5.618  0.4453 -0.2287  0.1786
 9926SOL     OW35146   2.575   0.678   6.310 -0.2524  0.1420  0.0973
 9926SOL    HW135147   2.599   0.709   6.218 -0.9885 -2.8485 -1.1452
 9926SOL    HW235148   2.503   0.609   6.305  0.8618 -1.3029  2.7686
 9927SOL     OW35149   2.668   5.409   2.080 -0.4943 -0.2284 -0.1917
 9927SOL    HW135150   2.719   5.376   2.001  0.7068 -0.4065  0.6497
 9927SOL    HW235151   2.621   5.494   2.056 -1.1500 -0.9427 -1.4628
 9928SOL     OW35152   1.088   5.908   5.587 -0.4155  0.3416  0.6593
 9928SOL    HW135153   1.025   5.985   5.595  0.5038  1.3433 -1.3052
 9928SOL    HW235154   1.178   5.941   5.560  0.7480 -1.1710  2.5394
 9930SOL     OW35155   3.381   6.928   3.209 -0.0514 -0.0653 -0.5692
 9930SOL    HW135156   3.394   6.846   3.152 -0.9694 -0.3970 -0.3049
 9930SOL    HW235157   3.452   6.930   3.279 -0.0791 -0.6859 -0.5164
 9931SOL     OW35158   9.417   7.986   3.625 -0.0516 -0.2429 -0.0225
 9931SOL    HW135159   9.435   7.898   3.668 -0.4106 -1.6129 -2.5739
 9931SOL    HW235160   9.425   8.059   3.693  0.2121 -2.2319  2.1294
 9934SOL     OW35161   4.778   1.316   5.304 -0.2963  0.5178 -0.4004
 9934SOL    HW135162   4.744   1.318   5.210 -2.3091  1.1574  0.3125
 9934SOL    HW235163   4.842   1.392   5.318  0.3864  0.1376 -1.3656
 9935SOL     OW35164   1.898   5.059   0.865 -0.5172  0.3213  0.4868
 9935SOL    HW135165   1.801   5.077   0.884 -0.4276  0.7893  0.5293
 9935SOL    HW235166   1.907   5.009   0.779 -0.8119  0.0594  0.6097
 9936SOL     OW35167   0.528   9.530   6.383  0.4129 -0.0337 -0.1903
 9936SOL    HW135168   0.563   9.616   6.347  0.8544 -0.1461 -0.0439
 9936SOL    HW235169   0.513   9.466   6.308  0.9076 -0.1176 -0.2210
 9937SOL     OW35170   5.970   4.470   0.502  0.2312 -0.0806  0.8214
 9937SOL    HW135171   6.014   4.481   0.591 -1.1441 -0.7834  1.6058
 9937SOL    HW235172   5.904   4.544   0.489 -0.7593 -0.8974  1.1187
 9939SOL     OW35173   3.884   8.549   1.104 -0.4486  0.1679 -0.1021
 9939SOL    HW135174   3.967   8.601   1.087 -0.1571 -0.6144 -1.1020
 9939SOL    HW235175   3.820   8.562   1.029 -1.1599  0.6219  0.5767
 9940SOL     OW35176   8.524   2.460   1.474  0.2025 -0.1644 -0.1100
 9940SOL    HW135177   8.501   2.363   1.472  0.9614 -0.3258 -1.2009
 9940SOL    HW235178   8.441   2.514   1.457 -0.0751 -0.6401 -0.2661
 9942SOL     OW35179   8.516   9.769   0.139 -0.5357  0.4567 -0.4713
 9942SOL    HW135180   8.540   9.807   0.228 -0.6617 -1.4837  0.4112
 9942SOL    HW235181   8.417   9.766   0.129 -0.5139  1.2166 -0.9180
 9943SOL     OW35182   3.838   1.295   6.155  0.2961 -0.1830  0.4071
 9943SOL    HW135183   3.781   1.315   6.235 -0.9196 -0.3678 -0.4064
 9943SOL    HW235184   3.931   1.326   6.173  0.2961 -1.1956  2.3184
 9944SOL     OW35185   3.412   6.924   6.025  0.3407 -0.0527  0.2044
 9944SOL    HW135186   3.445   6.925   6.119 -1.4439 -2.0895  0.9011
 9944SOL    HW235187   3.350   7.002   6.011  2.7730  1.8576 -0.1447
 9945SOL     OW35188   7.807   9.841   4.963  0.3763  0.7772 -0.2016
 9945SOL    HW135189   7.812   9.761   4.904 -0.4436  0.9444 -0.5052
 9945SOL    HW235190   7.711   9.866   4.977  0.6558  2.3804 -1.0369
 9946SOL     OW35191   2.222   0.309   4.154 -0.5206 -0.1177 -0.4982
 9946SOL    HW135192   2.286   0.273   4.222  0.0089 -0.5896 -1.2350
 9946SOL    HW235193   2.266   0.310   4.064 -1.3050  0.2457 -0.8833
 9947SOL     OW35194   4.785   2.003   3.633 -0.5060 -0.0791  0.0351
 9947SOL    HW135195   4.743   2.051   3.711  0.4383  0.2933  0.3223
 9947SOL    HW235196   4.789   1.906   3.654  1.8279  0.2886  1.4450
 9948SOL     OW35197   8.923   2.286   2.319 -0.4094 -0.0289 -0.1272
 9948SOL    HW135198   8.925   2.382   2.348  1.6316  0.0924 -0.5402
 9948SOL    HW235199   8.973   2.230   2.385 -1.6967 -0.8262  0.1692
 9949SOL     OW35200   8.170   0.006   3.161  0.3989 -0.2748 -0.2415
 9949SOL    HW135201   8.269   0.009   3.174  0.3886 -0.7275 -0.0332
 9949SOL    HW235202   8.129  -0.052   3.232  0.1202 -1.1202 -1.0788
 9950SOL     OW35203   8.535   6.787   0.713  0.2113  0.1796 -0.1212
 9950SOL    HW135204   8.554   6.766   0.809  2.3755 -2.0333 -0.9700
 9950SOL    HW235205   8.555   6.883   0.695 -1.9066  1.0873  1.9930
 9951SOL     OW35206   0.598   1.314   4.307 -0.2813  0.1745 -0.7868
 9951SOL    HW135207   0.584   1.296   4.210 -0.7938 -0.3773 -0.6170
 9951SOL    HW235208   0.513   1.348   4.347 -0.0419  0.5039 -0.5528
 9952SOL     OW35209   6.929   0.974   5.414  0.3947  0.3335 -0.0747
 9952SOL    HW135210   6.983   0.890   5.422  1.0690  0.8911  1.3927
 9952SOL    HW235211   6.969   1.044   5.473 -2.2556  0.5914  1.4703
 9953SOL     OW35212   7.599   1.164   4.924  0.1299  0.6494  0.1786
 9953SOL    HW135213   7.626   1.075   4.961  1.2050  0.9390  0.0818
 9953SOL    HW235214   7.609   1.164   4.825  0.6214  1.0564  0.2282
 9954SOL     OW35215   7.652   2.369   3.982 -0.1362  0.3780  0.3701
 9954SOL    HW135216   7.553   2.376   3.977 -0.0502  1.9219  0.5537
 9954SOL    HW235217   7.689   2.353   3.890 -0.6421 -1.7655  0.5166
 9955SOL     OW35218   1.625   9.647   6.262  0.5258  0.4116  0.2287
 9955SOL    HW135219   1.709   9.644   6.207  1.0925  1.3630  1.0216
 9955SOL    HW235220   1.646   9.684   6.353 -0.4897 -0.6756  0.9202
 9956SOL     OW35221   0.286   4.568   1.069 -0.1427 -0.0389 -0.4015
 9956SOL    HW135222   0.252   4.620   0.991  0.2468  0.2232 -0.3985
 9956SOL    HW235223   0.241   4.479   1.072 -0.6584  0.2145 -0.5286
 9957SOL     OW35224   4.306   2.907   5.695 -0.1922 -0.4447  0.3908
 9957SOL    HW135225   4.281   2.818   5.658 -0.6929  0.4601 -1.5151
 9957SOL    HW235226   4.395   2.934   5.658 -0.8831  0.6541 -0.4988
 9958SOL     OW35227   8.280   2.270   4.477  0.1894  0.2283 -0.2792
 9958SOL    HW135228   8.186   2.243   4.462  0.1468  0.3540 -0.2483
 9958SOL    HW235229   8.331   2.196   4.521 -0.6146  1.1766  2.3634
 9959SOL     OW35230   1.828   4.366   3.010 -0.4295  0.5426 -0.0907
 9959SOL    HW135231   1.901   4.308   3.045 -1.3402 -0.2794  0.4761
 9959SOL    HW235232   1.847   4.389   2.914  0.0623 -0.4999 -0.2577
 9962SOL     OW35233   8.694   8.614   4.594 -0.5282 -0.0012 -0.6114
 9962SOL    HW135234   8.598   8.614   4.566 -1.1816  0.4190  1.5288
 9962SOL    HW235235   8.742   8.691   4.552 -2.1359  2.2127  1.4812
 9964SOL     OW35236   2.816   0.809   0.308 -0.3774  0.6032  0.4190
 9964SOL    HW135237   2.897   0.867   0.298 -0.3273  0.3484 -0.6973
 9964SOL    HW235238   2.843   0.713   0.295 -0.9849  0.5793 -0.6848
 9965SOL     OW35239   8.225   6.215   5.729  0.2574  0.2268 -0.1362
 9965SOL    HW135240   8.302   6.217   5.666  0.6552 -1.4064  0.2711
 9965SOL    HW235241   8.237   6.284   5.800  2.4558 -1.4384  1.1705
 9966SOL     OW35242   1.425   9.792   3.635 -0.0170  0.3900 -0.5231
 9966SOL    HW135243   1.389   9.702   3.660  0.4198  0.5661  0.7668
 9966SOL    HW235244   1.366   9.863   3.674  0.1637  0.6702 -0.7628
 9967SOL     OW35245   9.645   8.316   3.326  0.0369  0.0683  0.0990
 9967SOL    HW135246   9.706   8.254   3.375  0.7903 -0.6843 -1.7500
 9967SOL    HW235247   9.561   8.329   3.379  0.8698 -0.6254  1.6189
 9968SOL     OW35248   3.701   8.897   5.358  0.1482  0.1794  0.8498
 9968SOL    HW135249   3.719   8.799   5.370 -0.1061  0.0862  0.4922
 9968SOL    HW235250   3.692   8.917   5.260  0.6493  0.6421  0.8942
 9969SOL     OW35251   4.365   0.304   1.961  0.3267  0.1862 -0.1964
 9969SOL    HW135252   4.385   0.400   1.939 -1.4461  0.6673  0.2092
 9969SOL    HW235253   4.385   0.287   2.058  0.0421  0.3120 -0.1155
 9971SOL     OW35254   8.090   7.502   3.330  0.0667  0.4915  0.1109
 9971SOL    HW135255   8.079   7.542   3.421 -1.1857  0.5209 -0.0459
 9971SOL    HW235256   8.118   7.407   3.338 -2.4056 -0.2267  0.5830
 9972SOL     OW35257   9.840   8.612   2.671 -0.1508  0.4123  0.1659
 9972SOL    HW135258   9.763   8.659   2.627  0.5635  0.3963 -1.1405
 9972SOL    HW235259   9.886   8.674   2.734 -0.4976  0.7930  0.0504
 9973SOL     OW35260   3.689   9.401   4.880 -0.0385 -0.1709 -0.5789
 9973SOL    HW135261   3.776   9.363   4.912 -0.5132 -1.2051 -0.4765
 9973SOL    HW235262   3.647   9.454   4.953  0.8611  0.9545 -0.8763
 9975SOL     OW35263   5.929   5.765   0.871  0.7767 -0.4849 -0.7248
 9975SOL    HW135264   5.836   5.761   0.833  1.5266 -1.5471 -2.5088
 9975SOL    HW235265   5.955   5.860   0.884 -0.7810 -0.1828  0.3742
 9976SOL     OW35266   0.072   5.584   4.067 -0.4200 -0.4689 -0.0304
 9976SOL    HW135267   0.093   5.667   4.119  0.5035  0.1704 -1.4087
 9976SOL    HW235268  -0.027   5.573   4.062 -0.5328 -0.4284  1.6811
 9977SOL     OW35269   2.060   8.152   5.414 -0.2251 -0.1746 -0.0578
 9977SOL    HW135270   2.067   8.145   5.513  0.5182 -0.9809 -0.1650
 9977SOL    HW235271   1.990   8.089   5.380 -0.2207 -0.1636 -0.0860
 9978SOL     OW35272   7.535   0.839   3.187  0.2513  0.0533  0.5983
 9978SOL    HW135273   7.634   0.834   3.174  0.4427  1.4424  1.4729
 9978SOL    HW235274   7.495   0.747   3.177  1.5674 -0.4522 -0.1145
 9979SOL     OW35275   1.755   4.372   1.100 -0.3760  0.1604 -0.3920
 9979SOL    HW135276   1.747   4.382   1.001 -0.3265  1.1693 -0.3025
 9979SOL    HW235277   1.792   4.282   1.122 -2.6272 -0.9957 -1.1829
 9981SOL     OW35278   4.871   2.629   5.693 -0.4074  0.3615 -0.2925
 9981SOL    HW135279   4.804   2.704   5.688 -1.0703 -0.1645  0.5544
 9981SOL    HW235280   4.826   2.543   5.668 -0.1280 -0.0397  0.5795
 9982SOL     OW35281   8.395   7.643   2.727  0.0338  0.9835  0.6734
 9982SOL    HW135282   8.315   7.704   2.729 -1.3194 -0.7421  0.6696
 9982SOL    HW235283   8.473   7.689   2.769 -0.9665  2.6969  0.7124
 9983SOL     OW35284   9.994   5.975   4.001 -0.3266 -0.0622 -0.1723
 9983SOL    HW135285  10.079   5.960   3.950 -0.4905  2.6689 -1.3434
 9983SOL    HW235286   9.916   5.954   3.943 -0.4761 -0.7976  0.2918
 9984SOL     OW35287   4.108   7.712   3.078 -0.0628 -0.0613 -0.5701
 9984SOL    HW135288   4.115   7.650   3.000 -0.8095 -0.0235 -0.6715
 9984SOL    HW235289   4.045   7.674   3.145 -0.1725  0.3639 -0.4284
 9985SOL     OW35290   3.396   8.123   0.388  0.2917 -0.2370 -0.1061
 9985SOL    HW135291   3.378   8.122   0.486  0.0888  0.5026 -0.1331
 9985SOL    HW235292   3.426   8.033   0.359 -0.5463 -0.7056  0.4690
 9986SOL     OW35293   6.271   1.301   6.169  0.2902  0.0466 -0.1278
 9986SOL    HW135294   6.359   1.350   6.168 -0.0345  0.6526  0.6342
 9986SOL    HW235295   6.276   1.225   6.233  0.2750  0.0505 -0.1222
 9987SOL     OW35296   0.376   9.323   3.302  0.0430 -0.4198 -0.3651
 9987SOL    HW135297   0.402   9.390   3.232 -0.3661 -0.7040 -0.7909
 9987SOL    HW235298   0.292   9.353   3.346  0.4069 -0.1419  0.1430
 9988SOL     OW35299   8.770   6.998   2.312 -0.2981  0.0910 -0.2444
 9988SOL    HW135300   8.737   7.021   2.221  0.0212 -0.2471 -0.4446
 9988SOL    HW235301   8.692   6.979   2.372 -0.4832 -0.5478 -0.6766
 9989SOL     OW35302   2.603   9.181   1.796  0.0079 -0.6133 -0.0542
 9989SOL    HW135303   2.604   9.271   1.751  1.1293 -0.2594  0.6508
 9989SOL    HW235304   2.621   9.110   1.729 -0.4991 -0.2809 -0.5492
 9990SOL     OW35305   7.838   1.544   4.766 -0.2463  0.3188 -0.0499
 9990SOL    HW135306   7.920   1.597   4.784 -0.3622 -0.1386  1.9167
 9990SOL    HW235307   7.844   1.456   4.812 -1.9712  0.3953  0.3649
 9991SOL     OW35308   8.310   6.904   2.536 -0.1571 -0.0415 -0.3581
 9991SOL    HW135309   8.270   6.818   2.503  1.5564 -1.0572  0.1855
 9991SOL    HW235310   8.266   6.929   2.623  0.7449 -1.4569  0.5329
 9993SOL     OW35311   3.387   0.436   5.945 -0.4552  0.6196 -0.7749
 9993SOL    HW135312   3.399   0.370   6.019 -4.3578 -2.1373 -2.3897
 9993SOL    HW235313   3.456   0.422   5.874 -0.8596 -1.3642 -0.7893
 9994SOL     OW35314   1.406   0.134   4.408  0.4675  0.3261  0.2372
 9994SOL    HW135315   1.491   0.140   4.355  0.2523 -0.9696 -0.2580
 9994SOL    HW235316   1.401   0.045   4.453 -0.9470  0.1356 -0.2724
 9995SOL     OW35317   3.371   9.972   2.539 -0.5260 -0.2810  0.1205
 9995SOL    HW135318   3.311  10.049   2.557  3.0784  2.5984  0.3552
 9995SOL    HW235319   3.391   9.924   2.624 -2.0335 -0.9421  0.1138
 9996SOL     OW35320   8.413   8.409   0.597  0.1898  0.1224 -0.0778
 9996SOL    HW135321   8.469   8.446   0.523  0.2086 -0.3099 -0.2795
 9996SOL    HW235322   8.371   8.323   0.568 -0.0998  0.1400  0.2826
 9997SOL     OW35323   7.433   2.582   3.269 -0.1983 -0.1658 -0.2462
 9997SOL    HW135324   7.434   2.515   3.195 -0.0853 -0.0516 -0.3509
 9997SOL    HW235325   7.452   2.537   3.356  0.3117 -0.2024 -0.3746
 9998SOL     OW35326   7.373   8.238   4.008  0.3909 -0.5143 -0.0912
 9998SOL    HW135327   7.399   8.168   3.941  1.7004 -1.0666  0.9622
 9998SOL    HW235328   7.438   8.314   4.004  1.5359 -1.3714  1.7752
 9999SOL     OW35329   3.567   3.389   2.856 -0.2023  0.5459 -0.1961
 9999SOL    HW135330   3.644   3.396   2.920  1.1860  0.6343 -1.8355
 9999SOL    HW235331   3.530   3.296   2.859  1.2581 -0.0768 -0.8136
10000SOL     OW35332   7.560   1.410   2.144  0.3521 -0.1524  0.6892
10000SOL    HW135333   7.537   1.506   2.158  1.5066  0.1755  0.4137
10000SOL    HW235334   7.633   1.403   2.075  0.6625 -1.1829  1.1172
10001SOL     OW35335   9.912   0.560   5.380  0.0688 -0.3494  0.3097
10001SOL    HW135336   9.892   0.464   5.360 -0.6240  0.0871 -1.1197
10001SOL    HW235337   9.998   0.566   5.431  2.5240 -1.4347 -3.5202
10002SOL     OW35338   0.195   4.954   3.886 -0.4398 -0.5911  0.0800
10002SOL    HW135339   0.218   4.949   3.789  1.1542 -1.5572  0.5088
10002SOL    HW235340   0.251   4.890   3.938 -1.3772 -0.1824  1.6329
10006SOL     OW35341   6.580   8.139   3.160 -0.3619  0.4535  0.8763
10006SOL    HW135342   6.612   8.225   3.119 -1.8171  0.2920 -0.6073
10006SOL    HW235343   6.481   8.135   3.157 -0.2288 -2.8499 -2.2953
10007SOL     OW35344   8.289   9.071   3.834  0.3635 -0.3102 -0.3702
10007SOL    HW135345   8.284   8.982   3.789 -0.7052 -0.4572  0.0236
10007SOL    HW235346   8.320   9.140   3.769  0.1340 -0.7708 -0.9680
10008SOL     OW35347   0.772   0.843   0.113 -0.2870 -0.6651 -0.0420
10008SOL    HW135348   0.699   0.834   0.045 -0.3297  0.6983 -0.1852
10008SOL    HW235349   0.860   0.847   0.066 -0.2547 -0.5134  0.0330
10009SOL     OW35350   8.598   6.894   5.848 -0.2824 -0.0051 -0.8582
10009SOL    HW135351   8.689   6.884   5.887  0.7547 -0.0538 -3.2367
10009SOL    HW235352   8.555   6.977   5.885  0.2737 -0.5790  1.0993
10010SOL     OW35353   1.229   1.797   4.633  0.2136 -1.1238  0.0943
10010SOL    HW135354   1.252   1.778   4.537  1.7854  1.5306 -0.1094
10010SOL    HW235355   1.290   1.744   4.693  0.8437 -0.9739 -0.4041
10011SOL     OW35356   3.671   2.276   4.970 -0.7289  0.1464 -0.0352
10011SOL    HW135357   3.720   2.194   4.940 -0.6967  0.0668  0.2409
10011SOL    HW235358   3.581   2.250   5.004 -1.6116  0.4579 -2.0645
10012SOL     OW35359   8.860   1.883   3.040  0.1116 -0.2545  0.0234
10012SOL    HW135360   8.943   1.828   3.048  0.2371 -0.1771 -0.6977
10012SOL    HW235361   8.781   1.823   3.026 -0.2821 -0.4634  2.9341
10013SOL     OW35362   0.041   2.276   4.052  0.0391 -0.4404  0.0732
10013SOL    HW135363   0.102   2.236   4.121  1.1923  0.7090 -0.2635
10013SOL    HW235364  -0.028   2.333   4.097  0.0640 -0.6406  0.3639
10015SOL     OW35365   2.663   6.535   1.570 -0.3314 -0.3090 -0.3275
10015SOL    HW135366   2.617   6.514   1.484  0.2585  1.3941 -1.0753
10015SOL    HW235367   2.694   6.450   1.613  0.3906 -1.1031 -2.3681
10016SOL     OW35368   2.839   5.596   4.175  0.5763  0.2443  0.0768
10016SOL    HW135369   2.784   5.597   4.092  0.6845  0.2699  0.0046
10016SOL    HW235370   2.933   5.569   4.152  0.6238  0.3204  0.1796
10018SOL     OW35371   1.315   3.780   5.791 -0.1675  0.5806 -0.0994
10018SOL    HW135372   1.304   3.873   5.827 -2.9636 -0.0981  0.8764
10018SOL    HW235373   1.308   3.783   5.691 -1.2912  1.3033 -0.0167
10019SOL     OW35374   9.666   0.581   2.259 -0.0772  0.0455 -0.2811
10019SOL    HW135375   9.716   0.528   2.190  1.3417  2.1578 -0.9269
10019SOL    HW235376   9.603   0.643   2.213  0.5470  1.1468  0.3362
10021SOL     OW35377   1.792   7.019   0.916  0.3602  0.0837  0.7235
10021SOL    HW135378   1.702   7.051   0.945  0.5249  0.3038  0.9961
10021SOL    HW235379   1.782   6.953   0.841 -0.0642 -0.4129  1.2133
10022SOL     OW35380   3.790   7.159   3.561  0.3560 -0.3384 -0.2490
10022SOL    HW135381   3.733   7.177   3.641 -1.1698  0.8193 -1.5759
10022SOL    HW235382   3.834   7.243   3.531  0.8757 -0.7598 -0.6900
10023SOL     OW35383   6.665   4.279   2.309 -0.4795 -0.3070  0.2144
10023SOL    HW135384   6.755   4.254   2.274 -1.1620 -0.1355 -1.7360
10023SOL    HW235385   6.608   4.312   2.233 -2.5088 -1.3578  1.2519
10025SOL     OW35386   7.585   9.808   4.418  0.4039 -0.0368  0.4759
10025SOL    HW135387   7.571   9.758   4.503 -0.2404  0.1540  0.4866
10025SOL    HW235388   7.540   9.897   4.424 -0.2482 -0.3015 -0.3167
10026SOL     OW35389   0.211   2.552   5.284 -0.1316  0.2133 -0.1101
10026SOL    HW135390   0.125   2.595   5.312 -0.8065 -1.7082  0.8553
10026SOL    HW235391   0.268   2.536   5.364  0.5984  0.3366 -0.6005
10027SOL     OW35392   1.734   2.137   0.898 -0.2025  0.0086 -0.0495
10027SOL    HW135393   1.777   2.172   0.981 -2.0916  0.9472  0.5659
10027SOL    HW235394   1.804   2.102   0.836  1.2604 -0.4137  1.8019
10028SOL     OW35395   1.827   5.077   6.263  0.0755  0.3049 -0.2211
10028SOL    HW135396   1.900   5.010   6.248 -0.4779 -0.3558 -0.0197
10028SOL    HW235397   1.739   5.033   6.245 -0.2836  1.0287 -0.2217
10029SOL     OW35398   7.963   9.632   3.517  0.0686  0.0572  0.2400
10029SOL    HW135399   7.971   9.576   3.599  2.0199 -0.1400 -0.0531
10029SOL    HW235400   7.963   9.574   3.436 -2.0738  0.2357  0.0799
10030SOL     OW35401   5.139   7.447   3.432 -0.4378 -0.6566 -0.1557
10030SOL    HW135402   5.074   7.511   3.474 -0.3307  0.6454 -1.8688
10030SOL    HW235403   5.101   7.414   3.345  1.4603  0.6791 -1.5336
10031SOL     OW35404   1.439   7.966   2.470  0.2688  0.4322 -0.1370
10031SOL    HW135405   1.513   7.903   2.493 -1.2459 -1.5399 -0.5595
10031SOL    HW235406   1.438   7.982   2.371 -0.8502 -0.8405 -0.3491
10032SOL     OW35407   8.211   4.317   5.569 -0.2372  0.0039 -0.3706
10032SOL    HW135408   8.275   4.291   5.641 -1.2419 -0.9285  0.1843
10032SOL    HW235409   8.117   4.306   5.601 -0.6974  1.9584 -0.9783
10033SOL     OW35410   3.763   4.435   2.076 -0.0971 -0.8056  0.7068
10033SOL    HW135411   3.679   4.383   2.061  0.6862 -1.5886 -1.1661
10033SOL    HW235412   3.771   4.505   2.005  1.5637 -1.7183 -0.0339
10034SOL     OW35413   0.653   0.482   2.406 -0.5620  0.2117 -0.0183
10034SOL    HW135414   0.590   0.550   2.444 -0.1076  0.4436  0.3183
10034SOL    HW235415   0.747   0.506   2.429 -0.3951 -0.5126  0.0793
10035SOL     OW35416   1.762   9.617   2.771 -0.5930  0.1797 -0.3451
10035SOL    HW135417   1.846   9.659   2.735 -1.4032  0.7879 -1.5314
10035SOL    HW235418   1.715   9.568   2.698 -2.3019  1.5041 -0.1501
10037SOL     OW35419   0.270   4.580   1.353  0.3072  0.3025 -0.0844
10037SOL    HW135420   0.257   4.558   1.257  0.7569  0.4838 -0.1854
10037SOL    HW235421   0.299   4.675   1.362  5.0652 -1.0285 -0.1109
10038SOL     OW35422   1.766   4.031   1.666 -0.5290  0.4202 -0.3529
10038SOL    HW135423   1.809   4.015   1.578  0.2325  1.4021 -0.1641
10038SOL    HW235424   1.755   3.945   1.715  2.5167  0.3059  0.2026
10040SOL     OW35425   0.656   2.069   2.919  0.2776  0.2646  0.1555
10040SOL    HW135426   0.754   2.067   2.900  0.3218  0.6710  0.3431
10040SOL    HW235427   0.640   2.047   3.016  0.1380 -0.4917 -0.0350
10041SOL     OW35428   8.976   9.613   2.354 -0.2537  0.2151 -0.3706
10041SOL    HW135429   9.060   9.567   2.325  0.5249  0.4099  1.5525
10041SOL    HW235430   8.904   9.595   2.287  1.2045 -0.2684 -1.8506
10042SOL     OW35431   7.511   3.013   2.973 -0.0727 -0.0706  0.3894
10042SOL    HW135432   7.573   2.940   3.000 -0.8053 -0.0940  2.0066
10042SOL    HW235433   7.435   2.975   2.921 -1.2041 -0.6620  2.4402
10043SOL     OW35434   1.231   3.928   2.143 -0.2915  0.1848 -0.2220
10043SOL    HW135435   1.201   3.860   2.210 -0.8325  0.0296 -0.6190
10043SOL    HW235436   1.221   4.020   2.182  0.2799  0.0501  0.2507
10045SOL     OW35437   0.273   9.638   0.737  0.6386  0.2227 -0.2048
10045SOL    HW135438   0.261   9.552   0.689  2.6862 -0.6811  0.8783
10045SOL    HW235439   0.246   9.627   0.833 -1.0741  1.3558 -0.5307
10046SOL     OW35440   1.613   7.101   0.521  0.7529 -0.2221  0.3715
10046SOL    HW135441   1.570   7.049   0.594  0.8246 -0.6727  0.0969
10046SOL    HW235442   1.703   7.061   0.500 -0.3013 -1.6486 -1.6440
10047SOL     OW35443   1.104   5.129   0.161 -0.2913  0.1697 -0.5263
10047SOL    HW135444   1.010   5.117   0.191 -0.7473 -0.1917 -2.0181
10047SOL    HW235445   1.166   5.118   0.238 -1.4459 -0.0560  0.3792
10048SOL     OW35446   0.077   9.040   5.791 -0.0921  0.0125  0.4135
10048SOL    HW135447   0.011   8.987   5.844 -2.8840  3.0444  0.1304
10048SOL    HW235448   0.043   9.050   5.697  1.9161 -0.3026 -0.3637
10050SOL     OW35449   5.164   0.942   3.015  0.1869 -0.1561 -0.7116
10050SOL    HW135450   5.219   0.869   3.054 -2.8848 -2.1785  0.0008
10050SOL    HW235451   5.125   0.912   2.928 -2.1911  0.0938  0.2263
10051SOL     OW35452   7.545   8.446   4.001 -0.0674 -0.3442  0.2476
10051SOL    HW135453   7.497   8.526   3.965  1.0114 -0.6891 -2.0353
10051SOL    HW235454   7.614   8.475   4.067  0.7168  0.7033 -0.9966
10052SOL     OW35455   3.175   8.461   1.337  0.0902 -0.6071  0.1993
10052SOL    HW135456   3.085   8.495   1.312 -0.0650 -0.8663  0.4133
10052SOL    HW235457   3.238   8.538   1.349 -0.9978 -0.2065  3.6281
10053SOL     OW35458   8.785   4.388   0.658 -0.7101  0.1582  0.6706
10053SOL    HW135459   8.794   4.311   0.594  0.8522 -0.0955  1.1840
10053SOL    HW235460   8.731   4.460   0.615 -1.1746 -0.7296 -0.2723
10055SOL     OW35461   9.651   6.005   4.795  0.6369 -0.2953 -0.8016
10055SOL    HW135462   9.726   6.065   4.766  1.0192 -0.4154 -0.0762
10055SOL    HW235463   9.565   6.037   4.754  1.1582 -0.4515 -2.0459
10056SOL     OW35464   5.085   7.896   3.916 -0.1367  0.0974  0.4580
10056SOL    HW135465   5.128   7.874   3.828  1.9456  0.7257  1.2763
10056SOL    HW235466   5.121   7.983   3.949  0.4107 -0.9783  2.7653
10057SOL     OW35467   6.658   8.960   3.390  0.2704 -0.3551 -0.0619
10057SOL    HW135468   6.561   8.949   3.411  0.1724 -0.5177 -0.5839
10057SOL    HW235469   6.712   8.891   3.439  0.2342  0.4013  1.0581
10058SOL     OW35470   1.713   1.143   1.462 -0.3748  0.0786  0.2947
10058SOL    HW135471   1.799   1.093   1.450 -1.2536 -0.9306 -2.1527
10058SOL    HW235472   1.705   1.211   1.389 -1.4749  0.4389  0.7455
10061SOL     OW35473   1.287   7.764   4.099 -0.3319  0.6131 -0.1911
10061SOL    HW135474   1.311   7.787   4.005 -1.3119 -0.5113 -0.7308
10061SOL    HW235475   1.273   7.849   4.151 -0.3473  1.2399 -1.2046
10062SOL     OW35476   9.931   4.013   2.744  0.0847 -0.0268  0.2936
10062SOL    HW135477  10.007   4.070   2.776 -0.2784 -0.3048  1.6964
10062SOL    HW235478   9.922   3.933   2.804 -1.4191  0.0882  0.2355
10063SOL     OW35479   0.897   4.298   2.938 -0.4862 -0.8119  0.6412
10063SOL    HW135480   0.871   4.217   2.886  2.3102 -0.8946 -0.6765
10063SOL    HW235481   0.855   4.379   2.896  0.4469 -1.0662 -0.8161
10064SOL     OW35482   8.993   9.942   2.575 -0.4541 -0.0553  0.6798
10064SOL    HW135483   9.087   9.946   2.541 -0.3817  0.6537  0.9570
10064SOL    HW235484   8.929   9.938   2.498 -0.3915  3.5420  0.3770
10066SOL     OW35485   8.706   5.710   2.508 -0.2193  0.3874 -0.6491
10066SOL    HW135486   8.635   5.696   2.577  2.0770 -2.2808  1.3230
10066SOL    HW235487   8.755   5.795   2.527  0.2047 -0.1716  0.9114
10067SOL     OW35488   4.029   2.511   2.568  0.0807  0.1024 -0.1016
10067SOL    HW135489   3.989   2.580   2.507 -2.5525 -0.4046  0.9597
10067SOL    HW235490   4.070   2.438   2.513 -2.0003 -0.2091 -1.3050
10068SOL     OW35491   1.916   0.972   1.442  0.5542  0.3766 -0.0946
10068SOL    HW135492   1.984   0.965   1.514  1.2298  1.4149 -0.6150
10068SOL    HW235493   1.886   0.881   1.414 -0.4772 -0.0118  2.1946
10069SOL     OW35494   4.557   4.734   1.164  0.2769  0.5004 -0.1333
10069SOL    HW135495   4.495   4.662   1.132  1.2258 -0.7660  0.8298
10069SOL    HW235496   4.522   4.772   1.250  0.5574  0.1191  0.1559
10070SOL     OW35497   1.681   6.041   3.318 -0.3271  0.0485  0.2973
10070SOL    HW135498   1.708   5.967   3.257 -0.6658  0.6546 -0.5859
10070SOL    HW235499   1.645   6.002   3.403 -0.2545 -0.7993 -0.0536
10071SOL     OW35500   5.625   2.938   4.397 -0.0182  0.2071  0.3187
10071SOL    HW135501   5.697   2.887   4.445 -0.2738 -0.9418 -0.4823
10071SOL    HW235502   5.660   2.970   4.309 -0.5570 -0.5953 -0.1971
10072SOL     OW35503   9.008   8.909   3.381  0.0614 -0.3729 -0.1491
10072SOL    HW135504   8.967   8.900   3.290  0.5156 -0.3353 -0.3613
10072SOL    HW235505   9.102   8.874   3.378 -0.3129 -1.4830  0.5926
10073SOL     OW35506   7.907   8.781   1.456 -0.1376  0.6807  0.2275
10073SOL    HW135507   7.830   8.796   1.394 -1.2654 -1.2516  1.1218
10073SOL    HW235508   7.989   8.761   1.403 -0.9825 -0.5114 -0.6586
10074SOL     OW35509   4.205   1.066   1.856  0.1307 -0.0586 -0.6046
10074SOL    HW135510   4.113   1.103   1.861  0.6370  1.1339  0.3479
10074SOL    HW235511   4.215   1.010   1.774 -1.5746 -0.6033 -0.4472
10075SOL     OW35512   9.903   8.786   1.052 -0.0273 -0.1712 -0.1763
10075SOL    HW135513   9.915   8.833   0.964 -0.4129 -1.8783 -1.1659
10075SOL    HW235514   9.812   8.744   1.055  0.4465 -1.1699  0.5295
10077SOL     OW35515   1.089   0.234   1.734 -0.0562 -0.3954  0.1617
10077SOL    HW135516   1.176   0.216   1.688 -0.1291  0.5968 -0.3817
10077SOL    HW235517   1.015   0.235   1.667 -0.6324 -2.2164  0.7532
10078SOL     OW35518   9.591   1.892   2.629 -0.2967 -0.3963  0.1334
10078SOL    HW135519   9.606   1.988   2.607 -0.5139 -0.3222  0.3020
10078SOL    HW235520   9.579   1.840   2.545 -2.1174  0.0497  0.1014
10079SOL     OW35521   1.971   1.233   2.421  0.6470 -0.2204  0.1869
10079SOL    HW135522   1.886   1.202   2.379  0.7440  1.7222 -1.5376
10079SOL    HW235523   2.043   1.165   2.406 -0.0029 -0.7756 -0.4175
10080SOL     OW35524   6.016   0.905   1.308  0.4645 -0.3542  0.1295
10080SOL    HW135525   6.006   0.992   1.261  0.2341 -0.9068 -0.8683
10080SOL    HW235526   6.029   0.832   1.240  0.9887 -1.0461  0.9607
10081SOL     OW35527   2.097   2.609   2.403 -0.0710  0.3372  0.2692
10081SOL    HW135528   2.032   2.534   2.395  0.5794 -0.1976 -0.0164
10081SOL    HW235529   2.114   2.649   2.313  0.6534 -0.0817  0.2194
10083SOL     OW35530   9.967   0.445   0.223 -0.7361 -0.9184  0.5814
10083SOL    HW135531   9.954   0.543   0.237 -2.6069 -0.9584 -0.7066
10083SOL    HW235532   9.881   0.403   0.195  0.6558 -2.4523 -1.5486
10084SOL     OW35533   2.862   6.795   5.859 -0.1544 -0.0155 -0.8087
10084SOL    HW135534   2.932   6.729   5.884  1.0496  1.6937  0.4717
10084SOL    HW235535   2.802   6.812   5.938  0.1496  1.1181 -0.8039
10085SOL     OW35536   1.076   5.803   5.849  0.1302 -0.3488  0.2359
10085SOL    HW135537   1.106   5.859   5.772  0.7828  0.5799  1.1548
10085SOL    HW235538   1.136   5.819   5.927 -1.4824 -0.0894  1.4451
10086SOL     OW35539   5.176   0.105   2.005 -0.6565 -0.2011  0.1320
10086SOL    HW135540   5.178   0.045   1.926 -0.9397 -1.5755  1.1491
10086SOL    HW235541   5.182   0.200   1.975 -0.0206 -0.7352 -1.4856
10088SOL     OW35542   8.140   0.388   6.210 -0.3625 -0.1406 -0.3851
10088SOL    HW135543   8.123   0.339   6.124  2.1144 -0.8940 -0.5021
10088SOL    HW235544   8.239   0.394   6.225 -0.7441  1.0055  1.8409
10089SOL     OW35545   2.948   9.672   3.209 -0.1488 -0.5389 -0.2927
10089SOL    HW135546   2.969   9.739   3.280 -0.7115 -0.5601 -0.0961
10089SOL    HW235547   2.864   9.699   3.162  0.6329 -0.1295 -1.4654
10091SOL     OW35548   6.888   1.534   0.720 -0.1961 -0.1363 -0.0718
10091SOL    HW135549   6.968   1.474   0.711 -0.1368  0.1697 -1.8375
10091SOL    HW235550   6.806   1.480   0.733  0.2711 -0.4607  1.6708
10092SOL     OW35551   2.336   4.873   2.197 -0.5426  0.5188  0.0953
10092SOL    HW135552   2.392   4.798   2.160 -2.2498  0.2765 -2.1635
10092SOL    HW235553   2.244   4.838   2.219  0.2554  0.8026  4.1753
10093SOL     OW35554   7.142   2.142   5.654 -0.0721  0.3361  0.0452
10093SOL    HW135555   7.233   2.137   5.613 -0.8178 -0.6111 -1.5578
10093SOL    HW235556   7.128   2.234   5.691  0.3176  1.5367 -2.6496
10095SOL     OW35557   8.779   7.830   2.735  0.2301  0.4505 -0.3946
10095SOL    HW135558   8.770   7.871   2.644  2.5377 -2.5814 -2.0834
10095SOL    HW235559   8.863   7.862   2.778  0.7026 -0.4861 -0.6181
10096SOL     OW35560   8.425   2.136   4.230  0.3296  0.0430 -0.1199
10096SOL    HW135561   8.386   2.219   4.268 -0.2235 -0.6405  0.8069
10096SOL    HW235562   8.523   2.149   4.215  0.0746  1.1885 -0.9098
10097SOL     OW35563   9.033   2.859   3.173 -0.1739 -0.7018  0.2172
10097SOL    HW135564   8.992   2.832   3.086 -0.6472  1.0316 -0.1031
10097SOL    HW235565   8.964   2.854   3.246 -0.2944 -0.2366  0.1352
10098SOL     OW35566   7.486   7.685   5.645 -0.2320 -0.1690  0.6520
10098SOL    HW135567   7.439   7.607   5.604  0.5442 -0.4367  0.2609
10098SOL    HW235568   7.451   7.770   5.605 -0.8356 -0.3290  0.8346
10099SOL     OW35569   5.027   8.436   4.550 -0.2685  0.0223 -0.4207
10099SOL    HW135570   5.009   8.519   4.603 -0.7306  0.1425 -0.7604
10099SOL    HW235571   4.959   8.366   4.574 -2.0467  0.9091 -2.6518
10100SOL     OW35572   0.493   9.215   1.645  0.7277 -0.2192 -0.6955
10100SOL    HW135573   0.567   9.245   1.585  1.5649 -1.9575 -0.5587
10100SOL    HW235574   0.407   9.214   1.594  0.7317  2.0452 -0.7880
10101SOL     OW35575   3.074   4.648   6.067  0.2706  0.1901 -0.5235
10101SOL    HW135576   3.041   4.633   6.161 -1.3706  0.0206 -1.1012
10101SOL    HW235577   3.060   4.564   6.014  1.8081  0.0715 -0.7610
10102SOL     OW35578   7.909   0.245   2.944 -0.4834 -0.0996 -0.2189
10102SOL    HW135579   7.861   0.249   2.857 -0.0530 -2.4912 -0.6065
10102SOL    HW235580   7.846   0.217   3.017 -1.0119  2.5902  0.4186
10104SOL     OW35581   7.203   0.223   6.133 -0.0476  0.3370  0.0684
10104SOL    HW135582   7.246   0.134   6.117  1.0514  1.1223 -1.4198
10104SOL    HW235583   7.140   0.243   6.058 -0.1758  0.8870  0.3248
10105SOL     OW35584   1.168   7.945   1.834  0.4733  0.5429  0.4790
10105SOL    HW135585   1.154   7.981   1.927 -1.8480 -1.6743  1.0465
10105SOL    HW235586   1.189   8.021   1.773 -1.3968  2.5407  2.1843
10106SOL     OW35587   0.690   4.629   1.300  0.0356 -0.2584  0.2682
10106SOL    HW135588   0.760   4.675   1.356  0.3787  0.6928 -0.9094
10106SOL    HW235589   0.620   4.696   1.273 -0.0163 -0.6506 -0.5914
10107SOL     OW35590   9.159   0.297   5.312 -0.3363  0.5130  0.0103
10107SOL    HW135591   9.221   0.375   5.319  1.6830 -1.0944  0.3236
10107SOL    HW235592   9.118   0.279   5.402 -0.4856  0.9327  0.0300
10108SOL     OW35593   9.686   1.888   4.587 -0.1009  0.3866  0.1195
10108SOL    HW135594   9.784   1.909   4.583 -0.1436  0.5193 -0.2156
10108SOL    HW235595   9.652   1.907   4.679  0.4943 -1.0155  0.6375
10109SOL     OW35596   9.063   1.602   1.700  0.1248  0.7791  0.0394
10109SOL    HW135597   9.104   1.681   1.746 -0.4363  0.5490  0.9657
10109SOL    HW235598   9.056   1.526   1.766  0.3120  0.0837 -0.7386
10110SOL     OW35599   2.319   8.518   0.126 -0.1963 -0.1858  0.2544
10110SOL    HW135600   2.273   8.529   0.214 -0.1695  2.9467 -0.0625
10110SOL    HW235601   2.418   8.515   0.140 -0.2571 -1.2930  0.4599
10111SOL     OW35602   2.650   5.659   0.976  0.1930 -0.4042  0.4253
10111SOL    HW135603   2.655   5.706   1.064  2.3355  2.0287 -0.9360
10111SOL    HW235604   2.742   5.627   0.950  0.1867  1.6429 -2.3241
10112SOL     OW35605   3.064   3.343   6.419 -0.1620  0.9665  0.6872
10112SOL    HW135606   3.061   3.442   6.406 -0.3378  0.8971  0.2074
10112SOL    HW235607   3.023   3.297   6.341  1.1600  0.4702  0.2734
10113SOL     OW35608   3.368   7.715   4.110  0.9536 -0.3474 -0.3951
10113SOL    HW135609   3.451   7.771   4.113 -1.0732  2.7147  1.7087
10113SOL    HW235610   3.299   7.760   4.054 -0.3639 -1.2552  0.4704
10115SOL     OW35611   8.988   5.757   0.843  0.6643  0.0690  0.3298
10115SOL    HW135612   8.888   5.763   0.836  0.8304  0.2750 -2.1747
10115SOL    HW235613   9.027   5.849   0.833  1.1490 -0.0940  0.7077
10117SOL     OW35614   2.307   8.523   1.609  0.0341 -0.1657 -0.1686
10117SOL    HW135615   2.241   8.510   1.683 -1.4407  2.3157 -0.9903
10117SOL    HW235616   2.276   8.474   1.528 -0.5580  0.5978 -0.4071
10118SOL     OW35617   7.341   6.190   0.044  0.4830 -0.1199  0.0731
10118SOL    HW135618   7.358   6.282   0.010  1.7120 -0.0831  0.7788
10118SOL    HW235619   7.360   6.186   0.142 -2.0714 -0.4849  0.6038
10119SOL     OW35620   3.845   8.712   1.901  0.6533  0.9205 -0.5337
10119SOL    HW135621   3.925   8.662   1.931 -2.3799 -3.2352  1.0482
10119SOL    HW235622   3.816   8.776   1.973 -0.4201 -1.3348  1.0759
10120SOL     OW35623   8.028   7.447   1.330 -0.3664 -0.3313 -0.0946
10120SOL    HW135624   8.100   7.386   1.365 -0.5924  0.1017  1.1462
10120SOL    HW235625   7.961   7.464   1.403 -1.0306  0.3082 -0.8537
10121SOL     OW35626   7.608   3.536   1.219 -0.1998 -0.0160 -0.1986
10121SOL    HW135627   7.666   3.455   1.214 -0.2769 -0.0987  0.2760
10121SOL    HW235628   7.521   3.513   1.262 -0.0272  0.4346  0.3882
10122SOL     OW35629   5.348   6.589   1.375 -0.6842 -0.4449 -0.2542
10122SOL    HW135630   5.293   6.531   1.315 -1.5159  2.1062 -2.0379
10122SOL    HW235631   5.327   6.568   1.471 -2.2413 -1.8523 -0.8934
10124SOL     OW35632   0.643   9.279   0.283  0.1685  0.0501 -0.3447
10124SOL    HW135633   0.568   9.318   0.336 -0.0172 -0.0918 -0.4997
10124SOL    HW235634   0.664   9.339   0.206  1.1915  0.8164  0.5248
10125SOL     OW35635   1.580   7.684   2.553  0.1808  0.4623 -0.4663
10125SOL    HW135636   1.638   7.752   2.596 -0.8001  1.5452 -0.8352
10125SOL    HW235637   1.629   7.640   2.478  1.3915 -0.4236  0.8044
10126SOL     OW35638   7.168   3.396   0.659 -0.7676 -0.2413  0.1357
10126SOL    HW135639   7.242   3.384   0.725 -0.8398 -0.3487  0.1963
10126SOL    HW235640   7.207   3.403   0.567 -0.5704  1.2159  0.3153
10127SOL     OW35641   8.148   7.700   2.549 -0.0255 -0.6284  0.0496
10127SOL    HW135642   8.077   7.631   2.559 -0.4577  0.1538  2.5032
10127SOL    HW235643   8.190   7.691   2.458 -2.4581 -1.8177 -0.9995
10128SOL     OW35644   9.928   0.210   4.353  0.4080 -0.3936  0.0365
10128SOL    HW135645  10.020   0.197   4.392  0.9056  0.3928 -0.8415
10128SOL    HW235646   9.877   0.274   4.410  0.4070 -0.8229  0.5229
10129SOL     OW35647   4.507   7.788   5.238  0.2710 -0.1427  0.2743
10129SOL    HW135648   4.542   7.731   5.312  0.0094 -1.2691 -0.4468
10129SOL    HW235649   4.544   7.755   5.151  1.6947  2.0271  0.0177
10130SOL     OW35650   3.749   1.420   3.661  0.3985  0.1481  0.5820
10130SOL    HW135651   3.725   1.516   3.650 -0.3728 -0.1115 -0.0179
10130SOL    HW235652   3.804   1.409   3.743 -0.1337  0.9893  1.0554
10131SOL     OW35653   4.191   6.443   0.719  0.0886 -0.4827  0.1921
10131SOL    HW135654   4.161   6.538   0.719  0.5768 -0.3215  1.1866
10131SOL    HW235655   4.286   6.438   0.749 -0.1040 -1.3267  0.6766
10132SOL     OW35656   1.110   6.850   3.879  0.3065 -0.5388 -0.0961
10132SOL    HW135657   1.206   6.836   3.854  0.3310  1.2443 -1.0077
10132SOL    HW235658   1.069   6.919   3.820 -1.6816 -1.5839  0.0013
10133SOL     OW35659   5.543   1.817   5.723 -0.3787 -0.2071 -0.0699
10133SOL    HW135660   5.571   1.788   5.632  1.9145  1.9598 -0.1129
10133SOL    HW235661   5.450   1.855   5.718 -0.5996 -0.8886 -1.3384
10134SOL     OW35662   0.648   9.995   1.372 -0.0042  0.1428  0.0528
10134SOL    HW135663   0.565   9.943   1.354  1.4107 -1.4092 -2.1875
10134SOL    HW235664   0.728   9.937   1.357  1.5405  2.0743  0.5721
10136SOL     OW35665   1.151   8.765   5.133 -0.3123 -0.0248  0.4044
10136SOL    HW135666   1.104   8.732   5.216  0.0136 -2.5616 -0.3725
10136SOL    HW235667   1.084   8.786   5.063 -0.4642 -1.0101  0.2369
10137SOL     OW35668   2.258   0.578   4.456 -0.1526 -0.5237  0.6114
10137SOL    HW135669   2.253   0.597   4.358  1.7030 -0.9285  0.4368
10137SOL    HW235670   2.212   0.652   4.505  0.5008  0.6305 -0.4691
10138SOL     OW35671   0.352   2.673   1.488  0.3796 -0.0381  0.3847
10138SOL    HW135672   0.450   2.660   1.503 -0.0328  0.6796  4.1646
10138SOL    HW235673   0.314   2.728   1.562 -2.9829 -0.5785 -0.8576
10139SOL     OW35674   1.111   7.808   5.497 -0.3542 -0.2952 -0.0011
10139SOL    HW135675   1.203   7.791   5.533 -1.2430  1.3278  3.2624
10139SOL    HW235676   1.111   7.891   5.441  0.0104  0.2953  0.8579
10140SOL     OW35677   7.669   7.900   3.389 -0.2594  0.1997  0.0170
10140SOL    HW135678   7.640   7.804   3.392 -0.6244  0.2907 -0.7068
10140SOL    HW235679   7.636   7.947   3.471  0.6015 -0.4812  0.7675
10142SOL     OW35680   4.734   7.917   2.354  0.2554  0.4504 -0.1714
10142SOL    HW135681   4.822   7.928   2.307  0.5257  1.3489  0.5070
10142SOL    HW235682   4.711   8.003   2.400 -1.8089  0.7753 -1.7311
10144SOL     OW35683   4.870   7.681   3.011  0.1491 -0.1073  0.0557
10144SOL    HW135684   4.802   7.608   3.003  0.0934 -0.2529  1.5986
10144SOL    HW235685   4.861   7.745   2.935 -0.4499 -1.1725 -0.7808
10146SOL     OW35686   0.483   4.886   2.392  0.5867 -0.7046 -0.3750
10146SOL    HW135687   0.467   4.816   2.321 -0.2554 -1.7500  0.8213
10146SOL    HW235688   0.398   4.935   2.409  0.9824  0.0713 -0.6269
10148SOL     OW35689   3.882   0.303   5.721  0.3944  0.0821 -0.2493
10148SOL    HW135690   3.818   0.270   5.790  2.5596 -1.0781  1.2657
10148SOL    HW235691   3.924   0.225   5.675  3.1171  0.7018  1.0737
10149SOL     OW35692   1.801   8.640   5.203  0.3835 -0.3506 -0.1944
10149SOL    HW135693   1.740   8.705   5.158  1.8104  1.3361  0.2619
10149SOL    HW235694   1.791   8.647   5.302  0.7384 -0.6414 -0.1337
10152SOL     OW35695   4.841   7.940   2.048  0.3590 -0.4093 -0.0535
10152SOL    HW135696   4.850   7.869   1.979 -2.1852 -0.2488 -0.6122
10152SOL    HW235697   4.745   7.969   2.054  1.0625  1.8090  1.3144
10153SOL     OW35698   9.743   2.170   0.899 -0.3424 -0.2320  0.3335
10153SOL    HW135699   9.778   2.172   0.806 -1.9648  0.4721 -0.2679
10153SOL    HW235700   9.787   2.095   0.949  3.1462  1.5352  0.0731
10154SOL     OW35701   2.907   0.321   0.604 -0.3492  0.2470  0.1964
10154SOL    HW135702   2.829   0.376   0.573  0.5353 -0.0973 -2.8166
10154SOL    HW235703   2.988   0.379   0.607  0.1620 -0.4048 -0.9736
10155SOL     OW35704   3.148   8.416   2.172 -0.4433  0.2938  0.1861
10155SOL    HW135705   3.104   8.506   2.170  2.3076  1.6809 -0.5384
10155SOL    HW235706   3.098   8.353   2.112 -0.9784  2.0294 -1.2451
10156SOL     OW35707   7.412   2.742   4.315  0.0837  0.2985 -0.7603
10156SOL    HW135708   7.489   2.759   4.254  0.1913  0.3851 -0.5990
10156SOL    HW235709   7.336   2.703   4.262  0.3226 -0.0176 -0.8733
10158SOL     OW35710   6.432   1.191   0.856  0.2789  1.0204 -0.3335
10158SOL    HW135711   6.427   1.119   0.925 -1.0461  0.7176 -0.7212
10158SOL    HW235712   6.359   1.258   0.872 -1.4368 -0.1920 -2.6482
10159SOL     OW35713   3.307   7.051   1.752 -0.0428  0.5477  0.3014
10159SOL    HW135714   3.250   6.972   1.778 -1.3179  1.6635  0.9713
10159SOL    HW235715   3.399   7.040   1.790 -0.2218 -0.6010  0.4171
10161SOL     OW35716   7.508   0.886   5.802  0.1056 -0.0439 -0.4639
10161SOL    HW135717   7.422   0.935   5.810 -0.4386 -0.9860 -0.5255
10161SOL    HW235718   7.544   0.897   5.709 -0.2100 -0.0889 -0.5904
10162SOL     OW35719   8.339   3.375   2.639 -0.3336 -0.3519  0.1957
10162SOL    HW135720   8.317   3.277   2.644  0.2938 -0.4771  0.6078
10162SOL    HW235721   8.406   3.391   2.567 -1.0253 -0.1074 -0.4038
10163SOL     OW35722   3.610   6.433   3.727 -0.5136  0.0010  0.3384
10163SOL    HW135723   3.529   6.482   3.760 -0.0794  0.0101  1.4010
10163SOL    HW235724   3.615   6.343   3.769  0.7465  0.5108  1.3068
10165SOL     OW35725   9.073   4.789   5.476  0.1339  0.5868 -0.2258
10165SOL    HW135726   9.162   4.812   5.514  0.3820  1.6159 -1.3990
10165SOL    HW235727   9.046   4.858   5.409  0.8490 -2.4408 -3.8181
10166SOL     OW35728   5.507   0.597   2.644 -0.0692 -0.1380 -0.2434
10166SOL    HW135729   5.535   0.525   2.580 -0.9110 -0.3317 -0.4036
10166SOL    HW235730   5.431   0.563   2.700 -1.6557  1.1989 -1.5180
10167SOL     OW35731   9.551   9.488   6.165  0.0672  0.3416 -0.0420
10167SOL    HW135732   9.493   9.463   6.243  1.8717  0.5813  1.4103
10167SOL    HW235733   9.636   9.435   6.168  1.7058  2.8759  0.1738
10168SOL     OW35734   8.984   6.810   2.349  0.4731  0.1312 -0.3612
10168SOL    HW135735   8.946   6.761   2.428  1.3842  1.3963  0.8914
10168SOL    HW235736   8.920   6.880   2.319  0.1798 -0.2687 -0.6715
10169SOL     OW35737   3.058   0.343   2.381 -0.1577 -0.3487 -0.4904
10169SOL    HW135738   3.082   0.311   2.290  0.5414  0.0615 -0.4503
10169SOL    HW235739   3.067   0.442   2.386 -0.8381 -0.2949 -0.1664
10170SOL     OW35740   6.119   3.056   0.475  0.4393 -0.6482 -0.2108
10170SOL    HW135741   6.209   3.095   0.460 -0.2645  1.1270  0.0852
10170SOL    HW235742   6.093   3.066   0.571  0.2433 -1.8661 -0.1211
10171SOL     OW35743   3.545   5.419   6.138 -0.0341 -0.3834  0.1157
10171SOL    HW135744   3.537   5.511   6.177  1.5802 -0.2174  0.0575
10171SOL    HW235745   3.639   5.403   6.109 -0.0709 -2.4413  1.0817
10172SOL     OW35746   5.681   0.024   4.530  0.0542  0.7529  0.1266
10172SOL    HW135747   5.611  -0.012   4.468 -1.4162  0.2555  1.9987
10172SOL    HW235748   5.747  -0.048   4.550 -0.7289  0.2101  0.8445
10173SOL     OW35749   3.641   3.273   1.524  0.2382  0.1117 -0.0779
10173SOL    HW135750   3.541   3.271   1.517  0.0935  2.6716  0.9898
10173SOL    HW235751   3.668   3.250   1.618  0.7611 -2.0063 -0.7055
10174SOL     OW35752   9.113   8.155   2.512 -0.2858  0.0026 -0.2273
10174SOL    HW135753   9.149   8.089   2.447 -0.9504  0.1512 -0.7526
10174SOL    HW235754   9.078   8.108   2.593  1.0986 -0.1377  0.2905
10176SOL     OW35755   8.817   3.761   4.670 -0.4481 -0.2249 -0.1973
10176SOL    HW135756   8.877   3.800   4.601 -0.8912  0.0758 -0.4196
10176SOL    HW235757   8.798   3.829   4.740 -0.4953 -0.3309 -0.1068
10177SOL     OW35758   8.950   7.818   1.668  0.1383 -0.3425 -0.0528
10177SOL    HW135759   8.898   7.772   1.595  0.0841 -0.2373 -0.0799
10177SOL    HW235760   8.905   7.802   1.756 -0.7343  0.9428 -0.2505
10178SOL     OW35761   3.182   2.989   2.652 -0.4055  0.4440 -0.2585
10178SOL    HW135762   3.174   2.999   2.553 -0.2049  0.2481 -0.2961
10178SOL    HW235763   3.275   3.012   2.681  0.6957 -3.2031 -0.6143
10179SOL     OW35764   2.109   0.617   5.761  0.4510  0.1494  0.1577
10179SOL    HW135765   2.117   0.652   5.668  0.6136 -2.4080 -0.8474
10179SOL    HW235766   2.020   0.641   5.798 -0.4963 -0.6640 -1.5096
10180SOL     OW35767   9.660   0.669   0.268  0.3673  0.0837 -0.1726
10180SOL    HW135768   9.667   0.628   0.359 -0.0963 -1.1283 -0.6700
10180SOL    HW235769   9.584   0.627   0.218  0.3925  0.9953 -0.9882
10181SOL     OW35770   4.612   0.782   0.868  0.1782  0.3925 -0.1417
10181SOL    HW135771   4.596   0.718   0.943  0.9231  0.5488  0.1613
10181SOL    HW235772   4.647   0.868   0.905  2.1024 -0.0830 -0.7802
10182SOL     OW35773   9.001   2.077   3.680  0.7423  0.0758  0.4041
10182SOL    HW135774   8.902   2.086   3.690  0.5554 -0.7042 -0.6697
10182SOL    HW235775   9.036   2.158   3.633  0.5762  0.2212  0.5272
10184SOL     OW35776   5.832   2.956   0.021  0.1732  0.0080 -1.0150
10184SOL    HW135777   5.920   2.986   0.057  0.4113 -1.2228 -0.5766
10184SOL    HW235778   5.833   2.965  -0.079  0.5530  0.6240 -0.9613
10186SOL     OW35779   2.407   2.780   4.606  0.3446  0.1749 -0.8562
10186SOL    HW135780   2.453   2.860   4.645  0.3253  0.4747 -1.4478
10186SOL    HW235781   2.431   2.772   4.509  0.2374 -0.4567 -0.8313
10187SOL     OW35782   7.365   7.826   3.441 -0.2815 -0.2694 -0.6853
10187SOL    HW135783   7.332   7.756   3.505  2.1686 -1.5970 -0.8134
10187SOL    HW235784   7.435   7.882   3.486 -0.4221  0.4835 -1.3860
10188SOL     OW35785   6.769   2.733   3.861 -0.4054  0.0160  0.3867
10188SOL    HW135786   6.690   2.785   3.828 -0.5904 -0.4434  0.0977
10188SOL    HW235787   6.737   2.650   3.906 -0.0348 -0.9659 -1.1264
10189SOL     OW35788   3.074   0.659   0.985  0.4455 -0.2991  0.2060
10189SOL    HW135789   2.979   0.641   0.961  0.8728 -0.2256 -1.6686
10189SOL    HW235790   3.132   0.587   0.947  1.0388 -0.8932  2.2136
10191SOL     OW35791   4.969   9.076   6.141  0.4377  0.2147  0.5596
10191SOL    HW135792   4.898   9.125   6.191 -0.0248 -1.3512  1.4728
10191SOL    HW235793   4.989   8.989   6.187  0.3859 -1.0356 -1.6807
10192SOL     OW35794   3.385   1.301   6.105 -0.0457 -0.7243 -0.6961
10192SOL    HW135795   3.391   1.335   6.199 -1.0454 -0.5660 -0.6809
10192SOL    HW235796   3.471   1.257   6.080  0.3541 -0.4498  0.1707
10193SOL     OW35797   8.951   0.640   4.380  0.4469 -0.1298  0.1515
10193SOL    HW135798   8.957   0.554   4.329  1.9051  0.2733 -0.3628
10193SOL    HW235799   9.031   0.649   4.440  1.4517  1.9301 -1.4709
10194SOL     OW35800   2.973   2.580   2.201 -0.1556  0.5908 -0.2404
10194SOL    HW135801   2.894   2.643   2.206 -1.0690 -0.6706  1.4909
10194SOL    HW235802   2.947   2.491   2.238  2.0166  0.0542  0.0205
10195SOL     OW35803   4.695   0.725   2.703  0.1074 -0.5023 -0.3589
10195SOL    HW135804   4.734   0.725   2.611 -1.3272  0.0598 -0.9871
10195SOL    HW235805   4.600   0.758   2.699  0.1192 -0.2010  1.3534
10196SOL     OW35806   6.280   0.134   5.010  0.5236  0.3424  0.1924
10196SOL    HW135807   6.286   0.224   4.967 -0.9794  1.0664  1.4490
10196SOL    HW235808   6.237   0.070   4.946  0.5211  0.8003 -0.2719
10197SOL     OW35809   2.658   1.758   6.350  0.0065  0.0585 -0.2745
10197SOL    HW135810   2.628   1.719   6.263 -2.5244  0.9365  0.1580
10197SOL    HW235811   2.703   1.687   6.404 -0.2731 -1.0343 -1.4296
10198SOL     OW35812   0.767   5.168   5.737  0.1870 -0.0489  0.5369
10198SOL    HW135813   0.826   5.248   5.740 -0.3004  0.3393 -0.0122
10198SOL    HW235814   0.748   5.136   5.830 -2.1978  2.4083  0.9568
10199SOL     OW35815   7.497   2.698   0.364 -0.3017  0.0310 -0.1048
10199SOL    HW135816   7.401   2.725   0.364  0.5620  3.4188  1.0241
10199SOL    HW235817   7.530   2.692   0.270 -1.0952  0.9872 -0.4531
10200SOL     OW35818   9.754   6.698   2.663 -0.1235 -0.1463  0.1731
10200SOL    HW135819   9.736   6.740   2.752  0.4922 -1.1997  0.8035
10200SOL    HW235820   9.847   6.721   2.634 -1.3702  2.7995 -1.6797
10201SOL     OW35821   7.405   0.138   2.756 -0.0570  0.5603 -0.3186
10201SOL    HW135822   7.356   0.219   2.788  0.4453 -0.1796  2.4338
10201SOL    HW235823   7.502   0.160   2.746 -0.1918  0.7551 -1.2915
10202SOL     OW35824   6.077   0.667   1.472  0.0575 -0.3081  0.7234
10202SOL    HW135825   6.084   0.749   1.415  0.1994 -1.5578 -1.0999
10202SOL    HW235826   6.156   0.662   1.533 -0.2520  1.2083  1.2849
10203SOL     OW35827   3.571   1.607   5.634  0.5375  0.7677  0.1564
10203SOL    HW135828   3.620   1.574   5.715 -0.9955  0.6438  1.0471
10203SOL    HW235829   3.517   1.688   5.658 -0.7840  0.0895 -0.4755
10204SOL     OW35830   8.044   6.962   4.002 -0.2788  0.1703 -0.4064
10204SOL    HW135831   7.992   6.891   3.954  0.3633  0.3294 -1.3396
10204SOL    HW235832   7.988   6.999   4.076  0.1889 -2.9379  1.6029
10205SOL     OW35833   6.629   8.157   6.066  0.4725 -0.7815  0.2711
10205SOL    HW135834   6.688   8.203   5.999 -0.1224  0.9645  0.9140
10205SOL    HW235835   6.645   8.058   6.062 -0.8253 -0.9380 -3.6855
10206SOL     OW35836   2.007   0.872   5.172  0.6060 -0.1170 -0.3021
10206SOL    HW135837   1.930   0.936   5.169  0.4555 -0.2187  1.1498
10206SOL    HW235838   2.064   0.885   5.091  0.1066  1.2667 -0.4487
10207SOL     OW35839   6.601   7.348   5.604 -0.0874 -0.2225 -0.8075
10207SOL    HW135840   6.644   7.261   5.628  2.4360  0.3400 -2.9166
10207SOL    HW235841   6.502   7.336   5.598 -0.1351 -2.0144  2.5284
10208SOL     OW35842   4.223   5.331   2.351  0.0128  0.0871  0.1074
10208SOL    HW135843   4.257   5.331   2.445  0.0610 -0.1758  0.0900
10208SOL    HW235844   4.129   5.295   2.350  0.0289  0.0470  0.0477
10209SOL     OW35845   2.304   4.338   3.107 -0.8224 -0.0843 -0.1860
10209SOL    HW135846   2.352   4.295   3.184  3.2868  2.6684 -1.0324
10209SOL    HW235847   2.268   4.427   3.136 -0.5639  0.2907 -1.0073
10211SOL     OW35848   7.409   1.521   2.471  0.2445  0.1625  0.5973
10211SOL    HW135849   7.310   1.504   2.479  0.1459  0.6410  0.4047
10211SOL    HW235850   7.433   1.533   2.375  0.7080 -1.2400  0.5300
10213SOL     OW35851   1.420   6.229   1.596 -0.3617 -0.0189 -0.0813
10213SOL    HW135852   1.400   6.197   1.503  1.6240 -0.9242 -0.2195
10213SOL    HW235853   1.377   6.169   1.663 -1.7911  0.6297 -0.3885
10214SOL     OW35854   8.078   4.888   5.166 -0.0946 -0.1635 -0.0086
10214SOL    HW135855   8.038   4.896   5.075  1.1666 -1.0879 -0.6534
10214SOL    HW235856   8.149   4.818   5.165  0.3581  0.2617  1.5410
10216SOL     OW35857   0.485   5.012   3.177  0.2446 -0.3128 -0.1637
10216SOL    HW135858   0.501   5.050   3.268 -1.1796  0.7050 -0.3191
10216SOL    HW235859   0.560   4.950   3.153  1.2350  0.3278  1.2035
10217SOL     OW35860   9.578   9.981   5.613  0.2600  0.1506 -0.1109
10217SOL    HW135861   9.480   9.981   5.637  0.0185 -1.8435 -1.0156
10217SOL    HW235862   9.588   9.982   5.514  1.1021 -2.7213 -0.0902
10218SOL     OW35863   8.772   8.372   4.523  0.0281 -0.4295  0.2653
10218SOL    HW135864   8.748   8.466   4.545 -1.5864 -1.0815  1.3226
10218SOL    HW235865   8.787   8.321   4.607 -1.6662 -1.7784 -0.2225
10219SOL     OW35866   9.798   0.425   2.070  0.1027  0.0264 -0.5117
10219SOL    HW135867   9.828   0.332   2.048  1.5042  0.3030  0.1963
10219SOL    HW235868   9.854   0.491   2.020  1.5965  0.5856  1.8233
10220SOL     OW35869   9.566   6.499   1.579  0.4036  0.2985  0.5617
10220SOL    HW135870   9.553   6.461   1.671 -0.9611 -2.6027 -0.7736
10220SOL    HW235871   9.477   6.507   1.534  1.3364 -1.3440 -1.6490
10221SOL     OW35872   3.024   6.569   3.032  0.2473 -0.2616 -0.0020
10221SOL    HW135873   3.051   6.661   3.058  0.3655 -0.2731 -0.0812
10221SOL    HW235874   3.053   6.504   3.103  1.8710 -0.4768 -0.8292
10222SOL     OW35875   0.951   6.078   3.291  0.3748 -0.2884  0.2828
10222SOL    HW135876   0.915   6.042   3.205  1.3304 -0.0976 -0.2069
10222SOL    HW235877   1.050   6.089   3.283  0.3254  0.7222  1.0545
10223SOL     OW35878   3.222   1.342   5.373 -0.2308  0.3848  0.1207
10223SOL    HW135879   3.268   1.302   5.294 -0.5423  1.2021 -0.4815
10223SOL    HW235880   3.290   1.370   5.441  0.0190 -0.6255  0.2929
10224SOL     OW35881   2.793   3.970   3.794 -0.4866 -0.0527 -0.3215
10224SOL    HW135882   2.784   3.978   3.695  0.7692 -0.8459 -0.5083
10224SOL    HW235883   2.883   4.005   3.822  0.7699 -3.4220  0.0691
10225SOL     OW35884   1.545   6.482   3.843  0.7066  0.3611  0.4427
10225SOL    HW135885   1.595   6.511   3.925  1.8273  0.1112 -0.1381
10225SOL    HW235886   1.447   6.492   3.859  0.8947 -0.0695  1.9606
10226SOL     OW35887   3.597   4.220   4.988  0.2117  0.1997 -0.0251
10226SOL    HW135888   3.618   4.312   4.955  0.0058  0.4826  0.6411
10226SOL    HW235889   3.542   4.172   4.919  0.5741  0.4646 -0.5049
10227SOL     OW35890   1.477   3.644   1.259  0.0873 -0.3713 -0.3042
10227SOL    HW135891   1.478   3.572   1.189  0.1442 -0.8563  0.1977
10227SOL    HW235892   1.451   3.605   1.347  1.4203 -0.0376  0.2496
10228SOL     OW35893   7.541   7.275   2.894  0.4760  0.5395 -0.4414
10228SOL    HW135894   7.539   7.234   2.803  0.5303  0.7328 -0.5301
10228SOL    HW235895   7.559   7.373   2.886  1.0783  0.4512 -0.1851
10229SOL     OW35896   8.451   1.011   0.779  0.2366 -0.0693  0.3604
10229SOL    HW135897   8.512   0.963   0.842  0.5636  1.8582  1.5669
10229SOL    HW235898   8.369   1.042   0.828 -0.8289 -0.9809 -0.8096
10230SOL     OW35899   0.874   0.357   3.102  0.4341  0.0870 -0.4614
10230SOL    HW135900   0.853   0.442   3.151  1.3865 -1.2092  2.3400
10230SOL    HW235901   0.814   0.349   3.022 -1.6932  1.9812  0.8635
10231SOL     OW35902   1.705   6.615   3.605  0.6347 -0.2177 -0.5249
10231SOL    HW135903   1.764   6.544   3.566  2.0803  0.4986  0.2921
10231SOL    HW235904   1.658   6.579   3.685  0.7252 -0.5103 -0.6030
10232SOL     OW35905   4.481   2.823   4.867  0.0118  0.8392 -0.0997
10232SOL    HW135906   4.399   2.869   4.900 -0.0813  1.4832 -1.1980
10232SOL    HW235907   4.551   2.823   4.939 -0.2076  2.1622  0.1277
10233SOL     OW35908   4.388   4.138   3.065 -0.0047 -0.4393  0.0963
10233SOL    HW135909   4.411   4.067   3.132 -0.5757 -0.6679  0.0568
10233SOL    HW235910   4.411   4.228   3.103  0.2298 -0.6084  0.3597
10235SOL     OW35911   9.666   1.722   2.228  0.7806 -0.4739 -0.6992
10235SOL    HW135912   9.624   1.646   2.178  0.6479 -0.1729 -1.0488
10235SOL    HW235913   9.763   1.729   2.204  1.1602 -1.5024  0.5114
10236SOL     OW35914   9.940   5.271   6.146 -0.3806 -0.6687  0.1008
10236SOL    HW135915   9.980   5.182   6.166 -0.2563 -0.5067  0.5908
10236SOL    HW235916  10.012   5.339   6.137 -0.4044 -0.8452 -1.5046
10237SOL     OW35917   1.501   7.260   3.022 -0.2008 -0.2684  0.1726
10237SOL    HW135918   1.598   7.242   3.036 -0.2627 -0.4489  0.3710
10237SOL    HW235919   1.483   7.271   2.924  0.1658  0.6202  0.1973
10239SOL     OW35920   2.021   9.351   1.402  0.6437  0.2595  0.0140
10239SOL    HW135921   2.077   9.415   1.350  0.6705 -0.0708 -0.3675
10239SOL    HW235922   1.927   9.354   1.367  1.0506 -1.2577 -1.2450
10240SOL     OW35923   3.466   5.201   2.878  0.0477  0.1331  0.1790
10240SOL    HW135924   3.414   5.118   2.861 -0.7038  0.4537  0.8813
10240SOL    HW235925   3.495   5.203   2.974  0.3717  0.5125  0.0770
10241SOL     OW35926   2.341   4.937   6.051 -0.1632 -0.0975 -0.4057
10241SOL    HW135927   2.408   4.867   6.075  0.1638  0.8516  1.5951
10241SOL    HW235928   2.320   4.933   5.954  1.8595 -1.2185 -0.7988
10242SOL     OW35929   7.644   9.913   0.965 -0.3339  0.1842 -0.2249
10242SOL    HW135930   7.614   9.900   1.060  0.2623  0.7878  0.0491
10242SOL    HW235931   7.564   9.914   0.905 -0.8586  1.6126  0.4779
10244SOL     OW35932   7.568   2.827   0.587 -0.3014  0.3824 -0.2653
10244SOL    HW135933   7.600   2.918   0.560  2.0552 -0.1570  0.6034
10244SOL    HW235934   7.559   2.770   0.505 -2.2618  1.5286 -0.8634
10245SOL     OW35935   1.974   1.666   3.902  0.0360 -0.2705 -0.4723
10245SOL    HW135936   1.914   1.597   3.943 -0.1154  0.5969  0.7988
10245SOL    HW235937   1.967   1.661   3.803 -0.7299 -1.4245 -0.3735
10246SOL     OW35938   0.035   6.442   4.312  1.0882 -0.4488 -0.1453
10246SOL    HW135939  -0.031   6.460   4.240 -0.7198 -1.1859  1.3038
10246SOL    HW235940   0.075   6.351   4.299  0.0396 -0.9805  0.3360
10247SOL     OW35941   4.100   8.111   1.535  0.4463  0.5536 -0.1439
10247SOL    HW135942   4.061   8.088   1.445 -1.3437  2.6448  0.0588
10247SOL    HW235943   4.050   8.061   1.606 -0.5826  1.7080 -0.0415
10248SOL     OW35944   4.695   1.181   5.927  0.7246  0.4042 -0.2837
10248SOL    HW135945   4.768   1.229   5.976  2.4562 -3.9590  1.5893
10248SOL    HW235946   4.732   1.139   5.844 -0.1125 -0.2123 -0.3538
10250SOL     OW35947   7.340   7.453   4.975 -0.6134  0.0532 -0.6543
10250SOL    HW135948   7.348   7.386   4.902 -0.5497 -0.0049 -0.5944
10250SOL    HW235949   7.347   7.407   5.064 -5.2043 -0.5229 -0.4863
10251SOL     OW35950   3.540   7.121   6.361  0.3231  0.2436 -0.3516
10251SOL    HW135951   3.536   7.023   6.340  0.8289  0.0920  0.2249
10251SOL    HW235952   3.628   7.158   6.329  0.3289  0.4106 -0.1409
10253SOL     OW35953   2.855   3.738   4.867  0.1036 -0.1957 -0.7312
10253SOL    HW135954   2.920   3.732   4.792 -1.3903 -0.6413 -2.0286
10253SOL    HW235955   2.813   3.648   4.882  0.6796 -0.2070  0.9075
10254SOL     OW35956   8.726   4.222   5.269 -0.1926 -0.8275 -0.0652
10254SOL    HW135957   8.778   4.308   5.264  0.1497 -1.0739 -0.8526
10254SOL    HW235958   8.659   4.220   5.195 -1.6929 -0.2846  1.2431
10255SOL     OW35959   8.400   1.717   1.489  0.2640 -0.2388  0.0501
10255SOL    HW135960   8.478   1.717   1.427  1.0772  0.8155  1.0343
10255SOL    HW235961   8.417   1.653   1.564  0.6781  0.7653  0.8326
10256SOL     OW35962   6.336   1.198   4.616 -0.1407  0.6927 -0.0363
10256SOL    HW135963   6.348   1.202   4.715 -2.6770  1.8821  0.2648
10256SOL    HW235964   6.265   1.263   4.588 -0.5124 -0.6889 -2.4649
10257SOL     OW35965   5.561   0.654   1.579  0.3299  0.0962 -0.3816
10257SOL    HW135966   5.631   0.704   1.528 -1.2597  1.8552 -0.9091
10257SOL    HW235967   5.533   0.709   1.658 -1.0905 -0.1864 -0.6899
10258SOL     OW35968   1.761   4.392   3.955 -0.4030 -0.4858 -0.0783
10258SOL    HW135969   1.796   4.310   3.910  1.4601  0.6260 -0.6867
10258SOL    HW235970   1.739   4.460   3.885  0.2967  0.3932  0.5586
10259SOL     OW35971   0.262   2.274   2.458  0.1845  0.1350 -0.0424
10259SOL    HW135972   0.212   2.260   2.544  0.0848  0.6381 -0.0170
10259SOL    HW235973   0.235   2.362   2.418  0.7584  0.2287 -0.2271
10260SOL     OW35974   8.173   7.253   5.480  0.0992 -0.3298 -0.1391
10260SOL    HW135975   8.078   7.250   5.449 -0.7068 -0.5389  2.2510
10260SOL    HW235976   8.213   7.341   5.455 -1.1596  0.3217  0.0862
10261SOL     OW35977   2.036   4.490   4.430 -0.6741 -0.3678 -0.6263
10261SOL    HW135978   2.120   4.456   4.386  1.0203  0.0735  2.1084
10261SOL    HW235979   1.984   4.412   4.465 -0.4272 -0.5535 -0.6670
10262SOL     OW35980   4.091   0.362   1.798 -0.2348  0.0661 -0.2293
10262SOL    HW135981   4.109   0.368   1.700 -1.8964 -0.7245 -0.5996
10262SOL    HW235982   4.174   0.334   1.846  1.0483  2.1453 -1.1985
10263SOL     OW35983   4.277   9.472   0.474 -0.0245 -0.2726  0.5211
10263SOL    HW135984   4.365   9.512   0.501 -0.4294  1.1920 -0.2988
10263SOL    HW235985   4.210   9.485   0.547  0.3407 -1.0680  0.9976
10267SOL     OW35986   1.134   7.230   5.967 -0.5144 -0.2857  0.1612
10267SOL    HW135987   1.105   7.261   6.057 -1.1683  0.7266 -0.3908
10267SOL    HW235988   1.054   7.207   5.912 -0.0903 -1.5656  0.0652
10269SOL     OW35989   2.018   6.367   2.885  0.4240  0.2156  0.3001
10269SOL    HW135990   1.948   6.296   2.877  1.0631 -0.4282  0.3537
10269SOL    HW235991   2.059   6.383   2.795  1.1566 -0.3887  0.5214
10270SOL     OW35992   8.215   5.789   5.414  0.4621  0.6828  0.2527
10270SOL    HW135993   8.140   5.762   5.475  0.3807  0.4387  0.0458
10270SOL    HW235994   8.178   5.840   5.337  0.8043  3.0032  1.5658
10272SOL     OW35995   2.689   0.775   1.089  0.2919 -0.2941  0.0729
10272SOL    HW135996   2.633   0.858   1.090  0.4171 -0.1927 -1.0078
10272SOL    HW235997   2.749   0.775   1.009  0.2911 -1.4261  0.0532
10273SOL     OW35998   1.623   4.953   4.798  0.2331  0.2304 -0.4602
10273SOL    HW135999   1.567   4.893   4.855  0.3931  0.3654 -0.1608
10273SOL    HW236000   1.720   4.930   4.811  0.1504 -1.9828 -3.1541
10274SOL     OW36001   3.743   1.954   6.031 -0.4580  0.8039  0.7034
10274SOL    HW136002   3.814   2.023   6.045  0.6075 -0.2013  0.2874
10274SOL    HW236003   3.729   1.939   5.933 -1.0627  0.7998  0.7862
10275SOL     OW36004   2.453   1.983   1.600 -0.0744 -0.4250 -0.4495
10275SOL    HW136005   2.391   2.059   1.578  1.5894  1.3170  0.6986
10275SOL    HW236006   2.475   1.986   1.697  1.1736 -1.5170 -0.6906
10277SOL     OW36007   2.954   4.645   4.455 -0.1492 -0.3428 -0.1852
10277SOL    HW136008   2.948   4.745   4.458  2.3118 -0.2120  1.7009
10277SOL    HW236009   3.003   4.617   4.373 -0.2683  0.0287 -0.3845
10278SOL     OW36010   6.010   4.077   0.366  0.3851  0.1375 -0.1068
10278SOL    HW136011   6.048   3.987   0.387 -2.8621 -1.0928  0.7898
10278SOL    HW236012   6.009   4.091   0.267  1.4460 -0.5616 -0.2219
10280SOL     OW36013   1.845   0.731   5.885  0.0780 -0.0992  0.3410
10280SOL    HW136014   1.825   0.829   5.885  0.2947 -0.0453 -1.0151
10280SOL    HW236015   1.811   0.690   5.800 -0.0642 -1.2123  0.9263
10281SOL     OW36016   7.164   8.846   2.835  0.4496 -0.1009 -0.3208
10281SOL    HW136017   7.246   8.824   2.887 -0.1703 -1.2720  0.1738
10281SOL    HW236018   7.119   8.762   2.806 -1.7157  0.4935  1.2037
10283SOL     OW36019   1.548   8.860   5.234 -0.5543 -0.1048 -0.5229
10283SOL    HW136020   1.512   8.841   5.143 -1.8752  0.0119 -0.0296
10283SOL    HW236021   1.473   8.879   5.296  0.3360 -0.3363  0.6357
10284SOL     OW36022   9.660   3.503   0.499  0.0862 -0.7129  0.1878
10284SOL    HW136023   9.634   3.556   0.580  1.2948 -0.5813  0.4959
10284SOL    HW236024   9.757   3.516   0.480 -0.0690 -1.1694 -0.9749
10285SOL     OW36025   7.580   6.016   6.258 -0.1655 -0.5090 -0.1022
10285SOL    HW136026   7.645   6.092   6.258 -0.0285 -0.6230  0.3605
10285SOL    HW236027   7.507   6.034   6.324 -0.7229 -0.2816 -0.7848
10287SOL     OW36028   1.944   9.763   5.847  0.3704 -0.1743 -0.4682
10287SOL    HW136029   1.882   9.748   5.769 -1.4055  0.5935  0.7542
10287SOL    HW236030   2.039   9.752   5.817 -0.3433 -1.1950 -2.4331
10288SOL     OW36031   9.346   4.664   2.328 -0.1363 -0.1483  0.2133
10288SOL    HW136032   9.266   4.690   2.274  0.8612 -0.9622 -1.7149
10288SOL    HW236033   9.350   4.564   2.336 -0.2795 -0.0278  1.8096
10290SOL     OW36034   2.376   1.090   4.909  0.0279 -0.1002  0.4508
10290SOL    HW136035   2.395   1.007   4.960 -0.8466  0.5200  1.8225
10290SOL    HW236036   2.387   1.073   4.811  0.5848 -1.6124  0.7695
10291SOL     OW36037   9.203   9.819   5.111  0.6136 -0.4815 -0.2405
10291SOL    HW136038   9.140   9.895   5.097  0.3610 -0.6585 -0.0879
10291SOL    HW236039   9.162   9.754   5.175  0.5645 -1.0393 -0.8301
10295SOL     OW36040   4.422   4.989   1.830  0.4427  0.0514  0.1907
10295SOL    HW136041   4.413   4.974   1.929  0.9929 -0.4645  0.1670
10295SOL    HW236042   4.345   4.946   1.783 -0.0766  0.7112  0.4289
10296SOL     OW36043   2.312   5.428   1.307  0.0921 -0.3002 -0.0724
10296SOL    HW136044   2.359   5.437   1.219 -0.1948 -0.7892 -0.2806
10296SOL    HW236045   2.213   5.420   1.292  0.1317 -1.4868  0.2187
10298SOL     OW36046   8.451   4.536   2.257 -0.1435 -0.1891 -0.5220
10298SOL    HW136047   8.457   4.483   2.172  0.7900  1.0016 -1.2197
10298SOL    HW236048   8.364   4.584   2.260 -1.5805 -2.7775  0.7480
10299SOL     OW36049   9.504   9.957   3.831  0.0399 -0.0301 -0.1466
10299SOL    HW136050   9.452  10.039   3.853 -1.3257 -0.6924 -0.8811
10299SOL    HW236051   9.446   9.876   3.842  0.7502 -0.7386 -1.4748
10301SOL     OW36052   5.528   8.371   5.435 -0.3970 -0.0263 -0.5001
10301SOL    HW136053   5.450   8.434   5.442 -1.2911 -1.3060  1.4429
10301SOL    HW236054   5.601   8.403   5.495  0.0571  0.4128 -1.2775
10302SOL     OW36055   1.989   2.989   5.037 -0.4341 -0.0437  0.5532
10302SOL    HW136056   1.910   3.049   5.053 -0.3852 -0.3372  1.9148
10302SOL    HW236057   2.003   2.930   5.116  0.2660 -1.0246 -0.2823
10304SOL     OW36058   7.537   2.852   5.863  0.1157  0.0380  0.1678
10304SOL    HW136059   7.449   2.813   5.893 -0.6725  0.5979 -1.3649
10304SOL    HW236060   7.598   2.778   5.836 -0.1935 -0.3140  0.4188
10305SOL     OW36061   2.291   0.409   5.581 -0.1978 -0.5265  0.1512
10305SOL    HW136062   2.213   0.396   5.643 -0.9146  0.8996 -0.4246
10305SOL    HW236063   2.258   0.427   5.488  0.8459 -1.2807 -0.3769
10308SOL     OW36064   8.021   4.003   0.480  0.3317  0.1839  0.0897
10308SOL    HW136065   8.107   4.040   0.446 -0.5094  1.9216 -0.1921
10308SOL    HW236066   7.944   4.052   0.438 -0.7740 -0.0064  1.8200
10309SOL     OW36067   7.396   2.564   5.722  0.1174 -0.0331  0.3276
10309SOL    HW136068   7.487   2.605   5.721  0.8771 -1.7195 -1.5360
10309SOL    HW236069   7.355   2.571   5.631 -0.2426 -2.2639  0.2951
10310SOL     OW36070   9.881   4.198   3.560 -0.0554 -0.0214  0.3817
10310SOL    HW136071   9.811   4.242   3.502 -2.5384 -1.2512  2.3365
10310SOL    HW236072   9.883   4.242   3.649  1.6419 -0.0705  0.3782
10311SOL     OW36073   4.157   0.725   3.911  0.1464  1.2055 -0.3752
10311SOL    HW136074   4.093   0.695   3.981 -0.9458  2.6774 -0.7156
10311SOL    HW236075   4.174   0.823   3.921  2.0711  0.9079 -0.5161
10312SOL     OW36076   8.449   9.773   2.088  0.3557 -0.4154 -0.0252
10312SOL    HW136077   8.512   9.718   2.033  1.3711  2.4653 -1.8369
10312SOL    HW236078   8.502   9.832   2.149 -0.6058  1.3655 -0.8967
10314SOL     OW36079   0.709   6.986   0.670  0.1918 -0.3471 -0.7813
10314SOL    HW136080   0.710   6.942   0.581 -1.7968 -1.8396 -0.1066
10314SOL    HW236081   0.671   7.078   0.662 -1.3077 -1.0025 -1.2511
10316SOL     OW36082   4.751   5.633   0.482 -0.1644 -0.1933  0.4612
10316SOL    HW136083   4.747   5.573   0.402 -1.8686 -0.1996  0.5324
10316SOL    HW236084   4.845   5.664   0.495  0.3914 -1.3071 -0.7126
10317SOL     OW36085   9.393   0.969   0.206  0.3476  0.4525  0.3773
10317SOL    HW136086   9.489   0.981   0.181  0.2946  1.1268  0.4827
10317SOL    HW236087   9.385   0.897   0.275  0.6853 -0.1832 -0.2407
10318SOL     OW36088   9.889   9.633   1.998 -0.3437 -0.0256 -0.1679
10318SOL    HW136089   9.922   9.606   1.908 -0.6467 -1.2586  0.0832
10318SOL    HW236090   9.958   9.612   2.067 -0.6836 -0.4075  0.0604
10319SOL     OW36091   1.524   9.474   0.273  0.0075  0.1336 -0.5796
10319SOL    HW136092   1.521   9.551   0.337 -0.6433 -1.2699  1.1320
10319SOL    HW236093   1.592   9.493   0.202  1.3953  1.3843  1.0160
10320SOL     OW36094   0.692   7.371   1.208 -0.1513  0.0269 -1.0182
10320SOL    HW136095   0.717   7.448   1.150  1.0690 -0.2679 -0.8997
10320SOL    HW236096   0.660   7.404   1.297  1.8275  0.3657 -0.4131
10321SOL     OW36097   2.905   6.308   3.878 -0.0857 -0.4874  0.3094
10321SOL    HW136098   2.877   6.378   3.944  0.3826 -1.5046  1.6240
10321SOL    HW236099   2.939   6.227   3.928  0.7352 -1.0881 -1.1884
10322SOL     OW36100   9.111   5.036   2.301 -0.5378 -0.3272  0.2552
10322SOL    HW136101   9.049   5.078   2.368 -1.0411 -1.7482  0.7125
10322SOL    HW236102   9.183   4.986   2.349 -1.0318 -1.5487 -0.2462
10323SOL     OW36103   2.535   9.829   0.537  0.1452  0.3924  0.0353
10323SOL    HW136104   2.510   9.922   0.565  0.7517  0.7186 -0.4676
10323SOL    HW236105   2.635   9.821   0.535  0.1061  0.0032 -0.8009
10324SOL     OW36106   0.076   4.984   0.423 -0.5773 -1.1786  0.1029
10324SOL    HW136107   0.176   4.995   0.419 -0.6972 -0.5460 -2.5741
10324SOL    HW236108   0.053   4.889   0.404 -0.4614 -1.3705  0.9415
10325SOL     OW36109   3.042   3.654   4.666 -0.0489 -0.5516  0.0315
10325SOL    HW136110   3.005   3.629   4.576  1.2533 -1.6574 -0.2357
10325SOL    HW236111   3.098   3.737   4.657  1.6224 -1.7032 -0.6001
10326SOL     OW36112   3.027   6.687   2.276 -0.0281 -0.3910  0.0249
10326SOL    HW136113   2.958   6.743   2.322  0.0580  0.0334 -0.3536
10326SOL    HW236114   3.040   6.720   2.183 -0.5430 -1.5527 -0.4648
10327SOL     OW36115   6.432   7.103   6.331 -0.3482 -0.2430 -0.2540
10327SOL    HW136116   6.357   7.151   6.378  0.5798  0.0018  1.0043
10327SOL    HW236117   6.475   7.164   6.265 -1.4892 -0.5037 -1.2642
10329SOL     OW36118   6.817   0.059   3.893 -0.0370  0.2145  0.1959
10329SOL    HW136119   6.884   0.122   3.933 -1.1677  0.9330  0.9824
10329SOL    HW236120   6.835  -0.034   3.926  1.5832  0.1143 -0.8994
10330SOL     OW36121   2.320   0.237   1.999  0.0954 -0.0349  0.5989
10330SOL    HW136122   2.298   0.142   1.975  2.5319 -0.5459  0.1944
10330SOL    HW236123   2.299   0.252   2.095  1.9163 -1.7468  1.3089
10332SOL     OW36124   3.124   0.036   4.117  0.0381 -0.6698  0.3165
10332SOL    HW136125   3.060   0.111   4.132  0.7887 -0.1057  0.7152
10332SOL    HW236126   3.088  -0.048   4.159 -0.8405 -0.5520 -0.2048
10333SOL     OW36127   3.596   6.964   3.471 -0.2949 -0.1320 -0.0488
10333SOL    HW136128   3.572   6.917   3.556  3.5605 -0.6580  0.8393
10333SOL    HW236129   3.627   7.057   3.492 -1.7971  0.6617 -1.1875
10334SOL     OW36130   4.636   4.292   4.309  0.2896  0.4221  0.0406
10334SOL    HW136131   4.565   4.306   4.240 -0.6508 -0.2203  0.8482
10334SOL    HW236132   4.644   4.194   4.328 -0.5687  0.6971  1.9409
10336SOL     OW36133   2.116   1.905   0.217 -0.0127 -0.0185  0.3053
10336SOL    HW136134   2.049   1.895   0.291  0.7343 -0.2689  0.9648
10336SOL    HW236135   2.113   1.998   0.182 -0.3276  0.1266  0.7025
10337SOL     OW36136   2.771   1.185   1.748 -0.4078  0.4862 -0.2159
10337SOL    HW136137   2.693   1.215   1.694 -0.2768  0.1584 -0.5956
10337SOL    HW236138   2.776   1.238   1.832 -1.2702  0.2437 -0.0065
10338SOL     OW36139   4.652   1.657   2.023 -0.3648 -0.8253 -0.1467
10338SOL    HW136140   4.562   1.667   1.980 -0.4734 -0.1746  0.2401
10338SOL    HW236141   4.673   1.560   2.033 -1.6045 -0.9774  0.9970
10340SOL     OW36142   3.261   6.256   1.302  0.4557  0.7243 -0.1059
10340SOL    HW136143   3.261   6.158   1.321 -1.2988  0.8808  0.7638
10340SOL    HW236144   3.239   6.271   1.205 -2.7950  0.3641  0.5245
10341SOL     OW36145   4.127   0.976   5.329 -0.1603  0.2099 -0.2735
10341SOL    HW136146   4.160   1.066   5.299 -0.8093  0.6362  0.3107
10341SOL    HW236147   4.029   0.970   5.315 -0.2309 -0.1475  0.3782
10342SOL     OW36148   1.025   7.096   5.622 -0.4520 -0.4733  0.0828
10342SOL    HW136149   1.103   7.146   5.583  0.3853 -1.8819 -0.0757
10342SOL    HW236150   1.029   7.098   5.721  0.2355 -1.2202  0.0731
10343SOL     OW36151   2.812   7.875   1.952 -0.1339 -0.4587 -0.7476
10343SOL    HW136152   2.795   7.776   1.961  1.4511 -0.6679  0.1416
10343SOL    HW236153   2.901   7.889   1.908 -1.3870  0.5954 -2.9979
10344SOL     OW36154   8.033   4.941   4.097 -0.5315  0.4428 -0.9444
10344SOL    HW136155   7.978   4.981   4.170  0.8841 -2.3257  1.7631
10344SOL    HW236156   7.974   4.886   4.038 -0.9623 -1.3620  1.1060
10345SOL     OW36157   7.102   9.181   5.738 -0.1370  0.0058  0.5874
10345SOL    HW136158   7.186   9.127   5.731  0.6332  1.2967 -0.4942
10345SOL    HW236159   7.023   9.122   5.725  0.7488 -0.5302 -2.9002
10346SOL     OW36160   6.615   7.408   3.409 -0.2590  0.3037  0.0151
10346SOL    HW136161   6.518   7.432   3.418 -0.1658  0.5394  0.3951
10346SOL    HW236162   6.648   7.371   3.496 -0.9526 -3.2013 -1.1175
10347SOL     OW36163   0.682   7.904   4.533 -0.1562 -0.0523  0.4739
10347SOL    HW136164   0.643   7.963   4.462  0.8617  0.4391  0.3070
10347SOL    HW236165   0.772   7.871   4.503 -0.3948 -1.0983  0.8848
10349SOL     OW36166   4.871   0.974   2.185  0.8137 -0.0538 -0.2691
10349SOL    HW136167   4.853   1.072   2.196  2.6290  0.2647  0.1524
10349SOL    HW236168   4.828   0.923   2.260  3.9103  0.9702  2.3150
10350SOL     OW36169   4.561   2.048   3.507  0.2585  0.5403 -0.1058
10350SOL    HW136170   4.508   1.991   3.570  0.4126 -1.0737 -1.3864
10350SOL    HW236171   4.657   2.051   3.536  0.7383 -1.8411 -1.3234
10351SOL     OW36172   8.773   9.390   4.323 -0.5479  0.4433  0.0989
10351SOL    HW136173   8.680   9.388   4.288  0.1400  1.2054 -1.8529
10351SOL    HW236174   8.812   9.481   4.310  0.8050 -0.1411 -0.1036
10352SOL     OW36175   3.849   0.459   0.244  0.1522 -0.0330  0.5660
10352SOL    HW136176   3.833   0.532   0.311  1.7478  1.7570 -0.9389
10352SOL    HW236177   3.907   0.389   0.286 -0.9474 -0.1977  1.8546
10354SOL     OW36178   3.803   1.032   1.563  0.1569 -0.1110 -0.4812
10354SOL    HW136179   3.869   0.958   1.552 -0.6506 -0.6502 -1.8857
10354SOL    HW236180   3.715   0.995   1.591  0.3983  0.5871  1.2299
10355SOL     OW36181   9.198   0.343   1.728 -0.0034 -0.0685  0.1700
10355SOL    HW136182   9.178   0.256   1.773 -2.6739 -0.2269 -1.2412
10355SOL    HW236183   9.160   0.418   1.781 -0.4381 -0.0153 -0.2127
10356SOL     OW36184   3.275   7.128   2.186  0.1322 -0.1239 -0.2150
10356SOL    HW136185   3.195   7.179   2.219  1.8007  2.5903 -0.2092
10356SOL    HW236186   3.336   7.190   2.136  2.2104 -2.1530 -0.2794
10357SOL     OW36187   4.327   6.892   2.371 -0.8181 -0.0931 -0.1258
10357SOL    HW136188   4.393   6.829   2.329 -0.5828  0.6068 -0.8164
10357SOL    HW236189   4.377   6.964   2.419 -1.0930  0.1176 -0.1596
10358SOL     OW36190   4.785   1.565   4.823 -0.4405 -0.2097  0.1487
10358SOL    HW136191   4.840   1.591   4.744  0.2545  0.8986  0.9844
10358SOL    HW236192   4.809   1.623   4.901 -0.5909 -1.7759  1.3840
10360SOL     OW36193   4.367   3.234   3.843 -0.0511  0.0839 -0.1222
10360SOL    HW136194   4.397   3.215   3.937  3.1931  1.4278 -0.8256
10360SOL    HW236195   4.417   3.175   3.780 -1.2710  0.1069 -1.1154
10361SOL     OW36196   3.006   2.991   2.032  0.1600 -0.0190 -0.4451
10361SOL    HW136197   2.927   3.038   1.992  0.1013 -0.8062 -1.2561
10361SOL    HW236198   3.044   3.047   2.106 -1.1336  0.3686 -0.0735
10362SOL     OW36199   6.923   7.691   4.290 -0.1332  0.1765  0.2679
10362SOL    HW136200   6.862   7.769   4.281 -0.6701 -0.5450 -3.0945
10362SOL    HW236201   6.886   7.614   4.238  0.6386 -2.1787  3.1096
10363SOL     OW36202   9.668   0.353   0.100 -0.2335  0.6054  0.3059
10363SOL    HW136203   9.589   0.305   0.064  0.3913  0.1425 -0.4633
10363SOL    HW236204   9.664   0.354   0.200  0.6191 -2.5960  0.4382
10364SOL     OW36205   9.578   9.665   3.741  0.0753 -0.1344  0.3650
10364SOL    HW136206   9.522   9.674   3.659 -0.0819 -1.3433  0.3286
10364SOL    HW236207   9.520   9.662   3.822  0.2636  1.6353  0.5803
10365SOL     OW36208   3.738   2.117   2.263  0.0815 -0.3906  0.4894
10365SOL    HW136209   3.716   2.027   2.300 -2.0498  0.5014  1.4735
10365SOL    HW236210   3.702   2.125   2.170  2.5101 -1.4296 -0.5903
10366SOL     OW36211   4.107   8.603   5.059  0.5144  0.1618 -0.3818
10366SOL    HW136212   4.063   8.685   5.096  1.8885  0.7013  0.0561
10366SOL    HW236213   4.094   8.527   5.123  0.1846  0.3105 -0.2707
10368SOL     OW36214   0.608   7.204   2.617  0.0045  0.7433 -0.4161
10368SOL    HW136215   0.524   7.184   2.567 -0.3799  2.1818 -0.3610
10368SOL    HW236216   0.593   7.281   2.678  1.1807  0.5781  0.0878
10369SOL     OW36217   4.963   1.179   5.059  0.3183  0.2960  0.5474
10369SOL    HW136218   4.889   1.181   5.127  1.8022  1.1149  2.1870
10369SOL    HW236219   4.926   1.200   4.969 -1.7038 -0.8309  1.0772
10371SOL     OW36220   3.492   5.666   6.235  0.1281  0.0942 -0.0739
10371SOL    HW136221   3.508   5.762   6.215 -3.3615  0.3796 -1.9871
10371SOL    HW236222   3.409   5.656   6.289 -1.6128 -1.9911 -2.9658
10372SOL     OW36223   4.386   0.827   4.670  0.2629  1.0737 -0.0492
10372SOL    HW136224   4.402   0.892   4.744  1.5332 -1.1182  1.6594
10372SOL    HW236225   4.473   0.797   4.633 -0.2793 -0.1771 -0.3340
10373SOL     OW36226   7.270   1.685   4.198 -0.7553 -0.2425  0.3843
10373SOL    HW136227   7.328   1.755   4.241 -0.4121  0.8618 -1.8268
10373SOL    HW236228   7.183   1.681   4.246 -0.7695  1.6979  0.5811
10374SOL     OW36229   0.114   8.118   3.803  0.0740 -0.5625  0.1949
10374SOL    HW136230   0.076   8.191   3.860  0.6270 -1.1434  1.3109
10374SOL    HW236231   0.052   8.040   3.804  0.2391 -0.6922  0.2672
10375SOL     OW36232   4.618   5.619   2.667 -0.1601 -0.0202  0.2296
10375SOL    HW136233   4.704   5.665   2.647  0.6485  0.0911  3.6768
10375SOL    HW236234   4.576   5.588   2.582  3.1351  0.1746 -1.5214
10377SOL     OW36235   1.534   0.563   4.074 -0.0594  0.2603 -0.4815
10377SOL    HW136236   1.539   0.517   4.163  2.5208  0.5601 -0.4283
10377SOL    HW236237   1.566   0.500   4.003 -0.3329  0.6443 -0.9419
10379SOL     OW36238   9.445   2.074   4.086  0.0415 -0.1777  0.2171
10379SOL    HW136239   9.421   2.107   4.177  0.2052 -1.6831  0.8173
10379SOL    HW236240   9.418   2.142   4.017 -0.3020  0.8528  1.3586
10380SOL     OW36241   2.942   2.666   0.517 -0.4326 -0.3274 -0.6449
10380SOL    HW136242   2.987   2.617   0.443  0.9407  1.5708 -1.0749
10380SOL    HW236243   2.991   2.649   0.603 -0.0131  0.2277 -0.7767
10381SOL     OW36244   7.401   1.138   0.241  0.4567 -0.1097 -0.9539
10381SOL    HW136245   7.341   1.111   0.165 -0.0178 -0.2359 -0.5316
10381SOL    HW236246   7.406   1.237   0.246 -2.5391 -0.0048  1.2113
10382SOL     OW36247   7.570   2.489   0.546  0.0911  0.0495  0.1125
10382SOL    HW136248   7.620   2.538   0.618 -0.8628  0.2916  0.6164
10382SOL    HW236249   7.554   2.550   0.469  1.5884 -0.3650 -0.5375
10383SOL     OW36250   4.037   1.969   2.371 -0.1292 -0.0400 -0.3969
10383SOL    HW136251   4.018   2.059   2.330 -2.0130  0.0243  0.5576
10383SOL    HW236252   4.027   1.898   2.302  0.9323  0.4339 -1.0527
10384SOL     OW36253   2.279   5.958   3.157 -0.5164 -0.2638 -0.3040
10384SOL    HW136254   2.324   5.974   3.245 -0.6438  0.5554 -0.3819
10384SOL    HW236255   2.314   5.874   3.117  0.4622  0.0059 -0.0400
10385SOL     OW36256   2.128   6.956   2.973 -0.0786  0.1241 -0.2645
10385SOL    HW136257   2.149   6.900   3.053 -1.3192 -0.1541 -0.1178
10385SOL    HW236258   2.064   6.907   2.913  0.7549  0.3730 -1.3806
10387SOL     OW36259   5.753   9.225   4.787  0.1572  0.0785  0.0968
10387SOL    HW136260   5.678   9.217   4.852 -0.2442 -1.9329 -0.5949
10387SOL    HW236261   5.839   9.205   4.833  0.4306  3.1151  1.0792
10389SOL     OW36262   4.324   4.040   2.133 -0.2593 -0.7067  0.2891
10389SOL    HW136263   4.291   4.127   2.095 -1.2668 -1.0742  0.2983
10389SOL    HW236264   4.249   3.995   2.181  0.4504 -1.2530  0.8906
10390SOL     OW36265   6.429   8.129   5.472 -0.6547  0.2188 -0.7066
10390SOL    HW136266   6.525   8.153   5.455 -0.7640  0.7267 -0.6331
10390SOL    HW236267   6.396   8.069   5.400 -0.3792  0.3237 -0.9196
10391SOL     OW36268   8.895   3.289   3.485  0.2759  0.2274  0.8059
10391SOL    HW136269   8.805   3.282   3.528  0.5403 -0.0974  1.3221
10391SOL    HW236270   8.960   3.326   3.552  0.4125  0.9353  0.2778
10392SOL     OW36271   9.555   1.494   5.781  0.8278  1.0161 -0.4726
10392SOL    HW136272   9.546   1.398   5.757  0.9365  0.7321  0.5952
10392SOL    HW236273   9.625   1.537   5.724  0.5080  0.5579 -1.2132
10393SOL     OW36274   8.896   6.504   4.179  0.0125 -0.3041 -0.5612
10393SOL    HW136275   8.839   6.586   4.185  1.3156  0.5028  1.1530
10393SOL    HW236276   8.838   6.423   4.177 -1.2056  0.5283  0.6637
10394SOL     OW36277   4.991   0.030   5.129 -0.0252  0.4872 -0.2204
10394SOL    HW136278   4.948   0.080   5.053 -1.0810  0.3630  0.2795
10394SOL    HW236279   4.998   0.090   5.209 -3.7980 -0.8713  1.2547
10396SOL     OW36280   2.888   7.450   3.063 -0.1148  0.5601  0.3461
10396SOL    HW136281   2.848   7.473   3.152 -1.4125 -1.0040  0.2001
10396SOL    HW236282   2.977   7.407   3.076 -0.7231 -0.5386  0.9658
10397SOL     OW36283   1.048   0.571   0.510 -0.2100  0.0528  0.4309
10397SOL    HW136284   1.003   0.527   0.433 -0.1879  2.2140 -0.8622
10397SOL    HW236285   1.147   0.560   0.502 -0.2493 -0.5369  0.6864
10400SOL     OW36286   2.835   4.875   3.109 -0.0682  0.1431 -0.2793
10400SOL    HW136287   2.869   4.785   3.139  2.4272  1.2140  0.2785
10400SOL    HW236288   2.777   4.914   3.180  0.9653  0.0894  0.6051
10403SOL     OW36289   9.263   2.945   5.202 -0.3626 -0.1897  0.1889
10403SOL    HW136290   9.285   2.900   5.115 -0.9270 -1.3556  0.6294
10403SOL    HW236291   9.189   3.011   5.188  0.4123  0.5543 -0.4524
10404SOL     OW36292   0.969   6.727   5.774  0.7061 -0.0690 -0.2477
10404SOL    HW136293   0.972   6.785   5.856 -1.4282  1.1437 -1.0101
10404SOL    HW236294   1.027   6.647   5.789  1.7673  1.0272  1.7632
10405SOL     OW36295   3.886   0.424   4.453  0.2829 -0.1386  0.6367
10405SOL    HW136296   3.881   0.508   4.507 -1.3120 -0.6061  1.2514
10405SOL    HW236297   3.958   0.433   4.383 -0.0332  1.8159  0.5373
10407SOL     OW36298   7.676   4.798   0.421  0.0148 -0.2429  0.3214
10407SOL    HW136299   7.585   4.806   0.381  0.9707 -0.6990 -1.9831
10407SOL    HW236300   7.731   4.733   0.369  1.6739  0.0306  1.6699
10408SOL     OW36301   1.385   2.842   1.046  0.4701 -0.3397  0.3478
10408SOL    HW136302   1.308   2.805   0.994  0.7976 -0.0220 -0.3671
10408SOL    HW236303   1.384   2.804   1.139 -0.9808  0.2380  0.5828
10409SOL     OW36304   2.107   0.680   3.905 -0.3293 -0.1201 -0.6957
10409SOL    HW136305   2.040   0.690   3.831 -0.7521  0.8519 -0.1919
10409SOL    HW236306   2.175   0.752   3.899 -0.4177  0.0170 -0.0858
10410SOL     OW36307   6.531   9.454   3.917  0.3929 -0.6607  0.0636
10410SOL    HW136308   6.490   9.524   3.976  0.1641 -0.4536 -0.3404
10410SOL    HW236309   6.562   9.377   3.974  1.7317  0.2899  0.6186
10412SOL     OW36310   3.715   9.112   1.919 -0.6427  0.6047 -0.3425
10412SOL    HW136311   3.755   9.028   1.955 -1.1320 -0.1758 -1.5819
10412SOL    HW236312   3.773   9.148   1.847 -1.3368  0.3430 -1.0428
10414SOL     OW36313   4.218   5.776   0.446 -0.3240 -0.0050 -0.1477
10414SOL    HW136314   4.283   5.728   0.386 -0.9513 -1.4515  0.3107
10414SOL    HW236315   4.205   5.723   0.530 -1.7037  0.5361 -0.0099
10415SOL     OW36316   9.730   2.996   3.114 -0.3582  0.2373 -0.1565
10415SOL    HW136317   9.780   3.065   3.166  0.9364 -1.3105  0.6987
10415SOL    HW236318   9.671   2.944   3.176 -1.9759  1.0844 -0.9261
10416SOL     OW36319   0.577   2.205   4.020 -0.5489  0.5300 -0.3839
10416SOL    HW136320   0.532   2.265   3.954 -0.1392  1.1448 -0.1104
10416SOL    HW236321   0.662   2.170   3.981 -1.9095 -1.7268 -1.4273
10417SOL     OW36322   3.575   6.732   5.100 -0.0455 -0.1237  0.1156
10417SOL    HW136323   3.511   6.747   5.024 -0.6978  2.8317  1.2149
10417SOL    HW236324   3.669   6.744   5.067 -0.2692  0.0791 -0.4569
10418SOL     OW36325   0.334   4.287   5.445  0.4872  0.4379 -0.0158
10418SOL    HW136326   0.260   4.304   5.510 -0.3309 -1.7234 -0.3586
10418SOL    HW236327   0.421   4.313   5.487  0.0435 -1.5432  2.2327
10420SOL     OW36328   1.497   6.636   4.737  0.0356 -0.2872  0.0329
10420SOL    HW136329   1.547   6.717   4.767 -0.2083 -0.3483  0.6011
10420SOL    HW236330   1.498   6.567   4.809 -0.1812 -0.6006 -0.2615
10421SOL     OW36331   1.587   2.405   1.809 -0.4581  0.2493  0.5314
10421SOL    HW136332   1.627   2.329   1.757 -1.6493  0.8810 -1.3255
10421SOL    HW236333   1.509   2.371   1.862 -2.0524  0.4677 -1.6081
10422SOL     OW36334   3.037   1.196   3.919  0.2745 -0.5945 -0.1683
10422SOL    HW136335   3.129   1.161   3.938  1.2436  2.0903  0.3265
10422SOL    HW236336   3.027   1.286   3.960 -1.5282  0.4776 -2.8260
10424SOL     OW36337   0.198   7.835   4.906 -0.0207 -0.7333  0.1885
10424SOL    HW136338   0.127   7.867   4.968  0.7056 -1.0449  1.1959
10424SOL    HW236339   0.252   7.764   4.951  1.0223 -0.3941 -0.5135
10425SOL     OW36340   9.161   5.729   3.873 -0.1313 -0.3948 -0.0468
10425SOL    HW136341   9.182   5.825   3.858  1.5666 -1.0760 -2.3504
10425SOL    HW236342   9.151   5.712   3.971 -0.0236  2.0119  0.4178
10426SOL     OW36343   3.756   2.161   1.783  0.1706 -0.0853  0.1838
10426SOL    HW136344   3.853   2.136   1.783  0.1419 -0.1977 -0.3082
10426SOL    HW236345   3.701   2.081   1.802  0.1851  0.0274  0.7096
10428SOL     OW36346   2.666   5.021   0.363  0.0212 -0.3153  0.3419
10428SOL    HW136347   2.636   5.116   0.361  0.2336 -0.2557 -0.1203
10428SOL    HW236348   2.711   5.002   0.450  0.1966  0.0716  0.3352
10429SOL     OW36349   2.857   3.614   5.394  0.2580  0.3944  0.0804
10429SOL    HW136350   2.884   3.650   5.304  0.6950 -0.3127 -0.0726
10429SOL    HW236351   2.766   3.648   5.417 -0.8799 -1.3571 -1.7026
10430SOL     OW36352   5.055   9.719   1.764 -0.4811 -0.2598 -0.1874
10430SOL    HW136353   4.968   9.675   1.742 -0.1462 -0.9441 -0.1708
10430SOL    HW236354   5.117   9.651   1.804 -0.9359  0.8372  2.5411
10431SOL     OW36355   2.931   9.224   3.601  0.0461  0.7079 -0.4967
10431SOL    HW136356   2.965   9.313   3.630  0.5411  0.1195  0.7470
10431SOL    HW236357   3.008   9.161   3.589 -0.2000  0.7377 -2.4376
10432SOL     OW36358   4.774   4.665   0.272  0.1712  0.5285  0.3006
10432SOL    HW136359   4.747   4.571   0.254 -0.4659  0.4833  1.4778
10432SOL    HW236360   4.874   4.671   0.279  0.1234 -0.3689  1.9270
10433SOL     OW36361   0.721   7.831   1.915  0.1033 -0.1662  0.1945
10433SOL    HW136362   0.815   7.844   1.946 -0.1622 -0.5022  1.1834
10433SOL    HW236363   0.715   7.848   1.817  0.4658  3.4529  0.7448
10434SOL     OW36364   1.038   4.765   1.795  0.1688 -0.1962 -0.5106
10434SOL    HW136365   1.052   4.754   1.893 -0.3692  1.9832 -0.1649
10434SOL    HW236366   1.113   4.820   1.757 -0.3924  0.2146 -1.0425
10435SOL     OW36367   0.578   6.164   4.600 -0.1990 -0.7698  0.1452
10435SOL    HW136368   0.497   6.210   4.565  1.5588  2.7990  0.5688
10435SOL    HW236369   0.646   6.155   4.528 -0.5470 -2.8699  0.0431
10436SOL     OW36370   1.676   9.902   1.721  0.0579 -0.0354 -0.3119
10436SOL    HW136371   1.754   9.953   1.757 -0.6046 -0.4949  1.8473
10436SOL    HW236372   1.599   9.964   1.707 -0.6913 -0.3588  2.1443
10439SOL     OW36373   2.884   0.778   1.874 -0.6376 -0.1675  0.5325
10439SOL    HW136374   2.884   0.848   1.946 -1.3818  0.6158 -0.2017
10439SOL    HW236375   2.941   0.810   1.798 -0.2479 -0.7702  0.5752
10440SOL     OW36376   4.454   2.447   5.931 -0.2470  0.1404 -0.1807
10440SOL    HW136377   4.387   2.461   5.858 -0.0387  0.7864 -0.2537
10440SOL    HW236378   4.527   2.388   5.899 -0.0736  0.5533 -0.5496
10442SOL     OW36379   2.438   9.703   5.941 -0.6540 -0.6498 -0.3176
10442SOL    HW136380   2.536   9.716   5.925 -0.1001 -0.7361  2.7248
10442SOL    HW236381   2.390   9.788   5.923  0.6369  0.7656  2.6293
10443SOL     OW36382   2.709   5.125   5.782 -0.1625  0.3960 -0.1271
10443SOL    HW136383   2.710   5.079   5.693  2.4364 -0.7571  0.4564
10443SOL    HW236384   2.663   5.213   5.773 -1.4065 -0.4341 -2.2347
10444SOL     OW36385   3.996   1.100   2.104 -0.2067  0.5213 -0.1218
10444SOL    HW136386   4.095   1.091   2.110 -0.1721  0.6333 -0.4963
10444SOL    HW236387   3.958   1.023   2.052 -0.5388 -0.6582  1.8238
10445SOL     OW36388   1.278   4.321   2.906 -0.4615  0.2439  0.3400
10445SOL    HW136389   1.229   4.307   2.991  0.5607  0.3016  0.9432
10445SOL    HW236390   1.331   4.238   2.884  0.3894  0.7311  0.5057
10446SOL     OW36391   4.662   5.680   2.250  0.4696 -0.1272 -0.4606
10446SOL    HW136392   4.739   5.641   2.200  0.9986  1.4074 -0.8530
10446SOL    HW236393   4.630   5.762   2.203 -0.4470  0.0825  0.5231
10448SOL     OW36394   4.015   9.761   4.871 -0.2371  0.1488  0.4148
10448SOL    HW136395   4.069   9.709   4.805 -0.2557 -0.5582  0.9387
10448SOL    HW236396   3.920   9.765   4.842 -0.0577  0.7066 -0.1053
10449SOL     OW36397   2.855   1.543   2.888 -0.0347 -0.3702 -0.0351
10449SOL    HW136398   2.788   1.590   2.831  0.6260 -0.3362 -0.7943
10449SOL    HW236399   2.851   1.444   2.870 -0.3841 -0.4499  0.4591
10450SOL     OW36400   1.685   1.095   5.561  0.3283  0.1206  0.1009
10450SOL    HW136401   1.709   1.055   5.473  2.3869  0.3182  0.5513
10450SOL    HW236402   1.637   1.182   5.546 -1.1089 -0.8114 -0.8231
10451SOL     OW36403   4.804   9.138   0.235 -0.4041  0.3646 -0.1216
10451SOL    HW136404   4.743   9.071   0.278  0.2210  0.6557  1.2432
10451SOL    HW236405   4.821   9.111   0.140  1.1753 -2.3345  0.8720
10452SOL     OW36406   3.682   2.448   2.672 -0.3243  0.1342 -0.2807
10452SOL    HW136407   3.725   2.519   2.728 -1.6997  0.2562  0.6643
10452SOL    HW236408   3.584   2.466   2.665 -0.5307 -1.1318 -0.8579
10454SOL     OW36409   1.526   3.905   0.655 -0.0650 -0.5446 -0.0426
10454SOL    HW136410   1.443   3.957   0.634  1.9226  2.9300  0.2314
10454SOL    HW236411   1.537   3.831   0.588 -1.3467  1.3819 -2.4959
10455SOL     OW36412   5.969   0.864   4.360  0.0540  0.6412  0.3241
10455SOL    HW136413   5.981   0.783   4.417  0.4065  1.1888  1.0492
10455SOL    HW236414   6.011   0.943   4.406  0.6241  1.0300 -0.8521
10456SOL     OW36415   8.505   4.678   3.740 -0.0537 -0.1158  0.3452
10456SOL    HW136416   8.531   4.749   3.805  0.5844 -3.7210  4.2915
10456SOL    HW236417   8.407   4.683   3.722  0.2300  2.5951 -0.6209
10458SOL     OW36418   6.740   8.564   3.379  0.2306 -0.2976 -0.9594
10458SOL    HW136419   6.681   8.539   3.456  0.7844  1.8874  0.1981
10458SOL    HW236420   6.835   8.544   3.402  0.4763  1.0811 -0.7850
10459SOL     OW36421   0.287   4.759   1.945 -0.3340  0.0124 -0.6480
10459SOL    HW136422   0.232   4.806   2.013  1.7842  1.1634  0.3404
10459SOL    HW236423   0.256   4.785   1.853 -0.7052  1.5209 -0.1117
10460SOL     OW36424   5.288   8.413   3.890  0.1095  0.5476 -0.2898
10460SOL    HW136425   5.256   8.416   3.984 -2.0102 -1.2511 -0.9035
10460SOL    HW236426   5.253   8.492   3.840 -0.2848  0.5428 -0.0207
10461SOL     OW36427   9.936   7.628   0.393 -0.5123  0.0710  0.1792
10461SOL    HW136428   9.933   7.581   0.481  1.4394 -0.1054  0.1557
10461SOL    HW236429   9.847   7.672   0.376 -1.3405 -1.0096  1.6000
10462SOL     OW36430   0.996   8.172   5.484  0.2816  0.0022 -0.1613
10462SOL    HW136431   0.921   8.217   5.435  0.0026  1.5805  1.6785
10462SOL    HW236432   1.060   8.133   5.417 -0.4358  1.5155 -1.7873
10463SOL     OW36433   1.967   2.321   6.227 -0.3043 -0.0173  0.4418
10463SOL    HW136434   1.939   2.397   6.169  1.4314  0.8081  0.6671
10463SOL    HW236435   2.054   2.285   6.195  0.8444  0.6542  2.7292
10464SOL     OW36436   3.953   4.051   5.980  0.6851  0.3313 -0.6630
10464SOL    HW136437   3.867   4.045   6.031  0.6954 -2.1724 -0.8894
10464SOL    HW236438   4.028   4.072   6.043  0.1718  0.7981 -0.2019
10465SOL     OW36439   8.252   1.684   1.924  0.3608 -0.1091  0.4192
10465SOL    HW136440   8.221   1.637   1.842  0.7018  0.1522  0.1366
10465SOL    HW236441   8.175   1.696   1.986 -0.0332  0.2212 -0.1243
10466SOL     OW36442   7.335   1.250   1.870 -0.4308 -0.8068  0.6763
10466SOL    HW136443   7.289   1.274   1.955 -2.4489 -0.7572 -0.4021
10466SOL    HW236444   7.333   1.150   1.858 -0.1989 -0.8106  0.6672
10467SOL     OW36445   9.285   0.544   5.339  0.2686  0.0172 -0.2322
10467SOL    HW136446   9.269   0.583   5.430  1.7733  0.2265 -0.0571
10467SOL    HW236447   9.224   0.588   5.273 -1.7570 -1.0090  0.8632
10468SOL     OW36448   7.247   2.613   2.658  0.9214 -0.0183 -0.4472
10468SOL    HW136449   7.204   2.658   2.579  1.1884  0.9666 -0.0293
10468SOL    HW236450   7.346   2.612   2.645  1.1700  2.3044  0.9832
10469SOL     OW36451   3.124   4.936   1.258 -0.2768 -0.1326 -0.3170
10469SOL    HW136452   3.222   4.945   1.269 -0.3096 -1.3215  1.1545
10469SOL    HW236453   3.102   4.910   1.164  0.6198  2.6356 -1.3106
10471SOL     OW36454   3.206   5.362   5.125 -0.4519  0.0212  0.2271
10471SOL    HW136455   3.269   5.390   5.052 -0.3633 -1.4319 -0.2776
10471SOL    HW236456   3.163   5.443   5.165  1.5594  1.0375  0.4323
10472SOL     OW36457   2.224   3.410   1.936  0.0058  0.3000  0.3266
10472SOL    HW136458   2.178   3.482   1.883 -2.0200 -1.1214  0.0857
10472SOL    HW236459   2.257   3.449   2.022  0.5111  1.9150 -0.5744
10473SOL     OW36460   3.601   0.119   2.632  0.3308 -0.0003  0.1622
10473SOL    HW136461   3.552   0.043   2.589 -0.6279  1.5294 -1.5091
10473SOL    HW236462   3.670   0.154   2.569 -0.7693  1.9674  0.0240
10474SOL     OW36463   8.392   3.722   5.057 -0.1269  0.1751  0.3159
10474SOL    HW136464   8.396   3.644   4.994  2.2930 -0.9403  1.8050
10474SOL    HW236465   8.298   3.734   5.089 -1.2988  0.3896 -2.9831
10475SOL     OW36466   1.409   0.718   0.721  0.3839  0.3403 -0.2965
10475SOL    HW136467   1.509   0.716   0.708  0.3149 -0.6539 -0.7576
10475SOL    HW236468   1.388   0.715   0.819  0.8190  1.2660 -0.1745
10476SOL     OW36469   1.458   3.391   3.959  0.3309 -0.2547  0.1120
10476SOL    HW136470   1.465   3.490   3.974 -1.2862 -0.2479  0.9474
10476SOL    HW236471   1.548   3.354   3.937  0.7473  1.6038 -1.4737
10477SOL     OW36472   2.530   5.851   4.219  0.3570  0.3616 -0.7079
10477SOL    HW136473   2.555   5.907   4.140 -1.2758 -1.4066 -2.5286
10477SOL    HW236474   2.437   5.873   4.248  1.0573  1.2299  0.9637
10478SOL     OW36475   2.373   9.940   2.228  0.3861 -0.7981 -0.0963
10478SOL    HW136476   2.323   9.874   2.173 -0.3490  1.5108 -2.2990
10478SOL    HW236477   2.318   9.966   2.308 -0.9059 -0.0811 -1.2147
10480SOL     OW36478   0.181   8.934   6.401 -0.2651  0.0362  0.3799
10480SOL    HW136479   0.268   8.900   6.437 -0.5854  1.0224  2.1129
10480SOL    HW236480   0.199   9.006   6.334  0.2259  1.1175  1.6673
10481SOL     OW36481   4.140   4.836   5.302  0.2709 -0.1433 -0.8498
10481SOL    HW136482   4.197   4.846   5.383 -0.6096  1.3355 -0.3970
10481SOL    HW236483   4.043   4.843   5.328  0.0186  2.5697 -2.2788
10482SOL     OW36484   6.263   2.647   5.514 -0.2888 -0.3225  0.3344
10482SOL    HW136485   6.273   2.590   5.432  3.2740 -1.9389  1.7503
10482SOL    HW236486   6.195   2.607   5.575 -0.0020 -1.3925 -0.0388
10483SOL     OW36487   6.546   9.138   4.343  0.1588  0.4737  0.3737
10483SOL    HW136488   6.504   9.138   4.252  0.8691  2.2159  0.0241
10483SOL    HW236489   6.637   9.180   4.338  0.3520  0.2708  1.8275
10484SOL     OW36490   2.562   4.847   4.245  0.2010 -0.0568  0.8181
10484SOL    HW136491   2.654   4.876   4.218 -0.7872  2.1762 -0.3093
10484SOL    HW236492   2.509   4.826   4.163 -0.3936 -1.0685  1.4494
10486SOL     OW36493   8.732   9.355   4.996 -0.7860  0.1599  0.5568
10486SOL    HW136494   8.772   9.264   5.004 -2.5931 -0.5692  1.6116
10486SOL    HW236495   8.798   9.423   5.027 -0.7456 -1.0937  3.3597
10487SOL     OW36496   5.936   9.076   4.484  0.1671  0.0517  0.4599
10487SOL    HW136497   5.953   9.085   4.386  2.1761  0.1124  0.8027
10487SOL    HW236498   5.907   9.164   4.521 -0.0515  0.1614  0.0245
10488SOL     OW36499   8.533   7.576   3.321 -0.4783  0.1668  0.0024
10488SOL    HW136500   8.624   7.613   3.305 -0.3632 -0.0624  0.1245
10488SOL    HW236501   8.496   7.540   3.236  0.0178 -0.7807  0.1720
10490SOL     OW36502   4.843   6.114   1.404 -0.1105  0.3409  0.4926
10490SOL    HW136503   4.868   6.034   1.458 -0.2596  0.7664  1.2064
10490SOL    HW236504   4.865   6.197   1.456  0.0684  0.7590 -0.2487
10491SOL     OW36505   8.425   1.082   2.834  0.2166  0.0706  0.1204
10491SOL    HW136506   8.332   1.050   2.854  0.2063  0.7185  1.1968
10491SOL    HW236507   8.429   1.115   2.740 -0.4827 -0.5465 -0.1350
10492SOL     OW36508   5.384   1.025   4.449 -0.5023  0.4080 -0.1711
10492SOL    HW136509   5.395   1.123   4.432 -0.5206 -0.0808 -3.4045
10492SOL    HW236510   5.460   0.976   4.407 -0.6121 -1.0073  1.2444
10493SOL     OW36511   0.770   3.252   2.214  0.5079 -0.2967 -0.0905
10493SOL    HW136512   0.712   3.212   2.285  0.6560  1.7392  1.2041
10493SOL    HW236513   0.713   3.284   2.139  0.3391 -2.3243 -0.8491
10494SOL     OW36514   1.992   2.282   5.206 -0.7300 -0.7268 -0.1908
10494SOL    HW136515   2.049   2.322   5.135  1.6409  0.5862  2.3491
10494SOL    HW236516   1.992   2.182   5.198 -0.0312 -0.6066 -1.6570
10495SOL     OW36517   0.353   0.869   6.168 -0.8230 -0.2228 -0.0930
10495SOL    HW136518   0.389   0.931   6.238  0.0271  0.3752 -1.0388
10495SOL    HW236519   0.356   0.915   6.079 -1.3516 -1.1829 -0.6132
10498SOL     OW36520   0.486   3.469   4.112 -0.0934  0.1910  0.5034
10498SOL    HW136521   0.409   3.408   4.130 -1.1955  1.4949  0.2525
10498SOL    HW236522   0.456   3.564   4.119  0.8745  0.7334 -2.0649
10501SOL     OW36523   9.589   8.575   6.077 -0.4720 -0.3673 -0.2477
10501SOL    HW136524   9.588   8.502   6.008 -0.3082 -1.5350  0.9636
10501SOL    HW236525   9.496   8.597   6.103 -0.5180 -0.2338 -0.5241
10503SOL     OW36526   2.273   1.594   4.460 -0.0133 -0.0676  0.0225
10503SOL    HW136527   2.225   1.619   4.376 -1.7349 -0.8946  0.7324
10503SOL    HW236528   2.235   1.646   4.537  1.0203  0.1125  0.4228
10505SOL     OW36529   4.196   1.610   5.373 -0.0922  0.3902 -0.5375
10505SOL    HW136530   4.166   1.679   5.439  1.2587  1.8680 -1.4058
10505SOL    HW236531   4.263   1.549   5.416 -1.3640 -0.4514  0.2630
10506SOL     OW36532   1.265   9.658   1.622 -0.3230 -0.0913 -0.9033
10506SOL    HW136533   1.359   9.640   1.652  0.7925  2.7389 -2.5885
10506SOL    HW236534   1.223   9.726   1.682 -1.0100 -0.6396 -0.7438
10507SOL     OW36535   8.278   7.249   4.020  0.5808  0.1125 -0.2312
10507SOL    HW136536   8.310   7.160   4.053  0.6054  0.7924  1.6628
10507SOL    HW236537   8.354   7.297   3.975  0.6109 -0.7517 -1.1075
10508SOL     OW36538   1.052   3.622   0.746  0.3074  0.4434  0.3809
10508SOL    HW136539   1.131   3.641   0.804  1.6528 -0.3599 -1.1418
10508SOL    HW236540   1.031   3.525   0.748  0.5360  0.3592 -0.6442
10509SOL     OW36541   6.549   9.331   2.586  0.7169 -0.3580  0.2230
10509SOL    HW136542   6.470   9.388   2.560  0.3239  0.0862  2.2997
10509SOL    HW236543   6.588   9.365   2.672  2.1693 -1.5736  0.0610
10510SOL     OW36544   6.558   9.881   5.795  0.3805  0.0805  0.0352
10510SOL    HW136545   6.583   9.799   5.744  3.0546  0.3273  0.8643
10510SOL    HW236546   6.548   9.858   5.892  1.4127  0.7547  0.3100
10511SOL     OW36547   9.789   8.145   6.414 -0.4219  0.4531  0.3014
10511SOL    HW136548   9.719   8.072   6.409  0.9480 -0.9583  1.2364
10511SOL    HW236549   9.785   8.188   6.503 -0.6648  0.9696  0.0446
10514SOL     OW36550   1.121   4.726   2.360 -0.1938 -0.0569  0.1666
10514SOL    HW136551   1.060   4.787   2.410 -1.0076 -0.7875  0.0921
10514SOL    HW236552   1.196   4.778   2.319 -0.0814  0.6812  1.3039
10515SOL     OW36553   7.580   2.209   4.751  0.1025 -0.5843  1.0208
10515SOL    HW136554   7.648   2.142   4.724  0.7921  0.3832  0.3118
10515SOL    HW236555   7.610   2.253   4.836  1.4500  1.3212 -0.3842
10516SOL     OW36556   3.346   1.387   2.048  0.6677 -0.1097  0.1152
10516SOL    HW136557   3.386   1.390   1.956 -1.4208  0.6813 -0.8045
10516SOL    HW236558   3.411   1.424   2.114  1.9445 -0.0668 -1.1380
10517SOL     OW36559   7.141   7.611   4.826  0.5085 -0.0340  0.3459
10517SOL    HW136560   7.074   7.591   4.754 -0.6505  0.2644  1.3149
10517SOL    HW236561   7.175   7.525   4.863 -0.9406 -0.2242  1.2880
10518SOL     OW36562   4.181   7.363   1.381 -0.4382  0.1869 -0.0169
10518SOL    HW136563   4.240   7.349   1.461 -1.0688  0.0015  0.4203
10518SOL    HW236564   4.227   7.425   1.317  1.3847 -2.0273 -0.9160
10521SOL     OW36565   1.720   7.983   3.856  0.7790  0.0366 -0.1847
10521SOL    HW136566   1.772   7.971   3.771  3.3606 -1.2440  1.5363
10521SOL    HW236567   1.665   7.901   3.873  1.1078 -0.1537 -0.0435
10522SOL     OW36568   2.762   4.002   5.777 -0.7121 -0.4780 -0.0722
10522SOL    HW136569   2.758   4.003   5.677  1.2811  0.0765 -0.1730
10522SOL    HW236570   2.780   4.095   5.810  2.5122 -1.2899  0.5792
10524SOL     OW36571   7.873   8.762   4.345  0.2729  0.1788 -0.4718
10524SOL    HW136572   7.801   8.728   4.405  0.3594 -1.1769 -1.1131
10524SOL    HW236573   7.832   8.820   4.274  0.1234  1.4508  0.6247
10525SOL     OW36574   2.450   8.244   1.565  0.0162  0.5464 -0.1942
10525SOL    HW136575   2.528   8.287   1.609  0.7142 -1.7124  0.8181
10525SOL    HW236576   2.471   8.228   1.468  0.0832  1.6599 -0.3662
10526SOL     OW36577   7.782   5.131   1.196 -0.1322  0.2545 -0.7686
10526SOL    HW136578   7.730   5.215   1.213  0.2379  0.5076 -0.9053
10526SOL    HW236579   7.793   5.117   1.098  1.0575  0.8053 -0.7119
10527SOL     OW36580   1.630   5.050   0.883 -0.0794 -0.2843 -0.5367
10527SOL    HW136581   1.675   4.962   0.893 -2.1737 -1.8043 -3.4681
10527SOL    HW236582   1.533   5.035   0.863 -1.1860  2.7919  2.1235
10528SOL     OW36583   8.544   4.403   2.754  0.1387  0.4204 -0.1250
10528SOL    HW136584   8.535   4.481   2.815 -0.5110  1.3781 -1.4171
10528SOL    HW236585   8.454   4.376   2.720  0.4903 -0.0928 -0.6739
10529SOL     OW36586   3.265   1.818   3.087  0.0085 -0.7898 -0.0830
10529SOL    HW136587   3.266   1.811   2.988 -0.0558  1.1390 -0.2387
10529SOL    HW236588   3.174   1.846   3.118  0.2329 -0.6589  0.4602
10530SOL     OW36589   1.002   2.217   5.361  0.3130 -0.5997  0.2086
10530SOL    HW136590   1.072   2.155   5.327 -0.2476 -0.9653 -0.2984
10530SOL    HW236591   0.952   2.257   5.283  0.6088  0.4141  0.5312
10531SOL     OW36592   9.625   8.392   4.847 -0.5382  0.3619  0.2159
10531SOL    HW136593   9.700   8.371   4.910 -0.6435 -0.4153  0.0752
10531SOL    HW236594   9.553   8.442   4.897  0.4754  1.9526  0.1362
10532SOL     OW36595   0.442   7.187   3.001 -0.3784  0.1250 -0.6255
10532SOL    HW136596   0.518   7.132   2.968  0.8270  1.4503 -0.0755
10532SOL    HW236597   0.434   7.270   2.947 -2.5031 -0.7820 -1.7749
10534SOL     OW36598   1.380   2.090   5.668 -0.0625 -0.1328  0.1238
10534SOL    HW136599   1.316   2.082   5.591  0.3497 -1.0942 -0.1143
10534SOL    HW236600   1.406   1.999   5.700  0.0988  0.2629  1.1333
10535SOL     OW36601   3.594   6.509   0.932  0.3900  0.5180 -0.2148
10535SOL    HW136602   3.521   6.522   0.865  0.1235 -0.9935 -0.2372
10535SOL    HW236603   3.667   6.453   0.892  0.8438  0.7208  0.3171
10536SOL     OW36604   9.298   2.204   5.186 -0.2888 -0.2441  0.1236
10536SOL    HW136605   9.358   2.134   5.148  0.1201  0.5113 -0.6329
10536SOL    HW236606   9.346   2.255   5.257 -0.2718 -0.1021  0.0107
10537SOL     OW36607   0.916   1.745   3.922 -0.0235  0.0268 -1.3516
10537SOL    HW136608   0.870   1.657   3.934  0.9269 -0.1276  1.8800
10537SOL    HW236609   0.986   1.737   3.851  0.9020 -2.2359 -0.2405
10538SOL     OW36610   8.606   4.825   3.480 -0.1551 -0.2490  0.3698
10538SOL    HW136611   8.543   4.874   3.421  0.5139 -1.8321 -1.7173
10538SOL    HW236612   8.560   4.800   3.565 -1.2407  1.7134  0.3829
10539SOL     OW36613   1.472   7.998   0.505 -0.4265 -0.1080 -0.3810
10539SOL    HW136614   1.386   8.030   0.546  0.5082 -0.7162  2.0857
10539SOL    HW236615   1.530   8.077   0.486 -1.2642  0.2561 -1.4932
10540SOL     OW36616   1.481   3.920   3.534  0.1405 -0.1780  0.2368
10540SOL    HW136617   1.440   3.917   3.442  3.0072 -1.2832 -1.0597
10540SOL    HW236618   1.521   4.010   3.550  1.1452 -0.5146 -0.3132
10541SOL     OW36619   8.080   4.342   5.851  0.7761  0.1384  0.0453
10541SOL    HW136620   8.173   4.342   5.889  0.2838  0.8196  1.2558
10541SOL    HW236621   8.044   4.248   5.853  1.0462  0.0425  0.5259
10542SOL     OW36622   0.253   4.439   2.247 -0.0507  0.5536 -0.0145
10542SOL    HW136623   0.317   4.514   2.230  1.7551 -0.6906  1.0770
10542SOL    HW236624   0.235   4.391   2.161  1.2562  0.3371 -0.1854
10544SOL     OW36625   0.968   1.847   0.209 -0.6794  0.0071  0.0137
10544SOL    HW136626   0.966   1.767   0.270  0.5377  0.1497  0.2602
10544SOL    HW236627   1.044   1.906   0.235 -1.7436  1.3983  0.0054
10545SOL     OW36628   7.787   3.242   3.442  0.5306 -0.5044  0.0249
10545SOL    HW136629   7.881   3.277   3.444  0.5008 -0.4420  0.8436
10545SOL    HW236630   7.764   3.211   3.350  1.3335 -0.4532 -0.1970
10546SOL     OW36631   9.719   5.463   1.744 -0.0639  0.2818 -0.2857
10546SOL    HW136632   9.725   5.522   1.663 -0.4103 -0.1705 -0.6412
10546SOL    HW236633   9.634   5.482   1.792 -0.0964  0.1884 -0.3072
10547SOL     OW36634   1.955   0.916   3.398 -0.5866 -0.4501  0.1425
10547SOL    HW136635   1.859   0.897   3.420 -0.7548 -1.4740 -1.4239
10547SOL    HW236636   2.005   0.830   3.392 -0.2961 -0.1443 -2.2540
10548SOL     OW36637   0.369   1.189   3.285 -0.1917  0.5781  0.3324
10548SOL    HW136638   0.353   1.150   3.376 -0.4574  0.5590  0.2791
10548SOL    HW236639   0.408   1.120   3.225  1.3518  0.9969  0.8387
10549SOL     OW36640   9.931   6.822   1.397  0.6525 -0.4280  0.4471
10549SOL    HW136641   9.967   6.914   1.381  0.3866 -0.1988  1.1275
10549SOL    HW236642   9.878   6.822   1.482 -0.3625 -0.9213 -0.1755
10550SOL     OW36643   0.878   5.815   4.220 -0.2963 -0.3231 -0.5557
10550SOL    HW136644   0.918   5.820   4.129  0.3765 -1.4828 -0.3363
10550SOL    HW236645   0.915   5.888   4.277 -0.1339 -0.0724 -0.9788
10551SOL     OW36646   2.191   4.287   5.457 -0.1447  0.0553 -0.4434
10551SOL    HW136647   2.254   4.315   5.383 -0.8284 -1.5228 -1.6492
10551SOL    HW236648   2.100   4.271   5.418 -0.4331 -1.1095  0.7024
10552SOL     OW36649   9.394   9.140   0.178  0.1590  0.4013  0.0267
10552SOL    HW136650   9.429   9.233   0.184  1.6971 -0.2208  0.8836
10552SOL    HW236651   9.300   9.142   0.144  0.0249  2.2946  0.4546
10553SOL     OW36652   0.024   4.695   0.333  0.1771 -0.2584  0.6641
10553SOL    HW136653  -0.002   4.623   0.397  0.3415 -0.8358  0.0877
10553SOL    HW236654   0.086   4.658   0.265 -0.2075  0.2879  0.0106
10554SOL     OW36655   4.560   3.101   1.538  0.1938  0.0240  0.3047
10554SOL    HW136656   4.589   3.196   1.544  2.5892 -0.6978  0.7540
10554SOL    HW236657   4.640   3.043   1.520 -0.8778 -2.1346  2.2030
10555SOL     OW36658   1.049   0.132   0.635  0.3043 -0.3110 -0.1921
10555SOL    HW136659   1.063   0.194   0.713 -0.2135  0.1230 -0.4364
10555SOL    HW236660   1.106   0.051   0.646 -0.3225 -0.5933  1.0196
10558SOL     OW36661   1.557   2.828   4.186 -0.4991  0.0255  0.1500
10558SOL    HW136662   1.458   2.814   4.190 -0.2921 -1.1413  2.4816
10558SOL    HW236663   1.603   2.740   4.171  0.2685  0.2246  1.2470
10559SOL     OW36664   4.123   8.767   2.303  0.0877  0.1531  0.2362
10559SOL    HW136665   4.219   8.739   2.309  0.0950 -0.1164 -0.9600
10559SOL    HW236666   4.118   8.859   2.262 -0.0803  0.8090  1.7119
10560SOL     OW36667   8.021   5.769   0.021  0.1433  0.3576  0.3015
10560SOL    HW136668   7.991   5.714  -0.057 -0.5167  1.8125 -0.4883
10560SOL    HW236669   8.112   5.807   0.003  0.9525 -1.1187  1.1891
10561SOL     OW36670   6.605   7.354   3.892  0.5288 -0.3138  0.7102
10561SOL    HW136671   6.508   7.376   3.881  0.5490 -0.2974  0.5581
10561SOL    HW236672   6.637   7.305   3.811  0.9373  0.7131  0.2396
10562SOL     OW36673   7.437   1.407   3.547 -0.2866 -0.2311  0.5233
10562SOL    HW136674   7.360   1.449   3.596 -0.0325 -0.7061  1.3260
10562SOL    HW236675   7.487   1.346   3.609  1.2569  0.7360  0.2591
10563SOL     OW36676   9.810   5.180   4.583  0.1917 -0.3458  0.3501
10563SOL    HW136677   9.719   5.140   4.588 -0.0865  0.2994  0.5173
10563SOL    HW236678   9.878   5.107   4.574 -0.1268 -0.9749  2.8683
10564SOL     OW36679   2.255   3.890   2.439 -0.6031  0.4008 -0.1013
10564SOL    HW136680   2.207   3.972   2.409  0.6273  1.8741  1.8559
10564SOL    HW236681   2.228   3.868   2.533  1.3954  0.3825  0.4892
10565SOL     OW36682   9.032   1.374   3.222  0.2294 -0.1595  0.6625
10565SOL    HW136683   9.018   1.466   3.261 -1.0885  0.1820 -0.5678
10565SOL    HW236684   9.106   1.377   3.155  0.7023 -0.1683  1.1807
10567SOL     OW36685   1.758   2.138   2.139 -0.2209  0.2494  0.5116
10567SOL    HW136686   1.720   2.081   2.211 -0.7834 -1.4295 -1.0784
10567SOL    HW236687   1.737   2.097   2.050  1.0099  1.9438 -0.5743
10568SOL     OW36688   3.525   4.502   4.045 -0.1694 -0.3575 -0.3089
10568SOL    HW136689   3.458   4.438   4.006  0.4219 -0.2149 -1.5630
10568SOL    HW236690   3.613   4.490   4.000 -0.6074  2.8886 -2.1527
10569SOL     OW36691   0.565   6.054   1.639  0.0430  0.0368  0.5620
10569SOL    HW136692   0.636   5.987   1.661 -0.1448 -0.3407  0.0311
10569SOL    HW236693   0.533   6.040   1.545 -0.3062  0.5925  0.5911
10570SOL     OW36694   9.513   0.340   3.921 -0.6698 -0.2396 -0.4330
10570SOL    HW136695   9.453   0.263   3.940 -0.4518  0.0161  1.3287
10570SOL    HW236696   9.551   0.375   4.006 -0.5641  1.6542 -1.2346
10571SOL     OW36697   1.665   5.058   3.135  0.1850 -0.2908  0.3585
10571SOL    HW136698   1.751   5.056   3.186 -0.4205  0.0598  1.4090
10571SOL    HW236699   1.679   5.106   3.049  0.4801  1.9238  1.6057
10573SOL     OW36700   3.303   6.942   3.579  0.4865 -0.7175 -0.1075
10573SOL    HW136701   3.333   7.034   3.603  0.1368 -0.7786  0.5750
10573SOL    HW236702   3.328   6.878   3.652  1.2998 -1.2743 -0.8739
10574SOL     OW36703   3.727   3.978   2.394  0.6260 -0.9423 -0.3650
10574SOL    HW136704   3.748   4.076   2.395 -0.7926 -0.6363  0.1904
10574SOL    HW236705   3.809   3.927   2.420  1.5067  0.0626 -1.1036
10575SOL     OW36706   6.741   1.552   3.087  0.1007  0.3023  0.3418
10575SOL    HW136707   6.775   1.457   3.084 -0.5707  0.0490  0.6998
10575SOL    HW236708   6.659   1.556   3.144 -1.1782  0.7090 -1.4990
10576SOL     OW36709   7.153   8.290   2.726 -0.0888 -0.5269 -0.1006
10576SOL    HW136710   7.224   8.255   2.788 -0.7531  0.8462  1.4456
10576SOL    HW236711   7.188   8.288   2.632  0.4642 -3.8420  0.0874
10577SOL     OW36712   3.477   0.335   3.739  0.2718  0.0126  0.1605
10577SOL    HW136713   3.398   0.325   3.679  0.0693 -0.1054  0.4439
10577SOL    HW236714   3.476   0.426   3.781  0.0663 -0.1374  0.4773
10578SOL     OW36715   0.296   2.232   3.605 -0.2303  0.2292 -0.1399
10578SOL    HW136716   0.248   2.160   3.654  2.2990 -1.2889  0.1888
10578SOL    HW236717   0.332   2.299   3.670  1.2385 -0.6193 -0.0476
10579SOL     OW36718   9.696   9.467   4.923  0.1238 -0.3745 -0.3264
10579SOL    HW136719   9.618   9.485   4.864  0.2975  0.3023 -0.3545
10579SOL    HW236720   9.670   9.479   5.019  0.0177 -0.8354 -0.2939
10583SOL     OW36721   3.842   5.987   2.612 -0.9235  0.1344  0.1460
10583SOL    HW136722   3.895   6.071   2.609 -0.5779 -0.0740  0.3936
10583SOL    HW236723   3.872   5.931   2.689 -2.4858  0.6735  1.1747
10584SOL     OW36724   5.260   8.315   4.589  0.1355  0.7627  0.4385
10584SOL    HW136725   5.285   8.270   4.503  0.6735  3.5930 -0.9329
10584SOL    HW236726   5.171   8.360   4.579  0.3093  1.3073  1.2924
10585SOL     OW36727   8.557   7.907   1.034 -0.2130  0.1604 -0.1114
10585SOL    HW136728   8.648   7.929   0.999 -0.8320  0.7498 -1.3874
10585SOL    HW236729   8.497   7.986   1.022 -1.1637 -0.5699 -0.2115
10586SOL     OW36730   4.634   7.819   6.434 -0.1509 -0.0031  0.6202
10586SOL    HW136731   4.644   7.731   6.480 -0.6827  1.1211  2.9362
10586SOL    HW236732   4.665   7.893   6.495 -1.9380  1.6161 -0.3669
10587SOL     OW36733   3.633   6.609   0.400 -0.2478  0.0193  0.1330
10587SOL    HW136734   3.561   6.657   0.351  0.0128  0.6559  0.3776
10587SOL    HW236735   3.649   6.652   0.489  1.1756  0.5461 -0.3548
10588SOL     OW36736   0.131   3.866   4.964 -0.2727 -0.1511  0.1700
10588SOL    HW136737   0.069   3.835   4.891 -0.9689  0.7471  0.3695
10588SOL    HW236738   0.176   3.787   5.005 -0.1023 -0.6876 -1.0362
10589SOL     OW36739   2.831   5.472   2.768 -0.3223  0.3863  0.1371
10589SOL    HW136740   2.775   5.528   2.829 -0.8133  1.1402 -0.9811
10589SOL    HW236741   2.836   5.516   2.678  0.8273 -0.4381 -0.2125
10590SOL     OW36742   2.272   5.097   4.521 -0.0708  1.1628  0.3210
10590SOL    HW136743   2.179   5.096   4.560  0.9439 -1.0031  2.8772
10590SOL    HW236744   2.312   5.188   4.532 -1.6007  1.8950 -0.0600
10591SOL     OW36745   8.816   8.264   4.769  0.3351 -0.2922  0.2646
10591SOL    HW136746   8.720   8.275   4.793  0.2439 -1.0576  0.2715
10591SOL    HW236747   8.854   8.186   4.819  0.3487 -1.4251 -1.4589
10593SOL     OW36748   4.799   7.241   2.886  0.2044  0.0151 -0.5187
10593SOL    HW136749   4.733   7.287   2.946 -0.0374 -0.1258 -0.6782
10593SOL    HW236750   4.767   7.246   2.792  0.7098  0.4534 -0.6698
10594SOL     OW36751   2.489   4.689   5.517  0.3615 -0.2252 -0.3591
10594SOL    HW136752   2.519   4.774   5.562  1.0816 -0.4262 -0.4499
10594SOL    HW236753   2.569   4.632   5.498  0.0051 -0.3866 -1.3902
10595SOL     OW36754   4.249   4.328   1.167  0.1303  0.6731  0.7313
10595SOL    HW136755   4.316   4.331   1.242  3.2476 -1.8798 -1.7816
10595SOL    HW236756   4.213   4.235   1.158 -0.9695  1.1876 -0.3316
10596SOL     OW36757   4.254   4.258   2.003 -0.9513 -0.4667 -0.0052
10596SOL    HW136758   4.171   4.308   2.027 -0.7601 -0.2926  0.2859
10596SOL    HW236759   4.243   4.217   1.912 -1.3649 -0.4649  0.0428
10600SOL     OW36760   2.662   0.528   0.861  0.0328 -0.2260 -0.0663
10600SOL    HW136761   2.681   0.613   0.910 -0.2377  0.5101 -1.2385
10600SOL    HW236762   2.711   0.528   0.774  0.3430 -1.4452  0.0975
10601SOL     OW36763   9.785   9.469   0.048  0.2471  0.2914  0.6785
10601SOL    HW136764   9.879   9.436   0.060  0.0505 -0.2625  0.7063
10601SOL    HW236765   9.768   9.546   0.110  2.4493  4.1007 -3.1746
10604SOL     OW36766   2.621   6.245   3.068  0.1124  0.0719  0.1720
10604SOL    HW136767   2.669   6.180   3.126  2.9766 -0.1592 -2.3045
10604SOL    HW236768   2.676   6.328   3.059 -1.9156  1.4990  0.5695
10605SOL     OW36769   1.179   7.335   2.173 -0.0506 -0.2917  0.0852
10605SOL    HW136770   1.273   7.301   2.168  0.8127  1.6893  1.8821
10605SOL    HW236771   1.171   7.418   2.118 -0.5784 -0.0861  0.4689
10606SOL     OW36772   3.902   8.803   1.310  0.2573  0.0764 -0.4794
10606SOL    HW136773   3.833   8.839   1.374 -0.1348 -1.2870 -0.1170
10606SOL    HW236774   3.876   8.827   1.216 -1.4359 -1.5881 -0.4513
10607SOL     OW36775   5.371   8.052   2.589 -0.3751 -0.9429  0.0604
10607SOL    HW136776   5.287   8.088   2.547 -0.1251 -0.1718  0.2133
10607SOL    HW236777   5.376   7.953   2.574  0.0377 -0.5975 -2.3316
10609SOL     OW36778   9.106   4.206   2.004  0.4989 -0.5661 -0.0229
10609SOL    HW136779   9.095   4.176   1.910  0.4014  1.3774 -0.6570
10609SOL    HW236780   9.060   4.142   2.066  0.8470 -2.0197 -1.2572
10610SOL     OW36781   9.884   3.128   3.917 -0.5787 -0.1615 -0.2802
10610SOL    HW136782   9.891   3.066   3.839  1.0914 -0.9988  0.4989
10610SOL    HW236783   9.975   3.142   3.956 -0.9919  2.4268 -0.1647
10611SOL     OW36784   9.232   0.493   4.118 -0.1122 -1.1715 -0.3665
10611SOL    HW136785   9.135   0.469   4.121 -0.0925 -1.3872 -1.2117
10611SOL    HW236786   9.287   0.411   4.131 -0.0365 -0.9829  0.5446
10612SOL     OW36787   8.807   2.644   1.928 -0.3632 -0.2762  0.4876
10612SOL    HW136788   8.840   2.720   1.871 -1.4772 -0.1658 -0.0485
10612SOL    HW236789   8.862   2.563   1.910  0.8022  0.3834  1.0163
10613SOL     OW36790   0.884   1.558   1.000 -0.5590  0.3161  0.3380
10613SOL    HW136791   0.910   1.606   1.084  1.0340  0.3171 -0.1530
10613SOL    HW236792   0.853   1.465   1.023  0.6106  0.0481  0.8544
10614SOL     OW36793   4.319   7.082   0.920  0.2990 -0.2553  0.3007
10614SOL    HW136794   4.338   7.008   0.857 -1.0572 -0.3145 -0.0460
10614SOL    HW236795   4.352   7.058   1.012  1.0189 -0.7369 -0.0864
10615SOL     OW36796   0.558   7.969   2.509 -0.5579 -0.3468 -0.3488
10615SOL    HW136797   0.552   7.887   2.452 -1.4636 -0.3672 -0.2319
10615SOL    HW236798   0.584   8.047   2.453  0.4723 -0.7379 -0.4326
10617SOL     OW36799   3.570   3.744   2.379  0.7568 -0.1638  0.1334
10617SOL    HW136800   3.472   3.744   2.359  0.2921 -0.6470  2.3022
10617SOL    HW236801   3.600   3.837   2.399  0.7849  0.0088 -0.6979
10619SOL     OW36802   5.602   2.109   4.374 -0.5067 -0.0852 -0.0123
10619SOL    HW136803   5.517   2.106   4.426 -0.7112 -1.7746 -0.4308
10619SOL    HW236804   5.627   2.017   4.345  0.0687  0.7323 -2.1597
10620SOL     OW36805   1.194   4.950   1.328 -0.5678 -0.0657  0.0603
10620SOL    HW136806   1.119   5.015   1.321 -0.5537 -0.0020  0.4509
10620SOL    HW236807   1.218   4.916   1.238  0.8264  2.0537 -0.4029
10621SOL     OW36808   4.505   1.979   4.781 -0.3310  0.1463  0.1906
10621SOL    HW136809   4.482   2.026   4.866  1.7853  0.2924  0.7302
10621SOL    HW236810   4.550   2.044   4.719 -1.9149  0.0603 -1.0929
10622SOL     OW36811   4.667   8.349   2.943 -0.2843  0.1409 -0.3190
10622SOL    HW136812   4.608   8.413   2.894 -0.6731  0.5720  0.7067
10622SOL    HW236813   4.675   8.377   3.039  1.1437 -0.2238 -0.3238
10623SOL     OW36814   1.849   2.962   1.534  0.3120 -0.3867  0.4084
10623SOL    HW136815   1.758   2.921   1.542  0.7563 -0.9037  3.2534
10623SOL    HW236816   1.914   2.893   1.501  0.1652 -0.7159  0.8071
10624SOL     OW36817   3.637   5.207   5.574  0.2517  0.2826 -0.2667
10624SOL    HW136818   3.677   5.298   5.563  0.7769  0.1595  0.5620
10624SOL    HW236819   3.538   5.213   5.565  0.3264  0.8458 -0.7558
10625SOL     OW36820   3.890   7.810   4.921 -0.2858  0.2768  0.3290
10625SOL    HW136821   3.986   7.836   4.923  0.1477 -1.3356  1.1180
10625SOL    HW236822   3.873   7.755   4.839 -0.4819  0.3073  0.3489
10626SOL     OW36823   4.470   1.566   3.298  0.0947 -0.1682  0.1286
10626SOL    HW136824   4.508   1.658   3.311 -0.4880  0.0177  0.5555
10626SOL    HW236825   4.447   1.527   3.387  1.5275 -1.2488  0.0341
10629SOL     OW36826   0.595   5.209   5.019 -0.1527  0.3911  0.1026
10629SOL    HW136827   0.662   5.141   5.047 -1.9454 -1.7310 -0.6504
10629SOL    HW236828   0.629   5.258   4.938  0.4146 -0.7702 -0.3671
10630SOL     OW36829   3.074   7.935   1.751  0.0164 -0.2429  0.1169
10630SOL    HW136830   3.145   7.964   1.815 -0.8520  0.7136  0.6682
10630SOL    HW236831   3.078   7.836   1.739  0.5849 -0.3586  1.1871
10632SOL     OW36832   3.544   2.126   3.250  0.6630 -0.3999  0.3821
10632SOL    HW136833   3.541   2.037   3.205 -2.2623  1.1949 -2.8495
10632SOL    HW236834   3.590   2.192   3.190  2.6380  0.3664  2.6630
10634SOL     OW36835   2.578   5.350   5.758 -0.0680 -0.3257 -0.5800
10634SOL    HW136836   2.489   5.368   5.799  0.7949  0.8969  0.8045
10634SOL    HW236837   2.594   5.412   5.681  1.5843  2.8883  2.2167
10636SOL     OW36838   1.411   0.386   0.328  0.0966  0.5605  0.3482
10636SOL    HW136839   1.461   0.301   0.341  2.0452  1.0009 -3.6094
10636SOL    HW236840   1.319   0.366   0.295  0.7192  0.0044 -1.0532
10637SOL     OW36841   6.080   9.854   3.296  0.4010 -0.3180  0.8125
10637SOL    HW136842   6.037   9.829   3.210  0.5522 -0.3419  0.7445
10637SOL    HW236843   6.028   9.814   3.372 -0.5918  0.9290  0.8104
10638SOL     OW36844   8.323   0.705   1.678 -0.4619 -0.2525 -0.1073
10638SOL    HW136845   8.390   0.712   1.752  2.3450  1.6915 -2.7305
10638SOL    HW236846   8.254   0.777   1.689  1.4151  1.6879 -0.7710
10639SOL     OW36847   8.675   4.626   6.442  0.0213  0.0137  0.3567
10639SOL    HW136848   8.739   4.676   6.384  0.5463  0.5869  1.4223
10639SOL    HW236849   8.723   4.586   6.520 -0.8186 -0.0191  0.8710
10641SOL     OW36850   0.520   4.284   1.128 -0.6257  0.1947 -0.1055
10641SOL    HW136851   0.532   4.351   1.202  0.9963  0.3052 -0.4482
10641SOL    HW236852   0.602   4.228   1.121 -1.5337 -1.0947 -0.5736
10642SOL     OW36853   9.227   7.536   4.037  0.1078 -0.7983  0.8614
10642SOL    HW136854   9.209   7.499   4.128 -0.7256 -0.4141  0.8571
10642SOL    HW236855   9.217   7.635   4.039  0.0225 -0.7968  0.3358
10643SOL     OW36856   5.806   4.964   1.447 -0.0306 -0.1116  0.0199
10643SOL    HW136857   5.847   4.993   1.534  0.3172  0.7858 -0.4283
10643SOL    HW236858   5.723   5.018   1.430  0.2693  0.1856 -0.5175
10644SOL     OW36859   9.779   1.376   0.722  0.2392 -0.3779 -0.4215
10644SOL    HW136860   9.787   1.427   0.636 -0.1212 -2.7559 -1.9101
10644SOL    HW236861   9.705   1.308   0.714 -1.8087  1.3120  2.7978
10645SOL     OW36862   3.017   1.124   5.055  0.5433  0.2249  0.3424
10645SOL    HW136863   2.949   1.129   5.128  0.8414 -1.0728  0.7143
10645SOL    HW236864   3.091   1.061   5.081  2.0259  1.7990  0.0556
10646SOL     OW36865   2.872   5.360   1.880 -0.2206  0.5051  0.3613
10646SOL    HW136866   2.896   5.316   1.966 -1.0172  1.1882  0.9399
10646SOL    HW236867   2.928   5.322   1.806  0.4533 -0.0931  1.1739
10647SOL     OW36868   1.949   8.045   2.024  0.6243 -0.1197 -0.1041
10647SOL    HW136869   1.902   7.958   2.013 -0.7937  0.8067 -1.4592
10647SOL    HW236870   2.034   8.030   2.075 -0.2439 -2.0749  0.8461
10648SOL     OW36871   8.272   7.935   3.396  0.1167 -0.2325 -0.1430
10648SOL    HW136872   8.262   7.936   3.297 -1.0739  0.6404 -0.0249
10648SOL    HW236873   8.186   7.906   3.438  0.7485 -1.0151  0.6157
10649SOL     OW36874   4.188   1.045   3.172 -0.7248 -0.4700  0.0254
10649SOL    HW136875   4.284   1.056   3.197 -1.5719 -0.7531  3.6917
10649SOL    HW236876   4.152   1.132   3.137  0.8050 -0.3376 -1.2626
10650SOL     OW36877   4.371   2.279   3.447 -0.2105  0.2673  1.1848
10650SOL    HW136878   4.314   2.260   3.527  0.6988  0.0443  1.7927
10650SOL    HW236879   4.462   2.240   3.461 -1.0739 -2.9651 -1.5071
10651SOL     OW36880   4.308   0.641   5.522  0.0271 -0.0185  0.3624
10651SOL    HW136881   4.263   0.566   5.570  1.0493 -1.3573 -0.7091
10651SOL    HW236882   4.275   0.645   5.428 -0.4566  1.2692  0.5783
10652SOL     OW36883   9.678   5.311   6.157 -0.0599  0.1472 -0.1252
10652SOL    HW136884   9.644   5.403   6.138  0.7855  0.7414  1.1941
10652SOL    HW236885   9.777   5.308   6.147  0.0803 -0.2517  1.2348
10653SOL     OW36886   4.532   4.553   6.050  0.8546  0.3037  0.1371
10653SOL    HW136887   4.603   4.524   5.986  0.8738  2.0268 -0.6548
10653SOL    HW236888   4.504   4.646   6.028 -1.0338 -0.0483  0.9950
10654SOL     OW36889   0.115   4.163   0.518 -0.0416 -0.1863  0.1618
10654SOL    HW136890   0.215   4.157   0.510  0.1118  1.2934  0.9109
10654SOL    HW236891   0.088   4.150   0.613 -0.5726 -0.6228 -0.0457
10655SOL     OW36892   2.332   3.478   2.181 -0.1812  0.1885  0.5229
10655SOL    HW136893   2.405   3.542   2.159 -1.0787  0.5556 -1.4330
10655SOL    HW236894   2.279   3.513   2.258 -0.6549  1.7844 -0.5195
10656SOL     OW36895   6.302   5.637   0.248 -0.0728 -0.2578  0.0004
10656SOL    HW136896   6.226   5.689   0.209  0.2072 -0.3734 -0.7250
10656SOL    HW236897   6.321   5.668   0.340 -0.1608  0.6547 -0.2872
10658SOL     OW36898   7.310   8.323   3.605 -0.0374 -0.5926 -0.3904
10658SOL    HW136899   7.356   8.334   3.517 -1.6774  1.4397 -1.0389
10658SOL    HW236900   7.211   8.323   3.591 -0.3045 -2.2894  1.2597
10660SOL     OW36901   8.114   6.692   2.482  0.3160  0.3830  0.7449
10660SOL    HW136902   8.114   6.705   2.383  0.0405  1.5452  0.8934
10660SOL    HW236903   8.139   6.597   2.503  1.8049  0.5072 -0.3858
10661SOL     OW36904   3.585   5.094   1.355  0.0319 -0.3365  0.0744
10661SOL    HW136905   3.572   5.060   1.448  0.7198  0.6608  0.5416
10661SOL    HW236906   3.666   5.051   1.315  0.1255 -0.2627  0.1831
10662SOL     OW36907   7.169   7.966   2.411  0.0685  0.2726 -0.5774
10662SOL    HW136908   7.205   7.893   2.352  1.1182  0.3941 -0.0854
10662SOL    HW236909   7.106   7.926   2.478 -0.3589 -0.0038 -1.1403
10663SOL     OW36910   4.732   7.743   3.655  0.2842  0.8169 -0.0992
10663SOL    HW136911   4.660   7.783   3.599  0.9405  1.5385 -0.4312
10663SOL    HW236912   4.704   7.744   3.751 -0.8658 -0.4735 -0.4063
10664SOL     OW36913   3.631   4.856   4.500 -0.0702 -0.0718  0.4458
10664SOL    HW136914   3.658   4.775   4.448 -0.9534  0.9453 -1.6477
10664SOL    HW236915   3.534   4.874   4.485 -0.5215 -0.1470  3.0366
10665SOL     OW36916   0.764   9.529   0.402  0.3643 -0.0050  0.1908
10665SOL    HW136917   0.723   9.486   0.483  0.6074 -3.8385 -1.5843
10665SOL    HW236918   0.695   9.539   0.331  0.8995  0.1954 -0.3062
10667SOL     OW36919   3.493   5.760   1.001 -0.3344 -0.2155 -0.1633
10667SOL    HW136920   3.421   5.710   0.953 -0.3485 -0.7418  0.4001
10667SOL    HW236921   3.455   5.844   1.040 -0.4506 -0.0691 -0.6005
10669SOL     OW36922   7.202   2.911   2.485  0.1674  0.2205 -0.0814
10669SOL    HW136923   7.251   2.842   2.433 -0.0962 -1.3964  1.7531
10669SOL    HW236924   7.240   3.002   2.465  0.3056 -0.4061 -2.7449
10670SOL     OW36925   9.217   5.531   4.123 -0.2991  0.3596 -0.2463
10670SOL    HW136926   9.277   5.465   4.077  0.8510  0.0251  1.6850
10670SOL    HW236927   9.152   5.482   4.181  0.0511  0.8890  0.5959
10671SOL     OW36928   9.899   0.169   1.540  0.2624  0.0437  0.0495
10671SOL    HW136929   9.891   0.131   1.448  1.5523 -0.5664  0.1762
10671SOL    HW236930   9.956   0.109   1.596  0.3065  0.9198  0.9679
10673SOL     OW36931   1.783   2.932   2.827 -0.1601 -0.6175  0.7421
10673SOL    HW136932   1.800   2.873   2.906 -0.7008  0.6937  1.8648
10673SOL    HW236933   1.705   2.991   2.846  0.5497  0.6732 -0.2496
10674SOL     OW36934   0.051   5.149   4.259 -0.1080  0.2783 -0.9104
10674SOL    HW136935   0.111   5.229   4.259 -0.5791  0.6329 -0.7444
10674SOL    HW236936   0.016   5.134   4.352 -0.0182 -0.1221 -0.9406
10675SOL     OW36937   7.633   3.180   6.376  0.2989 -0.6808 -0.2464
10675SOL    HW136938   7.645   3.101   6.436  0.6319  0.2589  0.9426
10675SOL    HW236939   7.538   3.209   6.377  0.2716 -0.7671 -0.3063
10677SOL     OW36940   1.363   3.000   5.361  0.0618 -0.0360  0.1006
10677SOL    HW136941   1.396   2.924   5.416 -0.7778  1.4694  2.7801
10677SOL    HW236942   1.270   2.981   5.329 -0.0837 -0.2087  0.6301
10678SOL     OW36943   0.564   9.478   3.136 -0.3276 -0.0858 -0.2387
10678SOL    HW136944   0.562   9.409   3.063  0.7998  0.3857 -0.7288
10678SOL    HW236945   0.621   9.556   3.107  1.3794 -0.5563  1.7247
10679SOL     OW36946   9.629   5.966   5.972 -0.7352  0.0929  0.5059
10679SOL    HW136947   9.697   6.034   5.943 -1.1497 -0.2330 -1.2434
10679SOL    HW236948   9.557   6.011   6.025 -1.2487  1.1138 -1.0307
10681SOL     OW36949   7.227   5.432   1.443  0.2792 -0.3749  0.0865
10681SOL    HW136950   7.204   5.499   1.372 -1.5663 -1.7396 -0.6294
10681SOL    HW236951   7.302   5.374   1.411  0.0444 -0.4196 -0.3868
10682SOL     OW36952   3.214   0.806   4.615 -0.4056  0.1035  0.1552
10682SOL    HW136953   3.183   0.866   4.541  0.9309  0.4779 -0.1093
10682SOL    HW236954   3.212   0.711   4.584 -0.4567  0.2038 -0.1505
10683SOL     OW36955   6.137   8.921   4.913 -0.0322 -0.2209  0.1910
10683SOL    HW136956   6.080   8.872   4.846  0.0001 -0.6983  0.5093
10683SOL    HW236957   6.151   8.863   4.993 -0.0049  0.3235  0.5807
10684SOL     OW36958   2.865   7.012   1.919  0.3648  0.0288 -0.1812
10684SOL    HW136959   2.786   7.047   1.971 -0.4182 -0.5905 -0.9461
10684SOL    HW236960   2.881   7.071   1.840  1.5502  0.9624  0.7242
10685SOL     OW36961   8.295   7.645   0.777 -0.2867 -0.2313 -1.2399
10685SOL    HW136962   8.298   7.744   0.770 -1.2845 -0.2710 -2.3673
10685SOL    HW236963   8.216   7.610   0.727  0.6442 -1.6713 -1.7327
10687SOL     OW36964   9.583   9.433   4.326  0.9402  0.1746  0.1803
10687SOL    HW136965   9.634   9.511   4.290  0.7718 -0.1712 -0.8375
10687SOL    HW236966   9.485   9.453   4.325  0.9677  0.3625  0.9530
10688SOL     OW36967   6.226   8.840   6.257  0.5571  0.0647  0.3572
10688SOL    HW136968   6.317   8.818   6.221  0.6617 -0.9106  1.2103
10688SOL    HW236969   6.187   8.916   6.204  1.3628 -0.3059 -0.7850
10689SOL     OW36970   9.530   4.298   5.902 -0.2685  0.2549 -0.1055
10689SOL    HW136971   9.476   4.230   5.950  0.1076  0.9857  1.3779
10689SOL    HW236972   9.479   4.331   5.822 -0.6589 -1.3671 -0.5356
10690SOL     OW36973   8.493   6.578   3.171 -0.6300  0.3730 -0.5077
10690SOL    HW136974   8.507   6.582   3.072  1.4924  2.8502 -0.1942
10690SOL    HW236975   8.574   6.537   3.214 -1.3873 -0.3581  0.2415
10691SOL     OW36976   3.390   6.694   0.242  0.1808  0.0904 -0.3792
10691SOL    HW136977   3.309   6.689   0.300 -0.1828  3.6774 -0.4401
10691SOL    HW236978   3.364   6.727   0.151  1.5908  0.3780 -0.6911
10692SOL     OW36979   2.022   0.705   2.871 -0.3374  0.0644 -0.1254
10692SOL    HW136980   1.979   0.708   2.781 -0.4147  0.1981 -0.0835
10692SOL    HW236981   1.968   0.648   2.932 -1.5300  1.8173  0.5007
10693SOL     OW36982   2.494   8.884   6.446  0.0596  0.2117  0.4954
10693SOL    HW136983   2.430   8.810   6.469  1.2216 -0.3937  1.9256
10693SOL    HW236984   2.448   8.952   6.391 -1.6100 -0.6010  0.8514
10694SOL     OW36985   2.924   5.588   0.921 -0.0604  0.1550 -0.1157
10694SOL    HW136986   2.941   5.530   1.001 -2.0354 -0.8477 -0.3798
10694SOL    HW236987   2.957   5.542   0.839 -0.2500  0.0914 -0.1559
10695SOL     OW36988   8.647   7.894   3.368 -0.5609 -0.0935 -0.2776
10695SOL    HW136989   8.734   7.845   3.375  0.2836  1.3072 -0.7934
10695SOL    HW236990   8.584   7.861   3.439  0.8170 -0.2639  0.8739
10696SOL     OW36991   4.783   3.692   4.848 -0.1344  0.0493 -0.3494
10696SOL    HW136992   4.818   3.644   4.767 -1.4904 -0.5017 -0.6275
10696SOL    HW236993   4.756   3.625   4.917 -2.0033  0.3759 -0.7227
10697SOL     OW36994   7.383   1.585   1.901 -0.3079  0.1352  0.2495
10697SOL    HW136995   7.397   1.496   1.859 -1.9116  0.0520 -0.1589
10697SOL    HW236996   7.365   1.653   1.830  1.0193  0.8222  0.5496
10699SOL     OW36997   6.948   9.058   3.204 -0.3671  0.4490 -0.0230
10699SOL    HW136998   6.895   9.010   3.275 -3.0127  1.2594 -1.3996
10699SOL    HW236999   6.907   9.041   3.115  0.5503  2.7039 -0.9068
10700SOL     OW37000   1.635   9.603   4.387 -0.1169 -0.2782  0.4574
10700SOL    HW137001   1.714   9.616   4.448 -0.2190  1.7851  0.1944
10700SOL    HW237002   1.666   9.609   4.292 -0.0457 -2.9659  0.2727
10701SOL     OW37003   0.016   0.847   0.527 -0.1628 -0.9261 -0.5425
10701SOL    HW137004  -0.010   0.773   0.589 -0.5332 -0.3480  0.0050
10701SOL    HW237005   0.024   0.932   0.579 -0.6869 -0.3893 -1.3279
10702SOL     OW37006   3.608   7.536   3.406 -0.6625 -0.4982  0.4465
10702SOL    HW137007   3.621   7.602   3.480 -0.3631 -0.8971  0.7481
10702SOL    HW237008   3.642   7.575   3.321  1.6414 -1.1363  1.0330
10703SOL     OW37009   0.994   8.477   5.946 -0.0732 -0.5192 -0.5486
10703SOL    HW137010   0.979   8.457   5.849 -1.0618  0.4568 -0.6041
10703SOL    HW237011   1.077   8.430   5.977 -1.7244 -3.8052 -0.9438
10704SOL     OW37012   9.404   4.145   6.111  0.0343 -0.6361  0.1167
10704SOL    HW137013   9.344   4.223   6.130 -0.0154 -0.9172  1.1577
10704SOL    HW237014   9.352   4.072   6.068 -0.0468 -0.3274 -0.3152
10705SOL     OW37015   1.359   1.458   1.326  0.4150 -0.1893 -0.5049
10705SOL    HW137016   1.328   1.507   1.244 -0.3880 -0.0571 -0.1310
10705SOL    HW237017   1.369   1.524   1.402  1.6297 -0.2324 -0.6276
10706SOL     OW37018   9.780   8.878   1.324  0.2652  0.2710  0.0339
10706SOL    HW137019   9.836   8.835   1.253 -1.0920 -0.3186 -0.7066
10706SOL    HW237020   9.684   8.876   1.296 -0.1236  1.3425  1.2411
10707SOL     OW37021   6.070   7.870   6.313 -0.2413 -0.1559  0.1332
10707SOL    HW137022   6.165   7.862   6.284  0.3331  0.8488  1.7014
10707SOL    HW237023   6.061   7.945   6.379 -1.8561 -1.2449  1.1803
10708SOL     OW37024   7.624   0.356   1.036  0.2877 -0.0453  0.5399
10708SOL    HW137025   7.631   0.455   1.040  1.4497 -0.1297  0.7544
10708SOL    HW237026   7.644   0.317   1.126 -1.2820 -0.4148  0.7372
10709SOL     OW37027   8.407   3.574   3.731 -0.2397  0.0620 -0.3965
10709SOL    HW137028   8.382   3.562   3.827  0.1101 -1.4665 -0.4769
10709SOL    HW237029   8.355   3.650   3.692  0.0162  1.0443  1.1407
10710SOL     OW37030   4.468   9.219   5.361  0.1728 -0.6791  0.3349
10710SOL    HW137031   4.477   9.317   5.343 -0.2620 -0.7772 -0.4081
10710SOL    HW237032   4.386   9.202   5.415  0.5520 -0.5776  0.9514
10711SOL     OW37033   9.692   3.830   1.267  0.0823 -0.2876 -0.9523
10711SOL    HW137034   9.603   3.786   1.274 -0.1255  0.1429 -0.8857
10711SOL    HW237035   9.753   3.795   1.338 -0.5457  0.6174  0.0352
10712SOL     OW37036   4.151   9.810   0.682 -0.3638 -0.3785 -0.2601
10712SOL    HW137037   4.100   9.733   0.646 -0.8357 -1.5101  2.7078
10712SOL    HW237038   4.088   9.876   0.722  0.3255 -0.6815  1.3523
10714SOL     OW37039   4.101   0.023   3.627  0.3354 -0.4946 -0.1651
10714SOL    HW137040   4.039  -0.043   3.586  0.3427 -0.1716 -0.7026
10714SOL    HW237041   4.073   0.116   3.603  1.5694 -0.3724 -1.2325
10715SOL     OW37042   8.377   1.758   5.632 -0.1362 -0.4750  0.1072
10715SOL    HW137043   8.469   1.750   5.669 -0.6809 -1.6458  1.2463
10715SOL    HW237044   8.361   1.687   5.564  0.2715  0.6026 -1.1250
10716SOL     OW37045   4.949   9.173   3.394  0.1401 -0.3054 -0.5025
10716SOL    HW137046   4.902   9.255   3.362  0.9332  1.0391  1.7149
10716SOL    HW237047   5.046   9.178   3.371  0.1770 -0.6614 -0.4393
10717SOL     OW37048   5.439   9.981   3.044  0.3663  0.3483  0.0280
10717SOL    HW137049   5.526   9.931   3.039 -0.4710 -1.3618  1.8753
10717SOL    HW237050   5.427  10.015   3.137 -2.3922 -2.1453  0.6644
10718SOL     OW37051   3.192   8.271   5.359  0.1595 -0.5145 -0.1341
10718SOL    HW137052   3.276   8.293   5.311  0.4721  2.0948  1.4729
10718SOL    HW237053   3.212   8.253   5.455 -1.2778  2.0129  0.6878
10719SOL     OW37054   0.250   8.962   4.824 -0.0990  0.1138 -0.4542
10719SOL    HW137055   0.220   8.951   4.729  1.9403  2.3411 -1.3983
10719SOL    HW237056   0.173   8.997   4.879 -0.9362  0.0234 -1.5446
10721SOL     OW37057   3.637   0.494   4.417 -0.5162 -0.5019 -0.3442
10721SOL    HW137058   3.725   0.450   4.435 -0.5395 -0.3472  0.1620
10721SOL    HW237059   3.626   0.572   4.479 -0.0460  0.8154 -1.8755
10722SOL     OW37060   6.841   2.817   4.407 -0.5540  0.3657 -0.4883
10722SOL    HW137061   6.765   2.816   4.473 -1.3259 -1.1973 -1.3663
10722SOL    HW237062   6.806   2.789   4.317  1.6728 -3.7732 -0.1932
10723SOL     OW37063   2.060   4.799   3.554 -0.5345  0.0965 -0.1574
10723SOL    HW137064   2.005   4.872   3.512 -0.4436 -0.1622 -0.7340
10723SOL    HW237065   2.000   4.726   3.586 -0.4371 -1.0350 -2.4252
10725SOL     OW37066   7.367   4.124   2.425 -0.0408  0.5059 -0.1382
10725SOL    HW137067   7.347   4.221   2.417  1.0139  0.7736  0.3303
10725SOL    HW237068   7.335   4.076   2.343  0.1175  1.3690 -0.7146
10726SOL     OW37069   2.224   7.770   3.206 -0.3688  0.4439  0.2270
10726SOL    HW137070   2.324   7.766   3.207 -0.4465 -1.8781  0.4968
10726SOL    HW237071   2.188   7.729   3.290 -1.6284 -1.8912 -1.4105
10730SOL     OW37072   8.888   0.235   2.006  0.5550 -0.3771  0.7011
10730SOL    HW137073   8.873   0.163   2.074  1.4374 -0.1942  1.0928
10730SOL    HW237074   8.856   0.322   2.042 -1.3949 -0.7068 -0.1371
10731SOL     OW37075   7.153   0.546   1.047  0.2899 -0.1036 -0.4080
10731SOL    HW137076   7.087   0.613   1.012  2.3602  1.8715 -0.7074
10731SOL    HW237077   7.228   0.536   0.981  1.5872 -0.3382  1.0639
10732SOL     OW37078   7.879   3.164   1.197  0.2953  0.4123  0.4103
10732SOL    HW137079   7.952   3.232   1.187  1.0999 -0.3592  1.0511
10732SOL    HW237080   7.917   3.080   1.234 -0.8318 -0.1702  0.2394
10733SOL     OW37081   4.300   3.470   5.915 -0.2003  0.0829  0.2787
10733SOL    HW137082   4.371   3.426   5.859 -0.2317  1.0493 -0.5261
10733SOL    HW237083   4.270   3.554   5.871  0.5123  1.4049  2.2655
10735SOL     OW37084   7.836   0.056   3.423 -0.0502 -0.4335 -0.5493
10735SOL    HW137085   7.925   0.081   3.385 -0.8908  2.0440 -1.0122
10735SOL    HW237086   7.827   0.092   3.515 -1.6009  1.8198 -1.5267
10736SOL     OW37087   5.103   6.631   0.929 -1.2948 -0.4594  0.3251
10736SOL    HW137088   5.028   6.626   0.863 -0.3374 -0.2454 -0.7885
10736SOL    HW237089   5.174   6.566   0.904 -1.3794 -1.1190  1.7415
10737SOL     OW37090   9.200   2.593   4.208 -0.7202 -0.0911 -0.0685
10737SOL    HW137091   9.173   2.516   4.266 -1.5246  0.2624  0.0185
10737SOL    HW237092   9.119   2.640   4.173 -0.2537 -0.4133 -1.6477
10738SOL     OW37093   2.405   1.740   1.488 -0.0661  0.4453  0.8412
10738SOL    HW137094   2.410   1.830   1.532 -1.1213 -0.1392  2.2154
10738SOL    HW237095   2.393   1.670   1.559 -1.7524 -0.5364 -0.3788
10739SOL     OW37096   1.807   1.698   1.868 -0.4761 -0.0164 -0.6593
10739SOL    HW137097   1.780   1.692   1.772 -0.6965  1.3305 -0.6841
10739SOL    HW237098   1.786   1.789   1.903  2.8556  0.7174 -0.3309
10740SOL     OW37099   9.425   8.384   5.452 -0.0755  0.1635  0.5405
10740SOL    HW137100   9.456   8.312   5.390  0.6356  1.4543 -0.6190
10740SOL    HW237101   9.362   8.445   5.405 -0.8565  0.1811  1.5862
10741SOL     OW37102   5.026   0.737   1.674 -0.5754  0.6171 -0.0450
10741SOL    HW137103   5.101   0.802   1.686  0.9753 -0.9103 -1.0971
10741SOL    HW237104   5.064   0.645   1.661 -2.6221 -0.1256 -0.9673
10742SOL     OW37105   7.946   4.053   2.369 -0.4105 -0.1282 -0.3082
10742SOL    HW137106   7.937   3.981   2.437  1.2368 -0.7730 -0.7292
10742SOL    HW237107   8.039   4.089   2.371 -1.4478  2.5878  0.4607
10743SOL     OW37108   8.455   5.956   5.361  0.2834  0.1522  0.3413
10743SOL    HW137109   8.384   5.886   5.363  0.4066  0.0474  1.0094
10743SOL    HW237110   8.544   5.913   5.375  0.6694  0.0387 -2.2401
10744SOL     OW37111   9.507   1.979   0.534  0.3379  0.5150 -0.2812
10744SOL    HW137112   9.527   2.063   0.482 -0.3725  0.3666 -0.7954
10744SOL    HW237113   9.490   1.904   0.470  1.8969 -0.2526  0.1741
10745SOL     OW37114   3.585   8.338   1.373 -0.2353 -0.5431  0.0272
10745SOL    HW137115   3.640   8.418   1.398 -0.4344 -0.1862 -0.6531
10745SOL    HW237116   3.605   8.313   1.278 -0.5376 -1.0084  0.0829
10746SOL     OW37117   7.494   4.831   3.285  0.8261  0.5497 -0.2420
10746SOL    HW137118   7.471   4.784   3.200  1.4408 -1.4656  0.6599
10746SOL    HW237119   7.582   4.878   3.275  2.1154 -1.7087 -0.0274
10747SOL     OW37120   0.875   1.542   5.813 -0.0348 -0.0567  0.1827
10747SOL    HW137121   0.859   1.587   5.900 -0.4989  0.4741 -0.1730
10747SOL    HW237122   0.818   1.461   5.806 -1.6747  1.1234 -0.5457
10748SOL     OW37123   8.860   9.719   2.950 -0.2695 -0.4283  0.4474
10748SOL    HW137124   8.930   9.788   2.931 -0.0012 -0.9642 -0.5305
10748SOL    HW237125   8.902   9.643   3.001  0.0354 -1.0677 -0.7273
10749SOL     OW37126   9.976   8.860   5.987 -0.5667  0.4101 -0.1402
10749SOL    HW137127   9.903   8.793   5.973  0.7680 -1.0726 -0.0701
10749SOL    HW237128  10.039   8.827   6.057  0.9989  1.0081 -1.2630
10751SOL     OW37129   7.733   3.513   3.997  0.0640  0.2723 -0.3743
10751SOL    HW137130   7.779   3.538   3.912  2.3178 -1.0173  0.4085
10751SOL    HW237131   7.746   3.585   4.066  0.7375  0.0124 -0.2264
10752SOL     OW37132   9.983   2.701   5.354  1.0075 -0.5111  0.2284
10752SOL    HW137133  10.013   2.756   5.432  2.0709 -0.5761 -0.1198
10752SOL    HW237134   9.888   2.673   5.367  0.9666  0.0375  1.1790
10753SOL     OW37135   1.241   3.414   1.759 -0.1631 -0.8836 -0.2668
10753SOL    HW137136   1.162   3.476   1.763  0.4337 -0.0683 -0.9610
10753SOL    HW237137   1.295   3.424   1.842  0.4105  0.1817 -0.7578
10754SOL     OW37138   7.541   0.406   5.015 -0.5425  0.0180 -0.3740
10754SOL    HW137139   7.486   0.338   5.063 -1.7255  1.1675 -0.0984
10754SOL    HW237140   7.595   0.459   5.081 -0.1821 -0.1469 -0.5326
10755SOL     OW37141   6.927   2.692   1.356 -0.4482  0.5983  0.1971
10755SOL    HW137142   6.870   2.773   1.351 -1.1586  0.2095  1.5648
10755SOL    HW237143   6.876   2.612   1.325  0.2842  0.6813 -1.2497
10756SOL     OW37144   4.572   8.068   1.761  0.1997  0.0956 -0.1527
10756SOL    HW137145   4.537   8.025   1.678  0.5370  2.2482 -1.4709
10756SOL    HW237146   4.671   8.059   1.764  0.0703 -1.0782  0.6706
10757SOL     OW37147   8.199   9.122   2.191 -0.4063  0.7973  0.0211
10757SOL    HW137148   8.185   9.219   2.212 -0.9350  1.0708 -1.5663
10757SOL    HW237149   8.188   9.107   2.093 -2.7812 -1.2744  0.5406
10758SOL     OW37150   4.333   8.589   6.251 -0.2812  0.0474  0.6863
10758SOL    HW137151   4.327   8.535   6.335  0.4892 -0.7679  0.2301
10758SOL    HW237152   4.306   8.684   6.270 -2.3297 -0.6404  1.3433
10759SOL     OW37153   9.627   0.147   2.817 -0.2338  0.4376 -0.0342
10759SOL    HW137154   9.625   0.247   2.818  0.2505  0.4712 -1.2340
10759SOL    HW237155   9.722   0.116   2.809 -0.4367 -0.1047 -0.3761
10760SOL     OW37156   0.148   2.585   3.838 -0.3575 -0.0659  0.6290
10760SOL    HW137157   0.142   2.684   3.839  3.1976  0.2048  0.7234
10760SOL    HW237158   0.135   2.552   3.744 -0.2350  0.5675  0.3877
10761SOL     OW37159   2.864   3.792   0.631 -0.0068  0.3017 -0.3660
10761SOL    HW137160   2.919   3.729   0.686 -0.5508 -0.9302 -1.2456
10761SOL    HW237161   2.874   3.771   0.534 -1.8011  0.2681 -0.5545
10762SOL     OW37162   2.204   2.849   4.334 -0.0366 -0.5787  0.3586
10762SOL    HW137163   2.302   2.833   4.346  0.3592  2.2475  1.1974
10762SOL    HW237164   2.164   2.772   4.284  2.5795 -1.8168  0.0677
10764SOL     OW37165   3.994   6.818   0.545 -0.4266  1.0520 -0.0803
10764SOL    HW137166   3.900   6.790   0.565 -0.5363  1.4874  0.0320
10764SOL    HW237167   4.002   6.839   0.448 -0.4835  1.1553 -0.0628
10765SOL     OW37168   3.796   8.351   5.200  0.2168 -0.1402 -0.6606
10765SOL    HW137169   3.741   8.308   5.271  0.8486  0.4194  0.1653
10765SOL    HW237170   3.743   8.355   5.115 -0.2829 -1.4483 -0.4204
10766SOL     OW37171   5.227   1.105   3.217  0.4507 -0.1614 -0.0548
10766SOL    HW137172   5.152   1.167   3.240 -0.2744 -1.5786  1.5144
10766SOL    HW237173   5.206   1.056   3.132 -0.2251 -0.2552  0.1658
10767SOL     OW37174   0.920   1.624   0.362 -0.0528 -0.2630 -0.5518
10767SOL    HW137175   0.961   1.634   0.452 -0.9695  0.3473 -0.2021
10767SOL    HW237176   0.826   1.591   0.371 -0.5544  0.9733 -1.2215
10768SOL     OW37177   4.901   8.216   2.327 -1.1335  0.1508 -0.1958
10768SOL    HW137178   4.898   8.309   2.364 -3.1007  1.0871 -2.5253
10768SOL    HW237179   4.942   8.218   2.236  1.8287 -1.7944  1.0373
10769SOL     OW37180   1.073   6.938   0.542  0.2582  0.3857  0.2963
10769SOL    HW137181   1.130   6.951   0.462 -0.0140 -0.1146  0.0163
10769SOL    HW237182   1.125   6.958   0.625  0.8903 -0.2726  0.0521
10770SOL     OW37183   1.043   3.220   1.848  0.4088 -0.1161  0.2795
10770SOL    HW137184   1.074   3.274   1.927  2.4435  0.2180 -0.7005
10770SOL    HW237185   0.980   3.274   1.793 -0.8133 -0.2510  1.5133
10771SOL     OW37186   7.929   9.495   5.875 -0.3708 -0.0296 -0.6145
10771SOL    HW137187   7.861   9.567   5.885 -0.2581 -0.0419  0.2705
10771SOL    HW237188   8.019   9.536   5.861 -0.3114  0.0054 -0.1390
10773SOL     OW37189   7.970   4.249   0.201 -0.3085  0.4030  0.1994
10773SOL    HW137190   8.044   4.192   0.167 -0.4018  1.5589 -1.9988
10773SOL    HW237191   8.002   4.300   0.281  1.6404  1.7507 -1.4024
10774SOL     OW37192   2.935   4.320   6.160 -0.3547 -0.0188 -0.5461
10774SOL    HW137193   2.858   4.379   6.184 -0.8629 -0.4473 -1.1099
10774SOL    HW237194   3.016   4.348   6.212 -1.4907 -1.1448  1.9273
10775SOL     OW37195   2.569   7.355   2.888  0.4544  0.4068  0.1766
10775SOL    HW137196   2.561   7.453   2.903  0.5563  0.4195  0.1471
10775SOL    HW237197   2.666   7.330   2.881  0.4267  0.3149  0.1152
10776SOL     OW37198   0.073   2.189   4.680 -0.2909  0.2653  0.3284
10776SOL    HW137199   0.056   2.090   4.677 -0.6410  0.3270  0.2121
10776SOL    HW237200   0.011   2.231   4.746  0.3710  0.3068  0.9276
10777SOL     OW37201   6.029   0.057   4.780 -0.1459  0.5443  0.8390
10777SOL    HW137202   6.067  -0.020   4.830 -1.5657  0.0426  1.1664
10777SOL    HW237203   5.956   0.099   4.834 -0.7702  0.8475 -0.2245
10778SOL     OW37204   2.426   7.227   5.310 -0.1864 -0.3915 -0.3913
10778SOL    HW137205   2.432   7.301   5.242 -1.4660 -0.5061 -0.6351
10778SOL    HW237206   2.345   7.240   5.366 -1.0992 -2.2945 -1.2423
10780SOL     OW37207   4.720   0.486   2.849 -0.2307  0.1327  0.2196
10780SOL    HW137208   4.813   0.450   2.849 -0.1603  0.2992  0.9013
10780SOL    HW237209   4.715   0.567   2.791 -0.2151 -0.5280 -0.7218
10781SOL     OW37210   9.019   0.261   3.826 -0.0329 -0.6513 -0.5690
10781SOL    HW137211   9.038   0.345   3.774  0.3795 -0.4391 -0.0750
10781SOL    HW237212   8.933   0.272   3.876 -0.1764 -0.6659 -0.8134
10782SOL     OW37213   2.729   0.383   3.730 -0.0929  0.2632 -0.1968
10782SOL    HW137214   2.721   0.293   3.687  1.7736  0.0993 -0.2391
10782SOL    HW237215   2.825   0.401   3.751 -0.5986  1.7533  0.8826
10783SOL     OW37216   7.173   3.341   2.245 -0.3341  0.2382 -0.4732
10783SOL    HW137217   7.146   3.437   2.240 -0.8992  0.0256 -1.6540
10783SOL    HW237218   7.096   3.283   2.217  0.2412 -0.5229 -0.4898
10784SOL     OW37219   0.433   5.444   2.838 -0.2926 -0.7242  0.3171
10784SOL    HW137220   0.431   5.397   2.750 -0.7607 -1.1282  0.5377
10784SOL    HW237221   0.342   5.439   2.880 -0.4108  0.6134  0.2223
10785SOL     OW37222   1.326   5.543   3.245 -0.5583 -0.0413 -0.0288
10785SOL    HW137223   1.421   5.575   3.239 -0.7291  0.1876 -1.6961
10785SOL    HW237224   1.312   5.469   3.180 -1.5361 -0.0499  0.1930
10786SOL     OW37225   8.539   3.193   6.007 -0.5427 -0.2949  0.4873
10786SOL    HW137226   8.635   3.186   6.034 -0.4104 -2.2717 -0.3914
10786SOL    HW237227   8.485   3.128   6.062 -1.4025  0.8745  1.0460
10788SOL     OW37228   8.975   8.037   4.217  0.0417  0.2938  0.2067
10788SOL    HW137229   9.009   7.948   4.246 -0.6654  0.2530  0.9184
10788SOL    HW237230   9.014   8.108   4.275  0.1533  0.4003  0.0045
10789SOL     OW37231   0.426   6.500   3.646 -0.3754 -0.7558 -0.1558
10789SOL    HW137232   0.519   6.466   3.641 -0.2983 -0.7872  1.2496
10789SOL    HW237233   0.422   6.594   3.610  0.1014 -0.9233 -0.6451
10790SOL     OW37234   1.010   6.242   0.626  0.3559 -0.3518  0.0572
10790SOL    HW137235   0.960   6.157   0.610 -2.6309  1.1312  1.1414
10790SOL    HW237236   1.020   6.257   0.724 -0.5345  1.2763 -0.0642
10791SOL     OW37237   4.032   1.459   4.454  0.4003 -0.8587  0.3082
10791SOL    HW137238   4.069   1.411   4.534  0.6894  1.1469  1.4213
10791SOL    HW237239   3.947   1.505   4.479  1.2031  0.9230 -0.1128
10792SOL     OW37240   4.362   2.925   0.490  0.2145  0.1722 -0.0065
10792SOL    HW137241   4.361   2.988   0.568 -1.6093 -0.6731  0.6855
10792SOL    HW237242   4.442   2.866   0.496 -0.3711 -0.4777  1.7462
10793SOL     OW37243   8.006   7.183   3.439 -0.0237 -0.4875  0.1755
10793SOL    HW137244   7.952   7.173   3.523 -1.0991  0.1279 -0.4304
10793SOL    HW237245   7.945   7.199   3.362  1.0735  0.9169 -0.4227
10794SOL     OW37246   2.614   8.955   3.336 -0.2204 -0.0126 -0.3458
10794SOL    HW137247   2.617   8.940   3.435  1.0315  3.0545  0.1691
10794SOL    HW237248   2.704   8.936   3.297 -0.2210  0.4898 -0.5972
10795SOL     OW37249   3.405   5.930   5.536  0.5741 -0.2601  0.7457
10795SOL    HW137250   3.415   5.846   5.590 -0.2658 -0.8067  0.0726
10795SOL    HW237251   3.324   5.979   5.566 -0.0823 -0.7323 -0.2239
10796SOL     OW37252   4.428   3.542   1.296 -0.0285 -0.5134 -0.0804
10796SOL    HW137253   4.401   3.507   1.386  0.4499 -0.6352  0.0195
10796SOL    HW237254   4.523   3.575   1.301 -0.4421  0.7292 -0.1866
10797SOL     OW37255   7.282   0.156   4.724 -0.4599 -0.5061 -0.5075
10797SOL    HW137256   7.211   0.224   4.740  0.5764  0.0885  1.7991
10797SOL    HW237257   7.347   0.191   4.656  0.1573  0.9223  0.7808
10798SOL     OW37258   4.276   8.910   1.849 -0.0122  0.0424  0.2361
10798SOL    HW137259   4.184   8.947   1.860  0.0658  0.6922 -1.1323
10798SOL    HW237260   4.288   8.875   1.756  1.5050  1.1375 -0.0187
10799SOL     OW37261   3.295   0.345   3.090 -0.2257  0.0547 -0.5121
10799SOL    HW137262   3.237   0.318   3.167  0.5769  1.3118  0.5687
10799SOL    HW237263   3.267   0.437   3.059  1.1823  0.6683  0.0214
10800SOL     OW37264   3.836   7.480   5.799 -0.0206  0.0389  0.5467
10800SOL    HW137265   3.927   7.518   5.782  0.9367 -1.8192  1.3180
10800SOL    HW237266   3.773   7.509   5.727  1.3919  0.6455 -0.4700
10801SOL     OW37267   4.223   2.893   4.908 -0.0204  0.4549 -0.1392
10801SOL    HW137268   4.181   2.834   4.839 -0.4612  1.9492 -1.1540
10801SOL    HW237269   4.151   2.943   4.957  0.2745 -0.6865  1.5137
10804SOL     OW37270   0.810   9.018   5.017  0.0117 -0.6668  0.0849
10804SOL    HW137271   0.838   8.934   4.972 -0.6000 -1.0603  0.4389
10804SOL    HW237272   0.713   9.013   5.041 -0.1904  0.4108 -0.4995
10805SOL     OW37273   1.784   7.541   0.514 -0.5796  0.4804  0.1891
10805SOL    HW137274   1.738   7.629   0.501 -0.1478  0.8161  0.8877
10805SOL    HW237275   1.717   7.473   0.543 -0.9858  0.4778 -0.7500
10808SOL     OW37276   9.554   2.926   0.746  0.5291 -0.2622 -0.4760
10808SOL    HW137277   9.642   2.893   0.713  0.8052  0.0038 -0.0037
10808SOL    HW237278   9.483   2.858   0.726  0.9131 -0.6619 -0.4747
10809SOL     OW37279   3.281   9.501   2.179 -0.0795 -0.4037  0.4066
10809SOL    HW137280   3.212   9.573   2.183  0.7627  0.4369  0.0987
10809SOL    HW237281   3.369   9.540   2.152  0.3334 -1.5966 -0.0535
10810SOL     OW37282   6.834   1.034   0.180 -0.4441  0.0967 -0.1433
10810SOL    HW137283   6.787   0.973   0.116 -1.6606  0.8160  0.0409
10810SOL    HW237284   6.769   1.102   0.214  0.2895 -0.0389  1.5564
10811SOL     OW37285   4.839   9.996   4.252 -0.1611 -0.2889 -0.3849
10811SOL    HW137286   4.779  10.047   4.313 -1.3301 -1.4268 -0.5525
10811SOL    HW237287   4.909   9.949   4.307  0.1765  0.5009 -0.1316
10812SOL     OW37288   4.339   1.608   1.995 -0.4307 -0.0166 -0.0264
10812SOL    HW137289   4.288   1.597   2.080 -0.7609  0.9575 -0.0858
10812SOL    HW237290   4.304   1.544   1.926 -0.2991 -0.6604  0.5070
10813SOL     OW37291   0.745   5.782   0.124  0.3379  0.0160 -0.1728
10813SOL    HW137292   0.770   5.875   0.150 -1.9144  0.7260 -0.4059
10813SOL    HW237293   0.655   5.760   0.163 -0.8219 -0.7044 -3.1592
10814SOL     OW37294   6.327   9.697   4.369  0.4192  0.3295 -0.0692
10814SOL    HW137295   6.387   9.617   4.365  0.6658  0.5222 -0.2433
10814SOL    HW237296   6.316   9.735   4.277  1.6223  1.4683  0.2315
10817SOL     OW37297   2.523   0.276   5.583 -0.7379  0.3369 -0.1183
10817SOL    HW137298   2.567   0.324   5.658 -0.9958  0.9549 -0.3573
10817SOL    HW237299   2.431   0.313   5.569 -0.5377  0.5045 -1.0079
10818SOL     OW37300   2.116   4.771   2.272 -0.3517  0.2498 -0.1500
10818SOL    HW137301   2.087   4.857   2.313 -0.0297  1.1562 -1.7663
10818SOL    HW237302   2.039   4.707   2.268 -1.2015  1.3127 -1.0642
10819SOL     OW37303   6.477   4.343   0.418 -0.3041 -0.0377 -0.0653
10819SOL    HW137304   6.381   4.369   0.408 -0.5715  0.0058  2.3708
10819SOL    HW237305   6.524   4.409   0.475  0.7134 -1.1002  0.3464
10820SOL     OW37306   9.199   9.295   4.229  0.3561  0.7324  0.1734
10820SOL    HW137307   9.148   9.263   4.149  0.3303  1.7871 -0.2385
10820SOL    HW237308   9.192   9.227   4.303  0.6753 -0.4140 -0.8314
10821SOL     OW37309   4.374   0.478   5.963 -0.3791 -0.0268  0.3542
10821SOL    HW137310   4.384   0.401   6.027  0.5619  0.3389  0.6531
10821SOL    HW237311   4.398   0.448   5.871 -0.4051 -0.1960  0.4025
10822SOL     OW37312   4.398   3.076   6.071  0.3519 -0.3639 -0.3078
10822SOL    HW137313   4.352   3.001   6.024 -1.4038  0.0625  0.6533
10822SOL    HW237314   4.483   3.098   6.024 -0.6085 -0.9348 -2.4068
10823SOL     OW37315   2.154   2.528   3.224  0.6264 -0.4281 -0.0167
10823SOL    HW137316   2.115   2.443   3.259 -0.5167  0.3107  0.5387
10823SOL    HW237317   2.193   2.512   3.134 -0.6523 -1.2782 -0.4319
10824SOL     OW37318   0.816   5.828   0.941 -0.0378  0.1137 -0.4154
10824SOL    HW137319   0.898   5.782   0.974  0.7583  1.8149  0.0522
10824SOL    HW237320   0.757   5.851   1.018 -0.4869 -0.2396 -0.6540
10825SOL     OW37321   8.457   9.828   5.302 -0.6139  0.5205  0.1891
10825SOL    HW137322   8.490   9.746   5.257 -0.1693  1.6755 -1.6370
10825SOL    HW237323   8.370   9.809   5.347 -0.3107 -1.0368  0.1246
10826SOL     OW37324   0.584   2.026   3.177  0.3895 -0.5826 -0.0689
10826SOL    HW137325   0.631   1.970   3.245  0.8638 -0.1567 -0.0429
10826SOL    HW237326   0.494   1.987   3.158  0.3704 -0.8649  0.5892
10827SOL     OW37327   0.412   1.552   3.979  0.3110  0.4038 -0.2221
10827SOL    HW137328   0.369   1.497   3.908  0.8149 -1.9971  1.2564
10827SOL    HW237329   0.462   1.627   3.937  1.3140 -1.4548 -2.4969
10828SOL     OW37330   5.072   9.562   5.087  0.3915  0.0938  0.1565
10828SOL    HW137331   5.009   9.485   5.078  0.5160 -0.3840  2.8665
10828SOL    HW237332   5.025   9.639   5.130  1.1643  0.3741  0.5142
10829SOL     OW37333   1.989   5.944   0.279 -0.1087 -0.0256  0.0002
10829SOL    HW137334   1.931   5.983   0.350 -0.6518 -2.2457  0.8004
10829SOL    HW237335   1.932   5.920   0.199  0.0513 -0.2315 -0.0506
10830SOL     OW37336   1.944   1.572   6.321 -0.2150  0.2297  0.3496
10830SOL    HW137337   1.853   1.532   6.305 -0.5908  0.8485  0.9063
10830SOL    HW237338   2.006   1.501   6.355  0.2310 -0.7885 -2.4907
10832SOL     OW37339   0.833   0.879   3.070  0.2839  0.4457 -0.2122
10832SOL    HW137340   0.788   0.940   3.005 -0.4759 -1.1226 -1.2013
10832SOL    HW237341   0.930   0.870   3.047  0.3625  1.1367 -0.1612
10835SOL     OW37342   1.165   9.347   3.743 -0.1345 -0.0139  0.4696
10835SOL    HW137343   1.076   9.363   3.786 -0.3376 -1.2092  0.5003
10835SOL    HW237344   1.170   9.253   3.710  1.6136 -0.3402  1.5956
10837SOL     OW37345   0.711   7.825   4.959  0.2822 -0.0168 -0.3766
10837SOL    HW137346   0.770   7.905   4.953 -1.2560  1.2987  1.4110
10837SOL    HW237347   0.750   7.760   5.025  0.3462  0.3014 -0.0994
10838SOL     OW37348   1.212   1.729   5.527 -0.2435 -0.2046 -0.5972
10838SOL    HW137349   1.165   1.649   5.565 -0.3845 -0.3421 -1.0570
10838SOL    HW237350   1.261   1.702   5.444  0.3630  0.0139 -0.3128
10839SOL     OW37351   1.224   8.569   5.640 -0.1543  0.1525  0.5482
10839SOL    HW137352   1.243   8.589   5.544 -0.0850 -0.9779  0.3136
10839SOL    HW237353   1.185   8.477   5.647  1.7104 -0.5586  1.8008
10841SOL     OW37354   7.718   8.661   4.569  0.1830  0.2291  0.7434
10841SOL    HW137355   7.621   8.677   4.551  0.5557  1.0031 -0.6985
10841SOL    HW237356   7.740   8.565   4.556 -0.3750  0.0683  1.0022
10842SOL     OW37357   4.640   1.908   2.705  0.2700 -0.2410  0.1275
10842SOL    HW137358   4.693   1.824   2.711 -0.2775 -0.6004 -0.0162
10842SOL    HW237359   4.609   1.935   2.796  0.9071  0.1032  0.2407
10844SOL     OW37360   1.845   9.787   1.085 -0.0813  0.7729 -0.3923
10844SOL    HW137361   1.938   9.814   1.109  0.0283 -0.3719  0.4924
10844SOL    HW237362   1.781   9.823   1.152  0.1750 -2.0009  1.4120
10845SOL     OW37363   0.022   3.850   5.848 -0.1710 -0.6199  0.0446
10845SOL    HW137364  -0.051   3.868   5.914 -0.0176 -0.0267  0.0560
10845SOL    HW237365   0.107   3.891   5.880 -0.2035  0.0883 -0.7447
10846SOL     OW37366   0.192   1.817   2.866 -0.3113 -0.1575  0.0281
10846SOL    HW137367   0.292   1.823   2.865 -0.3202  0.1386  1.0800
10846SOL    HW237368   0.162   1.756   2.792  0.5407  1.0848 -1.3796
10847SOL     OW37369   5.810   0.310   3.766 -0.1296 -0.5375  0.3768
10847SOL    HW137370   5.890   0.281   3.819 -1.1588 -0.5568  1.9385
10847SOL    HW237371   5.781   0.400   3.796 -0.2157 -0.1769 -0.7574
10850SOL     OW37372   3.208   7.728   2.610  0.1123  0.5854  0.3293
10850SOL    HW137373   3.142   7.803   2.603  1.2050  1.4383 -0.9956
10850SOL    HW237374   3.272   7.732   2.533  0.1789 -1.7189  0.2327
10851SOL     OW37375   2.761   6.682   0.104 -0.2322 -0.2258  0.0238
10851SOL    HW137376   2.763   6.631   0.018 -2.1298  1.9103 -1.3397
10851SOL    HW237377   2.766   6.618   0.181  0.3712 -2.2395 -1.6493
10852SOL     OW37378   2.421   9.110   2.067  0.4568  0.1133  0.5347
10852SOL    HW137379   2.492   9.050   2.103  0.3307  0.7198  1.8160
10852SOL    HW237380   2.453   9.155   1.983  0.7558 -1.2933 -0.1160
10853SOL     OW37381   9.557   8.608   3.453 -0.4243 -0.1613  0.0474
10853SOL    HW137382   9.640   8.568   3.414 -0.0666  0.9878 -0.3845
10853SOL    HW237383   9.573   8.704   3.475 -1.3210 -0.2100  0.9487
10854SOL     OW37384   7.395   2.361   3.079  0.6648 -0.0830 -0.2126
10854SOL    HW137385   7.428   2.281   3.128 -1.2834  0.7891  2.6059
10854SOL    HW237386   7.306   2.340   3.036  0.6703  0.2431 -0.3878
10855SOL     OW37387   9.042   8.940   0.798  0.2998  0.2548  0.3811
10855SOL    HW137388   9.094   8.930   0.713  1.4835 -0.5094  1.1876
10855SOL    HW237389   8.985   8.860   0.812 -0.3867  0.6650 -0.0088
10856SOL     OW37390   2.821   1.049   3.564 -0.2754 -0.2096  0.2924
10856SOL    HW137391   2.854   1.023   3.655  0.4069  2.0902  0.7324
10856SOL    HW237392   2.729   1.088   3.573  0.5463  1.7650  0.2613
10857SOL     OW37393   3.977   1.250   0.291 -0.6418 -0.4862 -0.0321
10857SOL    HW137394   3.964   1.192   0.210  1.1024 -1.4222  0.3273
10857SOL    HW237395   4.060   1.304   0.280  0.3097 -1.5423  1.6271
10858SOL     OW37396   8.781   2.628   0.708  0.0221  0.1351 -0.0147
10858SOL    HW137397   8.812   2.566   0.780 -0.3343  0.3494  0.3233
10858SOL    HW237398   8.776   2.579   0.621 -0.6223 -0.3955  0.3233
10859SOL     OW37399   4.312   9.613   3.628  0.0050  0.1239 -0.3588
10859SOL    HW137400   4.386   9.546   3.619  1.1048  1.3404 -0.4637
10859SOL    HW237401   4.227   9.565   3.651  0.8782 -1.2643  0.0742
10860SOL     OW37402   0.772   7.991   1.672 -0.3015 -0.3082 -1.0911
10860SOL    HW137403   0.726   8.077   1.649  0.4979  0.5336  0.3795
10860SOL    HW237404   0.869   7.998   1.647  0.8174  0.9994  3.2537
10862SOL     OW37405   1.270   6.348   4.465 -0.4371 -0.2111 -0.4031
10862SOL    HW137406   1.193   6.317   4.519 -1.1922  0.2135 -1.2199
10862SOL    HW237407   1.354   6.343   4.519 -1.5222  2.5959  1.6635
10863SOL     OW37408   4.707   1.761   0.750 -0.5235 -0.1772  0.2879
10863SOL    HW137409   4.799   1.798   0.765 -0.5319 -1.4520  3.8548
10863SOL    HW237410   4.639   1.832   0.768 -0.3121  0.3271 -0.8453
10864SOL     OW37411   2.849   8.831   6.044  0.0427  0.5617 -0.4418
10864SOL    HW137412   2.811   8.885   5.969 -1.1240  1.6051  0.8692
10864SOL    HW237413   2.779   8.818   6.114  0.0204 -3.4115 -1.0964
10865SOL     OW37414   8.211   2.866   0.617  0.1040 -0.3151  0.1492
10865SOL    HW137415   8.119   2.905   0.624 -0.5649 -1.4876 -1.6583
10865SOL    HW237416   8.278   2.940   0.606 -1.0445  0.4010 -2.3283
10866SOL     OW37417   0.796   1.950   5.175  0.2001 -0.1831 -0.5429
10866SOL    HW137418   0.717   2.002   5.142  0.1494  0.0547 -0.0502
10866SOL    HW237419   0.819   1.980   5.268  1.5419  0.5156 -1.0878
10867SOL     OW37420   6.274   8.283   4.393 -0.0793 -0.1711  0.0871
10867SOL    HW137421   6.354   8.324   4.437  0.0001 -0.7955  0.5208
10867SOL    HW237422   6.216   8.240   4.462 -0.1972 -0.7314 -0.3651
10868SOL     OW37423   1.210   6.571   0.386 -0.0193  0.4809 -0.3361
10868SOL    HW137424   1.134   6.580   0.322  0.0009 -0.0003 -0.4336
10868SOL    HW237425   1.297   6.578   0.336  0.0019 -1.2480 -0.5840
10869SOL     OW37426   5.482   9.008   5.295  0.2679  0.3113  0.9057
10869SOL    HW137427   5.520   9.013   5.202  2.5623 -0.0964  1.7842
10869SOL    HW237428   5.456   8.913   5.315 -2.0275  0.7247  0.0202
10870SOL     OW37429   0.532   4.298   3.389 -0.1255 -0.4866 -0.0015
10870SOL    HW137430   0.458   4.263   3.332 -1.6184  0.2335  1.4661
10870SOL    HW237431   0.611   4.237   3.382 -1.5853 -2.4238  0.0597
10871SOL     OW37432   4.029   3.203   1.403  0.3631 -0.0284 -0.4375
10871SOL    HW137433   4.128   3.206   1.419  0.3826  1.3646 -0.7356
10871SOL    HW237434   3.989   3.292   1.426 -0.7369 -0.3990 -0.8805
10872SOL     OW37435   6.618   1.199   0.248  0.6051 -0.0396 -0.4473
10872SOL    HW137436   6.543   1.136   0.228  0.9626 -0.9867  1.1818
10872SOL    HW237437   6.595   1.255   0.328  1.5548 -0.1866 -0.0693
10874SOL     OW37438   6.800   2.317   4.926 -0.0710  0.1362 -0.0575
10874SOL    HW137439   6.897   2.326   4.903  0.1125  0.3998  0.7843
10874SOL    HW237440   6.760   2.242   4.874  0.9510 -0.9672  0.7257
10875SOL     OW37441   8.892   0.628   3.847  0.0462  0.5934 -0.2333
10875SOL    HW137442   8.847   0.542   3.870 -1.1031  0.8844 -1.3762
10875SOL    HW237443   8.962   0.612   3.778  0.0218  0.5419 -0.2464
10876SOL     OW37444   8.878   8.563   1.752 -0.0277 -0.2437 -0.1778
10876SOL    HW137445   8.972   8.596   1.746 -0.5776  1.2133 -0.9047
10876SOL    HW237446   8.822   8.630   1.799 -1.1340 -0.1768 -1.5620
10877SOL     OW37447   1.279   0.519   3.957  0.3993  0.1765  0.6446
10877SOL    HW137448   1.223   0.602   3.949  0.3345 -0.0038 -0.8316
10877SOL    HW237449   1.374   0.544   3.971  1.0101  0.6021 -3.6298
10878SOL     OW37450   0.962   8.795   4.935  0.1136 -0.6429  0.2039
10878SOL    HW137451   0.941   8.697   4.928 -0.2490 -0.4731 -1.2506
10878SOL    HW237452   1.019   8.823   4.857 -0.2786  0.4334  0.2929
10879SOL     OW37453   6.391   2.484   5.288  0.2846  0.8811 -0.6138
10879SOL    HW137454   6.474   2.531   5.316 -0.1844 -0.0728  2.5860
10879SOL    HW237455   6.374   2.406   5.349 -3.3253  1.4808 -0.7228
10880SOL     OW37456   1.269   9.355   4.639  0.0384 -0.1118  0.1292
10880SOL    HW137457   1.361   9.388   4.617  0.6627 -0.8333  1.5530
10880SOL    HW237458   1.222   9.424   4.694  0.1458 -0.2041  0.3396
10881SOL     OW37459   8.602   6.353   0.619  0.2241 -0.2495 -0.3937
10881SOL    HW137460   8.657   6.275   0.646 -1.5437 -1.7889 -1.1282
10881SOL    HW237461   8.650   6.438   0.642  2.1996 -1.5383  0.3229
10882SOL     OW37462   9.966   5.428   2.178  0.3754  0.4177  0.3819
10882SOL    HW137463   9.966   5.395   2.272 -0.0763  2.3466  1.0819
10882SOL    HW237464   9.942   5.353   2.116 -0.2194 -0.6445  1.8758
10884SOL     OW37465   0.529   7.728   4.785 -0.0201 -0.4301 -0.3066
10884SOL    HW137466   0.469   7.799   4.746  1.5423  2.1573  1.8665
10884SOL    HW237467   0.593   7.770   4.849  2.3928 -3.5455 -0.5760
10885SOL     OW37468   8.431   8.817   3.239  0.5266 -0.2403 -0.2854
10885SOL    HW137469   8.474   8.903   3.266  2.6868 -1.2495 -0.4045
10885SOL    HW237470   8.387   8.828   3.150  0.6105  0.7871 -0.2050
10886SOL     OW37471   9.233   1.041   5.501 -0.1434  0.3757 -0.3278
10886SOL    HW137472   9.176   0.959   5.489  0.5946  0.0684 -1.8014
10886SOL    HW237473   9.179   1.122   5.477 -0.0908  0.1153 -1.3623
10890SOL     OW37474   7.206   5.602   1.220  1.0824  0.5357  0.1297
10890SOL    HW137475   7.274   5.646   1.161 -1.0682  1.0072 -2.0881
10890SOL    HW237476   7.124   5.660   1.225 -0.3427 -1.4647  0.2474
10891SOL     OW37477   2.372   0.266   2.887  0.6933  0.2862 -0.0125
10891SOL    HW137478   2.462   0.224   2.877  0.9719  0.9235 -0.2440
10891SOL    HW237479   2.347   0.311   2.801  0.5082  0.7817  0.2962
10894SOL     OW37480   3.938   0.774   2.297  0.2751  0.1109 -0.0109
10894SOL    HW137481   3.910   0.831   2.220  0.0935 -0.0682 -0.0784
10894SOL    HW237482   4.019   0.721   2.273 -1.5549 -2.2644 -1.1630
10895SOL     OW37483   5.162   4.984   0.677  0.0349 -0.2785 -0.4679
10895SOL    HW137484   5.261   4.992   0.689  0.0524 -1.4230  0.1333
10895SOL    HW237485   5.141   4.899   0.628 -0.7556 -0.7883  0.7485
10896SOL     OW37486   4.279   6.454   3.034  0.0077  0.1033  0.8376
10896SOL    HW137487   4.327   6.490   2.954 -2.0863  2.3663  0.5579
10896SOL    HW237488   4.275   6.524   3.105 -2.0996 -0.3480  1.1939
10897SOL     OW37489   8.525   2.667   2.036  0.3568 -0.3911  0.5609
10897SOL    HW137490   8.618   2.657   2.000  0.9540  2.5004  1.1996
10897SOL    HW237491   8.460   2.654   1.961  1.3496 -0.6267 -0.2769
10898SOL     OW37492   7.149   4.567   0.066  0.5700 -0.7112 -0.5491
10898SOL    HW137493   7.136   4.468   0.060 -0.5975 -0.7012  1.3631
10898SOL    HW237494   7.096   4.603   0.142  1.8272  1.2498 -0.5593
10899SOL     OW37495   1.528   3.487   4.226  0.4477 -0.3520  0.6695
10899SOL    HW137496   1.438   3.443   4.225 -0.3401  1.1793  2.0445
10899SOL    HW237497   1.518   3.586   4.236  2.2930 -0.2812  2.3272
10900SOL     OW37498   7.139   0.693   4.433  0.5165  0.5435  0.4315
10900SOL    HW137499   7.156   0.790   4.453 -4.1513  0.9601  2.9804
10900SOL    HW237500   7.111   0.646   4.517 -0.9274 -2.1843 -1.5026
10901SOL     OW37501   2.981   1.732   3.569  0.0405 -0.0813 -0.4722
10901SOL    HW137502   2.979   1.769   3.477  0.7802  1.1849  0.0071
10901SOL    HW237503   2.926   1.649   3.573 -2.1060  1.2602 -1.4465
10902SOL     OW37504   4.777   3.693   0.354  0.5719 -0.3900 -0.2265
10902SOL    HW137505   4.800   3.788   0.335 -1.2221  0.1217  0.1334
10902SOL    HW237506   4.739   3.651   0.272 -0.9820 -0.0671  0.3145
10903SOL     OW37507   8.830   7.634   4.270  0.2344 -0.4059 -0.0077
10903SOL    HW137508   8.761   7.591   4.328  0.5762 -0.7781  0.1269
10903SOL    HW237509   8.824   7.596   4.178  0.7940 -1.0415  0.2087
10904SOL     OW37510   3.384   0.574   2.568 -0.7249 -0.0626 -0.2630
10904SOL    HW137511   3.386   0.497   2.505 -0.2598  0.0078 -0.3399
10904SOL    HW237512   3.410   0.658   2.519 -0.5588  0.0258 -0.0258
10905SOL     OW37513   4.303   2.140   5.008 -0.2772 -0.1236 -0.2655
10905SOL    HW137514   4.294   2.227   5.056  0.3184  0.4865 -1.2559
10905SOL    HW237515   4.213   2.109   4.978 -0.4409  0.3357 -0.2526
10906SOL     OW37516   1.058   8.090   0.094 -0.2262  0.4115 -0.0852
10906SOL    HW137517   0.995   8.025   0.052 -0.3569  0.6488 -0.2577
10906SOL    HW237518   1.011   8.139   0.167 -0.6457  1.5378 -1.0854
10907SOL     OW37519   2.692   2.906   3.302 -0.0574 -0.3382 -0.3523
10907SOL    HW137520   2.648   2.818   3.284 -0.0060 -0.3063 -0.6400
10907SOL    HW237521   2.791   2.892   3.308 -0.0858 -0.3760  0.0800
10908SOL     OW37522   0.600   5.949   3.693  0.4980 -0.1470  0.7331
10908SOL    HW137523   0.618   5.868   3.750  0.7317 -0.4565  0.2233
10908SOL    HW237524   0.685   5.978   3.649 -0.3738 -2.1569 -2.4051
10909SOL     OW37525   3.353   3.509   1.922 -0.2031  0.3412 -0.2106
10909SOL    HW137526   3.300   3.470   1.998  0.3416 -1.0710 -0.5263
10909SOL    HW237527   3.448   3.477   1.928 -0.0117  0.7227 -1.1220
10910SOL     OW37528   4.334   9.430   1.306  0.6971  0.0905 -0.6852
10910SOL    HW137529   4.348   9.348   1.250 -0.1340 -0.6828  0.2125
10910SOL    HW237530   4.247   9.423   1.354  2.9546 -1.0055  3.5499
10911SOL     OW37531   2.344   8.563   2.924 -0.0899 -0.6344  0.1310
10911SOL    HW137532   2.377   8.630   2.991 -0.6147 -0.4226  0.1830
10911SOL    HW237533   2.418   8.499   2.902  0.8185  0.7217 -0.8748
10913SOL     OW37534   7.205   3.176   1.638 -0.0293  0.4029  0.5582
10913SOL    HW137535   7.260   3.260   1.635 -0.0401  0.4099  0.5608
10913SOL    HW237536   7.171   3.155   1.547  0.3499  0.1501  0.4750
10914SOL     OW37537   1.096   1.582   4.862 -0.1734 -0.4675 -0.5825
10914SOL    HW137538   1.146   1.630   4.935  0.3061 -0.3434 -0.9874
10914SOL    HW237539   1.000   1.609   4.864  0.2465  1.1796 -1.3305
10915SOL     OW37540   2.216   4.086   0.930 -0.4797 -0.5133 -0.5775
10915SOL    HW137541   2.296   4.122   0.881 -0.4302  3.3529  2.1087
10915SOL    HW237542   2.246   4.014   0.993  0.3958 -1.2886 -1.8659
10916SOL     OW37543   5.028   9.880   3.761  0.3107  0.1304  0.0241
10916SOL    HW137544   4.975   9.850   3.683  0.0901 -0.7147  0.4935
10916SOL    HW237545   5.013   9.818   3.838 -0.8228  1.9137  1.2775
10918SOL     OW37546   7.272   3.499   1.973  0.0265  0.4598  0.4161
10918SOL    HW137547   7.328   3.463   2.047 -2.3553  0.8889  2.4616
10918SOL    HW237548   7.292   3.596   1.960  0.2582  0.4490  0.6942
10925SOL     OW37549   8.410   9.437   3.053  0.2216 -0.2276 -0.1748
10925SOL    HW137550   8.479   9.485   3.000 -0.8456 -0.1140 -1.4884
10925SOL    HW237551   8.322   9.485   3.045 -0.1535 -0.6877  1.0044
10926SOL     OW37552   3.723   0.610   2.245 -0.0744 -0.3605  0.3028
10926SOL    HW137553   3.729   0.535   2.311  1.3870  1.0634  1.8419
10926SOL    HW237554   3.789   0.681   2.269 -0.2643  0.6807 -2.1051
10927SOL     OW37555   2.777   3.706   6.165 -0.2256 -0.5480  0.3157
10927SOL    HW137556   2.720   3.772   6.116 -0.8166 -1.0979  0.2522
10927SOL    HW237557   2.801   3.743   6.255  2.8174  1.4581 -1.2726
10928SOL     OW37558   8.371   9.307   0.602  0.1207  0.3591  0.5107
10928SOL    HW137559   8.440   9.327   0.532  1.5143  0.1625  1.8005
10928SOL    HW237560   8.291   9.365   0.588  0.9427  1.2826 -0.4348
10929SOL     OW37561   3.238   5.237   3.730  0.4471 -0.4743 -0.3394
10929SOL    HW137562   3.226   5.323   3.680  0.3011  0.3031  0.9995
10929SOL    HW237563   3.335   5.226   3.753  0.2244  0.2493  1.0440
10930SOL     OW37564   6.618   0.125   6.095  0.2094 -0.0336 -0.1354
10930SOL    HW137565   6.672   0.097   6.174  1.6729  0.0700 -1.0639
10930SOL    HW237566   6.677   0.174   6.030 -1.1749  0.7196 -0.8536
10931SOL     OW37567   0.558   4.522   2.399  0.2604  0.0802 -0.2431
10931SOL    HW137568   0.629   4.582   2.437  0.8337  0.1101 -1.3455
10931SOL    HW237569   0.485   4.510   2.467  0.6748  1.1209  0.4026
10932SOL     OW37570   2.082   5.064   1.625  0.3156 -0.3118  0.3027
10932SOL    HW137571   1.999   5.033   1.578  0.0959 -0.4789  0.7977
10932SOL    HW237572   2.121   5.142   1.575 -0.0889 -0.2868  0.0187
10934SOL     OW37573   5.646   0.769   3.550 -0.4614 -0.0340  0.1403
10934SOL    HW137574   5.656   0.689   3.491  0.7420  0.4150 -0.2823
10934SOL    HW237575   5.668   0.852   3.498  0.5514  0.3677  1.1999
10935SOL     OW37576   3.226   0.129   1.905 -0.0666  0.3175  0.7474
10935SOL    HW137577   3.316   0.147   1.864  0.8248 -2.1083  1.5869
10935SOL    HW237578   3.195   0.038   1.880 -1.7396  0.6464  1.5232
10936SOL     OW37579   8.698   1.334   0.444 -0.5071 -0.2461  0.1867
10936SOL    HW137580   8.659   1.254   0.491 -0.6471 -0.1346  0.2613
10936SOL    HW237581   8.668   1.417   0.490 -1.2391 -0.1050 -0.5402
10937SOL     OW37582   1.920   1.338   6.041 -0.2443 -0.0824 -0.6057
10937SOL    HW137583   2.011   1.371   6.014 -0.3671  1.0919  0.3385
10937SOL    HW237584   1.858   1.416   6.048 -1.5542 -0.9920 -2.1000
10938SOL     OW37585   4.865   0.195   4.948  0.0879 -0.0848 -0.4657
10938SOL    HW137586   4.786   0.194   5.009  0.9035 -0.0811  0.6107
10938SOL    HW237587   4.837   0.170   4.855 -0.6674 -2.9389  0.4933
10942SOL     OW37588   3.258   8.496   4.960  0.2669  0.2213 -0.2844
10942SOL    HW137589   3.236   8.417   4.902  1.3009 -0.1606 -0.1571
10942SOL    HW237590   3.255   8.580   4.904 -2.2351  0.2919 -0.1214
10944SOL     OW37591   8.825   5.979   1.083 -0.2399  0.1423 -0.3726
10944SOL    HW137592   8.858   6.048   1.018  0.7567  0.7573  0.7669
10944SOL    HW237593   8.782   5.904   1.032  2.0723 -0.2393 -1.8761
10945SOL     OW37594   1.037   2.627   4.893  0.8628  0.0465  0.8191
10945SOL    HW137595   1.098   2.687   4.944 -0.9639  3.1580 -0.5407
10945SOL    HW237596   0.949   2.622   4.939  0.6984 -0.8861  0.4199
10946SOL     OW37597   6.766   2.493   4.531 -0.5577 -0.1695 -0.0480
10946SOL    HW137598   6.773   2.418   4.466 -0.0869  0.6163 -0.9064
10946SOL    HW237599   6.803   2.577   4.491  2.1988 -0.2509  2.1337
10947SOL     OW37600   2.826   1.941   5.945 -0.0095  0.1236  0.1934
10947SOL    HW137601   2.926   1.938   5.954  0.3220  1.5454 -2.6152
10947SOL    HW237602   2.786   1.963   6.034  2.1046 -1.3270  1.5693
10948SOL     OW37603   6.500   2.313   3.679 -0.4623 -0.0862 -0.0968
10948SOL    HW137604   6.513   2.219   3.647 -1.4912 -0.6249  1.0330
10948SOL    HW237605   6.558   2.374   3.626 -0.2116 -1.2859 -1.2304
10949SOL     OW37606   1.614   7.688   5.988 -0.0214  0.5548  0.2340
10949SOL    HW137607   1.670   7.608   5.966 -1.4276  0.2239 -2.2668
10949SOL    HW237608   1.548   7.665   6.060 -1.1296 -0.8436 -1.2171
10950SOL     OW37609   1.029   8.394   0.028 -0.0916  0.4866  0.3190
10950SOL    HW137610   1.049   8.471  -0.032 -0.6849  1.1694  0.9802
10950SOL    HW237611   0.984   8.322  -0.024 -0.8586  1.1844 -0.0001
10951SOL     OW37612   7.639   0.953   5.543  0.1691  0.3189 -0.4277
10951SOL    HW137613   7.710   1.019   5.568 -0.4990  0.7053  0.4977
10951SOL    HW237614   7.549   0.997   5.552 -0.3100 -0.8482  0.6510
10952SOL     OW37615   5.787   8.257   2.546  0.0685 -0.3665 -0.5364
10952SOL    HW137616   5.879   8.221   2.530  0.3910  0.0402  0.3904
10952SOL    HW237617   5.725   8.223   2.474  0.5319 -2.1446 -0.1229
10954SOL     OW37618   3.976   0.628   1.845 -0.5449 -0.4886 -0.5207
10954SOL    HW137619   3.986   0.528   1.849 -0.6764 -0.4825 -0.0143
10954SOL    HW237620   3.944   0.654   1.754 -1.6227 -1.0074 -0.2912
10955SOL     OW37621   4.461   6.197   0.475 -0.2302 -0.3936 -0.5100
10955SOL    HW137622   4.551   6.213   0.434 -0.0331  1.8905  0.7407
10955SOL    HW237623   4.393   6.191   0.403  0.5331  0.6225 -1.3295
10956SOL     OW37624   7.532   4.081   0.882 -0.2723 -0.0027  0.3565
10956SOL    HW137625   7.472   4.080   0.961  0.6303  0.5413  1.0704
10956SOL    HW237626   7.605   4.014   0.894 -0.1261  0.0863 -0.0079
10957SOL     OW37627   9.143   3.266   2.182  0.0847  0.3402 -0.0953
10957SOL    HW137628   9.160   3.302   2.274 -1.5944  0.1614  0.3021
10957SOL    HW237629   9.193   3.180   2.170 -0.2971 -0.0241  0.9129
10958SOL     OW37630   0.918   0.219   6.193  0.0764 -0.0665 -0.2755
10958SOL    HW137631   0.858   0.284   6.240  0.8126  0.6990 -0.3843
10958SOL    HW237632   1.002   0.208   6.246  1.1022  1.1401 -1.6245
10959SOL     OW37633   7.337   3.190   6.059  0.1951 -0.6804  0.3471
10959SOL    HW137634   7.280   3.206   5.978  0.8904 -1.7863 -0.3753
10959SOL    HW237635   7.304   3.108   6.107  0.9639 -1.1462  0.0954
10961SOL     OW37636   1.728   2.478   1.441 -0.5759 -0.3093 -0.1904
10961SOL    HW137637   1.788   2.399   1.453 -0.0936  0.0167 -0.4544
10961SOL    HW237638   1.654   2.453   1.379  0.1812 -0.2324 -1.1375
10962SOL     OW37639   7.290   3.979   5.566 -0.7126 -0.1038  0.2047
10962SOL    HW137640   7.279   3.928   5.481 -1.3307  0.8458 -0.2952
10962SOL    HW237641   7.288   4.077   5.546 -1.1614  0.1257  1.3543
10963SOL     OW37642   8.804   3.741   3.744  0.1322 -0.4309 -0.3818
10963SOL    HW137643   8.888   3.692   3.765  0.7248  0.3541 -0.8892
10963SOL    HW237644   8.824   3.817   3.682 -1.1148 -0.9020 -1.3878
10965SOL     OW37645   9.615   3.893   5.310 -0.1709 -0.1879 -0.2823
10965SOL    HW137646   9.687   3.873   5.377 -1.2079  0.1953  0.9683
10965SOL    HW237647   9.655   3.943   5.233  0.4607  2.3936  1.6373
10966SOL     OW37648   9.518   8.601   4.216  0.1871 -0.1684 -0.1803
10966SOL    HW137649   9.612   8.636   4.210  0.5000 -1.3487 -2.9492
10966SOL    HW237650   9.461   8.667   4.265  2.0203  1.5540 -0.3039
10967SOL     OW37651   7.778   7.633   4.494 -0.5848 -0.5253 -0.3307
10967SOL    HW137652   7.702   7.567   4.497 -0.4183 -0.7788 -1.4081
10967SOL    HW237653   7.791   7.673   4.584 -2.8452  0.4542 -0.3897
10968SOL     OW37654   7.055   1.762   4.362 -0.1544  0.0128 -0.6515
10968SOL    HW137655   7.087   1.683   4.414 -1.0896  0.3030  0.3801
10968SOL    HW237656   7.064   1.844   4.418 -2.2929  0.1558 -0.4775
10969SOL     OW37657   2.315   7.051   3.584  0.0139 -0.0425 -0.1401
10969SOL    HW137658   2.218   7.041   3.606  0.3278  1.2484  1.9838
10969SOL    HW237659   2.351   7.132   3.630  2.0115 -0.2877 -1.2321
10970SOL     OW37660   2.878   0.928   2.661 -0.2099  0.4281  0.4222
10970SOL    HW137661   2.976   0.945   2.671  0.1230 -0.7919 -0.7377
10970SOL    HW237662   2.840   0.901   2.750  0.3275  1.6953  1.0602
10971SOL     OW37663   9.195   3.358   1.893  0.0158 -0.2325  0.0710
10971SOL    HW137664   9.202   3.457   1.905 -1.1861 -0.0163 -0.9462
10971SOL    HW237665   9.179   3.315   1.982 -1.8646  0.7094  0.2157
10972SOL     OW37666   3.883   5.919   2.113 -0.4032  0.2396 -0.3156
10972SOL    HW137667   3.957   5.970   2.070 -0.1284  0.2406  0.1613
10972SOL    HW237668   3.894   5.921   2.213  0.2299 -1.6917 -0.3279
10973SOL     OW37669   2.539   8.768   5.104 -0.5641 -0.0079  0.2917
10973SOL    HW137670   2.608   8.821   5.155  0.5363 -1.9248  0.8188
10973SOL    HW237671   2.499   8.827   5.034  1.3200  1.2823  0.2326
10974SOL     OW37672   7.227   8.665   6.314 -0.2270 -0.2800 -0.0387
10974SOL    HW137673   7.257   8.569   6.310  0.1150 -0.1637 -0.3607
10974SOL    HW237674   7.267   8.709   6.394  0.9821  0.0384 -0.7981
10975SOL     OW37675   4.837   2.935   4.632 -0.2257 -0.1125  0.6787
10975SOL    HW137676   4.842   3.017   4.575  0.3881 -0.0337  0.8422
10975SOL    HW237677   4.914   2.934   4.696 -0.3073 -0.7427  0.7740
10977SOL     OW37678   6.402   9.397   5.675  0.0482 -0.2533 -0.2611
10977SOL    HW137679   6.387   9.441   5.764 -1.3141 -1.4091  0.0926
10977SOL    HW237680   6.357   9.451   5.603 -0.4392 -0.3241 -0.0099
10978SOL     OW37681   8.821   1.180   0.035  0.0589 -0.0770  0.1655
10978SOL    HW137682   8.872   1.266   0.037  2.8653 -1.6241 -1.8694
10978SOL    HW237683   8.724   1.199   0.017  0.4319  2.6982  0.8737
10979SOL     OW37684   1.507   9.264   4.888  0.3158 -0.0129  0.0706
10979SOL    HW137685   1.594   9.313   4.893  0.3394  0.1297 -1.7321
10979SOL    HW237686   1.432   9.329   4.882  0.3545 -0.1735 -2.4293
10980SOL     OW37687   8.373   3.353   5.126 -0.2372 -0.3930  0.1586
10980SOL    HW137688   8.334   3.415   5.194 -0.6573  0.3447 -0.7322
10980SOL    HW237689   8.302   3.291   5.092 -0.2968 -0.0392 -0.3814
10981SOL     OW37690   2.379   0.337   6.252 -0.1142  0.2563  0.4646
10981SOL    HW137691   2.380   0.366   6.348  0.2365 -0.7037  0.7564
10981SOL    HW237692   2.389   0.417   6.193 -0.9988  0.9258  1.2066
10982SOL     OW37693   2.932   1.843   2.878 -0.3258  0.4210 -0.1312
10982SOL    HW137694   3.002   1.915   2.875  0.8849 -0.6886  0.5997
10982SOL    HW237695   2.952   1.775   2.808 -0.9603  0.3442 -0.2372
10985SOL     OW37696   9.988   8.332   4.187  0.2048 -0.2423  0.5041
10985SOL    HW137697   9.951   8.279   4.111 -0.8721 -0.1364  0.9586
10985SOL    HW237698  10.024   8.419   4.152 -1.3210  0.2981  0.2708
10986SOL     OW37699   7.133   1.618   2.139  0.0781  0.4869 -0.2740
10986SOL    HW137700   7.228   1.639   2.162 -0.2735  1.6272  0.1851
10986SOL    HW237701   7.077   1.624   2.221 -0.3510 -0.4168 -0.5029
10987SOL     OW37702   1.003   9.869   2.593 -0.5303  0.2682 -0.4652
10987SOL    HW137703   0.911   9.834   2.613 -0.6161 -0.3706 -1.9457
10987SOL    HW237704   1.063   9.794   2.566  0.0346  0.8800 -0.9345
10988SOL     OW37705   4.839   4.720   0.758 -0.4372  0.1754  0.3293
10988SOL    HW137706   4.836   4.621   0.774 -0.8499  0.3365  1.2551
10988SOL    HW237707   4.747   4.751   0.733 -0.1776  0.2256 -0.5677
10989SOL     OW37708   0.099   4.558   6.056 -0.2437  0.4571 -0.4643
10989SOL    HW137709   0.164   4.500   6.104 -1.6295  1.1207  2.3277
10989SOL    HW237710   0.008   4.547   6.097 -1.5501  0.8549 -3.1448
10990SOL     OW37711   1.231   6.612   3.205 -0.7675 -0.6167 -0.0628
10990SOL    HW137712   1.252   6.694   3.153 -1.5318 -0.3926 -0.0322
10990SOL    HW237713   1.314   6.559   3.221 -0.3436 -0.0597 -0.4438
10992SOL     OW37714   0.461   4.782   1.586 -0.5288 -0.2044 -0.7840
10992SOL    HW137715   0.464   4.840   1.505 -0.2014 -0.5256 -1.0019
10992SOL    HW237716   0.375   4.798   1.635 -0.2313  0.8221 -0.5762
10993SOL     OW37717   4.427   0.263   6.117 -0.1661 -0.3704  0.5691
10993SOL    HW137718   4.522   0.279   6.145  0.0971 -1.1936  0.1362
10993SOL    HW237719   4.378   0.215   6.190 -0.1330 -0.3395  0.6117
10994SOL     OW37720   5.058   7.613   1.995 -0.0606  0.0913 -0.6929
10994SOL    HW137721   4.973   7.647   1.955 -0.1133  1.7634  0.7499
10994SOL    HW237722   5.111   7.564   1.926 -1.9233 -0.4733 -1.7495
10995SOL     OW37723   4.696   7.391   4.417 -0.2237 -0.1579  0.9868
10995SOL    HW137724   4.598   7.379   4.430 -0.8221  1.5169 -1.6710
10995SOL    HW237725   4.730   7.327   4.349 -0.0004  1.0897 -0.0903
10996SOL     OW37726   8.191   3.555   4.546  0.1063  0.3525 -0.5251
10996SOL    HW137727   8.187   3.655   4.553  0.2343  0.4790 -1.9354
10996SOL    HW237728   8.179   3.514   4.636 -0.8935  1.6159 -0.0714
10997SOL     OW37729   3.665   5.460   2.923 -0.4387 -0.0650 -0.1873
10997SOL    HW137730   3.733   5.399   2.964 -0.6674 -0.1021  0.1451
10997SOL    HW237731   3.593   5.406   2.881 -0.3052 -0.0254 -0.4679
10998SOL     OW37732   9.195   9.434   3.072 -0.0156  0.8610  0.0811
10998SOL    HW137733   9.274   9.493   3.057  1.6437 -1.7871 -1.9581
10998SOL    HW237734   9.203   9.352   3.016 -2.7644 -0.8551  2.0637
10999SOL     OW37735   0.420   3.730   4.114 -0.1669 -0.2939 -0.2571
10999SOL    HW137736   0.336   3.777   4.142  1.0096  1.1258  0.9507
10999SOL    HW237737   0.489   3.797   4.088  1.2397 -1.3750  0.6078
11000SOL     OW37738   8.496   2.188   0.229 -0.1481  0.3525 -0.4067
11000SOL    HW137739   8.467   2.093   0.216  2.5332 -0.4217 -0.8654
11000SOL    HW237740   8.478   2.215   0.324  0.9161 -1.2582  0.2685
11002SOL     OW37741   2.520   7.038   5.149  0.2310  0.3883  0.2223
11002SOL    HW137742   2.484   7.109   5.209 -1.2250 -0.7919  0.7764
11002SOL    HW237743   2.606   7.069   5.108  2.1669  0.5585  4.2111
11003SOL     OW37744   4.235   2.972   0.997  0.4673  0.4059  0.0994
11003SOL    HW137745   4.173   2.946   0.922 -0.0023  0.2350  0.5426
11003SOL    HW237746   4.184   3.027   1.064  0.5555 -0.5140  0.9358
11004SOL     OW37747   0.137   7.824   4.122  0.4373  0.2539  0.4896
11004SOL    HW137748   0.188   7.750   4.078 -0.7520 -0.1268 -0.2530
11004SOL    HW237749   0.195   7.905   4.127  0.5062  0.4019 -2.0257
11005SOL     OW37750   3.125   7.145   4.019 -0.8031 -0.0681  0.4457
11005SOL    HW137751   3.117   7.055   4.061 -0.8280  1.1861  3.1953
11005SOL    HW237752   3.219   7.160   3.989 -0.6818 -0.7846  0.4652
11006SOL     OW37753   1.760   3.462   1.110 -0.3029  0.4514 -0.1761
11006SOL    HW137754   1.660   3.468   1.114 -0.4316  0.0845 -2.4166
11006SOL    HW237755   1.786   3.379   1.060  1.1652 -0.2893  1.7383
11007SOL     OW37756   8.252   9.715   1.861  0.0399 -0.0351 -0.0368
11007SOL    HW137757   8.297   9.629   1.837  0.4436 -0.7826  3.1289
11007SOL    HW237758   8.300   9.757   1.938 -2.4416  1.1032  0.9265
11008SOL     OW37759   9.598   9.705   6.353 -0.7134 -0.2049 -1.0141
11008SOL    HW137760   9.516   9.762   6.345 -0.0135  1.0067  0.1630
11008SOL    HW237761   9.599   9.638   6.279 -1.4281  1.4704 -2.5890
11009SOL     OW37762   4.755   9.730   5.394 -0.1044  0.2815 -0.0206
11009SOL    HW137763   4.748   9.780   5.480  0.3465  0.7428 -0.2574
11009SOL    HW237764   4.818   9.653   5.405 -2.2932 -1.4549  0.9289
11010SOL     OW37765   0.825   4.539   3.317 -0.0560 -0.0655  0.1338
11010SOL    HW137766   0.813   4.600   3.395  1.1303 -1.2544  1.2756
11010SOL    HW237767   0.887   4.581   3.250  1.4732 -0.4065  1.3334
11011SOL     OW37768   9.707   0.376   4.110 -0.2948  0.5838  0.4895
11011SOL    HW137769   9.777   0.316   4.072  0.3269  1.0794  0.8532
11011SOL    HW237770   9.706   0.368   4.210 -1.5332 -0.2830  0.4207
11013SOL     OW37771   3.475   6.728   4.210  0.2187 -0.3071  0.2709
11013SOL    HW137772   3.479   6.628   4.202 -0.6695 -0.4025  0.9198
11013SOL    HW237773   3.482   6.753   4.307 -1.2730  0.1627  0.2689
11014SOL     OW37774   1.358   9.544   3.724  0.3420 -0.1401  0.8665
11014SOL    HW137775   1.426   9.522   3.794  0.4034 -0.7502  0.6109
11014SOL    HW237776   1.288   9.473   3.722  0.8955 -0.6466 -0.4076
11016SOL     OW37777   3.824   7.913   2.293 -0.4304 -0.6349  0.1002
11016SOL    HW137778   3.842   7.989   2.355 -0.9697 -0.2249 -0.2436
11016SOL    HW237779   3.796   7.833   2.346 -0.1234 -0.5170  0.4410
11017SOL     OW37780   9.114   4.400   5.766  0.2306 -0.3115 -0.4330
11017SOL    HW137781   9.203   4.399   5.721  0.2225  0.3316 -0.4687
11017SOL    HW237782   9.046   4.440   5.705  0.0517 -0.1851 -0.1540
11018SOL     OW37783   6.031   2.614   5.229 -0.4576  0.0864  0.4479
11018SOL    HW137784   5.951   2.574   5.272  0.4350 -1.9616  0.2813
11018SOL    HW237785   6.010   2.639   5.135 -0.5986 -1.5136  0.0444
11019SOL     OW37786   0.305   2.529   3.033 -0.0271  0.8620  0.3379
11019SOL    HW137787   0.345   2.438   3.042  1.2537  1.4673  0.9164
11019SOL    HW237788   0.211   2.528   3.067  0.1965 -0.0947  0.9291
11020SOL     OW37789   7.820   0.914   4.504 -0.1342 -0.1530 -0.3758
11020SOL    HW137790   7.804   0.816   4.507 -0.0633 -0.1466  0.2581
11020SOL    HW237791   7.786   0.956   4.588  0.0580  0.3289 -0.5374
11021SOL     OW37792   0.751   9.103   0.620  0.0426  0.1169  0.2341
11021SOL    HW137793   0.737   9.025   0.681  1.8214 -1.9750 -1.9010
11021SOL    HW237794   0.840   9.144   0.637  0.5158 -0.4285 -0.8737
11022SOL     OW37795   7.064   8.643   4.048  0.5627 -0.0123 -0.4788
11022SOL    HW137796   7.027   8.659   3.957 -0.7706  0.9614  0.2165
11022SOL    HW237797   7.114   8.556   4.050  0.0642 -0.3343 -1.9625
11025SOL     OW37798   9.206   3.370   3.174  0.1055  0.3304  0.3074
11025SOL    HW137799   9.165   3.417   3.252 -0.6879 -0.6490  0.4863
11025SOL    HW237800   9.153   3.288   3.152  0.3098  0.6011 -1.2764
11026SOL     OW37801   9.843   2.914   4.294  0.1347  0.4472 -0.3963
11026SOL    HW137802   9.791   2.841   4.248 -1.8127  0.1312  2.2075
11026SOL    HW237803   9.792   3.000   4.287 -1.0405  0.0332  2.6055
11027SOL     OW37804   1.502   3.713   5.492  0.0338 -0.1936  0.0716
11027SOL    HW137805   1.562   3.768   5.550 -1.4466  0.4643  1.0279
11027SOL    HW237806   1.534   3.618   5.490 -0.7018 -0.5447  3.1724
11029SOL     OW37807   1.060   8.240   1.636 -0.2914  0.4306  0.8499
11029SOL    HW137808   1.008   8.284   1.563 -0.8857  1.3420  1.8134
11029SOL    HW237809   1.105   8.159   1.600 -0.1129  1.1838 -0.6735
11030SOL     OW37810   2.145   2.767   2.195  0.0611 -0.1522 -0.6979
11030SOL    HW137811   2.217   2.837   2.196  0.0019 -0.0998 -0.1829
11030SOL    HW237812   2.076   2.793   2.128 -0.5580  0.8963  0.3266
11031SOL     OW37813   0.418   9.203   2.020  0.0586 -0.4127  0.3173
11031SOL    HW137814   0.375   9.121   1.981 -1.1888 -0.3797  1.6239
11031SOL    HW237815   0.516   9.202   1.997 -0.2145 -1.5237 -0.9085
11032SOL     OW37816   8.457   8.356   6.257  0.1695  0.1185 -0.1805
11032SOL    HW137817   8.523   8.431   6.252  0.6076 -0.2581 -0.0690
11032SOL    HW237818   8.489   8.279   6.202  0.1669 -0.3260  0.4314
11033SOL     OW37819   9.851   8.346   4.970  0.0735  0.1279 -0.5982
11033SOL    HW137820   9.898   8.278   4.913 -2.7506 -2.1327 -0.3271
11033SOL    HW237821   9.816   8.303   5.053  0.8100  2.5918  1.0583
11035SOL     OW37822   0.289   3.565   3.661 -0.5415  0.3004 -0.1734
11035SOL    HW137823   0.316   3.471   3.638 -0.3378  0.2487  0.2701
11035SOL    HW237824   0.330   3.628   3.595 -1.1620  0.0253 -0.8227
11036SOL     OW37825   9.234   6.213   0.578  0.2624 -0.2544 -0.6318
11036SOL    HW137826   9.282   6.299   0.596 -3.1212  1.4164  0.7732
11036SOL    HW237827   9.240   6.191   0.481  2.0100  1.0215 -0.8395
11037SOL     OW37828   9.886   6.086   5.756  0.4030 -0.0650  0.2269
11037SOL    HW137829   9.956   6.158   5.754 -0.0833  0.5743  3.2976
11037SOL    HW237830   9.917   6.011   5.815 -0.4719 -0.8861 -0.3483
11040SOL     OW37831   0.606   5.294   4.047  0.2511  1.0294 -0.3266
11040SOL    HW137832   0.570   5.226   3.982  0.0365  1.7517 -0.9725
11040SOL    HW237833   0.698   5.267   4.075 -1.2618 -1.5891  2.4212
11042SOL     OW37834   3.611   0.625   2.749 -0.1140  0.0510 -0.1203
11042SOL    HW137835   3.532   0.599   2.694 -0.5844 -0.5393  0.8192
11042SOL    HW237836   3.580   0.652   2.841  0.6978  0.5882 -0.0015
11043SOL     OW37837   3.073   0.289   2.077 -0.5073  0.1292 -0.3554
11043SOL    HW137838   3.080   0.380   2.035 -0.0791  0.0116 -0.5425
11043SOL    HW237839   3.130   0.225   2.026  0.2267  0.0464  0.5749
11044SOL     OW37840   9.140   8.193   1.389  0.3402 -0.1071  0.0832
11044SOL    HW137841   9.106   8.190   1.295 -0.3198  1.0535  0.2749
11044SOL    HW237842   9.064   8.176   1.452  0.3335  1.2769  0.4752
11045SOL     OW37843   0.553   0.717   4.042  0.1241 -0.1177  0.6415
11045SOL    HW137844   0.646   0.695   4.071  0.1319 -0.0653  0.6583
11045SOL    HW237845   0.488   0.682   4.109  0.2469  1.7883  1.8021
11046SOL     OW37846   4.688   3.645   5.752 -0.3307  0.2966 -0.5816
11046SOL    HW137847   4.783   3.665   5.774  0.8645 -1.8606 -3.4109
11046SOL    HW237848   4.634   3.729   5.758  2.0155  1.8143 -0.1836
11048SOL     OW37849   5.868   0.962   6.008  0.4776 -0.3770  0.4352
11048SOL    HW137850   5.848   1.060   6.000  0.4911 -0.4992 -1.1676
11048SOL    HW237851   5.965   0.946   5.990  0.6344 -0.6032  1.4512
11049SOL     OW37852   0.984   7.922   0.635 -0.6293 -0.3575  0.3405
11049SOL    HW137853   0.984   7.868   0.551  1.9015  0.1784 -0.0498
11049SOL    HW237854   0.945   7.868   0.710  1.4704 -2.5870 -0.1329
11050SOL     OW37855   9.036   4.947   1.209  0.0474 -0.3916 -0.1694
11050SOL    HW137856   9.055   4.858   1.168 -0.4803 -0.2980 -0.6305
11050SOL    HW237857   9.047   5.019   1.140 -0.5411 -0.2000 -0.0662
11051SOL     OW37858   7.862   2.517   1.033 -0.3635  0.3497 -0.0993
11051SOL    HW137859   7.896   2.586   0.970 -0.6246  0.8277  0.2789
11051SOL    HW237860   7.913   2.432   1.021  1.2273  1.1729  0.7258
11052SOL     OW37861   4.084   7.200   1.832 -0.0274  0.7203  0.4165
11052SOL    HW137862   4.084   7.269   1.759 -0.0502  1.6592  1.2815
11052SOL    HW237863   3.994   7.199   1.875 -0.0670  0.0421  0.3192
11053SOL     OW37864   4.891   9.760   5.154  0.0572 -0.4720 -0.6422
11053SOL    HW137865   4.914   9.853   5.128 -0.9083 -0.2674 -0.7749
11053SOL    HW237866   4.853   9.759   5.246  1.3058 -0.9055 -0.1196
11054SOL     OW37867   1.370   1.743   4.395  0.3974 -1.1274 -0.2876
11054SOL    HW137868   1.417   1.675   4.339  2.9900 -1.2082  1.8916
11054SOL    HW237869   1.413   1.833   4.382 -1.7142 -0.2736 -1.6164
11056SOL     OW37870   2.577   0.587   2.528  0.2584  0.1748 -0.4809
11056SOL    HW137871   2.638   0.657   2.492  0.5989  0.3078  0.3318
11056SOL    HW237872   2.553   0.522   2.456  1.2865  0.1762 -0.8301
11057SOL     OW37873   4.673   9.004   1.452 -0.0874 -0.2889  0.2365
11057SOL    HW137874   4.654   8.924   1.509 -1.2162  0.2017  0.5688
11057SOL    HW237875   4.602   9.073   1.468  0.6896  0.6359 -0.2991
11058SOL     OW37876   0.168   8.958   1.790  0.3539 -0.1588  0.1574
11058SOL    HW137877   0.142   8.874   1.742 -0.3472 -0.0746  0.3837
11058SOL    HW237878   0.264   8.978   1.771 -0.0458  0.1786 -1.6783
11059SOL     OW37879   4.071   8.907   3.259 -0.2133 -0.3426 -0.0373
11059SOL    HW137880   4.068   8.906   3.358 -0.6269 -1.3344 -0.0533
11059SOL    HW237881   3.988   8.950   3.223 -0.7365 -1.2852  0.0261
11060SOL     OW37882   9.099   7.880   4.621 -0.4299  0.0265 -0.2113
11060SOL    HW137883   9.069   7.926   4.705  0.5583  0.0645  0.1365
11060SOL    HW237884   9.160   7.942   4.570  1.7370 -1.2306  0.7647
11061SOL     OW37885   7.676   0.351   2.748  0.3011 -0.0352  0.0322
11061SOL    HW137886   7.652   0.370   2.844 -1.8861 -1.5799 -0.1517
11061SOL    HW237887   7.621   0.410   2.688  2.1093  1.3590 -0.2718
11062SOL     OW37888   7.685   4.195   6.047  0.7591  0.1593  0.2982
11062SOL    HW137889   7.622   4.118   6.055  0.8817  0.2497  2.5108
11062SOL    HW237890   7.772   4.172   6.091  1.0516  1.2855  0.3283
11063SOL     OW37891   2.087   0.834   5.999  0.0450 -0.2774 -0.6507
11063SOL    HW137892   2.040   0.755   5.960  0.5901 -0.9778  0.0996
11063SOL    HW237893   2.040   0.864   6.082  0.4115 -0.4302 -0.3864
11064SOL     OW37894   1.109   6.110   6.361  0.0380 -0.0025 -0.1107
11064SOL    HW137895   1.182   6.176   6.381  0.2928  0.1762 -1.6207
11064SOL    HW237896   1.020   6.153   6.380  0.2429  0.4224 -0.0996
11066SOL     OW37897   7.710   9.900   0.536 -0.0725 -0.4125  0.2709
11066SOL    HW137898   7.733   9.883   0.440  1.6525  1.0345  0.4103
11066SOL    HW237899   7.646   9.976   0.542  0.8151  0.3351  0.3387
11068SOL     OW37900   3.250   4.707   3.609  0.1564  0.1114  0.5284
11068SOL    HW137901   3.207   4.616   3.617 -0.6292  0.4636  0.3477
11068SOL    HW237902   3.185   4.771   3.569  0.0274  1.2362  2.4626
11069SOL     OW37903   2.620   3.194   1.288  0.1490 -0.3940  0.1674
11069SOL    HW137904   2.560   3.247   1.228 -2.1792 -0.9718  1.9035
11069SOL    HW237905   2.636   3.104   1.249 -1.7747 -0.9570  0.6141
11070SOL     OW37906   2.137   5.943   5.307 -0.4561 -0.7108 -0.2997
11070SOL    HW137907   2.054   5.915   5.260 -0.8858  0.3389 -0.1760
11070SOL    HW237908   2.215   5.937   5.245 -0.9616  0.3355 -1.0486
11072SOL     OW37909   0.404   3.259   2.826  0.4548 -0.3755 -0.1131
11072SOL    HW137910   0.475   3.189   2.825  1.3481  0.5264 -0.8370
11072SOL    HW237911   0.372   3.271   2.920  2.0601 -0.0170  0.4136
11073SOL     OW37912   3.026   3.576   1.922 -0.2157  0.2103  0.1463
11073SOL    HW137913   2.996   3.645   1.989  0.7391 -0.0948  0.8978
11073SOL    HW237914   2.991   3.601   1.832 -0.7834  1.1058  0.5960
11074SOL     OW37915   8.658   4.425   4.989 -0.1476 -0.7437  0.5323
11074SOL    HW137916   8.741   4.400   5.039  0.7651  1.1989  0.0499
11074SOL    HW237917   8.681   4.443   4.893 -0.8702  1.0792  0.6852
11076SOL     OW37918   9.912   6.684   2.944  0.2804 -0.2657  0.0196
11076SOL    HW137919   9.998   6.634   2.953  1.0068  1.0015  0.3678
11076SOL    HW237920   9.925   6.777   2.979 -1.2244 -0.0569  0.0307
11077SOL     OW37921   3.485   9.336   3.863  0.0525 -0.3970  0.0500
11077SOL    HW137922   3.573   9.304   3.898  0.2196 -0.8619 -0.7724
11077SOL    HW237923   3.468   9.429   3.894  0.6114 -0.4859  0.6214
11079SOL     OW37924   6.149   5.612   0.777 -0.4123  0.3027  0.4160
11079SOL    HW137925   6.139   5.594   0.679  0.8003 -0.0297  0.3503
11079SOL    HW237926   6.071   5.666   0.809 -0.4309  1.0671 -0.8845
11080SOL     OW37927   4.296   2.659   3.260  0.3107 -0.9198 -0.1401
11080SOL    HW137928   4.271   2.563   3.272  1.0379 -0.9743  1.0871
11080SOL    HW237929   4.276   2.709   3.345  2.6684 -0.6067  0.2776
11081SOL     OW37930   7.080   3.017   0.204 -0.3507 -0.1356 -0.6468
11081SOL    HW137931   7.064   3.075   0.283 -1.8086  1.5923 -2.1589
11081SOL    HW237932   7.071   3.071   0.120 -1.9824 -2.5646 -2.1197
11082SOL     OW37933   1.244   1.449   3.749  1.2027  0.1623  0.0784
11082SOL    HW137934   1.213   1.475   3.841 -0.2849  0.4333 -0.4939
11082SOL    HW237935   1.338   1.414   3.755  0.8009 -0.7029  1.8532
11083SOL     OW37936   7.151   5.591   0.853 -0.9597  0.0075  0.1469
11083SOL    HW137937   7.169   5.689   0.867  0.3445 -0.3716  1.2250
11083SOL    HW237938   7.114   5.577   0.761 -2.4324  1.6693  0.4564
11084SOL     OW37939   4.449   3.798   5.756  0.3818  0.4705  0.1844
11084SOL    HW137940   4.359   3.808   5.797  0.0477  0.0594 -0.4508
11084SOL    HW237941   4.443   3.740   5.675  1.2216  0.4073  0.1622
11085SOL     OW37942   9.963   4.432   0.881  0.0277  0.4609 -0.1833
11085SOL    HW137943  10.008   4.460   0.797 -1.2832 -0.7549 -1.3122
11085SOL    HW237944   9.866   4.414   0.863 -0.3994  0.7527  1.7031
11086SOL     OW37945   8.106   4.085   2.090 -0.1029  0.1309 -0.3674
11086SOL    HW137946   8.119   4.095   2.189 -2.2988 -0.0678 -0.0300
11086SOL    HW237947   8.182   4.032   2.052  0.7148  0.1167  1.2279
11088SOL     OW37948   2.897   2.352   2.609 -0.2889 -1.1479 -0.5032
11088SOL    HW137949   2.952   2.345   2.691  3.0589  1.2043 -2.4097
11088SOL    HW237950   2.843   2.436   2.612  2.4117  0.7365 -2.0601
11090SOL     OW37951   0.153   3.231   5.273 -0.2746  0.2553  0.6020
11090SOL    HW137952   0.191   3.322   5.279 -1.3715  0.7539  0.1790
11090SOL    HW237953   0.193   3.182   5.195 -1.4120  1.2203 -0.6089
11091SOL     OW37954   6.149   2.834   0.792 -0.1683 -0.2610  0.4078
11091SOL    HW137955   6.185   2.775   0.864  2.3266 -1.4217 -1.6986
11091SOL    HW237956   6.054   2.810   0.774  1.1878 -4.8170 -1.4033
11092SOL     OW37957   3.387   7.500   4.274  0.0003  0.2364  0.7280
11092SOL    HW137958   3.313   7.510   4.341 -2.4289 -2.2878 -1.4496
11092SOL    HW237959   3.377   7.568   4.202  0.5221  0.6728  1.0668
11093SOL     OW37960   7.908   3.509   1.387  0.0916 -0.4498  0.2369
11093SOL    HW137961   7.908   3.580   1.316  1.6006 -0.5085  0.1657
11093SOL    HW237962   7.941   3.548   1.473 -2.3292 -0.2181  1.0974
11094SOL     OW37963   2.303   7.336   5.546 -0.0512  0.1515 -0.2667
11094SOL    HW137964   2.324   7.433   5.532  0.1467  0.0535 -0.6774
11094SOL    HW237965   2.206   7.320   5.529 -0.1526  0.3363  0.1295
11095SOL     OW37966   8.432   8.504   5.745  0.2704  0.3430  0.3340
11095SOL    HW137967   8.441   8.527   5.648  0.1013  0.4896  0.3534
11095SOL    HW237968   8.483   8.570   5.800 -1.6789  1.7359  0.5058
11098SOL     OW37969   6.355   7.431   3.836 -0.0846 -0.2823 -0.0266
11098SOL    HW137970   6.389   7.485   3.759  1.5755 -2.0700 -0.5907
11098SOL    HW237971   6.256   7.416   3.825 -0.1276  0.7265 -1.0363
11099SOL     OW37972   8.981   7.043   2.935 -0.0993 -0.0034  0.0282
11099SOL    HW137973   9.080   7.051   2.935 -0.2927  2.7826  1.3445
11099SOL    HW237974   8.946   7.055   2.842  0.6397  1.0228 -0.1113
11100SOL     OW37975   7.206   7.007   5.305  0.4977  0.2474 -0.2846
11100SOL    HW137976   7.108   7.004   5.288  0.3932 -2.0581  0.6065
11100SOL    HW237977   7.252   7.052   5.228 -1.0550 -0.2607 -1.5329
11102SOL     OW37978   8.746   1.261   4.189 -0.0900 -0.3537  0.7833
11102SOL    HW137979   8.749   1.206   4.105 -0.4566 -0.5376  0.8862
11102SOL    HW237980   8.673   1.227   4.248 -0.6666  0.5696  0.6203
11103SOL     OW37981   1.619   2.974   3.589  0.1214 -0.0201 -0.2129
11103SOL    HW137982   1.551   3.039   3.556 -2.1855 -2.6796 -0.8944
11103SOL    HW237983   1.622   2.976   3.689  0.2026  1.2457 -0.2358
11104SOL     OW37984   0.326   1.160   4.429  0.2395  0.0946  0.6409
11104SOL    HW137985   0.391   1.085   4.415 -0.0837  0.3239 -2.3953
11104SOL    HW237986   0.257   1.132   4.496  0.8133 -1.8777  0.4350
11105SOL     OW37987   0.123   1.457   3.591 -0.5434  0.4522  0.3694
11105SOL    HW137988   0.071   1.531   3.633 -1.6105  0.9956 -1.8053
11105SOL    HW237989   0.070   1.417   3.516  1.3346 -0.3272 -0.5881
11106SOL     OW37990   9.470   2.524   4.635 -0.6613  0.0903  0.3849
11106SOL    HW137991   9.412   2.582   4.579 -0.9270 -0.0882  0.4730
11106SOL    HW237992   9.435   2.522   4.729 -1.4709 -1.3283  0.0668
11108SOL     OW37993   4.431   0.580   2.024 -0.4207  0.1198 -0.7287
11108SOL    HW137994   4.346   0.618   2.060 -0.4518 -1.0016  0.4211
11108SOL    HW237995   4.508   0.639   2.051 -0.6988  0.5060 -0.7798
11109SOL     OW37996   9.956   3.165   4.895 -0.3695  0.6062  0.1697
11109SOL    HW137997   9.930   3.203   4.807  0.3506  2.9308  0.9392
11109SOL    HW237998   9.887   3.188   4.963  0.5305  1.3244  0.8444
11110SOL     OW37999   1.927   0.708   4.115  0.1226  0.3174  0.0941
11110SOL    HW138000   2.021   0.703   4.082  0.5565  2.0559  0.9921
11110SOL    HW238001   1.866   0.662   4.050  1.7279 -2.0393  0.1866
11113SOL     OW38002   9.478   4.682   5.353  0.4815 -0.5470  0.1701
11113SOL    HW138003   9.471   4.782   5.352 -0.9897 -0.6406  0.5403
11113SOL    HW238004   9.574   4.656   5.365  0.7964  0.8190  0.7466
11114SOL     OW38005   8.675   3.522   4.800 -0.2588 -0.5457  0.1127
11114SOL    HW138006   8.700   3.607   4.753 -1.7424  0.8049  1.6784
11114SOL    HW238007   8.690   3.444   4.739  1.6668  0.7861 -1.1469
11115SOL     OW38008   9.541   5.119   2.577  0.8239  0.6036  0.4118
11115SOL    HW138009   9.467   5.102   2.642  0.2055 -0.4148 -0.5314
11115SOL    HW238010   9.530   5.058   2.498  2.4490  0.7212  0.0815
11116SOL     OW38011   8.609   8.109   5.325  0.3319  0.1594 -0.2755
11116SOL    HW138012   8.581   8.025   5.372  0.0003  0.4023 -0.0441
11116SOL    HW238013   8.547   8.184   5.349  1.6592  0.8953  0.8778
11118SOL     OW38014   0.398   5.869   0.583  0.7169  0.1350 -0.1485
11118SOL    HW138015   0.409   5.793   0.519 -1.5078  0.6998 -1.2328
11118SOL    HW238016   0.330   5.845   0.653 -0.3223  1.2647 -0.7504
11119SOL     OW38017   1.866   1.719   3.535  0.1056 -0.4689 -0.5477
11119SOL    HW138018   1.816   1.657   3.596 -0.8770  1.4979  0.6789
11119SOL    HW238019   1.961   1.727   3.566 -0.7198  1.5589  1.5559
11120SOL     OW38020   1.078   1.822   4.303 -0.5732  0.0973  0.5562
11120SOL    HW138021   1.170   1.788   4.321 -0.7444  1.0913  3.6387
11120SOL    HW238022   1.083   1.911   4.258 -0.0469 -0.2857 -0.1446
11121SOL     OW38023   0.596   0.870   0.458 -0.3856  0.0316 -0.1431
11121SOL    HW138024   0.686   0.842   0.490 -0.6283  1.0222  1.4638
11121SOL    HW238025   0.537   0.888   0.537 -2.0643 -0.8401 -1.1723
11123SOL     OW38026   5.845   0.347   6.422 -0.2342  0.4385  0.0746
11123SOL    HW138027   5.893   0.279   6.366 -0.4013 -1.0390  1.6910
11123SOL    HW238028   5.875   0.340   6.517 -1.8535  1.1544  0.6653
11124SOL     OW38029   3.209   0.602   6.257 -1.1596 -0.0831  0.2532
11124SOL    HW138030   3.116   0.572   6.273 -1.0151  0.0214  1.3326
11124SOL    HW238031   3.270   0.560   6.324 -0.6491  0.9451  0.4465
11125SOL     OW38032   6.885   7.528   5.939 -0.4572  0.4011  0.2175
11125SOL    HW138033   6.859   7.447   5.992  0.0269  1.2501  1.7984
11125SOL    HW238034   6.806   7.590   5.932 -0.4198  0.4551  0.2666
11128SOL     OW38035   2.782   6.170   1.341 -0.2221  0.4902 -0.0606
11128SOL    HW138036   2.738   6.122   1.417 -0.1172  0.8049  0.1969
11128SOL    HW238037   2.808   6.103   1.271 -1.7135  0.3753 -0.5216
11129SOL     OW38038   3.893   6.670   1.157 -0.3023  0.6705 -0.2168
11129SOL    HW138039   3.987   6.689   1.127 -0.1778 -0.9767 -0.9320
11129SOL    HW238040   3.888   6.676   1.256  0.2517  2.0652 -0.2634
11130SOL     OW38041   0.748   0.701   2.807 -0.0818  0.5612  0.0701
11130SOL    HW138042   0.846   0.707   2.828  0.1205 -1.1008 -0.2849
11130SOL    HW238043   0.707   0.791   2.815  1.5321  1.3312 -0.0201
11131SOL     OW38044   9.444   6.914   0.179  0.4284 -0.1831 -0.1732
11131SOL    HW138045   9.474   6.819   0.186  1.8190  0.1176 -1.5621
11131SOL    HW238046   9.427   6.951   0.270 -1.9298 -2.3016  0.2880
11132SOL     OW38047   0.451   9.277   2.669  0.3659 -0.4805  0.3412
11132SOL    HW138048   0.362   9.287   2.625 -0.0116 -0.1551  1.1739
11132SOL    HW238049   0.521   9.321   2.613 -0.2898  1.0066  0.6567
11134SOL     OW38050   5.811   8.507   2.701  0.3066  0.3815  1.0961
11134SOL    HW138051   5.817   8.452   2.618  1.2681 -1.0542  2.0903
11134SOL    HW238052   5.832   8.449   2.781  1.5190  2.2442  2.1577
11136SOL     OW38053   1.144   0.480   4.264 -0.1716  0.1007 -0.1986
11136SOL    HW138054   1.151   0.459   4.166 -1.4328 -1.3644 -0.0031
11136SOL    HW238055   1.224   0.445   4.312  0.9505  1.7369 -0.8384
11137SOL     OW38056   1.874   3.742   5.202 -0.6834 -0.2389  0.3027
11137SOL    HW138057   1.795   3.766   5.145 -0.3492  1.2927  0.4740
11137SOL    HW238058   1.946   3.810   5.190  1.0836 -2.2348 -0.7191
11138SOL     OW38059   8.471   6.970   5.629  0.3907 -0.5656  0.1646
11138SOL    HW138060   8.503   6.908   5.700 -0.0634 -0.2837  0.6133
11138SOL    HW238061   8.377   6.948   5.604  0.4770 -0.5316 -0.2039
11139SOL     OW38062   8.412   7.946   6.027 -0.0070 -0.1498 -0.1982
11139SOL    HW138063   8.461   7.875   5.977  0.1622 -0.2249  0.0738
11139SOL    HW238064   8.346   7.989   5.966 -0.3646 -0.7845 -0.2614
11140SOL     OW38065   7.636   8.653   2.362  0.9145 -0.5849 -0.8320
11140SOL    HW138066   7.595   8.693   2.444 -1.1582  0.3372 -2.2910
11140SOL    HW238067   7.659   8.557   2.381 -1.7215 -1.0746  0.1240
11141SOL     OW38068   3.134   3.798   4.050  0.0052  0.8977  0.2289
11141SOL    HW138069   3.066   3.725   4.056  1.4552 -0.6630 -1.3117
11141SOL    HW238070   3.127   3.858   4.129 -2.7768  0.4542  0.3571
11142SOL     OW38071   9.324   8.726   5.511 -0.7665  0.5698 -0.3268
11142SOL    HW138072   9.251   8.677   5.557 -0.8589  0.0367 -1.0413
11142SOL    HW238073   9.332   8.694   5.417  0.2707  0.7451 -0.3061
11143SOL     OW38074   5.590   9.383   2.524 -0.1713  0.0382  0.1190
11143SOL    HW138075   5.599   9.324   2.604  0.0338  0.2203  0.2305
11143SOL    HW238076   5.619   9.332   2.442 -1.2514 -0.4510  0.0301
11144SOL     OW38077   8.663   2.167   6.003  0.4449  0.0833  0.2662
11144SOL    HW138078   8.661   2.190   6.100  0.9065 -2.2763  0.8757
11144SOL    HW238079   8.595   2.096   5.983 -0.4421  1.3533 -1.3804
11145SOL     OW38080   3.551   5.519   1.642 -0.1695  0.5258 -0.3377
11145SOL    HW138081   3.507   5.609   1.633 -1.9639 -0.4108 -1.2290
11145SOL    HW238082   3.568   5.481   1.551 -2.3410 -1.3846 -0.0048
11146SOL     OW38083   2.223   9.516   1.346  0.2949  0.0630 -0.0957
11146SOL    HW138084   2.302   9.515   1.407  1.5363  2.0949 -1.5918
11146SOL    HW238085   2.244   9.465   1.263  0.1566  0.8609 -0.6272
11147SOL     OW38086   9.520   4.890   2.961  0.3661  0.0641 -0.0995
11147SOL    HW138087   9.522   4.791   2.972 -2.7548 -0.2600 -1.7665
11147SOL    HW238088   9.546   4.914   2.867  0.2215  0.7500  0.0295
11148SOL     OW38089   3.289   8.432   3.354 -0.1093 -0.4176 -0.1042
11148SOL    HW138090   3.307   8.390   3.443 -0.8511 -2.3285 -0.8316
11148SOL    HW238091   3.310   8.530   3.358 -0.7191 -0.3663  2.3349
11149SOL     OW38092   2.794   7.764   6.444 -0.0272  0.1541  0.0248
11149SOL    HW138093   2.866   7.814   6.491 -0.4799  1.6795 -0.8831
11149SOL    HW238094   2.800   7.781   6.346 -1.7613  0.4960 -0.0401
11150SOL     OW38095   6.722   2.150   3.910 -0.3647  0.6183 -0.0709
11150SOL    HW138096   6.759   2.194   3.828 -0.5250  0.0898 -0.4282
11150SOL    HW238097   6.756   2.056   3.915  1.0169  1.1641  1.3716
11151SOL     OW38098   3.582   1.270   0.536 -0.4104  0.3986  0.2847
11151SOL    HW138099   3.539   1.285   0.624 -0.9965  0.3521  0.0062
11151SOL    HW238100   3.550   1.339   0.471 -2.3025 -1.3960 -0.7171
11152SOL     OW38101   3.080   4.480   4.190 -0.3391  0.1617 -0.1244
11152SOL    HW138102   3.072   4.547   4.117 -0.9456  2.6327  2.1607
11152SOL    HW238103   3.176   4.464   4.212 -0.2086  0.5776 -0.4094
11153SOL     OW38104   5.350   1.690   1.783 -0.2112  0.0339  0.5353
11153SOL    HW138105   5.272   1.629   1.798 -1.5486  1.8815  1.3443
11153SOL    HW238106   5.319   1.775   1.741  1.3382  0.8952  1.0717
11154SOL     OW38107   3.710   3.786   5.005 -0.1021  0.2251  0.1092
11154SOL    HW138108   3.733   3.715   5.071 -0.4226 -0.9385 -0.9998
11154SOL    HW238109   3.653   3.856   5.049 -1.1077 -1.0178  0.8368
11157SOL     OW38110   7.544   6.601   1.420 -0.0028  0.2790  0.4163
11157SOL    HW138111   7.555   6.512   1.463 -0.7461  1.4115  3.0100
11157SOL    HW238112   7.449   6.611   1.389 -0.1842  0.5959  1.0814
11159SOL     OW38113   4.386   1.696   4.832  0.7398 -0.1667 -0.3248
11159SOL    HW138114   4.323   1.762   4.790 -2.1528 -1.3409  1.9881
11159SOL    HW238115   4.366   1.688   4.930  1.8155 -3.6002 -0.3107
11160SOL     OW38116   9.847   7.436   1.939  0.7044 -0.0456 -0.3913
11160SOL    HW138117   9.767   7.482   1.900  0.4917 -0.0112  0.0793
11160SOL    HW238118   9.818   7.377   2.015  1.2806  0.9316  0.5964
11161SOL     OW38119   3.937   4.513   5.446 -0.6176 -0.5474  0.3366
11161SOL    HW138120   3.984   4.550   5.367 -0.7744  0.0497  0.5235
11161SOL    HW238121   3.881   4.435   5.418 -0.9298 -0.1331 -0.1955
11162SOL     OW38122   3.773   3.598   2.507  0.3106 -0.4143  0.5751
11162SOL    HW138123   3.693   3.636   2.462  1.0893  1.3064  0.6194
11162SOL    HW238124   3.756   3.590   2.605 -0.1991 -1.1118  0.4354
11163SOL     OW38125   8.954   4.848   0.161  0.0420  0.4066  0.2694
11163SOL    HW138126   8.872   4.816   0.112  1.2269 -2.0358 -0.1901
11163SOL    HW238127   8.939   4.839   0.259 -0.3067  0.1400  0.1946
11164SOL     OW38128   1.195   4.354   6.087  0.2017  0.5754 -0.2811
11164SOL    HW138129   1.270   4.386   6.145  1.2364  0.7001 -1.6711
11164SOL    HW238130   1.119   4.323   6.145 -0.1407  3.8413  1.1463
11165SOL     OW38131   4.998   1.136   3.440 -0.0530 -0.5170 -0.6816
11165SOL    HW138132   5.077   1.171   3.490 -0.1964  1.0793 -1.5099
11165SOL    HW238133   4.917   1.139   3.500 -0.0094  0.3793 -0.6495
11166SOL     OW38134   5.782   1.514   4.876 -0.2317 -0.5206  0.1127
11166SOL    HW138135   5.706   1.451   4.890 -0.8550  0.4309  1.0805
11166SOL    HW238136   5.810   1.553   4.964  0.6434 -0.0374 -0.3781
11167SOL     OW38137   9.682   5.410   5.697 -0.3152 -0.3784  1.0371
11167SOL    HW138138   9.745   5.393   5.773 -0.6007  2.5287  1.9954
11167SOL    HW238139   9.590   5.383   5.724 -0.1691 -0.7185  1.1976
11169SOL     OW38140   9.257   8.955   1.401  0.0898  0.0201 -0.3957
11169SOL    HW138141   9.175   8.929   1.350  0.3558  0.7098 -1.1856
11169SOL    HW238142   9.230   9.009   1.481 -0.4931 -2.8990  1.4692
11170SOL     OW38143   3.220   7.178   1.507  0.2751  0.3830 -0.1048
11170SOL    HW138144   3.241   7.125   1.425  2.3414  2.0595 -0.7003
11170SOL    HW238145   3.266   7.136   1.586 -1.4481 -1.0388  0.1863
11171SOL     OW38146   3.817   8.609   4.396  0.0779 -0.3439 -0.0562
11171SOL    HW138147   3.882   8.665   4.446  0.5652 -0.7274 -0.2467
11171SOL    HW238148   3.799   8.650   4.306  1.0881 -0.9321 -0.5324
11172SOL     OW38149   1.849   9.880   0.678  0.0618 -0.2770  0.0909
11172SOL    HW138150   1.890   9.963   0.715 -1.7701  1.0053 -0.6970
11172SOL    HW238151   1.787   9.904   0.603 -0.6239 -2.3378 -0.0248
11174SOL     OW38152   9.002   4.479   1.898 -1.4639  0.9229  0.1928
11174SOL    HW138153   9.023   4.550   1.966  0.3151  1.6169 -1.0449
11174SOL    HW238154   9.050   4.395   1.921 -1.7183  0.8220  0.3671
11175SOL     OW38155   8.628   2.610   3.426 -0.2282  0.1140  1.0548
11175SOL    HW138156   8.648   2.517   3.456 -0.9735 -0.1938  0.6001
11175SOL    HW238157   8.573   2.608   3.342  1.9839  0.9611 -0.4604
11176SOL     OW38158   4.518   3.841   2.738 -0.6974  0.0155  0.1385
11176SOL    HW138159   4.598   3.803   2.691 -0.6622 -0.9584  0.9849
11176SOL    HW238160   4.532   3.939   2.752 -0.1671  0.0752 -0.7683
11177SOL     OW38161   8.065   1.358   3.366  0.1830 -0.0831  0.1458
11177SOL    HW138162   8.078   1.285   3.433 -0.1995 -0.0489  0.2595
11177SOL    HW238163   8.041   1.318   3.278 -3.1227  0.0058  0.9420
11178SOL     OW38164   7.278   0.218   3.791 -0.1740  0.4348  1.1374
11178SOL    HW138165   7.333   0.292   3.752 -0.6386  0.3889  0.3933
11178SOL    HW238166   7.188   0.254   3.816 -0.1785  0.2639  1.3712
11179SOL     OW38167   9.491   8.365   2.852 -0.1053  0.1239  0.3116
11179SOL    HW138168   9.487   8.303   2.931  0.9292  0.7941  0.9078
11179SOL    HW238169   9.519   8.314   2.771 -2.0082 -0.7482  0.1697
11182SOL     OW38170   9.424   3.656   5.330 -0.0002  0.3174  0.5003
11182SOL    HW138171   9.436   3.571   5.279  0.4993 -0.5516  2.0301
11182SOL    HW238172   9.508   3.710   5.323  0.3882 -0.1972  1.1072
11184SOL     OW38173   4.637   1.886   1.452 -0.1668 -0.1684 -0.4793
11184SOL    HW138174   4.540   1.887   1.429 -0.3224 -0.3327  0.1538
11184SOL    HW238175   4.662   1.974   1.493 -0.6105 -0.9929  1.6115
11185SOL     OW38176   4.265   4.035   3.782 -0.1397  0.4325 -0.3645
11185SOL    HW138177   4.251   4.044   3.683  0.5511  0.4867 -0.4642
11185SOL    HW238178   4.203   3.966   3.819  0.6813 -0.7357 -1.1137
11186SOL     OW38179   8.350   1.554   4.555 -0.2562  0.4506 -0.0314
11186SOL    HW138180   8.424   1.532   4.492 -1.5572  0.5932 -1.6382
11186SOL    HW238181   8.279   1.483   4.549 -0.7184  0.8366  0.7592
11187SOL     OW38182   7.484   2.923   4.786  0.2350  0.1868  0.3123
11187SOL    HW138183   7.403   2.949   4.734 -0.1230 -0.5608  0.4815
11187SOL    HW238184   7.516   3.002   4.839  0.5023  0.8960 -0.8914
11189SOL     OW38185   0.228   5.673   3.823 -0.1810 -0.2258  0.4402
11189SOL    HW138186   0.162   5.617   3.872  0.5285 -1.2281  0.2687
11189SOL    HW238187   0.320   5.637   3.837  0.2252  0.5625 -0.1316
11191SOL     OW38188   8.084   1.274   5.628  0.0481  0.5909  0.3881
11191SOL    HW138189   8.091   1.208   5.702 -0.2255  1.0412  0.8137
11191SOL    HW238190   8.066   1.365   5.665  3.2187  1.4402  0.0105
11192SOL     OW38191   0.499   8.595   0.343 -0.6149  0.3372 -0.5607
11192SOL    HW138192   0.419   8.537   0.330 -1.2468  0.9975  0.3615
11192SOL    HW238193   0.471   8.690   0.348  0.2885  0.6178 -0.7624
11193SOL     OW38194   0.714   6.699   2.467  0.1110  0.1577 -0.1496
11193SOL    HW138195   0.724   6.600   2.480 -0.3986  0.4295  2.6385
11193SOL    HW238196   0.802   6.738   2.440  0.7631 -0.8266  0.5014
11194SOL     OW38197   2.569   0.586   5.178  0.1397 -0.0134 -0.1144
11194SOL    HW138198   2.474   0.605   5.205  0.0972 -0.2870 -0.0767
11194SOL    HW238199   2.613   0.528   5.246  0.2476 -0.1216 -0.2766
11195SOL     OW38200   1.244   5.064   0.391 -0.3383 -0.0960 -0.1196
11195SOL    HW138201   1.220   5.103   0.480  0.7089 -0.4840  0.3420
11195SOL    HW238202   1.200   4.975   0.381 -1.2386  0.3736 -0.4023
11196SOL     OW38203   2.310   9.061   1.769 -0.1775 -0.0487 -0.2839
11196SOL    HW138204   2.323   9.097   1.677  1.1496 -0.5511 -0.3005
11196SOL    HW238205   2.215   9.030   1.780 -0.5814  0.8745 -1.1664
11198SOL     OW38206   9.819   4.435   2.841 -0.2717  0.1167 -0.1253
11198SOL    HW138207   9.826   4.376   2.761  0.4369 -1.2678  0.9492
11198SOL    HW238208   9.732   4.483   2.840 -0.5729 -0.4599 -1.3405
11199SOL     OW38209   1.468   2.999   2.685  0.3450 -0.8854  0.0525
11199SOL    HW138210   1.431   3.067   2.621  0.3538 -0.2292  0.7389
11199SOL    HW238211   1.425   3.011   2.774 -0.2349 -2.3090 -0.0289
11200SOL     OW38212   9.140   6.592   3.390 -0.2854 -0.4901  0.1242
11200SOL    HW138213   9.214   6.653   3.360  0.2788 -0.5408  1.4087
11200SOL    HW238214   9.052   6.639   3.381 -0.1222 -0.4674 -1.5105
11201SOL     OW38215   0.135   1.006   4.147  0.6365  0.2293  0.3563
11201SOL    HW138216   0.123   1.084   4.209  3.4984  0.3369  0.8724
11201SOL    HW238217   0.214   0.951   4.178  0.0211 -1.6325 -1.2658
11202SOL     OW38218   1.167   2.659   0.959 -0.0506  0.2346 -0.2268
11202SOL    HW138219   1.205   2.620   0.875  1.6743 -0.4481  0.8576
11202SOL    HW238220   1.186   2.598   1.036 -1.2324  1.0682  0.7471
11203SOL     OW38221   9.681   1.210   1.704 -0.0215 -0.0497 -0.0438
11203SOL    HW138222   9.757   1.201   1.640 -1.2443 -0.3327 -1.4873
11203SOL    HW238223   9.637   1.121   1.715  0.0482  0.0469  1.0301
11204SOL     OW38224   6.070   1.506   0.018 -0.0971 -0.0242 -0.1280
11204SOL    HW138225   6.158   1.525  -0.024 -0.0719 -0.0958 -0.1075
11204SOL    HW238226   5.996   1.533  -0.044 -0.0642  0.8168  0.1914
11205SOL     OW38227   1.481   7.045   5.233 -0.3068 -0.0087 -0.6743
11205SOL    HW138228   1.532   7.000   5.160  0.4581  0.6980 -0.5836
11205SOL    HW238229   1.385   7.053   5.206 -0.3936 -1.4128 -0.8114
11207SOL     OW38230   4.053   1.578   3.485 -0.0115 -0.4841 -0.5383
11207SOL    HW138231   4.115   1.512   3.528 -0.3521 -1.4872 -1.5705
11207SOL    HW238232   4.020   1.541   3.399 -1.1063  0.5651 -0.5755
11208SOL     OW38233   9.201   0.635   5.574 -0.0916  0.5439  0.3272
11208SOL    HW138234   9.186   0.665   5.668  0.8865 -0.3677  0.7889
11208SOL    HW238235   9.116   0.641   5.523 -0.9767 -0.3875  1.6821
11209SOL     OW38236   5.958   0.240   2.286  0.2158  0.4387  0.4198
11209SOL    HW138237   5.950   0.167   2.217 -0.2182 -0.3057  1.2390
11209SOL    HW238238   6.042   0.227   2.338  1.3172  1.8829 -0.9450
11210SOL     OW38239   7.185   8.229   3.093 -0.4863 -0.3791 -0.0330
11210SOL    HW138240   7.088   8.204   3.096 -0.4679 -0.4793 -0.3003
11210SOL    HW238241   7.228   8.185   3.015 -0.3316  0.0621 -0.1964
11211SOL     OW38242   6.870   4.352   1.201  0.6442  0.6114 -0.5954
11211SOL    HW138243   6.817   4.362   1.116  1.9365  3.3381 -1.1381
11211SOL    HW238244   6.880   4.441   1.244  2.6519 -0.2712  0.8184
11212SOL     OW38245   4.611   9.047   1.114 -0.2105  0.3541 -0.1379
11212SOL    HW138246   4.620   8.975   1.183 -1.0151 -0.3448 -0.7624
11212SOL    HW238247   4.523   9.092   1.125 -1.3482 -1.2966 -2.1707
11213SOL     OW38248   7.629   4.463   0.569 -0.2675 -0.6585  0.2095
11213SOL    HW138249   7.644   4.493   0.475 -0.6483 -0.8478  0.0852
11213SOL    HW238250   7.533   4.477   0.593 -0.4203 -1.6362  0.1934
11215SOL     OW38251   0.164   6.713   1.313 -0.3194 -0.4697 -0.3764
11215SOL    HW138252   0.077   6.746   1.350 -0.7708 -0.9348 -1.0257
11215SOL    HW238253   0.239   6.757   1.362 -0.9171  0.3008 -0.1384
11216SOL     OW38254   1.407   2.780   4.511  0.2938  0.6629 -0.1638
11216SOL    HW138255   1.377   2.861   4.459 -0.5082  0.9165  0.6689
11216SOL    HW238256   1.445   2.810   4.598  2.3994  0.2901 -0.9303
11218SOL     OW38257   0.293   9.477   2.507 -0.1227 -0.2655  0.1770
11218SOL    HW138258   0.373   9.522   2.546  0.6367  0.6809 -2.3955
11218SOL    HW238259   0.313   9.448   2.413 -1.8396 -2.6296  0.4850
11219SOL     OW38260   9.800   6.479   1.802 -0.3568  0.8278  0.0482
11219SOL    HW138261   9.705   6.450   1.808 -0.1856  0.6242  2.4120
11219SOL    HW238262   9.806   6.578   1.813 -0.2787  0.8110  0.1598
11220SOL     OW38263   1.385   3.160   0.697 -0.1556 -0.4579 -0.3601
11220SOL    HW138264   1.381   3.083   0.633  0.2586  1.3091 -2.5842
11220SOL    HW238265   1.405   3.244   0.646  0.5090  0.9491  2.1653
11221SOL     OW38266   0.520   0.670   5.553 -0.1556 -0.1301 -0.4276
11221SOL    HW138267   0.422   0.690   5.554 -0.5345 -1.9332  0.5031
11221SOL    HW238268   0.571   0.753   5.532 -1.7706  1.3457  1.3014
11222SOL     OW38269   3.041   2.809   1.837  0.1776  0.3623 -0.5596
11222SOL    HW138270   3.099   2.739   1.879  0.4482  1.0577  0.2218
11222SOL    HW238271   3.016   2.877   1.906 -3.6882 -1.3002 -0.1968
11223SOL     OW38272   5.662   7.728   3.801 -0.4673 -0.0676  0.0723
11223SOL    HW138273   5.636   7.800   3.735 -1.6806 -2.0705 -1.7257
11223SOL    HW238274   5.595   7.726   3.875  0.2461  1.4252  0.7835
11224SOL     OW38275   1.345   4.884   6.029  0.3448 -0.1343  0.0726
11224SOL    HW138276   1.288   4.822   5.975 -0.5460  0.9108 -0.1915
11224SOL    HW238277   1.354   4.971   5.981  1.4782  0.0043  0.5148
11225SOL     OW38278   9.733   5.334   3.567 -0.2086  0.0881  0.4438
11225SOL    HW138279   9.791   5.397   3.515  0.7270 -1.5393 -0.5413
11225SOL    HW238280   9.720   5.250   3.514 -0.3037 -1.1046  2.3134
11227SOL     OW38281   3.358   2.202   5.595  0.2423  0.0634 -0.4648
11227SOL    HW138282   3.423   2.241   5.661  2.1537 -1.2364 -1.5492
11227SOL    HW238283   3.343   2.267   5.521  1.0913 -0.0463 -0.7310
11228SOL     OW38284   3.725   2.699   6.265  0.4822 -0.1956  0.0343
11228SOL    HW138285   3.807   2.741   6.304  0.1292 -1.2110  1.9099
11228SOL    HW238286   3.649   2.763   6.271  0.8593  0.3190 -0.6449
11229SOL     OW38287   5.941   0.650   4.521  0.7453  0.7251 -0.1972
11229SOL    HW138288   6.013   0.597   4.475  3.1563  2.2781  1.6943
11229SOL    HW238289   5.901   0.595   4.594 -1.1147 -0.6958 -2.1996
11230SOL     OW38290   9.008   6.056   4.898 -0.1036 -0.2115  0.1442
11230SOL    HW138291   9.028   6.064   4.996 -0.8939  0.6864  0.2442
11230SOL    HW238292   8.912   6.032   4.885 -0.2894  0.7762 -0.4191
11232SOL     OW38293   2.365   6.384   1.060 -0.3744 -0.1422 -0.5600
11232SOL    HW138294   2.271   6.417   1.056 -0.9996 -2.0818 -2.2297
11232SOL    HW238295   2.373   6.315   1.132  0.3191  1.5834  1.0817
11233SOL     OW38296   4.683   8.312   5.931  0.2470 -0.1897  0.1033
11233SOL    HW138297   4.670   8.253   6.011 -2.1218  1.0318  0.6471
11233SOL    HW238298   4.656   8.405   5.953  1.5013  0.5938 -1.5475
11234SOL     OW38299   7.297   6.919   6.385  0.3397  0.4101  0.6865
11234SOL    HW138300   7.242   7.003   6.391 -0.8098 -0.3339  0.7667
11234SOL    HW238301   7.340   6.901   6.473  0.0553  0.5553  0.8560
11235SOL     OW38302   5.273   8.951   6.078  0.0506 -0.0173  0.3477
11235SOL    HW138303   5.346   8.909   6.131  0.4205 -0.4388 -0.4827
11235SOL    HW238304   5.186   8.904   6.097  0.2519 -0.4113  0.3051
11236SOL     OW38305   1.096   6.201   3.540  0.4782 -0.2708  0.0442
11236SOL    HW138306   1.032   6.203   3.464  0.0819 -1.0333  0.3628
11236SOL    HW238307   1.098   6.291   3.584 -0.9990 -0.4805  0.5588
11237SOL     OW38308   1.352   8.410   1.345  0.2470  0.1802 -0.0236
11237SOL    HW138309   1.446   8.400   1.312  0.6491  1.2890  0.7753
11237SOL    HW238310   1.345   8.378   1.439 -0.2492 -0.1347 -0.1593
11238SOL     OW38311   2.803   5.703   5.129 -0.1103  0.2003  0.3966
11238SOL    HW138312   2.773   5.617   5.087 -0.1367  0.5491 -0.2908
11238SOL    HW238313   2.874   5.683   5.197 -2.3752 -0.7129  2.5990
11239SOL     OW38314   3.828   8.996   3.129  0.1039 -0.1751  0.1107
11239SOL    HW138315   3.832   9.096   3.129 -0.7457 -0.1144  1.9152
11239SOL    HW238316   3.778   8.965   3.048  0.3704  0.8488 -0.4631
11241SOL     OW38317   6.189   7.716   3.333  0.1905  0.4071  0.1655
11241SOL    HW138318   6.154   7.692   3.242 -1.1295 -2.5033  1.3778
11241SOL    HW238319   6.279   7.759   3.324 -0.3090  0.9849 -2.5422
11243SOL     OW38320   4.775   7.560   2.634 -0.3368 -0.4669  0.0224
11243SOL    HW138321   4.856   7.619   2.639 -0.4750 -0.1664 -1.1386
11243SOL    HW238322   4.701   7.609   2.588 -1.1598 -0.7750  0.9883
11244SOL     OW38323   6.958   1.581   1.903 -0.1212 -0.5523 -0.7923
11244SOL    HW138324   6.895   1.658   1.902  0.1938 -0.2957 -0.8824
11244SOL    HW238325   7.020   1.590   1.981 -0.8714 -1.3554 -0.0822
11246SOL     OW38326   8.198   8.113   6.407  0.0012  0.2677  0.6494
11246SOL    HW138327   8.167   8.029   6.362 -0.3007 -0.3822  2.0732
11246SOL    HW238328   8.287   8.098   6.450  0.8797  1.2496 -0.7632
11247SOL     OW38329   6.854   5.757   0.772 -0.1717  0.3232 -0.4396
11247SOL    HW138330   6.780   5.806   0.725 -0.7272 -0.5938 -0.5318
11247SOL    HW238331   6.896   5.692   0.708  0.4552  0.5642 -0.2732
11248SOL     OW38332   7.130   8.293   5.187  0.2044 -0.1820 -0.0997
11248SOL    HW138333   7.078   8.374   5.162 -0.3551 -1.0135 -1.6845
11248SOL    HW238334   7.075   8.235   5.247 -0.0102 -0.1707 -0.2858
11249SOL     OW38335   5.866   0.406   2.889 -0.2655 -0.0044 -0.3114
11249SOL    HW138336   5.812   0.328   2.920 -0.2799 -0.3904 -1.3006
11249SOL    HW238337   5.891   0.462   2.968  0.1235 -1.2418  0.4611
11250SOL     OW38338   0.058   9.825   5.572 -0.5851 -0.8911 -0.0329
11250SOL    HW138339   0.104   9.738   5.589 -2.1307 -2.0304 -1.4861
11250SOL    HW238340   0.030   9.830   5.477 -1.5486  0.6981  0.3152
11251SOL     OW38341   5.955   0.488   5.561  0.0798  0.2032  0.2920
11251SOL    HW138342   5.978   0.559   5.628 -2.7308  1.4203  0.0385
11251SOL    HW238343   5.867   0.446   5.586  1.3944 -2.7756  0.0820
11252SOL     OW38344   1.185   4.865   2.920 -0.6088  0.6244 -0.2946
11252SOL    HW138345   1.183   4.905   2.828  0.2776 -0.7599 -0.9456
11252SOL    HW238346   1.200   4.766   2.912  1.4720  0.7806  1.4030
11253SOL     OW38347   4.274   3.191   0.163  0.1993 -0.2087 -0.8585
11253SOL    HW138348   4.359   3.244   0.172  0.0010 -0.0050 -0.1740
11253SOL    HW238349   4.199   3.241   0.204 -0.0903 -0.7906 -0.6710
11254SOL     OW38350   2.871   3.663   1.700 -0.0722  0.3105  0.0702
11254SOL    HW138351   2.862   3.761   1.717  0.3980  0.5229 -0.9079
11254SOL    HW238352   2.801   3.634   1.636  1.3350  0.4976 -1.5905
11255SOL     OW38353   7.646   6.439   2.082 -0.3145  0.0202 -0.1242
11255SOL    HW138354   7.686   6.459   2.172 -1.3148  0.8258  0.1521
11255SOL    HW238355   7.659   6.517   2.021 -3.0309  1.0402  0.5340
11256SOL     OW38356   9.096   1.864   5.601  0.7645 -0.1155  0.2409
11256SOL    HW138357   9.036   1.886   5.524  2.7866  0.5742 -1.1913
11256SOL    HW238358   9.050   1.887   5.687 -0.5410  1.5873 -0.8637
11257SOL     OW38359   9.100   7.553   5.474 -0.4425 -0.0521 -0.8032
11257SOL    HW138360   9.187   7.505   5.485 -0.4293 -0.0112 -0.7372
11257SOL    HW238361   9.078   7.560   5.377 -0.9854 -1.1695 -0.7692
11258SOL     OW38362   6.221   0.598   2.782 -0.0578  0.3174  0.2621
11258SOL    HW138363   6.312   0.589   2.740 -0.0934  1.9155 -0.1611
11258SOL    HW238364   6.167   0.517   2.760 -0.3093  1.3930 -3.3769
11260SOL     OW38365   0.138   8.557   4.088 -0.4172  0.6358 -0.2603
11260SOL    HW138366   0.111   8.653   4.088  0.0661  0.7731 -0.9511
11260SOL    HW238367   0.182   8.534   4.174  1.1481  1.5182 -0.8052
11262SOL     OW38368   0.716   4.935   3.091  0.1766 -0.5235 -0.1368
11262SOL    HW138369   0.742   4.841   3.071  0.9554  0.0298 -1.8769
11262SOL    HW238370   0.787   4.979   3.146  0.2965 -0.6451 -0.1969
11263SOL     OW38371   1.822   0.275   1.560  0.7814  0.0947  0.1999
11263SOL    HW138372   1.877   0.357   1.575  0.7559  0.2880 -0.7573
11263SOL    HW238373   1.842   0.237   1.470 -1.4283  0.7843 -0.6094
11265SOL     OW38374   0.585   8.014   5.687  0.5823 -0.3479  0.4287
11265SOL    HW138375   0.493   7.998   5.722  0.3033  1.3950  0.5573
11265SOL    HW238376   0.633   7.927   5.679 -1.3030 -1.3507 -0.3123
11266SOL     OW38377   1.002   6.467   4.082 -0.3522  0.3954  0.3756
11266SOL    HW138378   1.027   6.542   4.144 -2.8442  1.5146  0.0958
11266SOL    HW238379   1.018   6.379   4.127  4.2033  0.9538  0.1289
11267SOL     OW38380   1.242   2.045   1.126  0.0453  0.1219 -0.2998
11267SOL    HW138381   1.241   2.121   1.061 -0.4102  1.3620  1.1294
11267SOL    HW238382   1.182   2.066   1.203  1.3071 -0.9087  0.9997
11270SOL     OW38383   7.267   9.493   1.968  0.0382  0.1912 -0.0063
11270SOL    HW138384   7.334   9.518   1.898 -1.5634 -1.7221 -2.2804
11270SOL    HW238385   7.304   9.419   2.025  0.1489 -0.3744 -0.8077
11271SOL     OW38386   0.442   6.496   1.021 -0.5561  0.2259 -0.0267
11271SOL    HW138387   0.408   6.408   0.988 -1.4829 -0.0324  1.5657
11271SOL    HW238388   0.536   6.484   1.055 -1.1497 -0.4592  1.4168
11272SOL     OW38389   2.665   2.876   1.442  0.1949 -0.8543  0.1160
11272SOL    HW138390   2.715   2.804   1.489 -0.9144 -0.7040  1.5557
11272SOL    HW238391   2.708   2.964   1.460 -1.2081 -0.5824  2.2876
11274SOL     OW38392   1.586   9.419   0.890 -0.4421  0.1577 -0.5356
11274SOL    HW138393   1.649   9.356   0.935  0.1788  0.5741 -0.8118
11274SOL    HW238394   1.622   9.443   0.800 -2.5870 -2.1673 -2.0911
11275SOL     OW38395   8.705   1.414   2.572 -0.1950 -0.5037  0.0947
11275SOL    HW138396   8.786   1.471   2.559  0.2653 -0.8939  1.2004
11275SOL    HW238397   8.684   1.365   2.487  2.7169 -2.9712  0.6968
11276SOL     OW38398   9.030   2.070   3.350  0.1308 -0.0518  0.0208
11276SOL    HW138399   9.083   2.015   3.285  0.5515 -0.4292  0.6762
11276SOL    HW238400   9.051   2.167   3.338 -0.5355 -0.0349 -1.0694
11278SOL     OW38401   8.877   0.128   4.281  0.3596  0.6188 -0.6682
11278SOL    HW138402   8.839   0.104   4.192  1.5639 -2.4529 -0.3913
11278SOL    HW238403   8.802   0.149   4.345 -0.5348  1.6806 -2.0416
11279SOL     OW38404   1.946   2.215   1.091 -0.0849  0.1462  0.2959
11279SOL    HW138405   1.889   2.168   1.158 -0.5568  0.4820  0.1369
11279SOL    HW238406   1.901   2.300   1.062  0.0899 -0.0139 -0.4762
11281SOL     OW38407   3.212   0.195   2.574 -0.7059 -0.3155  0.6509
11281SOL    HW138408   3.163   0.255   2.511  0.9248 -0.0912 -0.4243
11281SOL    HW238409   3.222   0.240   2.662 -0.1870  0.6784  0.0896
11282SOL     OW38410   6.085   2.771   0.097 -0.5793 -0.3019  0.7622
11282SOL    HW138411   6.141   2.820   0.030  0.1909 -1.8273  0.2768
11282SOL    HW238412   6.067   2.831   0.176 -0.0055  0.8955 -0.0060
11284SOL     OW38413   9.257   8.379   3.870 -0.1132 -0.2791  0.8234
11284SOL    HW138414   9.191   8.423   3.931  1.3776 -1.4349  3.3202
11284SOL    HW238415   9.312   8.449   3.825 -1.5314  0.6034  0.4294
11285SOL     OW38416   5.677   0.955   2.723 -0.3310  0.8626 -0.2266
11285SOL    HW138417   5.648   0.936   2.629 -1.9391  1.0122  0.2145
11285SOL    HW238418   5.596   0.961   2.782  0.7253 -0.4490  1.4000
11286SOL     OW38419   3.204   5.344   0.235  0.2340  0.4353 -0.6696
11286SOL    HW138420   3.156   5.258   0.219  1.0769 -0.0327 -0.7244
11286SOL    HW238421   3.281   5.328   0.297  0.6961  1.0460 -1.0799
11287SOL     OW38422   4.688   3.635   1.321 -0.7573  0.3069  0.2962
11287SOL    HW138423   4.782   3.619   1.288 -1.8097  0.2809 -2.8611
11287SOL    HW238424   4.675   3.732   1.340  0.3415  0.0971  2.2776
11288SOL     OW38425   7.728   7.383   5.006  0.6375 -0.5416 -0.0295
11288SOL    HW138426   7.814   7.331   5.006  0.0067 -1.6020  1.0291
11288SOL    HW238427   7.707   7.412   4.913  2.2763 -0.0553 -0.2652
11289SOL     OW38428   8.447   9.338   0.896  0.0585  0.1358  0.2255
11289SOL    HW138429   8.423   9.349   0.800  0.4236  1.9539  0.3312
11289SOL    HW238430   8.367   9.303   0.946 -0.9759  1.6878 -0.2813
11290SOL     OW38431   7.248   3.102   4.715  0.3103  0.2674  0.5712
11290SOL    HW138432   7.290   3.191   4.702 -1.1540  0.9925  0.6845
11290SOL    HW238433   7.208   3.097   4.806 -1.3788  0.2668 -0.1416
11291SOL     OW38434   3.872   8.953   0.711  0.4922 -0.1806 -0.1036
11291SOL    HW138435   3.778   8.925   0.729  0.1516  0.0771 -1.4032
11291SOL    HW238436   3.902   8.915   0.623  1.5297 -0.0914  0.2029
11293SOL     OW38437   7.556   5.065   1.969  0.3863  0.2414 -0.6239
11293SOL    HW138438   7.466   5.078   2.011  1.4935  0.8987  1.5974
11293SOL    HW238439   7.564   5.126   1.889 -0.9574  0.5238 -0.5489
11294SOL     OW38440   9.163   4.110   1.728  0.3187 -0.3878 -0.5480
11294SOL    HW138441   9.166   4.208   1.710  0.4564 -0.5028 -1.1607
11294SOL    HW238442   9.250   4.080   1.765 -0.4691  0.1280  1.8083
11295SOL     OW38443   0.499   7.665   0.644 -0.5371 -0.2559  0.0785
11295SOL    HW138444   0.461   7.742   0.592 -0.2541  0.4304  0.8758
11295SOL    HW238445   0.597   7.656   0.622 -0.2065  0.6065  1.1640
11297SOL     OW38446   9.841   7.039   3.411 -0.4422  0.1922  0.3698
11297SOL    HW138447   9.939   7.058   3.407 -0.5476  0.4102 -1.3431
11297SOL    HW238448   9.800   7.058   3.323 -2.0477  0.1283  1.0942
11298SOL     OW38449   9.209   5.602   0.346  0.5949  0.3867 -0.6439
11298SOL    HW138450   9.181   5.512   0.315 -0.2519  0.2850  0.3756
11298SOL    HW238451   9.145   5.635   0.415  0.9762  1.7065 -0.8963
11299SOL     OW38452   6.776   7.931   5.422  0.0347 -0.3036 -0.4077
11299SOL    HW138453   6.798   7.864   5.493  0.2544  0.7657  0.5542
11299SOL    HW238454   6.733   7.885   5.344  0.4512 -1.5926  0.1187
11300SOL     OW38455   0.434   7.321   2.186  0.2081  0.3439  0.2241
11300SOL    HW138456   0.478   7.399   2.143  1.4373  0.5434  1.7927
11300SOL    HW238457   0.394   7.348   2.273  1.3435 -0.9329  1.1661
11301SOL     OW38458   3.253   7.148   6.062  0.3885  0.4210 -0.2495
11301SOL    HW138459   3.256   7.165   6.160  1.0076 -1.8667  0.1472
11301SOL    HW238460   3.306   7.218   6.014  1.8157  0.3574  1.2145
11302SOL     OW38461   2.783   4.840   6.074  0.4865 -0.2751 -0.5451
11302SOL    HW138462   2.815   4.834   6.168 -2.6037 -1.3373  0.5029
11302SOL    HW238463   2.772   4.936   6.048 -0.8520  0.0021  0.9831
11305SOL     OW38464   3.943   1.302   5.389 -0.5224  0.4633 -0.1816
11305SOL    HW138465   3.926   1.393   5.426  0.1717  0.6619 -0.3346
11305SOL    HW238466   3.860   1.247   5.396 -1.1209  1.2951 -0.6398
11307SOL     OW38467   2.685   3.276   0.003  0.2308 -0.0467 -0.0300
11307SOL    HW138468   2.729   3.209   0.062  0.4177 -0.8930 -1.1063
11307SOL    HW238469   2.731   3.365   0.014  0.8489 -0.4132  0.4140
11309SOL     OW38470   7.897   1.843   4.087 -0.0887 -0.2355  0.2247
11309SOL    HW138471   7.963   1.910   4.052 -0.0249 -0.3145  0.1938
11309SOL    HW238472   7.897   1.762   4.028 -2.4314  0.9974 -1.5626
11310SOL     OW38473   6.678   1.512   3.685 -0.3987  0.0409  0.4309
11310SOL    HW138474   6.741   1.539   3.612  0.2814 -0.4621  0.8200
11310SOL    HW238475   6.714   1.542   3.773 -1.2796  0.7544  0.5477
11311SOL     OW38476   0.073   3.745   3.693  0.2818  0.0484  0.0906
11311SOL    HW138477   0.047   3.810   3.621 -0.5168  0.5367  0.8148
11311SOL    HW238478   0.160   3.701   3.668 -0.9720 -1.2454 -2.1365
11312SOL     OW38479   6.518   8.666   5.260  0.5634 -0.1257 -0.4407
11312SOL    HW138480   6.524   8.763   5.286 -2.1851 -0.2703  0.9384
11312SOL    HW238481   6.434   8.627   5.297  0.2935 -2.3732 -3.2333
11313SOL     OW38482   4.239   3.549   2.767 -0.0881  0.0094 -0.3226
11313SOL    HW138483   4.147   3.549   2.807  0.4107  1.5979  0.8408
11313SOL    HW238484   4.236   3.591   2.677 -0.6455 -0.7227 -0.6546
11314SOL     OW38485   1.854   3.528   6.198 -0.0291 -0.4417 -0.0975
11314SOL    HW138486   1.916   3.467   6.147  0.1834 -1.3837  1.2707
11314SOL    HW238487   1.761   3.518   6.163  0.2496 -0.4595 -0.8568
11316SOL     OW38488   5.893   1.281   2.321  0.2459  0.0338 -0.4032
11316SOL    HW138489   5.858   1.209   2.381 -1.5596  0.6887 -0.6603
11316SOL    HW238490   5.954   1.341   2.373 -1.0133  0.3843  0.7029
11317SOL     OW38491   4.020   8.364   0.888  0.1531  0.0860 -0.0249
11317SOL    HW138492   4.025   8.323   0.980  1.4849  0.6944  0.1813
11317SOL    HW238493   4.107   8.409   0.867  1.0518 -2.9374 -2.9743
11318SOL     OW38494   1.391   4.590   0.044 -0.8667  0.6029 -0.1537
11318SOL    HW138495   1.367   4.521  -0.024  0.6578 -1.8983  1.7619
11318SOL    HW238496   1.488   4.583   0.067 -0.9315  2.6402  0.9470
11319SOL     OW38497   4.409   7.716   5.559  0.8129  0.4021 -0.4096
11319SOL    HW138498   4.385   7.651   5.487  3.4495 -0.4385 -0.5646
11319SOL    HW238499   4.359   7.801   5.545 -0.8402 -0.7329 -1.5970
11320SOL     OW38500   6.780   3.321   2.103 -0.7068  0.7914 -0.0891
11320SOL    HW138501   6.847   3.349   2.034 -1.1331 -0.9884 -1.2705
11320SOL    HW238502   6.825   3.268   2.174 -0.8092 -0.2424 -0.7834
11321SOL     OW38503   1.634   7.591   0.995 -0.3472 -0.4346 -0.3641
11321SOL    HW138504   1.696   7.537   1.052  1.7657  1.4228 -0.7973
11321SOL    HW238505   1.560   7.533   0.961  1.1790 -2.7563  0.1375
11323SOL     OW38506   4.011   1.525   1.305 -0.1291  0.7693 -0.1368
11323SOL    HW138507   4.007   1.446   1.243  2.2420  0.8404 -0.4145
11323SOL    HW238508   3.961   1.504   1.389  0.4711 -1.0282 -0.2080
11324SOL     OW38509   8.861   6.155   1.997 -0.2155 -0.4397  0.2066
11324SOL    HW138510   8.832   6.210   2.076 -0.8091 -0.8397  0.2687
11324SOL    HW238511   8.790   6.160   1.926  0.1643 -0.3563 -0.1643
11325SOL     OW38512   7.247   0.281   2.344  0.2038 -0.0790 -0.3298
11325SOL    HW138513   7.296   0.204   2.386  0.6205  0.4742  0.2036
11325SOL    HW238514   7.165   0.301   2.397 -0.4420 -0.7989 -1.0427
11326SOL     OW38515   1.362   8.698   2.212 -0.4907 -0.0699  0.3518
11326SOL    HW138516   1.326   8.607   2.229 -0.6463  0.4485  3.0553
11326SOL    HW238517   1.446   8.711   2.266  0.3064  0.9005 -1.0813
11327SOL     OW38518   4.117   9.023   2.600 -0.0408 -0.1336  0.2937
11327SOL    HW138519   4.060   9.035   2.681 -1.9492 -0.6102 -0.9407
11327SOL    HW238520   4.092   8.938   2.554  0.9958  0.1423 -0.8103
11328SOL     OW38521   0.442   8.577   3.527 -0.0307 -1.0105 -0.2771
11328SOL    HW138522   0.532   8.611   3.497 -0.0469 -1.0413 -0.3606
11328SOL    HW238523   0.446   8.552   3.624 -0.0130 -0.7891 -0.2199
11330SOL     OW38524   3.436   8.526   5.904 -0.0126  0.0151  0.0644
11330SOL    HW138525   3.457   8.479   5.819 -0.3679 -0.4087  0.2115
11330SOL    HW238526   3.418   8.623   5.885 -3.0896 -0.6709 -0.7495
11331SOL     OW38527   1.306   9.638   0.002  0.0623 -0.5047  0.3371
11331SOL    HW138528   1.357   9.691   0.069  0.4484  0.9692 -1.0896
11331SOL    HW238529   1.313   9.540   0.024  0.6740 -0.0801  2.0678
11334SOL     OW38530   6.697   5.876   0.426  0.1661 -0.5099  0.1893
11334SOL    HW138531   6.684   5.851   0.522 -1.6352  1.2631  0.4288
11334SOL    HW238532   6.795   5.889   0.408  0.4895 -0.5287  1.8632
11335SOL     OW38533   6.060   9.279   2.473 -0.1798 -0.2218 -0.0711
11335SOL    HW138534   6.025   9.216   2.544  2.2635 -2.7366 -1.0080
11335SOL    HW238535   6.080   9.367   2.514 -3.4115 -0.0746  1.3669
11336SOL     OW38536   1.516   1.869   5.988 -0.2189 -0.2630 -0.2274
11336SOL    HW138537   1.431   1.921   5.979 -1.1785 -1.5946  0.8525
11336SOL    HW238538   1.498   1.772   5.973  0.7653 -0.7771  1.6589
11337SOL     OW38539   4.631   0.851   1.347 -0.4789 -0.6266  0.2997
11337SOL    HW138540   4.712   0.872   1.402  0.6842 -2.0904 -0.7893
11337SOL    HW238541   4.599   0.759   1.369 -2.3207  0.2182  1.2569
11338SOL     OW38542   1.898   5.252   6.449  0.0274  0.1346 -0.8250
11338SOL    HW138543   1.871   5.200   6.368 -0.4259 -0.8790 -0.0231
11338SOL    HW238544   1.849   5.217   6.529 -0.5775  2.0372 -0.3392
11341SOL     OW38545   4.992   6.537   1.572  0.5295 -0.5073  0.1515
11341SOL    HW138546   5.084   6.507   1.547  1.0336  1.0282  0.0934
11341SOL    HW238547   4.990   6.561   1.669  0.9061  1.9888 -0.4264
11342SOL     OW38548   2.008   3.056   6.006  0.3019 -0.6126 -0.0440
11342SOL    HW138549   2.035   2.977   5.952 -0.7653 -2.0634  1.4968
11342SOL    HW238550   1.920   3.091   5.974 -0.3614 -1.5121  0.7401
11344SOL     OW38551   2.104   2.595   0.861 -0.3997  0.0692  0.0333
11344SOL    HW138552   2.007   2.619   0.862 -0.6373 -0.7738 -1.2652
11344SOL    HW238553   2.154   2.662   0.807 -0.7808 -1.2919 -2.0547
11345SOL     OW38554   5.334   0.332   3.314  0.0017 -0.0427 -0.0661
11345SOL    HW138555   5.277   0.303   3.238  1.2075  0.6723 -1.2701
11345SOL    HW238556   5.277   0.374   3.385 -1.3992 -2.7207  0.4482
11347SOL     OW38557   9.529   4.023   2.178  0.3184 -0.4488  0.3147
11347SOL    HW138558   9.439   4.062   2.162 -0.2159 -2.0795 -0.8891
11347SOL    HW238559   9.590   4.092   2.216 -2.1263  0.0250  3.5904
11348SOL     OW38560   3.124   2.365   4.382 -0.2104  0.3713  0.2322
11348SOL    HW138561   3.208   2.311   4.378 -0.6080 -0.2532  0.1967
11348SOL    HW238562   3.046   2.308   4.356 -0.7722  0.6945  1.1602
11349SOL     OW38563   8.652   8.754   1.774 -0.0916  0.1209 -0.0142
11349SOL    HW138564   8.698   8.835   1.811  1.1987  0.2484 -1.8639
11349SOL    HW238565   8.586   8.782   1.705 -0.3781 -0.3495  0.0678
11350SOL     OW38566   0.944   8.880   2.495 -0.7381  0.1118  0.5858
11350SOL    HW138567   0.898   8.941   2.431  1.0427  1.4962  0.5940
11350SOL    HW238568   1.011   8.932   2.549  0.9864 -1.8788  0.4308
11351SOL     OW38569   0.794   7.916   3.527  0.8073  0.0282 -0.1473
11351SOL    HW138570   0.859   7.972   3.579  0.2630  0.5819 -0.0648
11351SOL    HW238571   0.827   7.906   3.433  0.3125  1.4800 -0.4854
11353SOL     OW38572   2.405   6.655   1.637 -0.3303 -0.1077 -0.9692
11353SOL    HW138573   2.483   6.599   1.664 -1.5739 -0.3370  2.3360
11353SOL    HW238574   2.430   6.709   1.557  2.7557 -1.1798 -0.8181
11354SOL     OW38575   2.473   8.496   5.126 -0.3280 -0.1387 -0.1820
11354SOL    HW138576   2.534   8.438   5.180 -4.1178 -3.3204  0.9578
11354SOL    HW238577   2.490   8.592   5.148  2.7287 -1.0243  1.6452
11355SOL     OW38578   8.649   3.273   4.675 -0.0228  0.2832 -0.0057
11355SOL    HW138579   8.642   3.176   4.700  1.3719  0.0885 -0.3033
11355SOL    HW238580   8.564   3.303   4.633 -0.8548 -0.5275  1.0730
11357SOL     OW38581   6.798   2.848   3.342 -0.1615  0.2655  0.7053
11357SOL    HW138582   6.780   2.936   3.297  0.9674  0.0768 -0.1376
11357SOL    HW238583   6.879   2.856   3.401 -1.2929  0.3529  2.2800
11359SOL     OW38584   4.332   4.525   0.794  0.1781 -0.6260  0.3238
11359SOL    HW138585   4.342   4.558   0.888 -0.4707 -0.0520  0.1985
11359SOL    HW238586   4.422   4.502   0.756  0.3492 -1.7875  1.4107
11360SOL     OW38587   2.955   1.150   4.731  0.0303  0.1771 -0.3783
11360SOL    HW138588   3.050   1.127   4.709  0.0472 -0.3234  0.2210
11360SOL    HW238589   2.927   1.104   4.815 -0.6677  0.5209 -0.4124
11361SOL     OW38590   2.098   8.910   2.327 -0.6334  0.0142  0.7332
11361SOL    HW138591   2.197   8.905   2.345 -0.3475  0.2342 -0.7580
11361SOL    HW238592   2.054   8.829   2.364  0.3748 -1.0321 -0.3171
11362SOL     OW38593   6.345   0.557   3.036 -0.3002  0.6722  0.9576
11362SOL    HW138594   6.276   0.573   3.107 -1.1390 -0.0237  0.3023
11362SOL    HW238595   6.303   0.565   2.946  0.4221 -0.0243  0.5522
11364SOL     OW38596   3.746   0.568   5.413 -0.1072 -0.2388 -0.0416
11364SOL    HW138597   3.844   0.586   5.401 -0.2322 -0.0423 -0.7670
11364SOL    HW238598   3.728   0.471   5.400 -0.2039 -0.0683 -1.2130
11365SOL     OW38599   7.533   7.188   4.469  0.0592  0.0244 -0.1143
11365SOL    HW138600   7.552   7.113   4.405  1.0262 -1.3678  1.7593
11365SOL    HW238601   7.456   7.164   4.527  0.5638  0.3379  0.6988
11366SOL     OW38602   6.177   2.438   4.356  0.8181 -0.1338 -0.1259
11366SOL    HW138603   6.178   2.525   4.405  0.9684 -1.1710  1.7454
11366SOL    HW238604   6.097   2.435   4.296 -0.2321  0.5493  1.2083
11367SOL     OW38605   9.846   7.574   1.330  0.3799 -0.2374  0.6911
11367SOL    HW138606   9.883   7.533   1.413 -0.7352 -1.3771  0.6536
11367SOL    HW238607   9.750   7.598   1.345  0.5164  0.6616  0.1213
11368SOL     OW38608   5.157   4.932   2.229  0.2520 -0.2722 -0.5482
11368SOL    HW138609   5.254   4.953   2.243 -0.0233  0.5678  0.1127
11368SOL    HW238610   5.121   4.991   2.157  0.5011 -1.3615 -1.5858
11370SOL     OW38611   4.606   2.501   5.359 -0.5507  1.1031  0.1752
11370SOL    HW138612   4.695   2.538   5.383 -0.9675  3.1099 -1.2510
11370SOL    HW238613   4.609   2.462   5.266 -0.3708 -1.6642  1.2841
11371SOL     OW38614   5.089   2.188   4.555  0.3593  0.2386  0.2878
11371SOL    HW138615   5.004   2.157   4.512  0.3784  1.4916 -0.6799
11371SOL    HW238616   5.110   2.130   4.634 -0.5992 -1.0032 -0.3610
11372SOL     OW38617   8.569   4.948   1.697 -0.0982 -0.0675 -0.4512
11372SOL    HW138618   8.545   4.851   1.697 -0.7182  0.0698 -1.8367
11372SOL    HW238619   8.562   4.984   1.790  0.9915 -1.5460  0.2243
11373SOL     OW38620   6.188   1.150   5.672  0.1232  0.0906 -0.7873
11373SOL    HW138621   6.094   1.118   5.659  0.1065  0.2568 -1.0699
11373SOL    HW238622   6.241   1.080   5.719 -0.5424  0.5772  0.7356
11374SOL     OW38623   3.674   8.289   2.717  0.1960  0.1776 -0.1827
11374SOL    HW138624   3.768   8.299   2.682 -0.6131  0.1819 -2.4352
11374SOL    HW238625   3.677   8.272   2.815  2.4628  2.5863  0.2255
11375SOL     OW38626   3.835   6.404   4.058 -0.1755 -0.4291 -0.2610
11375SOL    HW138627   3.875   6.353   3.982 -0.2878 -1.5506  0.4235
11375SOL    HW238628   3.908   6.447   4.112  0.1162 -2.1850  0.7854
11376SOL     OW38629   9.195   9.452   0.193  0.6104  0.1039  0.2814
11376SOL    HW138630   9.187   9.391   0.271  1.6512 -0.4570 -0.0556
11376SOL    HW238631   9.223   9.543   0.224  0.0581  0.1500  0.6589
11377SOL     OW38632   4.143   5.363   1.220  0.7245 -0.3279  0.2599
11377SOL    HW138633   4.133   5.439   1.285 -0.4942  0.9413 -1.3662
11377SOL    HW238634   4.137   5.398   1.127  0.2747 -2.4197 -0.5160
11378SOL     OW38635   6.558   5.517   0.934 -0.2294  0.0501  0.2331
11378SOL    HW138636   6.578   5.422   0.958 -0.0046 -0.4113 -1.7276
11378SOL    HW238637   6.643   5.570   0.932 -0.2336  0.0599  0.3323
11379SOL     OW38638   4.194   0.062   4.278 -0.1034 -0.0288 -0.0749
11379SOL    HW138639   4.191   0.018   4.368  2.3682 -1.9669 -0.8995
11379SOL    HW238640   4.258   0.139   4.281  2.9208 -2.4053 -1.0903
11380SOL     OW38641   1.098   3.009   0.818 -0.1134  0.3322 -0.0462
11380SOL    HW138642   1.072   2.975   0.728  2.2412  0.5994 -0.8666
11380SOL    HW238643   1.195   3.034   0.818 -0.4349  1.7619  2.1416
11381SOL     OW38644   0.173   4.247   2.063 -0.3807 -0.0971  0.7530
11381SOL    HW138645   0.133   4.302   1.989  0.2536  0.7008  0.9890
11381SOL    HW238646   0.130   4.157   2.065 -0.7019  0.0244 -0.3161
11382SOL     OW38647   8.260   2.092   5.956 -0.2856 -0.2659 -0.6349
11382SOL    HW138648   8.235   2.180   5.917 -1.2413  1.1238  2.8825
11382SOL    HW238649   8.266   2.101   6.056  1.0517 -3.8370 -0.3335
11383SOL     OW38650   3.009   7.684   4.691 -0.3945 -0.2792  0.8814
11383SOL    HW138651   2.919   7.653   4.721 -0.5656 -1.6726 -0.9583
11383SOL    HW238652   3.000   7.768   4.638 -0.7273 -0.8984 -0.0566
11384SOL     OW38653   8.732   0.170   1.760  0.1951  0.6301 -0.3216
11384SOL    HW138654   8.808   0.171   1.824  0.7734  0.9236 -1.0096
11384SOL    HW238655   8.696   0.263   1.749  0.5776  0.7007 -0.9896
11386SOL     OW38656   9.124   4.260   0.731 -0.1272 -0.1896 -0.0090
11386SOL    HW138657   9.078   4.236   0.646 -0.1011  2.2133 -0.7513
11386SOL    HW238658   9.073   4.222   0.808 -0.6637 -1.6007 -1.0489
11387SOL     OW38659   2.856   1.933   4.894  0.1528 -0.2116 -0.4281
11387SOL    HW138660   2.916   1.910   4.970 -1.5921 -1.7150  0.5456
11387SOL    HW238661   2.835   2.031   4.897  0.9982 -0.0480  0.3678
11389SOL     OW38662   7.561   9.357   5.656  0.0182 -0.4011  0.0955
11389SOL    HW138663   7.595   9.337   5.749  0.7412 -0.5191 -0.1905
11389SOL    HW238664   7.626   9.322   5.589  0.6546  1.7111 -0.4339
11391SOL     OW38665   7.294   1.069   3.668 -0.1383 -0.4682  0.7531
11391SOL    HW138666   7.325   1.005   3.738  1.6122 -0.4740  0.0177
11391SOL    HW238667   7.267   1.155   3.711  0.7361 -0.5335  1.4542
11392SOL     OW38668   1.759   6.660   0.324  0.1021 -0.0865 -0.9374
11392SOL    HW138669   1.689   6.675   0.394 -0.5328  1.5995 -1.8892
11392SOL    HW238670   1.718   6.612   0.247  0.4300 -0.6267 -0.7743
11393SOL     OW38671   9.208   5.608   5.845 -0.1320  0.3131 -0.3460
11393SOL    HW138672   9.162   5.647   5.765 -0.0828  2.4596  0.6331
11393SOL    HW238673   9.305   5.634   5.844 -0.0641  0.0926  0.2450
11394SOL     OW38674   7.231   0.702   2.993  0.6395  0.1305  0.0277
11394SOL    HW138675   7.299   0.661   3.054  1.0352  1.0827  0.2388
11394SOL    HW238676   7.249   0.800   2.985 -0.4312  0.3036 -0.2904
11396SOL     OW38677   8.850   8.475   3.728 -0.8012  0.1868  0.0591
11396SOL    HW138678   8.903   8.557   3.749  0.1167 -0.8188  1.7549
11396SOL    HW238679   8.755   8.500   3.709 -0.1611  1.7984 -1.1240
11397SOL     OW38680   0.215   8.467   1.359 -0.4515 -0.1255 -0.0453
11397SOL    HW138681   0.229   8.566   1.347  0.7497 -0.1201  1.2011
11397SOL    HW238682   0.167   8.430   1.280  0.5234  1.1685 -1.2660
11398SOL     OW38683   6.318   2.242   0.064 -0.2987 -0.4065 -0.2133
11398SOL    HW138684   6.292   2.316   0.126 -1.0413 -0.1382 -0.8368
11398SOL    HW238685   6.416   2.223   0.073 -0.0641  0.7898 -0.2088
11399SOL     OW38686   1.218   5.353   0.066 -0.4178  0.3304  0.0196
11399SOL    HW138687   1.187   5.273   0.117 -0.6064  1.2679  1.4372
11399SOL    HW238688   1.311   5.377   0.095  0.5657 -0.7873 -2.1459
11400SOL     OW38689   0.779   3.473   2.804 -0.3571  0.6253  0.2779
11400SOL    HW138690   0.864   3.427   2.831 -0.1021  0.8679 -0.0945
11400SOL    HW238691   0.758   3.450   2.709 -1.1928 -0.1500  0.6401
11401SOL     OW38692   2.200   3.636   1.054  0.4172 -0.0914  0.4672
11401SOL    HW138693   2.170   3.558   1.110 -1.7506 -1.2806 -2.2257
11401SOL    HW238694   2.267   3.606   0.986 -0.4948  0.3523 -0.6485
11402SOL     OW38695   0.196   2.380   5.703  0.2462 -0.2597 -0.6761
11402SOL    HW138696   0.284   2.353   5.743 -0.6287 -2.0052  0.1058
11402SOL    HW238697   0.154   2.301   5.658 -0.3813  0.8547 -2.0705
11403SOL     OW38698   5.305   0.830   1.162 -0.4422 -0.3447  0.4264
11403SOL    HW138699   5.227   0.892   1.165  0.9802  1.5058  0.5492
11403SOL    HW238700   5.337   0.811   1.255  0.3255  0.3397  0.3122
11406SOL     OW38701   3.843   6.382   3.222 -0.3180 -0.1970  0.1831
11406SOL    HW138702   3.801   6.462   3.179 -0.1586  0.0362  0.4535
11406SOL    HW238703   3.910   6.341   3.160 -1.0108 -0.6218 -0.2812
11407SOL     OW38704   8.224   2.432   1.423 -0.0997 -0.0599 -0.0590
11407SOL    HW138705   8.239   2.441   1.324 -0.5327  1.2974 -0.0112
11407SOL    HW238706   8.126   2.443   1.443 -0.1423 -1.2643  0.4259
11408SOL     OW38707   5.942   8.251   5.327 -0.0602 -0.3062 -0.0119
11408SOL    HW138708   6.040   8.251   5.343 -0.1647  0.0031  0.6628
11408SOL    HW238709   5.909   8.345   5.316 -0.2884 -0.4027 -0.1655
11409SOL     OW38710   5.128   2.314   5.495 -0.5484  0.1286  0.3236
11409SOL    HW138711   5.148   2.366   5.578 -0.3528  1.7926 -0.7466
11409SOL    HW238712   5.032   2.322   5.472 -0.0840  1.9153 -1.0931
11410SOL     OW38713   9.933   6.746   0.298  0.0755 -0.2990 -0.2891
11410SOL    HW138714   9.942   6.719   0.394  1.7443 -0.0543 -0.3709
11410SOL    HW238715  10.019   6.731   0.250  0.3175  2.8342 -0.9412
11411SOL     OW38716   1.696   3.661   4.079 -0.0171 -0.4332 -0.0915
11411SOL    HW138717   1.623   3.640   4.015  0.6480 -0.5969 -0.8031
11411SOL    HW238718   1.688   3.601   4.159 -0.6138 -0.5054 -0.2028
11412SOL     OW38719   9.615   8.149   4.465 -0.0519  0.2399 -0.3485
11412SOL    HW138720   9.702   8.123   4.507 -0.9280 -0.6920  0.8989
11412SOL    HW238721   9.604   8.249   4.471 -0.2559  0.0979  1.8166
11413SOL     OW38722   1.435   6.331   2.660  0.3674 -0.0031  0.0212
11413SOL    HW138723   1.489   6.253   2.628  0.3627 -0.4869  1.1552
11413SOL    HW238724   1.472   6.363   2.748 -0.3351  0.5486  0.1181
11414SOL     OW38725   1.016   8.648   0.234 -0.1345 -0.0790  0.4773
11414SOL    HW138726   1.044   8.569   0.180 -0.0732 -1.3320  2.2926
11414SOL    HW238727   1.030   8.628   0.331 -0.0016  2.2096  0.9516
11416SOL     OW38728   8.875   1.590   2.250 -0.3239 -0.4728 -0.0469
11416SOL    HW138729   8.780   1.610   2.224 -0.2914  0.2611  0.3661
11416SOL    HW238730   8.931   1.581   2.168 -1.0738 -2.6450 -0.3595
11417SOL     OW38731   9.484   6.356   3.568  0.5645  0.5316 -0.0663
11417SOL    HW138732   9.478   6.333   3.471 -0.4272  1.2018 -0.1697
11417SOL    HW238733   9.457   6.452   3.581 -0.2659  0.1562  1.0019
11418SOL     OW38734   1.781   7.589   3.603  0.5314 -0.1509 -0.1715
11418SOL    HW138735   1.842   7.532   3.547  0.3284 -0.8262  0.2868
11418SOL    HW238736   1.708   7.533   3.640  0.1606  0.4752  0.0494
11419SOL     OW38737   9.481   6.683   3.851 -0.0883 -0.3970 -0.3524
11419SOL    HW138738   9.417   6.739   3.798  1.7981  1.0253 -1.2029
11419SOL    HW238739   9.450   6.678   3.946 -0.6527  1.5846 -0.3985
11420SOL     OW38740   2.178   0.202   3.360  0.4931  0.0830 -0.0416
11420SOL    HW138741   2.166   0.159   3.449 -0.0943 -0.0947 -0.2098
11420SOL    HW238742   2.147   0.141   3.288 -0.5366  0.8673 -0.2667
11421SOL     OW38743   7.462   9.972   2.173  0.3496 -0.2664 -0.9745
11421SOL    HW138744   7.481  10.067   2.148 -0.6039 -0.2298 -1.5958
11421SOL    HW238745   7.380   9.941   2.125  0.0354 -1.0625  0.0626
11422SOL     OW38746   9.059   5.347   0.537  0.3068 -0.0119 -0.1221
11422SOL    HW138747   9.025   5.399   0.616 -1.0424  0.0907 -0.7551
11422SOL    HW238748   9.143   5.300   0.562 -1.0206 -1.3647  1.9109
11423SOL     OW38749   9.063   2.209   0.633 -0.3934  0.2424 -0.1671
11423SOL    HW138750   9.092   2.212   0.728 -1.3191  2.3770  0.0827
11423SOL    HW238751   9.143   2.202   0.573  0.2055 -0.7651  0.7380
11424SOL     OW38752   4.149   6.842   5.010 -0.5050  0.0201  0.0152
11424SOL    HW138753   4.124   6.904   4.936 -2.3109 -1.8551 -0.9904
11424SOL    HW238754   4.102   6.869   5.094  1.5667  2.1652  0.5635
11425SOL     OW38755   2.751   4.119   2.253  0.5081 -0.2591  0.4187
11425SOL    HW138756   2.805   4.087   2.331  0.9352  0.7450  0.5444
11425SOL    HW238757   2.806   4.183   2.199 -0.0703 -0.3209 -0.2417
11426SOL     OW38758   8.635   2.970   4.952 -0.4022 -0.6513  0.4825
11426SOL    HW138759   8.631   3.063   4.989  0.6537  0.3209 -1.7214
11426SOL    HW238760   8.730   2.939   4.951 -0.4929 -0.9380 -0.6373
11427SOL     OW38761   1.580   0.454   3.825 -0.6406 -0.3149  0.2677
11427SOL    HW138762   1.552   0.467   3.730 -0.6029 -0.1635  0.2786
11427SOL    HW238763   1.593   0.356   3.842  0.6444 -0.2343 -0.2423
11428SOL     OW38764   9.302   4.823   3.182  0.1405 -0.0993  0.0172
11428SOL    HW138765   9.369   4.845   3.110  1.0015  0.0367  0.8420
11428SOL    HW238766   9.267   4.731   3.168  0.1860 -0.0174 -0.6674
11429SOL     OW38767   8.192   3.263   5.801 -0.2976 -0.0503 -0.5252
11429SOL    HW138768   8.260   3.233   5.734  0.2125  0.6677 -0.3432
11429SOL    HW238769   8.112   3.300   5.754  0.2441  0.8609 -0.7515
11430SOL     OW38770   9.361   2.743   0.615  0.4161  0.4204  0.2596
11430SOL    HW138771   9.280   2.801   0.627 -0.0071 -0.4666  1.8663
11430SOL    HW238772   9.383   2.737   0.517 -2.2144 -0.3393 -0.3249
11435SOL     OW38773   6.061   9.789   5.798  0.4673 -0.5678  0.4606
11435SOL    HW138774   5.992   9.758   5.863  0.1031  1.4365  1.0425
11435SOL    HW238775   6.021   9.854   5.734  1.4893 -0.4346 -0.0582
11437SOL     OW38776   2.726   3.093   5.954  0.4436  0.5256 -0.1325
11437SOL    HW138777   2.663   3.086   5.877  0.1882 -0.3134  0.1479
11437SOL    HW238778   2.756   3.188   5.964  0.2091  0.6999 -1.0472
11439SOL     OW38779   3.483   8.980   2.240 -0.0773 -0.5935  0.3696
11439SOL    HW138780   3.405   8.947   2.187 -0.3399  0.3450  0.1584
11439SOL    HW238781   3.490   8.928   2.326 -1.4280 -0.1315  0.7649
11440SOL     OW38782   9.623   1.138   4.353 -0.2848  0.4786  0.3634
11440SOL    HW138783   9.542   1.191   4.379  0.5050  2.0615 -0.3421
11440SOL    HW238784   9.607   1.096   4.264 -0.9657 -0.6070  0.9822
11441SOL     OW38785   3.916   8.851   1.679  0.1202 -0.2317 -0.0469
11441SOL    HW138786   3.874   8.802   1.756 -0.9908  0.4656 -0.1937
11441SOL    HW238787   3.949   8.786   1.611 -0.1119 -0.8118  0.3949
11442SOL     OW38788   5.532   8.610   2.721  0.8350  0.1376  0.2109
11442SOL    HW138789   5.510   8.685   2.659 -0.0068 -0.3965 -0.1381
11442SOL    HW238790   5.616   8.564   2.689  0.8796  0.4001 -0.0509
11443SOL     OW38791   8.921   4.652   3.105  0.3732 -0.3305  0.2039
11443SOL    HW138792   8.902   4.649   3.203 -0.0155  0.9347  0.1803
11443SOL    HW238793   8.880   4.572   3.061 -1.2553  0.1698  0.7784
11445SOL     OW38794   2.512   7.435   4.573  0.2866 -0.1168 -0.8500
11445SOL    HW138795   2.498   7.498   4.650 -1.0800 -0.7645 -0.5515
11445SOL    HW238796   2.609   7.413   4.566  0.6757  1.3946 -0.4611
11446SOL     OW38797   1.346   9.015   3.460  0.1882 -0.1981 -0.1526
11446SOL    HW138798   1.444   9.002   3.445  0.4656  1.9442 -0.2653
11446SOL    HW238799   1.298   9.015   3.372  0.2060 -0.3117 -0.1621
11447SOL     OW38800   5.050   1.449   5.825  0.3269  0.5163  0.1565
11447SOL    HW138801   5.132   1.421   5.775  0.9623  1.1835  0.8252
11447SOL    HW238802   5.076   1.486   5.914 -0.7755 -0.3259  0.8361
11449SOL     OW38803   7.245   1.638   5.183  0.2232  0.1475  0.1024
11449SOL    HW138804   7.290   1.691   5.110  2.2326 -1.3341  0.2204
11449SOL    HW238805   7.200   1.559   5.143  1.1705 -0.5651  0.4333
11450SOL     OW38806   4.199   8.134   2.232  0.0505  0.3637  0.1931
11450SOL    HW138807   4.262   8.061   2.204 -0.3326 -0.5644  1.6474
11450SOL    HW238808   4.107   8.112   2.200 -0.1506 -0.0512  1.0273
11451SOL     OW38809   7.885   5.530   1.070 -0.0584  0.3167 -0.3131
11451SOL    HW138810   7.821   5.531   0.993 -1.2990  0.7877  0.6905
11451SOL    HW238811   7.883   5.619   1.116  2.0187  0.6339 -0.8167
11452SOL     OW38812   9.435   6.296   3.317  0.5899  0.4216 -0.1092
11452SOL    HW138813   9.442   6.199   3.292  1.2180  0.9725 -2.1605
11452SOL    HW238814   9.345   6.330   3.290  0.5750  0.5423  0.0958
11454SOL     OW38815   5.843   1.805   4.195  0.0515 -0.1175 -0.1113
11454SOL    HW138816   5.906   1.792   4.118 -0.0642  0.7471 -0.3605
11454SOL    HW238817   5.893   1.845   4.272 -0.4576  1.8514 -0.7687
11455SOL     OW38818   8.910   6.868   4.109  0.1972  0.5847  0.3272
11455SOL    HW138819   8.829   6.909   4.150  0.6017  2.0815 -0.3573
11455SOL    HW238820   8.883   6.818   4.026  0.0572  1.5920 -0.2406
11456SOL     OW38821   9.038   6.004   3.554  0.4035 -0.0061 -0.2236
11456SOL    HW138822   9.041   6.062   3.472 -0.3726 -0.9169 -0.9015
11456SOL    HW238823   9.129   6.003   3.596  0.9741 -0.0413 -1.4344
11457SOL     OW38824   8.379   6.793   6.227  0.1384 -0.1354  0.2511
11457SOL    HW138825   8.456   6.743   6.188  0.1457  0.6527 -0.7761
11457SOL    HW238826   8.357   6.871   6.169 -0.8839  0.1503  0.9975
11458SOL     OW38827   7.380   1.311   5.001 -0.7338 -0.9419 -0.4213
11458SOL    HW138828   7.422   1.338   5.088 -1.1503  0.8039 -0.7490
11458SOL    HW238829   7.440   1.247   4.953  0.4498 -0.3070  0.2025
11459SOL     OW38830   8.528   6.557   5.500  0.0664  0.2024  0.2604
11459SOL    HW138831   8.558   6.630   5.439  0.9860 -1.2219 -1.0198
11459SOL    HW238832   8.607   6.515   5.543 -0.3648 -0.8523  0.0422
11460SOL     OW38833   9.746   3.597   2.679  0.3614  0.2283  0.2370
11460SOL    HW138834   9.765   3.631   2.587  3.1028 -0.3548  0.5504
11460SOL    HW238835   9.778   3.502   2.687  2.4752  1.0836  2.5325
11461SOL     OW38836   3.949   7.759   6.299  0.2332  0.0385  0.0576
11461SOL    HW138837   4.018   7.828   6.319 -0.4058  0.4369  0.9073
11461SOL    HW238838   3.878   7.760   6.370 -0.2459 -0.8858 -0.3909
11462SOL     OW38839   9.651   2.967   3.928  0.2251  0.9188 -0.8489
11462SOL    HW138840   9.738   3.013   3.945 -0.4561  2.5894 -1.8266
11462SOL    HW238841   9.664   2.868   3.941  1.6777  1.3428  1.2852
11463SOL     OW38842   1.846   5.534   1.932  0.2478  0.0369  0.1203
11463SOL    HW138843   1.863   5.522   2.030  2.5133  0.3589 -0.2113
11463SOL    HW238844   1.866   5.629   1.907  0.2392 -0.1956 -0.7597
11464SOL     OW38845   2.703   3.818   2.334  0.4906 -0.1620  0.0546
11464SOL    HW138846   2.700   3.918   2.326 -3.1980 -0.3808 -2.9380
11464SOL    HW238847   2.636   3.787   2.401  0.3489 -0.6830 -0.3172
11465SOL     OW38848   2.251   5.249   2.313 -0.2445 -0.4062 -0.0463
11465SOL    HW138849   2.347   5.258   2.287 -0.2860 -0.2332 -0.1454
11465SOL    HW238850   2.193   5.276   2.236 -0.3606  2.0881  0.8515
11466SOL     OW38851   6.490   1.793   3.071  0.0980 -0.1818  0.4077
11466SOL    HW138852   6.423   1.844   3.016  0.6773 -0.4348 -0.5406
11466SOL    HW238853   6.575   1.784   3.020  1.6194  1.9975  2.4457
11467SOL     OW38854   0.923   4.298   4.435 -0.2965 -0.2198  0.2768
11467SOL    HW138855   1.017   4.265   4.436 -0.2735 -0.1361  1.2056
11467SOL    HW238856   0.866   4.240   4.495 -0.9959 -0.7266 -0.8508
11468SOL     OW38857   3.542   9.298   3.578 -0.1889  0.6592  0.1229
11468SOL    HW138858   3.638   9.303   3.551 -0.4577  0.0329 -0.9793
11468SOL    HW238859   3.534   9.303   3.678  1.0875 -0.8591  0.3091
11469SOL     OW38860   9.879   6.939   2.988 -0.7195 -0.3656  0.1954
11469SOL    HW138861   9.802   6.988   2.947  0.9418  0.7927 -1.6622
11469SOL    HW238862   9.923   6.997   3.057 -0.6900 -0.4876  0.2790
11470SOL     OW38863   9.535   7.510   1.024  0.3683  0.1429  0.1883
11470SOL    HW138864   9.453   7.508   0.966  0.3873  0.6508  0.1410
11470SOL    HW238865   9.528   7.439   1.094  0.6392 -0.9126 -0.8334
11473SOL     OW38866   2.324   3.757   3.523  0.1151 -0.3509 -0.1378
11473SOL    HW138867   2.346   3.661   3.543 -1.3949 -0.2727  2.0178
11473SOL    HW238868   2.320   3.809   3.608 -1.1065  1.2040 -1.1132
11474SOL     OW38869   1.531   6.274   2.920  0.2786  0.2758  0.8507
11474SOL    HW138870   1.584   6.280   3.004  0.8395 -0.4815  0.5492
11474SOL    HW238871   1.464   6.200   2.927  2.3747 -1.7963 -0.5076
11475SOL     OW38872   3.565   8.476   3.164 -0.0294  0.5250  0.0092
11475SOL    HW138873   3.589   8.403   3.228  2.2193 -0.2358 -1.6304
11475SOL    HW238874   3.509   8.544   3.211 -0.8965 -1.4729  1.9706
11476SOL     OW38875   6.462   2.758   5.674 -0.3175  0.1145  0.2357
11476SOL    HW138876   6.380   2.735   5.623 -0.6848  1.7076  0.0870
11476SOL    HW238877   6.505   2.840   5.634  2.0026 -1.3825 -0.4389
11478SOL     OW38878   4.468   0.358   5.026 -0.4221  0.5703 -0.1041
11478SOL    HW138879   4.490   0.434   5.088 -1.7734  0.7419  0.1681
11478SOL    HW238880   4.536   0.355   4.952  0.5936  1.0181  0.7902
11479SOL     OW38881   0.821   7.871   3.910 -0.0224  0.0971 -0.7049
11479SOL    HW138882   0.841   7.794   3.850 -0.1670 -0.8983  0.4924
11479SOL    HW238883   0.732   7.909   3.887 -1.4028 -2.1364  0.7179
11480SOL     OW38884   0.285   7.832   6.442  0.2939 -0.0491 -0.0617
11480SOL    HW138885   0.314   7.737   6.459  0.2854 -0.2819 -1.3506
11480SOL    HW238886   0.314   7.889   6.519  0.7481 -1.0046  0.4863
11484SOL     OW38887   8.240   4.714   0.893  0.1428 -0.1769  0.5411
11484SOL    HW138888   8.296   4.670   0.823  0.3723 -0.1303  0.6976
11484SOL    HW238889   8.156   4.661   0.906  0.9421 -1.2218  1.5610
11486SOL     OW38890   0.146   1.035   2.324 -0.5970  0.1527 -0.4625
11486SOL    HW138891   0.142   1.107   2.255  0.7309 -1.6138 -2.4378
11486SOL    HW238892   0.195   0.956   2.287  0.6300 -0.6340  2.6989
11487SOL     OW38893   8.631   0.846   2.805  0.6407  0.4944 -0.5322
11487SOL    HW138894   8.674   0.788   2.874 -1.3651 -0.6559 -0.2174
11487SOL    HW238895   8.586   0.924   2.849  0.1707  0.2800 -0.6369
11488SOL     OW38896   3.113   2.094   1.115  0.7498  0.1179  0.3829
11488SOL    HW138897   3.113   2.193   1.124  0.9140 -0.0756  2.8154
11488SOL    HW238898   3.169   2.054   1.187  0.3637 -1.7614 -0.3376
11489SOL     OW38899   7.809   5.277   6.352 -0.0035  0.5802 -0.4711
11489SOL    HW138900   7.893   5.275   6.405 -1.4641 -1.2591  1.8662
11489SOL    HW238901   7.803   5.195   6.295 -0.0274  0.8758 -0.8925
11490SOL     OW38902   5.120   1.075   5.845  0.4277  0.4517 -0.0146
11490SOL    HW138903   5.029   1.055   5.809  0.8754  0.5476 -1.2180
11490SOL    HW238904   5.175   0.991   5.847  0.9459  0.7533 -1.1395
11491SOL     OW38905   3.805   7.027   2.137 -0.4270 -0.3418 -0.1937
11491SOL    HW138906   3.780   6.946   2.190  0.2105  0.3520  1.2014
11491SOL    HW238907   3.888   7.009   2.085  0.2334 -0.2706  0.8433
11492SOL     OW38908   8.990   4.691   4.236 -0.1098 -0.0669 -0.0038
11492SOL    HW138909   8.946   4.615   4.283 -0.1682 -1.3909 -2.1528
11492SOL    HW238910   9.018   4.662   4.144 -1.2826  2.8754 -1.3439
11493SOL     OW38911   6.253   4.851   1.314 -0.5289  0.3005  0.1365
11493SOL    HW138912   6.277   4.940   1.352  0.3445  0.2637 -0.3373
11493SOL    HW238913   6.310   4.780   1.355 -0.3852  0.1117 -0.3870
11494SOL     OW38914   1.636   5.567   0.273  0.0883  0.4088 -0.9673
11494SOL    HW138915   1.583   5.486   0.249  1.8252 -0.8236 -0.7418
11494SOL    HW238916   1.663   5.562   0.369  1.6289  0.4246 -1.3892
11497SOL     OW38917   4.114   7.731   2.255 -0.0967  0.1469 -0.2097
11497SOL    HW138918   4.174   7.677   2.197 -0.2323  0.8494 -1.0076
11497SOL    HW238919   4.077   7.673   2.328  1.0007 -0.4524 -0.1134
11499SOL     OW38920   7.774   1.326   0.252 -0.1890  0.3548  0.2620
11499SOL    HW138921   7.687   1.371   0.267  0.4012  1.7461 -0.4622
11499SOL    HW238922   7.849   1.384   0.285  0.6858  0.6546 -2.1256
11500SOL     OW38923   5.251   1.889   3.222 -0.3884  0.5012 -0.1665
11500SOL    HW138924   5.275   1.845   3.308 -0.2873 -0.7526 -0.8306
11500SOL    HW238925   5.250   1.821   3.148  0.8118  1.7759 -1.3898
11501SOL     OW38926   5.006   5.534   1.096 -0.1929  0.6032  0.4458
11501SOL    HW138927   5.093   5.569   1.061  0.1895 -1.4589 -0.7726
11501SOL    HW238928   5.012   5.434   1.105 -2.2594  0.4983  0.8664
11503SOL     OW38929   4.422   6.471   1.414  0.3698  0.4998  0.3588
11503SOL    HW138930   4.433   6.425   1.326  1.2051  2.7116 -0.7225
11503SOL    HW238931   4.324   6.476   1.436 -0.0077  1.7022 -1.4363
11504SOL     OW38932   4.036   9.060   4.732  0.1544 -0.0157  0.2718
11504SOL    HW138933   4.018   9.152   4.766 -1.0807 -1.0779  2.6436
11504SOL    HW238934   4.064   9.001   4.808  0.3444 -1.7363 -1.0953
11507SOL     OW38935   3.595   8.311   4.288 -0.2556  0.1904  0.1316
11507SOL    HW138936   3.524   8.305   4.358 -2.0473 -0.3267 -1.6769
11507SOL    HW238937   3.580   8.391   4.230  0.6595  0.1023 -0.2460
11508SOL     OW38938   6.193   8.743   3.376 -0.0626 -0.3451 -0.4319
11508SOL    HW138939   6.177   8.765   3.280  0.7441  1.6893 -0.1254
11508SOL    HW238940   6.181   8.644   3.390 -0.1396 -0.6739 -2.6211
11509SOL     OW38941   8.131   3.091   1.301 -0.5914 -0.2589  0.4130
11509SOL    HW138942   8.160   3.039   1.381  0.1292 -0.4661  0.0123
11509SOL    HW238943   8.150   3.040   1.218 -2.5876 -0.6356  0.1613
11510SOL     OW38944   9.954   0.217   3.561 -0.4387  0.6395  0.0794
11510SOL    HW138945   9.953   0.138   3.622 -0.9325  1.1765  0.7813
11510SOL    HW238946  10.024   0.204   3.490  0.6931  0.3604  1.2229
11512SOL     OW38947   4.721   0.368   0.715 -0.3108 -0.0927  0.2771
11512SOL    HW138948   4.766   0.447   0.757 -2.2704  1.1194  0.1407
11512SOL    HW238949   4.718   0.293   0.781  1.7306 -0.1456  0.3425
11513SOL     OW38950   5.494   1.240   1.347 -0.1050 -0.0356 -1.0006
11513SOL    HW138951   5.449   1.210   1.262  1.1842 -2.2429 -0.9405
11513SOL    HW238952   5.467   1.180   1.422  0.7396  0.3419 -0.3854
11514SOL     OW38953   4.584   1.635   1.619 -0.5090  0.4942 -0.0735
11514SOL    HW138954   4.643   1.688   1.558 -0.0698 -1.7123 -1.6494
11514SOL    HW238955   4.639   1.571   1.673 -1.2027  0.2056  0.3040
11515SOL     OW38956   1.025   1.713   1.205 -0.1284 -0.3181 -0.4725
11515SOL    HW138957   0.971   1.797   1.201  2.6929  1.5776 -0.6963
11515SOL    HW238958   1.080   1.712   1.288 -0.2071 -2.0108 -0.4177
11516SOL     OW38959   0.668   1.777   0.114  0.2021  0.0481  0.7308
11516SOL    HW138960   0.629   1.757   0.024  0.4439 -0.8006  0.8086
11516SOL    HW238961   0.764   1.803   0.104  0.5392 -1.1298  0.8370
11517SOL     OW38962   1.629   5.353   3.856  0.2185  0.0472 -0.1029
11517SOL    HW138963   1.656   5.449   3.853 -1.3456  0.4978  0.2604
11517SOL    HW238964   1.566   5.333   3.781 -0.6382 -0.3398  0.7107
11519SOL     OW38965   7.602   5.808   4.801 -0.3418  0.0318  0.1147
11519SOL    HW138966   7.636   5.867   4.875  1.5947 -2.2285  1.0847
11519SOL    HW238967   7.667   5.734   4.785 -1.0596  0.0984 -3.4460
11520SOL     OW38968   8.385   7.240   0.766  0.0299 -0.1212 -0.4328
11520SOL    HW138969   8.468   7.186   0.758  0.3483  0.0972  1.1842
11520SOL    HW238970   8.357   7.273   0.676  1.5212 -0.4472 -1.0161
11521SOL     OW38971   0.560   3.060   0.843  0.3688  0.1398 -0.1495
11521SOL    HW138972   0.479   3.103   0.882 -0.2808 -1.4871  0.3356
11521SOL    HW238973   0.640   3.082   0.899  0.2732  1.7506 -0.6321
11522SOL     OW38974   3.186   1.739   5.260  0.0177  0.2042 -0.4353
11522SOL    HW138975   3.175   1.672   5.187 -1.3572  0.4888 -0.5026
11522SOL    HW238976   3.275   1.727   5.304  0.1801 -1.0177 -1.0924
11523SOL     OW38977   5.445   4.797   1.269  0.4120 -0.5480  0.3537
11523SOL    HW138978   5.522   4.748   1.310 -0.2857 -2.0679 -0.1283
11523SOL    HW238979   5.378   4.819   1.341  2.0114  2.2425  1.0741
11524SOL     OW38980   2.118   9.429   1.706  0.0804  0.4021  0.0986
11524SOL    HW138981   2.082   9.364   1.639  0.1699 -1.9683  2.2894
11524SOL    HW238982   2.051   9.502   1.721 -1.3788 -0.8973 -0.0292
11525SOL     OW38983   2.493   8.211   5.362  0.5898 -0.4911  0.0639
11525SOL    HW138984   2.415   8.179   5.308  1.1069 -2.2578  0.3352
11525SOL    HW238985   2.560   8.255   5.302  0.9554 -2.0450 -0.6783
11526SOL     OW38986   8.755   5.968   2.859  0.1287  0.4285 -0.2372
11526SOL    HW138987   8.851   5.962   2.834  0.8857  1.2718  2.3232
11526SOL    HW238988   8.730   6.064   2.873 -1.0226  0.1971 -0.6203
11527SOL     OW38989   9.025   8.680   3.770  0.2849 -0.2658 -0.5102
11527SOL    HW138990   9.085   8.637   3.703 -1.3129 -2.9721 -0.2960
11527SOL    HW238991   8.968   8.749   3.724 -0.2996 -1.5960 -1.8193
11528SOL     OW38992   8.896   1.317   4.579  0.4615 -0.3055 -0.3635
11528SOL    HW138993   8.990   1.350   4.585  0.7173 -0.6585 -2.3259
11528SOL    HW238994   8.833   1.393   4.589  0.9284 -0.0621  0.9307
11530SOL     OW38995   3.105   9.576   0.871  0.0824 -0.1736  0.0254
11530SOL    HW138996   3.154   9.646   0.923 -1.8801  1.1037  0.1920
11530SOL    HW238997   3.160   9.549   0.792  1.7544  0.0596  1.0870
11531SOL     OW38998   4.782   8.946   2.513  0.4644 -0.3901 -0.1478
11531SOL    HW138999   4.694   8.960   2.468 -0.6218 -2.9677  1.0558
11531SOL    HW239000   4.836   8.881   2.460  1.4770  0.8959 -0.6832
11533SOL     OW39001   6.177   0.870   0.043  0.5257  0.3629 -0.2068
11533SOL    HW139002   6.229   0.870   0.128  3.9667  2.9255 -2.1608
11533SOL    HW239003   6.224   0.815  -0.026 -2.1360 -1.5808 -0.5382
11534SOL     OW39004   7.903   3.126   3.967 -0.3976 -0.7224 -0.1901
11534SOL    HW139005   7.923   3.178   4.050  0.4357  0.2151 -0.9626
11534SOL    HW239006   7.984   3.074   3.940 -1.5083 -3.2331  1.1099
11535SOL     OW39007   6.757   7.297   3.677 -0.4703  0.3488  0.2540
11535SOL    HW139008   6.795   7.229   3.615 -2.5982 -0.7405  0.0999
11535SOL    HW239009   6.802   7.385   3.662 -0.5783 -0.0198 -2.4491
11536SOL     OW39010   0.289   6.573   2.577  0.1322  0.3116 -0.3907
11536SOL    HW139011   0.367   6.633   2.592 -0.5027  0.3135  3.4897
11536SOL    HW239012   0.292   6.497   2.643 -0.4580 -2.5331 -3.5081
11537SOL     OW39013   0.196   6.376   0.704 -0.3592  0.4634 -0.0188
11537SOL    HW139014   0.174   6.303   0.639  2.6614  0.2856 -0.9343
11537SOL    HW239015   0.209   6.462   0.653  1.9769  0.3324  0.3010
11538SOL     OW39016   2.094   2.024   1.978  0.3929  0.2355 -0.6362
11538SOL    HW139017   2.185   2.049   2.010 -0.2379 -0.7571  2.0163
11538SOL    HW239018   2.059   1.948   2.032 -1.6221 -0.0372 -2.2662
11539SOL     OW39019   1.376   2.921   6.295  0.1681  0.6494 -0.7013
11539SOL    HW139020   1.475   2.922   6.283  0.5489 -1.3045  1.7634
11539SOL    HW239021   1.353   2.959   6.385 -0.9187 -2.8696  0.6014
11540SOL     OW39022   0.443   1.673   2.150 -0.0464  0.3785 -0.0739
11540SOL    HW139023   0.417   1.626   2.066 -0.8813  0.3882  0.1729
11540SOL    HW239024   0.471   1.767   2.128  0.7034  0.0671 -0.4538
11541SOL     OW39025   3.174   9.817   0.094 -0.9523 -0.4111 -0.1341
11541SOL    HW139026   3.120   9.776   0.021 -1.5123  1.0638 -0.5626
11541SOL    HW239027   3.234   9.888   0.056 -1.3364  0.4491  0.8274
11543SOL     OW39028   0.231   5.165   2.801 -0.0718 -0.4186 -0.0073
11543SOL    HW139029   0.308   5.195   2.745 -1.1159  1.1266 -0.6530
11543SOL    HW239030   0.265   5.127   2.887  1.3767  0.9632  0.0531
11544SOL     OW39031   7.190   9.762   6.234 -0.3547 -0.1665 -0.1013
11544SOL    HW139032   7.246   9.837   6.197 -0.2215  0.3653  1.1486
11544SOL    HW239033   7.099   9.765   6.194 -0.5715  1.1030  0.4756
11545SOL     OW39034   4.325   1.918   1.494  0.2593  0.5209  0.3956
11545SOL    HW139035   4.289   1.904   1.586  0.9892  0.0664  0.6153
11545SOL    HW239036   4.262   1.878   1.427  0.6072 -0.7727  0.8152
11546SOL     OW39037   4.778   2.784   4.104  0.3121  0.3861 -0.2142
11546SOL    HW139038   4.836   2.704   4.120 -1.2225 -0.7922 -0.4115
11546SOL    HW239039   4.712   2.794   4.178 -0.3775  0.6635 -0.8478
11547SOL     OW39040   5.020   2.683   5.016 -0.5324 -0.9920 -0.4596
11547SOL    HW139041   5.069   2.672   4.930 -1.4384 -3.3447 -0.7310
11547SOL    HW239042   5.070   2.637   5.089  0.8203  1.9733  0.5482
11548SOL     OW39043   9.315   9.952   2.015 -0.3108 -0.3097  0.1272
11548SOL    HW139044   9.234   9.899   2.039  0.1056 -0.6949  0.7188
11548SOL    HW239045   9.383   9.892   1.973  0.5549 -0.4653  1.7113
11549SOL     OW39046   4.046   4.985   0.008  0.0811  0.4884  0.6853
11549SOL    HW139047   4.118   4.993  -0.061  0.3099 -0.0901  0.8495
11549SOL    HW239048   3.959   5.018  -0.029  0.0170 -0.6238 -0.1610
11551SOL     OW39049   1.813   7.500   2.624  0.2096 -0.0413 -0.4532
11551SOL    HW139050   1.903   7.539   2.609  0.4714 -0.3819  0.2191
11551SOL    HW239051   1.793   7.497   2.722 -0.5856  0.1618 -0.6049
11552SOL     OW39052   4.677   5.519   1.525  0.4567 -0.2177 -0.3349
11552SOL    HW139053   4.654   5.582   1.451 -0.3425  1.2604  1.1162
11552SOL    HW239054   4.637   5.429   1.507 -2.8583  1.1173  0.0251
11553SOL     OW39055   3.347   1.132   0.473 -0.1824  0.0435  0.1457
11553SOL    HW139056   3.443   1.154   0.494  0.3246 -1.5381 -0.4378
11553SOL    HW239057   3.293   1.216   0.474  1.7850  1.4325 -2.6744
11554SOL     OW39058   1.702   6.831   3.944  0.1562  0.1584  0.6597
11554SOL    HW139059   1.711   6.927   3.918 -0.2041  0.4244  1.4897
11554SOL    HW239060   1.649   6.824   4.029 -3.1362 -1.0115 -1.3823
11555SOL     OW39061   7.235   2.147   1.558  0.0919 -0.1673  0.3316
11555SOL    HW139062   7.190   2.153   1.647 -1.1739 -0.3227 -0.2971
11555SOL    HW239063   7.215   2.059   1.516 -0.1653  0.3061 -0.5599
11556SOL     OW39064   8.073   4.518   4.548  0.0343  0.1056 -0.6933
11556SOL    HW139065   8.153   4.573   4.526 -0.7830  0.9870 -1.4574
11556SOL    HW239066   8.008   4.573   4.601 -1.1568  0.1374 -2.1796
11557SOL     OW39067   1.609   5.876   0.317  0.2026  0.4891 -0.0374
11557SOL    HW139068   1.576   5.784   0.296  0.9863 -0.0005  0.8269
11557SOL    HW239069   1.665   5.910   0.242 -0.3426  0.3885 -0.4927
11558SOL     OW39070   2.657   5.332   0.938  0.1758  0.4528  0.4726
11558SOL    HW139071   2.734   5.353   0.997 -0.4225  0.2150  1.3521
11558SOL    HW239072   2.690   5.292   0.853  0.9271 -1.4921  1.6465
11559SOL     OW39073   2.718   5.882   2.186 -0.2953 -0.8575 -0.0744
11559SOL    HW139074   2.815   5.882   2.163 -0.2764 -0.1403 -0.0048
11559SOL    HW239075   2.705   5.832   2.272 -0.2237 -2.5192 -1.0066
11561SOL     OW39076   4.817   1.640   0.126  0.1503 -0.3339 -0.0459
11561SOL    HW139077   4.810   1.568   0.057 -2.4010 -0.1125 -0.0567
11561SOL    HW239078   4.800   1.729   0.083 -2.2827 -0.2656  0.9679
11563SOL     OW39079   0.161   8.969   3.474 -0.1897 -0.1404  0.2415
11563SOL    HW139080   0.180   8.889   3.530 -2.5371 -0.1281  1.0846
11563SOL    HW239081   0.113   8.941   3.391  2.7888 -0.0942 -1.5801
11565SOL     OW39082   9.936   9.191   3.766 -0.0329  0.8792 -0.2716
11565SOL    HW139083   9.890   9.260   3.821 -1.0632  0.2308 -0.3156
11565SOL    HW239084   9.929   9.102   3.810 -0.0585  0.5203 -0.9856
11566SOL     OW39085   8.670   1.481   1.111  0.1359 -0.0593 -0.3682
11566SOL    HW139086   8.707   1.483   1.204  0.1673 -1.7197 -0.3271
11566SOL    HW239087   8.571   1.493   1.114  0.3813  2.2094 -0.3152
11568SOL     OW39088   9.243   3.613   1.488 -0.0864 -0.1840  0.2316
11568SOL    HW139089   9.289   3.584   1.572 -1.7494  0.2402  1.3266
11568SOL    HW239090   9.227   3.534   1.430  2.7469 -0.2261 -0.5672
11569SOL     OW39091   5.539   2.231   3.851 -0.3816 -0.0447  1.1594
11569SOL    HW139092   5.492   2.217   3.939 -1.3186 -1.2022  0.4914
11569SOL    HW239093   5.472   2.225   3.777  0.6195 -0.3788  0.2731
11572SOL     OW39094   4.394   5.559   1.161 -0.3514  0.1954 -0.2021
11572SOL    HW139095   4.306   5.605   1.158 -0.0093  0.8175 -0.6644
11572SOL    HW239096   4.452   5.601   1.231 -0.1294  0.3011 -0.4500
11573SOL     OW39097   3.749   2.020   3.538 -0.4062  0.2000  0.0430
11573SOL    HW139098   3.739   2.071   3.623 -0.0969 -1.0268  0.8183
11573SOL    HW239099   3.679   1.949   3.533 -3.1070  2.8893 -2.6646
11574SOL     OW39100   8.087   6.247   3.265  0.3015  0.2988 -0.3547
11574SOL    HW139101   8.176   6.286   3.286  1.1726 -0.7445 -2.0199
11574SOL    HW239102   8.078   6.235   3.166 -2.1370  1.4416 -0.2971
11575SOL     OW39103   7.749   5.581   1.800  0.2175 -0.2336  0.4961
11575SOL    HW139104   7.707   5.669   1.781 -1.6507 -0.8966  1.3856
11575SOL    HW239105   7.820   5.562   1.732  0.0620  1.5634 -0.1881
11576SOL     OW39106   8.103   5.359   3.000 -0.1250  0.1355 -0.1827
11576SOL    HW139107   8.149   5.440   2.965  0.7997 -0.6445 -0.8080
11576SOL    HW239108   8.023   5.339   2.943  0.3598 -0.1098 -0.7786
11577SOL     OW39109   1.025   6.440   2.230 -0.1129  0.9309 -0.2147
11577SOL    HW139110   1.119   6.468   2.253  0.3559  0.7181 -1.7772
11577SOL    HW239111   0.981   6.513   2.177  0.7226 -0.7209 -3.3243
11578SOL     OW39112   5.145   3.954   0.264 -0.3291  0.3370 -0.4825
11578SOL    HW139113   5.228   3.977   0.316 -0.4673  1.1428 -0.6053
11578SOL    HW239114   5.116   4.035   0.212 -0.4966 -0.3081 -1.3907
11579SOL     OW39115   8.796   4.093   2.574 -0.3199  0.3261  0.4660
11579SOL    HW139116   8.808   4.188   2.601  1.3615  0.4079 -0.5172
11579SOL    HW239117   8.699   4.069   2.577 -0.7781  2.1400  0.4611
11582SOL     OW39118   5.232   0.104   2.910 -0.0959 -0.3394  0.2368
11582SOL    HW139119   5.319   0.080   2.953 -0.4753 -1.0553  0.6240
11582SOL    HW239120   5.158   0.058   2.958 -0.6852  0.2268 -0.1248
11584SOL     OW39121   2.648   3.963   5.256 -0.2556  0.4967  0.1476
11584SOL    HW139122   2.571   3.920   5.303 -0.5889 -1.6032 -2.1497
11584SOL    HW239123   2.613   4.032   5.192  0.1627  3.0635  2.6364
11585SOL     OW39124   4.996   2.557   4.059 -0.0503 -0.1990 -0.2479
11585SOL    HW139125   5.033   2.511   4.140  1.0562  0.8691 -0.1420
11585SOL    HW239126   4.920   2.503   4.022  1.3975 -2.2622 -0.2961
11586SOL     OW39127   7.837   7.528   3.174 -1.0065  0.2189  0.1813
11586SOL    HW139128   7.904   7.468   3.219 -1.8200 -0.3227  0.6772
11586SOL    HW239129   7.866   7.545   3.080 -0.2683 -0.1686  0.3317
11587SOL     OW39130   0.287   7.253   6.089 -0.2590  0.1919 -0.2612
11587SOL    HW139131   0.271   7.175   6.029 -2.1209  0.3098  0.0579
11587SOL    HW239132   0.331   7.327   6.037  0.4092 -0.6147 -0.8546
11588SOL     OW39133   9.151   9.532   6.439  0.2286  0.2545 -0.5385
11588SOL    HW139134   9.073   9.501   6.384 -0.5748 -0.2052  0.8439
11588SOL    HW239135   9.231   9.475   6.418  0.3377  0.9788 -2.2476
11590SOL     OW39136   8.321   2.918   0.293 -0.1346  0.2357  0.4900
11590SOL    HW139137   8.301   2.821   0.274 -0.1614  0.5568 -1.2046
11590SOL    HW239138   8.390   2.950   0.229  1.4379  0.7817  2.4232
11591SOL     OW39139   3.425   1.043   1.402  0.1459  0.6384 -0.2296
11591SOL    HW139140   3.442   1.120   1.341 -1.5538  1.1505 -0.0983
11591SOL    HW239141   3.473   0.962   1.369 -0.2109  1.0865 -1.8584
11592SOL     OW39142   2.074   4.504   3.085  0.4394 -0.0387  0.3509
11592SOL    HW139143   2.060   4.592   3.040 -0.8572  0.1515  1.1169
11592SOL    HW239144   2.052   4.430   3.021 -0.3432  0.2174  0.3176
11593SOL     OW39145   9.287   3.563   4.057  0.5471  0.4296  0.4073
11593SOL    HW139146   9.230   3.579   4.138 -1.3231  0.0391 -0.8051
11593SOL    HW239147   9.292   3.646   4.002 -1.6211 -0.4335 -1.1766
11595SOL     OW39148   2.814   0.276   5.213  0.1175 -0.7549  1.0745
11595SOL    HW139149   2.764   0.198   5.175  0.0138  0.1908 -0.7783
11595SOL    HW239150   2.883   0.306   5.148  1.9702 -0.9666  2.9028
11596SOL     OW39151   4.950   8.332   3.502  0.5096  0.5525  0.5695
11596SOL    HW139152   4.943   8.337   3.602  0.4305 -0.1037  0.5955
11596SOL    HW239153   4.871   8.377   3.461 -1.3061 -2.3036  0.8286
11597SOL     OW39154   1.544   6.952   4.971  0.3355 -0.3243  0.1051
11597SOL    HW139155   1.475   6.909   4.913 -0.1446 -0.6500  0.9121
11597SOL    HW239156   1.562   7.044   4.938 -0.9287 -0.0200  0.2405
11598SOL     OW39157   9.613   3.659   4.793  0.3209  0.0362  0.6561
11598SOL    HW139158   9.632   3.561   4.805  0.3866 -0.3032 -2.0481
11598SOL    HW239159   9.688   3.712   4.832  0.2410 -0.9657  2.2410
11599SOL     OW39160   1.920   3.725   1.103  0.0238  0.0307 -0.3562
11599SOL    HW139161   1.889   3.682   1.019  1.7423 -1.9307 -0.0251
11599SOL    HW239162   2.019   3.739   1.100  0.0019  0.6287  1.0372
11600SOL     OW39163   7.463   3.717   1.570 -0.0545  0.6793  0.0701
11600SOL    HW139164   7.504   3.626   1.564  1.0777  1.0073  2.2834
11600SOL    HW239165   7.367   3.709   1.596 -0.0138  0.0802  0.0285
11601SOL     OW39166   7.734   7.909   4.442  0.8355  0.2353  0.1996
11601SOL    HW139167   7.668   7.939   4.373 -1.0587  1.0689  2.3175
11601SOL    HW239168   7.736   7.809   4.446 -0.0867  0.2015 -0.0868
11602SOL     OW39169   0.335   2.477   0.499 -0.2104 -0.6376  0.0107
11602SOL    HW139170   0.324   2.495   0.597 -2.0764 -0.9848 -0.1135
11602SOL    HW239171   0.367   2.560   0.454 -1.3822  0.1481  0.6021
11603SOL     OW39172   0.698   8.488   5.602 -0.2095 -0.5591 -0.4166
11603SOL    HW139173   0.772   8.551   5.627 -1.4653  0.5034  0.6845
11603SOL    HW239174   0.710   8.459   5.507  1.5241 -0.2675 -0.2997
11604SOL     OW39175   3.779   7.824   0.729 -0.1409 -0.2462  0.1175
11604SOL    HW139176   3.754   7.729   0.746  0.0415 -0.3793 -0.3416
11604SOL    HW239177   3.714   7.885   0.776 -1.5468 -0.5802 -1.3466
11606SOL     OW39178   8.691   0.596   4.304  0.2706 -0.2654 -0.3234
11606SOL    HW139179   8.777   0.628   4.344  0.4866 -1.6459  0.3600
11606SOL    HW239180   8.662   0.660   4.233  2.6421 -0.5471 -1.6296
11607SOL     OW39181   9.349   4.688   1.311  0.2953 -0.5875 -0.3474
11607SOL    HW139182   9.294   4.618   1.358 -0.7528  1.5934  1.8004
11607SOL    HW239183   9.303   4.714   1.226 -0.3329 -1.0774 -0.1701
11608SOL     OW39184   3.170   3.884   6.276 -0.3217 -0.4025  0.1055
11608SOL    HW139185   3.254   3.831   6.291 -0.1524  0.4860  2.6036
11608SOL    HW239186   3.184   3.947   6.199  0.8715 -1.1479 -0.3034
11609SOL     OW39187   7.534   2.835   2.707 -0.0841 -0.4089 -1.0694
11609SOL    HW139188   7.528   2.736   2.693 -0.0091 -0.8640  1.7679
11609SOL    HW239189   7.444   2.870   2.733  0.1411  0.0552 -0.9125
11611SOL     OW39190   4.262   6.380   3.851  0.4532 -0.5770  0.5829
11611SOL    HW139191   4.286   6.295   3.805 -1.0639 -1.9643  2.2606
11611SOL    HW239192   4.171   6.408   3.823  0.0349 -0.7460  1.7519
11612SOL     OW39193  10.002   8.225   2.400  0.6778 -0.0416 -0.5430
11612SOL    HW139194   9.946   8.206   2.481 -0.1595 -0.3586 -1.1851
11612SOL    HW239195   9.997   8.147   2.338  2.5973 -0.4849 -0.1972
11613SOL     OW39196   2.879   9.865   0.794 -0.3684 -0.1156  0.4265
11613SOL    HW139197   2.974   9.895   0.801 -0.6807  0.3814  2.9108
11613SOL    HW239198   2.830   9.924   0.729  0.4768  1.0183  0.8076
11614SOL     OW39199   0.402   7.359   1.031  0.1336 -1.1156 -0.8731
11614SOL    HW139200   0.358   7.375   0.943  0.6039  1.0554 -0.7503
11614SOL    HW239201   0.468   7.432   1.049  1.7183 -2.7640  0.2431
11615SOL     OW39202   1.362   3.261   0.124 -0.2212  0.2883  0.7729
11615SOL    HW139203   1.381   3.346   0.074  0.0371 -0.0355  0.3127
11615SOL    HW239204   1.264   3.243   0.123 -0.2459  0.4266  0.6072
11616SOL     OW39205   3.767   0.426   5.095 -0.5827 -0.3220 -0.4285
11616SOL    HW139206   3.844   0.417   5.032  0.9017 -1.7290  1.5357
11616SOL    HW239207   3.756   0.523   5.120  1.3798 -0.2559  0.2567
11617SOL     OW39208   9.068   3.513   3.355  0.7631  0.0495 -0.5894
11617SOL    HW139209   9.028   3.487   3.443  0.0144 -0.0679 -0.9668
11617SOL    HW239210   9.128   3.592   3.369 -0.0016  0.5574 -0.1044
11618SOL     OW39211   4.209   0.687   0.187 -0.0147  0.0271 -0.2219
11618SOL    HW139212   4.284   0.750   0.167  1.4933 -1.5601  0.3184
11618SOL    HW239213   4.222   0.602   0.135 -0.9298 -0.6163  0.5842
11619SOL     OW39214   9.425   2.775   0.325  0.1015  0.2387  0.4590
11619SOL    HW139215   9.403   2.867   0.293  0.6058  0.1681 -0.0970
11619SOL    HW239216   9.388   2.708   0.262 -0.0521  0.0654  0.7329
11621SOL     OW39217   9.683   7.732   0.904  0.1768 -0.4728 -0.5247
11621SOL    HW139218   9.654   7.652   0.956  0.4431  0.1061  0.5217
11621SOL    HW239219   9.782   7.729   0.890  0.1538 -0.4453 -0.7066
11622SOL     OW39220   7.752   9.590   1.730  0.3161  0.6730  0.0097
11622SOL    HW139221   7.798   9.559   1.814  1.0013 -2.5500 -1.5080
11622SOL    HW239222   7.653   9.590   1.745  0.3350 -1.6206  0.2941
11623SOL     OW39223   0.472   8.841   4.356 -0.5798 -0.0848  0.4239
11623SOL    HW139224   0.517   8.839   4.445 -1.5547 -0.1899  0.9223
11623SOL    HW239225   0.457   8.936   4.329 -0.7294 -0.0540  0.6091
11624SOL     OW39226   7.749   2.867   2.383  0.2987  0.2372  0.3594
11624SOL    HW139227   7.800   2.860   2.469  1.1024 -1.1434 -0.2126
11624SOL    HW239228   7.701   2.954   2.381  0.2375  0.2823  2.2250
11625SOL     OW39229   9.198   2.076   1.371 -0.4952 -0.6283  0.1119
11625SOL    HW139230   9.178   2.028   1.286 -0.1625 -2.3007  0.9415
11625SOL    HW239231   9.149   2.030   1.446 -2.2519  1.9117  0.5796
11626SOL     OW39232   2.217   8.674   3.749  0.3275 -0.3884  0.1363
11626SOL    HW139233   2.120   8.684   3.726  0.2146  0.2638  0.8485
11626SOL    HW239234   2.225   8.644   3.844  0.8364  0.2741  0.3044
11628SOL     OW39235   2.004   4.969   3.945  0.0554  0.4735 -0.1468
11628SOL    HW139236   1.938   5.016   3.886  0.1731  1.9481  0.8776
11628SOL    HW239237   2.095   5.009   3.933  0.4576 -0.4558 -0.3181
11629SOL     OW39238   0.862   3.591   3.208  0.0459 -0.2192 -0.2186
11629SOL    HW139239   0.819   3.682   3.206  0.0821 -0.1882  0.3564
11629SOL    HW239240   0.902   3.575   3.298  0.3421 -0.6698 -0.4287
11630SOL     OW39241   8.754   7.575   2.234  0.2382 -0.1440 -0.0938
11630SOL    HW139242   8.674   7.630   2.212  0.5232  1.4939  2.7079
11630SOL    HW239243   8.834   7.634   2.244  0.9504 -1.2909  1.1209
11631SOL     OW39244   2.189   9.855   0.695  0.1212 -0.2496 -0.2603
11631SOL    HW139245   2.094   9.837   0.671  0.7750 -2.5701 -1.1988
11631SOL    HW239246   2.196   9.871   0.793 -1.5995  2.5992 -0.5483
11632SOL     OW39247   3.940   6.042   3.647 -0.1489  0.2930 -0.4010
11632SOL    HW139248   3.850   6.008   3.622  0.7324 -2.2574 -0.2738
11632SOL    HW239249   3.978   6.094   3.571 -1.4413  0.7989 -0.7127
11633SOL     OW39250   1.952   0.182   3.089 -0.0404 -0.3974  0.1512
11633SOL    HW139251   2.000   0.250   3.033 -0.2216 -0.3032  0.1101
11633SOL    HW239252   1.867   0.156   3.044  0.2948 -1.0704 -0.1129
11634SOL     OW39253   0.999   5.344   5.825 -0.4573  0.3123  0.1908
11634SOL    HW139254   1.062   5.406   5.779 -0.8655 -0.8544 -1.9875
11634SOL    HW239255   1.049   5.263   5.858 -0.8083 -0.7673 -1.8217
11636SOL     OW39256   7.447   2.174   6.316 -0.3721 -0.0756  0.4847
11636SOL    HW139257   7.456   2.083   6.276  0.1314  0.6051 -0.9962
11636SOL    HW239258   7.394   2.233   6.254  0.0617  0.8822  1.0044
11637SOL     OW39259   5.513   4.810   0.820 -0.0719 -0.4906 -0.5715
11637SOL    HW139260   5.541   4.714   0.810 -0.2110 -0.3609 -2.3864
11637SOL    HW239261   5.461   4.838   0.740 -1.2504  0.7077  0.5946
11640SOL     OW39262   4.471   7.496   5.161  0.2060 -0.1740  0.1268
11640SOL    HW139263   4.418   7.421   5.122  0.0125  0.0549 -0.0563
11640SOL    HW239264   4.546   7.460   5.215  1.0537 -0.4972 -1.2399
11642SOL     OW39265   7.366   8.666   4.694 -0.3271  0.4761 -0.7839
11642SOL    HW139266   7.382   8.682   4.596  0.7108 -1.1425 -0.9059
11642SOL    HW239267   7.273   8.633   4.708  0.4644 -2.1546 -1.5883
11643SOL     OW39268   4.197   8.174   3.807 -0.3361  0.3267  0.4598
11643SOL    HW139269   4.292   8.148   3.789 -0.1920  0.2568  1.3013
11643SOL    HW239270   4.190   8.273   3.813 -0.3981  0.3558 -0.0357
11644SOL     OW39271   0.052   4.728   6.358  0.0206 -0.0585 -0.3053
11644SOL    HW139272  -0.002   4.644   6.369  0.6624 -0.4183  0.1231
11644SOL    HW239273   0.149   4.706   6.367  0.1805  0.7593 -0.0476
11645SOL     OW39274   0.551   8.524   4.025  0.2817 -0.0986 -0.6473
11645SOL    HW139275   0.543   8.619   4.054 -0.7752  0.2778 -2.1123
11645SOL    HW239276   0.641   8.489   4.049  1.2408  1.7607 -1.4956
11646SOL     OW39277   8.734   0.826   1.914 -0.2333 -0.1972  0.4895
11646SOL    HW139278   8.776   0.905   1.960  0.4946 -1.1152  1.4522
11646SOL    HW239279   8.806   0.763   1.885 -0.8243 -0.6458 -0.0056
11647SOL     OW39280   0.544   5.748   4.092 -0.2582 -0.2635 -0.2576
11647SOL    HW139281   0.568   5.706   4.180 -1.0709 -0.0028  0.0868
11647SOL    HW239282   0.458   5.797   4.101  0.4300  1.0609 -0.7989
11648SOL     OW39283   4.194   5.444   2.076  0.3589  0.1847  0.1602
11648SOL    HW139284   4.191   5.417   2.173 -0.2124 -0.5282 -0.0558
11648SOL    HW239285   4.121   5.509   2.058  1.6118  1.7510  0.6333
11649SOL     OW39286   3.859   1.418   2.264 -0.0320 -0.3836 -0.3013
11649SOL    HW139287   3.887   1.342   2.323  2.3711  0.2323 -0.5619
11649SOL    HW239288   3.821   1.383   2.179 -1.3070 -1.2751  0.6191
11651SOL     OW39289   9.720   1.124   3.584 -0.5027 -0.0593 -0.0022
11651SOL    HW139290   9.713   1.043   3.642  0.0222  1.2919  2.0085
11651SOL    HW239291   9.637   1.134   3.529 -1.5410 -0.7034  1.4219
11652SOL     OW39292   6.009   1.143   0.314 -0.3460 -0.4511 -0.0431
11652SOL    HW139293   6.081   1.153   0.246 -0.2684 -0.3174  0.0598
11652SOL    HW239294   6.042   1.175   0.403 -0.0348 -1.7620  0.3266
11653SOL     OW39295   6.880   8.938   2.567  0.6081 -0.7253  0.0170
11653SOL    HW139296   6.904   8.986   2.482 -0.2683 -0.2709  0.0208
11653SOL    HW239297   6.873   9.004   2.642  1.3542 -1.1243  0.4400
11654SOL     OW39298   6.805   9.660   2.784 -0.0310  0.2513 -0.3606
11654SOL    HW139299   6.762   9.684   2.871 -0.5971 -0.9204 -0.3157
11654SOL    HW239300   6.878   9.593   2.799  0.4904  0.7385 -0.6811
11655SOL     OW39301   7.925   5.382   1.317 -0.5720 -0.1394  0.2334
11655SOL    HW139302   7.900   5.428   1.232 -2.2715 -1.4643 -0.0250
11655SOL    HW239303   7.960   5.291   1.296  1.8558  0.6332  0.7909
11656SOL     OW39304   4.670   8.884   5.655 -0.0254 -0.2083 -0.0269
11656SOL    HW139305   4.595   8.825   5.683  0.9174 -0.8981  1.1182
11656SOL    HW239306   4.742   8.881   5.724  0.9714  0.5854 -1.0072
11657SOL     OW39307   4.270   8.515   3.340 -1.0659 -0.3440  0.7019
11657SOL    HW139308   4.353   8.569   3.326 -2.4462  1.7269  0.1701
11657SOL    HW239309   4.253   8.506   3.439 -0.6170 -0.1233  0.8022
11658SOL     OW39310   5.383   1.734   3.418 -0.1226 -0.1334  0.5535
11658SOL    HW139311   5.424   1.822   3.445  0.8430 -0.1544 -0.8245
11658SOL    HW239312   5.451   1.679   3.369 -1.2318 -0.9539 -0.0752
11659SOL     OW39313   7.069   1.391   3.499 -0.3539 -0.0523  0.4097
11659SOL    HW139314   7.095   1.296   3.480  2.4385  0.8495 -0.6390
11659SOL    HW239315   7.148   1.440   3.535 -1.6023  2.0372  0.3678
11666SOL     OW39316   3.928   7.397   1.317 -0.0598  0.4394  0.3096
11666SOL    HW139317   3.869   7.316   1.319 -0.6625  0.8973  0.7345
11666SOL    HW239318   4.023   7.368   1.333 -0.4749  0.0130  2.1354
11667SOL     OW39319   8.726   5.959   4.883 -0.1483  0.4767  0.9254
11667SOL    HW139320   8.648   6.005   4.839  0.5509  0.6545 -0.1540
11667SOL    HW239321   8.740   5.870   4.840  0.1757  0.3982  1.1912
11668SOL     OW39322   4.400   9.902   1.898  0.2213 -0.0651  0.1316
11668SOL    HW139323   4.323   9.872   1.841 -0.2532 -0.7636  1.1502
11668SOL    HW239324   4.449   9.823   1.933  0.0725  0.3638  1.3116
11669SOL     OW39325   3.215   8.928   0.987 -0.1196 -0.1422 -0.5176
11669SOL    HW139326   3.271   8.857   0.944  0.9946 -0.3180  1.2023
11669SOL    HW239327   3.145   8.885   1.043  1.6280  0.0792  1.9041
11670SOL     OW39328   3.321   3.188   2.442  0.6333 -0.6219  0.0310
11670SOL    HW139329   3.354   3.282   2.453  1.4999 -0.8199 -0.7841
11670SOL    HW239330   3.222   3.186   2.456  0.6088  0.4035  0.0837
11672SOL     OW39331   3.711   6.406   2.952 -0.0612 -0.3560 -0.6179
11672SOL    HW139332   3.670   6.448   3.033 -0.3368  0.8750 -1.3882
11672SOL    HW239333   3.646   6.409   2.876  0.8158  0.0305 -1.3609
11675SOL     OW39334   0.711   2.325   5.889 -0.3005  0.5109 -0.0508
11675SOL    HW139335   0.780   2.253   5.878 -0.2856  0.3550  0.9654
11675SOL    HW239336   0.740   2.407   5.840 -0.2343 -0.1139 -1.0785
11676SOL     OW39337   0.483   6.855   2.749 -0.0457  0.0322 -0.6549
11676SOL    HW139338   0.497   6.853   2.650  2.0263 -0.4016 -0.3707
11676SOL    HW239339   0.571   6.863   2.795 -0.9816  0.0970  1.1728
11677SOL     OW39340   6.566   9.121   5.822 -0.4604 -0.0440  0.0097
11677SOL    HW139341   6.483   9.070   5.845 -0.6945 -0.3864 -1.5286
11677SOL    HW239342   6.634   9.058   5.783  0.7293  0.1358  1.7436
11678SOL     OW39343   0.551   9.508   1.751 -0.6239 -0.4753  0.5805
11678SOL    HW139344   0.604   9.564   1.815 -0.5227 -1.0092  0.9740
11678SOL    HW239345   0.549   9.413   1.784 -0.5995 -0.7502 -0.1959
11679SOL     OW39346   4.747   1.605   3.914  0.9671  0.4415 -0.5142
11679SOL    HW139347   4.813   1.658   3.967 -0.0855  0.8823  0.3548
11679SOL    HW239348   4.742   1.512   3.950  0.8080  0.5250 -0.3223
11680SOL     OW39349   0.901   2.640   0.990  0.1237 -0.0152 -0.0704
11680SOL    HW139350   0.889   2.719   0.929 -0.5512 -0.6586 -0.7648
11680SOL    HW239351   0.998   2.617   0.995  0.2551  0.4638 -0.3566
11681SOL     OW39352   7.655   0.497   0.719 -0.2988 -0.2253  0.1317
11681SOL    HW139353   7.640   0.406   0.757 -0.9438  0.2533  1.0570
11681SOL    HW239354   7.569   0.531   0.681 -1.0553  1.5358  3.2369
11682SOL     OW39355   1.824   0.540   3.079 -0.0121 -0.1399 -0.7825
11682SOL    HW139356   1.878   0.516   3.160 -0.8252 -2.7937 -1.0015
11682SOL    HW239357   1.751   0.473   3.066 -0.7700  1.0493 -2.9189
11684SOL     OW39358   4.283   0.728   2.781 -0.2803 -0.6174  0.3972
11684SOL    HW139359   4.312   0.657   2.845  0.6765  0.2415  0.9514
11684SOL    HW239360   4.364   0.774   2.744 -0.8774  0.1710  0.0448
11686SOL     OW39361   4.456   7.127   4.110  0.6635 -0.1267  0.2180
11686SOL    HW139362   4.516   7.051   4.136  1.3794  0.4291  0.1830
11686SOL    HW239363   4.428   7.116   4.014  0.5383 -0.4941  0.2948
11687SOL     OW39364   0.781   6.569   2.027 -0.3859 -0.2472  0.1438
11687SOL    HW139365   0.724   6.492   1.999 -1.7236  1.5124 -2.0996
11687SOL    HW239366   0.724   6.651   2.040  1.2946  0.9256  0.3108
11688SOL     OW39367   3.564   6.126   2.310 -0.1448 -0.0391  0.1893
11688SOL    HW139368   3.517   6.114   2.223 -0.2647 -0.5585  0.3223
11688SOL    HW239369   3.650   6.175   2.296 -0.2819  0.0908 -0.1846
11690SOL     OW39370   2.170   9.552   3.006 -0.1286 -0.7788  0.2019
11690SOL    HW139371   2.146   9.459   2.979 -1.0599 -0.6031  0.4007
11690SOL    HW239372   2.160   9.563   3.105  0.8728 -0.7242  0.2988
11691SOL     OW39373   2.352   5.963   6.124  0.2423 -0.0410  0.4317
11691SOL    HW139374   2.339   6.012   6.210 -2.3154  2.2087 -1.1841
11691SOL    HW239375   2.275   5.902   6.108  0.0901  0.4826 -0.8671
11694SOL     OW39376   7.967   6.759   3.817  0.3073 -0.0784 -0.0470
11694SOL    HW139377   7.915   6.674   3.812  1.7060 -0.9156 -0.7093
11694SOL    HW239378   7.963   6.805   3.728  1.4910 -0.6431 -0.4069
11695SOL     OW39379   9.288   1.404   0.266  0.1229 -0.1730  0.1887
11695SOL    HW139380   9.228   1.479   0.295 -0.3764 -0.9194  1.1102
11695SOL    HW239381   9.355   1.385   0.337  0.8571  0.0310 -0.4487
11697SOL     OW39382   1.400   8.556   2.497  0.2763  0.0190  0.1198
11697SOL    HW139383   1.337   8.554   2.574  1.0394 -3.5638  0.7406
11697SOL    HW239384   1.377   8.483   2.433  3.7795 -1.4510  0.4064
11698SOL     OW39385   4.922   1.325   1.224 -0.4303 -0.3495  0.1090
11698SOL    HW139386   4.893   1.317   1.129  2.0155  2.8027 -1.0083
11698SOL    HW239387   4.863   1.390   1.272 -0.6273 -0.6537  0.2787
11699SOL     OW39388   9.772   9.958   3.912 -0.1512  0.1595  0.4657
11699SOL    HW139389   9.677   9.947   3.883 -0.4820  1.7852  0.8747
11699SOL    HW239390   9.795  10.056   3.913  1.2938 -0.1765  1.1148
11700SOL     OW39391   0.265   5.444   0.131  0.3673 -0.2285 -0.3446
11700SOL    HW139392   0.276   5.378   0.056  1.5768  0.6960 -1.0095
11700SOL    HW239393   0.236   5.397   0.214  2.1271 -1.7198 -0.5667
11702SOL     OW39394   5.027   1.874   2.235  0.4922 -0.3179 -0.1052
11702SOL    HW139395   4.939   1.893   2.194  0.1767 -0.5026  0.4763
11702SOL    HW239396   5.014   1.847   2.331  1.2300  0.4942  0.2374
11704SOL     OW39397   7.957   2.619   4.491  0.3315 -0.2425  0.4543
11704SOL    HW139398   7.957   2.689   4.420  0.1183  0.8561  1.5175
11704SOL    HW239399   8.050   2.584   4.504  0.2833 -0.8132 -0.7096
11706SOL     OW39400   8.195   1.516   0.142 -0.3764 -0.0328 -0.0794
11706SOL    HW139401   8.237   1.560   0.222 -0.0074  0.2074 -0.4054
11706SOL    HW239402   8.261   1.513   0.067 -0.7286 -0.2477 -0.3793
11708SOL     OW39403   4.805   3.844   6.241  0.2304  0.1615 -0.3897
11708SOL    HW139404   4.759   3.756   6.232  1.5657 -0.6523  0.4707
11708SOL    HW239405   4.823   3.863   6.337 -1.5394  2.1856 -0.4297
11710SOL     OW39406   3.547   7.946   4.725  0.1448 -0.7296  0.6848
11710SOL    HW139407   3.492   7.882   4.780 -2.4439 -0.8523 -1.9190
11710SOL    HW239408   3.572   7.902   4.639  1.1288  0.6923  0.2341
11711SOL     OW39409   7.800   3.638   0.638  0.3336  0.1976 -0.2632
11711SOL    HW139410   7.794   3.611   0.542 -1.7569 -0.7768  0.1116
11711SOL    HW239411   7.746   3.575   0.694  2.7372 -0.1295  1.7512
11713SOL     OW39412   9.600   2.201   0.402 -0.1538  0.4165  0.2801
11713SOL    HW139413   9.571   2.226   0.310  1.0204  0.5145 -0.0614
11713SOL    HW239414   9.694   2.231   0.418  0.3854 -1.4682  0.7651
11714SOL     OW39415   3.356   7.764   0.130  0.5785 -0.2173  0.3100
11714SOL    HW139416   3.286   7.808   0.075  1.5688  1.0504  0.0429
11714SOL    HW239417   3.398   7.689   0.079  0.9248  0.4288 -0.3584
11715SOL     OW39418   7.711   5.539   5.138  0.4313  0.7606 -0.5612
11715SOL    HW139419   7.732   5.543   5.041 -0.8108  1.0603 -0.8270
11715SOL    HW239420   7.659   5.620   5.164 -0.6307 -0.0948  0.0048
11717SOL     OW39421   1.356   6.652   4.073 -0.2606  0.2465 -0.1500
11717SOL    HW139422   1.279   6.631   4.012  0.2955 -0.7863 -0.5159
11717SOL    HW239423   1.338   6.613   4.163  0.5100 -1.3558 -0.6668
11718SOL     OW39424   9.870   8.183   3.982  0.1717  0.1376 -0.9488
11718SOL    HW139425   9.813   8.104   4.005  0.0519  0.4445 -0.1737
11718SOL    HW239426   9.839   8.222   3.895 -0.1680 -0.2885 -1.0236
11720SOL     OW39427   3.858   3.699   1.418  0.4515  0.1825  0.3947
11720SOL    HW139428   3.795   3.699   1.496  0.9320  0.3687  0.7884
11720SOL    HW239429   3.947   3.733   1.448  0.1787  1.8833 -0.6153
11721SOL     OW39430   1.374   5.013   3.642 -0.6924  0.1711  0.0346
11721SOL    HW139431   1.292   4.956   3.641  0.2016 -1.1593  0.0626
11721SOL    HW239432   1.429   4.993   3.561 -0.3251  0.9533  0.0875
11722SOL     OW39433   2.888   4.825   6.412 -0.0591 -0.0367 -0.1496
11722SOL    HW139434   2.808   4.779   6.449  0.3322 -0.7895 -0.2126
11722SOL    HW239435   2.886   4.922   6.436  0.2669 -0.5314  1.9671
11723SOL     OW39436   3.632   9.054   1.107 -0.6550  0.1305  0.6460
11723SOL    HW139437   3.659   8.961   1.084 -2.7598 -0.5031  0.6489
11723SOL    HW239438   3.540   9.053   1.148 -1.1669  2.3196 -0.3861
11724SOL     OW39439   7.756   1.883   0.575  0.3346  0.0360 -0.0827
11724SOL    HW139440   7.747   1.868   0.476  0.1338 -1.4413  0.1555
11724SOL    HW239441   7.746   1.796   0.623  0.0061  0.8165  1.2762
11725SOL     OW39442   2.845   7.594   6.003 -0.3852 -0.1116 -0.1378
11725SOL    HW139443   2.790   7.648   5.938  0.4964  0.1107 -0.7069
11725SOL    HW239444   2.907   7.534   5.952  0.7584  0.5121  0.4896
11726SOL     OW39445   8.900   4.576   1.412  0.2063 -0.1634 -0.3916
11726SOL    HW139446   8.951   4.658   1.440  1.0708 -1.0692  0.7859
11726SOL    HW239447   8.929   4.499   1.469 -0.5752 -1.2916 -1.5056
11727SOL     OW39448   1.787   0.320   0.908 -0.0765  0.5457 -0.2026
11727SOL    HW139449   1.740   0.233   0.891 -0.7900  1.2061 -1.6807
11727SOL    HW239450   1.723   0.383   0.952  1.0059 -0.2935  2.7058
11728SOL     OW39451   8.252   8.844   4.042 -0.1388  0.1751 -0.3531
11728SOL    HW139452   8.335   8.882   4.083 -0.4261  0.0365  0.3755
11728SOL    HW239453   8.175   8.904   4.064 -0.3712 -0.1424 -0.3051
11730SOL     OW39454   7.110   0.998   3.924 -0.4173 -0.0402 -0.4275
11730SOL    HW139455   7.108   0.981   4.023 -3.7110  0.6234 -0.3153
11730SOL    HW239456   7.192   1.051   3.901 -0.8088  1.8761  2.3162
11733SOL     OW39457   3.163   5.486   0.473 -0.1171 -0.3469 -0.1128
11733SOL    HW139458   3.159   5.450   0.380 -1.7024  1.1263 -0.6430
11733SOL    HW239459   3.227   5.563   0.476 -1.0866  0.4776 -0.3106
11734SOL     OW39460   7.630   4.211   3.315 -0.6066  0.0504  0.8608
11734SOL    HW139461   7.535   4.226   3.287 -0.0898  0.4897 -0.7283
11734SOL    HW239462   7.636   4.125   3.366 -1.6004 -0.7908 -0.3935
11736SOL     OW39463   7.657   1.505   3.418 -0.4528 -0.1874 -0.6552
11736SOL    HW139464   7.661   1.603   3.401 -1.4860  0.1316  0.8124
11736SOL    HW239465   7.569   1.481   3.458  0.3337 -1.4830  0.3705
11737SOL     OW39466   2.445   4.473   3.601  0.0577  0.0184 -0.0979
11737SOL    HW139467   2.476   4.380   3.620 -1.9721 -0.0729  3.2003
11737SOL    HW239468   2.350   4.470   3.569  0.4038  0.8794 -1.2176
11738SOL     OW39469   8.629   9.034   4.380 -0.4916 -0.2732 -0.3236
11738SOL    HW139470   8.590   9.102   4.443 -0.2003  0.0209 -0.4595
11738SOL    HW239471   8.726   9.054   4.367 -0.7315  0.1299 -1.4922
11739SOL     OW39472   2.310   0.878   3.868 -0.9178  0.2430 -0.0510
11739SOL    HW139473   2.393   0.884   3.813 -0.8424  2.9088  0.3247
11739SOL    HW239474   2.260   0.964   3.863 -2.1896 -0.3427  2.0541
11740SOL     OW39475   0.146   0.219   0.171  0.4720 -0.5130 -0.2963
11740SOL    HW139476   0.056   0.179   0.153  0.2037 -0.4856  0.8912
11740SOL    HW239477   0.145   0.315   0.142 -0.1686 -0.2709  0.4867
11741SOL     OW39478   4.787   4.086   1.335  0.3323 -0.2804 -0.0172
11741SOL    HW139479   4.762   4.174   1.294  0.5869 -0.1534  0.1054
11741SOL    HW239480   4.834   4.101   1.421  0.7473 -0.5306 -0.2011
11742SOL     OW39481   9.832   4.297   4.596 -0.1343 -0.4808 -0.1657
11742SOL    HW139482   9.914   4.320   4.543  0.1925 -1.2678 -0.0089
11742SOL    HW239483   9.797   4.208   4.566 -0.7856 -0.2654 -0.0567
11743SOL     OW39484   9.961   2.245   3.807 -0.2511 -0.4889 -0.0414
11743SOL    HW139485   9.896   2.320   3.793 -0.9114 -1.1416 -0.5663
11743SOL    HW239486   9.983   2.237   3.904  2.1328  2.2732 -0.2749
11744SOL     OW39487   7.979   7.259   4.725  0.0448  0.2136  0.1306
11744SOL    HW139488   8.038   7.281   4.648  1.8940  0.1926  1.5089
11744SOL    HW239489   7.890   7.302   4.712 -0.1482 -0.9712 -2.6791
11745SOL     OW39490   3.366   5.211   5.551  0.6559  0.0155 -0.4935
11745SOL    HW139491   3.348   5.147   5.477 -0.7976 -1.0762  0.7888
11745SOL    HW239492   3.280   5.240   5.593  1.4642  0.4737  0.8972
11746SOL     OW39493   3.222   7.624   0.308  0.3108 -0.0713  0.0696
11746SOL    HW139494   3.292   7.666   0.251 -0.9029  1.3731 -0.3727
11746SOL    HW239495   3.131   7.647   0.273 -0.4598  0.7139  2.4769
11747SOL     OW39496   3.569   1.147   3.123 -0.2989 -0.3635 -0.7377
11747SOL    HW139497   3.641   1.080   3.138 -1.1814 -0.7895  1.8952
11747SOL    HW239498   3.529   1.173   3.211 -0.9554  2.5376 -1.8278
11748SOL     OW39499   0.915   1.040   1.192  0.0465 -0.6067 -0.4270
11748SOL    HW139500   0.945   1.134   1.176  0.1567 -0.8949 -2.0148
11748SOL    HW239501   0.973   0.997   1.261  1.5175 -0.2470 -1.4101
11749SOL     OW39502   2.469   7.598   1.953 -0.0991 -0.4367 -0.2036
11749SOL    HW139503   2.547   7.597   1.892 -2.6814 -2.3170 -3.6302
11749SOL    HW239504   2.458   7.508   1.996 -0.3916 -0.1853  0.2607
11750SOL     OW39505   2.910   9.151   2.464 -0.2421 -0.3699  0.1245
11750SOL    HW139506   2.877   9.070   2.513 -1.1619  0.9211  1.7302
11750SOL    HW239507   3.001   9.175   2.497 -0.1350 -0.5365 -0.0568
11751SOL     OW39508   2.676   1.754   4.951  0.1630  0.4791  0.4126
11751SOL    HW139509   2.723   1.682   5.001 -2.6436 -1.4313  0.3798
11751SOL    HW239510   2.743   1.822   4.921  2.7943 -1.7921  0.9193
11752SOL     OW39511   4.576   6.148   1.440  0.1437  0.1967 -0.1171
11752SOL    HW139512   4.571   6.210   1.518  0.7827 -2.4849  2.1736
11752SOL    HW239513   4.667   6.151   1.400 -0.0381  1.2318 -0.4516
11754SOL     OW39514   5.846   0.141   5.036 -0.1561  0.5011 -0.0931
11754SOL    HW139515   5.905   0.216   5.005  0.1223  0.4431  0.2860
11754SOL    HW239516   5.887   0.099   5.117 -1.3061  1.1981  0.8599
11755SOL     OW39517   0.197   5.940   3.480 -0.1502  0.1085  0.7765
11755SOL    HW139518   0.119   5.975   3.429 -0.5676 -1.0497  0.6098
11755SOL    HW239519   0.223   6.007   3.550 -3.1138 -0.6939  2.7564
11756SOL     OW39520   3.261   2.710   0.506  0.0235  0.1714 -0.2158
11756SOL    HW139521   3.180   2.662   0.542  0.1349  0.6373  0.6391
11756SOL    HW239522   3.306   2.651   0.438  0.2770 -1.0385  0.9802
11757SOL     OW39523   2.574   0.814   5.524  0.3702 -0.1072 -0.8654
11757SOL    HW139524   2.647   0.868   5.566  0.8508 -1.7496  0.4483
11757SOL    HW239525   2.615   0.741   5.468 -0.2786  0.5711 -2.2545
11758SOL     OW39526   5.584   9.315   2.948 -0.3569  0.0074 -0.0370
11758SOL    HW139527   5.497   9.364   2.938 -0.4421 -0.4709 -1.8758
11758SOL    HW239528   5.646   9.369   3.004 -0.6271  2.0305 -1.6180
11759SOL     OW39529   9.694   7.307   3.091 -0.2530  0.1547  0.0755
11759SOL    HW139530   9.690   7.211   3.065 -0.6179  0.0261  0.5732
11759SOL    HW239531   9.604   7.336   3.125  0.2171  0.2886  1.2286
11760SOL     OW39532   8.229   0.957   1.771 -0.2365  0.3169  0.5041
11760SOL    HW139533   8.295   1.026   1.800 -0.9024  1.1737  0.0075
11760SOL    HW239534   8.167   0.937   1.847  1.0018 -1.0006  1.1958
11762SOL     OW39535   5.796   3.750   1.062  0.3444 -0.0689 -0.0556
11762SOL    HW139536   5.749   3.670   1.098  0.6695 -0.6350 -0.8897
11762SOL    HW239537   5.889   3.754   1.099  0.0193  0.4472  0.7248
11763SOL     OW39538   7.184   3.710   1.588  0.0535  0.8428  0.1926
11763SOL    HW139539   7.127   3.719   1.669 -1.1100  2.0715 -0.7570
11763SOL    HW239540   7.132   3.735   1.507  1.3590  0.1071 -0.8987
11764SOL     OW39541   1.497   0.972   4.290  0.2282 -0.5354  0.1257
11764SOL    HW139542   1.430   0.962   4.217 -1.4334  0.0442  1.5403
11764SOL    HW239543   1.484   0.900   4.358 -0.8793  1.2387  1.8561
11765SOL     OW39544   2.274   7.893   5.889  0.3159  0.0625  0.2714
11765SOL    HW139545   2.353   7.939   5.849 -0.2350  0.8831  0.1099
11765SOL    HW239546   2.265   7.921   5.985 -0.3840  0.8000  0.0033
11766SOL     OW39547   4.680   3.739   3.305  0.5528  0.6270 -0.0189
11766SOL    HW139548   4.648   3.826   3.266  3.3698  3.1412  2.9774
11766SOL    HW239549   4.696   3.674   3.231  0.2167  3.2950 -2.5596
11768SOL     OW39550   3.587   7.119   2.551 -0.7994  0.0741  0.4945
11768SOL    HW139551   3.590   7.194   2.484 -0.6302  1.0395  1.5686
11768SOL    HW239552   3.651   7.138   2.626 -0.1538 -1.5424  0.3869
11770SOL     OW39553   2.682   3.517   4.561 -0.2732  0.1511  0.3887
11770SOL    HW139554   2.609   3.449   4.552 -1.2048  1.2287 -0.3841
11770SOL    HW239555   2.767   3.472   4.589 -0.9102 -1.2967  0.0235
11771SOL     OW39556   6.452   7.107   4.717  0.3694 -0.1166  0.7401
11771SOL    HW139557   6.530   7.055   4.750 -0.4760 -2.6816 -1.1787
11771SOL    HW239558   6.376   7.097   4.781  0.2445 -1.1574  0.4270
11773SOL     OW39559   2.750   7.369   4.380  0.0976  0.9075  0.8821
11773SOL    HW139560   2.686   7.362   4.303  0.6526 -0.9668  0.5755
11773SOL    HW239561   2.752   7.282   4.429  2.1721  1.0611  1.0940
11775SOL     OW39562   7.014   1.107   2.727  0.3732  0.0925 -0.5446
11775SOL    HW139563   7.034   1.194   2.772  3.7717 -0.4514 -0.8168
11775SOL    HW239564   7.022   1.118   2.628  0.4753 -0.4136 -0.5958
11776SOL     OW39565   0.442   2.695   3.513  0.5892 -0.3638 -1.1106
11776SOL    HW139566   0.414   2.774   3.459  0.3448 -0.4993 -1.1852
11776SOL    HW239567   0.489   2.726   3.596 -1.1691 -0.0521 -0.1859
11777SOL     OW39568   9.715   2.814   6.090 -0.5155  0.0031  0.5529
11777SOL    HW139569   9.788   2.860   6.039  0.5772 -1.8773  0.4052
11777SOL    HW239570   9.693   2.868   6.171  0.0435  1.3061 -0.1396
11778SOL     OW39571   2.475   0.312   0.827  0.0104 -0.1887 -0.2060
11778SOL    HW139572   2.395   0.370   0.842  0.3411  0.0399  0.7037
11778SOL    HW239573   2.558   0.366   0.840  0.3157 -0.5919 -0.4629
11779SOL     OW39574   0.542   4.817   1.189 -0.3174  0.3957  0.2780
11779SOL    HW139575   0.567   4.891   1.127 -2.0351 -0.0275 -0.9446
11779SOL    HW239576   0.445   4.824   1.213 -0.2495 -0.8575  0.9805
11780SOL     OW39577   5.049   9.572   6.345  0.2024 -0.0543  0.4770
11780SOL    HW139578   4.950   9.555   6.346  0.3959 -1.2446  0.5014
11780SOL    HW239579   5.076   9.606   6.255 -0.5600  2.4432  1.1479
11781SOL     OW39580   0.932   7.288   0.795 -0.2110 -0.1356  0.3853
11781SOL    HW139581   0.972   7.206   0.835  0.3065 -1.0029 -1.8529
11781SOL    HW239582   0.998   7.331   0.733 -0.9540  1.2436  0.5186
11782SOL     OW39583   6.003   8.563   5.499 -0.2921 -0.2251  0.2370
11782SOL    HW139584   5.970   8.653   5.528 -1.8586 -0.9440  0.6994
11782SOL    HW239585   5.957   8.537   5.414  0.7534 -0.2515 -0.3299
11783SOL     OW39586   9.441   7.580   2.570 -0.3852 -0.5848  0.5279
11783SOL    HW139587   9.466   7.576   2.473 -1.4728  0.1985  0.2022
11783SOL    HW239588   9.390   7.498   2.596  2.8867 -2.4258  1.3197
11784SOL     OW39589   3.531   2.259   1.220 -0.0124 -0.8520 -0.2755
11784SOL    HW139590   3.494   2.198   1.150 -0.2913 -2.4592  1.2040
11784SOL    HW239591   3.512   2.354   1.196  0.1779 -1.3585 -2.5099
11786SOL     OW39592   5.297   9.145   2.192 -0.1387  0.6073  0.0921
11786SOL    HW139593   5.292   9.079   2.267 -0.3459  1.3992  0.7729
11786SOL    HW239594   5.355   9.221   2.217 -0.2637  0.9115 -0.5261
11787SOL     OW39595   2.183   1.650   0.143 -0.2574  0.7799  0.2498
11787SOL    HW139596   2.193   1.747   0.164  1.6943  0.8622 -1.0091
11787SOL    HW239597   2.267   1.601   0.166 -0.9478 -0.4913  0.1364
11788SOL     OW39598   8.016   1.383   1.337 -0.7264 -0.3883  0.3678
11788SOL    HW139599   7.988   1.470   1.297 -2.5155 -1.5055 -0.9057
11788SOL    HW239600   8.112   1.366   1.316 -0.6600  0.7800 -0.3038
11790SOL     OW39601   8.640   7.276   2.924 -0.0887 -0.3229 -0.2377
11790SOL    HW139602   8.661   7.269   2.826  0.3725 -1.7766 -0.0400
11790SOL    HW239603   8.658   7.188   2.968 -1.4203 -0.0050  0.9455
11793SOL     OW39604   8.444   4.033   4.808 -0.0774 -0.4253 -0.0600
11793SOL    HW139605   8.355   3.995   4.831 -1.0209  1.7944  0.0490
11793SOL    HW239606   8.433   4.125   4.771  2.0966 -0.5238 -1.0473
11794SOL     OW39607   1.482   7.533   4.145  0.4684  0.6211  0.4477
11794SOL    HW139608   1.401   7.493   4.103  0.8105  1.8889 -1.4654
11794SOL    HW239609   1.455   7.609   4.205  0.1827  0.5338  0.4283
11795SOL     OW39610   3.256   7.342   2.817 -0.2434 -0.6781 -0.2841
11795SOL    HW139611   3.205   7.295   2.889  3.0974 -1.7425  1.4830
11795SOL    HW239612   3.286   7.276   2.749  1.4239 -0.6150  0.3540
11796SOL     OW39613   0.956   5.496   3.105  0.9327 -0.1433 -0.0070
11796SOL    HW139614   0.997   5.568   3.161  0.6807  0.2745 -0.3529
11796SOL    HW239615   0.960   5.522   3.009  2.2901 -1.3309 -0.2733
11797SOL     OW39616   9.448   5.350   0.417 -0.0105 -0.5918  0.5297
11797SOL    HW139617   9.362   5.362   0.366  0.0309 -0.5441  0.4702
11797SOL    HW239618   9.432   5.289   0.494  0.2656 -1.8852 -0.4189
11798SOL     OW39619   1.789   5.658   0.008  0.0359 -1.0950 -0.0307
11798SOL    HW139620   1.843   5.591  -0.043  0.4380 -0.3515 -0.5933
11798SOL    HW239621   1.697   5.622   0.025 -0.4884 -0.8632 -2.3020
11799SOL     OW39622   6.772   9.217   4.900  0.1459 -0.2983 -0.7577
11799SOL    HW139623   6.731   9.144   4.954 -0.3409 -0.1560 -0.9328
11799SOL    HW239624   6.865   9.235   4.933 -0.0517 -0.3962 -0.1482
11800SOL     OW39625   5.497   9.718   2.829  0.0993 -1.1157  0.2657
11800SOL    HW139626   5.464   9.716   2.923  0.7815  1.0800  0.6016
11800SOL    HW239627   5.433   9.769   2.772 -1.2297 -4.0066 -0.8770
11801SOL     OW39628   2.530   4.239   2.649  0.0184  0.4179  0.4246
11801SOL    HW139629   2.614   4.289   2.629  0.1500  0.3023  0.6733
11801SOL    HW239630   2.539   4.145   2.615 -0.9871  1.0984 -1.7988
11802SOL     OW39631   2.566   0.900   0.338 -0.2062 -0.0296 -0.1360
11802SOL    HW139632   2.661   0.910   0.311 -0.3174 -3.7473 -2.1152
11802SOL    HW239633   2.558   0.830   0.408 -1.8283 -2.3139 -2.5240
11804SOL     OW39634   4.938   6.555   1.889  0.0310 -0.1502 -0.3687
11804SOL    HW139635   4.852   6.542   1.937  0.0739 -2.5650 -0.8648
11804SOL    HW239636   4.991   6.470   1.893  3.1352  1.7928  1.3756
11805SOL     OW39637   8.445   4.392   2.041 -0.1973 -1.1626 -0.4585
11805SOL    HW139638   8.383   4.384   1.964 -2.6352  1.5702  1.1203
11805SOL    HW239639   8.531   4.435   2.012 -0.2821 -2.0296 -2.0082
11806SOL     OW39640   9.239   8.714   4.682 -0.0642 -0.2320 -0.6035
11806SOL    HW139641   9.222   8.628   4.730 -0.8324  0.1934 -0.0953
11806SOL    HW239642   9.178   8.721   4.603 -1.4594  0.7713  0.5472
11809SOL     OW39643   2.003   4.039   0.472  0.0087  0.0029  0.0829
11809SOL    HW139644   2.043   3.984   0.545 -0.6948 -0.1493  0.3585
11809SOL    HW239645   1.920   3.995   0.439 -0.2192  0.5826 -0.1270
11810SOL     OW39646   9.213   0.870   2.027  0.4105 -0.4479  0.0045
11810SOL    HW139647   9.244   0.949   1.974  1.9568 -0.9244  0.1865
11810SOL    HW239648   9.144   0.820   1.974  1.5135 -0.5916 -1.3280
11811SOL     OW39649   2.244   0.965   6.374 -0.0393 -0.6192  0.6486
11811SOL    HW139650   2.231   0.926   6.466  0.6441  3.1826  2.4482
11811SOL    HW239651   2.155   0.975   6.329 -0.5454 -0.9739  1.5493
11813SOL     OW39652   8.589   5.021   2.568  0.4940  0.0374 -0.1960
11813SOL    HW139653   8.511   4.970   2.531  0.8192  0.4323 -1.4676
11813SOL    HW239654   8.615   4.983   2.656 -1.3026  0.0775  0.3646
11814SOL     OW39655   1.596   2.630   2.115 -0.0087  0.4356  0.4931
11814SOL    HW139656   1.661   2.556   2.133 -3.3608 -2.3963  1.4352
11814SOL    HW239657   1.581   2.682   2.199 -0.7325 -0.4296  0.9144
11815SOL     OW39658   7.915   0.482   2.590 -0.0473 -0.2096  0.5295
11815SOL    HW139659   7.831   0.431   2.610  0.7227 -2.0741 -0.8253
11815SOL    HW239660   7.994   0.422   2.601  0.8998  0.7433 -0.8935
11816SOL     OW39661   3.856   1.656   0.110 -0.4367  0.0211 -0.3977
11816SOL    HW139662   3.896   1.607   0.188  1.0907  0.5510 -0.8248
11816SOL    HW239663   3.762   1.626   0.097 -0.0693 -1.5572  0.3962
11818SOL     OW39664   1.321   0.608   0.478  0.3346  0.4848  0.2046
11818SOL    HW139665   1.386   0.643   0.545  0.8772 -0.3327  0.1220
11818SOL    HW239666   1.355   0.521   0.441 -0.1091  0.7763 -0.9027
11819SOL     OW39667   1.233   4.887   2.655 -0.0683 -0.1043 -0.0089
11819SOL    HW139668   1.287   4.829   2.594 -0.1412 -0.7579  0.5329
11819SOL    HW239669   1.255   4.983   2.639  2.3089 -0.4224  1.1924
11820SOL     OW39670   9.640   6.692   6.392 -0.1641 -0.3726 -0.0499
11820SOL    HW139671   9.590   6.743   6.463 -1.4290 -2.2109  0.4327
11820SOL    HW239672   9.726   6.658   6.430 -0.5475 -0.8172  0.4493
11822SOL     OW39673   3.635   5.815   2.068 -0.0286  0.0723  0.2861
11822SOL    HW139674   3.721   5.862   2.088 -0.0731  0.9922 -1.5980
11822SOL    HW239675   3.592   5.787   2.154  1.5473  0.6860  1.2985
11824SOL     OW39676   6.453   9.750   6.106  0.3596  0.0474 -0.5525
11824SOL    HW139677   6.441   9.737   6.204 -0.6931 -1.5897 -0.8858
11824SOL    HW239678   6.550   9.756   6.085  0.7276 -2.5122  0.2382
11825SOL     OW39679   3.155   8.835   4.131 -0.1017 -0.1127 -0.1441
11825SOL    HW139680   3.235   8.786   4.097 -0.0925 -1.2210  1.4290
11825SOL    HW239681   3.171   8.934   4.123  1.1102 -0.3337 -0.5408
11826SOL     OW39682   4.971   2.098   3.866 -0.6916 -0.0170  0.1444
11826SOL    HW139683   4.882   2.060   3.893 -1.0381  0.4254 -0.3762
11826SOL    HW239684   5.024   2.027   3.819  0.3092 -1.0970  2.8365
11827SOL     OW39685   2.207   9.742   4.838  0.5842 -0.1829 -0.1151
11827SOL    HW139686   2.159   9.830   4.836 -0.1062 -0.5818 -2.0729
11827SOL    HW239687   2.270   9.738   4.760 -0.2954 -1.9263 -0.7408
11828SOL     OW39688   8.308   1.269   5.030  0.1215 -0.0333  0.3117
11828SOL    HW139689   8.362   1.267   5.114  0.3888 -0.3085  0.1326
11828SOL    HW239690   8.211   1.272   5.053  0.2242  0.9196  0.6353
11829SOL     OW39691   1.456   7.200   2.750 -0.0329  0.2331 -0.1240
11829SOL    HW139692   1.432   7.103   2.756 -1.6805  0.4739 -2.2515
11829SOL    HW239693   1.380   7.251   2.710  0.2997  2.6366  2.1038
11830SOL     OW39694   1.057   0.946   6.213  0.0083  0.3291  0.2390
11830SOL    HW139695   1.146   0.902   6.226 -0.2404 -0.6535 -1.2820
11830SOL    HW239696   1.036   1.002   6.293  0.8829 -1.3841  1.7107
11831SOL     OW39697   9.519   4.963   0.579 -0.4283 -0.0868 -0.5246
11831SOL    HW139698   9.453   4.894   0.548  0.7287 -1.1220 -0.7520
11831SOL    HW239699   9.569   4.999   0.501 -1.2540  1.2604 -0.4376
11832SOL     OW39700   9.041   3.634   0.605  0.4787  0.3228  0.1644
11832SOL    HW139701   9.103   3.578   0.661 -0.7998 -1.1618  0.1401
11832SOL    HW239702   9.045   3.729   0.636  0.2168 -0.3702  2.4491
11834SOL     OW39703   0.344   0.139   4.368  0.0202 -0.4051 -0.3326
11834SOL    HW139704   0.442   0.153   4.355 -0.1112  0.5960 -0.2840
11834SOL    HW239705   0.295   0.163   4.284 -0.1026 -1.8072 -0.6701
11835SOL     OW39706   3.872   1.796   2.180  0.2988  0.1052  0.2062
11835SOL    HW139707   3.802   1.829   2.243  1.1245 -0.0001  1.1873
11835SOL    HW239708   3.913   1.712   2.215 -0.0682 -0.6197 -1.0664
11838SOL     OW39709   3.860   5.228   3.757  0.4377 -0.3008  0.2901
11838SOL    HW139710   3.767   5.265   3.761  0.4547  0.0180 -2.1060
11838SOL    HW239711   3.924   5.300   3.732  1.0464 -0.9911 -0.1609
11839SOL     OW39712   7.852   1.464   2.635  0.2329  0.3863 -0.2222
11839SOL    HW139713   7.784   1.433   2.702  1.2789 -0.6923  0.3593
11839SOL    HW239714   7.863   1.563   2.642 -0.9443  0.5186 -0.0201
11840SOL     OW39715   7.608   2.790   1.848  0.2700  0.0184 -0.2913
11840SOL    HW139716   7.651   2.877   1.872  0.4875 -0.1714 -0.0020
11840SOL    HW239717   7.547   2.804   1.770 -0.5343  0.6622  0.4393
11841SOL     OW39718   7.637   0.676   2.712 -0.1475 -0.2503 -0.2614
11841SOL    HW139719   7.608   0.597   2.658  4.0867 -1.1325 -1.4338
11841SOL    HW239720   7.608   0.760   2.667 -2.7856 -1.0298 -0.1346
11842SOL     OW39721   6.367   0.443   6.343 -0.1768 -0.5534  0.0479
11842SOL    HW139722   6.348   0.346   6.326  0.1479 -0.2934 -1.7919
11842SOL    HW239723   6.438   0.451   6.413 -2.3041 -1.6050  2.4076
11843SOL     OW39724   4.515   8.775   6.098 -0.5970  0.0635 -0.0317
11843SOL    HW139725   4.448   8.848   6.082  0.0030  0.5823 -0.2428
11843SOL    HW239726   4.492   8.726   6.182 -0.4622  1.1248  0.6305
11844SOL     OW39727   9.873   0.227   4.729 -0.0719 -0.0850 -0.5893
11844SOL    HW139728   9.889   0.130   4.710  0.1590 -0.4849  1.4996
11844SOL    HW239729   9.942   0.260   4.794  0.2022  1.6436 -1.7168
11845SOL     OW39730   0.465   5.120   3.418  0.3378  0.2148  0.1402
11845SOL    HW139731   0.417   5.168   3.492 -0.0015  0.8637 -0.4927
11845SOL    HW239732   0.563   5.114   3.441 -0.0913 -1.6012  1.6874
11847SOL     OW39733   9.789   4.154   6.379  0.1836 -0.2124 -0.6565
11847SOL    HW139734   9.784   4.116   6.472  0.9149  1.1731 -0.0224
11847SOL    HW239735   9.850   4.098   6.324 -0.8934 -1.5149 -0.5409
11848SOL     OW39736   2.595   9.395   5.895  0.4814  0.4309 -0.0631
11848SOL    HW139737   2.497   9.408   5.879  0.4230 -0.0662 -0.1298
11848SOL    HW239738   2.624   9.451   5.973 -0.0405 -0.0823  0.5100
11849SOL     OW39739   9.470   5.393   4.268 -0.1023  0.7601  0.4961
11849SOL    HW139740   9.473   5.390   4.168 -0.1982 -0.3657  0.5128
11849SOL    HW239741   9.445   5.302   4.303 -2.9575  1.8483  1.4391
11850SOL     OW39742   8.695   7.670   3.085  0.2008  0.4308 -0.5437
11850SOL    HW139743   8.665   7.762   3.061 -1.7974  0.0939  0.5365
11850SOL    HW239744   8.753   7.674   3.167 -2.0168  0.5167  1.0711
11852SOL     OW39745   1.141   7.972   6.268  0.3228  0.0542  0.2737
11852SOL    HW139746   1.131   7.979   6.169 -0.5761 -0.3808  0.3284
11852SOL    HW239747   1.211   8.036   6.299  2.7411 -1.8557 -0.9849
11855SOL     OW39748   1.387   7.267   5.035 -0.3898  0.0766  0.1262
11855SOL    HW139749   1.454   7.342   5.041  2.0221 -1.9452 -0.6898
11855SOL    HW239750   1.422   7.188   5.085 -1.8030 -1.3073 -1.0368
11856SOL     OW39751   7.531   1.098   4.394  0.2542  0.3522 -0.1979
11856SOL    HW139752   7.528   1.193   4.363 -1.3790 -0.1721 -1.7085
11856SOL    HW239753   7.577   1.042   4.326 -0.1279 -0.2038 -0.0016
11857SOL     OW39754   1.667   4.119   4.050  0.3457 -0.2354  0.5376
11857SOL    HW139755   1.597   4.178   4.009 -0.4355 -0.4951  1.4766
11857SOL    HW239756   1.635   4.086   4.139  1.1122 -1.4350  0.3817
11858SOL     OW39757   9.181   1.784   2.526  0.2478  0.8054  0.0692
11858SOL    HW139758   9.275   1.794   2.494 -0.6316  0.0575 -2.8663
11858SOL    HW239759   9.124   1.853   2.483 -1.2632 -1.2108 -1.2162
11859SOL     OW39760   0.507   3.475   5.630  0.0701  0.5538 -0.4671
11859SOL    HW139761   0.578   3.412   5.660  0.7437  0.8230 -1.4474
11859SOL    HW239762   0.418   3.444   5.663  0.5718 -0.1228  0.2516
11860SOL     OW39763   7.551   3.468   1.533  0.2573 -0.2035  0.4170
11860SOL    HW139764   7.610   3.397   1.497  1.8799  1.8224 -1.0399
11860SOL    HW239765   7.475   3.427   1.583  0.8107 -2.9360 -0.9423
11863SOL     OW39766   2.845   1.240   6.203 -0.3528  0.4734 -0.1952
11863SOL    HW139767   2.907   1.179   6.252  1.5801  0.8405 -2.1337
11863SOL    HW239768   2.883   1.333   6.201 -1.0538  0.7507 -1.2495
11864SOL     OW39769   3.906   9.289   0.453  0.8083 -0.0012 -0.3209
11864SOL    HW139770   3.912   9.384   0.424 -0.9010 -0.7655 -3.3697
11864SOL    HW239771   3.826   9.277   0.513 -0.0435  0.1546 -1.4106
11865SOL     OW39772   1.331   0.344   4.689  0.8374 -0.4720  0.5244
11865SOL    HW139773   1.232   0.335   4.677  0.5837  2.4667 -0.0233
11865SOL    HW239774   1.368   0.259   4.724 -1.5901 -2.3353 -1.2099
11866SOL     OW39775   0.666   4.747   4.433  0.4493 -0.1364  0.1426
11866SOL    HW139776   0.588   4.691   4.461  0.2568 -0.4460 -0.9922
11866SOL    HW239777   0.737   4.744   4.504 -0.3683 -0.2418  0.9576
11867SOL     OW39778   3.413   9.229   5.094 -0.0503  0.2947 -0.3566
11867SOL    HW139779   3.415   9.252   4.997 -1.6515  0.5755 -0.3388
11867SOL    HW239780   3.329   9.178   5.115  1.2041 -1.4476  0.5137
11868SOL     OW39781   7.361   4.552   0.589 -0.3791  0.1451  0.0906
11868SOL    HW139782   7.279   4.588   0.635  0.2300 -0.2430  1.5205
11868SOL    HW239783   7.350   4.560   0.490 -1.4145  1.6821  0.3101
11869SOL     OW39784   4.562   0.143   0.583 -0.3512  0.2494 -0.1722
11869SOL    HW139785   4.599   0.233   0.607  0.4184  0.0643 -0.6654
11869SOL    HW239786   4.485   0.122   0.644 -0.0779  0.9277  0.4203
11871SOL     OW39787   7.630   2.704   0.094  0.3107 -0.3719 -0.5143
11871SOL    HW139788   7.615   2.693  -0.005 -1.2541  0.4502 -0.3861
11871SOL    HW239789   7.726   2.724   0.111  0.3103  1.0334 -2.0219
11872SOL     OW39790   1.711   0.367   6.382 -0.2734  0.2155 -0.2648
11872SOL    HW139791   1.737   0.432   6.454 -0.3408 -0.3035  0.2375
11872SOL    HW239792   1.759   0.280   6.398 -1.0073 -0.1994 -0.3176
11874SOL     OW39793   9.260   3.008   1.949 -0.4294  0.2291 -0.1608
11874SOL    HW139794   9.288   2.926   1.898  0.7414  0.8847 -0.5968
11874SOL    HW239795   9.329   3.029   2.018 -1.0268  0.5119  0.3545
11875SOL     OW39796   7.876   0.917   2.366  0.0652  0.0697 -0.0887
11875SOL    HW139797   7.888   0.819   2.380 -0.8796 -0.1383 -0.6691
11875SOL    HW239798   7.953   0.954   2.316 -0.4843 -0.7454 -1.5615
11876SOL     OW39799   1.686   9.416   1.792  0.6014 -0.0100 -0.2212
11876SOL    HW139800   1.625   9.487   1.758 -0.1032 -1.0208 -1.1018
11876SOL    HW239801   1.781   9.447   1.785  0.4172  0.1518 -2.3292
11877SOL     OW39802   2.886   8.066   3.037  0.2993  0.0537 -0.0714
11877SOL    HW139803   2.889   8.028   2.944  0.3594 -0.0465 -0.0275
11877SOL    HW239804   2.955   8.138   3.045 -0.3493  0.7195 -0.3959
11878SOL     OW39805   8.132   9.704   4.521 -0.3648  0.4246  0.1654
11878SOL    HW139806   8.075   9.766   4.467 -0.8111  0.1070  0.2708
11878SOL    HW239807   8.114   9.718   4.618  0.1592  0.7266  0.2223
11879SOL     OW39808   1.338   3.505   5.163  0.1382  0.3292  0.4904
11879SOL    HW139809   1.413   3.447   5.131  0.7389  0.6413  1.3067
11879SOL    HW239810   1.327   3.493   5.262 -0.9352  0.2371  0.3630
11880SOL     OW39811   4.284   4.589   6.236  0.5604  0.4443  0.0489
11880SOL    HW139812   4.224   4.562   6.161 -0.6858  1.9518  0.4940
11880SOL    HW239813   4.379   4.591   6.203  0.0361  1.0020 -1.4563
11881SOL     OW39814   3.487   8.426   6.153  0.2360  0.3178  0.4315
11881SOL    HW139815   3.496   8.453   6.057  0.2868  1.9310  0.8708
11881SOL    HW239816   3.394   8.393   6.169  0.1701  0.2251 -0.1329
11882SOL     OW39817   3.700   0.275   1.781  0.1957 -0.5300  0.2485
11882SOL    HW139818   3.715   0.183   1.816 -0.0787 -0.2402  1.1458
11882SOL    HW239819   3.755   0.289   1.698 -1.1191 -2.0814 -0.8974
11883SOL     OW39820   7.023   1.366   4.699  0.0765 -0.6875 -0.4369
11883SOL    HW139821   7.117   1.355   4.667  0.0976  0.6230 -0.8556
11883SOL    HW239822   6.961   1.317   4.637  0.6152 -3.1124  0.8733
11884SOL     OW39823   0.065   3.718   5.624 -0.7836 -0.3895  0.1590
11884SOL    HW139824   0.043   3.764   5.710  1.0636  1.1047 -0.1366
11884SOL    HW239825   0.066   3.619   5.639 -0.1537 -0.1370  1.9232
11885SOL     OW39826   8.611   7.560   4.978 -0.8937 -0.0883  0.2115
11885SOL    HW139827   8.636   7.641   4.925 -0.1112  0.4831  1.4342
11885SOL    HW239828   8.516   7.536   4.959 -0.3783 -0.4067 -2.0924
11886SOL     OW39829   8.240   6.464   5.892 -0.4511  0.2906 -0.2449
11886SOL    HW139830   8.287   6.553   5.894 -0.0230  0.0625 -0.0889
11886SOL    HW239831   8.234   6.427   5.984  0.8304 -0.5979 -0.4966
11887SOL     OW39832   8.931   4.087   2.861  0.5602 -0.2782 -0.3543
11887SOL    HW139833   8.883   3.999   2.865  0.9055 -0.5291 -1.4114
11887SOL    HW239834   8.867   4.161   2.884 -0.0773 -0.6913 -0.7687
11889SOL     OW39835   4.807   6.807   2.365 -0.1763  0.5129 -0.0950
11889SOL    HW139836   4.812   6.875   2.438  1.8646  1.5105 -1.1111
11889SOL    HW239837   4.729   6.828   2.306 -0.6211  0.9244  0.6347
11890SOL     OW39838   3.757   5.669   3.091  0.0511  0.3511  0.4397
11890SOL    HW139839   3.715   5.598   3.034 -0.5451  1.4329 -0.4695
11890SOL    HW239840   3.857   5.664   3.081 -0.0175  0.0704 -0.1250
11891SOL     OW39841   2.850   2.099   2.619 -0.0245 -0.5633 -0.3326
11891SOL    HW139842   2.859   2.070   2.714 -0.0571 -0.3684 -0.2697
11891SOL    HW239843   2.869   2.196   2.612 -2.1509 -0.1094 -0.1661
11892SOL     OW39844   9.961   1.799   5.441 -0.2625 -0.5409  0.1092
11892SOL    HW139845   9.924   1.877   5.492 -0.8040 -0.6907 -0.0507
11892SOL    HW239846   9.887   1.735   5.420  0.3121 -1.5200  0.9794
11894SOL     OW39847   0.156   6.723   1.026  0.4430 -0.1791  0.3171
11894SOL    HW139848   0.234   6.721   0.964  1.7934 -0.0122  2.0036
11894SOL    HW239849   0.187   6.741   1.119 -1.6011 -0.1291  1.0111
11895SOL     OW39850   5.333   0.105   5.212  0.1371  0.0656 -0.2096
11895SOL    HW139851   5.317   0.010   5.186  1.1643 -0.5145  1.2226
11895SOL    HW239852   5.414   0.111   5.271 -0.0616  1.7897 -0.0756
11896SOL     OW39853   0.837   0.627   0.309 -0.9067  0.1124 -0.0411
11896SOL    HW139854   0.866   0.659   0.399  0.6825 -0.2869 -0.3981
11896SOL    HW239855   0.798   0.704   0.257 -0.7331  0.6067  0.5531
11897SOL     OW39856   2.480   4.536   4.936 -0.2093  0.3706 -0.5278
11897SOL    HW139857   2.397   4.480   4.941  0.7242 -1.0160 -0.4246
11897SOL    HW239858   2.557   4.480   4.907  0.5357  1.8446 -1.5178
11898SOL     OW39859   6.746   9.440   6.405 -0.2566  0.0596 -0.6800
11898SOL    HW139860   6.729   9.353   6.451  1.6981  0.3546  0.6664
11898SOL    HW239861   6.706   9.514   6.459  0.4069  0.2400 -0.4382
11900SOL     OW39862   9.411   9.877   0.453 -0.3727  0.2115 -0.1355
11900SOL    HW139863   9.391   9.828   0.369  1.3251  2.2078 -1.7587
11900SOL    HW239864   9.461   9.817   0.516  2.3716  0.0172 -2.3951
11901SOL     OW39865   6.727   1.027   5.260 -0.0961  0.2675 -0.3591
11901SOL    HW139866   6.740   1.119   5.224 -0.8349  0.9352  1.0348
11901SOL    HW239867   6.814   0.993   5.295  0.3587  0.0992 -1.6519
11902SOL     OW39868   3.274   0.396   5.034  0.3081 -0.4454 -0.0213
11902SOL    HW139869   3.366   0.357   5.046  1.6163  3.0769  2.0360
11902SOL    HW239870   3.273   0.451   4.951 -0.4606 -1.7367 -0.8929
11903SOL     OW39871   9.881   6.345   0.311  0.6815  0.2300 -0.0297
11903SOL    HW139872   9.808   6.311   0.251  0.4490  1.4218 -0.4421
11903SOL    HW239873   9.874   6.300   0.401 -0.2288 -0.0588 -0.2367
11904SOL     OW39874   1.371   0.455   4.442  0.0160  0.5602  0.2529
11904SOL    HW139875   1.354   0.394   4.520  0.6014  1.2358  0.9240
11904SOL    HW239876   1.465   0.443   4.411 -1.1078 -2.0055 -2.4153
11908SOL     OW39877   4.208   3.350   3.659 -0.0780  0.5362 -0.1446
11908SOL    HW139878   4.115   3.322   3.684  0.2602  1.0033  1.7714
11908SOL    HW239879   4.272   3.314   3.726  1.1747 -0.0767 -1.6609
11909SOL     OW39880   3.247   1.932   3.460 -0.2579  0.2470 -0.4489
11909SOL    HW139881   3.205   1.902   3.545 -1.2489  0.8854 -0.6975
11909SOL    HW239882   3.185   1.912   3.384 -0.0798  1.1285 -0.8317
11910SOL     OW39883   4.681   5.834   0.650 -0.2908  0.3751  0.1472
11910SOL    HW139884   4.722   5.757   0.601  0.6198  0.0119  1.4381
11910SOL    HW239885   4.600   5.865   0.601 -1.4812 -2.3073  0.2887
11912SOL     OW39886   7.833   5.995   5.733  0.5291  0.2341  0.0410
11912SOL    HW139887   7.873   6.087   5.736  0.0192  0.5152 -1.3882
11912SOL    HW239888   7.884   5.935   5.795  2.3931  0.8825 -0.8145
11913SOL     OW39889   4.429   4.771   3.517 -0.5306 -0.6747 -0.3991
11913SOL    HW139890   4.336   4.807   3.512 -0.1829  0.4054  0.5951
11913SOL    HW239891   4.475   4.810   3.597  1.0682 -0.5058 -1.3851
11914SOL     OW39892   8.104   3.406   4.315  0.1554  0.2948  0.3988
11914SOL    HW139893   8.061   3.316   4.303  1.5872 -0.2833 -0.5780
11914SOL    HW239894   8.157   3.407   4.399 -0.5297  0.5179  0.8375
11916SOL     OW39895   0.045   0.868   2.498 -0.4652  0.2027  0.4266
11916SOL    HW139896   0.078   0.935   2.431  0.9193 -0.9681 -0.0975
11916SOL    HW239897  -0.008   0.797   2.450  1.3680 -1.1814  0.4014
11917SOL     OW39898   6.374   3.530   0.823 -0.3061 -0.1938 -0.4918
11917SOL    HW139899   6.311   3.577   0.760 -0.7045  1.1555  0.8736
11917SOL    HW239900   6.468   3.556   0.802 -0.3867 -0.3319 -1.0163
11918SOL     OW39901   9.917   6.852   4.111  0.1384  0.0357  0.2602
11918SOL    HW139902   9.984   6.904   4.057  0.4709  0.7307  1.3183
11918SOL    HW239903   9.847   6.814   4.050 -1.1143  3.2137 -0.3977
11919SOL     OW39904   0.153   3.076   0.791 -0.1310 -0.3963 -0.0703
11919SOL    HW139905   0.073   3.136   0.796  0.7038  0.8080 -0.6885
11919SOL    HW239906   0.200   3.075   0.879 -0.9667 -1.3197  0.3730
11920SOL     OW39907   8.581   9.271   3.714 -0.0674  0.5005 -0.4052
11920SOL    HW139908   8.559   9.363   3.682 -1.5619  0.3714  0.2022
11920SOL    HW239909   8.540   9.204   3.653 -0.5166  0.2478  0.1695
11922SOL     OW39910   9.450   6.654   5.813 -0.2633  0.9016  0.7415
11922SOL    HW139911   9.429   6.628   5.719  0.6922 -1.0671  1.0609
11922SOL    HW239912   9.549   6.651   5.828 -0.3569  1.8257  1.6386
11923SOL     OW39913   6.220   8.284   5.396  0.0574 -0.1168  0.2774
11923SOL    HW139914   6.178   8.327   5.477 -1.1211 -1.1147  0.2106
11923SOL    HW239915   6.285   8.215   5.426 -0.2824 -0.3954  0.3812
11924SOL     OW39916   0.687   5.359   2.801 -0.2316  0.6506 -0.2029
11924SOL    HW139917   0.625   5.285   2.828  0.1532  0.4312  0.0880
11924SOL    HW239918   0.640   5.447   2.809  0.0243  0.6301  1.6090
11925SOL     OW39919   3.047   8.820   1.155 -0.4249  0.1471 -0.3022
11925SOL    HW139920   3.015   8.732   1.190 -1.4055  0.8817  0.6809
11925SOL    HW239921   2.999   8.895   1.201  2.4503  1.2940  0.9945
11926SOL     OW39922   1.480   8.724   1.315 -0.9981  0.3086  0.2090
11926SOL    HW139923   1.553   8.657   1.303 -1.6233 -0.3472 -0.0211
11926SOL    HW239924   1.506   8.791   1.384 -0.8218 -0.8286  1.2559
11927SOL     OW39925   9.444   8.315   1.111  0.5365  0.1294 -0.2734
11927SOL    HW139926   9.525   8.371   1.132 -0.0863  0.1598  2.2735
11927SOL    HW239927   9.451   8.228   1.160 -0.2324 -0.5313 -1.3209
11928SOL     OW39928   9.394   9.705   3.961  0.0602  0.2511 -0.1580
11928SOL    HW139929   9.364   9.624   4.011 -0.2876  0.4704 -0.0112
11928SOL    HW239930   9.373   9.787   4.014 -0.4942  0.5020 -0.7534
11929SOL     OW39931   8.654   6.791   3.211  0.2310 -0.0905  0.1914
11929SOL    HW139932   8.738   6.759   3.255  0.6392 -0.2791 -0.7142
11929SOL    HW239933   8.592   6.714   3.198  0.2654 -0.1048  0.1072
11930SOL     OW39934   3.517   5.577   4.558  0.5159 -0.3200  0.2642
11930SOL    HW139935   3.596   5.575   4.496  2.4545  0.7726  2.6205
11930SOL    HW239936   3.460   5.656   4.535  1.3271  0.1955 -0.0067
11931SOL     OW39937   0.204   0.966   4.829  0.4037 -0.0276  0.2555
11931SOL    HW139938   0.295   0.926   4.830  0.4361  0.0496  1.2536
11931SOL    HW239939   0.186   1.010   4.917  0.0555  1.4418 -0.5384
11932SOL     OW39940   0.138   8.467   5.424 -0.0678  0.1574  0.4600
11932SOL    HW139941   0.134   8.552   5.372  1.1630  0.9277  1.5765
11932SOL    HW239942   0.233   8.434   5.427 -0.3520 -0.6464  0.9876
11933SOL     OW39943   9.961   5.052   2.435  0.1847 -0.1581  0.2327
11933SOL    HW139944   9.928   4.965   2.396  2.0525  0.2195 -2.3886
11933SOL    HW239945  10.029   5.033   2.505  0.9450 -0.8465 -0.6712
11934SOL     OW39946   1.881   8.761   2.451 -0.3011  0.8099 -0.2957
11934SOL    HW139947   1.790   8.745   2.414 -0.4959  1.6446 -0.1835
11934SOL    HW239948   1.876   8.830   2.524  0.1782 -0.2920  0.8059
11937SOL     OW39949   1.736   7.312   0.084 -0.2118 -0.0069  0.4380
11937SOL    HW139950   1.776   7.376   0.018  1.4502  0.3405  1.7455
11937SOL    HW239951   1.787   7.226   0.080 -0.6250 -0.2605  0.6991
11939SOL     OW39952   6.846   1.870   3.720 -0.9652 -0.0984 -0.7717
11939SOL    HW139953   6.882   1.853   3.628  0.1722  0.2802 -0.4170
11939SOL    HW239954   6.917   1.850   3.787 -1.8526 -0.5403  0.0335
11940SOL     OW39955   0.689   1.462   2.882 -0.0209  0.3717  0.2789
11940SOL    HW139956   0.590   1.449   2.879  0.1603 -0.6213 -3.3015
11940SOL    HW239957   0.712   1.554   2.853  0.1632  0.3028  0.2013
11941SOL     OW39958   2.882   2.790   2.605  0.4498 -0.0462  0.5318
11941SOL    HW139959   2.937   2.785   2.522  1.2004 -2.3800  1.1281
11941SOL    HW239960   2.906   2.872   2.657 -0.0548  1.4378 -1.5604
11943SOL     OW39961   3.246   7.227   6.322  0.2158  0.4541  0.3507
11943SOL    HW139962   3.227   7.317   6.283 -0.0431 -0.0424 -0.6836
11943SOL    HW239963   3.335   7.229   6.368 -0.3955  1.6130  1.5284
11944SOL     OW39964   2.213   2.479   6.107  0.2672 -0.1240  1.0246
11944SOL    HW139965   2.244   2.406   6.168  1.1943  0.2094  0.9564
11944SOL    HW239966   2.260   2.564   6.129  1.2019 -0.1909 -0.6529
11947SOL     OW39967   6.432   0.999   0.185  0.2840  0.8230 -0.4617
11947SOL    HW139968   6.362   1.066   0.161  0.6204  1.2867 -0.1377
11947SOL    HW239969   6.400   0.943   0.261  0.7908  1.8802  0.5336
11949SOL     OW39970   8.101   0.872   4.348 -0.2369  0.0233 -0.0607
11949SOL    HW139971   8.043   0.944   4.385 -0.9143 -0.3493 -0.3910
11949SOL    HW239972   8.092   0.790   4.403  0.8138  0.2975  0.5305
11950SOL     OW39973   6.307   3.092   0.118  0.4988 -0.1381 -0.6646
11950SOL    HW139974   6.375   3.058   0.183 -0.3137  0.3101  0.4328
11950SOL    HW239975   6.275   3.182   0.147 -0.3544 -0.2163 -1.3356
11951SOL     OW39976   9.340   0.473   5.766  0.2933 -0.1389 -0.2109
11951SOL    HW139977   9.323   0.538   5.692 -1.7132 -1.1602 -0.6872
11951SOL    HW239978   9.400   0.400   5.735 -0.2874 -0.3907 -0.7521
11952SOL     OW39979   1.434   5.025   2.505 -0.6049 -0.3217 -0.2786
11952SOL    HW139980   1.456   4.997   2.598 -1.1168 -0.7300 -0.2819
11952SOL    HW239981   1.445   5.125   2.497  1.4592 -0.5370 -0.3428
11953SOL     OW39982   8.180   7.322   2.719 -0.2736  0.3131 -0.4555
11953SOL    HW139983   8.131   7.404   2.747 -1.4074 -0.7472  0.7294
11953SOL    HW239984   8.214   7.274   2.800  0.7059 -0.2036 -1.1535
11955SOL     OW39985   9.487   3.739   2.923  0.0649 -0.3891  0.2715
11955SOL    HW139986   9.489   3.839   2.932  2.8313 -0.4472  0.7765
11955SOL    HW239987   9.467   3.715   2.828  0.6183  0.6805 -0.1308
11956SOL     OW39988   1.392   6.451   1.132  0.4038 -0.0458  0.1514
11956SOL    HW139989   1.453   6.382   1.095 -0.7004 -1.1173  0.2941
11956SOL    HW239990   1.304   6.447   1.084  1.0836  2.8131 -1.4499
11957SOL     OW39991   0.389   1.075   3.948 -0.0977  0.4418 -0.7477
11957SOL    HW139992   0.467   1.025   3.912  0.6863  0.7980  0.4260
11957SOL    HW239993   0.370   1.044   4.041 -0.1566  1.6932 -0.3332
11958SOL     OW39994   3.542   5.717   0.675 -0.6101 -0.1726 -0.3692
11958SOL    HW139995   3.611   5.735   0.746  0.6418 -0.9753 -1.3627
11958SOL    HW239996   3.568   5.765   0.591 -1.4693 -0.1907 -0.6496
11959SOL     OW39997   1.747   5.366   5.589  0.4547  0.2809 -0.3851
11959SOL    HW139998   1.750   5.279   5.639  1.6360  0.5823  0.0788
11959SOL    HW239999   1.690   5.431   5.639  1.1551  0.3918  0.2715
11960SOL     OW40000   5.040   8.623   4.120 -0.2340 -0.0678  0.3781
11960SOL    HW140001   5.068   8.715   4.095  1.8088 -0.4133  1.3357
11960SOL    HW240002   5.087   8.594   4.203  0.3149 -2.5437 -0.7299
11962SOL     OW40003   7.344   1.295   4.672  0.0121  0.4174 -0.4975
11962SOL    HW140004   7.375   1.362   4.740  1.1308  0.6481 -1.2281
11962SOL    HW240005   7.379   1.320   4.582 -0.6636 -0.4283 -1.0011
11964SOL     OW40006   2.247   8.154   4.426 -0.5988 -0.0076 -0.6827
11964SOL    HW140007   2.187   8.089   4.380 -0.2059  1.0791 -2.7788
11964SOL    HW240008   2.191   8.219   4.478 -1.1191 -0.4230 -0.7230
11965SOL     OW40009   0.607   8.683   3.058 -0.5759 -0.5676  0.1009
11965SOL    HW140010   0.511   8.657   3.064 -1.6433  2.8504 -1.0915
11965SOL    HW240011   0.614   8.778   3.029  3.1944 -0.7638  0.1299
11967SOL     OW40012   2.546   0.727   0.084  0.5389 -0.6526 -0.1120
11967SOL    HW140013   2.540   0.802   0.150 -2.2944 -0.4143 -0.5969
11967SOL    HW240014   2.566   0.763  -0.006  0.7507 -0.6388 -0.0602
11968SOL     OW40015   0.852   4.040   0.731 -0.3869  0.3601 -0.5478
11968SOL    HW140016   0.886   4.029   0.637  1.3602  1.1091 -0.0133
11968SOL    HW240017   0.845   3.950   0.774  2.3447  0.2803 -0.1904
11969SOL     OW40018   7.275   7.673   6.219  0.2074  0.5230  0.1510
11969SOL    HW140019   7.345   7.621   6.170  0.3038  1.2488 -0.4779
11969SOL    HW240020   7.291   7.771   6.207 -1.3642  0.6987 -0.6665
11970SOL     OW40021   9.922   2.695   3.179  0.4560 -0.6327 -0.1516
11970SOL    HW140022   9.853   2.708   3.108  0.2778  0.6463  0.2323
11970SOL    HW240023   9.975   2.612   3.161  1.9269  0.8751 -3.0471
11972SOL     OW40024   6.649   6.790   5.223  0.0804 -0.0029 -0.3872
11972SOL    HW140025   6.589   6.749   5.154 -0.7927 -0.5839  0.7059
11972SOL    HW240026   6.610   6.776   5.314  2.0640 -0.7043  0.3794
11973SOL     OW40027   9.013   8.330   2.863 -0.0167 -0.3839 -0.4318
11973SOL    HW140028   8.984   8.402   2.925  1.4936 -0.2040  0.0818
11973SOL    HW240029   9.050   8.370   2.779 -1.0677 -0.6083 -1.0132
11974SOL     OW40030   1.687   3.050   0.544 -0.1890 -0.6607 -0.5153
11974SOL    HW140031   1.733   3.128   0.586  0.4935 -1.9484  1.1974
11974SOL    HW240032   1.737   3.021   0.462  1.6610 -1.5593  0.8955
11975SOL     OW40033   2.837   2.755   1.613 -0.6123 -0.4059  0.0553
11975SOL    HW140034   2.888   2.693   1.554  0.9276  1.9379 -1.1477
11975SOL    HW240035   2.891   2.774   1.696 -0.1432  0.9190 -0.5390
11978SOL     OW40036   7.069   1.681   1.203  0.1209  0.8245  0.5796
11978SOL    HW140037   7.024   1.679   1.114  0.3993  0.2963  0.4467
11978SOL    HW240038   7.001   1.690   1.275 -0.1912  0.1292  0.3742
11980SOL     OW40039   3.106   1.649   3.839  0.0520 -0.0199 -0.3543
11980SOL    HW140040   3.052   1.693   3.767 -0.7277  0.5851  0.5740
11980SOL    HW240041   3.203   1.656   3.817 -0.0392  2.3355 -0.1801
11983SOL     OW40042   3.418   7.381   1.342  0.1201 -0.7599  0.4286
11983SOL    HW140043   3.398   7.287   1.371  1.4795 -1.2115 -0.0474
11983SOL    HW240044   3.488   7.380   1.271 -0.5467  0.5674 -0.2614
11984SOL     OW40045   6.260   0.107   4.379  0.3779 -0.3549  0.0684
11984SOL    HW140046   6.330   0.078   4.445  0.0229  0.5349  0.8474
11984SOL    HW240047   6.169   0.089   4.418  0.1485  1.5924  0.4961
11985SOL     OW40048   1.718   6.215   6.254  0.9032 -0.2832  0.0647
11985SOL    HW140049   1.787   6.284   6.271  1.7787 -1.3206  0.7701
11985SOL    HW240050   1.754   6.144   6.193  0.4552 -0.8003  0.3842
11986SOL     OW40051   8.478   6.548   1.880  0.6617  0.1774  0.4267
11986SOL    HW140052   8.461   6.486   1.956 -0.6116  0.0474  0.0456
11986SOL    HW240053   8.542   6.619   1.908  2.8619 -1.8159  0.6080
11987SOL     OW40054   5.276   1.840   0.617  0.0238 -0.6864 -0.5741
11987SOL    HW140055   5.309   1.752   0.581  0.6199 -0.7101  0.0329
11987SOL    HW240056   5.297   1.913   0.552  2.5350 -0.4771  0.4145
11988SOL     OW40057   8.389   1.804   4.667 -1.0991 -0.1444  0.3605
11988SOL    HW140058   8.409   1.796   4.765  1.9392  1.3262 -0.0595
11988SOL    HW240059   8.409   1.718   4.621  0.5474  0.0943  0.5948
11989SOL     OW40060   0.624   3.997   5.502 -0.4483 -0.3700 -0.6223
11989SOL    HW140061   0.651   3.920   5.560 -0.1360  0.0910 -0.1543
11989SOL    HW240062   0.546   3.969   5.445 -2.2259 -0.1386  1.6468
11991SOL     OW40063   5.243   1.900   5.953 -0.2559  0.2018 -0.0618
11991SOL    HW140064   5.294   1.957   5.889 -0.9154  1.0342  0.1537
11991SOL    HW240065   5.180   1.841   5.902 -0.7102  0.7958 -0.1876
11992SOL     OW40066   2.741   9.314   3.047  0.2388  0.1909 -0.5129
11992SOL    HW140067   2.665   9.300   3.111  1.1969 -2.8946 -0.0054
11992SOL    HW240068   2.713   9.380   2.976 -2.1792  0.6363  0.8129
11993SOL     OW40069   8.886   9.364   3.996 -0.2138 -0.9048 -0.5101
11993SOL    HW140070   8.907   9.458   3.968  1.7795 -1.1118  0.1876
11993SOL    HW240071   8.792   9.359   4.028  0.7898  1.8029  3.2592
11994SOL     OW40072   8.138   3.096   0.400 -0.5704  0.2745 -0.3156
11994SOL    HW140073   8.210   3.036   0.365 -0.1376  0.7634 -0.2796
11994SOL    HW240074   8.050   3.048   0.398 -0.4576  0.0992 -1.5530
11995SOL     OW40075   0.637   1.899   5.727 -0.0481 -0.0919  0.0871
11995SOL    HW140076   0.656   1.963   5.652  0.0090  0.8143  0.8723
11995SOL    HW240077   0.648   1.945   5.815 -1.9585 -0.6450  0.6365
11996SOL     OW40078   7.832   6.279   1.199 -0.0356 -0.6748 -0.3087
11996SOL    HW140079   7.887   6.357   1.168 -0.7323  0.7090  1.7978
11996SOL    HW240080   7.838   6.205   1.132  0.9197  1.0547 -2.1967
11997SOL     OW40081   9.101   3.825   4.579 -0.2227  0.1365  0.2461
11997SOL    HW140082   9.096   3.725   4.573 -1.4140  0.1901  0.4019
11997SOL    HW240083   9.178   3.851   4.637 -0.1911 -0.6974  0.5821
11998SOL     OW40084   3.740   8.883   2.107 -0.3564  0.3811 -0.8746
11998SOL    HW140085   3.787   8.845   2.187 -0.8199 -1.7872 -1.6055
11998SOL    HW240086   3.649   8.915   2.135  0.6342  2.4589  0.0670
11999SOL     OW40087   3.708   6.765   0.622 -0.1511  0.7457  0.7319
11999SOL    HW140088   3.658   6.848   0.597  0.3166  0.7785 -0.1138
11999SOL    HW240089   3.724   6.764   0.721 -0.5736  1.4305  0.8098
12000SOL     OW40090   2.436   3.787   1.914 -0.1263  1.2757 -0.2144
12000SOL    HW140091   2.409   3.810   2.007 -0.7375  0.0431 -0.0745
12000SOL    HW240092   2.354   3.777   1.857  0.2267  1.6234 -0.7964
12001SOL     OW40093   9.856   8.331   2.053  0.1151  0.1396 -0.2656
12001SOL    HW140094   9.837   8.319   2.150  1.0719 -1.0412 -0.2223
12001SOL    HW240095   9.929   8.269   2.025  0.0734  0.7077 -1.6674
12002SOL     OW40096   2.177   3.355   2.922 -0.1677  0.5785  0.6855
12002SOL    HW140097   2.104   3.287   2.926 -0.8847  1.2068 -1.0389
12002SOL    HW240098   2.237   3.335   2.844 -0.8700  2.3671 -0.3474
12003SOL     OW40099   5.142   1.523   1.833 -0.0269  0.5671  0.4157
12003SOL    HW140100   5.134   1.426   1.855  1.1145  0.2614 -0.4835
12003SOL    HW240101   5.051   1.565   1.834 -0.5837 -0.6194  0.3227
12004SOL     OW40102   3.494   2.010   4.836  0.2899 -0.1976 -0.3279
12004SOL    HW140103   3.584   1.994   4.875  0.0867  0.9883  0.6722
12004SOL    HW240104   3.454   1.924   4.806  1.1464 -0.9211  0.5973
12005SOL     OW40105   5.834   2.888   4.602  0.0481 -0.1200 -0.4183
12005SOL    HW140106   5.788   2.946   4.669  0.1048  1.4757 -1.7310
12005SOL    HW240107   5.933   2.900   4.610  0.1622 -1.8795  0.9275
12006SOL     OW40108   3.501   9.600   4.014  0.2119 -0.5722 -0.2703
12006SOL    HW140109   3.601   9.591   4.012  0.2289 -0.2890 -1.3013
12006SOL    HW240110   3.474   9.684   3.967 -0.4481  0.0173  1.1662
12007SOL     OW40111   8.546   6.159   5.743  0.0496  0.8685  0.6033
12007SOL    HW140112   8.503   6.172   5.653  0.5128  0.0170  0.2617
12007SOL    HW240113   8.499   6.086   5.792 -0.2610  1.3924  1.1005
12008SOL     OW40114   4.449   9.019   0.428 -0.0206 -0.4557 -0.4609
12008SOL    HW140115   4.398   9.100   0.399 -2.2414 -1.4865  0.4454
12008SOL    HW240116   4.392   8.963   0.489  2.2128 -1.6483  0.6146
12009SOL     OW40117   3.262   0.738   3.915 -0.2590  0.2574 -0.1964
12009SOL    HW140118   3.337   0.766   3.975  0.5999 -0.3354 -0.9736
12009SOL    HW240119   3.266   0.639   3.901 -2.7604 -0.2002  1.8625
12011SOL     OW40120   3.072   9.701   5.598 -0.4422  0.2471  0.5327
12011SOL    HW140121   2.987   9.731   5.642 -1.5894  0.0072 -1.4751
12011SOL    HW240122   3.095   9.609   5.630 -1.7777 -0.3069 -0.0393
12014SOL     OW40123   1.335   6.052   0.672  0.0385  0.0318  0.6377
12014SOL    HW140124   1.420   6.001   0.679 -1.2765 -2.0076  2.8044
12014SOL    HW240125   1.260   5.989   0.648 -1.3743  1.1955  1.8766
12015SOL     OW40126   1.684   6.752   3.123  0.8434 -0.1760 -0.2530
12015SOL    HW140127   1.722   6.718   3.209  0.6072  1.0608  0.3675
12015SOL    HW240128   1.758   6.784   3.064  0.8963  0.8347  0.3349
12016SOL     OW40129   0.575   5.509   6.208 -0.2323 -0.0930  0.1263
12016SOL    HW140130   0.587   5.435   6.274 -0.6886  0.2971  0.6478
12016SOL    HW240131   0.528   5.585   6.251 -0.9303  0.0004 -0.7686
12017SOL     OW40132   2.844   7.281   5.342 -0.2400  0.7061  0.0931
12017SOL    HW140133   2.897   7.224   5.279  0.4194  1.4000  0.0225
12017SOL    HW240134   2.842   7.375   5.309 -0.1205  1.0166  0.9684
12019SOL     OW40135   2.486   0.392   4.390 -0.0940  0.1948 -0.1659
12019SOL    HW140136   2.488   0.490   4.368  0.0833  0.1260 -0.4702
12019SOL    HW240137   2.575   0.351   4.367 -0.6404 -0.3279 -1.4294
12021SOL     OW40138   2.812   3.432   1.516  0.2339  0.2234  0.0994
12021SOL    HW140139   2.899   3.385   1.531  0.7385  1.3023  0.6378
12021SOL    HW240140   2.749   3.412   1.591  0.6397  0.8430  0.6056
12023SOL     OW40141   2.054   7.600   2.538  0.3364 -0.2580  0.5826
12023SOL    HW140142   2.041   7.698   2.556  1.3279 -0.3577  1.8956
12023SOL    HW240143   2.098   7.588   2.449 -1.2321  0.4050 -0.3093
12024SOL     OW40144   0.270   3.029   2.013  0.4849  0.0313  0.0812
12024SOL    HW140145   0.296   3.097   1.944 -1.3059 -0.3200 -0.9873
12024SOL    HW240146   0.195   3.065   2.069 -0.4186 -1.0041 -0.4365
12025SOL     OW40147   2.541   4.483   3.328  0.3069  0.3387 -0.1426
12025SOL    HW140148   2.457   4.537   3.318 -0.1740 -0.8568 -2.7366
12025SOL    HW240149   2.518   4.386   3.332  1.3775  0.1348  2.0573
12026SOL     OW40150   4.671   9.342   1.757 -0.1732 -0.2221 -0.1975
12026SOL    HW140151   4.578   9.336   1.792 -0.0136  0.2610  0.3256
12026SOL    HW240152   4.714   9.252   1.758 -0.7709 -0.5158 -0.8338
12027SOL     OW40153   3.698   7.863   1.502 -0.5800  0.0631  0.7002
12027SOL    HW140154   3.685   7.962   1.512  0.3144  0.1580  0.9459
12027SOL    HW240155   3.616   7.816   1.535 -0.9414  0.7133  0.7469
12028SOL     OW40156   0.432   8.909   2.660  0.1422 -0.4325 -0.2850
12028SOL    HW140157   0.340   8.877   2.683  0.2763 -0.7595 -0.1986
12028SOL    HW240158   0.440   9.006   2.684 -0.5688 -0.0812 -1.4164
12029SOL     OW40159   8.344   8.918   5.927  0.8868 -0.2245 -0.2672
12029SOL    HW140160   8.297   8.844   5.975  0.4822 -0.2072 -0.6304
12029SOL    HW240161   8.277   8.987   5.899  1.5002  1.2869  1.8573
12030SOL     OW40162   2.135   3.371   3.721 -0.5030 -0.3856 -0.2069
12030SOL    HW140163   2.151   3.372   3.622 -1.6062 -0.2759 -0.3922
12030SOL    HW240164   2.124   3.465   3.754  0.6090 -0.3689  0.1597
12031SOL     OW40165   1.681   9.557   3.643  0.5115 -0.5517 -0.1595
12031SOL    HW140166   1.689   9.462   3.674 -1.1062 -0.5983  0.1500
12031SOL    HW240167   1.598   9.598   3.682  0.7575  0.7322 -0.9661
12032SOL     OW40168   3.462   4.938   0.185  0.4493  0.0288 -0.4553
12032SOL    HW140169   3.460   4.924   0.284 -0.6822  2.2953 -0.1127
12032SOL    HW240170   3.411   4.865   0.139  0.4981 -0.7237  0.6891
12033SOL     OW40171   0.207   9.378   0.640  0.3789 -0.1401  0.0570
12033SOL    HW140172   0.114   9.396   0.672 -0.2030  0.0278 -1.6431
12033SOL    HW240173   0.261   9.337   0.713 -0.9951 -0.1113  1.1024
12034SOL     OW40174   8.232   6.559   0.223 -0.3448 -0.7468  0.6322
12034SOL    HW140175   8.259   6.494   0.152 -2.6511 -0.2842 -0.7107
12034SOL    HW240176   8.204   6.508   0.305 -1.2827 -1.4465 -0.1027
12035SOL     OW40177   5.348   9.486   2.461 -0.2274  0.1644  0.0315
12035SOL    HW140178   5.436   9.460   2.502 -0.0071  1.4409  0.4154
12035SOL    HW240179   5.348   9.463   2.364  0.1797 -0.6897  0.2304
12036SOL     OW40180   6.053   8.060   5.798 -0.6470 -0.5334 -0.7578
12036SOL    HW140181   6.107   8.136   5.834 -1.6100 -0.7583  1.2676
12036SOL    HW240182   6.004   8.088   5.716 -1.8174  1.3625  0.5657
12037SOL     OW40183   0.130   0.113   3.872  0.1248  0.2339  0.0073
12037SOL    HW140184   0.221   0.072   3.874  0.0417  0.0795  0.7891
12037SOL    HW240185   0.108   0.140   3.778  0.5811 -0.6018 -0.3503
12038SOL     OW40186   2.133   4.272   1.736  0.2647 -0.0707 -0.5731
12038SOL    HW140187   2.129   4.346   1.668  0.7734 -0.0801 -0.6168
12038SOL    HW240188   2.130   4.184   1.690 -0.9104 -0.0822 -0.4853
12039SOL     OW40189   0.422   6.905   4.794 -0.1277 -0.0042 -0.0020
12039SOL    HW140190   0.494   6.878   4.730  3.4080  1.1185  3.3046
12039SOL    HW240191   0.378   6.989   4.763  0.9149  0.0346 -1.3790
12041SOL     OW40192   1.225   8.036   0.623 -0.2608  0.5209 -0.3594
12041SOL    HW140193   1.234   8.101   0.697  0.8252 -1.7776  1.5990
12041SOL    HW240194   1.137   7.988   0.631  0.1508 -0.2035 -0.1631
12042SOL     OW40195   2.310   9.201   4.424  0.1480  0.2202 -0.1304
12042SOL    HW140196   2.315   9.114   4.376 -0.3956  0.6413 -0.9755
12042SOL    HW240197   2.395   9.252   4.410  0.0806  0.2442 -0.4537
12043SOL     OW40198   5.853   8.502   5.292  0.7117 -0.0542  0.4237
12043SOL    HW140199   5.859   8.524   5.195  1.3914 -3.7473 -0.4466
12043SOL    HW240200   5.758   8.490   5.318  0.6827 -2.2536 -0.6030
12044SOL     OW40201   4.180   3.697   5.805 -0.2019 -0.1112  0.0214
12044SOL    HW140202   4.124   3.779   5.791  2.8103  1.9371 -0.6355
12044SOL    HW240203   4.171   3.636   5.726 -0.1065  1.0871 -0.9357
12045SOL     OW40204   1.385   0.874   2.055  0.6607 -0.2553  0.8040
12045SOL    HW140205   1.319   0.948   2.046  0.4374 -0.4887  0.5254
12045SOL    HW240206   1.339   0.793   2.090  0.0988 -1.4181 -2.4941
12047SOL     OW40207   3.974   0.101   4.949 -0.1873  0.3837 -0.1010
12047SOL    HW140208   4.058   0.068   4.907 -1.3236 -0.8187 -1.4997
12047SOL    HW240209   3.906   0.120   4.877 -1.1316  1.2584  1.0014
12048SOL     OW40210   4.805   3.067   5.223  0.0364  0.0841  0.3865
12048SOL    HW140211   4.808   3.165   5.243 -1.6920  0.1510  0.3608
12048SOL    HW240212   4.750   3.020   5.293 -0.9157 -0.5621 -0.7737
12049SOL     OW40213   7.108   7.444   4.361  0.5280  0.7686 -0.0951
12049SOL    HW140214   7.137   7.471   4.452  1.4589 -0.1003 -0.1296
12049SOL    HW240215   7.149   7.356   4.337  0.0084  0.8171 -1.2084
12052SOL     OW40216   4.819   5.341   3.916  0.3393  0.6244  0.2125
12052SOL    HW140217   4.879   5.400   3.969  0.8661  0.4495 -0.1894
12052SOL    HW240218   4.756   5.397   3.862  1.3302  0.8355 -0.7380
12053SOL     OW40219   1.746   2.423   2.134  0.1199  0.7414  0.6077
12053SOL    HW140220   1.792   2.461   2.053 -0.1892 -0.2772 -0.0468
12053SOL    HW240221   1.764   2.325   2.140 -1.1199  0.5286  0.9302
12054SOL     OW40222   1.071   3.231   4.998  0.4514  0.1707  1.1658
12054SOL    HW140223   1.051   3.293   5.074  0.2929  0.8449  0.5871
12054SOL    HW240224   1.081   3.285   4.914 -0.4189 -0.6626  0.5225
12055SOL     OW40225   0.513   4.133   2.615 -0.2674  0.2014  0.0983
12055SOL    HW140226   0.425   4.144   2.569 -0.6635 -0.1946  0.7494
12055SOL    HW240227   0.573   4.078   2.557  0.1887  1.9773 -1.1522
12056SOL     OW40228   9.772   6.014   6.393 -0.3229 -1.1029  0.3103
12056SOL    HW140229   9.784   5.935   6.333  0.5003 -0.7849  0.0587
12056SOL    HW240230   9.852   6.024   6.452 -0.6365 -0.7455  0.6817
12057SOL     OW40231   2.651   3.097   6.259  0.7910  0.5352  0.6900
12057SOL    HW140232   2.657   3.178   6.317 -1.4370  0.8129  0.5778
12057SOL    HW240233   2.612   3.121   6.170  1.8027 -0.3443 -0.0123
12058SOL     OW40234   1.901   8.051   4.923 -0.0645  0.4642  0.1407
12058SOL    HW140235   1.985   8.013   4.884 -1.2773 -0.6656 -1.4422
12058SOL    HW240236   1.924   8.110   5.000  2.2718  1.2222 -1.0807
12059SOL     OW40237   8.961   7.245   3.989 -0.6493 -0.0928 -0.0137
12059SOL    HW140238   8.918   7.165   3.947 -1.8887  0.6834 -0.2683
12059SOL    HW240239   9.048   7.219   4.030 -1.1384 -1.6078  0.0905
12062SOL     OW40240   9.342   5.830   0.369  0.2803  0.2604  0.1474
12062SOL    HW140241   9.314   5.734   0.367 -0.1111  0.3761 -3.4665
12062SOL    HW240242   9.283   5.881   0.431 -1.4556 -1.2884 -0.1735
12063SOL     OW40243   8.261   3.656   6.345 -0.1086 -0.1228  0.3943
12063SOL    HW140244   8.216   3.608   6.270 -0.9071 -0.2266  0.9259
12063SOL    HW240245   8.217   3.745   6.357 -1.2587 -0.8803  1.9681
12065SOL     OW40246   2.356   4.374   1.979  0.2038 -0.3123  0.4936
12065SOL    HW140247   2.393   4.454   1.932  1.0019 -1.8378 -1.5605
12065SOL    HW240248   2.256   4.378   1.977  0.2352  0.0827 -0.5671
12066SOL     OW40249   1.589   7.340   4.356  0.3706 -0.2318  0.1761
12066SOL    HW140250   1.631   7.261   4.312 -2.6737 -1.1911 -1.1547
12066SOL    HW240251   1.554   7.403   4.286  1.6093  1.6545  1.2311
12067SOL     OW40252   7.220   0.913   0.742  0.3948 -0.0462 -0.1178
12067SOL    HW140253   7.243   0.951   0.831  0.2648  1.2505 -0.6288
12067SOL    HW240254   7.300   0.918   0.682  0.1963 -0.0193 -0.3819
12068SOL     OW40255   4.081   2.361   1.774  0.0667  0.4732  0.0481
12068SOL    HW140256   4.095   2.346   1.676  0.1989  0.4245  0.0749
12068SOL    HW240257   4.168   2.379   1.818 -0.2479  3.1192 -0.2788
12069SOL     OW40258   2.690   2.632   0.430  0.2450  0.6976 -0.0455
12069SOL    HW140259   2.679   2.581   0.345  1.7841  4.4328 -2.6485
12069SOL    HW240260   2.782   2.619   0.466  1.3381  3.0228 -1.8160
12070SOL     OW40261   0.293   0.811   0.472  0.2905  0.5290  0.1303
12070SOL    HW140262   0.199   0.846   0.465 -0.0658 -0.4126  0.0795
12070SOL    HW240263   0.354   0.867   0.416 -0.2316  1.1705  0.1929
12071SOL     OW40264   6.652   2.098   4.334 -0.6070 -0.1399  0.1515
12071SOL    HW140265   6.689   2.190   4.342  0.0276 -0.0789 -2.7923
12071SOL    HW240266   6.688   2.041   4.407  0.0298  1.6114  1.2238
12072SOL     OW40267   9.361   7.711   5.635  0.3047 -0.0570 -0.1176
12072SOL    HW140268   9.439   7.748   5.685 -0.1131  0.5797  0.0681
12072SOL    HW240269   9.333   7.623   5.676  1.2104 -0.5175 -0.4747
12073SOL     OW40270   0.356   9.744   2.829  0.1291 -0.3643  0.3776
12073SOL    HW140271   0.423   9.674   2.802  1.8779  0.7025  1.7748
12073SOL    HW240272   0.404   9.818   2.876 -1.7898  1.4473 -0.4614
12075SOL     OW40273   6.656   0.520   6.405  0.3776 -0.7033  0.0908
12075SOL    HW140274   6.665   0.568   6.318  1.9229 -0.2793  0.4692
12075SOL    HW240275   6.736   0.538   6.462 -0.3917 -1.3651  1.4167
12076SOL     OW40276   3.610   2.132   2.558 -0.0668  0.3821  0.8595
12076SOL    HW140277   3.652   2.218   2.587  2.0235 -0.3930  0.2420
12076SOL    HW240278   3.669   2.088   2.489 -0.8445 -1.7962  1.5510
12077SOL     OW40279   0.768   9.217   3.807  0.9064  0.1958  0.6957
12077SOL    HW140280   0.804   9.183   3.720  0.5122  1.1845  0.1303
12077SOL    HW240281   0.673   9.246   3.795  0.9684  0.6948  1.3616
12078SOL     OW40282   8.213   2.587   0.194  0.1270 -0.6485  0.2214
12078SOL    HW140283   8.151   2.639   0.137  1.4193  0.3845 -0.2628
12078SOL    HW240284   8.212   2.491   0.166  0.1211 -0.2998 -0.9752
12079SOL     OW40285   0.285   5.850   1.151 -0.0809 -0.2985  0.5914
12079SOL    HW140286   0.359   5.827   1.088 -0.3847 -0.3328  0.2448
12079SOL    HW240287   0.271   5.950   1.152 -0.3389 -0.3325  0.3078
12080SOL     OW40288   3.167   9.506   4.937  0.2429  0.4559  0.3574
12080SOL    HW140289   3.097   9.535   5.002 -0.4732  1.1123 -0.6911
12080SOL    HW240290   3.198   9.585   4.883  1.7169  0.1584  0.7315
12081SOL     OW40291   2.242   8.034   2.504  0.0298  0.0827  0.4166
12081SOL    HW140292   2.311   7.965   2.529  0.4314  0.2771 -0.1391
12081SOL    HW240293   2.285   8.124   2.501 -0.5994  0.4339  1.6161
12084SOL     OW40294   4.549   3.940   4.867  0.2726  0.0749  0.4410
12084SOL    HW140295   4.591   4.025   4.899 -1.1036  0.3027  1.6895
12084SOL    HW240296   4.619   3.882   4.825  1.6700  0.8498  1.6427
12085SOL     OW40297   1.686   3.490   3.664 -0.1639  0.1066 -0.3005
12085SOL    HW140298   1.735   3.573   3.689  0.8613 -0.4136 -0.5349
12085SOL    HW240299   1.676   3.430   3.744  2.0754 -1.0317 -0.8306
12086SOL     OW40300   1.718   8.716   5.456 -0.4754 -0.4346 -0.0005
12086SOL    HW140301   1.644   8.700   5.521  0.0587  0.0130  0.7272
12086SOL    HW240302   1.711   8.809   5.420  0.2821 -0.0805  0.7759
12087SOL     OW40303   5.887   0.579   5.070  0.2843 -0.0754  0.1460
12087SOL    HW140304   5.954   0.545   5.136  0.8239  0.4222 -0.1394
12087SOL    HW240305   5.868   0.676   5.088 -0.0975 -0.1254  0.0118
12090SOL     OW40306   3.801   2.283   5.520 -0.1032  0.3198  0.2521
12090SOL    HW140307   3.755   2.214   5.575 -1.2088  0.4754 -0.4600
12090SOL    HW240308   3.886   2.245   5.484 -0.8564 -0.7907 -0.4004
12091SOL     OW40309   8.120   7.136   1.932  0.0502  0.1233  0.5172
12091SOL    HW140310   8.142   7.039   1.923 -1.3696 -0.2474  0.8719
12091SOL    HW240311   8.067   7.165   1.853 -2.1561 -0.1655  1.8585
12092SOL     OW40312   6.224   1.453   3.801  0.4019  0.0770 -0.0449
12092SOL    HW140313   6.148   1.462   3.866  1.6499 -0.7634  1.5784
12092SOL    HW240314   6.253   1.544   3.770  1.4469  0.6842  2.5721
12093SOL     OW40315   5.868   2.448   4.856 -0.0302  0.1141 -0.0936
12093SOL    HW140316   5.819   2.386   4.917 -0.2077 -0.2120 -0.5666
12093SOL    HW240317   5.828   2.443   4.764  1.3836 -0.7367 -0.6774
12094SOL     OW40318   8.744   1.425   3.904 -0.1696 -0.5279 -0.2693
12094SOL    HW140319   8.836   1.423   3.944 -1.3323 -0.4552  2.5130
12094SOL    HW240320   8.707   1.333   3.901 -0.6402 -0.3500  0.1161
12095SOL     OW40321   1.828   1.676   2.434  0.0165 -0.0900 -0.2696
12095SOL    HW140322   1.833   1.772   2.408 -1.8696  0.1865  0.2977
12095SOL    HW240323   1.920   1.635   2.429  0.7519  1.5936 -0.9838
12096SOL     OW40324   8.132   8.302   3.555  0.1347  0.1349 -0.5235
12096SOL    HW140325   8.117   8.399   3.573 -1.7133 -0.5348  1.8207
12096SOL    HW240326   8.211   8.270   3.609 -0.3288 -0.0299  0.0663
12097SOL     OW40327   7.472   9.708   5.452  0.3530 -0.1631  0.0764
12097SOL    HW140328   7.530   9.777   5.411 -0.8518  0.6527 -0.2718
12097SOL    HW240329   7.513   9.676   5.538  1.9530 -0.5573 -0.8303
12098SOL     OW40330   1.808   0.485   2.730 -0.1869  0.0133  0.2873
12098SOL    HW140331   1.776   0.425   2.656  0.9610 -0.9078  0.5146
12098SOL    HW240332   1.834   0.574   2.692  0.8080 -0.5996 -0.5030
12099SOL     OW40333   5.660   8.850   4.996  0.9574 -0.8438 -0.3013
12099SOL    HW140334   5.690   8.875   4.905 -0.6030 -0.8347 -0.8279
12099SOL    HW240335   5.560   8.841   4.997  0.9067 -0.2826  1.5301
12100SOL     OW40336   9.380   1.133   0.831 -0.2080 -0.4752  0.5413
12100SOL    HW140337   9.405   1.078   0.911  0.9384 -0.8754 -0.0800
12100SOL    HW240338   9.462   1.155   0.778 -0.8337  0.6651  0.0312
12101SOL     OW40339   2.111   0.449   3.277  0.1323 -0.3740  0.1400
12101SOL    HW140340   2.145   0.374   3.333  0.5812  0.5766  1.1507
12101SOL    HW240341   2.158   0.449   3.189 -0.6839 -1.9639 -0.3267
12102SOL     OW40342   8.922   4.012   4.526 -0.5896  0.0745  0.0883
12102SOL    HW140343   9.004   3.957   4.541 -0.2620  0.1574 -1.2654
12102SOL    HW240344   8.880   4.034   4.613  1.3656  0.8396  0.8593
12104SOL     OW40345   6.673   1.353   0.768 -0.2949 -0.2542  0.0386
12104SOL    HW140346   6.658   1.358   0.669 -1.9790  2.0366  0.3591
12104SOL    HW240347   6.603   1.294   0.809 -0.2781 -0.2935  0.0118
12105SOL     OW40348   3.246   0.748   2.781 -0.5560  0.2981 -0.3111
12105SOL    HW140349   3.264   0.687   2.703 -0.9282  0.6149 -0.6477
12105SOL    HW240350   3.328   0.803   2.799  0.3127 -1.3639  0.9641
12106SOL     OW40351   1.472   5.828   2.038 -0.0361 -0.1545 -1.1452
12106SOL    HW140352   1.531   5.847   2.116  0.6291 -2.1495 -1.1213
12106SOL    HW240353   1.517   5.860   1.954 -0.5856  1.6530 -0.7631
12108SOL     OW40354   9.038   7.004   6.128 -0.3766 -0.4914 -0.2502
12108SOL    HW140355   9.125   6.957   6.143 -1.0894 -1.3228  1.4536
12108SOL    HW240356   9.039   7.092   6.176  0.8809  1.2001 -3.2724
12109SOL     OW40357   2.622   1.167   2.984  0.5955  0.4912  0.1716
12109SOL    HW140358   2.527   1.185   3.011  0.8356  1.8526  0.1290
12109SOL    HW240359   2.671   1.126   3.061  0.4923  1.6250  0.8552
12110SOL     OW40360   8.354   8.893   1.343  0.0068  0.1974  0.4613
12110SOL    HW140361   8.315   8.984   1.359 -0.2402  0.2912 -0.6785
12110SOL    HW240362   8.382   8.854   1.431 -2.2527  0.3119  1.2805
12111SOL     OW40363   3.700   3.832   2.966 -0.0783  0.0992  0.2051
12111SOL    HW140364   3.687   3.889   2.885  1.6842  2.4646  1.4868
12111SOL    HW240365   3.675   3.885   3.047  0.3495 -1.4242  1.3440
12112SOL     OW40366   8.846   7.920   0.541  0.1549 -0.0031 -0.8191
12112SOL    HW140367   8.909   7.911   0.618 -1.4597  0.2994  0.5668
12112SOL    HW240368   8.840   8.016   0.514 -0.1285  0.0509 -0.5748
12113SOL     OW40369   8.787   4.891   4.183  0.1457  0.0506 -0.0068
12113SOL    HW140370   8.848   4.817   4.155  0.2040  0.3653 -0.7414
12113SOL    HW240371   8.694   4.856   4.189 -0.0030  0.1622 -1.4489
12114SOL     OW40372   0.210   2.828   4.999 -0.2274 -0.0316 -0.0126
12114SOL    HW140373   0.282   2.774   5.043 -0.2641  0.8829  1.1860
12114SOL    HW240374   0.122   2.807   5.042 -0.8151 -1.6685 -1.9312
12115SOL     OW40375   8.697   5.554   4.970 -0.1578 -0.2642  0.3208
12115SOL    HW140376   8.769   5.484   4.970 -0.3829 -0.4996  0.6400
12115SOL    HW240377   8.725   5.631   4.912  0.4177 -0.2882  0.5620
12118SOL     OW40378   1.712   2.548   4.169  0.3432  0.1017 -0.0864
12118SOL    HW140379   1.756   2.571   4.082  1.9796  0.9595  0.9292
12118SOL    HW240380   1.780   2.551   4.242 -1.1599  0.1123  1.3426
12119SOL     OW40381   1.577   0.175   3.866 -0.0029  0.5318 -0.1158
12119SOL    HW140382   1.632   0.122   3.801 -0.0064  1.0290 -0.5291
12119SOL    HW240383   1.480   0.158   3.849  0.0099  0.1699  0.1763
12121SOL     OW40384   8.095   4.974   4.376  0.0190 -0.2982  0.4917
12121SOL    HW140385   8.170   4.937   4.430 -0.4369 -0.8800  0.7294
12121SOL    HW240386   8.108   5.073   4.365  1.6849 -0.6494 -0.8673
12123SOL     OW40387   9.912   6.017   3.116 -0.7495 -0.1945 -0.2829
12123SOL    HW140388   9.950   5.925   3.117 -1.4404 -0.4887 -0.2792
12123SOL    HW240389   9.955   6.071   3.044  2.2990  0.6239  2.0684
12124SOL     OW40390   7.449   0.367   3.360  0.0223 -0.2250  0.4140
12124SOL    HW140391   7.545   0.394   3.364  0.1776 -0.7379  0.1784
12124SOL    HW240392   7.442   0.270   3.334 -0.5453 -0.2724  0.7271
12125SOL     OW40393   3.041   2.223   3.497 -0.5410  0.2434  0.1245
12125SOL    HW140394   2.979   2.209   3.421 -0.8900 -1.4830  0.7163
12125SOL    HW240395   3.134   2.235   3.462 -0.7322 -0.3017 -0.5772
12128SOL     OW40396   5.901   1.355   4.266 -0.0397 -0.3655 -0.1871
12128SOL    HW140397   5.974   1.387   4.206 -0.0692 -0.8939 -0.5081
12128SOL    HW240398   5.917   1.259   4.289 -0.3941 -0.3560  0.1031
12131SOL     OW40399   4.362   8.960   3.475  0.4464 -0.3138 -0.5243
12131SOL    HW140400   4.333   8.898   3.548 -1.1407 -0.6706 -1.4343
12131SOL    HW240401   4.453   8.934   3.443  1.2930  0.0348  1.5257
12132SOL     OW40402   4.722   8.360   4.969  0.3362 -0.1294 -0.0924
12132SOL    HW140403   4.673   8.393   4.889 -0.1129 -0.7678 -0.0903
12132SOL    HW240404   4.702   8.262   4.982  0.4444 -0.0435  0.7570
12133SOL     OW40405   8.251   3.057   4.232 -0.4434 -0.0966 -0.0076
12133SOL    HW140406   8.341   3.101   4.238 -0.7058  0.5100 -0.4592
12133SOL    HW240407   8.263   2.958   4.231  0.2869 -0.0126 -1.0125
12134SOL     OW40408   2.060   8.422   1.232  0.7956 -0.0979  0.1736
12134SOL    HW140409   2.088   8.405   1.138  0.7068 -0.5594  0.2275
12134SOL    HW240410   2.086   8.515   1.259 -2.5966  1.4024 -1.5434
12135SOL     OW40411   8.492   4.538   5.213 -0.2186 -0.3484 -0.4916
12135SOL    HW140412   8.420   4.475   5.243 -1.0080  0.3957 -0.8243
12135SOL    HW240413   8.557   4.489   5.155 -1.0776 -0.7613 -1.1181
12136SOL     OW40414   8.341   8.927   4.431  0.2862  0.4876 -0.7416
12136SOL    HW140415   8.263   8.867   4.414 -0.5063  0.8214  1.4804
12136SOL    HW240416   8.418   8.900   4.373 -0.5613 -1.6675 -0.9080
12138SOL     OW40417   4.511   0.708   6.041  0.2745 -0.0627  0.8690
12138SOL    HW140418   4.447   0.779   6.068  0.5664 -0.2276  1.9966
12138SOL    HW240419   4.461   0.632   5.998 -0.3236 -0.3369  2.0358
12139SOL     OW40420   4.307   9.166   3.241 -0.0436  0.5051  0.2958
12139SOL    HW140421   4.365   9.247   3.240  1.4108 -0.5141  0.1452
12139SOL    HW240422   4.318   9.118   3.328  0.4410 -0.4732 -0.3022
12140SOL     OW40423   1.642   4.115   5.634  0.0359  0.6983 -0.5764
12140SOL    HW140424   1.615   4.158   5.547  0.8649  1.1224 -0.6324
12140SOL    HW240425   1.721   4.163   5.671  0.3131 -0.1212 -0.0952
12141SOL     OW40426   0.354   3.681   1.054 -0.0231 -0.0221 -0.2462
12141SOL    HW140427   0.405   3.767   1.052  1.4199 -0.7973  2.1085
12141SOL    HW240428   0.277   3.690   1.118 -0.7327 -0.0323 -1.0881
12142SOL     OW40429   4.176   1.645   0.410 -0.1495  0.2481  0.3535
12142SOL    HW140430   4.235   1.713   0.366 -0.3550  2.3499  3.2175
12142SOL    HW240431   4.225   1.599   0.483 -1.2927  0.2111  1.1069
12143SOL     OW40432   8.988   8.885   2.918  0.0350 -0.3188  0.0524
12143SOL    HW140433   8.938   8.883   3.004 -0.3158  0.2993 -0.1353
12143SOL    HW240434   9.044   8.802   2.910 -0.6731 -0.8411  0.4352
12144SOL     OW40435   8.547   9.774   3.813 -0.8928 -0.0287 -0.3991
12144SOL    HW140436   8.591   9.691   3.778  0.4452  0.9527 -1.1047
12144SOL    HW240437   8.452   9.777   3.782 -0.8038 -1.0397 -0.8056
12145SOL     OW40438   9.252   2.659   0.122  0.1818  0.8587  0.1628
12145SOL    HW140439   9.274   2.644   0.026 -2.0966 -0.7321 -0.1411
12145SOL    HW240440   9.215   2.751   0.134  0.5165  1.0795 -0.4674
12146SOL     OW40441   3.718   8.353   4.944  0.2899 -0.8918  0.2278
12146SOL    HW140442   3.633   8.395   4.978  0.6815  0.0672  0.0454
12146SOL    HW240443   3.696   8.290   4.870 -0.2738 -0.6473  0.1808
12147SOL     OW40444   8.280   4.421   4.054 -0.1459  0.1768 -0.5998
12147SOL    HW140445   8.190   4.418   4.098  0.5921 -1.6710  0.8177
12147SOL    HW240446   8.300   4.332   4.013  2.0458 -0.1779  1.1459
12148SOL     OW40447   8.248   4.690   0.544 -0.0434 -0.7056  0.7004
12148SOL    HW140448   8.337   4.656   0.577  0.3279 -0.3594  0.0642
12148SOL    HW240449   8.176   4.656   0.603  0.4344 -1.7155  0.7099
12151SOL     OW40450   3.517   1.916   3.457 -0.4153  0.2682  0.3732
12151SOL    HW140451   3.546   1.962   3.373 -0.3361 -1.0059 -0.3120
12151SOL    HW240452   3.418   1.911   3.460 -0.3976 -0.3781 -0.0302
12152SOL     OW40453   1.822   0.079   3.963 -0.0131 -0.1755  0.3597
12152SOL    HW140454   1.827  -0.016   3.993  0.3340 -0.7316 -1.3629
12152SOL    HW240455   1.734   0.119   3.992  0.3796 -0.6042  2.1884
12154SOL     OW40456   3.592   7.854   6.203 -0.2392  0.4547  0.0169
12154SOL    HW140457   3.666   7.826   6.263 -0.9481 -0.4369  0.4738
12154SOL    HW240458   3.603   7.951   6.180  1.2830  0.2379 -0.2405
12155SOL     OW40459   6.307   1.368   5.566 -0.4220 -0.6394 -0.3544
12155SOL    HW140460   6.279   1.275   5.591  0.8224 -1.0901 -0.6070
12155SOL    HW240461   6.335   1.370   5.470  1.4500 -0.4505  0.1729
12159SOL     OW40462   3.012   8.561   1.801  0.5355 -0.1561 -0.1518
12159SOL    HW140463   3.001   8.574   1.899 -1.6276 -0.3552 -0.3251
12159SOL    HW240464   2.941   8.613   1.753  0.4437 -1.5147 -1.5101
12160SOL     OW40465   1.030   3.795   1.354 -0.0287  0.7165  0.0696
12160SOL    HW140466   0.980   3.794   1.441 -0.1533 -1.9090  0.0104
12160SOL    HW240467   1.126   3.820   1.371  0.2968 -1.2023  1.1786
12161SOL     OW40468   9.336   9.063   2.273  0.5610  0.3854  0.1712
12161SOL    HW140469   9.302   9.013   2.192  0.1079  0.6474  0.2000
12161SOL    HW240470   9.278   9.142   2.290  1.8040  1.4535 -0.4099
12162SOL     OW40471   7.029   6.296   6.329 -0.5572 -0.4871  0.3523
12162SOL    HW140472   7.120   6.333   6.345 -1.2571  1.4960 -0.0795
12162SOL    HW240473   6.992   6.333   6.244 -0.8925 -3.0440 -0.6752
12163SOL     OW40474   3.799   6.622   4.662  0.1871 -0.5645 -0.4864
12163SOL    HW140475   3.801   6.536   4.713  0.8758  0.0175  0.5027
12163SOL    HW240476   3.773   6.605   4.567 -1.1667 -1.6631  0.0804
12165SOL     OW40477   0.038   3.991   1.606 -0.5425  0.0297  0.2562
12165SOL    HW140478   0.042   4.091   1.609  0.3578  0.0499 -1.2653
12165SOL    HW240479   0.131   3.953   1.604 -0.8834 -0.8208  0.1574
12166SOL     OW40480   9.802   9.407   3.883  0.5093  0.0431  0.2304
12166SOL    HW140481   9.714   9.388   3.839  0.3900 -0.8655  0.8441
12166SOL    HW240482   9.790   9.479   3.951 -0.0183 -0.9002  1.1499
12168SOL     OW40483   6.549   1.120   0.618 -0.2699  0.1609  0.5529
12168SOL    HW140484   6.519   1.206   0.575 -0.3285  0.5911  1.4251
12168SOL    HW240485   6.526   1.123   0.716  0.6583 -0.4216  0.7919
12169SOL     OW40486   2.011   0.929   4.236  0.1689 -0.1569 -0.0165
12169SOL    HW140487   1.932   0.964   4.287  0.4068  0.2989  0.0340
12169SOL    HW240488   1.987   0.840   4.197 -0.5477  0.1998 -0.4165
12170SOL     OW40489   2.523   2.277   1.159  0.4397 -0.7047 -0.2056
12170SOL    HW140490   2.479   2.186   1.154  2.0180 -1.5965  1.5695
12170SOL    HW240491   2.504   2.327   1.074 -2.0457 -1.9474 -0.4528
12171SOL     OW40492   3.676   0.754   3.636 -0.0999  0.2359 -0.3657
12171SOL    HW140493   3.723   0.782   3.552  2.0559  1.1385  1.1142
12171SOL    HW240494   3.723   0.793   3.715 -1.9198 -0.8737  1.2904
12172SOL     OW40495   1.009   6.259   5.913  0.4075 -0.4573 -0.2801
12172SOL    HW140496   1.039   6.353   5.898  0.6279 -0.6059 -0.7738
12172SOL    HW240497   1.088   6.201   5.936  0.4492 -0.7596 -1.1546
12174SOL     OW40498   0.634   8.822   0.535  0.3981 -0.1749  0.1248
12174SOL    HW140499   0.690   8.844   0.614  0.6113  2.0210 -0.6281
12174SOL    HW240500   0.657   8.882   0.459  0.6826 -2.7058 -1.8583
12178SOL     OW40501   4.926   7.735   5.414  0.0412  0.0485  0.0566
12178SOL    HW140502   4.861   7.661   5.427  0.0968 -0.1243 -0.6418
12178SOL    HW240503   4.883   7.809   5.362 -0.3081  0.9134  1.5406
12179SOL     OW40504   3.139   6.573   0.333  0.2103 -0.4262 -0.3099
12179SOL    HW140505   3.069   6.541   0.396  0.7047 -2.3062 -0.7008
12179SOL    HW240506   3.146   6.510   0.256  0.3339  1.2865 -1.7444
12180SOL     OW40507   8.302   0.018   3.910  0.0360  0.0453  0.0039
12180SOL    HW140508   8.239   0.093   3.887 -3.5044 -2.9954 -0.8898
12180SOL    HW240509   8.372   0.051   3.973 -2.4934  3.6207  1.1255
12181SOL     OW40510   6.963   2.491   5.544 -0.1347  0.2210  0.3667
12181SOL    HW140511   6.913   2.578   5.541  0.6061  0.6207 -0.7866
12181SOL    HW240512   7.000   2.470   5.453  1.5466 -0.1961  1.1220
12182SOL     OW40513   4.696   9.223   5.891 -0.8742 -0.1190  0.1736
12182SOL    HW140514   4.772   9.158   5.888  1.4526  2.5146 -0.3666
12182SOL    HW240515   4.644   9.218   5.806  1.1686  0.8138 -1.1696
12183SOL     OW40516   0.746   2.822   6.429 -0.2091  0.0198 -0.9607
12183SOL    HW140517   0.786   2.890   6.490 -0.3574 -0.9995  0.3061
12183SOL    HW240518   0.651   2.847   6.409 -0.4929 -0.1812  0.0901
12184SOL     OW40519   9.399   6.013   3.262  0.2571 -0.2674 -0.3007
12184SOL    HW140520   9.312   6.061   3.274  0.6726  0.3818  0.1315
12184SOL    HW240521   9.415   5.952   3.339  0.5730  0.2170  0.0148
12185SOL     OW40522   8.035   5.623   5.082 -0.7215  0.0244 -0.3752
12185SOL    HW140523   8.023   5.647   4.986 -1.8372  0.2339 -0.1961
12185SOL    HW240524   7.946   5.600   5.122 -0.3138  0.2693  0.6922
12186SOL     OW40525   2.351   2.730   6.147 -0.4922 -0.2484 -0.0046
12186SOL    HW140526   2.289   2.795   6.191 -0.6167 -0.3134 -0.0832
12186SOL    HW240527   2.433   2.777   6.116  1.1620 -0.7340  3.3340
12187SOL     OW40528   8.039   2.277   5.057  0.2504 -0.4173  0.2541
12187SOL    HW140529   8.087   2.210   5.001 -0.8425 -0.2166 -0.9305
12187SOL    HW240530   7.968   2.231   5.111 -0.2391 -0.2803 -0.2673
12188SOL     OW40531   5.235   8.424   4.837  0.6540 -0.4303  0.5448
12188SOL    HW140532   5.257   8.389   4.746  0.5812  0.5427  0.1535
12188SOL    HW240533   5.270   8.360   4.906  0.8592 -1.0835 -0.1543
12189SOL     OW40534   2.376   0.546   6.110  0.6797 -0.2228 -0.0529
12189SOL    HW140535   2.375   0.646   6.109 -1.4203 -0.1750  2.0711
12189SOL    HW240536   2.396   0.512   6.018  1.0376  2.1434 -0.8789
12190SOL     OW40537   0.140   0.892   2.772 -0.3039  0.1059  0.1218
12190SOL    HW140538   0.134   0.984   2.813  1.0626 -0.3940  1.4607
12190SOL    HW240539   0.115   0.898   2.675 -0.2894  1.8828  0.1989
12192SOL     OW40540   3.926   1.075   3.693  0.6300  0.8138 -0.1616
12192SOL    HW140541   4.006   1.094   3.750  0.6689  0.7314 -0.1886
12192SOL    HW240542   3.915   1.148   3.625 -1.0026  2.3154  1.6861
12195SOL     OW40543   9.503   7.728   3.703  0.3007  0.1399 -0.2931
12195SOL    HW140544   9.544   7.700   3.616 -1.3341 -1.5012 -0.5631
12195SOL    HW240545   9.494   7.648   3.763  1.3759  1.2505  1.3791
12197SOL     OW40546   2.996   4.203   0.663 -0.1844  0.1108  1.1285
12197SOL    HW140547   3.067   4.169   0.602 -0.3656 -0.9045  1.4876
12197SOL    HW240548   2.919   4.139   0.665  1.3331 -1.7368  5.2124
12198SOL     OW40549   3.342   9.278   0.653 -0.6977  0.2289  0.2713
12198SOL    HW140550   3.260   9.295   0.708 -0.4400 -0.1098  0.7601
12198SOL    HW240551   3.404   9.218   0.703 -0.3280  0.1612 -0.2681
12199SOL     OW40552   7.215   1.321   1.356 -0.0450  0.1320 -0.0712
12199SOL    HW140553   7.256   1.388   1.418 -1.3509  0.6285  0.2718
12199SOL    HW240554   7.219   1.230   1.398  2.3482 -0.1550 -0.8277
12200SOL     OW40555   1.378   8.356   1.908 -0.4934 -0.1619 -0.0370
12200SOL    HW140556   1.420   8.445   1.890  1.0611 -0.7361  0.6125
12200SOL    HW240557   1.314   8.363   1.984  0.0944  0.2877  0.4222
12201SOL     OW40558   5.695   0.491   1.893  0.0854  0.1277  0.2153
12201SOL    HW140559   5.625   0.553   1.928  2.3713  1.0554  3.3353
12201SOL    HW240560   5.695   0.407   1.947  0.1058 -0.6977 -1.0369
12202SOL     OW40561   9.497   0.948   1.002  0.1541  0.3799 -0.0304
12202SOL    HW140562   9.559   0.935   0.925 -0.4691  4.4333 -1.3557
12202SOL    HW240563   9.551   0.967   1.085  0.7383 -0.2734 -0.2554
12203SOL     OW40564   0.292   1.647   5.928 -0.2206 -0.9520 -0.5701
12203SOL    HW140565   0.325   1.741   5.932  0.2349 -1.1342 -0.0661
12203SOL    HW240566   0.237   1.634   5.845  0.5613 -0.5268 -1.1507
12205SOL     OW40567   4.841   1.160   2.750 -0.0021  0.1772 -1.2595
12205SOL    HW140568   4.826   1.250   2.708  0.7966  1.6322  1.4808
12205SOL    HW240569   4.757   1.130   2.795  0.5036  0.8185  0.1364
12207SOL     OW40570   7.298   4.148   0.153 -0.0691 -0.3076 -0.1247
12207SOL    HW140571   7.335   4.240   0.169 -0.1957 -0.3215  0.2605
12207SOL    HW240572   7.322   4.118   0.061  0.9547 -0.3471  0.1484
12208SOL     OW40573   1.052   8.866   4.457 -0.3774 -0.1921  0.0152
12208SOL    HW140574   0.981   8.937   4.454 -0.1696  0.1214  2.1824
12208SOL    HW240575   1.009   8.776   4.443 -1.2000  0.0091  1.1543
12211SOL     OW40576   3.755   4.948   2.788  0.1262  0.3364  0.0705
12211SOL    HW140577   3.659   4.943   2.762 -0.1087  1.1369  0.7732
12211SOL    HW240578   3.809   4.892   2.726 -0.8306 -0.3621 -0.1455
12212SOL     OW40579   9.225   7.704   5.241  0.6832  0.4101  0.6107
12212SOL    HW140580   9.302   7.680   5.300 -0.1038 -0.6102  1.2222
12212SOL    HW240581   9.220   7.639   5.165 -1.2081 -1.1749  2.0526
12213SOL     OW40582   9.393   6.169   1.274 -0.2059 -0.4253 -0.7234
12213SOL    HW140583   9.461   6.242   1.279  1.5246 -1.7072 -4.2736
12213SOL    HW240584   9.438   6.082   1.253 -2.3188 -2.4571  2.6370
12214SOL     OW40585   8.440   9.728   0.537  0.0277  0.6143  0.6681
12214SOL    HW140586   8.392   9.692   0.456 -2.4297  1.6656  1.6002
12214SOL    HW240587   8.532   9.756   0.511 -0.1325 -0.6087 -1.4107
12215SOL     OW40588   9.552   9.660   5.512  0.5999 -0.1332 -0.3935
12215SOL    HW140589   9.576   9.602   5.591 -0.9238  0.3829  0.4715
12215SOL    HW240590   9.632   9.672   5.454  1.3502 -1.8150  0.2504
12216SOL     OW40591   3.354   9.114   1.131  0.0165 -0.3652 -0.2353
12216SOL    HW140592   3.322   9.039   1.073  0.3532 -0.2073 -0.6289
12216SOL    HW240593   3.277   9.173   1.154 -0.3709 -1.2056  0.6320
12217SOL     OW40594   7.673   2.653   5.365  0.0387 -0.3715  0.6363
12217SOL    HW140595   7.758   2.658   5.417  0.8931 -0.2178 -0.7810
12217SOL    HW240596   7.692   2.653   5.267 -1.4565 -2.5296  0.2896
12218SOL     OW40597   1.155   2.638   5.401 -0.4126 -0.0194  0.6492
12218SOL    HW140598   1.193   2.570   5.339  1.4406  0.5918  1.0953
12218SOL    HW240599   1.117   2.593   5.482 -2.2020 -0.7628 -0.5566
12219SOL     OW40600   7.588   3.691   5.077 -0.5169 -0.2704  0.0603
12219SOL    HW140601   7.674   3.738   5.094 -0.4438 -0.6455  0.7641
12219SOL    HW240602   7.604   3.610   5.019 -0.2382 -0.8992  1.0073
12220SOL     OW40603   3.333   6.603   6.172 -0.9895 -0.1910 -0.0590
12220SOL    HW140604   3.324   6.643   6.081  0.4469 -0.9491 -0.5422
12220SOL    HW240605   3.324   6.676   6.241  1.5621  1.0023 -0.9212
12221SOL     OW40606   1.477   7.980   4.793  0.4345  0.0374 -0.4144
12221SOL    HW140607   1.466   7.966   4.892 -0.8645  1.9706 -0.2651
12221SOL    HW240608   1.389   8.004   4.753  1.3183  1.1238 -1.7293
12226SOL     OW40609   0.808   1.027   4.545  0.1294 -0.5339 -0.7536
12226SOL    HW140610   0.908   1.034   4.543  0.0629  0.6583 -0.5022
12226SOL    HW240611   0.777   1.022   4.640 -0.0404 -1.1652 -0.8401
12227SOL     OW40612   1.506   0.238   6.254  0.0749 -0.1951  0.4169
12227SOL    HW140613   1.555   0.311   6.301 -1.5486  0.0446  1.8249
12227SOL    HW240614   1.446   0.278   6.184  1.2322 -0.4145 -0.7088
12230SOL     OW40615   1.343   2.380   3.042  0.0414 -0.0606  0.0173
12230SOL    HW140616   1.418   2.329   3.084  1.1065  1.0667 -0.4899
12230SOL    HW240617   1.378   2.436   2.967 -0.8520  2.5451  1.4951
12231SOL     OW40618   7.426   5.493   0.254  0.2592 -0.6510 -0.4583
12231SOL    HW140619   7.427   5.394   0.267  0.9119 -0.6656 -0.6052
12231SOL    HW240620   7.516   5.524   0.222  0.2794  0.0822  0.2729
12232SOL     OW40621   1.926   5.343   3.525 -0.1571 -0.0208  0.3086
12232SOL    HW140622   1.828   5.353   3.505  0.0068 -0.3436 -0.6471
12232SOL    HW240623   1.946   5.388   3.612 -0.9777  0.8763  0.0519
12233SOL     OW40624   2.164   8.220   1.405  0.2133 -0.2651  0.2171
12233SOL    HW140625   2.251   8.236   1.358  0.0051 -1.1950 -0.4930
12233SOL    HW240626   2.092   8.208   1.336 -0.8426  2.4440  0.7839
12234SOL     OW40627   9.841   2.752   3.905  0.0555 -0.1375  0.6763
12234SOL    HW140628   9.891   2.796   3.830 -1.2033 -0.9259 -0.6578
12234SOL    HW240629   9.904   2.700   3.962  1.1432  1.0954  0.6206
12235SOL     OW40630   9.601   9.202   6.438  0.5087  0.4704 -0.2194
12235SOL    HW140631   9.587   9.106   6.461  0.2248  0.1560 -1.6249
12235SOL    HW240632   9.642   9.250   6.515 -1.7782 -0.1869  1.4741
12238SOL     OW40633   8.813   5.821   6.364  1.0227  0.5327 -1.2050
12238SOL    HW140634   8.751   5.769   6.307  0.2588  0.1831 -0.0751
12238SOL    HW240635   8.786   5.917   6.365 -2.2214 -0.2582  2.6964
12239SOL     OW40636   2.633   6.132   2.112 -0.2087  0.3196  0.4967
12239SOL    HW140637   2.671   6.047   2.149  0.1700  0.0763 -0.4209
12239SOL    HW240638   2.542   6.115   2.074 -0.7322  0.6383  1.6041
12240SOL     OW40639   8.342   4.285   5.958  0.2318 -0.6104 -0.0611
12240SOL    HW140640   8.373   4.221   5.888  0.3536  0.1080 -0.6707
12240SOL    HW240641   8.385   4.261   6.045 -1.1282 -2.4435  0.1271
12241SOL     OW40642   7.682   6.434   6.103  0.1470 -0.4144  0.3491
12241SOL    HW140643   7.686   6.358   6.167  0.8333  0.3475  1.2160
12241SOL    HW240644   7.716   6.404   6.014 -0.8827 -1.4908  0.3041
12242SOL     OW40645   5.042   4.906   1.795  0.2907  0.1881 -0.5314
12242SOL    HW140646   5.046   4.961   1.712 -0.7090  0.1011 -0.6399
12242SOL    HW240647   5.124   4.923   1.850 -0.5584  2.7654  0.0408
12244SOL     OW40648   1.520   7.978   3.256  0.1095  0.5439 -0.4857
12244SOL    HW140649   1.465   7.973   3.339  0.0737 -1.5185 -0.5920
12244SOL    HW240650   1.485   8.051   3.197  0.7802  2.7088  1.7249
12245SOL     OW40651   4.091   9.709   0.230  0.2951 -0.0555 -0.1359
12245SOL    HW140652   4.015   9.651   0.258  0.0697  0.4959  0.4050
12245SOL    HW240653   4.171   9.652   0.212 -0.2244 -0.6324 -0.6647
12246SOL     OW40654   0.017   5.670   2.535  0.2689  0.3360 -0.0432
12246SOL    HW140655  -0.008   5.606   2.608 -1.8497  1.1709  0.0085
12246SOL    HW240656   0.110   5.703   2.550 -0.0332  0.2672  2.1270
12247SOL     OW40657   4.815   2.378   6.057 -0.4297 -0.4083  0.1611
12247SOL    HW140658   4.904   2.334   6.056 -0.3391 -0.2428  0.8553
12247SOL    HW240659   4.757   2.335   6.126 -0.4504  0.3370  0.6148
12248SOL     OW40660   3.659   6.879   2.370  0.3121 -0.4051  0.0475
12248SOL    HW140661   3.584   6.814   2.373 -0.6737  0.7328  0.9530
12248SOL    HW240662   3.651   6.943   2.446  1.4638  0.5478 -0.5982
12249SOL     OW40663   8.342   2.214   6.216  0.1578 -0.7936  0.4823
12249SOL    HW140664   8.339   2.313   6.203  2.2136 -0.7744 -0.1064
12249SOL    HW240665   8.267   2.186   6.276  2.0675  1.6732  4.1979
12250SOL     OW40666   7.967   1.916   6.173 -0.1424  0.0827  0.4165
12250SOL    HW140667   7.874   1.921   6.209  0.1761  0.4298  1.2010
12250SOL    HW240668   8.023   1.857   6.231  0.0064 -0.5125 -0.3252
12251SOL     OW40669   4.827   0.777   6.087 -0.6024 -0.3427  0.1400
12251SOL    HW140670   4.741   0.731   6.065  0.0870 -2.3646  1.5608
12251SOL    HW240671   4.841   0.775   6.186  1.9233 -1.5958 -0.1995
12253SOL     OW40672   3.505   8.916   3.325  0.0766  0.3038 -0.1054
12253SOL    HW140673   3.481   9.012   3.343  0.2778  0.3330  0.0054
12253SOL    HW240674   3.603   8.903   3.340 -0.3743 -0.4916  2.3445
12254SOL     OW40675   2.092   3.873   5.889  0.0700 -0.3861 -0.0998
12254SOL    HW140676   2.006   3.826   5.910 -0.3416 -0.3763 -1.6602
12254SOL    HW240677   2.080   3.972   5.903 -0.1857 -0.3813 -0.3444
12255SOL     OW40678   8.778   7.624   3.863  0.0471  0.0660 -0.3711
12255SOL    HW140679   8.718   7.601   3.787  2.3530 -0.7348 -2.0049
12255SOL    HW240680   8.845   7.693   3.834 -1.2053  2.3823  1.9494
12257SOL     OW40681   2.243   1.454   0.650  0.4217 -0.2771 -0.4413
12257SOL    HW140682   2.326   1.476   0.702 -0.3095  0.0679  0.6025
12257SOL    HW240683   2.231   1.520   0.576  0.4209  0.4145  0.1717
12258SOL     OW40684   8.105   4.929   2.823  0.9892  0.4041 -0.3161
12258SOL    HW140685   8.017   4.927   2.871  0.4803  0.2015 -1.2431
12258SOL    HW240686   8.145   5.020   2.831  1.3252  0.1499  1.2064
12259SOL     OW40687   0.974   5.577   1.498  0.2099  0.3061 -0.0084
12259SOL    HW140688   0.993   5.577   1.399 -1.0722 -1.0670 -0.2817
12259SOL    HW240689   0.903   5.509   1.518  0.3457  0.6838  1.8486
12260SOL     OW40690   9.581   7.514   5.064  0.7497 -0.1616  0.0811
12260SOL    HW140691   9.563   7.612   5.078  0.5315 -0.4642  2.0873
12260SOL    HW240692   9.534   7.483   4.982  1.6376  1.6479 -1.1393
12263SOL     OW40693   0.588   9.922   3.822 -0.2307 -0.0089  0.2284
12263SOL    HW140694   0.592   9.881   3.731 -1.0526  0.0822  0.1452
12263SOL    HW240695   0.678   9.959   3.846  0.0290 -0.1637 -0.4859
12264SOL     OW40696   0.301   8.100   2.506  0.0184  0.1021  0.1188
12264SOL    HW140697   0.365   8.034   2.545 -0.4911 -0.3257  0.2304
12264SOL    HW240698   0.339   8.192   2.514 -0.1125  0.0355  1.6959
12265SOL     OW40699   9.766   9.867   0.746 -0.3192 -0.0790  0.6788
12265SOL    HW140700   9.697   9.938   0.756  0.8469  0.9010  2.1455
12265SOL    HW240701   9.857   9.910   0.741  0.1565 -1.3015 -1.8040
12266SOL     OW40702   9.245   7.408   1.695  0.1571 -0.2092 -0.2778
12266SOL    HW140703   9.145   7.405   1.692  0.1139 -1.3909  1.4325
12266SOL    HW240704   9.276   7.370   1.782  1.9431  4.1856  1.1344
12267SOL     OW40705   0.906   0.115   4.229 -0.0377  0.5015 -0.8118
12267SOL    HW140706   0.991   0.118   4.281 -0.9381 -0.1224  0.7152
12267SOL    HW240707   0.897   0.199   4.175  2.3592 -0.1724 -2.3244
12268SOL     OW40708   4.348   2.007   3.100 -0.2264 -0.0036 -0.0155
12268SOL    HW140709   4.316   2.101   3.090 -1.6273 -0.3696  0.8547
12268SOL    HW240710   4.271   1.945   3.087  0.7696 -1.0586 -0.9761
12269SOL     OW40711   0.666   1.427   3.836 -0.3162  0.1717  0.3762
12269SOL    HW140712   0.748   1.373   3.818 -0.8478 -1.1209  1.6758
12269SOL    HW240713   0.652   1.436   3.935 -0.9751  1.5725  0.1720
12270SOL     OW40714   2.954   7.504   6.327 -0.6047  0.2961 -0.2214
12270SOL    HW140715   2.898   7.579   6.291  2.4028  4.0048  2.4021
12270SOL    HW240716   3.016   7.472   6.255 -2.3723 -0.1594 -1.5677
12271SOL     OW40717   0.521   3.157   4.404  0.0296  0.0129  0.0194
12271SOL    HW140718   0.427   3.140   4.376 -0.2062  2.0792 -0.5847
12271SOL    HW240719   0.541   3.108   4.489 -1.0203 -1.8585 -0.8020
12273SOL     OW40720   2.121   1.713   3.315 -0.0343 -0.1191  0.2509
12273SOL    HW140721   2.133   1.766   3.399 -2.3572  0.5128  0.2328
12273SOL    HW240722   2.175   1.753   3.241  0.4251  0.5341  0.9388
12274SOL     OW40723   1.108   4.396   5.643 -0.3378  0.2324 -0.7385
12274SOL    HW140724   1.204   4.424   5.633  0.0026 -1.5979 -2.8210
12274SOL    HW240725   1.049   4.475   5.623  0.6951  0.8644 -1.3813
12276SOL     OW40726   9.864   5.491   5.255 -0.0867 -0.1481 -0.2168
12276SOL    HW140727   9.867   5.467   5.352 -0.9706 -1.7161 -0.5569
12276SOL    HW240728   9.952   5.469   5.212  0.6297  1.4309  0.4117
12277SOL     OW40729   9.014   2.317   0.188 -0.3140  0.0321 -0.3365
12277SOL    HW140730   8.990   2.414   0.183  0.2786  0.2123  0.2346
12277SOL    HW240731   8.936   2.265   0.225 -0.1841  0.4618  0.5293
12278SOL     OW40732   3.959   3.819   2.697  0.0119  0.4579  0.1098
12278SOL    HW140733   3.991   3.726   2.712 -1.2772  0.1066  0.7497
12278SOL    HW240734   3.961   3.870   2.783  0.0954  0.8248 -0.1080
12279SOL     OW40735   8.629   5.393   0.429 -0.5396  0.0140 -0.1243
12279SOL    HW140736   8.556   5.326   0.442 -1.3299  0.3710 -2.4284
12279SOL    HW240737   8.589   5.485   0.423  0.4051  0.5635  1.6338
12280SOL     OW40738   0.441   6.810   5.047 -0.1303  0.3671 -0.0971
12280SOL    HW140739   0.348   6.789   5.080 -0.3185  2.1335  0.5454
12280SOL    HW240740   0.437   6.831   4.949 -0.8634  3.0712  0.4712
12281SOL     OW40741   8.576   2.928   3.175 -0.3748 -0.4492 -0.4058
12281SOL    HW140742   8.478   2.923   3.196 -0.0705 -0.4462  1.0752
12281SOL    HW240743   8.624   2.970   3.252  0.8752 -0.9698 -0.8982
12282SOL     OW40744   5.729   9.634   4.150  0.0667  0.2172 -0.3110
12282SOL    HW140745   5.677   9.710   4.192 -0.9646  0.2005 -1.5155
12282SOL    HW240746   5.665   9.570   4.108  1.0423 -0.2677 -1.0682
12284SOL     OW40747   3.850   4.346   6.342  0.0340  0.3343  0.2280
12284SOL    HW140748   3.867   4.440   6.370  1.8793 -0.3652  1.5721
12284SOL    HW240749   3.931   4.290   6.362 -0.8907 -1.4619 -0.8933
12286SOL     OW40750   1.289   9.171   5.340  0.2276 -0.6208  0.0078
12286SOL    HW140751   1.298   9.073   5.357  0.5448 -0.8902 -1.6268
12286SOL    HW240752   1.195   9.193   5.317  0.2905 -0.6535 -0.2821
12288SOL     OW40753   7.906   1.844   5.202  0.3793  0.4074 -0.0200
12288SOL    HW140754   7.924   1.902   5.282  0.6019 -0.9192  0.9236
12288SOL    HW240755   7.808   1.846   5.181  0.0394 -0.4979  1.3315
12289SOL     OW40756   4.500   5.221   1.706  0.3758  0.9064 -0.0926
12289SOL    HW140757   4.458   5.298   1.754  1.9923  1.3441  0.6540
12289SOL    HW240758   4.476   5.135   1.752 -1.7391  0.9038 -1.1476
12290SOL     OW40759   6.067   3.866   0.895  0.1152  0.0990  0.2342
12290SOL    HW140760   6.122   3.826   0.969  0.6408  0.3686 -0.0041
12290SOL    HW240761   6.032   3.955   0.924 -1.6130 -0.8196  1.0120
12291SOL     OW40762   3.558   7.578   2.206  0.2150 -0.2501  0.4238
12291SOL    HW140763   3.553   7.479   2.195  0.0905  0.0251 -2.4308
12291SOL    HW240764   3.652   7.609   2.190 -0.1051  0.2702 -0.4733
12292SOL     OW40765   1.557   1.355   2.026  1.0327 -0.4786 -0.9404
12292SOL    HW140766   1.615   1.426   1.986  1.9930 -0.3301  0.6806
12292SOL    HW240767   1.590   1.332   2.118  0.3329 -2.5491 -1.1697
12293SOL     OW40768   2.588   6.759   1.187  0.4333  0.6828 -0.3281
12293SOL    HW140769   2.606   6.705   1.105  0.8053 -0.9854  0.8278
12293SOL    HW240770   2.672   6.771   1.238  0.1614  1.5347 -0.0819
12295SOL     OW40771   1.093   4.094   2.830  0.1828  0.2324  0.0257
12295SOL    HW140772   1.000   4.093   2.794  0.3503  1.0895 -0.4612
12295SOL    HW240773   1.131   4.186   2.819  1.1538 -0.1633  0.0399
12296SOL     OW40774   0.594   4.418   3.884  0.2184  0.3277 -0.3021
12296SOL    HW140775   0.656   4.395   3.809  1.7526  1.1653  0.6735
12296SOL    HW240776   0.509   4.457   3.847  0.9973  0.8338 -1.6022
12297SOL     OW40777   9.018   6.889   1.480  0.1014 -0.4018  0.4029
12297SOL    HW140778   9.022   6.831   1.398  1.5034 -1.3516  1.1178
12297SOL    HW240779   8.933   6.870   1.530  0.7660 -2.2251  0.8794
12298SOL     OW40780   7.768   8.659   5.693 -0.3320  0.2969 -0.3639
12298SOL    HW140781   7.687   8.703   5.732 -1.4445  0.6290 -2.9700
12298SOL    HW240782   7.741   8.573   5.648  0.5369  1.0400 -2.3624
12299SOL     OW40783   3.132   5.134   2.860  0.0293 -0.3441 -0.2029
12299SOL    HW140784   3.040   5.107   2.889  0.7745 -2.9764 -0.2410
12299SOL    HW240785   3.135   5.234   2.848 -2.7556 -0.2151 -0.0381
12301SOL     OW40786   7.205   1.144   6.028 -0.7273 -0.1114 -0.5333
12301SOL    HW140787   7.109   1.119   6.040 -0.3503 -1.2468  0.1661
12301SOL    HW240788   7.263   1.086   6.086  0.4766 -0.2772 -1.8653
12302SOL     OW40789   7.427   3.762   3.168 -0.3218 -0.1713  0.8073
12302SOL    HW140790   7.475   3.676   3.152 -0.5456 -0.0530 -0.5154
12302SOL    HW240791   7.488   3.839   3.149 -1.0932 -0.0144 -1.2120
12303SOL     OW40792   8.907   3.474   6.033 -0.0355 -0.0955 -0.2019
12303SOL    HW140793   8.970   3.488   6.110 -1.7665 -1.1149  1.4586
12303SOL    HW240794   8.815   3.502   6.060 -0.5084  0.3939 -2.2430
12304SOL     OW40795   3.584   4.881   4.772 -0.4087 -0.3974 -0.9419
12304SOL    HW140796   3.576   4.968   4.822 -0.3020 -0.0993 -1.4444
12304SOL    HW240797   3.598   4.900   4.675  0.5093 -0.9758 -0.9234
12305SOL     OW40798   1.859   0.256   0.488 -0.1717  0.3243 -0.3382
12305SOL    HW140799   1.787   0.279   0.552 -0.2260  0.7337 -0.5438
12305SOL    HW240800   1.947   0.258   0.535 -0.3600 -0.8295  0.0671
12306SOL     OW40801   4.224   2.783   4.168 -0.3195 -0.5197  0.1056
12306SOL    HW140802   4.291   2.738   4.109 -0.6883 -0.1607 -0.5851
12306SOL    HW240803   4.167   2.713   4.213 -0.8545 -0.7481 -0.9198
12307SOL     OW40804   8.028   2.190   0.324  0.1685  0.1274 -0.2159
12307SOL    HW140805   8.093   2.205   0.250 -0.2158 -0.2251 -0.6306
12307SOL    HW240806   8.002   2.278   0.365  0.3559  0.3239 -0.5199
12308SOL     OW40807   9.941   0.593   3.675  0.2130  0.5009  0.1038
12308SOL    HW140808   9.883   0.514   3.658  2.3402 -0.8418 -1.1036
12308SOL    HW240809   9.884   0.673   3.693 -1.9849 -0.8532 -0.6807
12309SOL     OW40810   9.733   2.461   2.787 -0.6502  0.2499 -0.1731
12309SOL    HW140811   9.819   2.462   2.736 -1.4841  0.1550 -1.6306
12309SOL    HW240812   9.657   2.452   2.722 -1.8282  1.7513  0.9636
12310SOL     OW40813   0.392   0.900   4.219 -0.5078 -0.3196  0.5391
12310SOL    HW140814   0.465   0.935   4.278 -1.6306  0.2435  1.6167
12310SOL    HW240815   0.399   0.801   4.213  1.4260 -0.1347 -0.8240
12311SOL     OW40816   7.138   2.214   5.970  0.1268  0.0913 -0.0756
12311SOL    HW140817   7.049   2.191   6.010  0.2074  1.3818  0.8648
12311SOL    HW240818   7.125   2.262   5.884 -0.0675 -0.7514 -0.5237
12312SOL     OW40819   1.490   3.482   2.503 -0.3694 -0.5654  0.4934
12312SOL    HW140820   1.517   3.422   2.579  0.5570 -0.3969  0.3000
12312SOL    HW240821   1.550   3.467   2.425 -1.1065 -0.4878 -0.0926
12313SOL     OW40822   4.891   8.263   4.225  1.0701 -0.0596 -0.0873
12313SOL    HW140823   4.973   8.232   4.274  1.6886 -0.6139 -1.4475
12313SOL    HW240824   4.899   8.240   4.128 -0.7421 -0.1952 -0.2315
12314SOL     OW40825   6.370   2.586   0.450 -0.2058 -0.0233 -0.2316
12314SOL    HW140826   6.465   2.580   0.421 -0.6023 -1.0896 -1.3258
12314SOL    HW240827   6.311   2.541   0.383 -1.7707  2.9777 -0.9625
12318SOL     OW40828   8.920   1.168   0.514 -0.0822  0.5291 -0.3298
12318SOL    HW140829   8.859   1.242   0.484 -1.1900 -0.3493 -0.2545
12318SOL    HW240830   8.921   1.097   0.444  1.7205  1.0326 -0.8325
12319SOL     OW40831   3.394   2.263   5.074  0.1050 -0.1584  0.2829
12319SOL    HW140832   3.321   2.215   5.122  0.0247 -0.5953 -0.2775
12319SOL    HW240833   3.355   2.336   5.018  0.0018 -0.9661 -0.7223
12320SOL     OW40834   1.390   4.677   1.776  0.1835 -0.3313  0.1239
12320SOL    HW140835   1.377   4.689   1.677  1.1046  0.2927  0.0698
12320SOL    HW240836   1.415   4.765   1.817  1.9524 -1.0135  0.5534
12321SOL     OW40837   2.697   0.045   5.128  0.1512  1.2072  0.2973
12321SOL    HW140838   2.712   0.082   5.036  2.7413 -0.5322 -0.0353
12321SOL    HW240839   2.651  -0.044   5.121  2.6245 -0.1175  0.5033
12323SOL     OW40840   0.426   7.330   4.543  0.1995  0.8041  0.5361
12323SOL    HW140841   0.386   7.278   4.467  0.5797 -0.1958  1.0112
12323SOL    HW240842   0.383   7.420   4.548 -0.3673  0.5934 -0.3914
12324SOL     OW40843   6.597   0.926   3.789 -0.7658 -0.4099 -0.0996
12324SOL    HW140844   6.613   0.850   3.853 -2.0470 -0.5822  0.0393
12324SOL    HW240845   6.684   0.962   3.757 -0.0872  0.1325  2.2937
12325SOL     OW40846   8.084   5.185   1.124 -0.1871  0.1949 -0.0726
12325SOL    HW140847   8.007   5.137   1.166 -0.4812 -0.0703 -0.9167
12325SOL    HW240848   8.150   5.118   1.089 -1.2796  0.3597 -2.5298
12326SOL     OW40849   0.518   9.573   2.581 -0.3635 -0.8059  0.6652
12326SOL    HW140850   0.584   9.558   2.654 -0.7131  1.0871  1.3982
12326SOL    HW240851   0.563   9.561   2.493  0.8767  0.0317  1.1622
12327SOL     OW40852   1.728   2.216   1.636  0.2892  0.2854 -0.6361
12327SOL    HW140853   1.793   2.245   1.565 -0.7259  0.4280 -1.5280
12327SOL    HW240854   1.775   2.160   1.703  1.6877  1.6803 -0.4032
12328SOL     OW40855   2.876   4.310   2.070 -0.3762  0.1010  0.2196
12328SOL    HW140856   2.859   4.401   2.109  0.7110  0.3624  0.1105
12328SOL    HW240857   2.795   4.279   2.020 -0.8839  0.8530  0.5790
12330SOL     OW40858   5.830   8.955   3.271  0.5733  0.3240 -0.3291
12330SOL    HW140859   5.796   8.877   3.324  3.4036 -0.7341 -0.0001
12330SOL    HW240860   5.774   8.965   3.188 -0.9775 -0.8742  0.5351
12331SOL     OW40861   2.565   1.160   3.595 -0.7245 -0.0672 -0.2924
12331SOL    HW140862   2.550   1.253   3.629  0.0615  0.0193 -0.1677
12331SOL    HW240863   2.499   1.140   3.523 -1.3077  0.3576  0.1238
12332SOL     OW40864   4.163   7.706   5.207  0.3224 -0.1204  0.4467
12332SOL    HW140865   4.257   7.698   5.240  1.3785  1.0181 -2.1287
12332SOL    HW240866   4.119   7.786   5.247  0.3877 -0.7024  1.7146
12333SOL     OW40867   6.946   8.985   4.312  0.2873  0.1872  0.1665
12333SOL    HW140868   6.910   8.900   4.349  2.1277 -0.9506 -0.5787
12333SOL    HW240869   6.876   9.056   4.317 -0.8085 -0.9903  2.0967
12335SOL     OW40870   0.217   0.818   5.814  0.6062  0.3240 -0.1951
12335SOL    HW140871   0.315   0.805   5.830  0.4988  0.2046  0.3798
12335SOL    HW240872   0.186   0.901   5.862  0.4631  0.4634 -0.5244
12336SOL     OW40873   5.532   0.346   2.093 -0.1141 -0.4031  0.5776
12336SOL    HW140874   5.526   0.329   2.191  0.1252  0.1725  0.6958
12336SOL    HW240875   5.471   0.421   2.068  0.2216 -0.1932  0.3779
12337SOL     OW40876   3.242   2.934   4.335  0.6328  0.4131 -0.0568
12337SOL    HW140877   3.144   2.952   4.348  0.5025  1.6287 -2.5638
12337SOL    HW240878   3.291   3.020   4.321  1.9643 -0.2553  0.3907
12338SOL     OW40879   0.082   9.124   0.915  0.0573  1.0344  0.2288
12338SOL    HW140880   0.101   9.084   1.005 -0.8341  0.3087  0.0997
12338SOL    HW240881   0.127   9.213   0.909  1.5271  0.3556  0.7643
12339SOL     OW40882   3.934   2.463   3.385  0.5552  0.0095  0.2842
12339SOL    HW140883   4.023   2.422   3.366  1.1459  1.7937 -0.8613
12339SOL    HW240884   3.862   2.395   3.369  1.5942 -0.9251 -0.4788
12340SOL     OW40885   2.454   7.684   4.002  0.0099  0.2028  0.4083
12340SOL    HW140886   2.416   7.776   4.012  0.8418  0.9052 -2.4265
12340SOL    HW240887   2.379   7.620   3.982 -0.3087  0.6592  0.1214
12342SOL     OW40888   9.279   1.740   0.791 -0.1627 -0.2224 -0.2920
12342SOL    HW140889   9.323   1.651   0.800  1.1598  0.4387 -0.0056
12342SOL    HW240890   9.348   1.812   0.799 -1.2812  0.8421 -0.0549
12343SOL     OW40891   8.402   0.855   6.182 -0.5169 -0.0772 -0.4077
12343SOL    HW140892   8.366   0.861   6.275 -0.5152  0.4453 -0.4391
12343SOL    HW240893   8.484   0.798   6.182  1.7379  3.0320  0.6076
12344SOL     OW40894   8.734   7.212   4.380 -0.5917  0.5982  0.6009
12344SOL    HW140895   8.719   7.161   4.295 -0.1342  0.0724  0.8262
12344SOL    HW240896   8.662   7.190   4.445 -0.0211 -0.2839  0.9361
12346SOL     OW40897   1.100   4.004   4.575  0.0555 -0.2607 -0.0685
12346SOL    HW140898   1.129   3.920   4.620 -1.2998 -0.3615  0.6476
12346SOL    HW240899   1.053   4.063   4.642 -0.0045  0.5661 -0.8258
12347SOL     OW40900   0.622   8.931   2.913  0.8065 -0.2476  0.5671
12347SOL    HW140901   0.545   8.901   2.857  1.1302  1.7108 -1.0134
12347SOL    HW240902   0.708   8.912   2.865  1.1173  0.9746  0.6212
12348SOL     OW40903   3.076   7.266   3.778  0.0694 -0.1190  0.1123
12348SOL    HW140904   2.985   7.307   3.778 -0.3891 -1.0983  1.1697
12348SOL    HW240905   3.097   7.231   3.869  2.6136  2.4713  0.5946
12349SOL     OW40906   3.754   7.903   2.638  0.6533  0.3193 -0.0257
12349SOL    HW140907   3.828   7.946   2.689  0.5741  0.5988 -0.1433
12349SOL    HW240908   3.676   7.966   2.633  0.2246 -0.1568  0.5124
12350SOL     OW40909   0.628   2.033   5.985  0.1871 -0.3824 -0.5574
12350SOL    HW140910   0.606   2.030   6.082 -1.5616  0.5267 -0.8939
12350SOL    HW240911   0.726   2.046   5.973  0.4557 -0.7661  1.0673
12351SOL     OW40912   5.003   1.709   3.954  0.4391  0.0789  0.8961
12351SOL    HW140913   4.989   1.764   3.871 -0.6340  1.3599  1.9111
12351SOL    HW240914   5.101   1.692   3.966  0.8683  2.4815  1.0202
12352SOL     OW40915   7.504   0.841   0.860  0.2337 -0.0395 -0.4741
12352SOL    HW140916   7.456   0.762   0.822  1.7109 -0.9086 -0.5324
12352SOL    HW240917   7.443   0.890   0.922 -0.6318 -1.3185 -0.2993
12353SOL     OW40918   9.033   5.367   1.527  0.4478  0.1322  0.2464
12353SOL    HW140919   9.125   5.379   1.565 -0.7480  1.7397  2.7690
12353SOL    HW240920   8.973   5.328   1.597 -0.3625 -2.8078 -1.9860
12354SOL     OW40921   3.456   2.435   4.398 -0.3065  0.8478  0.7851
12354SOL    HW140922   3.478   2.349   4.443  1.6095  0.3546 -0.9802
12354SOL    HW240923   3.451   2.509   4.466  1.0876 -0.1130  1.9620
12355SOL     OW40924   9.300   6.342   1.963  0.0156 -0.6463 -0.0277
12355SOL    HW140925   9.247   6.291   1.895 -0.3924  0.4707 -0.5624
12355SOL    HW240926   9.253   6.428   1.984  0.3383 -0.8046  1.3817
12356SOL     OW40927   3.024   8.973   5.674 -0.4220  0.0662  0.0364
12356SOL    HW140928   3.086   8.902   5.641 -0.2735  0.0117  0.4280
12356SOL    HW240929   3.068   9.024   5.748 -0.2762  0.9980 -0.6824
12359SOL     OW40930   3.437   7.058   0.822 -0.0473  0.2955 -0.4622
12359SOL    HW140931   3.370   6.986   0.807  1.6307 -0.9717 -2.0788
12359SOL    HW240932   3.517   7.021   0.869  0.5656  1.2408 -0.7290
12360SOL     OW40933   1.012   1.698   3.417  0.7458  0.1369 -0.7765
12360SOL    HW140934   1.103   1.671   3.450  1.2997  1.4875 -1.1740
12360SOL    HW240935   1.008   1.687   3.318 -0.1145 -1.5901 -0.5647
12364SOL     OW40936   7.520   2.586   2.622 -0.3608  0.0641  0.4665
12364SOL    HW140937   7.534   2.611   2.526  0.3234 -1.4474  0.1671
12364SOL    HW240938   7.586   2.517   2.649 -1.8519 -1.0051  1.4620
12365SOL     OW40939   1.620   7.545   5.244  0.1048 -0.2440  0.1233
12365SOL    HW140940   1.621   7.533   5.144  2.0253 -0.9029  0.2052
12365SOL    HW240941   1.570   7.629   5.266 -1.9313 -1.0306 -1.2669
12366SOL     OW40942   9.184   9.276   2.371  0.3495  0.2794 -0.2902
12366SOL    HW140943   9.088   9.296   2.350  0.3965  1.7405  0.8076
12366SOL    HW240944   9.201   9.293   2.468  1.6971 -0.0709 -0.4512
12367SOL     OW40945   3.636   2.565   1.325 -0.1365 -0.7537  0.2999
12367SOL    HW140946   3.689   2.627   1.269  0.6886 -0.5102  1.3454
12367SOL    HW240947   3.693   2.487   1.352 -1.7080 -3.0873 -2.7143
12368SOL     OW40948   8.538   9.491   4.568  0.4049  0.3938  0.3793
12368SOL    HW140949   8.546   9.584   4.532  0.0199  0.7853  1.2910
12368SOL    HW240950   8.610   9.475   4.636  0.8327 -0.1791 -0.1960
12369SOL     OW40951   1.519   4.939   5.737 -0.1290 -0.0605  0.3909
12369SOL    HW140952   1.475   5.011   5.791 -2.6669 -0.3059 -1.2766
12369SOL    HW240953   1.510   4.960   5.640 -1.0588 -2.7096 -0.1253
12371SOL     OW40954   3.495   0.808   2.457 -0.1287 -0.2234  0.1920
12371SOL    HW140955   3.579   0.859   2.471  0.2189 -0.4377 -1.0284
12371SOL    HW240956   3.418   0.872   2.453  0.0003 -0.0052  1.0355
12372SOL     OW40957   4.034   2.172   3.275 -0.5946  0.4772  0.3924
12372SOL    HW140958   4.011   2.139   3.183 -1.8082 -0.1063  0.8891
12372SOL    HW240959   3.950   2.192   3.325  0.0527  0.4294  1.5191
12373SOL     OW40960   4.008   1.560   4.067  0.1726 -0.1318  0.6648
12373SOL    HW140961   4.068   1.626   4.021  0.1801 -1.2960 -1.0036
12373SOL    HW240962   3.944   1.610   4.126  0.4965  1.3294 -0.1851
12374SOL     OW40963   2.374   3.298   1.154  0.2734  0.1608  0.1665
12374SOL    HW140964   2.339   3.217   1.200  4.0414 -0.0995  2.7956
12374SOL    HW240965   2.325   3.379   1.189  0.0261 -0.4738  1.3373
12375SOL     OW40966   7.878   9.638   2.536 -0.1709 -0.2548 -0.1853
12375SOL    HW140967   7.807   9.702   2.562 -0.6370 -1.5663  1.9151
12375SOL    HW240968   7.837   9.559   2.491 -0.0303 -0.8797  0.7689
12377SOL     OW40969   5.040   3.228   1.297 -0.1826 -0.6428 -0.1488
12377SOL    HW140970   5.029   3.287   1.377  0.5458 -0.1384 -0.4180
12377SOL    HW240971   5.122   3.256   1.246 -0.4186 -1.2201 -0.8459
12379SOL     OW40972   8.389   2.473   3.263 -0.3517 -0.1351  0.5339
12379SOL    HW140973   8.419   2.396   3.205 -0.7384 -0.2100  0.4304
12379SOL    HW240974   8.336   2.537   3.208  2.5501  1.8007 -0.1358
12380SOL     OW40975   2.159   2.358   5.008 -0.0494  0.6062  0.5322
12380SOL    HW140976   2.162   2.295   4.930  0.9617  0.8190  0.3861
12380SOL    HW240977   2.183   2.450   4.977  1.6116  0.4520  1.3264
12381SOL     OW40978   8.916   9.662   0.884 -0.1942 -0.6732 -0.4622
12381SOL    HW140979   8.847   9.602   0.924  0.3808 -1.4266 -0.5985
12381SOL    HW240980   8.995   9.608   0.856  0.5977  0.2381  0.0102
12382SOL     OW40981   7.683   2.054   2.113  0.3242  0.0035  0.2629
12382SOL    HW140982   7.692   2.095   2.204 -5.0545  0.6089  0.6615
12382SOL    HW240983   7.649   1.960   2.123 -1.4338  0.4724 -1.1357
12384SOL     OW40984   9.014   1.675   0.898 -0.1502  0.0628 -0.0729
12384SOL    HW140985   8.970   1.764   0.893 -2.4860 -1.1894 -2.9634
12384SOL    HW240986   9.107   1.682   0.862 -0.6164  1.1430 -1.0868
12385SOL     OW40987   2.529   9.938   1.699 -0.2606  0.0858 -0.5549
12385SOL    HW140988   2.481   9.855   1.727 -0.4927 -0.0413 -1.3493
12385SOL    HW240989   2.501   9.965   1.607  0.4365  0.5729 -0.6315
12388SOL     OW40990   2.015   3.816   3.148 -0.6129 -0.2135 -0.4426
12388SOL    HW140991   1.982   3.830   3.055 -0.1960  0.5971 -0.4739
12388SOL    HW240992   2.087   3.747   3.149  0.0273  0.4456 -0.8578
12389SOL     OW40993   4.184   8.387   0.273  0.3142 -0.1864  0.4776
12389SOL    HW140994   4.175   8.293   0.303 -0.9844 -0.1422  0.2378
12389SOL    HW240995   4.107   8.411   0.213  0.4062  1.1507  0.8772
12390SOL     OW40996   1.362   8.107   6.376  0.1921  0.3399  0.1912
12390SOL    HW140997   1.307   8.139   6.453 -0.9896 -0.6200 -0.2296
12390SOL    HW240998   1.455   8.143   6.384 -0.2015  1.1074  1.4941
12391SOL     OW40999   9.459   0.496   2.428  0.1059 -0.6833 -0.4812
12391SOL    HW141000   9.414   0.580   2.458  0.3451 -0.7104 -0.0443
12391SOL    HW241001   9.536   0.519   2.368 -0.4231 -0.6329 -1.1436
12392SOL     OW41002   2.071   5.017   2.374 -0.0385  0.5160 -0.0731
12392SOL    HW141003   1.980   5.056   2.360 -0.2908 -0.0946 -0.1327
12392SOL    HW241004   2.141   5.085   2.350 -0.4697  1.6252  1.6536
12393SOL     OW41005   3.847   5.909   0.041  0.2999  0.4341 -0.1124
12393SOL    HW141006   3.794   5.883   0.121  1.1008  0.6419  0.4939
12393SOL    HW241007   3.822   5.850  -0.036 -0.1840 -0.0305  0.3979
12394SOL     OW41008   3.094   4.957   6.013  0.4649  0.3610  0.1097
12394SOL    HW141009   3.010   5.012   6.012 -0.5993 -1.2538 -1.3963
12394SOL    HW241010   3.071   4.862   6.034  1.8570 -0.1888 -0.8188
12395SOL     OW41011   0.078   6.925   2.370  0.3603  0.1051 -0.2332
12395SOL    HW141012   0.104   7.007   2.318 -0.0329 -0.5863 -1.5546
12395SOL    HW241013   0.153   6.860   2.369  0.1921 -0.0873 -0.2927
12396SOL     OW41014   4.666   6.203   0.966  0.3361  0.0579  0.0355
12396SOL    HW141015   4.708   6.247   0.887  3.0616 -1.2454  0.7100
12396SOL    HW241016   4.682   6.104   0.962 -0.2066 -0.1221  1.8125
12397SOL     OW41017   8.731   9.490   4.750 -0.8339 -0.6254 -0.1576
12397SOL    HW141018   8.713   9.433   4.830  0.7612  0.4438  1.0062
12397SOL    HW241019   8.715   9.586   4.773 -2.1292 -0.4606 -1.6763
12398SOL     OW41020   0.218   9.823   6.162  0.0252  0.0092 -0.2984
12398SOL    HW141021   0.254   9.883   6.090 -0.5744 -1.2446 -1.6665
12398SOL    HW241022   0.170   9.879   6.230 -0.8890  1.0467 -1.7658
12400SOL     OW41023   0.271   8.863   3.168 -0.6419  0.0921  0.1007
12400SOL    HW141024   0.352   8.921   3.176 -1.0144  0.4218  1.5492
12400SOL    HW241025   0.223   8.884   3.083  1.1101 -0.5305 -1.0650
12401SOL     OW41026   3.032   2.070   4.599  0.0733 -0.6782 -0.5261
12401SOL    HW141027   2.971   2.140   4.635  2.1361  0.1241  1.6248
12401SOL    HW241028   2.985   2.016   4.530 -2.8530  0.2489  0.6685
12402SOL     OW41029   3.385   6.899   4.886 -0.0107  0.2229  0.1608
12402SOL    HW141030   3.437   6.984   4.879 -0.4334  0.6030  1.4384
12402SOL    HW241031   3.312   6.910   4.953 -2.1384 -0.1141 -2.0288
12404SOL     OW41032   2.551   9.299   1.141 -0.5519 -0.3605 -0.4354
12404SOL    HW141033   2.583   9.273   1.050 -2.6184 -1.7065 -0.8195
12404SOL    HW241034   2.613   9.261   1.210  0.8961  0.4766 -1.2545
12407SOL     OW41035   3.000   6.082   6.188  0.2847  0.1019 -0.2510
12407SOL    HW141036   2.988   6.036   6.100 -0.9867  0.8101 -0.4498
12407SOL    HW241037   3.015   6.014   6.260 -1.3371 -0.6255 -0.5858
12408SOL     OW41038   8.620   2.234   6.256 -0.0821 -0.1486  0.4397
12408SOL    HW141039   8.526   2.199   6.256  0.0842 -0.6030  0.3742
12408SOL    HW241040   8.647   2.256   6.350  0.0013 -0.7256  0.5569
12409SOL     OW41041   9.844   4.507   5.704 -0.6551 -0.0469 -0.2106
12409SOL    HW141042   9.939   4.538   5.698 -0.3069 -1.3744 -2.2647
12409SOL    HW241043   9.803   4.540   5.789  1.4758  0.9820  0.4545
12410SOL     OW41044   0.484   8.847   2.394 -0.3728 -0.7736  0.0728
12410SOL    HW141045   0.501   8.861   2.492  0.2602 -0.0879 -0.1276
12410SOL    HW241046   0.386   8.841   2.378 -0.7003  2.5074  0.3390
12411SOL     OW41047   2.139   6.948   5.550 -0.4690  0.5052  0.6234
12411SOL    HW141048   2.060   6.999   5.581 -0.3800 -0.0880  1.8524
12411SOL    HW241049   2.182   6.995   5.473 -1.3785  1.3781  0.6526
12413SOL     OW41050   1.440   0.949   0.559  0.1599 -0.1193  0.0901
12413SOL    HW141051   1.413   0.880   0.627 -0.0818 -0.0430  0.0712
12413SOL    HW241052   1.370   0.955   0.488 -0.1180  0.5877  0.4233
12414SOL     OW41053   9.468   5.862   1.221  0.0487  0.1391  0.4520
12414SOL    HW141054   9.383   5.869   1.169 -0.0324 -0.5131  0.4952
12414SOL    HW241055   9.540   5.825   1.163 -0.3025 -1.5473  1.0887
12416SOL     OW41056   9.573   5.941   3.977 -0.2803  0.2460 -0.4714
12416SOL    HW141057   9.548   5.912   3.885  0.3440  0.0332 -0.5756
12416SOL    HW241058   9.522   6.023   4.002 -1.9760 -0.8581 -0.2304
12417SOL     OW41059   4.956   3.373   6.184  0.2950  0.1030  0.7429
12417SOL    HW141060   4.877   3.400   6.238  1.6864  0.9555  2.3897
12417SOL    HW241061   4.992   3.453   6.135  0.2550 -0.2476  0.1282
12418SOL     OW41062   2.335   1.858   2.606  0.1679  0.8321 -0.0165
12418SOL    HW141063   2.257   1.799   2.584  2.1052 -0.6422 -3.1961
12418SOL    HW241064   2.310   1.954   2.590 -1.4174  0.5071  0.3837
12419SOL     OW41065   9.184   7.738   2.439  0.4333  0.0143  0.0259
12419SOL    HW141066   9.109   7.803   2.439 -1.5757 -2.2492  0.1394
12419SOL    HW241067   9.229   7.739   2.349 -0.9323  0.0286 -0.6594
12420SOL     OW41068   1.763   7.905   3.136  0.0997  0.1293 -0.1312
12420SOL    HW141069   1.664   7.894   3.145  0.2716 -1.4621  0.0152
12420SOL    HW241070   1.798   7.953   3.217 -0.3659 -0.6896  0.5771
12421SOL     OW41071   3.303   0.239   0.346 -0.3628  0.0007 -0.0922
12421SOL    HW141072   3.272   0.236   0.441 -0.5925 -1.6342 -0.1986
12421SOL    HW241073   3.391   0.192   0.339 -0.9881 -1.0721 -0.9088
12423SOL     OW41074   2.995   3.992   2.932  0.2860  0.4622 -0.4198
12423SOL    HW141075   2.971   4.079   2.890 -1.8547 -0.3725 -0.9769
12423SOL    HW241076   2.991   3.919   2.864  0.5715 -0.3086  0.3733
12424SOL     OW41077   8.460   9.962   5.713 -0.5483 -0.0202  0.3580
12424SOL    HW141078   8.515  10.032   5.760  0.3622 -1.4349  1.4429
12424SOL    HW241079   8.420  10.001   5.631  0.4903  1.6019  0.5964
12425SOL     OW41080   9.754   5.447   4.286 -0.1218 -0.6199 -0.1139
12425SOL    HW141081   9.657   5.455   4.307 -0.0321 -0.1342  0.1196
12425SOL    HW241082   9.770   5.468   4.189 -0.0088  1.2110  0.2779
12426SOL     OW41083   5.633   9.057   5.822  0.3035  0.1023  0.1150
12426SOL    HW141084   5.679   9.146   5.817 -1.4582  1.0611  0.7695
12426SOL    HW241085   5.679   8.993   5.761  0.7559  1.8405 -1.4077
12427SOL     OW41086   6.435   5.256   1.278 -0.1041 -0.3057 -0.2740
12427SOL    HW141087   6.461   5.227   1.186 -0.1370 -0.0849 -0.3553
12427SOL    HW241088   6.389   5.345   1.272 -0.2292 -0.3571 -0.0583
12428SOL     OW41089   7.727   8.260   3.760  0.2528  0.3419  0.5859
12428SOL    HW141090   7.653   8.193   3.751  0.2732  0.1955  1.4576
12428SOL    HW241091   7.759   8.261   3.855 -0.1028  1.9571  0.6997
12429SOL     OW41092   2.611   7.694   1.660  0.3606 -0.1538  0.4703
12429SOL    HW141093   2.669   7.775   1.654  1.6847 -1.0156  1.4190
12429SOL    HW241094   2.517   7.722   1.678  0.5885  1.2291 -0.4169
12430SOL     OW41095   2.372   4.698   5.250 -0.1895  0.4416 -0.1658
12430SOL    HW141096   2.458   4.736   5.215 -0.0976  0.1942 -0.2111
12430SOL    HW241097   2.384   4.672   5.346 -0.7132  1.9779  0.3285
12431SOL     OW41098   7.774   4.402   2.912 -0.6897  0.3636  0.5638
12431SOL    HW141099   7.687   4.384   2.865 -0.0157  1.7327 -1.2667
12431SOL    HW241100   7.828   4.318   2.914 -1.8318 -0.3755  1.2682
12432SOL     OW41101   8.315   4.285   2.699  0.1746  0.2037 -0.0960
12432SOL    HW141102   8.254   4.328   2.766  0.5886  0.6898 -0.0255
12432SOL    HW241103   8.286   4.191   2.683  0.4082 -0.1162  1.2226
12433SOL     OW41104   6.590   3.127   1.015  0.0855 -0.5250 -0.3495
12433SOL    HW141105   6.580   3.206   1.075  0.5794 -0.5982 -0.1649
12433SOL    HW241106   6.500   3.093   0.987 -0.1249  0.0510 -0.3633
12434SOL     OW41107   8.127   7.677   4.147  0.0027 -0.1386 -0.5491
12434SOL    HW141108   8.187   7.754   4.125 -0.9348  0.7129 -0.2034
12434SOL    HW241109   8.176   7.591   4.134  1.5316  0.5657  0.4355
12435SOL     OW41110   3.517   7.010   5.232 -0.6697 -0.2887 -0.5261
12435SOL    HW141111   3.562   6.927   5.198 -1.4467 -0.5578 -0.9107
12435SOL    HW241112   3.526   7.083   5.163 -0.9436 -0.3874 -0.6687
12436SOL     OW41113   2.686   5.509   1.532 -0.2734  0.3158  0.2613
12436SOL    HW141114   2.594   5.546   1.522 -0.5883 -0.2740  1.0144
12436SOL    HW241115   2.752   5.584   1.536 -0.6394  0.7220 -1.0246
12437SOL     OW41116   3.775   1.911   4.625 -0.0310  0.3397 -0.1091
12437SOL    HW141117   3.775   1.977   4.550 -2.1976  0.4339 -0.0406
12437SOL    HW241118   3.690   1.859   4.624  1.3383 -1.9687  0.2829
12439SOL     OW41119   0.083   2.037   1.560 -0.5714  0.4816  0.5298
12439SOL    HW141120   0.080   1.993   1.471 -1.3997  2.0719 -0.2375
12439SOL    HW241121   0.007   2.004   1.616 -1.1701  0.8965 -0.0315
12440SOL     OW41122   8.414   5.200   5.421  0.4339  1.0311 -0.0154
12440SOL    HW141123   8.397   5.118   5.366 -0.7626  0.3790  1.2691
12440SOL    HW241124   8.326   5.235   5.455  1.1396  1.4784  1.3657
12441SOL     OW41125   7.722   2.272   6.156  0.3856  0.5097  0.1996
12441SOL    HW141126   7.812   2.234   6.137  1.2905  1.7203  2.0048
12441SOL    HW241127   7.679   2.223   6.231  0.6235  1.5831  1.0502
12443SOL     OW41128   4.261   4.321   0.092 -0.4095  0.1071  0.1680
12443SOL    HW141129   4.292   4.249   0.154  1.5066 -1.6302 -2.6571
12443SOL    HW241130   4.331   4.393   0.086 -0.8266  0.5378  0.4390
12444SOL     OW41131   9.436   1.813   2.367  0.1626 -0.1855 -0.3792
12444SOL    HW141132   9.515   1.776   2.318  1.6824 -0.1437  1.9505
12444SOL    HW241133   9.437   1.913   2.361 -0.2782 -0.2245 -1.1744
12445SOL     OW41134   5.664   8.509   4.439 -0.0901  0.2216  0.1775
12445SOL    HW141135   5.593   8.554   4.493 -0.6945 -1.8526  1.1735
12445SOL    HW241136   5.629   8.491   4.347 -0.0824  1.1646 -0.0094
12446SOL     OW41137   4.487   6.497   1.876 -0.2407 -0.3252  0.0205
12446SOL    HW141138   4.403   6.478   1.927 -0.6204  1.5422  0.1322
12446SOL    HW241139   4.566   6.488   1.937 -0.5623  0.2365  0.5340
12447SOL     OW41140   3.980   9.117   5.701  0.4908 -0.5863 -0.2162
12447SOL    HW141141   3.978   9.099   5.603  0.7086  0.9071 -0.5051
12447SOL    HW241142   3.991   9.215   5.717 -2.0116 -0.4945  1.2901
12450SOL     OW41143   4.580   9.634   4.702 -0.3022  0.1365 -0.5563
12450SOL    HW141144   4.588   9.695   4.781 -0.8620  1.9369 -1.8664
12450SOL    HW241145   4.510   9.669   4.639  1.3454 -0.3034 -2.6993
12452SOL     OW41146   2.312   2.926   5.376  0.4297 -0.3084  0.1264
12452SOL    HW141147   2.349   2.990   5.443 -1.9062 -0.0062  1.1538
12452SOL    HW241148   2.367   2.843   5.376  2.1606  0.8061  0.3488
12453SOL     OW41149   9.232   4.488   3.543  0.2473 -0.0120 -0.3022
12453SOL    HW141150   9.182   4.427   3.604  0.2262  0.6666  0.3648
12453SOL    HW241151   9.267   4.566   3.595 -2.9697  2.5504 -1.7959
12454SOL     OW41152   3.160   6.320   0.672 -0.0351  0.2839  0.0498
12454SOL    HW141153   3.176   6.234   0.623  0.6766  0.0357  0.7028
12454SOL    HW241154   3.096   6.377   0.621  1.8033  0.6496 -1.9291
12455SOL     OW41155   2.609   8.494   4.894 -0.3310  0.1095 -0.0768
12455SOL    HW141156   2.611   8.581   4.845 -1.1076 -0.5785 -1.3619
12455SOL    HW241157   2.580   8.510   4.989  0.4960  1.3632 -0.0273
12456SOL     OW41158   9.094   6.872   0.350 -0.2679 -0.3010  0.1990
12456SOL    HW141159   9.042   6.835   0.427 -0.8806  1.2315  0.5501
12456SOL    HW241160   9.172   6.924   0.385  0.6422 -1.3279 -0.2846
12459SOL     OW41161   0.051   7.220   6.277 -0.2328  0.0720 -0.5418
12459SOL    HW141162   0.019   7.126   6.273  1.0870 -0.4561  0.8117
12459SOL    HW241163   0.135   7.228   6.222 -0.2210  0.4086 -0.4749
12460SOL     OW41164   7.972   5.832   4.806 -0.0800  0.3244 -0.1444
12460SOL    HW141165   8.068   5.838   4.779 -0.8765  0.5897 -3.0031
12460SOL    HW241166   7.938   5.924   4.827  0.3097  0.2135  1.0143
12461SOL     OW41167   9.949   3.447   3.345  0.3807  0.9416 -0.5691
12461SOL    HW141168  10.034   3.445   3.292  1.5050  2.6154  1.1507
12461SOL    HW241169   9.926   3.541   3.368 -0.2299  0.2631  1.7137
12463SOL     OW41170   0.395   3.532   4.559  0.4034 -0.2779  0.2000
12463SOL    HW141171   0.495   3.531   4.563  0.3959  0.2827  0.5815
12463SOL    HW241172   0.358   3.553   4.650 -0.0596 -0.4407  0.0492
12464SOL     OW41173   6.159   8.186   5.116  1.0369  0.4664 -0.1813
12464SOL    HW141174   6.154   8.285   5.108 -0.5660  0.5460  1.6396
12464SOL    HW241175   6.219   8.161   5.191  0.9235  0.0797 -0.2169
12465SOL     OW41176   4.028   4.616   0.801  0.3966  0.0514 -0.0632
12465SOL    HW141177   4.108   4.555   0.807  0.7825  0.6837  1.5873
12465SOL    HW241178   4.042   4.682   0.728  0.7417 -0.7518 -0.7351
12466SOL     OW41179   5.009   7.182   3.045  0.2012  0.1393  0.0410
12466SOL    HW141180   4.933   7.198   2.982 -0.3236 -1.3881  0.2554
12466SOL    HW241181   5.044   7.270   3.078  0.0815  0.9364 -1.8793
12467SOL     OW41182   0.017   3.813   2.179  0.1445 -0.4574  0.2419
12467SOL    HW141183   0.064   3.868   2.249 -0.9652 -1.5287  1.8749
12467SOL    HW241184  -0.023   3.874   2.110  4.0960  0.4511 -1.3553
12469SOL     OW41185   8.963   5.389   1.034 -0.1305  0.2063  0.3970
12469SOL    HW141186   8.907   5.308   1.051  2.3836 -2.1711 -2.2128
12469SOL    HW241187   9.047   5.384   1.088 -0.2745  1.4718  0.7664
12470SOL     OW41188   9.872   5.469   0.337 -0.0693  0.0274  0.3201
12470SOL    HW141189   9.903   5.405   0.267 -0.3734  0.3024 -0.0673
12470SOL    HW241190   9.872   5.424   0.426 -3.3876 -1.5280 -0.3858
12471SOL     OW41191   5.894   8.028   2.995  0.3718  0.2908 -0.7003
12471SOL    HW141192   5.980   8.076   3.015 -0.9343  1.6214  1.8907
12471SOL    HW241193   5.837   8.086   2.938 -1.1532  1.8711  2.3253
12474SOL     OW41194   1.172   3.599   4.964 -0.3374 -0.4165 -0.8724
12474SOL    HW141195   1.097   3.654   5.001  0.3686 -0.5715  0.8437
12474SOL    HW241196   1.225   3.560   5.039 -0.0418 -2.3762 -2.0763
12475SOL     OW41197   4.918   9.315   4.710  0.3419 -0.2600 -0.6353
12475SOL    HW141198   4.998   9.372   4.728  0.8063 -0.5993 -1.6221
12475SOL    HW241199   4.860   9.359   4.642  0.1385 -0.4428 -0.5808
12476SOL     OW41200   1.080   5.159   1.168 -0.0217  0.4160 -0.6369
12476SOL    HW141201   1.044   5.082   1.116  0.5969  0.8965 -1.7931
12476SOL    HW241202   1.114   5.229   1.105  2.8436  0.0224  0.3800
12477SOL     OW41203   7.940   8.441   1.075 -0.4366 -0.0813 -0.1537
12477SOL    HW141204   7.954   8.368   1.141 -1.9614 -1.7657 -1.6105
12477SOL    HW241205   8.024   8.494   1.065  0.2749 -0.7697  1.9500
12480SOL     OW41206   9.668   5.720   2.455 -0.1001  0.4770  0.5089
12480SOL    HW141207   9.648   5.745   2.550  0.4401 -1.5148  1.1666
12480SOL    HW241208   9.765   5.699   2.445 -0.4513 -0.9325 -0.0953
12481SOL     OW41209   9.547   2.279   5.766  0.5194 -0.3304  0.2739
12481SOL    HW141210   9.513   2.313   5.854 -0.5820 -2.3053  0.6280
12481SOL    HW241211   9.473   2.231   5.719  1.2118  0.3816 -1.5832
12482SOL     OW41212   4.420   1.656   4.240 -0.2675 -0.5507  0.0229
12482SOL    HW141213   4.413   1.701   4.151  1.4079  0.5158  0.4115
12482SOL    HW241214   4.357   1.699   4.305 -0.0480 -0.0219 -0.1181
12483SOL     OW41215   3.533   2.544   0.742 -0.0290  0.0764  0.7612
12483SOL    HW141216   3.511   2.641   0.739 -1.1663 -0.2030 -0.1974
12483SOL    HW241217   3.490   2.503   0.823 -2.6263 -0.3500 -0.7967
12484SOL     OW41218   7.582   0.597   4.046 -0.2221  0.1522 -0.4643
12484SOL    HW141219   7.549   0.574   3.954 -0.8080 -1.5390  0.1545
12484SOL    HW241220   7.681   0.611   4.043  0.0446 -1.6629 -1.0387
12485SOL     OW41221   7.257   4.587   1.835 -0.2745 -0.1371 -0.0967
12485SOL    HW141222   7.342   4.629   1.867 -0.8356 -0.1001  1.3887
12485SOL    HW241223   7.188   4.592   1.907 -2.3536  2.1083 -2.1434
12486SOL     OW41224   0.081   6.988   0.292 -0.1496 -0.3500  0.3082
12486SOL    HW141225   0.120   6.946   0.374  1.4796  2.1296  0.8602
12486SOL    HW241226  -0.010   7.023   0.312 -0.9221 -2.2744  0.2407
12487SOL     OW41227   0.541   3.867   1.121  0.6121  0.2952  0.3833
12487SOL    HW141228   0.600   3.947   1.131  1.6116 -0.1935 -1.3411
12487SOL    HW241229   0.596   3.784   1.117 -0.1200 -0.1181 -1.8767
12488SOL     OW41230   3.845   7.129   5.432 -0.1230 -0.2551  0.1302
12488SOL    HW141231   3.843   7.226   5.409  0.8330 -0.2186  0.1437
12488SOL    HW241232   3.793   7.112   5.515 -0.3240  0.2426  0.1007
12489SOL     OW41233   8.230   2.104   4.909  0.5279 -0.2484 -0.4506
12489SOL    HW141234   8.230   2.034   4.981 -0.0431 -0.4228 -0.6178
12489SOL    HW241235   8.325   2.124   4.882  0.7235 -0.4902  0.0473
12490SOL     OW41236   9.371   5.857   2.724 -0.0083 -0.6797 -0.1685
12490SOL    HW141237   9.315   5.806   2.659 -0.3004  0.7693 -1.0854
12490SOL    HW241238   9.326   5.859   2.813 -0.3968 -1.3102 -0.3539
12491SOL     OW41239   5.298   3.468   0.776  0.3104  0.2638  0.1833
12491SOL    HW141240   5.367   3.531   0.811  0.5512  0.0986  0.0064
12491SOL    HW241241   5.231   3.519   0.722  0.1316  0.4679  0.5976
12494SOL     OW41242   8.121   0.889   2.657 -0.0029 -0.2994 -0.1657
12494SOL    HW141243   8.093   0.975   2.613  2.5284  1.5105  1.6324
12494SOL    HW241244   8.166   0.830   2.589  0.4942  0.8667 -0.8694
12495SOL     OW41245   4.686   6.202   3.151 -0.0806  0.3570  0.0701
12495SOL    HW141246   4.588   6.211   3.169  0.3030  1.4037  1.7925
12495SOL    HW241247   4.725   6.293   3.138  0.5701 -0.0963 -1.1687
12496SOL     OW41248   6.445   2.806   4.440  0.1131  0.2830 -0.2071
12496SOL    HW141249   6.376   2.754   4.491  0.4867  1.6551  1.7638
12496SOL    HW241250   6.522   2.827   4.500  0.3281  2.4182 -1.1771
12497SOL     OW41251   0.805   3.093   5.587  0.1812  0.5070 -0.3182
12497SOL    HW141252   0.806   3.141   5.499  0.0635  0.2982 -0.4357
12497SOL    HW241253   0.894   3.104   5.632  0.1125  0.9276 -0.2916
12498SOL     OW41254   3.605   3.318   4.996 -0.2079  0.2324  0.0861
12498SOL    HW141255   3.513   3.279   4.991 -0.4472  0.8454 -0.5191
12498SOL    HW241256   3.609   3.400   4.939  1.4976 -1.3295 -2.1247
12499SOL     OW41257   9.860   7.873   1.434  0.2716  0.3733  0.0887
12499SOL    HW141258   9.864   7.832   1.343  0.3111 -0.4983  0.4778
12499SOL    HW241259   9.934   7.940   1.444  1.3687 -0.8268  0.1069
12500SOL     OW41260   1.167   7.485   1.035 -0.3731  0.3589  0.1119
12500SOL    HW141261   1.158   7.397   1.082 -2.0262  0.2456 -0.3764
12500SOL    HW241262   1.258   7.493   0.995  0.0095 -0.8453  0.7256
12502SOL     OW41263   9.373   2.814   4.132 -0.2528  0.1212 -0.1394
12502SOL    HW141264   9.447   2.751   4.110  0.7151  0.7537  1.2114
12502SOL    HW241265   9.295   2.763   4.169 -0.9096 -0.6546 -2.4530
12503SOL     OW41266   5.560   7.713   5.285 -0.0206  0.5375  0.2709
12503SOL    HW141267   5.580   7.782   5.216 -0.3590  0.5365  0.1700
12503SOL    HW241268   5.467   7.727   5.321 -0.3482 -0.2796 -0.2461
12504SOL     OW41269   5.425   1.462   6.024  0.2809 -0.0432 -0.4189
12504SOL    HW141270   5.481   1.404   5.965  0.0170 -0.2417 -0.4739
12504SOL    HW241271   5.485   1.512   6.087  0.5680  0.2583 -0.9320
12505SOL     OW41272   9.084   0.494   3.691  0.3683 -0.4991 -0.4080
12505SOL    HW141273   9.059   0.520   3.598  1.9128 -0.3844 -0.8025
12505SOL    HW241274   9.180   0.466   3.693  0.7218  0.7625  1.4112
12506SOL     OW41275   8.252   4.882   3.947 -0.2508 -0.0369  0.2616
12506SOL    HW141276   8.169   4.918   3.992 -0.1565  1.1597 -0.4987
12506SOL    HW241277   8.248   4.782   3.946 -0.7530 -0.0555  1.9889
12507SOL     OW41278   3.349   4.775   4.179  0.4572  0.2378 -0.4125
12507SOL    HW141279   3.270   4.806   4.126 -0.8798  1.3172  2.1177
12507SOL    HW241280   3.386   4.692   4.137 -2.7381 -0.9454 -1.0348
12508SOL     OW41281   9.045   0.518   1.902 -0.2970 -0.3543 -0.4574
12508SOL    HW141282   8.952   0.487   1.885  1.2055 -5.2170 -0.6465
12508SOL    HW241283   9.069   0.500   1.998  0.8432 -0.3751 -0.7391
12509SOL     OW41284   1.780   5.919   0.089 -0.1260  0.0103  0.4655
12509SOL    HW141285   1.790   5.993   0.022 -1.2765  0.1171  0.4046
12509SOL    HW241286   1.798   5.831   0.046  1.7870  0.2770  0.6622
12510SOL     OW41287   2.089   1.473   3.397 -0.1214  0.5783  0.0231
12510SOL    HW141288   2.034   1.475   3.481  1.5666 -0.5289  1.1929
12510SOL    HW241289   2.101   1.566   3.363 -1.8758  0.9251  0.3067
12511SOL     OW41290   9.019   0.773   1.777  0.4568 -0.1441 -0.0205
12511SOL    HW141291   9.029   0.681   1.814 -1.0817  0.2855  1.5310
12511SOL    HW241292   8.936   0.778   1.721 -0.0431  0.5415  0.7559
12512SOL     OW41293   8.431   7.117   6.051 -0.4890  0.0865  0.2040
12512SOL    HW141294   8.515   7.115   6.105 -0.2058 -3.1471 -0.2181
12512SOL    HW241295   8.402   7.211   6.036  2.9524  1.2462  0.5081
12513SOL     OW41296   1.566   1.089   4.902 -0.1931 -0.1632 -0.4395
12513SOL    HW141297   1.516   1.148   4.838 -0.7713 -0.8907 -0.6631
12513SOL    HW241298   1.518   1.002   4.912  0.9089 -0.7851 -0.4812
12514SOL     OW41299   4.365   2.390   5.134  0.7490  0.0451 -0.0403
12514SOL    HW141300   4.462   2.409   5.118  0.8859 -0.0827  0.6420
12514SOL    HW241301   4.315   2.476   5.141  0.8808  0.1148  0.0444
12517SOL     OW41302   2.287   2.035   4.548  0.1747 -0.0976  0.4079
12517SOL    HW141303   2.253   1.942   4.534  0.6016 -0.4418  1.6543
12517SOL    HW241304   2.381   2.032   4.582 -0.1301  0.7802  1.3467
12518SOL     OW41305   9.041   2.158   2.536 -0.5777  0.3645 -0.0715
12518SOL    HW141306   9.047   2.146   2.636 -0.1931  1.7353  0.0781
12518SOL    HW241307   9.015   2.071   2.494  1.2091 -0.7703  1.0548
12519SOL     OW41308   2.186   8.032   3.545 -0.4393  0.2029 -0.1047
12519SOL    HW141309   2.249   8.101   3.580 -1.4863  0.3026  1.6292
12519SOL    HW241310   2.098   8.074   3.522 -0.9162 -0.4602  0.4871
12520SOL     OW41311   5.541   1.527   3.339  0.6408  0.3677 -0.0833
12520SOL    HW141312   5.544   1.493   3.433  0.5483 -0.1024 -0.2486
12520SOL    HW241313   5.594   1.466   3.280  2.6070  1.8713  0.0382
12521SOL     OW41314   2.707   0.257   6.376  0.0270  0.1064  0.1553
12521SOL    HW141315   2.743   0.199   6.450 -1.0139  0.1337  0.6884
12521SOL    HW241316   2.649   0.203   6.317  0.6281  0.1560 -0.4854
12522SOL     OW41317   1.236   6.645   2.326 -0.1438  0.2999 -0.6688
12522SOL    HW141318   1.295   6.608   2.397 -0.7629  0.5870  0.0008
12522SOL    HW241319   1.288   6.657   2.242  0.5175 -0.3230 -0.3504
12524SOL     OW41320   1.240   7.711   2.800  0.3747  0.2648 -0.3150
12524SOL    HW141321   1.290   7.636   2.755 -0.3051 -0.7433  0.5816
12524SOL    HW241322   1.302   7.787   2.816  2.1245 -1.6110  2.3500
12525SOL     OW41323   4.227   1.793   3.430 -0.2299 -0.3392  0.2006
12525SOL    HW141324   4.272   1.773   3.343  0.2029  1.5291 -0.0375
12525SOL    HW241325   4.177   1.713   3.461 -0.2229 -1.1000 -1.6766
12526SOL     OW41326   8.042   8.277   1.338 -0.1238 -0.0963  0.3664
12526SOL    HW141327   7.961   8.301   1.392  0.0599 -1.1468  1.1345
12526SOL    HW241328   8.115   8.343   1.357 -1.0489  1.3577 -0.9785
12527SOL     OW41329   8.247   5.520   5.199  0.2439 -0.6318  0.9864
12527SOL    HW141330   8.179   5.566   5.142  0.0892 -1.4941  0.4666
12527SOL    HW241331   8.203   5.484   5.281  0.4445  0.5080  1.5929
12528SOL     OW41332   0.567   7.972   5.123 -0.3259 -0.2204 -0.0487
12528SOL    HW141333   0.537   8.062   5.092 -1.2790 -0.6165 -0.2687
12528SOL    HW241334   0.617   7.927   5.050 -0.9038 -0.3683 -0.3526
12529SOL     OW41335   5.264   2.517   0.588  0.0629  0.1048 -0.2396
12529SOL    HW141336   5.190   2.473   0.538 -0.4346 -1.8455  2.0897
12529SOL    HW241337   5.251   2.616   0.588 -1.9737 -0.1579 -0.7155
12531SOL     OW41338   8.135   8.088   3.102 -0.0700 -0.2648 -0.2641
12531SOL    HW141339   8.081   8.108   3.183 -0.1509 -0.0535 -0.3695
12531SOL    HW241340   8.075   8.083   3.022  0.1202  0.4099 -0.4500
12532SOL     OW41341   4.151   7.607   1.662  0.3949 -0.2139  0.3607
12532SOL    HW141342   4.126   7.511   1.656  2.0173 -0.6190 -0.1653
12532SOL    HW241343   4.079   7.663   1.621 -0.5711 -1.1916  0.7086
12533SOL     OW41344   8.461   7.205   5.233  0.2742 -0.6897  0.0222
12533SOL    HW141345   8.397   7.156   5.292  0.2214 -0.2435  0.3387
12533SOL    HW241346   8.437   7.189   5.137 -1.6697  1.2371  0.1423
12534SOL     OW41347   5.298   2.646   0.987 -0.7011  0.4845  0.4305
12534SOL    HW141348   5.376   2.702   0.960 -1.6386  2.6785  2.0945
12534SOL    HW241349   5.231   2.703   1.033 -2.2826 -1.8090  1.0545
12535SOL     OW41350   4.229   0.486   5.267  0.7653  0.0928  0.0058
12535SOL    HW141351   4.198   0.391   5.270  0.1859  0.1924 -2.3461
12535SOL    HW241352   4.174   0.538   5.202  1.4790  1.9106  0.8069
12539SOL     OW41353   9.848   2.834   0.163  0.1007 -0.0327 -0.1458
12539SOL    HW141354   9.843   2.933   0.174  0.6071 -0.1053  0.8259
12539SOL    HW241355   9.803   2.807   0.078 -0.1731  1.0138 -0.3363
12540SOL     OW41356   7.363   0.822   1.458  0.2234 -0.2405  0.1231
12540SOL    HW141357   7.379   0.816   1.360  0.5013 -0.0936  0.1596
12540SOL    HW241358   7.274   0.782   1.480  1.2126 -2.4691  0.1256
12541SOL     OW41359   7.395   6.250   5.986  1.0153 -0.5761  0.0051
12541SOL    HW141360   7.410   6.339   6.030 -2.3334  0.4449 -0.7145
12541SOL    HW241361   7.435   6.251   5.894  1.4517  0.0251  0.2002
12542SOL     OW41362   7.902   8.141   6.142 -0.2186 -0.5910  0.7501
12542SOL    HW141363   7.879   8.081   6.066 -1.6786  0.4723  0.3208
12542SOL    HW241364   7.990   8.185   6.124 -0.4999 -0.4387 -0.2795
12543SOL     OW41365   3.857   4.448   4.341  0.0327  0.8254 -0.6286
12543SOL    HW141366   3.895   4.485   4.425 -0.7472  0.5175 -0.1343
12543SOL    HW241367   3.920   4.379   4.304 -0.6379 -0.6383  0.8919
12545SOL     OW41368   0.395   7.406   0.746  0.4574 -0.3489 -0.6739
12545SOL    HW141369   0.390   7.501   0.715  0.9436 -0.7658 -2.0656
12545SOL    HW241370   0.490   7.383   0.767  0.3602 -0.5751 -0.4822
12547SOL     OW41371   1.958   3.957   5.490 -0.1383 -0.1143  0.9797
12547SOL    HW141372   1.998   3.945   5.400  0.9512 -0.1943  1.4692
12547SOL    HW241373   1.886   4.026   5.486  0.6307  0.6518  0.2679
12548SOL     OW41374   6.250   9.885   5.962  0.5589  0.1530 -0.2272
12548SOL    HW141375   6.319   9.831   6.010 -0.7117 -0.7129  0.6525
12548SOL    HW241376   6.202   9.828   5.895 -0.3283  0.3446  0.2341
12549SOL     OW41377   8.764   5.692   2.012  0.1990  0.7530 -0.1909
12549SOL    HW141378   8.819   5.776   2.017  0.7746  0.4743 -1.6967
12549SOL    HW241379   8.727   5.672   2.103  1.0600  1.9620  0.4509
12551SOL     OW41380   2.536   6.380   2.283  0.3414  0.1336 -0.0579
12551SOL    HW141381   2.592   6.299   2.266  0.2153  0.1695 -0.6582
12551SOL    HW241382   2.584   6.442   2.345  0.0404 -0.8285  1.1559
12552SOL     OW41383   2.458   1.317   1.970 -0.1050  0.2288 -0.3397
12552SOL    HW141384   2.440   1.414   1.989  0.0866  0.0480  0.8494
12552SOL    HW241385   2.476   1.304   1.873 -1.1660  1.2249 -0.6764
12553SOL     OW41386   1.189   8.510   3.189  0.4965 -0.0756 -1.0232
12553SOL    HW141387   1.217   8.588   3.245  0.6659 -1.0062  0.2234
12553SOL    HW241388   1.242   8.508   3.104  0.8137  0.8938 -0.8484
12554SOL     OW41389   3.160   7.203   0.333  0.6056  0.5429  0.2163
12554SOL    HW141390   3.095   7.220   0.407  0.5694 -0.0798  0.3267
12554SOL    HW241391   3.241   7.158   0.369 -0.2479 -1.5610 -0.4243
12557SOL     OW41392   1.592   0.719   2.283 -0.0565 -0.2417 -0.0521
12557SOL    HW141393   1.582   0.814   2.256 -0.3643 -0.6078 -1.2496
12557SOL    HW241394   1.531   0.699   2.360 -0.0814  0.4989  0.1161
12558SOL     OW41395   4.218   4.138   5.876  0.8721 -0.0029 -0.4078
12558SOL    HW141396   4.315   4.129   5.857  0.6028 -2.0563 -0.8509
12558SOL    HW241397   4.170   4.054   5.851 -1.2151  1.4283 -1.3904
12560SOL     OW41398   1.638   5.330   0.858  0.2252 -0.0624 -0.3079
12560SOL    HW141399   1.552   5.380   0.853  0.7283  0.8454 -0.0690
12560SOL    HW241400   1.621   5.232   0.844 -0.7609  0.1778 -0.8618
12561SOL     OW41401   3.688   4.628   4.310  0.4836 -0.0084  0.2238
12561SOL    HW141402   3.624   4.583   4.248  0.7498  0.4712 -0.4018
12561SOL    HW241403   3.759   4.563   4.337  1.7764  0.4325 -1.9348
12563SOL     OW41404   1.041   6.290   0.888 -0.2393  0.4862  0.7492
12563SOL    HW141405   0.997   6.327   0.970  0.5724  3.7484 -0.2038
12563SOL    HW241406   1.139   6.305   0.894  0.0980 -1.4479  0.2364
12564SOL     OW41407   6.928   3.082   5.212 -0.3722 -0.1299  0.5421
12564SOL    HW141408   6.850   3.119   5.261 -0.3305  0.0415  0.4781
12564SOL    HW241409   6.938   2.985   5.233 -0.4156 -0.0787  0.7906
12566SOL     OW41410   4.459   4.350   4.094  0.1099  0.1989  0.2714
12566SOL    HW141411   4.460   4.280   4.022  0.3846 -1.3914  1.7872
12566SOL    HW241412   4.464   4.441   4.052 -1.5454 -0.6192 -1.8014
12567SOL     OW41413   0.657   4.671   3.635 -0.0382  0.0525  0.4166
12567SOL    HW141414   0.604   4.742   3.680  0.9224  0.2254  1.2937
12567SOL    HW241415   0.734   4.713   3.586 -0.0336 -0.2987  0.1158
12568SOL     OW41416   9.703   3.718   3.248  0.1565 -0.1518 -0.9406
12568SOL    HW141417   9.800   3.737   3.267 -0.4673  0.1246  2.3214
12568SOL    HW241418   9.653   3.804   3.243 -0.6213 -0.3642  1.8961
12569SOL     OW41419   2.149   4.320   5.730 -0.1798 -0.4968  0.3305
12569SOL    HW141420   2.081   4.392   5.719 -0.2709 -0.4961  0.8752
12569SOL    HW241421   2.171   4.280   5.641 -0.4285 -0.0719  0.0802
12570SOL     OW41422   2.041   0.311   4.723  0.2961  0.3025  0.1516
12570SOL    HW141423   2.070   0.347   4.635  0.3562  1.2033  0.5225
12570SOL    HW241424   2.069   0.216   4.732 -0.1255  0.0720 -0.9855
12571SOL     OW41425   6.494   1.003   3.263 -0.2130  0.2296  0.5742
12571SOL    HW141426   6.456   1.000   3.170  1.3544  0.5048 -0.0845
12571SOL    HW241427   6.466   1.088   3.308  0.8060  1.1061 -0.4282
12572SOL     OW41428   2.632   1.363   4.020 -0.8476  0.4161 -0.0821
12572SOL    HW141429   2.635   1.268   4.052 -3.3134 -0.3399 -1.9209
12572SOL    HW241430   2.663   1.424   4.093 -0.0363 -1.7287  1.4116
12573SOL     OW41431   8.438   4.095   2.435 -0.1384 -0.8109  0.5684
12573SOL    HW141432   8.415   4.005   2.399 -1.2752 -1.1015  1.9810
12573SOL    HW241433   8.474   4.086   2.528  2.2838 -0.0174 -0.2428
12574SOL     OW41434   3.524   8.502   5.061 -0.4286 -0.0269  0.1650
12574SOL    HW141435   3.572   8.588   5.047 -0.0506  0.1718  2.5073
12574SOL    HW241436   3.430   8.510   5.029 -0.0253  0.8296 -0.8211
12575SOL     OW41437   8.701   7.121   6.271  0.5758  0.1606  0.0932
12575SOL    HW141438   8.697   7.052   6.198 -0.7266  0.4223 -0.1009
12575SOL    HW241439   8.748   7.083   6.351  2.0816 -0.1099 -0.8957
12576SOL     OW41440   5.145   0.990   1.692 -0.4278  0.0821  0.3508
12576SOL    HW141441   5.224   1.030   1.647 -0.0881 -0.7953  0.1572
12576SOL    HW241442   5.167   0.972   1.788 -0.2972 -0.4149  0.2294
12577SOL     OW41443   4.463   2.155   5.913 -0.0704 -0.4555 -0.1037
12577SOL    HW141444   4.498   2.111   5.995 -0.6438  1.3137  1.1121
12577SOL    HW241445   4.363   2.157   5.916 -0.0470  1.3668  0.1276
12579SOL     OW41446   0.615   6.679   1.180  0.2427 -0.0885 -0.4951
12579SOL    HW141447   0.596   6.617   1.257 -2.0369 -1.2869 -1.9853
12579SOL    HW241448   0.530   6.717   1.145  1.3807  1.5685 -1.5387
12580SOL     OW41449   9.750   8.260   5.710  0.5366 -0.0469 -0.0646
12580SOL    HW141450   9.810   8.193   5.754 -0.6210 -1.4423 -0.5763
12580SOL    HW241451   9.789   8.286   5.622  0.6967 -0.4970 -0.1281
12581SOL     OW41452   1.724   2.087   3.750 -1.0448 -0.2065 -0.5960
12581SOL    HW141453   1.723   2.102   3.849  0.4830  1.0673 -0.7612
12581SOL    HW241454   1.632   2.064   3.719 -1.7048  0.2638  0.9859
12582SOL     OW41455   2.758   8.266   1.944 -0.6067 -0.5498  0.3250
12582SOL    HW141456   2.829   8.237   2.008 -0.5113 -2.9356 -0.7946
12582SOL    HW241457   2.681   8.304   1.995  1.5260  2.3498  1.5533
12584SOL     OW41458   2.496   2.171   2.316  0.1306  0.1395 -0.2692
12584SOL    HW141459   2.581   2.184   2.266 -0.5825  1.0919 -1.2584
12584SOL    HW241460   2.491   2.076   2.349  2.7171  0.7070  1.9957
12585SOL     OW41461   7.133   1.074   4.246 -0.7883  0.4803  0.3706
12585SOL    HW141462   7.167   1.168   4.240  2.6467 -0.7158 -0.1309
12585SOL    HW241463   7.149   1.038   4.338  2.7417 -1.2434 -0.8031
12586SOL     OW41464   4.006   9.462   3.031 -0.7633  0.2128  0.3200
12586SOL    HW141465   3.965   9.496   2.946  0.7878 -0.4381 -0.7259
12586SOL    HW241466   4.090   9.514   3.049  0.3206 -1.4075  0.0253
12588SOL     OW41467   1.087   0.802   1.778  0.3670 -0.3744 -0.3927
12588SOL    HW141468   0.989   0.812   1.761  0.2415 -0.0104  0.5568
12588SOL    HW241469   1.107   0.706   1.800 -0.0498 -0.0996  1.2040
12589SOL     OW41470   4.780   9.477   5.993 -0.1508 -0.3995  0.1896
12589SOL    HW141471   4.737   9.388   5.972  0.6891 -1.8479  4.1790
12589SOL    HW241472   4.878   9.471   5.975  0.0964 -0.6999  1.5773
12590SOL     OW41473   0.840   9.780   2.825 -0.6784 -0.1549 -0.1737
12590SOL    HW141474   0.921   9.800   2.880 -1.0639  1.5233 -0.2168
12590SOL    HW241475   0.801   9.693   2.855  1.2155 -1.0648 -0.2545
12592SOL     OW41476   6.995   0.879   2.405 -0.2536 -0.7484  0.2270
12592SOL    HW141477   6.968   0.874   2.501  0.1961  0.0130  0.4038
12592SOL    HW241478   7.087   0.919   2.399 -0.8423  0.5143 -0.5973
12593SOL     OW41479   7.838   2.246   1.162 -0.1813 -0.4289  0.7500
12593SOL    HW141480   7.806   2.341   1.163  1.1638  0.0491  0.1284
12593SOL    HW241481   7.878   2.224   1.251 -0.4390 -0.3969  0.8751
12594SOL     OW41482   5.599   1.475   1.479 -0.2326  0.3208  0.2081
12594SOL    HW141483   5.515   1.515   1.516 -1.2822 -0.2951 -1.4241
12594SOL    HW241484   5.577   1.388   1.433  1.6027 -0.8511  1.4577
12595SOL     OW41485   4.307   9.410   1.732 -0.3759 -0.3115  0.4101
12595SOL    HW141486   4.363   9.490   1.710 -3.7510  1.8524 -0.7774
12595SOL    HW241487   4.255   9.428   1.816  1.0149 -2.4677  1.7711
12596SOL     OW41488   7.489   0.234   2.109 -0.3222  0.0210  0.0856
12596SOL    HW141489   7.465   0.249   2.013  2.2931  0.0230 -0.6120
12596SOL    HW241490   7.444   0.304   2.166 -1.4427  0.3568 -1.1905
12597SOL     OW41491   9.679   4.506   2.288  0.1533 -0.1361 -0.1648
12597SOL    HW141492   9.599   4.449   2.268  0.0441  0.4846 -1.5427
12597SOL    HW241493   9.762   4.455   2.265  0.0974 -0.1490 -0.3388
12598SOL     OW41494   8.433   8.123   0.840 -0.0254 -0.6178 -0.0181
12598SOL    HW141495   8.488   8.202   0.812  0.9990 -0.6539  1.8516
12598SOL    HW241496   8.371   8.150   0.913 -0.2423 -1.3664  0.0810
12599SOL     OW41497   3.514   2.271   5.807 -0.0154  0.1344 -0.0573
12599SOL    HW141498   3.478   2.236   5.893  0.7309 -1.4974 -0.3878
12599SOL    HW241499   3.540   2.367   5.818 -1.1512  0.3067  1.1542
12600SOL     OW41500   1.852   2.677   0.911 -0.0239 -0.5348 -0.0240
12600SOL    HW141501   1.757   2.674   0.941 -0.2914 -1.1481 -0.8952
12600SOL    HW241502   1.873   2.769   0.876 -0.7835 -0.8339 -1.3215
12601SOL     OW41503   8.133   8.327   3.865  0.6640 -0.2618  0.1261
12601SOL    HW141504   8.112   8.303   3.960  0.0846 -1.3311 -0.2691
12601SOL    HW241505   8.195   8.258   3.826 -1.8991 -1.7988 -1.3700
12604SOL     OW41506   3.465   4.873   5.765 -0.2790  0.1772  0.2379
12604SOL    HW141507   3.563   4.890   5.751 -0.1962  0.5822  1.3178
12604SOL    HW241508   3.443   4.882   5.861 -2.0441  3.5201 -0.4282
12605SOL     OW41509   7.894   2.325   1.860  0.0637 -0.4390  0.4239
12605SOL    HW141510   7.799   2.302   1.884 -0.1835  0.7634  0.6428
12605SOL    HW241511   7.924   2.267   1.785 -1.7958  1.0019 -1.4832
12606SOL     OW41512   0.838   4.370   2.103 -0.1003  0.7280 -0.6176
12606SOL    HW141513   0.774   4.294   2.106 -1.4387  1.8162 -0.8800
12606SOL    HW241514   0.891   4.373   2.188  0.9254 -1.2687 -1.1443
12607SOL     OW41515   1.695   7.754   1.421  0.2229  0.9305 -0.1724
12607SOL    HW141516   1.607   7.802   1.423 -0.4383 -0.2358 -1.0261
12607SOL    HW241517   1.761   7.804   1.477 -0.9833  1.8158  0.4817
12608SOL     OW41518   0.882   8.699   5.652  0.1051  0.1304 -0.0295
12608SOL    HW141519   0.831   8.753   5.719 -0.2485 -0.2434  0.0039
12608SOL    HW241520   0.975   8.683   5.686 -0.0326  0.0491  0.3107
12609SOL     OW41521   4.601   7.734   3.282  0.0989  0.1366  0.0550
12609SOL    HW141522   4.672   7.663   3.280  1.6430  1.6151  0.7514
12609SOL    HW241523   4.530   7.712   3.215  0.7411 -1.8560 -0.0122
12611SOL     OW41524   1.719   3.909   0.858  0.4329 -0.0229  0.0454
12611SOL    HW141525   1.660   3.900   0.777  1.5438 -1.5765 -0.6270
12611SOL    HW241526   1.814   3.893   0.831  0.7658 -0.9562  1.7248
12612SOL     OW41527   1.834   3.057   5.761  0.3085 -0.3264  0.3566
12612SOL    HW141528   1.902   3.052   5.688  0.4861  0.4158  0.4675
12612SOL    HW241529   1.756   2.998   5.738  0.7194 -0.7185 -0.0494
12613SOL     OW41530   2.220   5.108   2.846 -0.3717  0.1682  0.5059
12613SOL    HW141531   2.304   5.160   2.861 -0.7953  1.2674 -0.8073
12613SOL    HW241532   2.240   5.010   2.851  1.4285  0.3624 -1.8768
12615SOL     OW41533   8.684   2.760   0.925 -0.6926 -0.1325 -0.1423
12615SOL    HW141534   8.744   2.755   1.005  0.7715 -0.0744 -1.2109
12615SOL    HW241535   8.715   2.695   0.856 -3.1320 -1.6101  0.0909
12617SOL     OW41536   3.170   7.868   2.183  0.0135 -0.2509 -0.1446
12617SOL    HW141537   3.086   7.830   2.222 -0.2333  0.2429 -0.1809
12617SOL    HW241538   3.242   7.867   2.252 -0.2128 -0.0667  0.0988
12620SOL     OW41539   3.072   6.942   4.220  0.3334  0.3785 -0.2505
12620SOL    HW141540   3.125   6.950   4.304 -1.0222  1.3454  0.5270
12620SOL    HW241541   3.068   6.846   4.192 -1.6367 -0.3507  2.3947
12621SOL     OW41542   2.008   3.369   6.001 -0.0686  0.2926  0.1191
12621SOL    HW141543   2.024   3.423   5.918 -0.3334  1.0137  0.5267
12621SOL    HW241544   2.088   3.313   6.021  0.0990  0.3138 -0.4732
12622SOL     OW41545   8.421   9.084   5.138  0.7847 -0.1500  0.0535
12622SOL    HW141546   8.424   9.022   5.059  1.3943 -1.1998  0.8863
12622SOL    HW241547   8.422   9.178   5.106 -0.7464 -0.5533 -1.2657
12623SOL     OW41548   9.967   7.845   5.066 -0.5675  0.1215  0.1820
12623SOL    HW141549   9.933   7.930   5.106  2.1513  1.0618  0.6378
12623SOL    HW241550   9.898   7.773   5.074 -2.4094  1.9549  0.9515
12624SOL     OW41551   2.524   1.908   2.426 -0.1228 -0.0614  0.3784
12624SOL    HW141552   2.616   1.873   2.439 -1.1950 -2.9942  0.5053
12624SOL    HW241553   2.462   1.865   2.492 -2.3722 -1.5384 -2.5575
12625SOL     OW41554   2.289   4.961   1.399 -0.2734  0.6094  0.2223
12625SOL    HW141555   2.278   4.887   1.467 -3.2491 -1.4549 -2.3633
12625SOL    HW241556   2.263   5.048   1.441  1.9185  0.0623  2.9139
12626SOL     OW41557   4.036   6.538   1.808  0.2252  0.1026 -0.2501
12626SOL    HW141558   4.001   6.627   1.778 -0.4766  0.1799  0.7879
12626SOL    HW241559   3.962   6.471   1.810  0.1105  0.2755  1.9813
12627SOL     OW41560   2.524   7.821   2.907  0.2065 -0.5806 -0.4084
12627SOL    HW141561   2.577   7.745   2.945  1.5374  0.1777 -0.7140
12627SOL    HW241562   2.487   7.876   2.982  1.4333 -0.0355 -0.1953
12628SOL     OW41563   0.151   4.626   3.455  0.0219 -0.4468 -0.4973
12628SOL    HW141564   0.129   4.586   3.544 -1.8115 -2.0495 -1.6222
12628SOL    HW241565   0.243   4.599   3.428  0.2697 -0.6422  0.5114
12629SOL     OW41566   7.562   6.390   3.404  0.1796  0.4195 -0.8194
12629SOL    HW141567   7.662   6.393   3.404  0.2674 -1.5762  0.0177
12629SOL    HW241568   7.529   6.362   3.494 -1.0353 -0.8785 -1.6459
12630SOL     OW41569   2.660   0.392   5.778 -0.1521 -0.6961 -0.0876
12630SOL    HW141570   2.709   0.374   5.863  0.5847 -0.0552 -0.3689
12630SOL    HW241571   2.697   0.475   5.736 -1.8417  0.1011 -0.0324
12632SOL     OW41572   2.086   2.259   3.299 -0.7449 -0.5222  0.0855
12632SOL    HW141573   2.092   2.185   3.367 -2.8736 -1.2539 -0.5016
12632SOL    HW241574   2.152   2.242   3.226  0.9460 -0.1914  1.4794
12633SOL     OW41575   5.302   8.445   2.759 -0.1977  0.2063 -0.8050
12633SOL    HW141576   5.353   8.531   2.768 -0.4994  0.3101 -0.0193
12633SOL    HW241577   5.363   8.374   2.725  0.0512  0.7369 -1.4726
12634SOL     OW41578   8.105   3.199   5.476 -0.0938 -0.7847  0.0834
12634SOL    HW141579   8.038   3.253   5.526 -0.5489  0.1087 -1.4936
12634SOL    HW241580   8.190   3.195   5.529  0.8106  3.5536 -0.8809
12635SOL     OW41581   7.952   7.754   3.582  0.2123  0.2169  0.9502
12635SOL    HW141582   8.045   7.745   3.618  0.8050 -2.6371 -1.1251
12635SOL    HW241583   7.954   7.815   3.503 -0.1387  2.1031  2.3672
12636SOL     OW41584   3.773   3.364   3.065  0.1293 -0.4893 -0.2694
12636SOL    HW141585   3.765   3.454   3.107 -0.0146 -0.8362  0.4456
12636SOL    HW241586   3.869   3.349   3.038 -0.1337  0.5111 -1.8296
12637SOL     OW41587   8.126   9.446   5.353  0.1356 -0.0946  0.1269
12637SOL    HW141588   8.108   9.487   5.442 -0.4922  0.6741 -0.3418
12637SOL    HW241589   8.164   9.515   5.292 -0.8811 -0.2051 -0.6539
12639SOL     OW41590   2.094   6.291   5.015 -0.0715  0.5384 -0.3099
12639SOL    HW141591   2.129   6.310   5.107 -0.9948 -0.9796  0.3656
12639SOL    HW241592   2.159   6.234   4.965  0.7188  1.8734 -0.8386
12641SOL     OW41593   5.368   1.210   2.155  0.3139 -0.0609  0.7336
12641SOL    HW141594   5.280   1.241   2.120  0.6002 -1.1776 -1.0260
12641SOL    HW241595   5.442   1.247   2.098  0.8929 -0.3427  1.2920
12642SOL     OW41596   7.285   8.716   5.099  0.1073  0.3724 -0.4254
12642SOL    HW141597   7.317   8.805   5.068 -3.3320  1.8207 -0.0373
12642SOL    HW241598   7.270   8.656   5.020  1.7811  0.3179 -0.7272
12643SOL     OW41599   9.103   3.330   4.996  0.7303  0.2499 -0.2972
12643SOL    HW141600   9.165   3.388   4.943  0.1901 -0.7101 -1.9807
12643SOL    HW241601   9.012   3.370   4.997  0.5296 -0.1974 -0.8419
12645SOL     OW41602   0.599   4.935   4.708 -0.1489  0.1221 -0.2667
12645SOL    HW141603   0.641   4.844   4.704 -1.5070 -0.5526  0.5380
12645SOL    HW241604   0.584   4.961   4.803 -0.8907  0.6783 -0.5329
12647SOL     OW41605   3.580   2.591   2.382 -0.0951  0.1960  0.3052
12647SOL    HW141606   3.557   2.539   2.464 -1.1075 -0.5158 -0.4232
12647SOL    HW241607   3.612   2.528   2.311  0.9820  0.8332  0.2134
12649SOL     OW41608   8.207   2.089   1.944 -0.1020  0.5580  0.4815
12649SOL    HW141609   8.238   2.166   1.887  1.1210 -0.5761 -0.4353
12649SOL    HW241610   8.279   2.019   1.946 -1.1279 -0.4777  1.4639
12650SOL     OW41611   6.612   2.638   0.320 -0.3852 -0.6006  0.6369
12650SOL    HW141612   6.690   2.688   0.359 -0.1252 -0.8102  0.3864
12650SOL    HW241613   6.644   2.582   0.244 -0.9809  0.1907 -0.2104
12651SOL     OW41614   0.992   2.794   5.903 -0.1629  0.3117  0.4782
12651SOL    HW141615   0.969   2.763   5.811 -2.3502  2.0937  0.3783
12651SOL    HW241616   0.923   2.760   5.968 -1.5081  3.1920  0.6462
12652SOL     OW41617   7.398   6.619   3.339 -0.1346  0.4782  0.3562
12652SOL    HW141618   7.358   6.632   3.248 -1.3449  0.8408  0.9234
12652SOL    HW241619   7.447   6.532   3.341 -0.9731 -0.0334 -0.3515
12653SOL     OW41620   4.031   4.692   3.807 -0.8683  0.0477  0.5252
12653SOL    HW141621   4.066   4.736   3.889 -0.4557  0.8793 -0.0847
12653SOL    HW241622   4.024   4.760   3.733 -1.4156 -0.6427 -0.0693
12654SOL     OW41623   4.475   2.462   4.274 -0.3830  0.0836  0.0488
12654SOL    HW141624   4.499   2.503   4.186 -1.4092  0.2568 -0.1607
12654SOL    HW241625   4.459   2.534   4.341  0.1083 -0.0413  0.3025
12655SOL     OW41626   2.014   6.452   5.668 -0.4315 -0.3323 -0.0120
12655SOL    HW141627   1.923   6.428   5.703 -0.0819  2.3512  2.8924
12655SOL    HW241628   2.011   6.542   5.625  0.8107 -0.3681 -0.1954
12657SOL     OW41629   0.108   9.753   4.247 -0.2669 -0.6834 -0.1594
12657SOL    HW141630   0.075   9.828   4.189 -0.9480  0.7048  1.9603
12657SOL    HW241631   0.088   9.666   4.203  0.1282  0.3551 -2.4621
12659SOL     OW41632   3.700   4.761   3.552  0.1301 -0.1684 -0.1887
12659SOL    HW141633   3.783   4.719   3.517  0.7602 -0.1831  1.3041
12659SOL    HW241634   3.629   4.691   3.564 -0.7265  0.1093 -3.1675
12660SOL     OW41635   3.290   1.915   5.025 -0.3324 -0.1107 -0.3747
12660SOL    HW141636   3.262   1.840   5.085  1.7089 -0.2762  0.3918
12660SOL    HW241637   3.228   1.918   4.946 -0.4205 -2.6645 -0.4654
12661SOL     OW41638   0.113   6.327   1.453 -1.0579  0.3257  0.1771
12661SOL    HW141639   0.079   6.399   1.515  0.4506 -0.9465  2.5655
12661SOL    HW241640   0.167   6.368   1.380  0.1368  1.6181  1.7544
12663SOL     OW41641   1.848   6.887   3.674 -0.1465 -0.0214 -0.1832
12663SOL    HW141642   1.840   6.969   3.731 -0.0074 -0.0735 -0.0891
12663SOL    HW241643   1.781   6.819   3.703  0.7647 -0.5410  0.7444
12664SOL     OW41644   8.868   3.131   2.190 -0.5755 -0.8760 -0.6580
12664SOL    HW141645   8.958   3.174   2.200 -0.2193 -0.7559 -3.6772
12664SOL    HW241646   8.804   3.172   2.255  0.6594  1.7002 -0.9726
12665SOL     OW41647   1.000   6.889   4.120  0.4877 -0.1425  0.1098
12665SOL    HW141648   1.050   6.888   4.033  0.3900 -0.3099  0.0557
12665SOL    HW241649   1.045   6.952   4.183  0.5601 -0.0197 -0.0623
12666SOL     OW41650   9.772   9.097   6.265 -0.1584 -0.1566 -0.3612
12666SOL    HW141651   9.693   9.134   6.314 -0.9800 -0.9612 -1.0440
12666SOL    HW241652   9.845   9.076   6.330 -0.1139  1.5443  0.1620
12667SOL     OW41653   0.803   7.520   2.612  0.0220 -0.6731  0.0403
12667SOL    HW141654   0.777   7.603   2.661  0.3046 -0.7643  0.3406
12667SOL    HW241655   0.729   7.494   2.550 -0.2450 -0.4420  0.2625
12668SOL     OW41656   4.163   1.305   0.089  0.6638  0.0926  0.1842
12668SOL    HW141657   4.123   1.377   0.033  1.6411  0.1700 -0.4250
12668SOL    HW241658   4.237   1.343   0.145 -0.6043  0.1157  1.8844
12669SOL     OW41659   3.082   6.975   0.597 -0.1053  0.3421 -0.4111
12669SOL    HW141660   3.096   6.933   0.507  1.3718 -1.6776  0.7194
12669SOL    HW241661   3.003   6.933   0.641  1.6888 -1.7102  0.9381
12671SOL     OW41662   2.931   0.476   1.655  0.3600  0.4943 -0.1720
12671SOL    HW141663   2.834   0.493   1.638  0.0281 -0.1515  1.0315
12671SOL    HW241664   2.956   0.386   1.619 -0.2185 -0.6465  2.1990
12672SOL     OW41665   1.204   2.547   5.924 -0.2119  0.0069 -0.8287
12672SOL    HW141666   1.252   2.625   5.964 -0.6534  0.5317 -1.2955
12672SOL    HW241667   1.162   2.575   5.838  0.1582 -0.9258 -1.3184
12673SOL     OW41668   4.434   8.959   2.078  0.1632  0.4456  0.2386
12673SOL    HW141669   4.510   8.895   2.092  0.1697  0.4426  0.1893
12673SOL    HW241670   4.392   8.943   1.989  0.2112  0.5583  0.1952
12674SOL     OW41671   2.835   4.030   6.124  0.1006  0.5100 -0.2983
12674SOL    HW141672   2.865   3.968   6.197 -0.2380 -0.4552 -0.9686
12674SOL    HW241673   2.898   4.108   6.119  0.9252 -0.1177  0.1112
12675SOL     OW41674   9.083   9.504   4.307  0.2021 -0.1169 -0.4907
12675SOL    HW141675   9.039   9.555   4.234 -2.5367 -2.5859 -0.6559
12675SOL    HW241676   9.120   9.419   4.270 -2.1381 -1.8882  1.1033
12676SOL     OW41677   1.296   7.990   1.155  0.2901  0.4221 -0.6906
12676SOL    HW141678   1.214   7.945   1.120 -0.2122  0.5461  0.3365
12676SOL    HW241679   1.342   7.931   1.221  1.3846  0.0847 -1.7161
12677SOL     OW41680   8.919   5.949   3.840 -0.3899  0.3186  0.1939
12677SOL    HW141681   8.959   5.980   3.754  0.3913 -0.7902  0.1418
12677SOL    HW241682   8.989   5.946   3.910 -1.4478  3.2008  1.4375
12678SOL     OW41683   0.121   0.055   6.292  0.1521  0.3591  0.0850
12678SOL    HW141684   0.091   0.080   6.384  1.3046  0.7014  0.3719
12678SOL    HW241685   0.209   0.097   6.273  1.4484 -2.2815  0.0467
12679SOL     OW41686   4.376   4.768   1.372  1.0364 -0.0534  0.3296
12679SOL    HW141687   4.355   4.846   1.431  1.3042  0.9101 -0.8455
12679SOL    HW241688   4.413   4.694   1.428  0.1965  0.4256  1.5400
12680SOL     OW41689   6.519   8.181   4.952  0.3688  0.2122 -0.0755
12680SOL    HW141690   6.467   8.103   4.987  2.3141 -1.0224  0.1457
12680SOL    HW241691   6.602   8.193   5.006  0.3658  2.1137 -0.4560
12681SOL     OW41692   1.597   5.370   2.631 -0.0652 -0.2724  0.2755
12681SOL    HW141693   1.507   5.405   2.658 -0.0638  0.1029 -0.2188
12681SOL    HW241694   1.602   5.363   2.532  1.3279  2.0791  0.1480
12683SOL     OW41695   6.890   1.239   4.135 -0.1118 -0.1257  0.2595
12683SOL    HW141696   6.936   1.151   4.147 -0.1768 -0.3342 -0.9805
12683SOL    HW241697   6.814   1.229   4.071  0.5623  1.0633 -0.7491
12684SOL     OW41698   3.044   5.870   3.403 -0.3390  0.8074 -0.1422
12684SOL    HW141699   2.984   5.859   3.482 -1.8774  0.2381 -1.3715
12684SOL    HW241700   3.080   5.963   3.401  2.3158 -0.0329  3.0184
12685SOL     OW41701   4.912   0.595   5.185 -0.6747  0.2266  0.1400
12685SOL    HW141702   4.944   0.598   5.090 -0.2609  0.1307  0.2733
12685SOL    HW241703   4.968   0.530   5.236 -1.2826 -0.1614  0.3088
12686SOL     OW41704   3.780   5.817   3.855  0.3463 -0.5714 -0.0810
12686SOL    HW141705   3.794   5.911   3.885  2.5328 -0.4981 -1.1587
12686SOL    HW241706   3.701   5.813   3.794 -0.5876  0.3051  1.0501
12687SOL     OW41707   1.726   6.200   5.550 -0.2920 -0.1992  0.2769
12687SOL    HW141708   1.824   6.190   5.531 -0.1397  0.7926  0.5308
12687SOL    HW241709   1.690   6.278   5.498 -0.6283  0.3424  1.3124
12688SOL     OW41710   9.918   5.534   3.427 -0.2341  0.0395  0.5232
12688SOL    HW141711   9.988   5.600   3.455 -0.6794  1.6833 -2.1227
12688SOL    HW241712   9.959   5.465   3.368 -1.0549  1.7288 -2.0693
12689SOL     OW41713   8.882   6.096   6.155 -0.3540 -0.0229  0.2770
12689SOL    HW141714   8.846   6.145   6.076 -2.6118 -0.7429  0.8157
12689SOL    HW241715   8.819   6.106   6.232 -0.7510 -3.4921  0.5022
12690SOL     OW41716   0.036   3.774   3.134  0.4977  0.5328 -0.3850
12690SOL    HW141717   0.088   3.843   3.184  0.8173 -0.2315  0.3313
12690SOL    HW241718   0.090   3.690   3.126 -0.2357  0.0627 -0.4889
12692SOL     OW41719   3.376   2.454   3.252  0.2369 -0.5883  0.9353
12692SOL    HW141720   3.454   2.508   3.283  0.1404 -0.5010  1.0268
12692SOL    HW241721   3.400   2.405   3.169 -0.3824  1.3702 -0.4559
12696SOL     OW41722   1.248   1.980   0.126 -0.1424  0.6032  0.0792
12696SOL    HW141723   1.250   2.068   0.174  1.8751 -0.9248  2.9832
12696SOL    HW241724   1.333   1.968   0.076 -0.0381 -0.0722  0.4174
12697SOL     OW41725   2.581   2.851   6.034 -0.0059  0.3661 -0.4812
12697SOL    HW141726   2.613   2.943   6.010 -0.4017  0.7285  0.3512
12697SOL    HW241727   2.627   2.784   5.976  3.1401  0.7673  1.4317
12698SOL     OW41728   9.114   1.455   6.357 -0.0584  0.1998  0.0700
12698SOL    HW141729   9.016   1.446   6.376  0.2656 -2.0350  0.7273
12698SOL    HW241730   9.133   1.426   6.263 -0.0713  1.1242 -0.2326
12699SOL     OW41731   2.085   7.759   3.695  0.5808  0.1037 -0.0351
12699SOL    HW141732   2.001   7.791   3.651  1.7809  1.7081 -1.2450
12699SOL    HW241733   2.068   7.672   3.741 -1.8000  0.5444 -0.0180
12701SOL     OW41734   2.562   6.352   2.704  0.1274 -0.1271 -0.1357
12701SOL    HW141735   2.507   6.366   2.786  0.4840 -0.5086  0.1701
12701SOL    HW241736   2.657   6.379   2.722  0.2603 -0.4469 -0.3396
12702SOL     OW41737   6.015   8.874   4.659  0.7283  0.3753  0.0730
12702SOL    HW141738   6.027   8.786   4.614  2.0012  0.9489 -0.7432
12702SOL    HW241739   5.992   8.943   4.591  2.4985  1.2105  0.2798
12704SOL     OW41740   8.037   2.162   2.255  0.5973 -0.1199  0.1171
12704SOL    HW141741   7.966   2.141   2.322 -0.5159 -1.2737 -1.3942
12704SOL    HW241742   8.020   2.252   2.215 -0.2889 -0.5928 -0.5788
12705SOL     OW41743   4.095   8.890   6.116  0.2842  0.0997  0.5714
12705SOL    HW141744   4.182   8.929   6.087 -0.2858  2.5662  2.0074
12705SOL    HW241745   4.078   8.913   6.212 -3.7458  3.0909 -0.7219
12706SOL     OW41746   0.877   0.328   4.091 -0.4314 -0.7912  0.3045
12706SOL    HW141747   0.816   0.396   4.131  0.3128  0.8588 -1.2859
12706SOL    HW241748   0.824   0.267   4.031 -0.9181 -0.9654  0.9022
12707SOL     OW41749   8.491   1.967   5.932 -0.2202 -0.3317 -0.6152
12707SOL    HW141750   8.498   1.868   5.917 -0.1851 -0.7132  1.7432
12707SOL    HW241751   8.396   1.996   5.924 -0.1049 -0.3855 -2.2540
12708SOL     OW41752   2.289   1.506   1.310 -0.6016  0.1194 -0.4298
12708SOL    HW141753   2.324   1.596   1.336 -0.4587 -0.2644  0.7166
12708SOL    HW241754   2.366   1.444   1.293 -0.6400 -0.9214  2.7663
12710SOL     OW41755   4.107   2.456   5.785  0.2988 -0.5321 -0.6497
12710SOL    HW141756   4.019   2.409   5.792  0.8712 -1.8068 -1.8354
12710SOL    HW241757   4.111   2.530   5.852 -2.4756  0.8725 -1.9654
12711SOL     OW41758   4.950   9.834   5.724  0.4120  0.2761  0.1737
12711SOL    HW141759   5.020   9.904   5.711 -0.3776  1.0600  0.1211
12711SOL    HW241760   4.860   9.872   5.703 -0.1965 -0.2943  1.7247
12712SOL     OW41761   8.472   5.420   4.875 -0.1402  0.0339 -0.1196
12712SOL    HW141762   8.436   5.389   4.962 -0.4267 -0.3148 -0.3627
12712SOL    HW241763   8.534   5.497   4.890 -2.6002  2.0269  0.1384
12713SOL     OW41764   9.509   1.477   0.469  0.2559  0.4064  0.7793
12713SOL    HW141765   9.467   1.566   0.452 -0.2074  0.4556  2.0741
12713SOL    HW241766   9.607   1.481   0.449 -0.1323  0.6292 -1.1092
12714SOL     OW41767   5.248   0.132   1.410  0.3064  0.2304  0.2636
12714SOL    HW141768   5.268   0.037   1.387 -0.3988 -0.6319  2.9387
12714SOL    HW241769   5.334   0.182   1.424  0.6694 -0.4804  0.5787
12715SOL     OW41770   8.533   4.200   1.818  0.5437  0.3245 -0.2213
12715SOL    HW141771   8.441   4.185   1.854  0.8062 -0.3169  0.1815
12715SOL    HW241772   8.596   4.135   1.859  1.7876  2.7270  1.8090
12716SOL     OW41773   1.867   3.693   5.459 -0.5831  0.5713  0.1058
12716SOL    HW141774   1.863   3.704   5.360 -2.0367  1.1151  0.2159
12716SOL    HW241775   1.896   3.779   5.501  0.2292  0.2838  0.1517
12717SOL     OW41776   5.841   4.433   1.083 -0.1592 -0.0829 -0.0316
12717SOL    HW141777   5.783   4.508   1.114  1.4393 -0.3716  3.8948
12717SOL    HW241778   5.792   4.346   1.096 -0.1840 -0.0709 -0.0460
12718SOL     OW41779   6.864   3.394   0.618  0.5073 -0.6317 -0.4021
12718SOL    HW141780   6.963   3.381   0.625  0.5100 -1.3735 -1.7690
12718SOL    HW241781   6.845   3.488   0.593  0.7820 -0.0012  1.6262
12719SOL     OW41782   1.506   2.541   0.241 -0.0970 -0.5002  0.1122
12719SOL    HW141783   1.571   2.491   0.299 -2.6227 -2.0499  1.7556
12719SOL    HW241784   1.421   2.557   0.293 -2.2595 -1.4516 -2.9768
12720SOL     OW41785   0.393   8.122   1.205 -0.0305  0.4863 -1.0439
12720SOL    HW141786   0.318   8.069   1.164 -0.1702 -0.6040  0.5701
12720SOL    HW241787   0.481   8.082   1.177 -0.1524 -1.9566  1.8071
12721SOL     OW41788   8.689   1.211   5.450 -0.0871  0.3419 -0.8490
12721SOL    HW141789   8.684   1.129   5.507  0.7571  1.4128  0.8277
12721SOL    HW241790   8.741   1.192   5.367  1.5707 -0.3991  0.3258
12722SOL     OW41791   4.486   1.209   1.914 -0.3237 -0.8508 -0.7223
12722SOL    HW141792   4.503   1.131   1.974  0.5226 -0.7326 -0.8021
12722SOL    HW241793   4.540   1.200   1.830  0.1974  0.0876 -0.4940
12723SOL     OW41794   5.071   3.010   5.144  0.0733  0.8886 -0.3159
12723SOL    HW141795   4.987   3.039   5.190  0.8288  1.0963  0.9380
12723SOL    HW241796   5.049   2.942   5.074 -0.8885 -0.5586  1.3729
12724SOL     OW41797   1.653   4.550   0.084 -0.0841 -0.5873  0.0386
12724SOL    HW141798   1.696   4.625   0.136 -2.4511  0.1669  0.9718
12724SOL    HW241799   1.665   4.464   0.134 -0.5495 -0.2155  0.7839
12725SOL     OW41800   0.792   4.112   5.916  0.3168  0.1364  0.1378
12725SOL    HW141801   0.762   4.111   6.012 -4.0654 -3.2551 -1.0571
12725SOL    HW241802   0.872   4.053   5.906 -0.1612 -0.7898  1.4945
12728SOL     OW41803   4.994   1.798   5.848 -0.0126 -0.1846  0.2526
12728SOL    HW141804   4.896   1.808   5.834 -0.2155 -1.1473  0.9080
12728SOL    HW241805   5.011   1.726   5.915  1.2238 -2.2486 -2.1745
12729SOL     OW41806   9.903   6.013   3.629  0.0112  0.6535  0.0447
12729SOL    HW141807   9.912   5.938   3.695 -0.1303  0.7635  0.1895
12729SOL    HW241808   9.811   6.010   3.589  0.5488 -0.2675 -1.1832
12730SOL     OW41809   3.439   4.099   0.363 -0.0496  0.4138  0.0622
12730SOL    HW141810   3.507   4.119   0.292  1.2658 -0.7564  0.9433
12730SOL    HW241811   3.450   4.163   0.439 -0.6730  0.9223 -0.2736
12731SOL     OW41812   2.353   7.110   1.428 -0.3488  0.1313 -0.0679
12731SOL    HW141813   2.414   7.189   1.424 -0.1050 -0.1144 -1.2653
12731SOL    HW241814   2.265   7.133   1.386 -0.2757 -0.2372 -0.4190
12732SOL     OW41815   7.766   2.412   5.597 -0.0398 -0.0195 -0.3123
12732SOL    HW141816   7.840   2.477   5.587  0.4006 -0.4691 -0.0068
12732SOL    HW241817   7.790   2.344   5.667 -1.3776  0.7476  0.9298
12733SOL     OW41818   6.213   9.529   5.201 -0.1775  0.2284 -0.5867
12733SOL    HW141819   6.306   9.495   5.190 -0.2363  0.5475 -2.0849
12733SOL    HW241820   6.193   9.538   5.299  1.6010  0.8457 -0.2581
12735SOL     OW41821   2.424   9.453   3.358  0.0387 -0.7861 -0.0010
12735SOL    HW141822   2.486   9.379   3.330  0.6545  0.1349 -1.0959
12735SOL    HW241823   2.454   9.539   3.317 -0.9295  0.0017  0.9216
12736SOL     OW41824   2.631   3.010   3.048 -0.6508  0.3673 -0.7499
12736SOL    HW141825   2.696   3.085   3.036 -0.0114  0.2469  1.7246
12736SOL    HW241826   2.655   2.958   3.130 -3.1390 -0.4649 -0.5143
12739SOL     OW41827   3.515   4.888   2.642 -0.7412  0.3830 -0.1791
12739SOL    HW141828   3.542   4.836   2.561 -1.3202 -0.4351  0.1432
12739SOL    HW241829   3.420   4.920   2.631 -1.2693 -0.8370  0.7162
12742SOL     OW41830   4.833   2.370   5.613  0.1740 -0.3414  0.1751
12742SOL    HW141831   4.919   2.392   5.658 -0.4175  0.0708  1.1177
12742SOL    HW241832   4.778   2.311   5.673  0.1225 -1.2309 -0.7374
12743SOL     OW41833   6.660   0.765   5.253  0.1511 -0.2015 -0.2287
12743SOL    HW141834   6.636   0.719   5.339 -0.0657  0.1849 -0.0823
12743SOL    HW241835   6.679   0.861   5.270  0.8580 -0.2891 -0.5024
12744SOL     OW41836   3.783   0.971   3.214  0.3358 -0.0391 -0.3036
12744SOL    HW141837   3.846   0.950   3.139  0.7726  0.4399 -0.0760
12744SOL    HW241838   3.822   0.940   3.301 -0.4804 -1.2133 -0.3553
12745SOL     OW41839   5.332   7.579   3.045  0.2062 -0.1097 -0.3830
12745SOL    HW141840   5.392   7.517   3.098  0.1390 -0.6384 -0.9183
12745SOL    HW241841   5.312   7.660   3.099  1.0300 -0.1477 -0.0109
12746SOL     OW41842   3.085   0.565   5.361 -0.0606  0.3978 -0.2689
12746SOL    HW141843   2.989   0.591   5.371 -0.2755 -1.1680  2.2572
12746SOL    HW241844   3.097   0.470   5.392  1.8830 -0.2428 -2.7907
12747SOL     OW41845   2.465   4.950   0.195  0.0179  0.2252 -0.3331
12747SOL    HW141846   2.452   4.852   0.179  1.7803  0.0290 -0.6836
12747SOL    HW241847   2.547   4.963   0.251 -0.4742  1.4824  0.1000
12748SOL     OW41848   8.047   8.707   3.930 -0.1958  0.3190  0.6021
12748SOL    HW141849   8.018   8.639   3.997 -0.2826  0.3558  0.6014
12748SOL    HW241850   8.132   8.750   3.960 -1.2728  1.7498  1.6687
12749SOL     OW41851   6.025   8.026   3.597  0.2390  0.4352  0.3696
12749SOL    HW141852   5.969   8.046   3.677 -0.4556 -0.8726  0.2210
12749SOL    HW241853   5.985   8.072   3.517 -0.4510 -0.2349  0.3222
12752SOL     OW41854   5.475   1.172   3.868  0.2902  0.3967 -0.1279
12752SOL    HW141855   5.487   1.147   3.772  0.7699  0.9436 -0.2211
12752SOL    HW241856   5.505   1.267   3.881  0.2557  0.3167  0.5644
12753SOL     OW41857   1.724   9.141   0.138 -0.2700 -0.5496 -0.0443
12753SOL    HW141858   1.643   9.083   0.133 -0.8157  0.1799  0.2788
12753SOL    HW241859   1.798   9.092   0.185 -0.4793 -1.2620 -0.4569
12754SOL     OW41860   8.966   0.862   4.765  0.0484  0.4727  0.8314
12754SOL    HW141861   8.934   0.812   4.845 -0.6554  0.0844  0.3112
12754SOL    HW241862   9.019   0.801   4.705  1.3767  0.9909  1.4486
12755SOL     OW41863   2.834   0.371   2.677 -0.3992  0.1225  0.4020
12755SOL    HW141864   2.817   0.448   2.616  1.2395 -1.3608 -1.9677
12755SOL    HW241865   2.922   0.384   2.723 -0.9616  0.5318  1.3764
12756SOL     OW41866   2.822   0.507   6.127 -0.4397 -0.0118  0.6463
12756SOL    HW141867   2.759   0.554   6.064  1.3262  0.3319 -0.9093
12756SOL    HW241868   2.833   0.412   6.099 -1.6774 -0.5818  2.0222
12757SOL     OW41869   7.081   9.477   2.556  0.2018  0.2962  0.2280
12757SOL    HW141870   7.081   9.566   2.601 -1.1410  0.4539 -0.0549
12757SOL    HW241871   7.013   9.418   2.599  0.4662 -0.2874 -0.1555
12758SOL     OW41872   7.960   2.595   5.502  0.3920 -0.0497  0.0237
12758SOL    HW141873   8.013   2.551   5.429  0.4295  0.1363 -0.0607
12758SOL    HW241874   8.013   2.593   5.587  1.0313  1.1747 -0.3272
12760SOL     OW41875   9.272   2.483   4.864  0.1565 -0.1418  0.9479
12760SOL    HW141876   9.239   2.424   4.937 -0.0669  0.6252  1.4745
12760SOL    HW241877   9.195   2.517   4.811  0.3924 -1.5903 -0.3539
12762SOL     OW41878   1.610   2.993   5.228 -0.5474  0.1391  0.2021
12762SOL    HW141879   1.526   3.008   5.280 -0.5447  0.6441  0.0626
12762SOL    HW241880   1.651   2.906   5.256 -0.1843  0.7337  1.5159
12763SOL     OW41881   2.529   8.373   2.075 -0.2068  0.1483  0.0304
12763SOL    HW141882   2.513   8.332   2.165  0.1396 -0.7036 -0.2823
12763SOL    HW241883   2.446   8.365   2.020 -0.6035  1.1932  0.4683
12766SOL     OW41884   9.678   9.696   2.355  0.0772  0.6315  0.6645
12766SOL    HW141885   9.628   9.774   2.394 -1.0360  0.2027  0.1181
12766SOL    HW241886   9.625   9.612   2.367 -0.3031  0.4809 -1.7121
12767SOL     OW41887   1.820   4.714   5.372 -0.4412  0.2789 -0.8551
12767SOL    HW141888   1.727   4.704   5.336 -0.0404  0.5669 -1.9668
12767SOL    HW241889   1.830   4.805   5.413 -1.2987 -0.5115  1.2015
12768SOL     OW41890   5.586   9.388   2.052  0.4222  0.0128 -0.4197
12768SOL    HW141891   5.639   9.443   2.117 -0.7610  0.0550  0.5376
12768SOL    HW241892   5.591   9.429   1.961  1.9618  0.0537 -0.3335
12769SOL     OW41893   1.272   5.766   5.194 -0.1246 -0.0867  0.0028
12769SOL    HW141894   1.312   5.710   5.122 -0.4568 -0.2615 -0.0465
12769SOL    HW241895   1.178   5.737   5.210 -0.1084  0.0737  0.3805
12770SOL     OW41896   1.883   1.593   4.912  0.1355  0.0929  0.1991
12770SOL    HW141897   1.797   1.629   4.947  0.0698 -0.5845  0.7543
12770SOL    HW241898   1.956   1.658   4.931 -0.4476  1.2153 -1.3590
12771SOL     OW41899   8.105   4.637   4.943  0.4200  0.2760  0.3911
12771SOL    HW141900   8.010   4.650   4.970  0.4257  1.1789 -0.0053
12771SOL    HW241901   8.165   4.651   5.023  0.1050 -2.6820  1.2420
12772SOL     OW41902   1.845   7.026   4.481 -0.1250  0.1387  0.6528
12772SOL    HW141903   1.920   6.960   4.481 -0.4574 -0.2470  1.7867
12772SOL    HW241904   1.824   7.054   4.574 -1.0839  0.5941  0.3138
12773SOL     OW41905   1.207   6.892   1.033  0.2752 -0.1216 -0.4459
12773SOL    HW141906   1.147   6.885   1.112  2.2109  0.6015  1.1290
12773SOL    HW241907   1.296   6.851   1.054  1.7250  2.4247 -1.2886
12774SOL     OW41908   9.483   2.858   5.023 -0.2174 -0.4348 -0.6659
12774SOL    HW141909   9.558   2.855   4.957 -0.9659 -0.1083 -1.5313
12774SOL    HW241910   9.482   2.772   5.075  0.9185 -0.3311 -0.4541
12775SOL     OW41911   4.978   5.249   2.504  0.5191 -0.0492  0.5352
12775SOL    HW141912   4.955   5.338   2.544 -0.7410  0.6558 -1.6564
12775SOL    HW241913   4.925   5.236   2.420  0.5232 -2.9834  0.9388
12776SOL     OW41914   8.366   0.632   2.131 -0.0968 -0.6042 -0.1620
12776SOL    HW141915   8.273   0.594   2.124 -0.5732  0.5491 -0.1194
12776SOL    HW241916   8.422   0.571   2.187 -1.1821 -0.6625  0.8824
12777SOL     OW41917   2.377   3.285   2.756  0.6625 -0.0577  0.2483
12777SOL    HW141918   2.470   3.270   2.789  1.1807  1.4582 -0.5108
12777SOL    HW241919   2.354   3.216   2.688  1.7865  0.4981 -0.6900
12779SOL     OW41920   2.374   9.073   1.299 -0.3105 -0.1905 -0.0433
12779SOL    HW141921   2.436   9.139   1.256 -1.5490  1.6679  0.9872
12779SOL    HW241922   2.428   9.005   1.348  0.9534  2.4668  2.4097
12780SOL     OW41923   7.688   8.779   2.149  0.3254 -0.1723 -0.2407
12780SOL    HW141924   7.651   8.741   2.064  1.0837 -1.1371 -0.1562
12780SOL    HW241925   7.662   8.721   2.226  0.8718 -0.1167 -0.0115
12781SOL     OW41926   9.482   4.202   5.486  0.2759  0.2656 -0.3595
12781SOL    HW141927   9.495   4.204   5.387  0.2765 -0.8814 -0.3905
12781SOL    HW241928   9.441   4.115   5.512  1.2642  0.1196  0.7591
12782SOL     OW41929   4.125   8.198   5.394 -0.3721 -0.8365 -0.4133
12782SOL    HW141930   4.066   8.146   5.455 -0.4425 -3.0507 -2.3064
12782SOL    HW241931   4.215   8.208   5.436 -0.7395 -1.3857  0.5251
12783SOL     OW41932   0.834   5.554   4.290  0.0498  0.8317 -0.3018
12783SOL    HW141933   0.736   5.545   4.270 -0.2137  1.5939  0.6053
12783SOL    HW241934   0.863   5.648   4.270  0.0915  1.2258  1.5539
12786SOL     OW41935   3.110   8.249   0.770  0.0674 -0.9172  0.2288
12786SOL    HW141936   3.132   8.311   0.845 -0.7855 -1.6222  1.0667
12786SOL    HW241937   3.039   8.184   0.799 -0.6338 -0.8807 -1.3307
12787SOL     OW41938   9.851   0.488   1.102  0.6375 -0.6393  0.0686
12787SOL    HW141939   9.910   0.453   1.176 -0.9919 -0.5208  1.4504
12787SOL    HW241940   9.858   0.427   1.023  0.7998 -1.9566  1.0696
12788SOL     OW41941   7.852   7.831   5.583  0.0769  0.4471  0.2033
12788SOL    HW141942   7.778   7.814   5.649 -0.3166  0.3003 -0.2682
12788SOL    HW241943   7.885   7.743   5.547 -0.4536  0.5761 -0.5996
12789SOL     OW41944   6.094   9.731   4.547  0.2876 -0.1071 -0.3505
12789SOL    HW141945   6.135   9.696   4.631  1.1580  2.5690  0.4106
12789SOL    HW241946   6.159   9.724   4.473  0.8943  0.9649  0.0717
12791SOL     OW41947   3.792   2.602   0.257  0.3036  0.3165 -0.0319
12791SOL    HW141948   3.747   2.626   0.343  0.2845  0.0827  0.0218
12791SOL    HW241949   3.856   2.675   0.232  0.3092  0.3835  0.1793
12792SOL     OW41950   6.298   7.779   4.790 -0.1647 -0.2751 -0.0268
12792SOL    HW141951   6.346   7.693   4.803 -1.4722 -1.0059 -0.0235
12792SOL    HW241952   6.200   7.763   4.782 -0.4253  1.2047 -0.0734
12794SOL     OW41953   8.876   3.385   4.342  0.6570 -0.2930 -0.1402
12794SOL    HW141954   8.932   3.408   4.262  0.5341 -1.5721 -0.5992
12794SOL    HW241955   8.932   3.334   4.408 -0.1853 -2.3915 -1.0106
12796SOL     OW41956   7.088   3.988   1.757  0.0373  0.1459 -0.2890
12796SOL    HW141957   7.178   3.975   1.799 -0.2081  1.4027  0.6453
12796SOL    HW241958   7.027   3.914   1.787  0.1359  0.5095  0.8146
12797SOL     OW41959   4.809   1.279   0.947 -0.2647  0.1423  0.2536
12797SOL    HW141960   4.884   1.214   0.946 -0.3676  0.0258 -1.5344
12797SOL    HW241961   4.836   1.363   0.898 -1.1044  0.2985  0.0399
12798SOL     OW41962   4.315   2.440   1.905 -0.6391  0.2250  0.0216
12798SOL    HW141963   4.301   2.438   2.004  0.2958  1.5369  0.2016
12798SOL    HW241964   4.374   2.517   1.882 -0.1891 -0.5541 -1.4834
12800SOL     OW41965   6.548   0.738   2.985 -0.0763  0.2066  0.3904
12800SOL    HW141966   6.473   0.678   3.013 -0.3957  0.2521 -0.3603
12800SOL    HW241967   6.623   0.730   3.051  0.2333 -1.6850 -0.1385
12801SOL     OW41968   3.841   1.576   5.262  0.0181 -0.2887  0.2398
12801SOL    HW141969   3.930   1.621   5.258  0.3908 -1.0886 -0.7799
12801SOL    HW241970   3.781   1.615   5.193  0.0854 -0.8047 -0.1136
12803SOL     OW41971   9.473   8.432   4.466  0.5416 -0.4687  0.4739
12803SOL    HW141972   9.479   8.482   4.379 -0.6012  2.6247  2.1034
12803SOL    HW241973   9.377   8.417   4.489  0.7779  0.4854  2.1529
12804SOL     OW41974   3.883   2.564   5.335 -0.4075 -1.0035  0.7500
12804SOL    HW141975   3.814   2.528   5.272  0.0525 -0.2395 -0.2003
12804SOL    HW241976   3.938   2.488   5.370 -1.3069 -1.5443  1.0177
12805SOL     OW41977   2.782   8.999   1.582 -0.0455  0.3495  0.1924
12805SOL    HW141978   2.815   8.906   1.599  1.4710  1.0698  1.2838
12805SOL    HW241979   2.855   9.064   1.598 -1.6805  1.9087  1.5251
12806SOL     OW41980   2.078   0.306   5.981  0.0967  0.4355  0.0257
12806SOL    HW141981   2.046   0.296   5.887 -1.4744  2.3486  0.3266
12806SOL    HW241982   2.004   0.344   6.037  1.6192  1.0672  1.6266
12807SOL     OW41983   8.707   9.195   1.996 -0.4853  0.4809  0.7831
12807SOL    HW141984   8.711   9.105   2.040 -0.8597 -0.1092 -0.3617
12807SOL    HW241985   8.779   9.254   2.034  1.5062 -1.1559 -0.3443
12808SOL     OW41986   5.335   4.533   1.511 -0.4372 -0.0438  0.2699
12808SOL    HW141987   5.303   4.627   1.510 -0.1331  0.0674 -0.7990
12808SOL    HW241988   5.432   4.531   1.536  0.5631  0.3266 -3.1886
12810SOL     OW41989   6.643   8.640   4.881  0.0412  0.6668  0.5744
12810SOL    HW141990   6.586   8.640   4.963  1.5810  3.3602  1.7404
12810SOL    HW241991   6.738   8.661   4.906  1.4522 -2.9065 -1.3965
12812SOL     OW41992   3.036   2.876   5.838 -0.3648  0.2698  0.0494
12812SOL    HW141993   3.082   2.947   5.785 -1.0182  0.4474 -0.2972
12812SOL    HW241994   3.097   2.798   5.851  0.2467  0.7696  0.1556
12814SOL     OW41995   3.218   6.129   4.513  0.1087  0.0084 -0.0950
12814SOL    HW141996   3.253   6.199   4.451  0.8842 -0.5435 -0.2928
12814SOL    HW241997   3.184   6.052   4.459  0.5088 -0.3446  0.1530
12815SOL     OW41998   3.976   6.601   3.056 -0.1040 -0.1113 -0.1626
12815SOL    HW141999   3.965   6.637   2.963 -0.2494 -1.7061 -0.7780
12815SOL    HW242000   4.004   6.506   3.052  0.8385  0.0757  1.4521
12816SOL     OW42001   0.872   2.004   1.791 -0.1411  0.0497  0.2416
12816SOL    HW142002   0.882   2.087   1.846 -1.4136 -0.3247  1.0703
12816SOL    HW242003   0.804   1.944   1.834 -1.7699  0.1130 -2.1672
12817SOL     OW42004   4.242   2.985   2.247  0.1843  0.5996 -0.5064
12817SOL    HW142005   4.181   2.920   2.203 -0.5623 -0.2696  1.7495
12817SOL    HW242006   4.219   3.078   2.217 -1.7483  0.2150 -0.2758
12819SOL     OW42007   0.164   8.560   3.792  0.0285  0.7036 -0.5234
12819SOL    HW142008   0.144   8.545   3.889  1.2808 -1.0728 -0.5058
12819SOL    HW242009   0.261   8.540   3.775  0.2202  2.6615 -1.8267
12820SOL     OW42010   4.345   8.848   6.320 -0.3866  0.5209  0.1961
12820SOL    HW142011   4.268   8.868   6.381  1.1613 -0.5638  2.5912
12820SOL    HW242012   4.427   8.897   6.352  0.2851  0.4609 -1.4115
12821SOL     OW42013   0.806   1.543   4.918  0.4343  0.4448 -0.1255
12821SOL    HW142014   0.740   1.604   4.962  0.6630 -0.0076  0.8609
12821SOL    HW242015   0.824   1.464   4.977  0.9568 -0.0445 -0.9120
12822SOL     OW42016   0.385   3.996   3.063 -0.1747  0.5204 -0.1720
12822SOL    HW142017   0.464   4.014   3.004 -0.6613 -1.8163 -1.5871
12822SOL    HW242018   0.404   3.918   3.122  0.4020  2.9719  3.0823
12823SOL     OW42019   3.233   7.637   4.453  0.1025 -0.3203 -0.2253
12823SOL    HW142020   3.146   7.628   4.501 -0.9149  1.7037 -1.6127
12823SOL    HW242021   3.282   7.717   4.487  0.1145  0.1737 -1.3805
12824SOL     OW42022   0.847   6.994   1.377 -0.6350 -0.1551  0.5778
12824SOL    HW142023   0.808   6.902   1.385 -0.7955 -0.3115 -1.7414
12824SOL    HW242024   0.778   7.061   1.403 -0.2059 -0.7018  3.2475
12825SOL     OW42025   8.322   6.710   4.815 -0.1127  0.3485 -0.3295
12825SOL    HW142026   8.351   6.726   4.721  2.3482  1.1191  0.5095
12825SOL    HW242027   8.402   6.713   4.875 -1.1228 -3.4428  1.3922
12827SOL     OW42028   6.777   2.110   3.271  0.3191  0.0623 -0.6153
12827SOL    HW142029   6.864   2.062   3.273  0.4348  0.1446 -2.8792
12827SOL    HW242030   6.733   2.104   3.361  1.3755 -2.3134 -0.2390
12829SOL     OW42031   1.287   5.601   1.761 -0.4540  0.2359  0.0439
12829SOL    HW142032   1.339   5.516   1.767 -1.4445 -0.4430 -0.8355
12829SOL    HW242033   1.192   5.584   1.789 -0.4976  1.1937  0.4936
12830SOL     OW42034   3.261   9.896   2.126  0.4234 -0.6130 -0.1520
12830SOL    HW142035   3.296   9.990   2.129  0.9796 -0.8183 -0.1530
12830SOL    HW242036   3.245   9.870   2.031 -1.1759  0.0092 -0.0722
12831SOL     OW42037   3.513   6.609   2.307  0.1695  0.3549 -0.4060
12831SOL    HW142038   3.601   6.566   2.327  0.9763  2.5716  0.9463
12831SOL    HW242039   3.441   6.540   2.306  1.6575 -1.2251  0.1985
12832SOL     OW42040   1.991   0.366   2.884  0.1144 -0.3328  0.3502
12832SOL    HW142041   2.059   0.369   2.810 -0.0688  0.5510  0.2150
12832SOL    HW242042   1.901   0.390   2.847 -0.0103 -0.0763  0.8259
12834SOL     OW42043   4.624   7.776   2.560  0.1946  0.5375  0.0864
12834SOL    HW142044   4.655   7.830   2.638  1.9448  0.3674 -0.4559
12834SOL    HW242045   4.660   7.816   2.475 -0.2524 -0.2638 -0.4933
12835SOL     OW42046   3.907   8.557   2.972 -0.0880  0.8661  0.0018
12835SOL    HW142047   3.913   8.543   3.071 -0.0762 -1.1910 -0.2721
12835SOL    HW242048   3.978   8.622   2.944 -0.4103  1.8526  1.4054
12836SOL     OW42049   7.918   6.524   3.253 -0.2568 -0.1843  0.0790
12836SOL    HW142050   7.858   6.493   3.179 -0.2194 -0.7140  0.2636
12836SOL    HW242051   7.880   6.495   3.341 -0.4122  0.6343  0.2824
12837SOL     OW42052   7.415   7.245   6.157  0.0585  0.6973 -0.1429
12837SOL    HW142053   7.323   7.239   6.120  0.6707  1.7727 -1.8988
12837SOL    HW242054   7.453   7.154   6.168 -0.4080  0.3355 -1.4706
12838SOL     OW42055   1.824   1.260   0.922  0.0902  0.5204  0.5308
12838SOL    HW142056   1.731   1.282   0.891  0.5116 -0.7339 -1.7233
12838SOL    HW242057   1.888   1.326   0.883  0.4810 -0.3335 -0.2880
12839SOL     OW42058   9.767   9.163   4.888 -0.3643 -0.3196 -0.2386
12839SOL    HW142059   9.747   9.224   4.965  1.1421  1.5599 -1.2928
12839SOL    HW242060   9.755   9.213   4.802  1.8609 -1.1815 -1.0872
12840SOL     OW42061   8.041   3.615   4.133  0.2567  0.3375  0.4512
12840SOL    HW142062   7.949   3.654   4.127  0.1332  0.1953  1.3847
12840SOL    HW242063   8.037   3.525   4.176  0.8685  0.4795  0.8173
12842SOL     OW42064   0.817   5.957   3.536  0.0497 -0.3171 -0.7036
12842SOL    HW142065   0.859   6.027   3.478  1.2822 -0.7166 -0.3119
12842SOL    HW242066   0.827   5.868   3.492 -0.2095 -0.4460 -0.5011
12843SOL     OW42067   7.273   2.674   2.919  0.2713 -0.2777  0.5081
12843SOL    HW142068   7.357   2.640   2.963  2.0753  1.8971 -1.1327
12843SOL    HW242069   7.251   2.617   2.841  1.2674  0.1866 -0.1224
12846SOL     OW42070   7.316   2.000   5.912  0.3789 -0.8118  0.1737
12846SOL    HW142071   7.400   2.037   5.872 -0.2093  0.7202  0.2960
12846SOL    HW242072   7.247   2.072   5.915 -0.1556 -1.3637  2.3068
12847SOL     OW42073   2.054   9.993   4.736  0.2691 -0.1732  0.0406
12847SOL    HW142074   2.122   9.940   4.686  1.3720  0.5175  0.7847
12847SOL    HW242075   1.965   9.946   4.733  1.0581 -1.6980  0.1046
12848SOL     OW42076   8.888   7.566   5.630 -0.2218 -0.0014 -0.0535
12848SOL    HW142077   8.903   7.646   5.689  2.1110 -1.6334  1.6686
12848SOL    HW242078   8.960   7.562   5.561 -0.3421 -0.6280 -0.1399
12850SOL     OW42079   8.020   6.654   0.043  0.0979  0.1436 -0.2621
12850SOL    HW142080   8.009   6.568  -0.008  0.4599  0.4963 -0.9345
12850SOL    HW242081   8.095   6.645   0.108  0.5033  0.1446 -0.7335
12851SOL     OW42082   8.310   1.302   5.494 -0.1962 -0.0456 -0.5952
12851SOL    HW142083   8.236   1.278   5.557 -1.1185 -2.4083 -2.5073
12851SOL    HW242084   8.393   1.321   5.547 -1.0142 -1.6802  1.3713
12852SOL     OW42085   2.692   6.250   3.702  0.0334 -0.1819  0.1486
12852SOL    HW142086   2.747   6.262   3.785 -0.7502 -0.3388  0.6965
12852SOL    HW242087   2.668   6.153   3.692  1.0125 -0.3295 -0.8340
12853SOL     OW42088   3.586   9.739   4.228  0.2319  0.2463  0.1101
12853SOL    HW142089   3.535   9.690   4.158  1.7840 -0.2383 -0.7021
12853SOL    HW242090   3.550   9.715   4.318  0.9567 -2.3997 -0.2744
12854SOL     OW42091   8.595   4.684   1.655 -0.2592  0.3590  0.4626
12854SOL    HW142092   8.598   4.706   1.558 -2.3367  2.1185  0.7620
12854SOL    HW242093   8.689   4.675   1.690  0.5274  1.1859 -1.3532
12855SOL     OW42094   7.215   7.991   4.096  0.2512 -0.1202 -0.0048
12855SOL    HW142095   7.137   8.046   4.067  1.3961 -0.1587 -3.3136
12855SOL    HW242096   7.281   8.048   4.145 -0.3041  0.6302 -0.1301
12856SOL     OW42097   9.034   7.851   1.229 -0.0176  0.0749 -0.4040
12856SOL    HW142098   9.048   7.824   1.324  0.1859 -1.7033 -0.9340
12856SOL    HW242099   8.949   7.902   1.222 -0.3225 -0.2659  0.6371
12857SOL     OW42100   4.729   0.943   3.858 -0.0367 -0.0690 -0.2769
12857SOL    HW142101   4.741   0.915   3.953 -2.5332  1.4052  0.5097
12857SOL    HW242102   4.814   0.983   3.824  0.2281  1.4118  2.0290
12858SOL     OW42103   2.707   1.805   1.139 -0.3910  0.1301  0.4449
12858SOL    HW142104   2.779   1.871   1.119  0.7394 -1.0949  0.3665
12858SOL    HW242105   2.688   1.750   1.057 -0.5689 -0.3434  0.8005
12859SOL     OW42106   2.440   0.098   0.644  0.3990  0.2088  0.3730
12859SOL    HW142107   2.440   0.187   0.691  2.6184  0.0502  0.7572
12859SOL    HW242108   2.349   0.078   0.610  0.0683  3.0957 -0.5801
12860SOL     OW42109   2.489   9.318   2.250  0.7171 -0.2212  0.0534
12860SOL    HW142110   2.574   9.302   2.301 -0.5198 -2.0905  1.5855
12860SOL    HW242111   2.466   9.237   2.197 -0.1975  0.2220 -0.2321
12861SOL     OW42112   0.687   3.964   2.491  0.6184 -0.0318 -0.0894
12861SOL    HW142113   0.672   3.866   2.496  0.3525 -0.2748 -3.9865
12861SOL    HW242114   0.737   3.986   2.406 -0.3525  3.3015  0.1181
12862SOL     OW42115   8.207   6.594   6.174  0.0215 -0.0493 -0.5649
12862SOL    HW142116   8.132   6.628   6.117 -1.7249 -1.5564  0.7960
12862SOL    HW242117   8.261   6.672   6.207 -2.1138  1.2094  0.0256
12863SOL     OW42118   9.376   4.023   5.040 -0.3178 -0.1246 -0.1585
12863SOL    HW142119   9.370   3.938   5.092 -1.1610  0.1658  0.2294
12863SOL    HW242120   9.347   4.005   4.945  4.9649 -1.5517 -1.6757
12864SOL     OW42121   8.820   2.739   2.177  0.0505 -0.6481 -0.2080
12864SOL    HW142122   8.816   2.687   2.091 -0.5084 -0.3658 -0.3536
12864SOL    HW242123   8.769   2.690   2.247 -1.7970  0.4698 -0.7536
12865SOL     OW42124   2.716   6.076   4.560  0.5207 -0.8439 -0.4513
12865SOL    HW142125   2.791   6.132   4.524 -0.8701  1.3014 -0.1252
12865SOL    HW242126   2.657   6.133   4.617 -0.5946 -2.8308  0.4111
12866SOL     OW42127   7.394   9.336   2.638  0.2334 -0.1764  0.0953
12866SOL    HW142128   7.355   9.386   2.561  1.4370 -1.1964 -1.2035
12866SOL    HW242129   7.486   9.304   2.614 -0.9516 -4.1222  0.3432
12867SOL     OW42130   8.650   1.686   4.116  0.2813  0.7484 -0.6742
12867SOL    HW142131   8.697   1.729   4.039 -0.6490 -1.2746 -2.4475
12867SOL    HW242132   8.565   1.644   4.084  0.3268 -0.9417  1.2623
12868SOL     OW42133   9.202   7.517   5.898  0.0232  0.6650 -0.6560
12868SOL    HW142134   9.204   7.488   5.994 -0.7172 -0.0479 -0.8519
12868SOL    HW242135   9.199   7.617   5.893 -1.6416  0.6690  0.1010
12869SOL     OW42136   3.160   3.833   1.582 -0.4004 -0.0330  0.2844
12869SOL    HW142137   3.132   3.770   1.509  2.6771  0.6834 -1.5749
12869SOL    HW242138   3.221   3.903   1.545 -0.5654  1.6917  3.1284
12870SOL     OW42139   9.407   0.072   6.417 -0.1149 -0.5856 -0.1807
12870SOL    HW142140   9.470   0.065   6.495 -2.3587 -0.3519  1.7327
12870SOL    HW242141   9.323   0.022   6.439 -0.3570 -1.4387 -2.9434
12871SOL     OW42142   9.204   0.847   4.968 -0.4419  0.3623  0.2387
12871SOL    HW142143   9.150   0.926   4.939 -1.5932 -0.5274 -0.0498
12871SOL    HW242144   9.301   0.865   4.951 -0.7914  1.2864 -0.8247
12872SOL     OW42145   9.098   0.016   5.838 -0.6481  0.3201 -0.3439
12872SOL    HW142146   9.125   0.063   5.922  0.0251  1.6039 -1.2596
12872SOL    HW242147   9.091  -0.082   5.855  0.3787  0.4671  0.9907
12873SOL     OW42148   8.200   6.991   6.053 -0.0602  0.4379 -1.0837
12873SOL    HW142149   8.181   6.918   5.987  0.0226  0.2594 -0.9082
12873SOL    HW242150   8.286   7.036   6.030 -0.9853  1.6624 -2.2569
12874SOL     OW42151   3.822   8.686   4.137 -0.3659 -0.2544 -0.4387
12874SOL    HW142152   3.889   8.670   4.065  0.8136 -0.2578  0.6313
12874SOL    HW242153   3.797   8.783   4.138  2.0865  0.4062  1.2120
12875SOL     OW42154   4.852   7.424   3.945  0.2249  0.5674 -0.1421
12875SOL    HW142155   4.808   7.431   3.856  2.3314  0.3724 -1.2266
12875SOL    HW242156   4.786   7.447   4.017 -1.2432  1.6013 -1.7910
12876SOL     OW42157   4.357   2.845   5.244 -0.0310 -0.0610 -0.1921
12876SOL    HW142158   4.453   2.861   5.221 -0.2477  1.5020 -0.1000
12876SOL    HW242159   4.301   2.856   5.162 -0.2854  0.5147  0.0571
12877SOL     OW42160   1.823   7.369   5.367 -0.3329  0.0170  0.4736
12877SOL    HW142161   1.785   7.437   5.304 -0.9701  0.1895  1.0240
12877SOL    HW242162   1.755   7.298   5.383  0.0650 -0.3638  0.4595
12878SOL     OW42163   1.309   1.328   5.736  0.2423 -0.2430 -0.3431
12878SOL    HW142164   1.370   1.343   5.814 -0.5865 -2.0483  0.6828
12878SOL    HW242165   1.363   1.324   5.652  1.2024  1.1516  0.1831
12879SOL     OW42166   3.114   2.467   5.269 -0.6416  0.4476 -0.1431
12879SOL    HW142167   3.014   2.469   5.265 -0.6486 -0.0657 -0.2017
12879SOL    HW242168   3.144   2.465   5.365 -0.7454 -2.2890 -0.1383
12880SOL     OW42169   9.559   8.905   2.129  0.6721  0.2219  0.0637
12880SOL    HW142170   9.543   8.994   2.172 -0.2007  0.9834 -1.7652
12880SOL    HW242171   9.618   8.917   2.049  1.3710 -1.0053  0.3812
12881SOL     OW42172   0.916   6.408   1.702  0.5935  0.0932  0.1519
12881SOL    HW142173   0.876   6.500   1.698  1.6909  0.6365  1.2845
12881SOL    HW242174   1.014   6.415   1.720  0.7470 -1.2980 -0.0938
12882SOL     OW42175   2.332   8.976   4.211  0.6761 -0.0047 -0.2567
12882SOL    HW142176   2.345   8.877   4.206  0.8648  0.0875 -2.4133
12882SOL    HW242177   2.412   9.021   4.170  0.8765  1.0686  1.2755
12883SOL     OW42178   8.577   4.378   5.451  0.0855 -0.7319  0.2151
12883SOL    HW142179   8.642   4.307   5.424  0.4349 -0.2533 -0.2168
12883SOL    HW242180   8.486   4.353   5.420  0.1148 -1.2475  0.5325
12884SOL     OW42181   5.230   7.825   3.694  0.8092  0.5385 -0.1979
12884SOL    HW142182   5.314   7.851   3.646  1.5578  0.9856  1.3133
12884SOL    HW242183   5.207   7.730   3.671  2.1616  0.1584 -0.0359
12885SOL     OW42184   3.129   8.811   6.008 -0.0739  0.1516 -0.0675
12885SOL    HW142185   3.042   8.829   6.054 -1.0092 -1.3319 -1.2018
12885SOL    HW242186   3.183   8.748   6.063  0.2180  0.9158  0.5402
12887SOL     OW42187   5.132   7.300   4.952 -0.3020  0.1685  1.1167
12887SOL    HW142188   5.176   7.339   5.032 -1.4164  0.0690  1.7902
12887SOL    HW242189   5.170   7.210   4.933 -0.2695  0.0474  1.7444
12888SOL     OW42190   3.433   8.133   3.271  0.3313  0.1982 -0.2690
12888SOL    HW142191   3.495   8.184   3.330  0.8797 -0.4907 -0.2481
12888SOL    HW242192   3.475   8.120   3.181 -0.1724  0.5504 -0.5579
12889SOL     OW42193   0.490   2.968   6.356 -0.3176  0.5642 -0.5123
12889SOL    HW142194   0.483   3.039   6.286  2.9795  1.2350 -0.2833
12889SOL    HW242195   0.495   3.011   6.446  0.7322  0.0182 -0.3008
12896SOL     OW42196   0.909   7.153   5.368  0.0838 -0.2311  0.0580
12896SOL    HW142197   0.948   7.129   5.456  0.8130 -3.0437 -0.9583
12896SOL    HW242198   0.897   7.070   5.313 -0.0284  1.4704 -2.6174
12897SOL     OW42199   6.200   0.699   3.760  0.1305 -0.1647  0.0034
12897SOL    HW142200   6.234   0.793   3.755 -0.1429 -0.0021  1.1648
12897SOL    HW242201   6.186   0.674   3.855  2.0715 -2.0461 -0.1712
12898SOL     OW42202   6.502   0.207   4.165  0.2770 -0.3448  0.2143
12898SOL    HW142203   6.566   0.257   4.107 -0.2686  0.2746  0.1271
12898SOL    HW242204   6.419   0.262   4.176  0.3671 -0.4695  1.5564
12899SOL     OW42205   4.207   1.389   3.898  0.0641  0.2132 -0.6119
12899SOL    HW142206   4.116   1.392   3.937 -0.5091  0.9173 -1.9739
12899SOL    HW242207   4.275   1.400   3.971 -0.8307 -2.7578  0.7593
12901SOL     OW42208   7.980   9.108   2.434  0.1759 -0.0763 -1.1867
12901SOL    HW142209   8.044   9.184   2.430  1.3846 -0.9986 -0.0837
12901SOL    HW242210   8.000   9.043   2.361  0.6853 -0.5053 -0.6670
12902SOL     OW42211   1.567   4.422   4.415 -0.0300  0.2353  0.5505
12902SOL    HW142212   1.601   4.501   4.466  0.7852  0.1743  0.1096
12902SOL    HW242213   1.489   4.449   4.360  0.0372  0.6564  0.6579
12903SOL     OW42214   4.284   8.770   3.655 -0.3405 -0.9964  0.2512
12903SOL    HW142215   4.201   8.730   3.694 -0.5853 -1.0663 -0.3334
12903SOL    HW242216   4.362   8.713   3.678 -0.4044 -0.7594  1.0785
12904SOL     OW42217   1.363   6.097   5.794  0.3660  0.3327  0.3065
12904SOL    HW142218   1.461   6.093   5.816 -0.0526  1.3001  2.4175
12904SOL    HW242219   1.311   6.120   5.876 -1.5104  1.3340 -1.1206
12905SOL     OW42220   7.908   1.040   3.874  0.3048  0.2582  0.4818
12905SOL    HW142221   7.982   1.107   3.868  2.1234 -1.5850  1.6425
12905SOL    HW242222   7.900   0.991   3.787  1.2415 -0.3226  0.7119
12906SOL     OW42223   4.717   1.860   4.389  0.2979 -0.4827 -0.1396
12906SOL    HW142224   4.740   1.796   4.316  3.3508  0.5957 -0.2062
12906SOL    HW242225   4.704   1.811   4.475  0.6325 -1.3913 -0.6078
12907SOL     OW42226   0.424   6.987   0.601 -0.0067  0.4562  0.4109
12907SOL    HW142227   0.442   6.993   0.699 -0.7341  1.5530  0.4812
12907SOL    HW242228   0.510   6.997   0.551  0.4587 -0.7025  0.9398
12908SOL     OW42229   7.590   0.317   5.348 -0.4815  0.2913  0.4943
12908SOL    HW142230   7.494   0.297   5.328 -0.5879 -0.5780  1.8103
12908SOL    HW242231   7.602   0.328   5.446  0.5188  1.8145  0.2194
12910SOL     OW42232   7.266   6.453   6.355 -0.2352 -0.0779 -0.7416
12910SOL    HW142233   7.223   6.533   6.397  0.9074 -0.0420  0.3628
12910SOL    HW242234   7.307   6.480   6.267 -2.6018 -0.1517 -1.9178
12911SOL     OW42235   1.461   6.735   6.189  0.8043  0.3044 -0.0825
12911SOL    HW142236   1.554   6.770   6.188  0.8322  0.2928  1.0705
12911SOL    HW242237   1.411   6.776   6.266 -0.2627  0.6244 -0.9293
12912SOL     OW42238   4.190   4.128   6.153 -0.1950 -0.1482 -0.0911
12912SOL    HW142239   4.203   4.151   6.056 -2.5985  0.1308 -0.3815
12912SOL    HW242240   4.145   4.205   6.199  0.6181 -0.4282  1.1792
12914SOL     OW42241   1.557   8.484   5.188  0.7789  0.0134  0.3470
12914SOL    HW142242   1.615   8.549   5.238  0.6666 -0.0099  0.5101
12914SOL    HW242243   1.589   8.391   5.207  0.8276  0.0118  0.2578
12915SOL     OW42244   6.947   4.872   2.014 -0.5208  0.3988 -0.4188
12915SOL    HW142245   6.939   4.950   2.076  2.1569  0.7340 -0.4675
12915SOL    HW242246   7.011   4.894   1.941 -0.4628 -1.5276 -0.9764
12916SOL     OW42247   7.106   0.058   4.156 -0.4138  0.1633 -0.1928
12916SOL    HW142248   7.075  -0.037   4.149  1.1549 -0.6487  3.0878
12916SOL    HW242249   7.185   0.071   4.097  0.0244 -0.8806  0.1539
12917SOL     OW42250   7.841   5.807   6.221  0.2128  0.0104 -0.5787
12917SOL    HW142251   7.756   5.827   6.171 -0.6875  0.0267  0.9331
12917SOL    HW242252   7.832   5.838   6.316  1.7621 -0.3830 -0.2897
12918SOL     OW42253   3.680   5.066   0.298 -0.4395  0.5116  0.2914
12918SOL    HW142254   3.645   5.022   0.381 -0.2011  1.2380  0.7838
12918SOL    HW242255   3.636   5.026   0.218 -1.8767  0.9140  0.8582
12919SOL     OW42256   7.648   2.815   3.070 -0.5276  0.6099  0.0638
12919SOL    HW142257   7.630   2.722   3.041 -1.3971  0.7224  0.2421
12919SOL    HW242258   7.615   2.828   3.164  0.7952  0.7123  0.5291
12920SOL     OW42259   6.283   8.542   3.160  0.7319 -0.2266  0.1526
12920SOL    HW142260   6.275   8.600   3.079  0.5837 -0.5887 -0.0891
12920SOL    HW242261   6.192   8.517   3.193  0.7583  0.9179  1.1447
12922SOL     OW42262   0.781   1.717   4.698 -0.6859 -0.7611  0.1026
12922SOL    HW142263   0.809   1.636   4.749  0.2711 -0.7731 -0.4281
12922SOL    HW242264   0.823   1.799   4.738  1.4979 -0.9533 -1.6764
12923SOL     OW42265   9.103   7.051   4.170  0.3329 -0.1952  0.0798
12923SOL    HW142266   9.198   7.020   4.161  0.7450  1.0685 -0.0983
12923SOL    HW242267   9.041   6.978   4.142  1.2896 -0.6825 -0.8124
12924SOL     OW42268   4.304   2.860   5.968  0.0133  0.3144 -0.3809
12924SOL    HW142269   4.247   2.778   5.976  0.9874 -0.3169  0.1762
12924SOL    HW242270   4.291   2.901   5.878 -4.1358  2.3152  1.0042
12925SOL     OW42271   8.520   9.431   5.899  0.6579 -0.2205 -0.1610
12925SOL    HW142272   8.482   9.471   5.815 -1.4068 -1.6407  0.0701
12925SOL    HW242273   8.490   9.484   5.978 -0.5075 -1.0850 -0.0156
12926SOL     OW42274   8.727   9.721   6.102  0.4649  0.0169 -0.4420
12926SOL    HW142275   8.701   9.685   6.191  2.0740 -1.1811 -0.4171
12926SOL    HW242276   8.806   9.782   6.112  0.8866 -0.4145 -1.0595
12928SOL     OW42277   9.142   4.580   2.744 -0.1539  0.3038 -0.4178
12928SOL    HW142278   9.097   4.663   2.776  0.9618  0.2675  1.3005
12928SOL    HW242279   9.123   4.505   2.807  0.6642 -0.2020 -0.7651
12931SOL     OW42280   8.675   0.776   1.420 -0.0696 -0.2835  0.0867
12931SOL    HW142281   8.588   0.726   1.422  0.2065 -0.7759 -0.4801
12931SOL    HW242282   8.656   0.874   1.406 -0.4759 -0.5405 -1.2109
12932SOL     OW42283   1.651   5.426   2.130 -0.3621 -0.4015 -0.1162
12932SOL    HW142284   1.705   5.479   2.195 -0.5734  0.9947 -1.0670
12932SOL    HW242285   1.687   5.439   2.038  0.4045 -2.9560 -0.2341
12933SOL     OW42286   6.556   9.324   4.792  0.4046  0.3334  0.0478
12933SOL    HW142287   6.543   9.288   4.700  0.8961 -0.3825  0.2552
12933SOL    HW242288   6.646   9.297   4.826 -0.0384  0.0384  0.9925
12935SOL     OW42289   4.253   2.503   0.223 -0.0625 -0.1385  1.2460
12935SOL    HW142290   4.279   2.599   0.231  2.4067 -0.6121 -0.5851
12935SOL    HW242291   4.296   2.451   0.297  0.2838 -0.1519  1.0367
12936SOL     OW42292   8.289   4.683   4.748  0.4119  0.2507  0.2434
12936SOL    HW142293   8.218   4.657   4.813  0.2334 -0.7474 -0.3409
12936SOL    HW242294   8.379   4.666   4.789  0.3171  1.3253  0.9068
12937SOL     OW42295   5.599   9.508   1.802  0.5742  0.1381  0.4024
12937SOL    HW142296   5.551   9.560   1.731 -1.7231 -2.2921  0.1043
12937SOL    HW242297   5.677   9.461   1.761 -1.2437 -1.9437 -0.7609
12938SOL     OW42298   0.522   5.551   1.858 -0.3430  0.0984 -0.4919
12938SOL    HW142299   0.503   5.599   1.772 -3.2880 -1.6435 -0.9037
12938SOL    HW242300   0.513   5.452   1.843  0.6877 -0.3156  1.4614
12940SOL     OW42301   9.385   5.842   2.059 -0.7368 -0.3447 -0.2654
12940SOL    HW142302   9.456   5.779   2.028 -0.6012 -0.1100 -0.4392
12940SOL    HW242303   9.416   5.936   2.045 -0.6518 -0.2342  0.6349
12941SOL     OW42304   2.030   1.426   0.828 -0.1450 -0.0405  0.5983
12941SOL    HW142305   2.082   1.380   0.900  0.1465  1.1388  1.1676
12941SOL    HW242306   2.093   1.469   0.763 -0.3217  2.7718  2.1758
12942SOL     OW42307   6.262   0.907   1.616  0.0629 -0.1073  0.2818
12942SOL    HW142308   6.315   0.827   1.644  2.5858  0.9608 -1.2498
12942SOL    HW242309   6.246   0.967   1.695  1.5527 -0.2287  0.6892
12943SOL     OW42310   8.212   2.085   0.514  0.0829 -0.6805  0.3621
12943SOL    HW142311   8.136   2.108   0.454 -0.6134 -1.7183  0.8318
12943SOL    HW242312   8.284   2.154   0.505 -1.2749  0.7848  0.5507
12944SOL     OW42313   0.765   5.523   5.583  0.2877  0.5659  0.0237
12944SOL    HW142314   0.774   5.522   5.683  1.7338 -0.0492 -0.0923
12944SOL    HW242315   0.825   5.593   5.545 -0.8093  1.2985 -0.3801
12946SOL     OW42316   2.236   8.823   0.168 -0.5666  0.2352  0.0002
12946SOL    HW142317   2.148   8.790   0.134  0.3550  0.2394 -2.4826
12946SOL    HW242318   2.292   8.745   0.198 -1.2421  0.1986  1.1810
12947SOL     OW42319   9.063   6.324   5.855  0.1963 -0.9305  0.0940
12947SOL    HW142320   9.069   6.230   5.889 -0.2442 -0.2306  2.1771
12947SOL    HW242321   9.156   6.360   5.839  0.4854 -0.7469  2.0886
12948SOL     OW42322   1.324   3.331   1.506 -0.4365 -0.1446  0.2095
12948SOL    HW142323   1.409   3.279   1.501 -0.7948 -0.7342  0.2572
12948SOL    HW242324   1.290   3.332   1.600 -0.3807  0.2596  0.2280
12949SOL     OW42325   1.855   6.968   5.171 -0.5021  0.0660  0.0742
12949SOL    HW142326   1.896   7.056   5.147  1.7224 -0.5296  1.4298
12949SOL    HW242327   1.847   6.911   5.090  3.1159 -0.4388 -0.0079
12951SOL     OW42328   1.499   4.631   3.610  0.0641  0.6499 -0.7072
12951SOL    HW142329   1.524   4.547   3.563 -0.8171  0.4614 -0.8496
12951SOL    HW242330   1.558   4.643   3.691 -1.7058 -1.6318  0.9866
12952SOL     OW42331   8.640   1.857   1.198 -0.0898 -0.1328 -0.2243
12952SOL    HW142332   8.692   1.934   1.235  1.6442 -0.6453 -1.5349
12952SOL    HW242333   8.658   1.775   1.252 -0.3909 -0.0621 -0.0176
12953SOL     OW42334   5.015   2.085   2.688 -0.2350 -0.2476 -0.2610
12953SOL    HW142335   4.952   2.126   2.622 -1.9568  0.5440  1.8321
12953SOL    HW242336   4.971   2.007   2.732  0.5888 -0.2226  0.6199
12954SOL     OW42337   4.461   5.234   2.170  0.2134  0.1834 -0.1444
12954SOL    HW142338   4.486   5.158   2.230  2.0689 -0.3450 -1.5350
12954SOL    HW242339   4.368   5.264   2.191  0.0167 -1.4514  1.4616
12955SOL     OW42340   4.457   6.701   0.433  0.3125  0.1100 -0.7146
12955SOL    HW142341   4.397   6.781   0.427  1.5099  0.9844 -1.3559
12955SOL    HW242342   4.420   6.629   0.374  0.3775  0.9750 -1.8550
12956SOL     OW42343   2.520   0.968   6.376  0.0797 -0.1759 -0.3097
12956SOL    HW142344   2.422   0.974   6.360  0.3229  0.0292 -1.7654
12956SOL    HW242345   2.551   0.874   6.359  0.3400  0.0474 -1.1066
12958SOL     OW42346   8.645   9.253   3.992  0.5133  0.2228  0.3700
12958SOL    HW142347   8.629   9.266   3.895  1.5007  1.7518  0.3875
12958SOL    HW242348   8.577   9.305   4.044 -1.1558 -2.0570  0.5360
12959SOL     OW42349   6.471   8.406   5.605  0.5307  0.3458  0.0521
12959SOL    HW142350   6.467   8.384   5.703  1.3315 -0.7623 -0.1609
12959SOL    HW242351   6.473   8.322   5.552 -1.9731  0.9386 -1.0283
12960SOL     OW42352   9.098   0.259   1.481  0.4190 -0.1124 -0.2155
12960SOL    HW142353   9.102   0.169   1.523 -0.0959  0.4459  1.0697
12960SOL    HW242354   9.148   0.325   1.538 -0.3320  0.6641 -0.4390
12961SOL     OW42355   1.791   3.109   2.604  0.3634 -0.0092  0.1123
12961SOL    HW142356   1.784   3.019   2.648 -1.1064 -0.0283 -0.1372
12961SOL    HW242357   1.699   3.146   2.591  0.9952  1.9037  0.9612
12962SOL     OW42358   2.234   5.391   5.028  0.2483  0.0420  0.0445
12962SOL    HW142359   2.196   5.426   4.942 -0.5999  0.0711  0.4268
12962SOL    HW242360   2.169   5.328   5.070  2.4004 -3.2363 -1.4044
12963SOL     OW42361   5.449   8.726   5.459 -0.7143 -0.1794  0.2197
12963SOL    HW142362   5.491   8.776   5.535  0.2207 -0.0963 -0.3474
12963SOL    HW242363   5.520   8.694   5.397 -1.3930 -1.2770  0.0045
12964SOL     OW42364   8.221   8.127   5.918 -0.3314 -0.1083 -0.1762
12964SOL    HW142365   8.262   8.173   5.839 -0.2078  0.6869  0.3436
12964SOL    HW242366   8.176   8.195   5.976 -0.1994 -0.6569  0.5716
12965SOL     OW42367   0.121   6.662   4.830 -0.2031 -0.4225  0.2887
12965SOL    HW142368   0.183   6.606   4.775  0.7965 -1.3624  2.3264
12965SOL    HW242369   0.059   6.603   4.881  0.0236  0.3559  1.4917
12966SOL     OW42370   5.753   4.878   0.687  0.2753 -0.2063 -0.4238
12966SOL    HW142371   5.684   4.832   0.741 -1.4670  1.1793 -1.4313
12966SOL    HW242372   5.830   4.903   0.745 -0.5760 -0.7214  0.9371
12968SOL     OW42373   2.329   7.122   0.560 -0.2653 -0.2568  0.2995
12968SOL    HW142374   2.229   7.119   0.568 -0.1735  0.3265  1.8323
12968SOL    HW242375   2.365   7.193   0.621  1.0227  0.1455 -0.9124
12969SOL     OW42376   2.368   3.220   4.063  0.2280 -0.4104  0.2549
12969SOL    HW142377   2.305   3.237   4.138  0.4717  0.8324  0.1918
12969SOL    HW242378   2.347   3.132   4.021 -1.5956  0.0814  0.0943
12970SOL     OW42379   3.134   2.418   5.960 -0.0986  0.2815  0.2287
12970SOL    HW142380   3.147   2.334   6.012  1.7251 -0.1292 -0.8432
12970SOL    HW242381   3.190   2.491   5.999 -0.1928  0.4779 -0.0010
12971SOL     OW42382   8.516   6.152   3.747  0.7511  0.3419 -0.3974
12971SOL    HW142383   8.421   6.176   3.762  0.3021 -1.6578  0.1536
12971SOL    HW242384   8.543   6.080   3.811  2.6921  1.0221 -0.4104
12972SOL     OW42385   9.032   9.510   6.190 -0.5187  0.3519 -0.0569
12972SOL    HW142386   8.960   9.514   6.121 -1.4020  1.4282  0.9045
12972SOL    HW242387   9.066   9.602   6.209  0.9798 -0.1239 -0.3505
12973SOL     OW42388   2.018   4.540   5.239  0.0620  0.0968  0.2025
12973SOL    HW142389   2.088   4.521   5.307 -0.6178 -1.7533  0.4083
12973SOL    HW242390   1.969   4.624   5.264  0.6784  0.1363  1.2867
12974SOL     OW42391   9.254   9.373   6.126  0.0202 -0.2210  0.3779
12974SOL    HW142392   9.176   9.430   6.103  1.5095  1.3686 -0.8759
12974SOL    HW242393   9.245   9.340   6.220 -2.4317 -0.5876  0.0436
12975SOL     OW42394   4.880   3.846   2.112 -0.4443  0.1958 -0.1038
12975SOL    HW142395   4.830   3.897   2.043 -0.9918  0.8374  0.7584
12975SOL    HW242396   4.821   3.830   2.191  1.6167  3.7866  2.3214
12976SOL     OW42397   1.250   8.626   0.698  0.0694 -0.5652 -0.6427
12976SOL    HW142398   1.246   8.705   0.637 -1.1048 -1.1754 -1.3959
12976SOL    HW242399   1.222   8.653   0.790  1.5748  0.3044 -0.4391
12977SOL     OW42400   2.385   3.147   5.564 -0.0388  0.1384 -0.1510
12977SOL    HW142401   2.315   3.216   5.547 -0.9844 -0.8911 -0.5350
12977SOL    HW242402   2.474   3.182   5.536 -0.6945  0.7293 -1.5636
12978SOL     OW42403   0.515   1.312   4.045  0.1366 -0.1030 -0.1427
12978SOL    HW142404   0.470   1.248   3.982 -0.4581  0.5679 -0.4060
12978SOL    HW242405   0.470   1.401   4.040  1.3777  0.5299 -0.2713
12980SOL     OW42406   4.006   0.642   3.075  0.1156 -0.4770  0.3060
12980SOL    HW142407   3.957   0.625   2.989 -0.0572  0.0678  0.2910
12980SOL    HW242408   4.016   0.741   3.088 -1.4263 -0.4849  1.7716
12981SOL     OW42409   1.258   8.160   0.876  0.3659 -0.2469  0.3226
12981SOL    HW142410   1.162   8.171   0.902  0.4273 -0.5280  0.6704
12981SOL    HW242411   1.315   8.157   0.959  0.4667 -2.0699  0.2025
12982SOL     OW42412   1.792   5.218   4.506  0.3511  0.0831 -0.3128
12982SOL    HW142413   1.837   5.217   4.417 -0.1202  0.2980 -0.5529
12982SOL    HW242414   1.695   5.193   4.495  0.7612 -1.8993  0.3874
12983SOL     OW42415   4.115   0.521   6.057  0.6980  0.6313 -0.2846
12983SOL    HW142416   4.039   0.505   5.994  0.6472 -2.7859  0.5396
12983SOL    HW242417   4.200   0.494   6.014  1.0212  1.0768  0.0693
12984SOL     OW42418   9.413   1.162   0.383 -0.1608 -0.1282 -0.1641
12984SOL    HW142419   9.335   1.185   0.442 -1.0117 -0.2535 -1.2162
12984SOL    HW242420   9.383   1.099   0.312  1.1835 -1.0936  0.1113
12986SOL     OW42421   0.199   6.265   1.854  0.0737 -0.1564 -0.1835
12986SOL    HW142422   0.243   6.264   1.944  0.6224 -3.0262 -0.4253
12986SOL    HW242423   0.100   6.264   1.865  0.0984  2.1107  0.3740
12987SOL     OW42424   3.700   6.161   0.842 -0.0400 -0.1404 -0.2482
12987SOL    HW142425   3.784   6.107   0.837 -0.3098 -0.4380 -1.7793
12987SOL    HW242426   3.721   6.258   0.830 -0.1801 -0.4510 -3.7309
12989SOL     OW42427   8.410   2.549   5.018  0.6360 -0.1302  0.4087
12989SOL    HW142428   8.452   2.616   5.079  2.1843  0.6203 -1.4494
12989SOL    HW242429   8.372   2.595   4.939  0.5722 -1.3117 -0.2567
12990SOL     OW42430   4.249   4.998   3.560  0.1661 -0.4610  0.0532
12990SOL    HW142431   4.169   5.036   3.512  1.0887 -0.2530 -1.3664
12990SOL    HW242432   4.254   5.036   3.652 -0.7012  0.4451 -0.2616
12991SOL     OW42433   1.808   0.927   4.915 -0.0947  0.5420  0.2755
12991SOL    HW142434   1.886   0.976   4.955  0.3831  0.7347 -0.8636
12991SOL    HW242435   1.723   0.973   4.941  0.2675  1.2272  0.2762
12992SOL     OW42436   6.650   5.697   0.219  0.4100 -0.4637 -0.0477
12992SOL    HW142437   6.677   5.761   0.292  0.9084 -0.0022 -0.6334
12992SOL    HW242438   6.551   5.682   0.222  0.1984  0.8348 -0.3100
12994SOL     OW42439   8.754   7.178   1.236  0.7578 -0.3647  0.4442
12994SOL    HW142440   8.730   7.086   1.265 -0.8102 -0.2254 -0.3540
12994SOL    HW242441   8.722   7.245   1.303 -0.9806 -0.1934 -0.5223
12995SOL     OW42442   9.751   5.365   2.908  0.4322 -0.5240 -0.5365
12995SOL    HW142443   9.659   5.339   2.938 -0.2700  0.4004 -1.8295
12995SOL    HW242444   9.818   5.300   2.945 -0.7980 -1.5593 -0.0918
12996SOL     OW42445   7.584   5.969   5.631  0.1390  0.3568  0.0404
12996SOL    HW142446   7.663   5.985   5.690 -0.7317  1.7238  0.8576
12996SOL    HW242447   7.500   5.967   5.686 -0.5784  0.6346 -1.0158
12997SOL     OW42448   8.207   9.282   2.465  0.5044 -0.3532 -0.2918
12997SOL    HW142449   8.229   9.276   2.563 -1.2716  1.1276  0.2212
12997SOL    HW242450   8.219   9.376   2.434 -0.6053 -0.4690 -1.0884
12998SOL     OW42451   9.495   2.363   1.757  0.1841 -0.3451  0.1180
12998SOL    HW142452   9.548   2.302   1.698  0.7127 -1.2178  1.4653
12998SOL    HW242453   9.423   2.311   1.803 -0.3621  0.3740  0.0916
12999SOL     OW42454   0.663   5.360   3.655 -0.1153  0.0076 -0.0490
12999SOL    HW142455   0.757   5.386   3.634  0.2807 -1.4675 -0.1523
12999SOL    HW242456   0.600   5.421   3.607  0.7856  0.5521 -0.5519
13000SOL     OW42457   1.358   5.840   3.458 -0.3945 -0.1126  0.2866
13000SOL    HW142458   1.437   5.889   3.494  0.5028 -2.2617  1.3322
13000SOL    HW242459   1.282   5.847   3.522 -0.8411  1.3491 -0.3830
13001SOL     OW42460   7.312   9.505   2.924 -0.0503  0.0814  0.3399
13001SOL    HW142461   7.253   9.435   2.884  0.7510  0.9153 -2.4658
13001SOL    HW242462   7.406   9.491   2.891 -0.1083  3.1835 -1.2882
13003SOL     OW42463   9.346   6.920   5.852 -0.3277 -0.0127 -0.1516
13003SOL    HW142464   9.401   6.837   5.866 -0.0695  0.3741  1.2009
13003SOL    HW242465   9.267   6.899   5.796  0.3991 -0.9145 -0.8495
13004SOL     OW42466   8.793   3.469   4.068 -0.3084  0.0796  0.4948
13004SOL    HW142467   8.773   3.371   4.069 -0.9238  0.1425 -1.9707
13004SOL    HW242468   8.707   3.520   4.060  0.1571  0.6957 -0.7912
13006SOL     OW42469   0.301   7.535   3.381  0.3558 -0.3964 -0.4872
13006SOL    HW142470   0.351   7.516   3.465  1.1864  2.0752 -0.3827
13006SOL    HW242471   0.363   7.526   3.302  0.2255 -0.1827 -0.6142
13008SOL     OW42472   7.082   2.813   1.785 -0.2863 -0.3972  0.4630
13008SOL    HW142473   7.166   2.760   1.786 -0.0250  0.0167  0.8038
13008SOL    HW242474   7.007   2.757   1.751  0.4275 -0.3120 -1.2717
13009SOL     OW42475   6.061   0.383   2.693  0.2151  0.2470 -0.2935
13009SOL    HW142476   6.137   0.333   2.735 -0.4404 -0.5509 -0.0258
13009SOL    HW242477   5.982   0.381   2.755 -0.1193  0.8094 -0.6945
13010SOL     OW42478   9.072   9.871   3.032 -0.0920  0.7125 -0.0667
13010SOL    HW142479   9.070   9.789   3.089  0.2065  0.2955 -0.6554
13010SOL    HW242480   9.103   9.949   3.087  2.9644 -0.2468 -0.3747
13011SOL     OW42481   1.567   4.499   2.068 -0.0223 -0.0568  0.5973
13011SOL    HW142482   1.602   4.413   2.106  1.0156  0.4230  0.7488
13011SOL    HW242483   1.479   4.521   2.111 -0.0282 -0.7535  0.9590
13012SOL     OW42484   0.507   7.109   5.649  0.6111 -0.0248 -0.2016
13012SOL    HW142485   0.431   7.056   5.612  1.6402 -0.5142 -1.6236
13012SOL    HW242486   0.516   7.195   5.598  2.4974 -1.0304 -1.6313
13013SOL     OW42487   4.411   7.069   2.006  0.0625  0.1717 -0.0285
13013SOL    HW142488   4.490   7.084   2.066 -0.1568  1.3701 -0.0253
13013SOL    HW242489   4.387   6.972   2.006 -0.3554  0.2608  2.3362
13014SOL     OW42490   2.909   7.938   5.471  0.1373  0.2454 -0.1589
13014SOL    HW142491   2.835   7.882   5.435  1.7199 -0.5458 -2.2790
13014SOL    HW242492   2.899   7.947   5.570 -2.9477  0.4322 -0.4549
13015SOL     OW42493   6.156   8.103   6.441  0.0837 -0.4723 -0.2897
13015SOL    HW142494   6.195   8.150   6.362  0.8450  1.8708  1.4271
13015SOL    HW242495   6.096   8.165   6.491  3.2188 -0.2637  3.5790
13016SOL     OW42496   8.396   5.195   3.149 -0.1046  0.3084  0.1867
13016SOL    HW142497   8.421   5.265   3.082  3.0297  1.0287  1.9971
13016SOL    HW242498   8.349   5.238   3.226 -1.3065 -0.1283 -0.2894
13017SOL     OW42499   8.035   1.384   0.442  0.2448 -0.0898  0.0572
13017SOL    HW142500   8.128   1.420   0.447  0.2563 -0.0464 -0.5304
13017SOL    HW242501   8.033   1.306   0.379  0.2445 -1.1917  1.3883
13018SOL     OW42502   0.244   3.646   5.053  0.4996 -0.5969  0.4620
13018SOL    HW142503   0.330   3.695   5.068 -0.4083  1.0689  0.3008
13018SOL    HW242504   0.236   3.573   5.122  2.3571 -1.2491  0.0350
13019SOL     OW42505   4.665   7.581   4.144 -0.1144 -0.2445  0.2201
13019SOL    HW142506   4.608   7.508   4.106 -0.5575  0.7592 -1.0666
13019SOL    HW242507   4.632   7.604   4.236 -2.1282  0.6793 -0.7081
13020SOL     OW42508   6.841   2.406   3.781  0.5117 -0.5561 -0.1253
13020SOL    HW142509   6.860   2.335   3.712 -2.8670 -1.2045 -0.4436
13020SOL    HW242510   6.771   2.468   3.746  0.7879  0.7790  1.6437
13021SOL     OW42511   1.229   8.067   1.545 -0.2934 -0.0097  0.3990
13021SOL    HW142512   1.327   8.088   1.546 -0.1837 -0.3525 -1.7385
13021SOL    HW242513   1.216   7.968   1.543 -0.7109  0.0227  1.1565
13023SOL     OW42514   9.086   2.529   1.893 -0.0539  0.4759 -0.2810
13023SOL    HW142515   9.116   2.475   1.971 -1.0589 -1.1975 -1.0057
13023SOL    HW242516   9.116   2.485   1.808 -0.1555  1.5242 -0.8738
13024SOL     OW42517   1.404   0.493   3.204  0.5007 -0.3780 -0.1104
13024SOL    HW142518   1.385   0.395   3.196  1.7520 -0.6278 -0.2144
13024SOL    HW242519   1.414   0.533   3.113  0.0328 -0.1610 -0.0671
13025SOL     OW42520   6.720   8.779   3.166 -0.3932 -0.8168 -0.9247
13025SOL    HW142521   6.688   8.866   3.205  1.4649 -0.5774  0.1592
13025SOL    HW242522   6.678   8.703   3.216 -0.7115 -0.5310 -0.7499
13026SOL     OW42523   9.315   8.009   3.144  0.7822  0.6011  0.4341
13026SOL    HW142524   9.216   8.025   3.141  0.8011  0.6228 -0.0308
13026SOL    HW242525   9.347   8.019   3.238  0.3021  0.3475  0.6271
13028SOL     OW42526   1.698   6.814   5.394  0.2767  0.1593 -0.0916
13028SOL    HW142527   1.736   6.880   5.329 -0.3537  0.8468  0.2235
13028SOL    HW242528   1.641   6.748   5.345 -2.8790  2.5969  0.0536
13029SOL     OW42529   9.149   3.119   1.165 -0.4668 -0.2677  0.8802
13029SOL    HW142530   9.135   3.059   1.244  0.3186  0.4606  1.5812
13029SOL    HW242531   9.238   3.099   1.125 -0.7893 -0.5093  0.2840
13030SOL     OW42532   9.110   9.404   5.503 -0.1144 -0.1886  0.2980
13030SOL    HW142533   9.141   9.485   5.453 -0.5669  0.2602  0.7380
13030SOL    HW242534   9.045   9.353   5.446 -0.7714  0.4227  0.4942
13031SOL     OW42535   6.885   6.669   5.498 -0.0331 -0.1008  0.3674
13031SOL    HW142536   6.930   6.688   5.585  2.2815  2.7888 -1.3629
13031SOL    HW242537   6.952   6.638   5.432 -1.4687 -0.5236 -0.9256
13032SOL     OW42538   6.523   0.852   6.382  0.2349  0.9024  0.2080
13032SOL    HW142539   6.499   0.776   6.321  0.2185  0.9050  0.2115
13032SOL    HW242540   6.518   0.938   6.331 -0.5727  0.9866  0.4244
13033SOL     OW42541   1.294   7.362   0.021  0.4188  0.4214  0.4603
13033SOL    HW142542   1.377   7.307   0.033  0.5677  0.2648 -1.2134
13033SOL    HW242543   1.217   7.302   0.001  0.2654  0.7124  0.1833
13034SOL     OW42544   3.399   1.194   0.064 -0.0259 -0.4814  0.4234
13034SOL    HW142545   3.382   1.292   0.077 -0.8525 -0.5234 -0.3153
13034SOL    HW242546   3.497   1.177   0.073  0.0552  0.3193  1.1532
13035SOL     OW42547   2.059   8.273   2.823  0.4824 -0.5657 -0.6380
13035SOL    HW142548   2.145   8.250   2.778  0.8429  1.3025 -0.9258
13035SOL    HW242549   2.062   8.367   2.856 -0.8356 -1.0013  0.8194
13036SOL     OW42550   9.309   8.037   4.836  0.8466 -0.0471  0.2817
13036SOL    HW142551   9.320   7.938   4.825 -4.8586 -1.0070  1.1868
13036SOL    HW242552   9.378   8.085   4.783  2.1519 -4.5376 -2.3418
13038SOL     OW42553   9.694   7.024   4.494  0.5243  0.4306 -0.8544
13038SOL    HW142554   9.745   6.946   4.457 -0.5735 -0.2755 -0.9031
13038SOL    HW242555   9.609   7.035   4.442 -0.6577 -0.0689  0.9284
13040SOL     OW42556   3.128   3.198   2.192 -0.0670 -0.1175  0.1357
13040SOL    HW142557   3.100   3.293   2.181  0.2282  0.0108  0.4485
13040SOL    HW242558   3.180   3.189   2.277  1.9360 -0.0841 -1.0517
13041SOL     OW42559   0.280   4.370   1.690  0.1131  0.3079  0.8199
13041SOL    HW142560   0.260   4.463   1.661  1.5002  0.6234  0.8569
13041SOL    HW242561   0.322   4.320   1.614  0.4787  0.0798  1.1722
13042SOL     OW42562   5.036   9.455   5.956 -0.0708  0.3134  0.2174
13042SOL    HW142563   5.063   9.359   5.947  0.2704  0.1771  2.4853
13042SOL    HW242564   5.107   9.506   6.004 -1.1975  1.2437  0.9239
13043SOL     OW42565   1.753   7.693   0.095  0.1440 -0.0144  0.1912
13043SOL    HW142566   1.661   7.694   0.134 -0.0104  1.7736 -0.1665
13043SOL    HW242567   1.746   7.690  -0.005  0.5029 -1.6551  0.2064
13045SOL     OW42568   5.616   0.888   4.940 -0.9110 -0.0148  0.3366
13045SOL    HW142569   5.552   0.965   4.945  0.7424  1.4722 -1.0728
13045SOL    HW242570   5.565   0.805   4.913 -2.3191  1.0620 -0.4227
13046SOL     OW42571   1.965   5.524   1.197 -0.1649  0.9046  0.1593
13046SOL    HW142572   1.939   5.430   1.176  0.6166  0.2529  2.0056
13046SOL    HW242573   1.943   5.583   1.119 -2.2400 -0.5016 -0.3594
13047SOL     OW42574   8.620   6.291   2.824 -0.0741  0.2113 -0.0327
13047SOL    HW142575   8.559   6.258   2.752  0.0912 -0.4769  0.1426
13047SOL    HW242576   8.715   6.267   2.800 -0.2463 -2.4558  1.7240
13048SOL     OW42577   4.158   2.452   4.779 -0.3637 -0.7332  0.3828
13048SOL    HW142578   4.149   2.542   4.737 -0.6050 -1.2910 -0.7602
13048SOL    HW242579   4.177   2.463   4.877 -1.3415  0.5506  0.4402
13049SOL     OW42580   3.683   8.969   4.327 -0.3846 -0.4077 -0.4489
13049SOL    HW142581   3.738   8.968   4.410  0.0946 -1.0764 -0.7703
13049SOL    HW242582   3.591   8.934   4.348 -0.8355  1.1335  0.1770
13051SOL     OW42583   0.124   1.392   1.381 -0.1139 -0.0796  0.0711
13051SOL    HW142584   0.035   1.437   1.374 -0.4387 -0.6919  0.2209
13051SOL    HW242585   0.113   1.303   1.426  0.7066  0.2288  0.8988
13053SOL     OW42586   4.591   5.111   1.237  0.8719  0.5691 -0.1029
13053SOL    HW142587   4.631   5.044   1.173  1.0514 -1.4268  2.0618
13053SOL    HW242588   4.500   5.136   1.205  0.2191 -1.7844 -0.2298
13055SOL     OW42589   9.101   3.435   5.855  0.3754 -0.0177 -0.4680
13055SOL    HW142590   9.189   3.459   5.895  0.2707 -1.7575  0.8601
13055SOL    HW242591   9.031   3.435   5.926 -0.7085  1.3901 -1.5290
13056SOL     OW42592   2.519   3.998   4.391  0.1472 -0.1587 -0.1675
13056SOL    HW142593   2.583   3.928   4.425  0.6868 -0.1223 -1.0923
13056SOL    HW242594   2.446   3.954   4.339  0.2579 -0.0782 -0.3945
13057SOL     OW42595   7.059   2.126   4.848  0.3510 -0.0478 -0.0461
13057SOL    HW142596   7.006   2.181   4.783  0.6049 -0.9425 -1.0214
13057SOL    HW242597   7.150   2.165   4.859  0.4200 -0.0853 -0.4852
13058SOL     OW42598   1.708   9.953   5.099  0.3769  0.2315  0.0331
13058SOL    HW142599   1.634  10.002   5.145  0.1095  0.5247 -0.6899
13058SOL    HW242600   1.793  10.006   5.106  0.4021  0.1386  0.4271
13059SOL     OW42601   7.322   7.629   3.635  0.7469 -0.6342  0.4047
13059SOL    HW142602   7.233   7.634   3.680  0.3209  0.7123 -0.5658
13059SOL    HW242603   7.392   7.668   3.694  0.3148  0.4138  0.2250
13060SOL     OW42604   0.638   8.129   4.705 -0.7596  0.3644  0.3869
13060SOL    HW142605   0.628   8.041   4.660 -0.0313  0.9407 -0.9415
13060SOL    HW242606   0.585   8.130   4.790 -0.7870 -1.3273  0.3964
13061SOL     OW42607   3.126   6.678   4.219  0.0622 -0.3175  0.1312
13061SOL    HW142608   3.175   6.651   4.301  1.7509 -0.4481 -0.8830
13061SOL    HW242609   3.033   6.643   4.222 -1.0943  2.8155  3.6568
13062SOL     OW42610   8.072   5.525   0.803 -0.3332  0.4217 -0.3022
13062SOL    HW142611   8.026   5.437   0.807  0.1665  0.1048 -1.2543
13062SOL    HW242612   8.095   5.555   0.895  0.8206 -1.1599 -0.0454
13063SOL     OW42613   9.597   1.690   5.053  0.2514  0.1857  0.0658
13063SOL    HW142614   9.676   1.675   4.994  0.4833  1.4768  0.0332
13063SOL    HW242615   9.627   1.689   5.149 -0.2334 -2.6008  0.2219
13064SOL     OW42616   7.943   6.569   1.337  0.2281  0.4804  0.0561
13064SOL    HW142617   7.988   6.488   1.298 -0.4804  1.2505 -2.4758
13064SOL    HW242618   7.904   6.624   1.263 -1.9431  1.5828  1.9731
13066SOL     OW42619   6.687   7.651   5.758 -0.5915  0.1633  0.5417
13066SOL    HW142620   6.678   7.554   5.734  0.0576  0.6832 -1.9457
13066SOL    HW242621   6.597   7.690   5.774 -1.1598  0.0710 -2.3104
13067SOL     OW42622   3.770   6.115   3.048  0.4181 -0.5299  0.3426
13067SOL    HW142623   3.770   6.211   3.076  1.7059  0.0430 -1.4779
13067SOL    HW242624   3.729   6.108   2.956 -0.0271 -1.7731  0.6299
13069SOL     OW42625   2.488   3.245   4.437 -0.4860 -0.0198 -0.3739
13069SOL    HW142626   2.460   3.295   4.519  0.6127 -0.4841  0.2905
13069SOL    HW242627   2.517   3.309   4.367  2.2409  0.2660  0.9540
13072SOL     OW42628   9.687   6.501   4.939 -0.5371  0.0841  0.0842
13072SOL    HW142629   9.686   6.596   4.972  0.4959 -0.4969  1.8499
13072SOL    HW242630   9.614   6.449   4.985  2.2277 -1.2464  3.1169
13073SOL     OW42631   7.970   8.354   1.864  0.0939  0.2337 -0.2490
13073SOL    HW142632   8.029   8.361   1.944  0.4017 -0.9344 -0.3518
13073SOL    HW242633   7.938   8.444   1.836  1.3609  0.8064  0.1662
13074SOL     OW42634   4.695   3.819   3.747 -0.2616 -0.1916 -0.7707
13074SOL    HW142635   4.695   3.914   3.778 -4.2053 -0.7979  1.4029
13074SOL    HW242636   4.617   3.803   3.686 -0.1973 -2.2547 -0.3521
13075SOL     OW42637   6.040   2.115   4.788 -0.2233  0.0099 -0.0319
13075SOL    HW142638   6.124   2.102   4.735  0.5290  0.5971  1.0235
13075SOL    HW242639   6.038   2.050   4.864 -0.4377  0.4206  0.3101
13076SOL     OW42640   9.509   7.948   0.072  0.0010  0.2127 -0.4749
13076SOL    HW142641   9.473   8.025   0.020 -2.3587 -0.3709  0.2682
13076SOL    HW242642   9.475   7.862   0.033 -0.4949 -0.2961  1.0578
13079SOL     OW42643   2.921   5.541   5.401 -0.2440  0.1873 -0.0943
13079SOL    HW142644   2.899   5.615   5.464 -0.8808 -0.4736  0.4754
13079SOL    HW242645   2.986   5.573   5.332  0.6044  0.8726  1.0115
13080SOL     OW42646   5.890   1.580   5.098 -0.4134 -0.0315  0.1376
13080SOL    HW142647   5.838   1.623   5.172 -0.6655  1.1939 -0.7347
13080SOL    HW242648   5.976   1.544   5.134 -0.9927 -0.3563  1.2165
13081SOL     OW42649   9.047   8.033   3.156 -0.2238 -0.5520  0.1105
13081SOL    HW142650   9.064   8.011   3.252  1.4265 -1.7912 -0.4476
13081SOL    HW242651   8.962   8.086   3.148 -0.9024 -1.3028  2.1392
13082SOL     OW42652   6.591   4.685   0.935 -0.0700 -0.4093  0.5956
13082SOL    HW142653   6.619   4.774   0.969 -0.4438  0.4781 -1.3780
13082SOL    HW242654   6.506   4.658   0.981 -0.0865  0.3490  1.0255
13084SOL     OW42655   5.782   5.323   1.486 -0.9724  0.6770 -0.5558
13084SOL    HW142656   5.716   5.252   1.460 -0.9340  0.6252 -0.5098
13084SOL    HW242657   5.742   5.413   1.468 -0.2967  0.6391 -2.4338
13087SOL     OW42658   4.325   8.542   0.472 -0.5340 -0.0801 -0.0088
13087SOL    HW142659   4.285   8.504   0.388  1.9958  0.1716 -1.3926
13087SOL    HW242660   4.417   8.576   0.452 -0.2231  0.7731  2.7045
13089SOL     OW42661   7.183   8.519   4.908  0.3332  0.9254 -0.1033
13089SOL    HW142662   7.098   8.486   4.867  1.5017 -1.7112 -0.4995
13089SOL    HW242663   7.237   8.441   4.939  2.1290  2.6259  1.1279
13090SOL     OW42664   3.895   9.393   1.081 -0.1221  0.0589  0.4208
13090SOL    HW142665   3.801   9.361   1.064  0.1280  0.2162 -1.4598
13090SOL    HW242666   3.894   9.468   1.146 -1.3476  0.2423  0.2040
13091SOL     OW42667   1.013   5.755   1.141  0.6052  0.8791 -0.2942
13091SOL    HW142668   0.950   5.824   1.177  0.4449  1.6801 -2.0440
13091SOL    HW242669   1.090   5.801   1.097  1.3815 -0.0937  0.0150
13092SOL     OW42670   7.702   6.269   3.755 -0.7492 -0.1531  0.3140
13092SOL    HW142671   7.622   6.251   3.698 -1.2193  2.1857  0.1803
13092SOL    HW242672   7.782   6.284   3.696 -0.7370 -0.0090  0.3686
13094SOL     OW42673   8.024   2.620   3.819  0.8325 -0.2660  0.0543
13094SOL    HW142674   7.990   2.652   3.908 -0.4906 -3.4383  0.7238
13094SOL    HW242675   8.117   2.584   3.830  0.7949 -0.3548  0.0819
13095SOL     OW42676   1.944   8.345   0.848 -0.0666 -0.5607  0.3831
13095SOL    HW142677   1.857   8.333   0.800  0.8696 -1.3618 -1.1649
13095SOL    HW242678   2.019   8.312   0.790  1.2730  0.1128  1.6905
13098SOL     OW42679   5.473   3.613   0.913 -0.1470  0.1598  0.2613
13098SOL    HW142680   5.438   3.668   0.989  0.8729  0.1378  0.7466
13098SOL    HW242681   5.535   3.668   0.858 -2.8060  0.9565 -2.0317
13102SOL     OW42682   4.338   8.265   5.550  0.2243 -0.1470  0.4097
13102SOL    HW142683   4.308   8.257   5.645 -0.9567 -0.2434  0.0358
13102SOL    HW242684   4.437   8.277   5.547  0.6969 -3.2216  1.5354
13103SOL     OW42685   9.253   1.970   3.626  0.1952 -0.1214  0.4916
13103SOL    HW142686   9.167   2.020   3.639 -1.4158 -1.9551 -2.5014
13103SOL    HW242687   9.329   2.034   3.629 -1.4376  1.8759  1.0032
13104SOL     OW42688   4.304   7.769   6.053  0.1345 -0.3231  0.0933
13104SOL    HW142689   4.302   7.790   6.151  0.1558  0.4832 -0.0820
13104SOL    HW242690   4.376   7.701   6.036 -0.9371 -1.6979  0.8742
13105SOL     OW42691   3.751   6.650   2.016 -0.0797  0.3051  0.0314
13105SOL    HW142692   3.793   6.613   1.933 -1.3501  1.5057 -1.1697
13105SOL    HW242693   3.823   6.675   2.081  0.8200 -3.5928  0.6308
13106SOL     OW42694   8.884   4.260   4.881 -0.2410  0.1725 -0.3272
13106SOL    HW142695   8.827   4.213   4.814 -0.1728 -1.9698  1.0497
13106SOL    HW242696   8.942   4.193   4.928  1.6163  1.9934  0.0188
13107SOL     OW42697   3.388   4.477   6.337  0.5423  0.0208 -0.7887
13107SOL    HW142698   3.425   4.400   6.389 -0.0159 -0.9219 -1.7707
13107SOL    HW242699   3.462   4.522   6.286  0.9400  0.4101  0.1081
13108SOL     OW42700   2.799   0.651   5.437 -0.1004 -0.0830 -0.0779
13108SOL    HW142701   2.752   0.569   5.405 -2.3473  0.6443  1.2263
13108SOL    HW242702   2.801   0.652   5.537  2.8677 -0.1474 -0.1035
13109SOL     OW42703   8.877   2.822   3.377 -0.9914 -0.2557  0.4930
13109SOL    HW142704   8.853   2.730   3.346  0.5431 -0.3651 -0.4160
13109SOL    HW242705   8.794   2.870   3.407 -1.8593 -1.7688  0.5455
13110SOL     OW42706   9.147   3.394   1.190  0.2812  0.3873 -0.1581
13110SOL    HW142707   9.185   3.304   1.167 -0.6441  0.3939 -1.8250
13110SOL    HW242708   9.112   3.392   1.283  1.7585 -0.4789  0.3958
13112SOL     OW42709   8.895   4.026   4.256 -0.3199 -0.0181  0.6015
13112SOL    HW142710   8.903   4.009   4.354  0.3279  0.5514  0.6503
13112SOL    HW242711   8.854   4.115   4.241 -0.0579  0.0589  0.3522
13113SOL     OW42712   3.137   9.450   5.735 -0.1455  0.0463  0.0914
13113SOL    HW142713   3.150   9.507   5.817 -0.3225  1.5569 -0.9015
13113SOL    HW242714   3.069   9.380   5.754 -0.7048  0.8264  1.0416
13114SOL     OW42715   2.400   2.033   6.358 -0.0137  0.6689  0.4028
13114SOL    HW142716   2.421   1.950   6.408  1.5352 -0.9887 -2.8203
13114SOL    HW242717   2.388   2.011   6.261  0.5002  4.2345 -0.5385
13115SOL     OW42718   7.222   0.139   0.109 -0.2559 -0.4479 -0.0827
13115SOL    HW142719   7.285   0.217   0.117 -1.1965  0.1249  1.8768
13115SOL    HW242720   7.185   0.136   0.016  0.7116  0.7114 -0.5226
13116SOL     OW42721   5.746   8.708   3.466  0.1484  0.4712 -0.0061
13116SOL    HW142722   5.649   8.702   3.491  0.5402 -0.4638  1.2774
13116SOL    HW242723   5.803   8.691   3.546  1.3935 -0.0085 -0.9804
13117SOL     OW42724   8.935   8.428   5.518 -0.4718  0.6371 -0.3885
13117SOL    HW142725   8.902   8.373   5.442  0.6952  0.3867 -0.7190
13117SOL    HW242726   8.863   8.436   5.587 -0.8398 -0.8107 -0.5937
13118SOL     OW42727   2.136   6.332   0.645  0.4905  0.3404  0.3061
13118SOL    HW142728   2.199   6.311   0.571  1.4042  0.7774  0.9540
13118SOL    HW242729   2.104   6.247   0.687 -1.4679  0.0111 -1.7578
13119SOL     OW42730   9.480   9.065   4.136  0.7477  0.2197 -0.5090
13119SOL    HW142731   9.457   9.026   4.047  1.2430  0.1990 -0.6294
13119SOL    HW242732   9.577   9.092   4.137  0.2583  2.0094 -0.6248
13120SOL     OW42733   1.029   0.516   1.451  0.4006 -0.2021 -0.0051
13120SOL    HW142734   1.005   0.566   1.368  0.0517  0.7965  0.6986
13120SOL    HW242735   1.048   0.580   1.525  0.2790 -1.0981  0.8122
13121SOL     OW42736   3.139   9.031   3.053 -0.5079  0.2494  0.0216
13121SOL    HW142737   3.076   9.081   3.112  0.2954  0.5777  0.6072
13121SOL    HW242738   3.197   9.095   3.002  0.3376 -0.0646  0.5705
13123SOL     OW42739   0.076   9.846   1.404 -0.2534 -0.0651 -0.1680
13123SOL    HW142740   0.057   9.886   1.314 -3.3695 -0.3189  0.3032
13123SOL    HW242741   0.042   9.908   1.475  1.9726  0.0182  0.8532
13125SOL     OW42742   8.233   2.501   0.459  0.0612 -0.0849 -0.1199
13125SOL    HW142743   8.231   2.531   0.363 -1.4423 -1.7959 -0.6356
13125SOL    HW242744   8.146   2.523   0.503  0.2517 -0.5129  0.4773
13126SOL     OW42745   1.454   0.374   0.811 -0.0326  0.1177  0.4140
13126SOL    HW142746   1.360   0.396   0.784  0.0396 -1.7028 -1.3875
13126SOL    HW242747   1.495   0.454   0.855 -2.0679  1.2798  0.2556
13127SOL     OW42748   3.595   6.185   1.103  0.2773 -0.1724 -0.2984
13127SOL    HW142749   3.650   6.152   1.026  1.6339  0.4074  0.4078
13127SOL    HW242750   3.530   6.254   1.069  0.0773 -0.7501 -1.1158
13128SOL     OW42751   2.333   3.603   0.075 -0.6227 -0.0347 -0.0980
13128SOL    HW142752   2.333   3.503   0.074  2.4638 -0.0617 -0.1150
13128SOL    HW242753   2.412   3.637   0.025 -0.1864  2.3627  2.1088
13129SOL     OW42754   1.083   6.882   0.089  0.4552  0.3880 -0.5408
13129SOL    HW142755   1.051   6.881  -0.006  0.1216 -2.1182 -0.4194
13129SOL    HW242756   1.005   6.897   0.150  0.8380  3.2403 -0.6863
13130SOL     OW42757   2.896   3.407   3.930  0.1767  0.0865 -0.3754
13130SOL    HW142758   2.834   3.350   3.877  0.3648 -0.5505  0.0942
13130SOL    HW242759   2.865   3.502   3.926  0.6895  0.2012 -2.3784
13131SOL     OW42760   7.934   2.618   6.372  0.2719 -0.4544  0.0067
13131SOL    HW142761   7.841   2.582   6.363  0.1953 -0.1405 -0.5062
13131SOL    HW242762   7.996   2.564   6.314  0.0462  0.6258 -1.2619
13132SOL     OW42763   3.429   1.709   5.385 -0.5218  0.4780 -0.2064
13132SOL    HW142764   3.510   1.663   5.420 -1.1818 -0.1825  0.4632
13132SOL    HW242765   3.429   1.804   5.415 -0.2567  0.3449  0.2102
13134SOL     OW42766   1.656   4.002   2.431  0.7856 -0.5482  0.0848
13134SOL    HW142767   1.618   3.913   2.407  1.0125 -0.7888  0.5913
13134SOL    HW242768   1.598   4.075   2.395 -0.0098 -0.9049  0.6229
13135SOL     OW42769   2.081   9.974   3.185 -0.0612 -0.0187 -0.3594
13135SOL    HW142770   2.019  10.037   3.138 -0.7737 -0.8709 -0.5692
13135SOL    HW242771   2.122   9.912   3.118 -0.4994 -0.7401  0.0351
13136SOL     OW42772   3.780   1.937   0.823 -0.1616  0.2961 -0.3191
13136SOL    HW142773   3.731   2.019   0.851 -1.1815 -1.2149  2.5692
13136SOL    HW242774   3.840   1.907   0.898 -2.9090 -3.8792  0.4029
13138SOL     OW42775   6.313   1.747   5.135  0.3816 -0.0491 -0.2119
13138SOL    HW142776   6.244   1.705   5.076  0.9230  0.4090 -1.1848
13138SOL    HW242777   6.269   1.783   5.218 -0.5979  0.5415 -0.9799
13139SOL     OW42778   8.232   0.401   1.480  0.1186  1.0547 -0.1608
13139SOL    HW142779   8.288   0.483   1.470  1.0591  0.3988 -0.3774
13139SOL    HW242780   8.176   0.389   1.398  1.6250  0.2822 -1.1041
13141SOL     OW42781   6.753   3.175   1.488 -0.2222  0.1684  0.2818
13141SOL    HW142782   6.790   3.247   1.429 -1.8972  1.3227  0.6129
13141SOL    HW242783   6.740   3.212   1.580  1.9607 -1.4847  1.3155
13143SOL     OW42784   6.403   9.415   3.539  0.5073 -0.7665  0.0876
13143SOL    HW142785   6.332   9.378   3.599 -1.5753  0.3200 -1.6138
13143SOL    HW242786   6.430   9.345   3.472 -0.5287 -0.5151 -0.6044
13144SOL     OW42787   1.483   8.431   6.337 -0.6023 -0.4030  0.3179
13144SOL    HW142788   1.466   8.527   6.359 -1.4771 -0.3588 -0.5149
13144SOL    HW242789   1.475   8.417   6.239  4.0886 -0.4494 -0.1440
13145SOL     OW42790   1.593   1.197   0.481  0.8111 -0.3701  0.0825
13145SOL    HW142791   1.518   1.153   0.531  0.9788  0.0357  0.6922
13145SOL    HW242792   1.585   1.175   0.384 -0.9858  0.8955 -0.0940
13146SOL     OW42793   6.788   2.177   5.148  0.1608 -0.5201  0.3256
13146SOL    HW142794   6.794   2.242   5.072 -0.8785  0.8055  1.3582
13146SOL    HW242795   6.785   2.084   5.111 -1.5997  0.1471 -1.3489
13147SOL     OW42796   1.265   5.698   2.889 -0.3692 -0.5043 -0.1501
13147SOL    HW142797   1.313   5.620   2.929 -0.3423 -1.1726 -1.4812
13147SOL    HW242798   1.319   5.737   2.815 -0.0088  1.3025  1.0167
13148SOL     OW42799   2.719   8.779   0.459 -0.0616  0.6695  0.1161
13148SOL    HW142800   2.693   8.855   0.399  1.8859  0.1203 -1.4709
13148SOL    HW242801   2.759   8.815   0.543 -0.1292  1.4122 -0.1690
13149SOL     OW42802   0.387   4.631   5.657  0.3619 -0.4951 -0.4620
13149SOL    HW142803   0.453   4.650   5.729 -0.2748 -2.8149  0.8000
13149SOL    HW242804   0.400   4.537   5.624 -1.9193 -0.8240 -0.5378
13150SOL     OW42805   1.122   1.502   5.974  0.3184 -0.1485 -0.4719
13150SOL    HW142806   1.095   1.471   5.883  0.8433  2.2270 -1.4723
13150SOL    HW242807   1.136   1.423   6.034 -2.1434 -1.6541 -1.8340
13151SOL     OW42808   2.176   0.313   1.750 -0.0908 -0.4983  0.4051
13151SOL    HW142809   2.228   0.296   1.834 -0.2057 -2.9629 -0.0042
13151SOL    HW242810   2.079   0.316   1.771  0.0092  1.1616  0.6991
13152SOL     OW42811   4.573   5.098   2.610  0.2149  0.3945  0.1500
13152SOL    HW142812   4.661   5.051   2.618  0.1164  0.5757  2.5515
13152SOL    HW242813   4.587   5.197   2.620 -0.2930  0.3961  0.9151
13154SOL     OW42814   3.372   8.666   0.974  0.5344 -0.0828  0.0281
13154SOL    HW142815   3.379   8.686   0.877 -0.4713 -0.6352 -0.1587
13154SOL    HW242816   3.364   8.567   0.988  1.6099 -0.0874  0.7282
13155SOL     OW42817   5.227   2.214   4.129 -0.0692  0.6863 -0.9259
13155SOL    HW142818   5.220   2.198   4.030  0.9593 -0.2525 -0.8499
13155SOL    HW242819   5.308   2.269   4.149  0.7326 -0.6386 -0.4503
13156SOL     OW42820   3.587   5.343   3.604 -0.6858 -0.1911  0.6744
13156SOL    HW142821   3.543   5.303   3.524 -0.2692 -1.1043  0.8864
13156SOL    HW242822   3.556   5.295   3.686 -1.0703  0.7029  1.0603
13157SOL     OW42823   8.206   7.706   4.997  0.4544 -0.1183  0.0391
13157SOL    HW142824   8.261   7.790   5.002  2.4588 -1.1450 -3.0981
13157SOL    HW242825   8.266   7.627   5.004 -1.0205 -1.2784 -0.2916
13158SOL     OW42826   1.386   1.174   5.300 -0.3480  0.0455  0.2644
13158SOL    HW142827   1.303   1.223   5.274 -0.8251 -0.8332  0.1225
13158SOL    HW242828   1.457   1.191   5.231 -0.2342  1.1879  0.6364
13159SOL     OW42829   2.311   1.554   2.255 -0.2232  0.6893 -0.3985
13159SOL    HW142830   2.392   1.504   2.287  0.7525  2.0920 -0.6437
13159SOL    HW242831   2.288   1.525   2.162 -1.1713 -1.1010  0.3630
13160SOL     OW42832   4.015   7.290   4.920 -0.3171 -0.7047  0.4841
13160SOL    HW142833   3.956   7.239   4.983 -0.8539 -0.1743  0.4102
13160SOL    HW242834   4.053   7.369   4.967  1.0258 -1.5128  0.7877
13161SOL     OW42835   1.930   2.058   5.951 -0.5978 -0.0259 -0.0736
13161SOL    HW142836   1.984   2.093   6.027 -0.5394 -0.3353  0.0298
13161SOL    HW242837   1.880   1.976   5.981 -1.6652  0.6542  0.0340
13163SOL     OW42838   2.704   8.296   1.673 -0.1713 -0.4797  0.3717
13163SOL    HW142839   2.787   8.284   1.619 -0.6788  0.6558 -0.6810
13163SOL    HW242840   2.726   8.293   1.770  0.8654 -1.7633  0.0974
13166SOL     OW42841   8.422   0.112   5.246  0.9770  0.6250  0.7503
13166SOL    HW142842   8.412   0.016   5.270 -0.1050  0.0494 -1.7739
13166SOL    HW242843   8.509   0.147   5.280  0.9347 -0.9670  2.5387
13167SOL     OW42844   9.630   1.645   1.183  0.2177  0.1435  0.1210
13167SOL    HW142845   9.550   1.634   1.242  1.9733  1.9969  2.9892
13167SOL    HW242846   9.618   1.725   1.124 -1.7490 -1.9918 -2.5059
13168SOL     OW42847   4.300   0.906   5.996 -0.5657 -0.0474 -0.0066
13168SOL    HW142848   4.233   0.884   5.925  0.3500  0.3715 -1.0308
13168SOL    HW242849   4.372   0.964   5.956  0.0978 -0.0285  1.2039
13169SOL     OW42850   7.957   2.843   4.308 -0.6012 -0.5867 -0.3231
13169SOL    HW142851   8.057   2.848   4.304 -0.7356  2.5150 -1.1449
13169SOL    HW242852   7.920   2.842   4.215 -1.3976  1.7489 -0.0820
13170SOL     OW42853   2.508   6.272   3.985 -0.3533 -0.7579  0.2365
13170SOL    HW142854   2.463   6.346   3.935  0.4575 -1.4315 -1.5249
13170SOL    HW242855   2.523   6.300   4.079  0.2010  1.4563 -0.4808
13171SOL     OW42856   0.504   7.467   0.186  0.6408 -0.2998  0.4924
13171SOL    HW142857   0.436   7.539   0.177  0.3296 -0.5134  1.1044
13171SOL    HW242858   0.463   7.387   0.229  1.5412 -0.0711  1.7899
13172SOL     OW42859   0.568   0.164   3.492  0.0804 -0.3889  0.0943
13172SOL    HW142860   0.616   0.246   3.524 -1.7566  0.6356  0.2865
13172SOL    HW242861   0.496   0.140   3.557  0.6548 -2.2271  0.0855
13174SOL     OW42862   1.015   2.075   0.669  0.2458  0.4378  0.3581
13174SOL    HW142863   0.917   2.079   0.651 -0.0268  0.7599  1.8343
13174SOL    HW242864   1.032   2.016   0.748  1.3159 -0.2885 -0.4109
13175SOL     OW42865   6.046   1.666   2.654  0.0363  0.0744  0.0110
13175SOL    HW142866   5.989   1.700   2.580 -0.8547 -0.1477  0.5826
13175SOL    HW242867   5.988   1.635   2.729  0.8696 -1.8972 -0.1466
13176SOL     OW42868   7.519   7.250   3.171 -0.3204 -0.0557  0.6813
13176SOL    HW142869   7.525   7.269   3.073 -1.1410  0.2550  0.6857
13176SOL    HW242870   7.452   7.313   3.213  0.3097  0.0794  1.5036
13177SOL     OW42871   4.831   4.248   3.994  0.1033  0.8074 -0.1924
13177SOL    HW142872   4.792   4.159   4.022  0.0708  0.5033 -1.1877
13177SOL    HW242873   4.917   4.263   4.043 -0.1729  0.4900  0.4090
13178SOL     OW42874   9.697   7.972   2.291 -0.4859 -0.3114  0.7224
13178SOL    HW142875   9.600   7.989   2.308 -0.3278 -0.1151  1.4103
13178SOL    HW242876   9.732   7.904   2.356  0.7190  2.2460  2.8145
13179SOL     OW42877   9.604   9.417   0.533 -0.1298 -0.3819  0.7793
13179SOL    HW142878   9.614   9.443   0.629  0.0625 -1.7339  1.1364
13179SOL    HW242879   9.557   9.329   0.527 -1.0344  0.1624 -0.4113
13180SOL     OW42880   5.157   9.959   1.778 -0.0777 -0.1037  0.3020
13180SOL    HW142881   5.114   9.869   1.777  0.2421 -0.2863  1.6949
13180SOL    HW242882   5.122  10.014   1.702 -2.3571 -0.4408  1.0730
13182SOL     OW42883   7.288   7.504   2.216  0.1507 -0.8332 -0.1338
13182SOL    HW142884   7.372   7.472   2.258 -0.1331  1.0357  1.9463
13182SOL    HW242885   7.269   7.597   2.246 -2.4388 -1.0765 -0.8822
13183SOL     OW42886   8.094   6.439   3.901  0.4483 -0.1323 -0.1434
13183SOL    HW142887   8.143   6.525   3.915  0.2080 -0.0320  0.0864
13183SOL    HW242888   8.013   6.437   3.959  0.6601 -0.6800  0.1330
13184SOL     OW42889   3.650   1.908   5.418  0.8557  0.1657 -0.1605
13184SOL    HW142890   3.622   1.950   5.504  0.8254 -1.0251  0.4165
13184SOL    HW242891   3.587   1.937   5.345 -0.1553 -0.2114  0.5556
13185SOL     OW42892   8.737   2.692   5.508  0.5718 -0.5064  0.0183
13185SOL    HW142893   8.723   2.637   5.425  1.1709 -0.2486 -0.2517
13185SOL    HW242894   8.803   2.765   5.489  0.9937 -0.6766  0.8284
13186SOL     OW42895   8.512   5.112   4.428  0.1549  0.4094  0.0398
13186SOL    HW142896   8.467   5.173   4.493 -2.4924 -1.7622  0.3264
13186SOL    HW242897   8.447   5.044   4.395  2.4172 -0.8200 -2.0840
13187SOL     OW42898   0.528   8.027   2.971  0.2151 -0.1727  0.1344
13187SOL    HW142899   0.528   8.121   3.005  0.8997  0.3216 -1.2072
13187SOL    HW242900   0.549   8.027   2.873  0.0843 -1.7150  0.0976
13188SOL     OW42901   3.396   3.905   2.961  0.2714 -0.3126 -0.9734
13188SOL    HW142902   3.422   3.954   2.878  0.5091 -2.0023 -1.9164
13188SOL    HW242903   3.474   3.852   2.994 -0.1467 -0.5051 -0.2842
13190SOL     OW42904   2.339   3.764   5.163  0.6241  0.0164  0.1889
13190SOL    HW142905   2.417   3.765   5.100  0.1459  0.4709 -0.3961
13190SOL    HW242906   2.364   3.811   5.248  1.1977 -0.4044  0.2544
13191SOL     OW42907   5.766   1.756   5.274 -0.0136  0.1541 -0.2905
13191SOL    HW142908   5.816   1.765   5.360 -0.2674  1.5949 -0.2793
13191SOL    HW242909   5.749   1.847   5.236 -1.9189 -0.3467 -0.6960
13192SOL     OW42910   5.250   2.590   3.959  0.0829 -0.0639  0.3875
13192SOL    HW142911   5.241   2.614   3.863  0.2994  0.5382  0.5140
13192SOL    HW242912   5.160   2.587   4.002  0.0537  0.4527  0.3560
13193SOL     OW42913   0.425   7.862   3.406 -0.7104 -0.7743  0.2555
13193SOL    HW142914   0.485   7.783   3.406 -0.4994 -0.6170 -0.5073
13193SOL    HW242915   0.349   7.846   3.342 -0.6002 -0.3185  0.0063
13194SOL     OW42916   2.732   0.427   1.932 -0.3686  0.1335 -0.2653
13194SOL    HW142917   2.745   0.359   2.005 -1.5064  0.0212 -0.1510
13194SOL    HW242918   2.807   0.419   1.866  0.5023  0.0189  0.7178
13195SOL     OW42919   2.092   2.889   0.127  0.3906  0.6525 -0.0648
13195SOL    HW142920   2.062   2.979   0.097  0.0125 -0.0194 -1.7348
13195SOL    HW242921   2.093   2.826   0.050 -0.6096 -1.1330  1.3376
13196SOL     OW42922   5.643   8.791   5.681  0.9061 -0.6882  0.0380
13196SOL    HW142923   5.558   8.775   5.732  0.3002  2.3093  0.0478
13196SOL    HW242924   5.710   8.720   5.705 -0.8977 -1.9279  1.5473
13197SOL     OW42925   8.147   0.752   1.429  0.0512  0.5237  0.3597
13197SOL    HW142926   8.183   0.790   1.344 -2.8861 -1.4425 -1.8829
13197SOL    HW242927   8.218   0.697   1.474  1.8332  2.1153 -0.4241
13198SOL     OW42928   8.380   1.564   4.090 -0.1409 -1.0637  0.0161
13198SOL    HW142929   8.424   1.563   4.000 -0.1276 -0.7548  0.0168
13198SOL    HW242930   8.355   1.471   4.117 -1.3436 -1.0132 -0.8927
13199SOL     OW42931   2.220   4.211   4.624 -0.2539  0.0881 -0.2386
13199SOL    HW142932   2.282   4.275   4.578 -0.1695 -0.3502 -0.7511
13199SOL    HW242933   2.274   4.147   4.679 -0.3197  0.3117  0.0821
13200SOL     OW42934   4.116   0.093   2.000 -0.0996 -0.1201 -0.6560
13200SOL    HW142935   4.215   0.082   2.005 -0.2705 -1.4699  0.1678
13200SOL    HW242936   4.093   0.169   1.940  1.5068  1.4976  0.7143
13201SOL     OW42937   3.638   7.813   1.931 -0.0114 -0.1935 -0.0714
13201SOL    HW142938   3.685   7.744   1.877  1.0837 -0.6116  1.3867
13201SOL    HW242939   3.539   7.800   1.924  0.2006 -2.5257  0.9586
13202SOL     OW42940   6.980   0.147   5.608  0.5186 -0.2666  0.1656
13202SOL    HW142941   6.933   0.124   5.523  0.2662 -0.1760  0.2801
13202SOL    HW242942   7.029   0.066   5.641  1.1400 -0.1237 -0.3988
13203SOL     OW42943   2.976   2.399   2.868  0.0919 -0.5569 -0.1923
13203SOL    HW142944   2.934   2.490   2.865  0.9951 -0.0457  1.9095
13203SOL    HW242945   2.909   2.333   2.902 -0.8143 -0.8823 -2.4440
13204SOL     OW42946   8.249   7.596   1.044 -1.1143  0.1468  0.8795
13204SOL    HW142947   8.150   7.582   1.043 -1.1452  0.3135 -0.4248
13204SOL    HW242948   8.279   7.626   0.953  0.0775  0.5076  1.3756
13205SOL     OW42949   8.075   4.273   1.108 -0.5434  0.2906  0.1943
13205SOL    HW142950   8.028   4.224   1.182 -0.3312  1.0368  0.8298
13205SOL    HW242951   8.055   4.228   1.021  1.3702 -2.2802  0.9939
13206SOL     OW42952   7.219   0.246   3.149 -0.3526  0.7192 -0.6361
13206SOL    HW142953   7.189   0.303   3.225  0.9180  2.6230 -1.5326
13206SOL    HW242954   7.144   0.235   3.084 -0.4137  1.8685 -0.7576
13207SOL     OW42955   1.221   5.223   6.259 -0.6131  0.0754 -0.1755
13207SOL    HW142956   1.168   5.298   6.218 -0.3388  0.5417  0.3257
13207SOL    HW242957   1.278   5.258   6.333 -0.1619 -0.5598 -0.2167
13208SOL     OW42958   9.598   6.757   3.023  0.5296  0.2483  0.5258
13208SOL    HW142959   9.525   6.690   3.009 -0.8071  1.4510  1.5882
13208SOL    HW242960   9.675   6.713   3.070  0.7369 -1.1637 -1.0834
13210SOL     OW42961   6.088   8.158   4.214 -0.3354  0.2927 -0.5883
13210SOL    HW142962   5.999   8.203   4.219 -0.1303  0.5820  0.3668
13210SOL    HW242963   6.153   8.203   4.275  0.1029 -0.7651 -0.2625
13212SOL     OW42964   9.927   9.157   4.162  0.2676 -0.6368  0.4404
13212SOL    HW142965   9.925   9.096   4.083 -1.6611  0.3950 -0.3679
13212SOL    HW242966   9.836   9.159   4.204 -0.2795  3.0930 -0.7182
13213SOL     OW42967   7.701   3.873   0.970  0.2942 -0.0279 -0.2020
13213SOL    HW142968   7.632   3.800   0.970  0.5467 -0.2642 -0.1767
13213SOL    HW242969   7.792   3.834   0.955  0.6643  0.0782  1.7322
13215SOL     OW42970   9.527   7.035   6.035 -0.4490 -0.0742  0.4643
13215SOL    HW142971   9.558   6.947   6.071  0.4779 -1.0071 -2.4586
13215SOL    HW242972   9.461   7.019   5.961  0.4118  1.6551 -0.7010
13216SOL     OW42973   6.883   2.851   0.873 -0.2908  0.4647 -0.3054
13216SOL    HW142974   6.857   2.762   0.911  1.1153  0.2184  0.1253
13216SOL    HW242975   6.882   2.920   0.945  0.7937  0.3335 -0.1604
13219SOL     OW42976   0.920   4.984   5.098  0.2468 -0.0889  0.5109
13219SOL    HW142977   0.916   4.898   5.148 -1.4392 -0.2717  0.1091
13219SOL    HW242978   0.914   5.061   5.162 -2.0150 -0.3233  0.6431
13220SOL     OW42979   5.373   1.037   4.917 -0.5271 -0.5517 -0.4611
13220SOL    HW142980   5.347   1.006   4.825 -0.0002 -2.3811 -0.0091
13220SOL    HW242981   5.301   1.014   4.982 -1.0579  1.0576 -0.4491
13221SOL     OW42982   3.460   5.096   4.119 -0.1216  0.4146 -0.1796
13221SOL    HW142983   3.458   5.000   4.089 -0.0794  0.3717 -0.0431
13221SOL    HW242984   3.556   5.126   4.126 -0.0994  0.0518  1.1195
13222SOL     OW42985   8.769   3.669   2.677 -0.2683  0.3965 -0.2150
13222SOL    HW142986   8.867   3.653   2.691 -0.4107  0.5055  1.0019
13222SOL    HW242987   8.743   3.639   2.585  0.7820 -0.2077 -0.3267
13223SOL     OW42988   7.630   4.570   6.383  0.1519 -0.3456  0.1713
13223SOL    HW142989   7.609   4.476   6.359 -0.3669 -0.0401 -0.5755
13223SOL    HW242990   7.547   4.617   6.413  0.0601  0.4109 -1.2518
13224SOL     OW42991   7.768   0.562   2.180  0.5463  0.0210 -0.4326
13224SOL    HW142992   7.681   0.598   2.215 -0.0452 -0.8436 -0.9895
13224SOL    HW242993   7.752   0.514   2.094  1.2967 -1.6342  0.3303
13225SOL     OW42994   0.718   5.907   5.724 -0.1727  0.1891 -0.2456
13225SOL    HW142995   0.723   5.853   5.808  0.8203 -0.5944 -0.7971
13225SOL    HW242996   0.795   5.971   5.721 -0.2824  0.3085 -0.5110
13226SOL     OW42997   3.891   9.117   5.166  0.3338  0.1871  0.4010
13226SOL    HW142998   3.891   9.213   5.139  0.4179 -0.0795 -0.5601
13226SOL    HW242999   3.804   9.075   5.140  1.0903 -0.5092 -1.0512
13227SOL     OW43000   6.285   1.356   2.669 -0.0884  0.1791  0.2164
13227SOL    HW143001   6.282   1.452   2.699 -0.1317 -0.1982  1.4555
13227SOL    HW243002   6.342   1.303   2.732 -1.2635 -0.8986  0.4029
13228SOL     OW43003   1.745   5.834   3.136  0.1656  0.0043 -0.0117
13228SOL    HW143004   1.697   5.843   3.049 -0.6454 -1.3482  0.2788
13228SOL    HW243005   1.840   5.864   3.125  0.4137 -1.3225 -1.6813
13229SOL     OW43006   4.253   9.915   4.066  0.6041  0.9350  0.1141
13229SOL    HW143007   4.352   9.912   4.074  0.4677  0.7737  1.9929
13229SOL    HW243008   4.216   9.975   4.138 -0.9728 -2.8674  2.6270
13231SOL     OW43009   9.020   0.192   1.235 -0.2120 -0.2456  0.5278
13231SOL    HW143010   9.061   0.232   1.318 -1.5966 -2.0348  2.1054
13231SOL    HW243011   9.090   0.138   1.187  0.8130  1.4414  0.0771
13232SOL     OW43012   7.920   2.782   3.390  0.0345 -0.1536  0.1362
13232SOL    HW143013   7.908   2.705   3.327 -0.9845 -0.1527  0.3142
13232SOL    HW243014   7.924   2.867   3.338  0.4382 -0.2630 -0.0124
13234SOL     OW43015   6.579   0.150   1.809  0.1395  0.1334  0.3858
13234SOL    HW143016   6.535   0.140   1.720  2.5429  0.0994 -0.8471
13234SOL    HW243017   6.582   0.061   1.855  0.0962 -0.1181 -0.0938
13235SOL     OW43018   0.556   6.558   4.657  0.1121  0.1784 -0.3003
13235SOL    HW143019   0.470   6.523   4.695  0.8162 -0.6849  0.5467
13235SOL    HW243020   0.565   6.655   4.680 -0.8479  0.3930 -0.7932
13236SOL     OW43021   0.596   3.906   4.045 -0.4128 -0.0875  0.0819
13236SOL    HW143022   0.595   3.993   4.094  0.0729 -0.4968  0.8224
13236SOL    HW243023   0.608   3.924   3.947 -0.5302  0.6858  0.2016
13238SOL     OW43024   4.348   2.456   2.868  0.4115 -0.1016  0.1540
13238SOL    HW143025   4.292   2.379   2.896 -0.9389  0.3831 -1.1414
13238SOL    HW243026   4.402   2.488   2.946  0.4636 -1.8989  0.8739
13239SOL     OW43027   7.574   3.022   6.105 -0.3359 -0.1325  0.1294
13239SOL    HW143028   7.558   2.952   6.035  0.6668 -0.6772  0.4285
13239SOL    HW243029   7.515   3.101   6.088 -0.9986 -0.7820 -0.5975
13240SOL     OW43030   0.350   4.511   2.623  0.0546  0.3452 -0.0594
13240SOL    HW143031   0.434   4.473   2.661 -0.2101  2.0594  2.3928
13240SOL    HW243032   0.276   4.444   2.632  0.3529  0.1639  1.0597
13241SOL     OW43033   3.948   8.027   4.675 -0.7206  0.1021  0.2947
13241SOL    HW143034   3.987   7.998   4.762 -1.4411 -0.4687  0.4326
13241SOL    HW243035   4.008   8.095   4.632  0.1055 -0.3170  0.7842
13242SOL     OW43036   6.942   2.738   5.003  0.5148 -0.6040  0.3227
13242SOL    HW143037   7.004   2.690   4.941 -0.2052 -0.2473 -0.6811
13242SOL    HW243038   6.899   2.815   4.955 -0.8112 -0.9287  0.9620
13244SOL     OW43039   3.264   8.009   1.930 -0.7963 -0.3683 -0.7464
13244SOL    HW143040   3.222   7.960   2.007 -2.4427  1.2959 -0.5427
13244SOL    HW243041   3.310   8.091   1.963  2.3612 -1.9736 -1.0311
13245SOL     OW43042   0.232   7.791   1.299  0.4528 -0.4929  0.2036
13245SOL    HW143043   0.327   7.790   1.268 -0.3209 -0.5651 -2.2510
13245SOL    HW243044   0.214   7.708   1.353  1.6087 -0.7985  0.1407
13247SOL     OW43045   2.447   5.842   6.445 -0.4955 -0.0317  0.0458
13247SOL    HW143046   2.546   5.834   6.429 -0.3611 -1.1071  1.3182
13247SOL    HW243047   2.428   5.828   6.542 -2.2078 -2.6963 -0.6340
13248SOL     OW43048   1.235   9.840   2.885  0.2371  0.2955  0.3425
13248SOL    HW143049   1.182   9.899   2.946  0.8731  0.8049  0.4121
13248SOL    HW243050   1.245   9.750   2.926 -1.8815 -0.2913 -0.3616
13249SOL     OW43051   5.435   5.529   2.438  0.4691 -0.7217  0.0205
13249SOL    HW143052   5.483   5.442   2.453 -0.9674 -1.9046 -1.9476
13249SOL    HW243053   5.366   5.541   2.509 -0.3253 -1.9424 -0.5197
13250SOL     OW43054   9.118   9.220   4.000  0.6638 -0.1306  0.0695
13250SOL    HW143055   9.037   9.276   3.987  0.9400  0.8527  2.3737
13250SOL    HW243056   9.096   9.124   3.979 -1.4375 -0.0788  1.8312
13251SOL     OW43057   1.143   2.145   4.112 -0.4399 -0.2121 -0.4192
13251SOL    HW143058   1.153   2.110   4.019  0.3392 -0.9417 -0.0708
13251SOL    HW243059   1.046   2.144   4.138 -0.4525 -2.1631 -0.4221
13252SOL     OW43060   7.213   2.730   0.398 -0.7398  0.1454  0.6659
13252SOL    HW143061   7.213   2.661   0.471 -0.1345 -1.6024 -0.9470
13252SOL    HW243062   7.134   2.715   0.338  0.4640 -0.3880 -0.8131
13253SOL     OW43063   8.566   7.971   0.019 -0.3533 -0.2736 -0.2086
13253SOL    HW143064   8.575   7.911   0.099  0.6449  1.4527  1.0156
13253SOL    HW243065   8.469   7.985  -0.001 -0.6397 -0.1583  1.1702
13254SOL     OW43066   6.466   2.022   3.568  0.6946  0.5142 -0.0513
13254SOL    HW143067   6.369   2.025   3.593  1.0848 -1.0279  1.7608
13254SOL    HW243068   6.476   1.971   3.482 -0.1267  1.0679 -0.4918
13255SOL     OW43069   4.672   1.462   1.315  0.2712  0.3211  0.2446
13255SOL    HW143070   4.708   1.552   1.292 -0.2754  0.4216 -0.2082
13255SOL    HW243071   4.578   1.454   1.284  0.0784 -0.1448  0.9418
13256SOL     OW43072   0.520   8.043   1.941 -0.4009 -0.2454 -0.4350
13256SOL    HW143073   0.608   7.998   1.927 -0.6205 -0.8302  0.0390
13256SOL    HW243074   0.531   8.142   1.934  0.9191 -0.1021  2.7215
13257SOL     OW43075   4.489   9.566   2.870  0.2253  0.1466 -0.1172
13257SOL    HW143076   4.491   9.621   2.954 -1.6150 -1.3092  0.9049
13257SOL    HW243077   4.400   9.523   2.860  0.5972 -0.1108 -2.5882
13258SOL     OW43078   8.834   4.492   2.313 -0.1969 -0.3150 -0.3455
13258SOL    HW143079   8.770   4.565   2.337 -1.4857 -1.0265 -1.6191
13258SOL    HW243080   8.785   4.417   2.269  1.5882 -0.6191 -1.8733
13259SOL     OW43081   1.926   0.782   4.519 -0.2349  0.4572  0.0727
13259SOL    HW143082   1.871   0.855   4.477 -1.6885 -0.3675  0.5117
13259SOL    HW243083   1.898   0.770   4.614 -0.3556 -1.0398 -0.1531
13260SOL     OW43084   6.142   9.527   5.734  0.1618 -0.2200  0.2617
13260SOL    HW143085   6.215   9.508   5.800 -1.1984 -2.5795  1.1757
13260SOL    HW243086   6.112   9.622   5.743  1.2889  0.0167  1.7294
13261SOL     OW43087   5.234   9.844   2.713 -0.3486  0.4474 -0.1963
13261SOL    HW143088   5.209   9.888   2.800  0.1774 -2.0009  1.2465
13261SOL    HW243089   5.279   9.911   2.654 -0.8345  2.2046  1.3637
13262SOL     OW43090   2.638   8.966   2.145 -0.1828 -0.1750  0.1191
13262SOL    HW143091   2.700   8.964   2.067 -1.9157 -2.5579 -1.2508
13262SOL    HW243092   2.691   8.955   2.229  1.4775  0.0572 -0.8731
13263SOL     OW43093   0.848   3.676   5.414 -0.3433  0.2313  0.0085
13263SOL    HW143094   0.899   3.603   5.457 -0.8802 -0.7510 -0.9841
13263SOL    HW243095   0.904   3.759   5.409  0.3131 -0.1521  0.9979
13264SOL     OW43096   9.934   8.565   0.423 -0.0607 -0.0089  0.1025
13264SOL    HW143097   9.851   8.619   0.417  1.4572  2.6856  2.1319
13264SOL    HW243098   9.986   8.573   0.338  0.1896  1.8492  0.4106
13267SOL     OW43099   4.373   8.956   2.603  0.3517 -0.6324  0.1640
13267SOL    HW143100   4.278   8.988   2.594  0.4514 -0.6251 -0.9053
13267SOL    HW243101   4.421   9.013   2.669 -0.2778 -0.3709  0.3996
13268SOL     OW43102   1.875   5.338   2.575 -0.1034  0.3154  0.6135
13268SOL    HW143103   1.931   5.257   2.595  0.9799  1.1107  0.8566
13268SOL    HW243104   1.785   5.328   2.616  0.9875  0.4908  3.1130
13269SOL     OW43105   6.128   0.719   5.443  0.1658  0.3147  0.6887
13269SOL    HW143106   6.045   0.739   5.495  0.0059 -0.9505  0.9340
13269SOL    HW243107   6.203   0.700   5.505  0.0956 -0.7002  0.4722
13270SOL     OW43108   4.534   2.999   1.195 -0.1457 -0.0341  0.2035
13270SOL    HW143109   4.460   2.939   1.225  0.3667 -0.4396  0.6656
13270SOL    HW243110   4.622   2.956   1.216  0.2207  0.5869 -0.0571
13271SOL     OW43111   0.675   0.805   2.476 -0.1508  0.3265 -0.3331
13271SOL    HW143112   0.739   0.869   2.519  1.4291 -0.6343 -1.2156
13271SOL    HW243113   0.624   0.757   2.547  0.7501  0.4485  0.4116
13274SOL     OW43114   9.702   5.514   5.033 -0.1945  0.7998 -0.1198
13274SOL    HW143115   9.743   5.590   4.982 -0.2240  0.7891 -0.1606
13274SOL    HW243116   9.758   5.494   5.113  1.4140 -1.0337 -1.6659
13275SOL     OW43117   1.778   7.080   3.816  0.8023  0.3377 -0.5111
13275SOL    HW143118   1.686   7.097   3.780  0.4752 -1.1970 -0.4424
13275SOL    HW243119   1.812   7.163   3.861 -1.0508  0.5735  0.5313
13277SOL     OW43120   0.530   1.343   2.642  0.2111  0.2267  0.1941
13277SOL    HW143121   0.482   1.268   2.595  0.4494  0.6333 -0.7195
13277SOL    HW243122   0.464   1.411   2.671  0.0547 -0.0460  0.4770
13278SOL     OW43123   1.069   4.377   3.454 -0.4663  0.3127  0.1464
13278SOL    HW143124   1.041   4.310   3.523  0.2941 -1.5822 -1.3533
13278SOL    HW243125   0.988   4.424   3.418 -1.1608 -0.8546  0.1602
13279SOL     OW43126   9.404   7.511   4.499  0.3608 -0.4075  0.3226
13279SOL    HW143127   9.488   7.461   4.477  1.0626  0.1015  1.7417
13279SOL    HW243128   9.421   7.610   4.491 -1.2167 -0.3411 -3.1696
13280SOL     OW43129   1.979   5.571   6.001 -0.1722  0.1014  0.5600
13280SOL    HW143130   2.013   5.500   5.940  0.7416  1.0863 -0.1051
13280SOL    HW243131   1.889   5.545   6.036  0.5885 -1.8409  1.1339
13281SOL     OW43132   1.281   6.717   2.035  0.1879 -0.0038  0.2356
13281SOL    HW143133   1.307   6.790   2.098  1.1255  1.3110 -1.6330
13281SOL    HW243134   1.185   6.692   2.050 -0.3445  2.0766  0.4756
13282SOL     OW43135   3.454   6.825   4.462  0.4225 -0.3207 -0.1912
13282SOL    HW143136   3.416   6.918   4.454 -0.4440 -0.7654 -1.4044
13282SOL    HW243137   3.508   6.819   4.545  1.3304  1.5783 -0.5933
13283SOL     OW43138   7.528   6.118   4.959 -0.5749 -0.0589 -0.4121
13283SOL    HW143139   7.564   6.147   4.871  3.5165  0.9809  1.4645
13283SOL    HW243140   7.578   6.037   4.990 -0.9352  0.4617  1.6002
13286SOL     OW43141   0.924   3.849   1.603 -0.1907  0.0014  0.1732
13286SOL    HW143142   0.978   3.824   1.684 -0.3336 -2.3976 -0.4267
13286SOL    HW243143   0.943   3.944   1.579  0.8904  0.3479  2.2120
13287SOL     OW43144   3.482   8.911   0.482  0.1724  0.1637 -0.2841
13287SOL    HW143145   3.559   8.847   0.489 -0.1807 -0.2090  0.3031
13287SOL    HW243146   3.491   8.964   0.398  0.6038 -0.4932 -0.6676
13289SOL     OW43147   2.976   8.904   0.456  0.3863 -0.6568 -0.8142
13289SOL    HW143148   2.989   8.859   0.544 -0.5953  0.5222 -0.0506
13289SOL    HW243149   3.065   8.922   0.415  0.9014 -0.1838  0.4712
13290SOL     OW43150   7.393   1.660   5.673  0.2421  0.8028  0.2644
13290SOL    HW143151   7.350   1.596   5.609  2.1516  1.1039 -1.3553
13290SOL    HW243152   7.333   1.738   5.688 -1.2677 -0.4154  0.7470
13291SOL     OW43153   8.098   0.279   2.513 -0.3707  0.0483  0.2619
13291SOL    HW143154   8.113   0.180   2.518 -1.3470 -0.1397 -0.4107
13291SOL    HW243155   8.158   0.318   2.443  0.4356  0.0209  0.9378
13292SOL     OW43156   1.511   5.561   1.085 -0.0746 -0.5911 -0.1319
13292SOL    HW143157   1.429   5.543   1.140  0.1553  1.1599  0.8199
13292SOL    HW243158   1.591   5.522   1.131  0.1049  0.7936  0.7499
13293SOL     OW43159   0.743   7.106   6.137 -0.5338 -0.0377  0.1748
13293SOL    HW143160   0.751   7.023   6.082  1.5293  0.6440 -0.5856
13293SOL    HW243161   0.744   7.186   6.077  1.9591  0.7270  1.1716
13294SOL     OW43162   9.537   8.852   4.703 -0.0812  0.3703  0.2712
13294SOL    HW143163   9.449   8.806   4.692  0.1278  0.0504 -0.0398
13294SOL    HW243164   9.608   8.785   4.723 -0.1452  0.7589  1.9130
13295SOL     OW43165   9.163   9.468   5.794  0.2698  0.1176  0.0490
13295SOL    HW143166   9.259   9.448   5.812 -0.3627 -1.9705  1.2388
13295SOL    HW243167   9.144   9.458   5.696  1.3335  0.9443 -0.2499
13296SOL     OW43168   4.464   4.169   1.672 -0.1249  0.4037 -0.2484
13296SOL    HW143169   4.368   4.148   1.693  0.0752 -0.3065 -0.0149
13296SOL    HW243170   4.515   4.083   1.664  0.1858  0.7293 -1.8179
13297SOL     OW43171   4.223   3.814   3.560  0.0144 -0.2681  0.1927
13297SOL    HW143172   4.244   3.827   3.657 -0.4736 -0.6646  0.3590
13297SOL    HW243173   4.205   3.902   3.518 -0.5755 -0.1577  0.6613
13298SOL     OW43174   4.328   3.587   0.016 -0.1239 -0.0135 -0.1441
13298SOL    HW143175   4.236   3.601   0.050  0.1618  0.1574  0.5716
13298SOL    HW243176   4.325   3.570  -0.083 -0.8986  0.1487 -0.1523
13299SOL     OW43177   0.755   3.098   2.655 -0.2874  0.2706  0.1680
13299SOL    HW143178   0.836   3.151   2.633  0.3362 -1.4165 -1.7912
13299SOL    HW243179   0.781   3.003   2.672 -1.9109 -0.4811 -1.3283
13301SOL     OW43180   1.958   5.619   4.956  0.5672 -0.1999  0.5218
13301SOL    HW143181   1.964   5.521   4.979  1.0299 -0.4298 -0.5777
13301SOL    HW243182   1.861   5.645   4.950  0.4301 -0.9933 -0.8554
13302SOL     OW43183   3.963   3.880   4.887  0.4804  0.2983  0.7958
13302SOL    HW143184   3.900   3.864   4.963  0.4615  0.2373  0.7673
13302SOL    HW243185   3.928   3.836   4.805  0.0538  1.1129  0.5349
13303SOL     OW43186   9.338   9.861   0.142  0.1040  0.2408 -0.4875
13303SOL    HW143187   9.391   9.776   0.148  0.0701  0.2134 -0.5773
13303SOL    HW243188   9.244   9.843   0.171  0.4117  0.5298  0.7161
13304SOL     OW43189   2.569   6.467   3.610  0.0830 -0.1376  0.5408
13304SOL    HW143190   2.653   6.519   3.592 -0.4215  0.0146 -1.5412
13304SOL    HW243191   2.591   6.385   3.663  1.8030 -0.8934 -1.2661
13305SOL     OW43192   7.836   1.187   5.496 -0.0992 -0.0686 -0.0463
13305SOL    HW143193   7.930   1.200   5.529  0.4177  1.0779 -1.8940
13305SOL    HW243194   7.774   1.240   5.554  0.5939  0.5477  0.1498
13307SOL     OW43195   9.553   7.979   0.978  0.2975  0.2882 -0.1242
13307SOL    HW143196   9.468   7.958   1.027  1.4946 -0.0780  1.8301
13307SOL    HW243197   9.598   7.894   0.950  1.8608  0.3375  2.1021
13308SOL     OW43198   0.573   6.802   0.124 -0.2355  0.0937  0.4264
13308SOL    HW143199   0.636   6.732   0.091  2.4307  1.6861  1.9565
13308SOL    HW243200   0.529   6.848   0.047  1.4972 -0.1469 -0.7162
13309SOL     OW43201   8.142   3.977   2.822  0.1631 -0.3205  0.0850
13309SOL    HW143202   8.204   3.928   2.883  0.1322  0.1287  0.4808
13309SOL    HW243203   8.089   4.043   2.874  0.2967  0.2293 -0.4598
13310SOL     OW43204   5.068   5.254   1.133  0.1019  0.2626 -0.4229
13310SOL    HW143205   5.091   5.179   1.071 -0.4762  0.2123 -0.5796
13310SOL    HW243206   4.996   5.225   1.196 -0.0936  0.6681 -0.4529
13311SOL     OW43207   3.102   2.460   3.137 -0.4040 -0.3635 -0.1243
13311SOL    HW143208   3.172   2.409   3.188  0.0820  1.3222  0.9742
13311SOL    HW243209   3.092   2.421   3.046  2.4548 -0.2740 -0.5367
13312SOL     OW43210   7.244   8.462   3.849  0.1590 -0.3170 -0.4497
13312SOL    HW143211   7.275   8.410   3.769  0.6537 -0.5009 -0.1362
13312SOL    HW243212   7.187   8.403   3.907  1.6401 -0.8496  0.4823
13314SOL     OW43213   4.788   5.866   1.284 -0.2005 -0.1370 -0.3618
13314SOL    HW143214   4.826   5.837   1.196  1.3630 -1.2549  0.6791
13314SOL    HW243215   4.784   5.966   1.287  0.9396 -0.0644 -1.1935
13315SOL     OW43216   9.980   9.441   1.028  0.3346  0.6371 -0.1130
13315SOL    HW143217  10.046   9.459   1.101  2.9979 -0.4273 -2.1916
13315SOL    HW243218   9.985   9.514   0.959  0.4976 -0.2865 -1.0858
13316SOL     OW43219   1.704   7.973   4.659  0.0763  0.1154  0.1371
13316SOL    HW143220   1.621   7.979   4.715  0.0906 -1.6665  0.3574
13316SOL    HW243221   1.778   8.023   4.705 -0.6398  1.0126  0.3371
13317SOL     OW43222   3.891   9.887   3.519  0.6841 -0.8230 -0.0493
13317SOL    HW143223   3.874   9.803   3.468  0.8091 -0.4837 -0.6580
13317SOL    HW243224   3.831   9.960   3.486  0.1236 -0.8389  0.9109
13318SOL     OW43225   7.333   7.958   5.956 -0.3723  0.2769  0.0213
13318SOL    HW143226   7.394   7.997   6.025  0.3286  1.5472 -1.2844
13318SOL    HW243227   7.367   7.867   5.929 -2.0604 -1.3506  3.1397
13319SOL     OW43228   6.556   3.560   0.607  0.2916 -0.2188  0.1329
13319SOL    HW143229   6.590   3.528   0.518  2.4080  0.0833  0.8028
13319SOL    HW243230   6.584   3.497   0.679  1.2203  1.0831  0.9560
13320SOL     OW43231   3.003   7.304   0.882  0.4549  0.1521 -0.4767
13320SOL    HW143232   3.088   7.354   0.864  0.6033  0.4942  1.1104
13320SOL    HW243233   2.948   7.354   0.948 -0.3666 -0.7482 -0.4614
13321SOL     OW43234   1.023   0.312   4.964  0.7680  0.4313 -0.0389
13321SOL    HW143235   1.052   0.222   4.998 -2.6241 -0.5228  0.5418
13321SOL    HW243236   1.028   0.312   4.864 -0.9612 -1.1064 -0.1638
13323SOL     OW43237   2.310   5.635   6.285 -0.6788  0.2093  0.2119
13323SOL    HW143238   2.379   5.707   6.288 -0.5760  0.2228 -2.0642
13323SOL    HW243239   2.234   5.660   6.345  0.2234  1.3010  0.9191
13324SOL     OW43240   6.767   0.966   1.349  0.8562  0.4688  0.7474
13324SOL    HW143241   6.761   1.055   1.303 -0.3560 -0.9994 -2.0330
13324SOL    HW243242   6.690   0.956   1.412  0.2614  0.8985  0.1044
13325SOL     OW43243   2.070   8.333   0.181 -0.2575  0.2250 -0.7853
13325SOL    HW143244   2.066   8.280   0.266  1.5566  4.3622  2.0219
13325SOL    HW243245   2.146   8.299   0.125  0.1125 -0.9012  0.3731
13326SOL     OW43246   9.280   0.906   1.670 -0.3275  0.4755 -0.0759
13326SOL    HW143247   9.196   0.852   1.681  0.0086  0.0317  0.3615
13326SOL    HW243248   9.258   1.003   1.676 -0.7848  0.3577  0.2030
13327SOL     OW43249   7.149   1.425   0.198  0.3136  0.1021 -0.3928
13327SOL    HW143250   7.171   1.457   0.290 -0.9428 -0.5483  0.1522
13327SOL    HW243251   7.174   1.495   0.131 -1.4156  1.7986  0.6859
13328SOL     OW43252   2.165   9.992   0.326 -0.1226  0.4318  0.3507
13328SOL    HW143253   2.110   9.908   0.331  0.6087 -0.1276 -0.7036
13328SOL    HW243254   2.255   9.969   0.289  0.7886  1.3524  1.9323
13329SOL     OW43255   8.548   5.477   4.441  0.0646  0.2252  0.1187
13329SOL    HW143256   8.602   5.409   4.390  0.7555  0.3128  0.7181
13329SOL    HW243257   8.513   5.435   4.525  0.9233  0.7351  0.7494
13330SOL     OW43258   1.916   0.118   2.702 -0.3053  0.0273 -0.2943
13330SOL    HW143259   1.939   0.200   2.648  0.9549  0.2821  0.6111
13330SOL    HW243260   1.977   0.112   2.780 -0.8625 -1.4152  0.0357
13331SOL     OW43261   8.782   1.850   4.542  0.4068  0.5090  0.2339
13331SOL    HW143262   8.862   1.909   4.531  0.7904 -0.3107 -1.5190
13331SOL    HW243263   8.725   1.854   4.460 -0.4118 -0.3177  0.7454
13332SOL     OW43264   6.477   7.704   4.263 -0.1689 -0.4725 -0.0253
13332SOL    HW143265   6.401   7.736   4.319 -0.6849  0.6139 -1.3137
13332SOL    HW243266   6.446   7.630   4.203  0.1763 -1.0804  0.5420
13333SOL     OW43267   3.744   4.460   4.934  0.4176 -0.1314  0.2938
13333SOL    HW143268   3.769   4.438   5.028  0.0991 -1.3043  0.1075
13333SOL    HW243269   3.743   4.560   4.922 -1.0417  0.0779  1.9562
13334SOL     OW43270   4.694   7.789   3.936  0.1180 -0.1541 -0.6807
13334SOL    HW143271   4.760   7.837   3.994 -0.8222  1.2347 -0.7394
13334SOL    HW243272   4.662   7.707   3.983  2.0490 -0.9858 -0.7528
13336SOL     OW43273   0.446   1.073   2.583  0.9148  0.1335 -0.1301
13336SOL    HW143274   0.446   1.068   2.683 -2.8500  0.2248 -0.0647
13336SOL    HW243275   0.411   0.988   2.545  0.8559  0.6885 -1.3380
13337SOL     OW43276   9.363   9.374   1.043 -0.1692 -0.1318  0.3503
13337SOL    HW143277   9.436   9.307   1.057 -0.9308 -1.2461 -0.9126
13337SOL    HW243278   9.403   9.466   1.041  0.6770 -0.3050  4.0044
13339SOL     OW43279   4.687   4.011   4.303  0.2898  0.5096  0.4625
13339SOL    HW143280   4.727   3.965   4.224  0.9880  1.8031  0.0497
13339SOL    HW243281   4.596   3.972   4.322  0.3526 -0.1904 -0.6171
13340SOL     OW43282   7.391   3.352   0.312 -0.6692 -0.3465  0.1017
13340SOL    HW143283   7.311   3.407   0.290  0.7001  0.3169 -3.7789
13340SOL    HW243284   7.464   3.411   0.346  0.0286 -0.0381 -1.8558
13341SOL     OW43285   3.175   7.895   4.307 -0.2452  0.0252 -0.1818
13341SOL    HW143286   3.155   7.929   4.215 -0.7195 -1.3710 -0.6120
13341SOL    HW243287   3.217   7.804   4.301  0.6815  0.3596  0.9504
13342SOL     OW43288   8.304   4.101   1.305 -0.6001 -0.4909 -0.2306
13342SOL    HW143289   8.322   4.194   1.334  2.1984 -1.1141  0.1715
13342SOL    HW243290   8.213   4.096   1.264 -1.3140  2.1058  0.9362
13345SOL     OW43291   8.826   4.208   0.118 -0.4284 -0.2267 -0.1349
13345SOL    HW143292   8.753   4.145   0.143  1.1560 -2.0913 -0.0423
13345SOL    HW243293   8.878   4.233   0.201 -2.4653  3.1186  0.2193
13346SOL     OW43294   7.191   8.920   4.585  0.0794  0.5533  0.2522
13346SOL    HW143295   7.142   8.923   4.498 -0.5951  0.6237  0.6318
13346SOL    HW243296   7.289   8.934   4.569 -0.0796  0.8630 -0.4613
13347SOL     OW43297   8.544   6.885   3.589  0.1945 -0.1968  0.0475
13347SOL    HW143298   8.511   6.803   3.542  0.3275 -0.0448 -0.3130
13347SOL    HW243299   8.467   6.946   3.607 -0.0483 -0.8201  1.1564
13348SOL     OW43300   2.377   7.066   0.863 -0.1151 -0.0801  0.2371
13348SOL    HW143301   2.282   7.049   0.835 -0.2006  0.9597 -0.1442
13348SOL    HW243302   2.390   7.038   0.958 -1.0306  0.5065  0.5443
13349SOL     OW43303   4.038   8.669   5.414 -0.1641 -0.0520 -0.5552
13349SOL    HW143304   4.062   8.601   5.345  0.5404 -0.9160  0.5351
13349SOL    HW243305   4.080   8.645   5.501 -0.0320  1.7043 -0.1210
13351SOL     OW43306   8.873   5.192   3.812 -1.6835  0.0492  0.2175
13351SOL    HW143307   8.829   5.196   3.722  0.1589 -1.2398 -0.7620
13351SOL    HW243308   8.933   5.271   3.823 -2.4347  0.5654  0.5881
13352SOL     OW43309   5.561   1.362   4.409 -0.2780  0.0556 -0.0842
13352SOL    HW143310   5.516   1.396   4.326  1.2147  0.2760 -0.8329
13352SOL    HW243311   5.658   1.387   4.406 -0.4191  1.0127  2.2407
13353SOL     OW43312   8.801   5.894   3.536 -0.2412  0.0198 -0.2586
13353SOL    HW143313   8.800   5.822   3.605 -2.4771  0.9379  0.6927
13353SOL    HW243314   8.888   5.944   3.541 -0.8294  0.8366  2.7171
13354SOL     OW43315   2.582   5.165   6.131  0.1764  0.0779 -0.0946
13354SOL    HW143316   2.528   5.134   6.053  0.4489  0.9001 -0.6144
13354SOL    HW243317   2.634   5.246   6.106  0.4452  0.2163  0.8770
13355SOL     OW43318   9.944   2.485   4.241 -0.6166  0.0274 -0.5413
13355SOL    HW143319   9.901   2.425   4.308 -1.4933 -0.2546 -1.3532
13355SOL    HW243320   9.873   2.540   4.196 -0.1027 -0.2787 -1.7270
13357SOL     OW43321   0.190   7.300   5.297 -0.4351  0.3473 -0.0431
13357SOL    HW143322   0.204   7.210   5.339 -0.7588 -0.8186 -2.3726
13357SOL    HW243323   0.270   7.323   5.241 -1.5679  0.1948 -1.7515
13358SOL     OW43324   4.482   1.529   2.788 -0.3917 -0.4090 -0.6990
13358SOL    HW143325   4.399   1.584   2.796  0.2457  0.2998  1.7058
13358SOL    HW243326   4.505   1.491   2.878  2.1994 -0.0822 -1.1874
13359SOL     OW43327   5.037   7.620   3.858 -0.3017 -0.2490  0.2518
13359SOL    HW143328   4.982   7.550   3.904  1.6213 -1.4594  0.7794
13359SOL    HW243329   5.042   7.701   3.917 -3.2026  0.6856 -0.7139
13360SOL     OW43330   8.774   8.033   0.943 -0.2800 -0.6560  0.0413
13360SOL    HW143331   8.828   7.995   0.867  1.8065 -1.3792  1.8276
13360SOL    HW243332   8.780   8.133   0.941 -1.2021 -0.6167 -1.4141
13364SOL     OW43333   2.280   3.053   1.273 -0.7577  0.1432  0.5122
13364SOL    HW143334   2.245   2.992   1.345  0.6926  0.4671  1.5081
13364SOL    HW243335   2.321   2.998   1.201 -0.8001 -0.1154  0.6821
13365SOL     OW43336   9.532   1.854   5.778 -0.3663 -0.0196 -0.9205
13365SOL    HW143337   9.515   1.855   5.680  0.2855 -0.1637 -1.0371
13365SOL    HW243338   9.616   1.903   5.799  0.4435 -1.4884 -0.6279
13366SOL     OW43339   8.935   2.840   2.629  0.4222  0.1939 -0.3214
13366SOL    HW143340   8.949   2.872   2.535 -0.3055  0.5697 -0.3048
13366SOL    HW243341   8.936   2.740   2.630 -1.3823  0.1618 -1.0280
13367SOL     OW43342   1.626   2.077   6.256 -0.3649  0.0642 -0.0777
13367SOL    HW143343   1.545   2.033   6.295 -0.8575  1.0731  0.0618
13367SOL    HW243344   1.649   2.158   6.311 -0.1481  0.6158 -0.9719
13368SOL     OW43345   2.183   3.858   5.626 -0.4826  0.4398  0.5092
13368SOL    HW143346   2.129   3.921   5.570 -1.0851 -1.5165 -1.1542
13368SOL    HW243347   2.137   3.844   5.714 -1.7178  0.2284 -0.1640
13369SOL     OW43348   3.287   5.604   0.892 -0.1787 -0.1518  1.2494
13369SOL    HW143349   3.331   5.542   0.826 -0.2247  0.2588  0.8337
13369SOL    HW243350   3.204   5.561   0.926 -0.2329 -0.3054  0.9305
13371SOL     OW43351   1.656   4.260   2.151  0.1356  0.2643 -0.2624
13371SOL    HW143352   1.675   4.183   2.089  3.6093 -1.0294  2.2101
13371SOL    HW243353   1.598   4.229   2.226  0.1024  0.4897 -0.1941
13373SOL     OW43354   7.641   3.409   0.728  0.3959 -0.2626 -0.0949
13373SOL    HW143355   7.703   3.372   0.659  1.7574  2.3998 -0.3280
13373SOL    HW243356   7.683   3.398   0.819 -1.0962 -3.1439  0.3005
13374SOL     OW43357   5.042   9.232   2.837  0.8296 -0.4726 -0.5799
13374SOL    HW143358   5.007   9.150   2.882  0.4922  1.1476  2.2204
13374SOL    HW243359   5.110   9.206   2.769  2.4874 -2.9688  1.9164
13375SOL     OW43360   7.603   0.619   1.055  0.3521  0.1548 -0.0438
13375SOL    HW143361   7.650   0.700   1.017 -0.6246  1.0662  0.6739
13375SOL    HW243362   7.627   0.610   1.152 -0.6911  0.4470  0.2492
13376SOL     OW43363   7.340   1.811   1.754 -0.6866 -0.1956 -0.2950
13376SOL    HW143364   7.356   1.898   1.801  2.4652 -0.7314 -0.2457
13376SOL    HW243365   7.339   1.826   1.655  0.6216 -0.1744 -0.3180
13377SOL     OW43366   4.452   7.672   4.686  0.4283  0.1446 -0.6142
13377SOL    HW143367   4.396   7.755   4.681  0.2461  0.0994  0.4567
13377SOL    HW243368   4.548   7.697   4.697  0.4553  0.2140 -0.9947
13378SOL     OW43369   2.357   6.409   2.878  0.1072 -0.2388  0.0305
13378SOL    HW143370   2.359   6.340   2.950 -3.0957 -0.2264  0.2155
13378SOL    HW243371   2.349   6.500   2.919  1.3048  0.0113 -0.2818
13379SOL     OW43372   9.005   2.462   0.523  0.1609  0.1354  0.2846
13379SOL    HW143373   9.029   2.383   0.579 -0.0183 -0.1233  0.0009
13379SOL    HW243374   9.083   2.488   0.465 -0.1066 -0.4609 -0.3519
13380SOL     OW43375   5.246   5.662   0.922  0.7543 -0.0358 -0.3913
13380SOL    HW143376   5.212   5.614   0.841  2.3852 -0.1129 -1.0639
13380SOL    HW243377   5.256   5.759   0.901 -0.2654  0.1977  0.2041
13382SOL     OW43378   0.006   7.804   2.822  0.3668  0.2751  0.1565
13382SOL    HW143379   0.035   7.715   2.786 -1.9646 -0.2069 -0.6260
13382SOL    HW243380  -0.013   7.795   2.919 -1.8802 -0.6615 -0.3223
13383SOL     OW43381   9.300   1.635   4.996  0.0334 -0.1885  0.1706
13383SOL    HW143382   9.316   1.635   4.897  0.4851 -0.8188  0.2407
13383SOL    HW243383   9.386   1.650   5.044 -0.1489 -0.1157  0.4787
13384SOL     OW43384   1.768   8.692   6.355 -0.4880 -0.0659 -0.0673
13384SOL    HW143385   1.822   8.661   6.433 -1.5801  0.4900  0.9327
13384SOL    HW243386   1.722   8.778   6.378  0.6536  1.0888 -1.9872
13385SOL     OW43387   8.952   7.050   5.227 -0.2514 -0.5603 -0.3584
13385SOL    HW143388   9.010   7.128   5.248 -0.6882 -0.1414 -0.6895
13385SOL    HW243389   8.935   7.046   5.128  0.2643 -1.4283 -0.4212
13386SOL     OW43390   7.379   1.404   2.804 -0.0297  0.2043 -0.3963
13386SOL    HW143391   7.293   1.352   2.801  0.2103 -0.3244  1.3173
13386SOL    HW243392   7.443   1.367   2.736 -0.7422 -0.1472 -0.8813
13387SOL     OW43393   8.249   9.284   5.771 -0.1701 -0.1826  0.2116
13387SOL    HW143394   8.291   9.290   5.680 -0.2829 -0.6999  0.1241
13387SOL    HW243395   8.214   9.192   5.786  0.4564 -0.2853  1.0583
13390SOL     OW43396   3.952   0.544   0.727 -0.2222  0.1245  0.4942
13390SOL    HW143397   3.996   0.610   0.665 -0.3189 -1.5596 -1.4246
13390SOL    HW243398   3.890   0.486   0.675 -1.8281 -0.0542  2.5420
13391SOL     OW43399   7.300   1.948   0.718  0.2070 -0.0172 -0.4796
13391SOL    HW143400   7.392   1.984   0.733  0.2249  0.8963 -2.5908
13391SOL    HW243401   7.245   2.018   0.672 -0.9726 -1.2399 -0.9293
13392SOL     OW43402   9.565   9.466   2.452  0.0215  0.1213  0.3120
13392SOL    HW143403   9.502   9.454   2.529  1.5544 -0.3388  1.5132
13392SOL    HW243404   9.587   9.376   2.413  0.5124  0.2136  0.3748
13393SOL     OW43405   9.136   0.539   2.599 -0.1482  0.5494  0.3461
13393SOL    HW143406   9.114   0.565   2.505  0.5931 -0.6887 -0.2021
13393SOL    HW243407   9.069   0.473   2.632  1.8062 -2.1842 -0.8411
13395SOL     OW43408   3.606   8.300   0.405 -0.0176  0.0567  0.0491
13395SOL    HW143409   3.628   8.330   0.498  0.2230  0.2233 -0.0594
13395SOL    HW243410   3.550   8.218   0.409 -0.3478  0.2964  0.3452
13398SOL     OW43411   0.481   6.471   6.148  0.2610  0.2242  0.4252
13398SOL    HW143412   0.505   6.375   6.132 -1.6817 -0.3233  0.7381
13398SOL    HW243413   0.450   6.483   6.242  0.3790  1.1562  0.3531
13399SOL     OW43414   8.347   1.666   2.359  0.1024  0.1963  0.6899
13399SOL    HW143415   8.337   1.642   2.455 -3.0489 -0.3731  0.2994
13399SOL    HW243416   8.310   1.758   2.344  0.7077  0.3366  0.0685
13400SOL     OW43417   9.126   4.156   5.883 -0.4578  0.3898 -0.1313
13400SOL    HW143418   9.094   4.242   5.842 -3.0183 -1.2646 -1.7338
13400SOL    HW243419   9.050   4.091   5.887  1.9160 -2.5147 -0.8362
13402SOL     OW43420   7.007   9.184   5.026  0.0012  0.0395 -0.2739
13402SOL    HW143421   7.058   9.135   5.096 -2.4003 -1.5156  0.4386
13402SOL    HW243422   7.046   9.165   4.936  2.7763  1.6294  0.5116
13403SOL     OW43423   0.180   6.486   3.215 -0.4791  0.2536  0.4032
13403SOL    HW143424   0.277   6.497   3.238 -0.3327  0.1615 -0.1552
13403SOL    HW243425   0.171   6.421   3.139 -1.0265 -0.2384  0.8921
13404SOL     OW43426   2.238   7.316   2.242  0.0509 -0.1425 -0.5336
13404SOL    HW143427   2.158   7.306   2.300 -1.2661 -0.4801 -2.3763
13404SOL    HW243428   2.271   7.225   2.215  1.5660 -0.0310  0.9016
13405SOL     OW43429   5.743   9.492   4.966  0.0524  0.1878 -0.6860
13405SOL    HW143430   5.814   9.423   4.949 -2.9167 -2.7899 -1.7100
13405SOL    HW243431   5.705   9.523   4.879 -0.2549  1.3511 -0.1409
13406SOL     OW43432   0.721   6.220   5.214  0.1456 -0.1884 -0.2516
13406SOL    HW143433   0.762   6.139   5.255  0.8670 -0.0281 -0.6442
13406SOL    HW243434   0.630   6.197   5.178 -0.6016 -0.2740  1.6193
13407SOL     OW43435   6.606   1.146   6.221  0.2806 -0.2965  0.3341
13407SOL    HW143436   6.624   1.243   6.205 -0.8706 -0.2323 -0.7368
13407SOL    HW243437   6.553   1.135   6.305 -0.3346  0.0852 -0.0015
13409SOL     OW43438   7.385   0.052   3.376 -0.1328  0.3259  0.3333
13409SOL    HW143439   7.332   0.087   3.299  0.4269  0.3826 -0.0238
13409SOL    HW243440   7.323   0.034   3.453 -0.5328  1.3078  0.2444
13410SOL     OW43441   9.290   8.437   6.404 -0.1009  0.1780  0.1055
13410SOL    HW143442   9.204   8.389   6.390 -0.6103  0.9631  0.4880
13410SOL    HW243443   9.366   8.378   6.377 -0.5296 -1.9456  3.3255
13412SOL     OW43444   7.733   9.472   0.378  0.3197 -0.2521 -0.6682
13412SOL    HW143445   7.812   9.516   0.335  1.3894 -1.0008  0.5093
13412SOL    HW243446   7.739   9.481   0.477 -0.7955 -0.8066 -0.5386
13414SOL     OW43447   0.694   2.856   1.067  0.1204 -0.0496  0.5298
13414SOL    HW143448   0.711   2.919   1.143 -0.0444  1.7137 -0.8547
13414SOL    HW243449   0.777   2.848   1.012 -0.6458  1.0730 -0.8143
13415SOL     OW43450   3.464   9.824   2.738  0.4434  0.1903  0.1822
13415SOL    HW143451   3.500   9.731   2.746 -1.3050 -0.5055  0.2851
13415SOL    HW243452   3.455   9.864   2.829  0.4919  0.1849  0.1894
13416SOL     OW43453   3.842   0.596   3.281 -0.2095  0.6607  0.3646
13416SOL    HW143454   3.914   0.561   3.340 -1.1255  0.7740  1.5656
13416SOL    HW243455   3.879   0.613   3.189  1.3922  1.1656  1.0942
13417SOL     OW43456   9.274   1.513   3.954 -0.1671  0.1269  0.5242
13417SOL    HW143457   9.312   1.582   3.892 -0.5479  1.2276  1.4939
13417SOL    HW243458   9.336   1.501   4.032  0.9357 -2.1647 -0.6611
13419SOL     OW43459   1.595   0.429   2.922 -0.3318  0.0757  0.3882
13419SOL    HW143460   1.680   0.432   2.868 -0.1624 -0.1332  0.6427
13419SOL    HW243461   1.541   0.511   2.903 -0.1802  0.1000  0.0496
13420SOL     OW43462   2.967   8.611   2.100 -0.4272 -0.2802 -0.2145
13420SOL    HW143463   3.020   8.695   2.110 -0.1201 -0.4456 -0.4374
13420SOL    HW243464   2.912   8.595   2.182 -0.0629 -0.1543  0.0532
13422SOL     OW43465   8.960   0.107   0.664  0.0272  0.3645 -0.4013
13422SOL    HW143466   8.985   0.010   0.660 -0.1371  0.3406 -0.9076
13422SOL    HW243467   8.863   0.116   0.642 -0.1049  0.5830  0.2622
13423SOL     OW43468   4.862   5.562   0.191 -0.2144 -0.1511 -0.2460
13423SOL    HW143469   4.842   5.473   0.232 -1.2091 -0.0439 -0.4717
13423SOL    HW243470   4.951   5.594   0.221 -0.2168 -0.8419  0.5059
13424SOL     OW43471   2.505   2.019   5.662  0.2238  0.3137 -0.0223
13424SOL    HW143472   2.582   2.065   5.617 -0.2211  0.7743 -0.3063
13424SOL    HW243473   2.540   1.944   5.718  1.0146  1.3843  0.9485
13425SOL     OW43474   6.011   9.692   3.510 -0.3002 -0.0859 -0.1727
13425SOL    HW143475   5.952   9.677   3.589 -0.2275 -0.0825 -0.1187
13425SOL    HW243476   6.107   9.689   3.538 -0.2679 -0.4691 -0.3273
13427SOL     OW43477   1.012   9.403   4.281  0.0530 -0.0533  0.3170
13427SOL    HW143478   1.054   9.416   4.191  1.0920  1.3228  0.9882
13427SOL    HW243479   1.047   9.472   4.344 -2.4439  0.4579  1.1750
13429SOL     OW43480   2.686   6.043   0.506 -0.8827  0.3329 -0.5724
13429SOL    HW143481   2.608   6.062   0.446  0.0383  0.5273 -1.7305
13429SOL    HW243482   2.740   5.969   0.467  0.8482  1.8179 -1.0419
13430SOL     OW43483   7.885   7.171   3.685 -0.2582  0.2903 -0.3080
13430SOL    HW143484   7.907   7.255   3.734  0.3598  0.1010 -0.2540
13430SOL    HW243485   7.790   7.173   3.655  0.0057  1.3883 -1.0678
13431SOL     OW43486   7.082   0.376   3.362  0.0117  0.1960 -0.6087
13431SOL    HW143487   6.986   0.350   3.379 -0.3415  1.1129 -1.2019
13431SOL    HW243488   7.120   0.418   3.444  0.8648 -2.9693  0.6818
13434SOL     OW43489   8.911   5.535   4.297 -0.4591  0.2067  0.5260
13434SOL    HW143490   8.967   5.452   4.299 -0.0064  0.2411 -3.9521
13434SOL    HW243491   8.968   5.614   4.317  0.5517 -0.0203 -1.3062
13435SOL     OW43492   8.059   6.839   4.878  0.0320 -0.0848 -0.2829
13435SOL    HW143493   8.012   6.899   4.814 -0.0078  0.8690  0.6236
13435SOL    HW243494   8.140   6.800   4.834 -0.0979  0.4136 -0.9650
13436SOL     OW43495   0.371   6.674   0.269 -0.4408  0.6128  0.2263
13436SOL    HW143496   0.448   6.718   0.221  0.8666 -1.0616  0.7393
13436SOL    HW243497   0.397   6.657   0.364 -1.6001  0.3713  0.5063
13437SOL     OW43498   4.386   3.613   5.034 -0.3410 -0.3010  0.0302
13437SOL    HW143499   4.328   3.583   4.959  1.6223 -0.1571 -1.5913
13437SOL    HW243500   4.393   3.713   5.035  0.1189 -0.3282  0.0162
13438SOL     OW43501   1.649   9.746   2.444  0.0104 -0.7116  0.0481
13438SOL    HW143502   1.683   9.812   2.510 -0.5147 -1.0818  0.6892
13438SOL    HW243503   1.629   9.660   2.490  0.9417 -1.4122 -0.8252
13439SOL     OW43504   2.183   7.730   1.036  0.0549  0.3708 -0.1518
13439SOL    HW143505   2.216   7.820   1.007 -1.8480  0.8733 -0.8648
13439SOL    HW243506   2.260   7.674   1.066  1.6813  1.1190 -2.7184
13440SOL     OW43507   4.687   3.494   4.421 -0.1407  0.4887  0.0183
13440SOL    HW143508   4.588   3.490   4.433  0.1473 -0.7225  2.2333
13440SOL    HW243509   4.719   3.411   4.376 -0.1545  1.0238 -0.9923
13441SOL     OW43510   2.675   0.716   6.013 -0.0546  0.0819 -0.5840
13441SOL    HW143511   2.591   0.750   5.971 -0.6259 -0.5825  0.0161
13441SOL    HW243512   2.734   0.793   6.037 -1.1467  0.6395  0.3598
13442SOL     OW43513   8.490   4.924   5.617 -0.3085 -0.0814 -0.4971
13442SOL    HW143514   8.446   4.957   5.533 -1.3213 -0.1162  0.0133
13442SOL    HW243515   8.496   4.824   5.614  1.3256  0.0256 -1.3368
13443SOL     OW43516   4.912   4.267   4.291 -0.6435 -0.1841 -0.6093
13443SOL    HW143517   4.913   4.366   4.278 -0.7733 -0.0222  0.5870
13443SOL    HW243518   4.819   4.233   4.279 -0.6413 -0.1318 -0.7806
13444SOL     OW43519   6.515   1.285   3.601  0.7055  0.3030 -0.1033
13444SOL    HW143520   6.571   1.352   3.649  0.4593  0.3313  0.1433
13444SOL    HW243521   6.470   1.329   3.523 -1.4872  1.0502  1.5543
13446SOL     OW43522   6.896   4.703   0.850 -0.0842  0.0120 -0.1755
13446SOL    HW143523   6.907   4.693   0.751  1.4136  0.3191 -0.0538
13446SOL    HW243524   6.799   4.712   0.871 -0.4319 -0.1252 -1.6080
13447SOL     OW43525   8.203   3.096   3.467 -0.3110 -0.2473 -0.1656
13447SOL    HW143526   8.288   3.134   3.503 -1.1156  1.4052  0.0298
13447SOL    HW243527   8.125   3.142   3.510 -1.3279 -2.5300  0.4879
13448SOL     OW43528   3.092   2.050   2.910 -0.1568 -0.2329  0.2619
13448SOL    HW143529   3.114   2.119   2.840  0.2247 -0.0597  0.5479
13448SOL    HW243530   3.134   2.077   2.997  1.1653 -1.5291  0.0504
13449SOL     OW43531   1.182   7.542   1.969  0.1848 -0.6063  0.3343
13449SOL    HW143532   1.121   7.598   1.912  0.8715 -0.0586  0.1361
13449SOL    HW243533   1.229   7.601   2.035  0.0168 -1.1210  0.9220
13450SOL     OW43534   9.432   2.201   0.835  0.3382  0.7405 -0.0435
13450SOL    HW143535   9.530   2.181   0.839  0.9447  3.5702  0.6845
13450SOL    HW243536   9.419   2.300   0.833 -2.5483  0.4360  1.3414
13451SOL     OW43537   3.411   4.980   1.566  0.4738  0.1043 -0.2430
13451SOL    HW143538   3.340   4.930   1.615  0.0598 -0.1299 -1.0602
13451SOL    HW243539   3.501   4.942   1.590  0.1357 -1.3945 -1.2190
13453SOL     OW43540   1.661   5.642   3.825  0.8894  0.1940 -0.2586
13453SOL    HW143541   1.654   5.648   3.726  1.6226  1.4330 -0.2501
13453SOL    HW243542   1.577   5.679   3.866  0.7499  0.0437 -0.4065
13454SOL     OW43543   0.282   7.060   0.169 -0.9127  0.2678  0.2368
13454SOL    HW143544   0.201   7.022   0.212 -0.5639 -0.4249  0.2876
13454SOL    HW243545   0.257   7.098   0.080 -1.3702  0.4484  0.4381
13456SOL     OW43546   0.916   8.647   0.814  0.3375  0.1220 -0.3315
13456SOL    HW143547   0.898   8.593   0.732  1.2034 -1.6846  0.6371
13456SOL    HW243548   1.015   8.653   0.828  0.2642  2.0362 -0.4461
13458SOL     OW43549   3.822   0.754   2.553  0.2287  0.7666  0.1555
13458SOL    HW143550   3.885   0.751   2.476  2.0437  0.0055  1.6360
13458SOL    HW243551   3.757   0.678   2.547  0.0712  0.9781 -0.8478
13459SOL     OW43552   1.030   7.711   1.822  0.0338 -0.2441 -0.0965
13459SOL    HW143553   1.077   7.798   1.805  1.3582 -1.1361 -1.1589
13459SOL    HW243554   0.963   7.695   1.750  0.0359 -0.2670 -0.0935
13460SOL     OW43555   4.295   2.679   1.044 -0.0507  0.0364  0.0961
13460SOL    HW143556   4.280   2.627   0.960  2.5933 -0.6128 -0.0037
13460SOL    HW243557   4.293   2.777   1.024 -2.6174 -0.0320 -0.1353
13461SOL     OW43558   8.563   0.494   0.797 -0.8719 -0.7308  0.1711
13461SOL    HW143559   8.505   0.531   0.724  0.1185 -0.5767 -0.5621
13461SOL    HW243560   8.556   0.551   0.878 -1.5836 -0.6025  0.0248
13462SOL     OW43561   3.789   8.226   0.845 -0.0421 -0.2182  0.3004
13462SOL    HW143562   3.858   8.298   0.845 -0.9096  0.6228 -0.6919
13462SOL    HW243563   3.834   8.137   0.833  1.1899 -0.0442  3.1606
13463SOL     OW43564   5.175   4.549   1.038  0.9880 -0.5459 -0.2198
13463SOL    HW143565   5.261   4.507   1.011  1.9957  0.1191  1.8344
13463SOL    HW243566   5.183   4.648   1.033  0.7615 -0.4464  1.1389
13464SOL     OW43567   6.942   6.819   5.714  0.0349 -0.1967  0.1612
13464SOL    HW143568   6.944   6.917   5.730 -0.9082 -0.4086  1.6042
13464SOL    HW243569   6.896   6.773   5.790 -0.1057 -1.6905 -0.8047
13466SOL     OW43570   1.010   2.369   1.280 -0.1610  0.2272  0.5170
13466SOL    HW143571   0.915   2.400   1.275 -0.8028 -1.7831 -0.5622
13466SOL    HW243572   1.021   2.312   1.361 -0.0845 -0.1473  0.2466
13467SOL     OW43573   3.415   4.651   5.567 -0.3521 -0.2609  0.0003
13467SOL    HW143574   3.483   4.580   5.555 -1.9516 -2.5129  3.5255
13467SOL    HW243575   3.448   4.719   5.633  0.2314  1.0984 -1.6417
13468SOL     OW43576   8.218   0.631   5.753 -0.1527  0.0793  0.2907
13468SOL    HW143577   8.147   0.627   5.683 -0.8586 -1.4549  1.0686
13468SOL    HW243578   8.264   0.543   5.759  1.4219  0.8821  0.2202
13469SOL     OW43579   4.353   8.193   1.452  0.1795 -0.4696 -0.1460
13469SOL    HW143580   4.354   8.277   1.398 -0.8090 -0.5508 -0.3020
13469SOL    HW243581   4.272   8.192   1.511  0.3735 -1.1407  0.1167
13472SOL     OW43582   2.570   5.561   5.556 -0.0167 -0.6060  0.2602
13472SOL    HW143583   2.615   5.624   5.493  1.0067 -1.2552  0.3183
13472SOL    HW243584   2.524   5.613   5.628 -0.5838  0.1165 -0.6066
13473SOL     OW43585   0.750   6.287   1.518  0.1796 -1.0667  0.0602
13473SOL    HW143586   0.701   6.212   1.562  0.7127 -1.2304  0.3863
13473SOL    HW243587   0.809   6.332   1.585 -1.6072  0.9027  0.3481
13474SOL     OW43588   2.673   8.341   0.906  0.2630 -0.6174 -0.1264
13474SOL    HW143589   2.626   8.425   0.934 -2.7100 -1.7517 -1.5880
13474SOL    HW243590   2.689   8.344   0.807  0.4434 -1.6217 -0.1285
13475SOL     OW43591   0.515   1.713   3.796  0.5172  0.7166 -0.1846
13475SOL    HW143592   0.517   1.761   3.708  0.3808  0.3863 -0.3670
13475SOL    HW243593   0.559   1.624   3.786 -0.5431  0.1936 -0.2067
13476SOL     OW43594   3.754   4.569   3.879  0.1910 -0.4655 -0.3565
13476SOL    HW143595   3.704   4.650   3.911 -0.5684 -1.6163  1.4631
13476SOL    HW243596   3.849   4.593   3.860  0.3504  0.5492  1.5976
13477SOL     OW43597   3.041   5.183   4.982  0.3162 -0.2996 -0.2612
13477SOL    HW143598   2.963   5.160   5.039  0.2527 -1.3187 -0.7431
13477SOL    HW243599   3.108   5.235   5.035  1.0026 -2.6176  1.2071
13479SOL     OW43600   0.544   0.448   1.394  0.3836 -0.2550  0.2690
13479SOL    HW143601   0.466   0.485   1.445 -1.5194 -0.6287 -2.2948
13479SOL    HW243602   0.616   0.517   1.388 -1.8828  2.0155 -1.8209
13480SOL     OW43603   1.877   3.256   1.739  0.2936  0.1988  0.2546
13480SOL    HW143604   1.856   3.167   1.780 -1.2604 -0.0315 -1.0009
13480SOL    HW243605   1.921   3.243   1.650  1.8613  0.7020  0.9361
13482SOL     OW43606   9.834   2.680   0.735  0.5994  0.3976 -0.0838
13482SOL    HW143607   9.832   2.746   0.811 -4.2485 -1.3630  1.4977
13482SOL    HW243608   9.777   2.713   0.660  0.2919 -0.7593 -0.3708
13483SOL     OW43609   4.627   2.235   5.708 -0.0872  0.0962  0.5342
13483SOL    HW143610   4.570   2.296   5.652 -1.3025  0.1450  1.8004
13483SOL    HW243611   4.571   2.196   5.782  1.0168 -1.4785  0.5599
13484SOL     OW43612   3.605   2.163   0.248  0.0464  0.3038  0.1870
13484SOL    HW143613   3.679   2.190   0.308  0.7960 -1.2413 -0.0320
13484SOL    HW243614   3.518   2.169   0.297  0.3518  1.5759  0.6038
13485SOL     OW43615   5.600   1.737   4.079  0.3214 -0.4731  0.0775
13485SOL    HW143616   5.543   1.814   4.052 -0.6255 -1.9139 -2.1589
13485SOL    HW243617   5.668   1.767   4.146 -1.1192  1.9098  0.5097
13486SOL     OW43618   2.082   5.055   4.896  0.2081  0.4760  0.8070
13486SOL    HW143619   2.137   5.002   4.960  1.1908 -2.3251 -2.2455
13486SOL    HW243620   2.142   5.095   4.826 -1.3933 -1.4994 -1.7790
13487SOL     OW43621   7.153   2.777   3.759 -0.4297  0.7461 -0.0963
13487SOL    HW143622   7.155   2.846   3.687 -0.8741  1.1132  0.2435
13487SOL    HW243623   7.247   2.755   3.785 -0.2655  0.6718 -0.7247
13489SOL     OW43624   0.146   5.459   6.078  0.0884  0.2451  0.4207
13489SOL    HW143625   0.099   5.525   6.019  0.9365  1.2929  0.9026
13489SOL    HW243626   0.239   5.446   6.045  0.3218  0.2480  1.0782
13490SOL     OW43627   0.776   4.498   5.406 -0.0802  0.4303 -0.3169
13490SOL    HW143628   0.767   4.443   5.323 -0.6314 -1.1450  0.7499
13490SOL    HW243629   0.741   4.590   5.390 -0.5116  0.0272 -1.7207
13491SOL     OW43630   9.847   2.099   3.581  0.0967 -0.8357 -0.4319
13491SOL    HW143631   9.890   2.139   3.662  1.5501  0.3657 -1.7673
13491SOL    HW243632   9.777   2.033   3.610 -0.4562  0.6540  1.7947
13492SOL     OW43633   2.929   8.647   0.284  0.3797  0.4130 -0.0546
13492SOL    HW143634   2.878   8.694   0.356  0.5172 -2.9375  2.3575
13492SOL    HW243635   2.870   8.578   0.242  0.9155  1.0359 -1.8486
13493SOL     OW43636   8.096   3.267   1.689  0.1318  0.5720 -0.1121
13493SOL    HW143637   8.150   3.214   1.755 -1.3730 -1.7752 -0.6763
13493SOL    HW243638   8.019   3.212   1.659 -0.1368  2.2431 -2.5890
13494SOL     OW43639   8.722   4.728   1.192  0.5186  0.1962  0.0955
13494SOL    HW143640   8.748   4.762   1.282  0.3761  2.2078 -0.5958
13494SOL    HW243641   8.623   4.717   1.188  0.4862  0.5175  0.0345
13495SOL     OW43642   0.755   6.427   2.354 -0.1851 -0.1908 -0.1836
13495SOL    HW143643   0.783   6.335   2.382  0.8951 -0.3702 -1.7865
13495SOL    HW243644   0.834   6.475   2.315 -0.9107  1.1702  0.0119
13496SOL     OW43645   8.763   0.840   1.150  0.3383 -0.0657 -0.3984
13496SOL    HW143646   8.838   0.834   1.083  0.4096 -1.3284 -0.2350
13496SOL    HW243647   8.772   0.764   1.215 -0.4190  0.4619  0.3200
13498SOL     OW43648   1.862   4.857   6.008  0.1970  0.0280 -0.4393
13498SOL    HW143649   1.795   4.808   5.953 -0.4302 -0.0886  0.4248
13498SOL    HW243650   1.946   4.802   6.015 -0.3797 -0.7697  0.2407
13499SOL     OW43651   3.274   9.329   5.521 -0.0497 -0.4917  0.0818
13499SOL    HW143652   3.294   9.242   5.566  1.3554  0.2777  0.9707
13499SOL    HW243653   3.237   9.394   5.588  0.5918  0.1661 -0.2006
13501SOL     OW43654   9.642   2.172   2.605 -0.5182  0.0356  0.0749
13501SOL    HW143655   9.711   2.235   2.572 -0.3515 -0.6288 -0.8656
13501SOL    HW243656   9.635   2.179   2.704  0.5285  0.4777  0.1236
13502SOL     OW43657   0.329   7.700   2.341  0.2630 -0.3562 -0.2512
13502SOL    HW143658   0.254   7.764   2.355 -0.7324 -1.9273  1.7917
13502SOL    HW243659   0.394   7.739   2.276 -0.0796  2.9490  1.2696
13503SOL     OW43660   9.728   0.220   5.910 -0.3158  0.5493  0.2475
13503SOL    HW143661   9.797   0.148   5.902 -2.9551 -1.9815 -0.4222
13503SOL    HW243662   9.684   0.214   6.000 -0.1934  1.6772  0.3913
13504SOL     OW43663   2.543   0.999   1.092  0.1213  0.2862  0.5203
13504SOL    HW143664   2.554   1.025   1.188 -3.7454  0.2031  1.0884
13504SOL    HW243665   2.449   1.020   1.063  1.1380  0.0270 -3.1712
13505SOL     OW43666   9.883   4.708   1.590  0.8218 -0.2507 -0.4645
13505SOL    HW143667   9.876   4.639   1.517 -2.3650 -0.7985  0.2924
13505SOL    HW243668   9.867   4.799   1.551 -1.7315 -0.6188 -0.3971
13506SOL     OW43669   5.986   1.422   0.762  0.3119 -0.1182  0.0885
13506SOL    HW143670   5.984   1.511   0.808  0.9722  0.6846 -1.3725
13506SOL    HW243671   5.934   1.355   0.815 -1.6416  1.5603  0.3489
13507SOL     OW43672   0.023   8.562   3.313 -0.0326  0.1926  0.0687
13507SOL    HW143673   0.075   8.478   3.328 -0.7708 -0.4008 -0.6649
13507SOL    HW243674   0.031   8.621   3.393  1.7904  0.1290 -0.0424
13509SOL     OW43675   3.120   4.065   0.217 -0.6101  0.6021 -0.2445
13509SOL    HW143676   3.192   4.022   0.163 -0.6710  0.8661 -0.5301
13509SOL    HW243677   3.136   4.047   0.314 -0.0346  0.8573 -0.2942
13511SOL     OW43678   1.364   8.994   5.961 -0.3066  0.3362 -0.5425
13511SOL    HW143679   1.362   8.900   5.929 -0.6415  0.4563 -0.8836
13511SOL    HW243680   1.278   9.040   5.935 -0.1799  0.7089 -0.3119
13512SOL     OW43681   8.309   7.694   4.542  0.5771  0.1435  0.3265
13512SOL    HW143682   8.359   7.628   4.599  0.7106 -0.0985 -0.0681
13512SOL    HW243683   8.241   7.645   4.487  0.9608  0.2794 -0.2764
13513SOL     OW43684   4.820   0.659   1.047  0.1409  0.3558  0.4320
13513SOL    HW143685   4.844   0.643   0.951 -0.9889 -3.4546  0.7119
13513SOL    HW243686   4.894   0.628   1.106 -0.8422 -1.2041  0.8908
13514SOL     OW43687   0.121   0.036   0.493  0.0444 -0.1403  0.4871
13514SOL    HW143688   0.125  -0.042   0.430 -0.0442 -1.1219  1.6768
13514SOL    HW243689   0.056   0.103   0.459  0.3180 -0.4591 -0.6878
13516SOL     OW43690   2.527   9.671   3.221  0.2092  0.3768 -0.3244
13516SOL    HW143691   2.492   9.715   3.138 -1.7518 -1.0558 -0.2662
13516SOL    HW243692   2.619   9.707   3.240 -0.9735  3.8244 -0.7349
13517SOL     OW43693   0.095   1.586   1.089  0.1951 -0.3274  0.0035
13517SOL    HW143694   0.075   1.564   0.994 -0.9951  2.5468 -0.4593
13517SOL    HW243695   0.017   1.560   1.146 -0.9831  2.0650 -0.4662
13518SOL     OW43696   6.797   9.883   3.417  0.0933  0.2456  0.6329
13518SOL    HW143697   6.751   9.911   3.332 -1.1140 -0.6645  0.9667
13518SOL    HW243698   6.849   9.800   3.401 -0.2640 -0.0156  0.8097
13519SOL     OW43699   4.770   1.253   6.358 -0.6363  0.3481 -0.1045
13519SOL    HW143700   4.793   1.293   6.269 -0.7394  0.5196 -0.0540
13519SOL    HW243701   4.671   1.257   6.371 -0.8869 -1.9002 -1.0496
13520SOL     OW43702   7.285   2.906   4.037  0.2700 -0.2426 -0.4311
13520SOL    HW143703   7.254   2.812   4.054 -3.1083  0.7871 -0.6424
13520SOL    HW243704   7.254   2.965   4.112  0.3602  1.1334 -1.4798
13521SOL     OW43705   9.783   4.262   2.003  0.0600 -0.2567 -0.1220
13521SOL    HW143706   9.864   4.204   1.996  0.1430 -0.1498 -0.0509
13521SOL    HW243707   9.793   4.341   1.943 -0.6394 -0.9989 -1.2554
13522SOL     OW43708   5.300   5.228   1.412 -0.1953 -0.0361  0.2155
13522SOL    HW143709   5.221   5.173   1.386  1.0463 -1.8403  0.1144
13522SOL    HW243710   5.312   5.302   1.347 -0.3469 -1.2307 -1.2149
13523SOL     OW43711   7.295   3.464   1.691 -0.2476 -0.3030 -0.2905
13523SOL    HW143712   7.265   3.459   1.787 -1.2357  0.5084 -0.5500
13523SOL    HW243713   7.250   3.541   1.646 -0.1070 -0.9369 -1.5251
13524SOL     OW43714   9.742   6.472   0.697 -0.7385  0.2071  0.1737
13524SOL    HW143715   9.804   6.443   0.770 -2.1409  0.1190  1.3437
13524SOL    HW243716   9.745   6.406   0.622  0.3773  0.0742  0.3188
13525SOL     OW43717   2.338   8.234   3.648  0.0265  0.2918 -0.2758
13525SOL    HW143718   2.365   8.278   3.734 -0.5342 -1.7862  1.0139
13525SOL    HW243719   2.417   8.228   3.588  0.8951  0.1404  0.8477
13526SOL     OW43720   4.988   0.922   2.765  0.2626  0.4107 -0.6198
13526SOL    HW143721   4.941   0.997   2.719 -0.1640  1.6565  1.8063
13526SOL    HW243722   5.075   0.904   2.718  0.1243  2.0691 -1.5420
13527SOL     OW43723   3.574   4.326   6.453  0.0859  0.1138  0.5472
13527SOL    HW143724   3.580   4.246   6.512  0.3911  0.4686  0.9920
13527SOL    HW243725   3.656   4.332   6.396 -0.0654 -0.0495  0.3104
13528SOL     OW43726   7.474   0.056   4.375  0.4741  0.1032  0.1770
13528SOL    HW143727   7.439   0.092   4.288 -0.9368 -0.2530  0.5892
13528SOL    HW243728   7.470   0.129   4.444 -0.4103 -0.2233  0.4772
13530SOL     OW43729   8.498   0.811   3.085 -0.5348  0.5586 -0.3919
13530SOL    HW143730   8.569   0.744   3.065 -0.8202 -0.1999  1.0909
13530SOL    HW243731   8.534   0.904   3.075 -0.0903  0.2032 -2.2837
13531SOL     OW43732   2.033   2.206   0.492 -0.6596  0.0452 -0.0677
13531SOL    HW143733   2.121   2.174   0.525 -0.4833  0.2578 -0.3335
13531SOL    HW243734   2.040   2.301   0.462 -0.8356 -0.1126 -0.6301
13532SOL     OW43735   1.116   5.113   5.888  0.4438  0.4969  0.1427
13532SOL    HW143736   1.056   5.068   5.954 -0.4436  0.3952 -0.7181
13532SOL    HW243737   1.136   5.050   5.812 -0.3454  1.3352 -0.7829
13533SOL     OW43738   2.565   1.618   5.176  0.6111  0.4161  0.0728
13533SOL    HW143739   2.522   1.675   5.106  0.6257  0.6419  0.2445
13533SOL    HW243740   2.644   1.570   5.137 -0.1494 -0.4629 -0.4033
13534SOL     OW43741   1.199   8.857   0.580 -0.5178  0.4561  0.8734
13534SOL    HW143742   1.254   8.936   0.607 -0.0402  0.6699 -0.6585
13534SOL    HW243743   1.155   8.876   0.492 -0.0429 -1.1441  0.2770
13535SOL     OW43744   3.720   3.612   3.117 -0.0605 -0.0202  0.2057
13535SOL    HW143745   3.732   3.695   3.062  0.4404 -0.8871 -1.0192
13535SOL    HW243746   3.654   3.629   3.190  0.0643  1.4614 -0.0234
13536SOL     OW43747   2.866   2.679   3.551  0.7093  0.3630  0.3467
13536SOL    HW143748   2.909   2.673   3.462  2.1513  0.0765  1.0449
13536SOL    HW243749   2.867   2.589   3.596 -0.3134  0.4239  0.5220
13537SOL     OW43750   2.331   3.604   5.938 -0.7179 -0.5829  0.0621
13537SOL    HW143751   2.351   3.697   5.905 -1.9585 -0.6315 -0.8591
13537SOL    HW243752   2.415   3.551   5.939  0.1916  0.8270  1.5206
13538SOL     OW43753   1.247   1.607   3.519  0.0402 -0.2326  0.3643
13538SOL    HW143754   1.270   1.565   3.606 -1.2898 -0.7476  0.4716
13538SOL    HW243755   1.321   1.591   3.453  0.1569 -1.5640  0.8091
13540SOL     OW43756   9.858   2.687   3.538 -0.0856 -0.0510  0.9404
13540SOL    HW143757   9.893   2.625   3.467  0.2582 -0.9812  1.9054
13540SOL    HW243758   9.758   2.684   3.539 -0.2001  1.6829 -1.0019
13541SOL     OW43759   9.218   4.372   1.642  0.1279 -0.0843  0.6813
13541SOL    HW143760   9.132   4.404   1.603 -0.0615  0.4074  1.4980
13541SOL    HW243761   9.250   4.437   1.710  1.5925  0.1646 -0.2201
13542SOL     OW43762   8.861   3.640   5.165 -0.3298  0.6429 -0.4623
13542SOL    HW143763   8.912   3.582   5.229  0.4326  0.1024 -1.5455
13542SOL    HW243764   8.925   3.700   5.117 -0.7176  0.1001 -1.6822
13543SOL     OW43765   5.003   5.698   2.076  0.1743 -0.2898 -0.9526
13543SOL    HW143766   5.066   5.749   2.018  1.4878 -0.2440  0.4963
13543SOL    HW243767   5.038   5.696   2.170 -1.3395 -1.3499 -0.3968
13544SOL     OW43768   8.012   0.869   6.209 -0.2038  0.1007 -0.2799
13544SOL    HW143769   8.074   0.809   6.260  0.7987  0.6382 -0.8670
13544SOL    HW243770   7.949   0.813   6.155  0.3671 -0.4348 -0.3946
13545SOL     OW43771   3.259   1.811   4.333 -0.4329 -0.5130 -0.3060
13545SOL    HW143772   3.313   1.861   4.266  0.2690 -2.0017 -0.8840
13545SOL    HW243773   3.270   1.713   4.318 -1.2287 -0.8567  1.2287
13546SOL     OW43774   0.307   2.274   2.033 -0.3307 -0.2276  0.3513
13546SOL    HW143775   0.276   2.212   2.106 -0.8973 -0.8970 -0.4536
13546SOL    HW243776   0.269   2.244   1.946 -1.5874  1.9746  0.1256
13548SOL     OW43777   0.911   9.489   5.998  0.0663 -0.1726  0.2730
13548SOL    HW143778   0.885   9.463   6.091  0.4482 -0.1178  0.3945
13548SOL    HW243779   1.008   9.511   5.996 -0.4839  2.3711  0.4133
13549SOL     OW43780   0.834   8.743   1.770 -0.3090  0.2632  0.4858
13549SOL    HW143781   0.911   8.689   1.737 -0.8669  0.0165 -0.4123
13549SOL    HW243782   0.752   8.723   1.716 -1.0299  0.4675  1.4720
13550SOL     OW43783   8.725   4.092   3.870  0.7474 -0.0794 -0.4374
13550SOL    HW143784   8.771   4.010   3.905 -0.2284 -0.5915 -0.3268
13550SOL    HW243785   8.701   4.078   3.774 -3.9625 -2.0074  0.8762
13552SOL     OW43786   9.337   7.476   0.817  0.3420 -0.1499 -0.0177
13552SOL    HW143787   9.338   7.520   0.727  0.8578 -0.8338 -0.3456
13552SOL    HW243788   9.244   7.444   0.837  0.0909  0.5520 -0.0313
13553SOL     OW43789   9.332   0.132   3.949 -0.0971 -0.8028 -0.4843
13553SOL    HW143790   9.349   0.077   4.031  2.2881 -1.2159 -1.2230
13553SOL    HW243791   9.238   0.117   3.918 -0.2171 -2.6391  0.6655
13554SOL     OW43792   7.794   0.757   3.228 -0.1781 -0.2173 -0.0757
13554SOL    HW143793   7.831   0.699   3.156  0.3861  0.5717 -0.4304
13554SOL    HW243794   7.819   0.720   3.318  1.2969  0.1950 -0.3115
13555SOL     OW43795   8.067   6.647   2.200  0.1844 -0.1675 -0.3396
13555SOL    HW143796   8.013   6.640   2.117  0.7758  0.9791 -0.8273
13555SOL    HW243797   8.129   6.569   2.207  1.2153  0.5105 -1.7493
13556SOL     OW43798   0.765   9.027   6.303 -0.3309  0.0131 -0.0993
13556SOL    HW143799   0.849   9.005   6.351  0.7172  0.9809 -1.4437
13556SOL    HW243800   0.786   9.054   6.209 -2.1650  0.0153 -0.5408
13557SOL     OW43801   9.646   0.356   0.422  0.1931 -0.0850 -0.2841
13557SOL    HW143802   9.721   0.301   0.460  0.5804  2.3568  2.6506
13557SOL    HW243803   9.566   0.298   0.408  1.8995 -2.2665 -1.3706
13558SOL     OW43804   7.044   0.613   4.920  0.2971 -0.2593 -0.4334
13558SOL    HW143805   7.037   0.667   5.004  0.0722 -0.6268 -0.2144
13558SOL    HW243806   7.084   0.524   4.941  1.0474 -0.0223 -0.8628
13559SOL     OW43807   6.904   2.700   3.606 -0.4090  0.8992 -0.1436
13559SOL    HW143808   7.000   2.719   3.627 -0.3123 -0.2859  0.5680
13559SOL    HW243809   6.850   2.704   3.691 -0.4705 -1.3760 -0.0463
13560SOL     OW43810   3.032   0.657   1.476 -0.0182  0.6156 -0.6832
13560SOL    HW143811   2.943   0.680   1.436 -0.9584 -1.7909 -0.0866
13560SOL    HW243812   3.018   0.594   1.553  2.2145 -0.0511 -0.7985
13562SOL     OW43813   4.236   8.219   5.040  0.1373  0.2302 -0.0449
13562SOL    HW143814   4.262   8.256   4.951  1.5031  1.2883  0.7784
13562SOL    HW243815   4.311   8.163   5.076 -0.0157  0.6279  0.8938
13563SOL     OW43816   2.453   3.061   2.619 -0.6338  0.1332  0.1912
13563SOL    HW143817   2.550   3.077   2.601 -0.1106 -0.3677  2.4127
13563SOL    HW243818   2.443   2.982   2.679 -2.4382  0.1276 -0.0929
13564SOL     OW43819   7.442   0.720   4.304  0.2121  0.2969 -0.2977
13564SOL    HW143820   7.442   0.771   4.390 -0.8889 -0.6774  0.3101
13564SOL    HW243821   7.535   0.715   4.267  0.8696 -0.1254  1.3640
13566SOL     OW43822   6.524   2.386   5.707  0.3243 -0.3635  0.3622
13566SOL    HW143823   6.534   2.485   5.718  1.5487 -0.3480 -0.7592
13566SOL    HW243824   6.610   2.347   5.676  0.0885 -1.9163  1.5786
13567SOL     OW43825   2.108   4.445   3.819 -0.0495  0.3596  0.2156
13567SOL    HW143826   2.122   4.509   3.895  2.0854 -0.8404  0.8905
13567SOL    HW243827   2.145   4.356   3.844 -2.0646 -0.8722 -1.1109
13568SOL     OW43828   5.988   0.729   5.711 -0.3625  0.6255 -0.0210
13568SOL    HW143829   5.892   0.753   5.727 -0.3774 -0.7147  2.2546
13568SOL    HW243830   6.046   0.785   5.769 -0.0277 -0.8406  1.1045
13569SOL     OW43831   9.134   4.400   4.572  0.3926 -0.3914  0.4606
13569SOL    HW143832   9.180   4.448   4.497 -1.2259 -0.1196 -0.3773
13569SOL    HW243833   9.151   4.449   4.658  0.1286  0.7524 -0.1242
13570SOL     OW43834   2.773   1.587   0.920  0.5492  0.0510  0.1892
13570SOL    HW143835   2.802   1.575   1.015 -0.9701 -1.8171  0.4618
13570SOL    HW243836   2.752   1.497   0.881 -2.1309  1.0836 -0.8331
13571SOL     OW43837   8.128   2.694   1.807 -0.0979  0.2500 -0.0231
13571SOL    HW143838   8.051   2.636   1.834  0.7913 -0.8703  0.1478
13571SOL    HW243839   8.094   2.785   1.783 -1.1974  0.5716  2.5386
13572SOL     OW43840   6.277   0.985   4.381  0.0606  0.2198 -0.3316
13572SOL    HW143841   6.192   1.039   4.384 -0.8054 -1.2250  2.3474
13572SOL    HW243842   6.350   1.041   4.341 -0.9751  3.1441  1.6787
13573SOL     OW43843   8.860   5.259   1.698  0.2182  0.1184 -0.0660
13573SOL    HW143844   8.830   5.354   1.706  2.3067  0.8433 -0.5603
13573SOL    HW243845   8.915   5.234   1.777 -1.2005 -1.0218  0.5717
13574SOL     OW43846   2.667   3.891   0.004 -0.3220  0.1258  0.1610
13574SOL    HW143847   2.596   3.889   0.074 -1.0382  0.5427 -0.5468
13574SOL    HW243848   2.723   3.973   0.015  0.1619 -0.2907  0.8253
13576SOL     OW43849   0.444   5.769   3.508  0.5559 -0.6393  0.6340
13576SOL    HW143850   0.510   5.838   3.538 -0.9092  1.3316 -0.5569
13576SOL    HW243851   0.351   5.807   3.512 -0.0795 -1.6976 -2.2849
13577SOL     OW43852   9.673   5.786   1.057 -0.7159 -0.2429 -0.1849
13577SOL    HW143853   9.647   5.795   0.961  0.8353  0.7339 -0.5435
13577SOL    HW243854   9.702   5.692   1.075  1.4398  0.1460 -1.3551
13578SOL     OW43855   4.298   2.255   4.283  0.3053  0.7049 -0.4839
13578SOL    HW143856   4.371   2.323   4.295 -2.0791  3.1850  0.5650
13578SOL    HW243857   4.291   2.231   4.186  1.8535  1.1665 -0.7356
13580SOL     OW43858   4.960   8.212   5.414  0.0951 -0.3211  0.0738
13580SOL    HW143859   4.928   8.232   5.507 -0.7791  0.1643 -0.3295
13580SOL    HW243860   4.918   8.127   5.382 -1.4692  0.7541 -0.7734
13583SOL     OW43861   9.860   4.749   5.225 -0.3322  0.0786  0.0760
13583SOL    HW143862   9.851   4.811   5.148 -2.3654  0.5123  0.6488
13583SOL    HW243863   9.907   4.796   5.300 -0.0433  0.2660 -0.2220
13584SOL     OW43864   7.515   3.379   3.889 -0.3603 -0.0980  0.1082
13584SOL    HW143865   7.569   3.409   3.967  0.3745  0.3807 -0.5871
13584SOL    HW243866   7.473   3.457   3.845  0.6695 -0.1869 -1.0432
13585SOL     OW43867   6.690   7.062   5.605  0.0836 -0.4100  0.0948
13585SOL    HW143868   6.666   6.999   5.531 -1.2692 -1.2061  1.1783
13585SOL    HW243869   6.789   7.071   5.611  0.2447 -1.4699 -0.8697
13586SOL     OW43870   9.821   2.412   1.588 -0.0207 -0.0918  0.0260
13586SOL    HW143871   9.769   2.399   1.503 -0.8596 -1.4738  0.7353
13586SOL    HW243872   9.913   2.373   1.577  0.3311  0.9073 -0.6784
13587SOL     OW43873   2.459   2.533   5.893  0.4983  0.0198 -0.3170
13587SOL    HW143874   2.482   2.470   5.818 -0.7915  1.2278 -1.7687
13587SOL    HW243875   2.543   2.573   5.929  1.1325 -0.3992 -1.2936
13589SOL     OW43876   3.731   4.929   5.717 -0.2598  0.1285  0.2119
13589SOL    HW143877   3.734   5.020   5.675  1.6650 -0.0762 -0.1089
13589SOL    HW243878   3.783   4.865   5.662 -1.8893 -1.2822  0.2551
13590SOL     OW43879   2.801   4.515   2.250 -0.3683 -0.1330  0.3973
13590SOL    HW143880   2.739   4.455   2.301  0.2580 -0.4996  0.7359
13590SOL    HW243881   2.766   4.609   2.254 -1.0568 -0.3799  0.3401
13591SOL     OW43882   1.311   0.006   3.754  0.0772  0.6803 -0.2778
13591SOL    HW143883   1.233  -0.050   3.782 -0.2998  1.3202 -0.0421
13591SOL    HW243884   1.296   0.100   3.783  1.4398  0.5967  0.7053
13593SOL     OW43885   8.648   9.564   0.038 -0.5979  0.2318  0.1594
13593SOL    HW143886   8.725   9.538   0.096 -1.2759  0.7198  1.2955
13593SOL    HW243887   8.600   9.641   0.079 -1.4328  0.2118 -0.7651
13596SOL     OW43888   1.856   4.732   0.508 -0.2457  0.4707 -0.3669
13596SOL    HW143889   1.922   4.772   0.572 -1.7562 -0.9009  2.1638
13596SOL    HW243890   1.824   4.645   0.545 -2.6069  0.5484 -2.1327
13598SOL     OW43891   9.571   2.653   3.189 -0.2857 -0.4750  0.0837
13598SOL    HW143892   9.638   2.671   3.117  0.4404 -2.2257  0.2875
13598SOL    HW243893   9.483   2.629   3.147 -0.3387  0.1928 -0.1946
13599SOL     OW43894   5.988   9.220   2.761 -0.7267 -0.2082  0.0866
13599SOL    HW143895   6.081   9.255   2.769 -0.9882  0.2961  0.9453
13599SOL    HW243896   5.963   9.170   2.844 -1.6657  0.7313  0.3812
13600SOL     OW43897   5.849   7.326   3.148  0.1901  0.4074  0.3734
13600SOL    HW143898   5.945   7.311   3.168 -0.0284 -0.9802  0.4402
13600SOL    HW243899   5.800   7.351   3.231  0.3323  0.2826  0.4935
13601SOL     OW43900   8.023   4.456   1.549 -0.5281 -0.3281  0.3286
13601SOL    HW143901   7.934   4.460   1.504 -0.0484  0.7930 -0.5603
13601SOL    HW243902   8.029   4.372   1.604 -1.4360 -1.3166 -1.0416
13603SOL     OW43903   9.535   1.243   2.406  0.3794 -0.2073 -0.1151
13603SOL    HW143904   9.628   1.272   2.428 -0.1185  1.3585 -0.0066
13603SOL    HW243905   9.485   1.220   2.490  0.5359 -0.6629 -0.1437
13605SOL     OW43906   5.024   7.676   4.208  0.5669 -0.1311 -0.5180
13605SOL    HW143907   5.112   7.722   4.223 -1.0281  3.0721 -0.4306
13605SOL    HW243908   4.993   7.637   4.294  0.6205  1.2041  0.1322
13606SOL     OW43909   3.129   4.431   1.664  0.2953  0.0635 -0.5596
13606SOL    HW143910   3.087   4.520   1.652 -0.1055  0.0644  0.8319
13606SOL    HW243911   3.219   4.441   1.706 -0.4621 -0.2917  1.1893
13607SOL     OW43912   5.215   1.265   1.547  0.0328  0.5624 -0.2649
13607SOL    HW143913   5.174   1.264   1.456 -0.3859 -0.5782 -0.0783
13607SOL    HW243914   5.301   1.214   1.545 -0.3841 -0.1685  0.1542
13608SOL     OW43915   6.353   1.279   4.891 -0.6159 -0.4039  0.5235
13608SOL    HW143916   6.269   1.325   4.862 -0.5612  0.5218  1.7636
13608SOL    HW243917   6.348   1.261   4.989  0.8062  0.0532  0.6903
13609SOL     OW43918   2.742   4.811   2.119 -0.5936  0.2446 -0.9996
13609SOL    HW143919   2.780   4.833   2.029  1.3597  0.0167 -0.2413
13609SOL    HW243920   2.761   4.886   2.183 -0.4414 -0.3615 -0.3270
13610SOL     OW43921   7.274   0.369   2.848  0.1081  0.3307  0.2918
13610SOL    HW143922   7.231   0.401   2.933  2.8734  1.4107  1.3598
13610SOL    HW243923   7.256   0.435   2.775  0.3325  1.0047  0.8374
13611SOL     OW43924   9.354   4.015   3.366  0.3787 -0.2309 -0.5353
13611SOL    HW143925   9.436   4.010   3.423  1.2525  1.0696 -1.6420
13611SOL    HW243926   9.276   4.044   3.423  1.3470  1.5875 -0.0738
13612SOL     OW43927   4.381   2.024   5.690 -0.2067  0.6046  0.0755
13612SOL    HW143928   4.322   1.953   5.729  0.9945 -0.9594 -0.8901
13612SOL    HW243929   4.423   2.077   5.764  0.1711 -0.7732  0.8606
13613SOL     OW43930   3.003   6.682   6.204  0.3322  0.6306 -0.4937
13613SOL    HW143931   2.984   6.632   6.289 -3.6008  1.6829 -0.6603
13613SOL    HW243932   3.046   6.769   6.226  0.7541  0.2344  0.2983
13615SOL     OW43933   3.016   2.121   2.059 -0.0809  0.0791  0.2786
13615SOL    HW143934   2.963   2.179   2.120 -0.6665 -0.1835  0.0218
13615SOL    HW243935   2.966   2.106   1.974  0.7142  0.4158 -0.2614
13616SOL     OW43936   8.452   6.066   5.121 -0.1766  0.1437  0.3926
13616SOL    HW143937   8.550   6.058   5.103  0.3426  0.6829  2.8492
13616SOL    HW243938   8.430   6.023   5.208 -1.9358  1.0263  0.4118
13617SOL     OW43939   5.438   8.075   5.551  0.1053  0.1103  0.6727
13617SOL    HW143940   5.382   8.141   5.500  0.2343  0.5351  1.0735
13617SOL    HW243941   5.508   8.124   5.602 -0.5663 -0.2399  1.9481
13618SOL     OW43942   0.547   7.013   3.864 -0.3289 -0.0548  0.4886
13618SOL    HW143943   0.602   6.929   3.869 -0.3621 -0.1348 -0.4141
13618SOL    HW243944   0.454   6.990   3.835 -0.7555  0.1198  1.6967
13620SOL     OW43945   0.246   7.428   5.680 -0.3923  0.2100 -0.5160
13620SOL    HW143946   0.210   7.335   5.676 -0.1052  0.1424 -1.7412
13620SOL    HW243947   0.206   7.483   5.606 -1.1660  1.2840  0.6703
13621SOL     OW43948   4.223   2.100   1.192  0.2179 -0.3254  0.4355
13621SOL    HW143949   4.269   2.070   1.108 -0.5047 -0.5506  0.1137
13621SOL    HW243950   4.155   2.031   1.218  1.2081 -0.7961  1.8268
13623SOL     OW43951   3.317   8.388   4.025  0.1542  0.8986 -0.0677
13623SOL    HW143952   3.286   8.352   4.113  2.0824 -1.6135 -0.3813
13623SOL    HW243953   3.255   8.358   3.953 -0.8203  2.0648  0.2677
13624SOL     OW43954   3.227   1.536   3.117 -0.0107  0.0125  0.2024
13624SOL    HW143955   3.234   1.636   3.116  1.6817 -0.1054 -0.5079
13624SOL    HW243956   3.252   1.500   3.028  2.7181 -1.2265  1.3992
13626SOL     OW43957   9.110   8.589   5.631  0.3369  0.0630 -0.1055
13626SOL    HW143958   9.047   8.530   5.580  1.7199 -1.1266 -0.4437
13626SOL    HW243959   9.058   8.640   5.700 -0.7039 -2.5443  1.1135
13627SOL     OW43960   5.065   0.401   5.325  0.0127 -0.2692 -0.2739
13627SOL    HW143961   5.138   0.400   5.257  0.4323 -1.3322  0.1884
13627SOL    HW243962   5.046   0.307   5.355 -0.0002  0.2106  1.2590
13628SOL     OW43963   9.093   5.549   1.766 -0.6855 -0.1006  0.5141
13628SOL    HW143964   8.999   5.528   1.791 -0.6242 -0.6745  0.2640
13628SOL    HW243965   9.133   5.610   1.835 -0.2738 -2.2836  2.2521
13629SOL     OW43966   1.834   3.370   1.371  0.3677  0.5028 -0.1823
13629SOL    HW143967   1.796   3.393   1.282 -0.4092 -0.5903 -0.1436
13629SOL    HW243968   1.779   3.412   1.443  0.2175  0.2971 -0.1771
13631SOL     OW43969   0.521   8.299   1.857 -0.0824  0.0156 -0.3872
13631SOL    HW143970   0.533   8.389   1.900 -0.5665  0.4628 -1.1712
13631SOL    HW243971   0.594   8.286   1.789  0.4443 -0.5182  0.2778
13633SOL     OW43972   6.572   9.225   3.361 -0.3969  0.3497  0.1083
13633SOL    HW143973   6.604   9.130   3.369 -2.6721 -0.5084 -0.6526
13633SOL    HW243974   6.644   9.286   3.394  1.3800 -1.5835 -0.0135
13634SOL     OW43975   7.698   2.930   3.930 -0.2420  0.0494  0.2250
13634SOL    HW143976   7.613   2.968   3.895  0.4493  1.0099 -0.4463
13634SOL    HW243977   7.772   2.996   3.918  0.9222 -1.3815 -0.6804
13636SOL     OW43978   6.786   1.817   5.164 -0.3216  0.1059 -0.0287
13636SOL    HW143979   6.867   1.790   5.217 -0.3720  0.6349  0.3192
13636SOL    HW243980   6.718   1.744   5.166 -0.4173  0.2186  0.8344
13637SOL     OW43981   7.768   1.052   2.115  0.1018 -0.5273  0.2365
13637SOL    HW143982   7.673   1.077   2.132 -0.1693 -1.4861  0.1802
13637SOL    HW243983   7.826   1.091   2.187 -0.3794 -0.2575  0.4819
13638SOL     OW43984   8.619   8.045   3.729  0.5248  0.3749  0.3265
13638SOL    HW143985   8.573   7.966   3.770 -0.1662 -0.0806 -1.3043
13638SOL    HW243986   8.574   8.069   3.643  2.5936  0.6837 -0.7013
13639SOL     OW43987   2.764   8.931   5.268 -0.3295  0.3638  0.1195
13639SOL    HW143988   2.806   8.969   5.351 -0.6959  0.1905  0.3864
13639SOL    HW243989   2.743   9.006   5.205  0.6795  0.4216 -0.1606
13640SOL     OW43990   7.459   8.397   2.053  0.4343 -0.4508  0.0756
13640SOL    HW143991   7.414   8.413   2.141  1.5245 -0.1353  0.5905
13640SOL    HW243992   7.556   8.378   2.068  0.5260 -0.9051 -1.0273
13641SOL     OW43993   0.360   0.518   1.563 -0.0007  0.4262  0.6543
13641SOL    HW143994   0.315   0.607   1.560 -0.1498  0.4522  2.6356
13641SOL    HW243995   0.419   0.514   1.644  0.3407 -1.1196  0.3455
13644SOL     OW43996   9.485   2.251   0.132 -0.2911 -0.0823 -0.4679
13644SOL    HW143997   9.497   2.181   0.062 -2.3985 -0.0680 -0.8712
13644SOL    HW243998   9.392   2.245   0.170 -0.3443  2.1763 -0.1568
13645SOL     OW43999   4.545   6.739   1.765 -0.0653  0.1024 -0.0283
13645SOL    HW144000   4.559   6.640   1.775 -1.0000 -0.1556 -1.1012
13645SOL    HW244001   4.458   6.755   1.718 -1.5709  1.5249  3.0680
13647SOL     OW44002   2.943   8.587   1.259  0.1601  0.5711 -0.1773
13647SOL    HW144003   2.867   8.635   1.303 -0.3072  0.8274 -1.2631
13647SOL    HW244004   2.908   8.510   1.206  0.9575 -1.4888  2.1891
13648SOL     OW44005   8.602   8.695   5.260 -0.5251  0.1566 -0.0104
13648SOL    HW144006   8.529   8.686   5.328 -1.9780  0.8217 -1.4582
13648SOL    HW244007   8.570   8.660   5.172 -0.5481  4.0363 -1.6557
13649SOL     OW44008   5.934   9.638   2.211 -0.2944  0.1855  0.1661
13649SOL    HW144009   6.007   9.586   2.166 -1.6023 -1.4533 -0.1161
13649SOL    HW244010   5.972   9.720   2.254  1.6287 -0.4229 -0.3599
13650SOL     OW44011   8.641   1.642   1.395  0.1990  0.6639  0.1384
13650SOL    HW144012   8.739   1.644   1.414 -0.1307  2.6603  1.8222
13650SOL    HW244013   8.608   1.548   1.399  2.1640 -0.1088 -1.1812
13651SOL     OW44014   1.689   4.416   2.553 -0.8277 -0.2821  0.0696
13651SOL    HW144015   1.752   4.389   2.481 -0.4572  0.2539  0.1899
13651SOL    HW244016   1.683   4.343   2.621  1.0661  0.3994  0.9945
13652SOL     OW44017   3.751   4.766   0.524 -0.0008 -0.0436 -0.3800
13652SOL    HW144018   3.850   4.755   0.539  0.1176 -1.7491 -2.1876
13652SOL    HW244019   3.730   4.748   0.428 -2.2498 -0.8422  0.2305
13654SOL     OW44020   6.024   0.149   1.841  0.3212  0.2510 -0.4538
13654SOL    HW144021   6.080   0.208   1.782  3.1151 -0.6485  1.2122
13654SOL    HW244022   5.970   0.206   1.904  1.1389  1.0886 -0.5107
13655SOL     OW44023   3.110   9.332   4.548  0.0032 -0.7245  0.1184
13655SOL    HW144024   3.053   9.410   4.521  0.0495 -0.4742  0.7460
13655SOL    HW244025   3.111   9.265   4.474 -1.5263 -0.9606  0.2986
13656SOL     OW44026   3.187   5.138   6.439  0.0962  0.4644  0.3937
13656SOL    HW144027   3.208   5.121   6.535  2.5442 -2.2774 -0.5434
13656SOL    HW244028   3.250   5.206   6.402  1.3001 -0.8531 -0.0391
13658SOL     OW44029   0.847   6.126   2.790  0.1331 -0.1212  0.5529
13658SOL    HW144030   0.762   6.089   2.751 -0.3926  1.5693  0.0447
13658SOL    HW244031   0.825   6.179   2.872  0.8015 -0.3352  0.8766
13659SOL     OW44032   5.475   8.207   2.782 -0.4438  0.2863 -0.2117
13659SOL    HW144033   5.431   8.151   2.711  1.2117 -1.3712  0.0277
13659SOL    HW244034   5.447   8.173   2.872 -1.2582  1.3512 -0.0538
13660SOL     OW44035   2.264   4.527   2.698  0.0713 -0.6655 -0.1831
13660SOL    HW144036   2.165   4.512   2.696 -0.0701  0.2760 -0.4193
13660SOL    HW244037   2.290   4.586   2.622  0.4582  1.1124  1.2832
13663SOL     OW44038   0.186   7.816   6.115 -0.5642  0.3053  0.5537
13663SOL    HW144039   0.194   7.750   6.040 -1.3358  1.3929 -0.4938
13663SOL    HW244040   0.254   7.794   6.185 -0.7719 -1.5793  0.2059
13664SOL     OW44041   7.639   8.680   3.448  0.2551  0.2031 -0.1690
13664SOL    HW144042   7.730   8.678   3.489  0.4381  0.1808 -0.5687
13664SOL    HW244043   7.573   8.639   3.511  0.3911  0.9153  0.4410
13665SOL     OW44044   5.119   8.109   2.461 -0.1652 -0.0206  0.3853
13665SOL    HW144045   5.047   8.176   2.444  0.4261  0.8851  1.3944
13665SOL    HW244046   5.100   8.026   2.409 -1.2854  0.6593 -0.3184
13668SOL     OW44047   9.084   7.396   0.290 -0.2923 -0.0450 -0.1574
13668SOL    HW144048   9.057   7.333   0.363 -0.7279 -0.8138 -0.9705
13668SOL    HW244049   9.118   7.344   0.212  2.2418  0.8498  0.3062
13669SOL     OW44050   3.377   4.561   0.439  0.5981 -0.0141 -0.6384
13669SOL    HW144051   3.327   4.481   0.407  0.6495 -0.4222  0.3038
13669SOL    HW244052   3.435   4.536   0.517  0.2915  1.0242 -0.0665
13670SOL     OW44053   3.931   0.242   2.959 -0.0686 -0.2920 -0.3236
13670SOL    HW144054   3.866   0.316   2.973  0.2807 -0.1228  0.4110
13670SOL    HW244055   3.907   0.165   3.019  0.4492 -0.2028 -0.0021
13671SOL     OW44056   0.439   0.076   5.530  0.1413  0.3378 -0.3844
13671SOL    HW144057   0.428   0.100   5.434 -0.3016  1.5025 -0.0528
13671SOL    HW244058   0.349   0.054   5.569  0.0268  1.9750  0.2998
13673SOL     OW44059   2.020   4.800   1.725  1.0476 -0.1557 -0.0896
13673SOL    HW144060   2.045   4.894   1.700 -0.4722  0.5818  1.0898
13673SOL    HW244061   1.926   4.782   1.698  1.5997 -1.6622 -1.1002
13674SOL     OW44062   8.292   7.021   4.791  0.1459  0.1766 -0.3057
13674SOL    HW144063   8.301   6.924   4.771 -1.1706  0.0044 -0.0941
13674SOL    HW244064   8.250   7.067   4.712 -0.1439  0.4007 -0.0217
13675SOL     OW44065   1.321   2.616   1.690 -0.1409 -0.2411 -0.0892
13675SOL    HW144066   1.306   2.589   1.785 -1.7492 -0.9625 -0.5386
13675SOL    HW244067   1.418   2.605   1.667  0.4564  0.9089  1.7584
13676SOL     OW44068   8.853   3.060   0.789 -0.0622  0.0704 -0.5521
13676SOL    HW144069   8.897   3.134   0.738  0.3361  0.8666  0.9224
13676SOL    HW244070   8.811   3.097   0.872 -1.5359 -1.0624 -0.7888
13677SOL     OW44071   6.054   1.467   5.494  0.1127  1.0841 -0.4916
13677SOL    HW144072   6.025   1.562   5.505  0.1728  1.0745 -0.2528
13677SOL    HW244073   6.137   1.451   5.548 -0.2254  0.7370 -0.0734
13678SOL     OW44074   7.130   0.345   4.539  0.0730 -0.2020 -0.3221
13678SOL    HW144075   7.207   0.379   4.485  0.8455 -1.0604  0.2175
13678SOL    HW244076   7.070   0.421   4.562 -0.1864  0.2055 -2.2412
13679SOL     OW44077   7.111   2.391   0.357 -0.7079  0.2999  0.5796
13679SOL    HW144078   7.077   2.298   0.343  1.3472 -0.4301  0.3314
13679SOL    HW244079   7.139   2.429   0.269 -0.9692  0.9382  0.7693
13680SOL     OW44080   4.152   4.010   0.918  0.1842  0.3296  0.2981
13680SOL    HW144081   4.213   3.935   0.893 -0.2589 -0.0403  0.3223
13680SOL    HW244082   4.186   4.095   0.878  1.0189  0.2229  0.7752
13681SOL     OW44083   5.633   0.572   5.804  0.6690 -0.4640 -0.3003
13681SOL    HW144084   5.674   0.589   5.893  0.1457 -0.8539  0.0176
13681SOL    HW244085   5.667   0.486   5.767  1.4449  0.0541 -0.8097
13682SOL     OW44086   9.637   9.925   4.195 -0.0138  0.9557 -0.4573
13682SOL    HW144087   9.689   9.919   4.110  0.5698 -0.0732 -0.0416
13682SOL    HW244088   9.700   9.939   4.272  0.0458 -3.3136  0.4275
13683SOL     OW44089   5.380   7.951   3.123 -0.2194  0.7328  0.0021
13683SOL    HW144090   5.353   7.866   3.169 -1.1406  0.9123 -0.1943
13683SOL    HW244091   5.470   7.939   3.080 -0.4542 -0.2265 -0.2326
13684SOL     OW44092   8.116   3.927   3.143 -0.2555 -0.0744 -0.1639
13684SOL    HW144093   8.021   3.899   3.150  0.0571 -1.3479 -0.8451
13684SOL    HW244094   8.164   3.867   3.079  1.3036 -0.2590  1.1342
13685SOL     OW44095   8.730   1.292   2.965  0.3733 -0.1049 -0.2475
13685SOL    HW144096   8.688   1.205   2.991 -2.9915  1.5202  0.0845
13685SOL    HW244097   8.738   1.351   3.045  0.8112  0.6009 -0.8024
13686SOL     OW44098   2.253   4.560   5.583  0.2418 -0.0935  0.1731
13686SOL    HW144099   2.258   4.462   5.568 -0.2295  0.3441 -3.3054
13686SOL    HW244100   2.341   4.603   5.561  0.6282  0.2397  2.2339
13687SOL     OW44101   2.895   7.948   5.749  0.4565  0.1206  0.2947
13687SOL    HW144102   2.955   7.930   5.827 -1.0933 -0.0592  1.4541
13687SOL    HW244103   2.860   8.041   5.754  2.2186  0.9382 -1.4917
13688SOL     OW44104   8.322   8.155   3.738  0.1259 -0.1902 -0.2028
13688SOL    HW144105   8.391   8.157   3.665  1.6190 -0.0212  1.1692
13688SOL    HW244106   8.282   8.064   3.744  0.0485 -0.2253 -1.1856
13690SOL     OW44107   9.122   2.422   1.654 -0.5239 -0.6892  0.3639
13690SOL    HW144108   9.171   2.403   1.569  0.8839 -1.2299  1.2694
13690SOL    HW244109   9.027   2.445   1.634 -0.1525 -0.6196 -1.3607
13692SOL     OW44110   1.769   1.990   1.179  0.1399  0.0862 -0.3303
13692SOL    HW144111   1.755   1.900   1.138 -1.2088  0.8121 -1.5082
13692SOL    HW244112   1.681   2.027   1.209  0.6976  0.9779  0.2233
13694SOL     OW44113   8.326   3.653   1.798  0.4081 -0.1159  1.2192
13694SOL    HW144114   8.279   3.613   1.878 -1.1361 -0.9311 -0.0677
13694SOL    HW244115   8.355   3.579   1.738 -0.4332  0.5909 -0.0685
13695SOL     OW44116   2.379   5.640   5.746  0.2229  0.2074  0.6384
13695SOL    HW144117   2.303   5.582   5.718  3.0910 -2.9873 -0.9687
13695SOL    HW244118   2.387   5.639   5.845 -0.2716 -1.5761  0.6876
13696SOL     OW44119   6.593   4.956   1.325  0.0070 -0.1449  0.3420
13696SOL    HW144120   6.516   4.945   1.389 -1.7325  0.9912 -1.5033
13696SOL    HW244121   6.655   5.026   1.359 -0.2057 -0.4800  1.4433
13697SOL     OW44122   2.211   7.756   2.925 -0.1268 -0.6310 -0.0770
13697SOL    HW144123   2.151   7.693   2.876  0.6357 -1.5298  0.1266
13697SOL    HW244124   2.198   7.744   3.024  0.2287 -0.6784 -0.0365
13698SOL     OW44125   4.963   9.565   3.591  0.7884  0.0495 -0.3991
13698SOL    HW144126   5.044   9.622   3.606  0.3532  0.6993 -0.5168
13698SOL    HW244127   4.958   9.539   3.494  0.6404  0.3275 -0.4647
13699SOL     OW44128   4.186   2.339   2.353  0.2483  0.1945 -1.0424
13699SOL    HW144129   4.098   2.298   2.376  0.2969 -0.4695 -1.9838
13699SOL    HW244130   4.250   2.327   2.428 -0.1344 -0.3012 -0.7942
13700SOL     OW44131   6.669   0.740   1.990 -0.4290 -0.4731 -0.0515
13700SOL    HW144132   6.571   0.722   1.994 -0.0028 -2.6944  1.9461
13700SOL    HW244133   6.718   0.667   2.037  2.0998  1.3759  0.3254
13701SOL     OW44134   4.892   7.456   5.735 -0.3658  0.4476  0.4475
13701SOL    HW144135   4.859   7.404   5.814 -1.0576  1.9407  1.1692
13701SOL    HW244136   4.863   7.552   5.744  0.1254  0.7740 -1.2869
13702SOL     OW44137   6.343   5.723   0.498 -0.0128 -0.1719 -0.0509
13702SOL    HW144138   6.323   5.821   0.503 -0.7484 -0.2970 -0.4559
13702SOL    HW244139   6.425   5.703   0.552 -0.1876  0.5778  0.5080
13703SOL     OW44140   3.158   9.081   5.893  0.4788  0.3809 -0.1084
13703SOL    HW144141   3.240   9.125   5.928  0.1898  0.3990  0.5486
13703SOL    HW244142   3.144   8.993   5.939 -0.8093  1.1592  1.0443
13705SOL     OW44143   4.433   1.838   3.631 -0.0434 -0.0169 -0.1046
13705SOL    HW144144   4.355   1.826   3.570 -0.8432 -3.0437  1.4185
13705SOL    HW244145   4.489   1.755   3.630  0.8608  0.5273  2.0019
13706SOL     OW44146   1.317   2.862   1.919 -0.1250 -0.2107 -0.1501
13706SOL    HW144147   1.347   2.767   1.915  0.2886 -0.1054  0.3896
13706SOL    HW244148   1.378   2.914   1.979  0.3346  0.6563 -1.3611
13709SOL     OW44149   2.743   8.072   3.647  0.5852 -0.1012 -0.0915
13709SOL    HW144150   2.729   8.000   3.579 -0.0837  0.0359 -0.1015
13709SOL    HW244151   2.764   8.158   3.601 -0.8481  0.2214 -0.1841
13710SOL     OW44152   9.597   2.767   3.447  0.8292  0.5837 -0.0353
13710SOL    HW144153   9.597   2.746   3.349  0.9270 -0.8789  0.2583
13710SOL    HW244154   9.513   2.733   3.489  1.0684  0.6313  0.4996
13711SOL     OW44155   3.374   3.397   5.647  0.3937  0.2880  0.1561
13711SOL    HW144156   3.445   3.445   5.699 -2.7508  0.6116  4.4014
13711SOL    HW244157   3.296   3.458   5.632 -0.6033 -1.2264 -1.0292
13712SOL     OW44158   3.102   0.877   1.728  0.2978  0.2122 -0.2153
13712SOL    HW144159   3.096   0.970   1.689  1.9696  0.7291  0.7048
13712SOL    HW244160   3.137   0.815   1.658  0.4691  0.5531 -0.4381
13713SOL     OW44161   9.642   3.551   5.855 -0.0923  1.0847  0.3865
13713SOL    HW144162   9.577   3.626   5.872  0.9576  1.8426  1.1281
13713SOL    HW244163   9.680   3.561   5.763  1.2801  2.4409  1.0773
13714SOL     OW44164   2.688   5.952   0.058  0.1271 -0.1891  0.1314
13714SOL    HW144165   2.775   5.988   0.024 -0.8331  0.9829 -1.1589
13714SOL    HW244166   2.622   6.026   0.067 -0.8037 -1.0929  0.9277
13715SOL     OW44167   9.146   8.664   2.788  0.4110 -0.1699  0.0840
13715SOL    HW144168   9.113   8.591   2.727  0.4356 -0.0358 -0.0910
13715SOL    HW244169   9.167   8.745   2.733 -0.9426  0.4269  0.4356
13716SOL     OW44170   1.016   4.808   3.153 -0.5396  0.4146  0.3955
13716SOL    HW144171   1.034   4.843   3.061  1.0439 -1.9216 -0.2314
13716SOL    HW244172   1.065   4.864   3.220  0.4055  0.5851 -0.4177
13718SOL     OW44173   1.072   0.642   1.177 -0.8938  0.4143 -0.0022
13718SOL    HW144174   0.991   0.624   1.121 -0.8976  1.4848 -0.3567
13718SOL    HW244175   1.148   0.586   1.145 -1.6600 -1.0458  0.7227
13719SOL     OW44176   4.000   8.206   3.475  0.0757 -0.0540  0.8108
13719SOL    HW144177   4.053   8.173   3.397  1.8096  0.5157  1.7197
13719SOL    HW244178   3.993   8.133   3.543 -3.0035 -1.1753 -0.6005
13720SOL     OW44179   6.863   5.131   0.721  0.1386  0.1300 -0.1838
13720SOL    HW144180   6.777   5.135   0.771  1.3236  2.5847  1.7443
13720SOL    HW244181   6.939   5.152   0.783  1.9615 -0.0604 -2.2877
13721SOL     OW44182   9.278   3.913   6.043 -0.2733  0.0768  0.0915
13721SOL    HW144183   9.184   3.908   6.075 -0.0793 -1.3264  0.4706
13721SOL    HW244184   9.280   3.916   5.943 -0.7426  0.9477  0.1039
13722SOL     OW44185   4.166   0.989   1.233 -0.1614  0.4792  0.5281
13722SOL    HW144186   4.264   0.978   1.215 -0.2667  0.9683 -0.3617
13722SOL    HW244187   4.146   0.957   1.325  0.6146 -0.8907  0.2398
13723SOL     OW44188   1.844   8.321   4.463 -0.7397  0.1079  0.3642
13723SOL    HW144189   1.834   8.420   4.476 -1.5044  0.0561  0.2010
13723SOL    HW244190   1.757   8.276   4.482 -0.9409 -0.3233 -1.5205
13724SOL     OW44191   4.978   1.038   0.646  0.3112 -0.1607  0.4640
13724SOL    HW144192   4.971   0.990   0.559  0.1159  0.5849  0.0583
13724SOL    HW244193   4.982   1.137   0.629  0.0008  0.0019  1.3178
13725SOL     OW44194   7.496   9.639   6.244 -0.3592  0.0796 -0.0163
13725SOL    HW144195   7.406   9.601   6.267 -0.1989 -0.6115 -0.5303
13725SOL    HW244196   7.542   9.668   6.328 -1.4594  1.3598  0.1811
13727SOL     OW44197   2.969   2.452   1.780  0.0444 -0.3082  0.7140
13727SOL    HW144198   2.999   2.524   1.843  0.3904  0.5348 -0.4155
13727SOL    HW244199   3.041   2.383   1.771 -0.0544 -0.4975  1.3288
13728SOL     OW44200   8.869   4.520   4.822 -0.2991  0.0433 -0.6239
13728SOL    HW144201   8.874   4.587   4.896 -2.2692 -0.2046 -0.2541
13728SOL    HW244202   8.876   4.428   4.860  0.6475 -0.0400 -0.9661
13730SOL     OW44203   3.937   7.611   2.423 -0.0523  0.2065  0.4047
13730SOL    HW144204   3.948   7.512   2.430 -0.9677  0.1757  1.6843
13730SOL    HW244205   3.843   7.632   2.395  0.4269  0.7004 -0.8864
13732SOL     OW44206   2.583   8.582   6.432  0.0233  0.6949 -0.2419
13732SOL    HW144207   2.493   8.601   6.472 -0.2467  0.8545 -0.9120
13732SOL    HW244208   2.570   8.541   6.342  0.6178 -0.1890  0.0717
13733SOL     OW44209   7.467   4.369   0.122 -0.3193 -0.2570  0.0275
13733SOL    HW144210   7.539   4.318   0.169 -1.3073 -1.4856  0.2159
13733SOL    HW244211   7.471   4.351   0.024  0.3744  0.6184 -0.1150
13734SOL     OW44212   8.626   2.255   4.481  0.3559  0.0118 -0.0598
13734SOL    HW144213   8.574   2.171   4.492  1.0420 -0.3228  0.6416
13734SOL    HW244214   8.602   2.319   4.554 -0.1693  0.4310 -0.5944
13735SOL     OW44215   2.139   8.865   4.588 -0.8216 -0.6097 -0.0671
13735SOL    HW144216   2.106   8.888   4.496  0.5812 -1.2174 -0.7495
13735SOL    HW244217   2.114   8.938   4.651  0.4172  1.0985 -1.4675
13737SOL     OW44218   5.174   1.242   1.287 -0.0382 -0.1268  0.0510
13737SOL    HW144219   5.184   1.148   1.253 -0.6512  0.1879 -1.0179
13737SOL    HW244220   5.080   1.272   1.275  0.0837  0.5271  0.6782
13738SOL     OW44221   0.231   5.919   3.906 -0.6406 -0.0366  0.2567
13738SOL    HW144222   0.235   5.823   3.877  0.8930 -0.5186  1.9981
13738SOL    HW244223   0.317   5.964   3.884 -1.9849  1.4564 -2.1720
13739SOL     OW44224   1.349   9.385   0.065 -0.2786  0.0950 -0.2360
13739SOL    HW144225   1.404   9.408   0.146  0.3407  0.6050 -0.7999
13739SOL    HW244226   1.365   9.289   0.041  1.0520  0.4905 -0.9336
13740SOL     OW44227   6.974   9.427   5.794 -0.1919 -0.8307 -0.0229
13740SOL    HW144228   7.023   9.342   5.772 -1.6060 -1.3488 -1.2673
13740SOL    HW244229   6.878   9.405   5.812 -0.6376  0.5713 -0.7013
13741SOL     OW44230   3.678   2.459   5.209  0.4197  0.8756  0.4975
13741SOL    HW144231   3.674   2.384   5.143  1.8468  0.2312  1.1216
13741SOL    HW244232   3.619   2.437   5.287  2.0794 -0.3640  1.4320
13742SOL     OW44233   0.992   6.611   5.346 -0.5519 -0.2423  0.0972
13742SOL    HW144234   0.990   6.532   5.285 -0.4392 -0.5292  0.4613
13742SOL    HW244235   0.901   6.627   5.383 -0.6312 -0.0379 -0.1800
13744SOL     OW44236   7.092   0.117   0.354  0.3454 -0.5932  0.3306
13744SOL    HW144237   7.115   0.137   0.259  0.1992 -0.1700  0.3849
13744SOL    HW244238   7.102   0.019   0.371  1.7338 -0.4808  0.2530
13745SOL     OW44239   8.561   1.143   6.276  0.0796  1.0766 -0.4667
13745SOL    HW144240   8.517   1.120   6.188  1.7113 -0.6803 -0.8551
13745SOL    HW244241   8.504   1.209   6.325 -1.7306  0.7662 -2.0750
13746SOL     OW44242   7.739   8.368   4.430 -0.2624 -0.3666 -0.3639
13746SOL    HW144243   7.658   8.331   4.474  1.0644 -1.4625  1.2052
13746SOL    HW244244   7.819   8.353   4.488  1.2877 -0.4481 -2.4483
13747SOL     OW44245   9.960   9.636   6.433  0.5265 -0.2280  0.5392
13747SOL    HW144246   9.972   9.718   6.489 -1.9181  0.5193  0.0075
13747SOL    HW244247   9.917   9.564   6.487 -2.0324  0.5652 -0.3609
13748SOL     OW44248   8.315   1.567   5.412 -0.0969  0.0963 -0.0291
13748SOL    HW144249   8.301   1.474   5.446  1.2301 -0.5147 -1.0766
13748SOL    HW244250   8.237   1.595   5.357  1.3218 -2.1069 -3.3626
13749SOL     OW44251   6.005   2.337   0.553 -0.1489 -0.7180 -0.3892
13749SOL    HW144252   6.038   2.424   0.590  0.5034 -1.3992  0.6637
13749SOL    HW244253   5.909   2.346   0.528 -0.8421 -0.4667  2.2468
13750SOL     OW44254   9.958   4.396   2.284 -0.2352 -0.5637  0.2092
13750SOL    HW144255   9.964   4.496   2.280 -1.5373 -0.5161 -1.0128
13750SOL    HW244256  10.037   4.356   2.238  0.1428 -0.0945  0.4491
13751SOL     OW44257   8.377   3.879   2.276 -0.1146  0.6172 -0.2207
13751SOL    HW144258   8.360   3.922   2.187 -0.7816 -2.3247 -1.5687
13751SOL    HW244259   8.290   3.845   2.313  0.8217 -2.6262 -0.8564
13752SOL     OW44260   1.646   6.296   3.180 -0.3029 -0.1065 -0.6624
13752SOL    HW144261   1.638   6.207   3.224  0.6047  0.8212  1.4885
13752SOL    HW244262   1.743   6.319   3.170 -0.4539 -0.9279 -4.5637
13754SOL     OW44263   9.667   6.834   2.438  0.4659  0.3302  0.1207
13754SOL    HW144264   9.573   6.865   2.452 -1.1759 -2.9213 -2.9216
13754SOL    HW244265   9.680   6.746   2.485  2.3403  1.2506  1.3736
13755SOL     OW44266   4.791   1.888   2.076  0.6539 -0.2124  0.0594
13755SOL    HW144267   4.764   1.971   2.027 -1.4727  0.7423  2.7401
13755SOL    HW244268   4.737   1.810   2.042 -0.6367  0.3948  0.6939
13756SOL     OW44269   8.757   6.116   0.752  0.4179  0.1940  0.0822
13756SOL    HW144270   8.838   6.119   0.693  0.2986  1.1724 -0.0250
13756SOL    HW244271   8.762   6.188   0.820  0.1668 -0.4412  0.7810
13757SOL     OW44272   9.817   6.906   1.036 -0.0314 -0.6705 -0.0397
13757SOL    HW144273   9.848   6.811   1.042  1.0983 -0.2994  0.1317
13757SOL    HW244274   9.764   6.919   0.952 -2.0716 -1.9704  0.9866
13760SOL     OW44275   3.870   9.298   3.198 -0.3256  0.1037 -0.1660
13760SOL    HW144276   3.906   9.366   3.133  0.7974 -0.6416 -0.3402
13760SOL    HW244277   3.937   9.285   3.272 -0.3499 -1.1304 -0.3621
13762SOL     OW44278   6.400   0.525   5.130  0.5402 -0.7654 -0.2984
13762SOL    HW144279   6.492   0.550   5.098  1.1047 -1.2490  0.9023
13762SOL    HW244280   6.407   0.480   5.219 -0.8974 -0.5401 -0.0564
13763SOL     OW44281   9.467   8.262   2.000  0.5341 -0.0469  0.9525
13763SOL    HW144282   9.520   8.310   1.931 -0.8019 -0.1323 -0.1574
13763SOL    HW244283   9.499   8.167   2.007 -0.9925 -0.7601 -1.3841
13764SOL     OW44284   4.901   8.612   3.134 -0.3909  0.6230 -0.2423
13764SOL    HW144285   4.986   8.588   3.181 -0.5843 -0.2271 -0.3034
13764SOL    HW244286   4.914   8.695   3.081  0.3542  0.5952 -0.1122
13765SOL     OW44287   2.726   2.482   4.580 -0.2110 -0.1304 -0.0115
13765SOL    HW144288   2.685   2.542   4.649  1.3542  0.0723  0.7503
13765SOL    HW244289   2.749   2.536   4.498 -0.7519 -0.1037 -0.1500
13767SOL     OW44290   0.223   6.859   0.487  0.4784  0.6981 -0.6053
13767SOL    HW144291   0.292   6.921   0.524 -0.5193  2.3536 -1.5083
13767SOL    HW244292   0.255   6.764   0.497  2.7251  1.4237 -0.7002
13768SOL     OW44293   2.977   5.279   2.124 -0.0319  0.8896  0.1638
13768SOL    HW144294   2.985   5.348   2.197  0.4409  0.3298  0.6486
13768SOL    HW244295   2.913   5.208   2.153 -0.7927  1.2947 -0.4836
13769SOL     OW44296   2.511   1.331   1.327 -0.0290  0.0003  1.0387
13769SOL    HW144297   2.520   1.233   1.345  0.9750  0.0030  0.5879
13769SOL    HW244298   2.526   1.382   1.412 -0.4809 -0.2259  1.2581
13770SOL     OW44299   9.001   6.367   3.649  0.0006 -1.1681  0.5439
13770SOL    HW144300   8.954   6.366   3.738  1.0879  0.2859  1.1599
13770SOL    HW244301   9.089   6.321   3.657  1.0555  0.8327  0.7999
13772SOL     OW44302   1.179   1.057   1.547 -0.1636 -0.1960  0.0430
13772SOL    HW144303   1.278   1.045   1.558 -0.1786  0.4826  0.9384
13772SOL    HW244304   1.146   0.996   1.474  0.9296 -0.3324 -0.3496
13773SOL     OW44305   4.931   8.980   5.055 -0.0320  0.0898  0.2166
13773SOL    HW144306   4.857   9.042   5.080 -0.2921 -0.2528  0.3052
13773SOL    HW244307   4.898   8.916   4.986  0.3894  0.3873 -0.2630
13774SOL     OW44308   1.728   9.398   5.688  0.0310 -0.2995 -0.2591
13774SOL    HW144309   1.665   9.476   5.684 -0.4000 -0.6535 -0.4738
13774SOL    HW244310   1.741   9.371   5.783 -0.2410 -0.2983 -0.2190
13775SOL     OW44311   2.292   9.926   5.321 -0.6996  0.0519 -0.2171
13775SOL    HW144312   2.348   9.859   5.369 -0.3320  1.5993  1.5575
13775SOL    HW244313   2.226   9.878   5.262  0.6467 -1.8179 -0.2631
13776SOL     OW44314   3.261   4.177   4.319  1.0264  0.3690  0.1812
13776SOL    HW144315   3.239   4.201   4.414  1.1466  2.6344 -0.3406
13776SOL    HW244316   3.354   4.208   4.297  0.3835  1.3561 -1.1803
13777SOL     OW44317   4.167   4.068   4.847 -0.3279 -0.0574  0.1131
13777SOL    HW144318   4.232   4.046   4.774 -0.0157 -0.0574  0.3916
13777SOL    HW244319   4.098   3.996   4.852 -0.4490  0.0300 -0.3000
13778SOL     OW44320   6.965   5.840   0.433 -0.0895  0.2161 -0.5525
13778SOL    HW144321   6.992   5.802   0.344  0.6169 -0.1129 -0.2040
13778SOL    HW244322   7.037   5.901   0.466 -0.6532  0.8675 -0.5167
13780SOL     OW44323   3.953   8.938   3.983 -0.0480  0.2970 -0.0706
13780SOL    HW144324   3.869   8.955   3.931 -1.2367  1.0159  2.0148
13780SOL    HW244325   4.029   8.988   3.942 -0.6653 -0.1952 -1.8615
13781SOL     OW44326   7.042   2.684   3.044 -0.5796  0.0459  0.3931
13781SOL    HW144327   7.073   2.616   3.109 -0.4946 -0.2723  0.0207
13781SOL    HW244328   7.113   2.699   2.975 -1.4384 -1.0397 -0.7412
13783SOL     OW44329   9.015   8.627   1.249 -0.2865  0.3553 -0.0543
13783SOL    HW144330   9.047   8.722   1.241 -2.0799  0.9884  0.0547
13783SOL    HW244331   8.954   8.619   1.327 -0.9284 -0.6612 -0.6523
13784SOL     OW44332   2.918   4.288   4.078  0.3189  0.0201 -0.0376
13784SOL    HW144333   2.822   4.313   4.063 -0.2657  0.3163  3.7921
13784SOL    HW244334   2.969   4.368   4.108  0.3647 -1.3598  3.8425
13788SOL     OW44335   4.475   4.796   5.951  0.6218  0.2384 -0.1828
13788SOL    HW144336   4.376   4.782   5.955  0.6405  0.1086 -0.1612
13788SOL    HW244337   4.507   4.782   5.857  0.7152 -0.3841 -0.0593
13789SOL     OW44338   6.638   8.350   3.924 -0.2482 -0.4253 -0.3281
13789SOL    HW144339   6.616   8.443   3.951  0.9414  0.3038 -1.7786
13789SOL    HW244340   6.714   8.316   3.980 -0.4400 -0.3896 -0.0460
13791SOL     OW44341   2.723   4.497   4.304 -0.4327 -0.5644  0.9889
13791SOL    HW144342   2.817   4.506   4.334 -0.1531 -0.3591  0.0726
13791SOL    HW244343   2.696   4.400   4.305  0.0236 -0.6941  0.5404
13792SOL     OW44344   0.171   7.572   1.452 -0.9002  0.0383  0.2429
13792SOL    HW144345   0.080   7.607   1.474 -0.5837  0.8573  0.2497
13792SOL    HW244346   0.177   7.476   1.480 -1.2377  0.4251  1.6415
13793SOL     OW44347   4.308   3.996   0.636  0.2257  0.1258 -0.3856
13793SOL    HW144348   4.340   4.034   0.549  0.2310  0.6262 -0.1649
13793SOL    HW244349   4.236   3.929   0.618  0.4960 -0.0589 -0.8013
13794SOL     OW44350   2.826   2.579   5.346  0.2325  0.3503  0.9510
13794SOL    HW144351   2.865   2.500   5.394 -0.3740 -0.5497 -0.0273
13794SOL    HW244352   2.738   2.603   5.387 -0.1059 -0.1788  0.5351
13795SOL     OW44353   4.180   5.479   2.969  0.2465 -0.2375 -0.1179
13795SOL    HW144354   4.276   5.502   2.952 -0.1914  0.8454 -1.2838
13795SOL    HW244355   4.171   5.381   2.983  1.4632 -0.4092 -0.4642
13796SOL     OW44356   3.004   1.807   5.445  0.1399  0.1840 -0.2159
13796SOL    HW144357   3.064   1.800   5.365 -0.1288 -1.1424 -0.2992
13796SOL    HW244358   2.935   1.735   5.442  1.3066 -1.0879  2.1837
13797SOL     OW44359   1.536   5.170   4.377 -0.3351 -0.5150  0.2594
13797SOL    HW144360   1.587   5.155   4.292  0.2996 -0.9345  0.7054
13797SOL    HW244361   1.501   5.082   4.410 -0.1442 -0.4264  0.6966
13798SOL     OW44362   0.470   0.813   5.877  0.7643 -0.1397  0.0358
13798SOL    HW144363   0.509   0.730   5.837  0.2480 -0.0062 -0.7620
13798SOL    HW244364   0.535   0.853   5.942  1.4506 -0.5871 -0.3720
13799SOL     OW44365   3.776   5.054   4.408 -0.0564  0.5351  0.8670
13799SOL    HW144366   3.731   4.973   4.446 -0.5138  0.5006  0.2474
13799SOL    HW244367   3.791   5.121   4.482  1.1743 -0.4809  1.5741
13800SOL     OW44368   3.675   9.744   5.154 -0.2508  0.0379 -0.0772
13800SOL    HW144369   3.723   9.805   5.091  0.4862  0.2024  0.6321
13800SOL    HW244370   3.669   9.787   5.244  1.5916 -1.5020  0.8370
13802SOL     OW44371   6.573   7.339   6.170 -0.1654 -0.0803  0.4870
13802SOL    HW144372   6.478   7.344   6.140 -0.9209 -1.6875  2.5500
13802SOL    HW244373   6.593   7.416   6.231 -0.1848  0.1472  0.2098
13803SOL     OW44374   8.959   1.614   2.780  0.2964  0.4789 -0.4994
13803SOL    HW144375   8.936   1.520   2.804 -1.1751  0.4809 -1.8172
13803SOL    HW244376   9.053   1.634   2.809 -0.7590 -0.0353  3.6103
13804SOL     OW44377   9.091   4.307   1.142  0.2039  0.0221 -0.4185
13804SOL    HW144378   9.006   4.344   1.181 -0.8520 -1.2036 -1.5004
13804SOL    HW244379   9.071   4.220   1.097  2.2095 -0.6844  0.0255
13805SOL     OW44380   0.195   6.789   6.180 -0.3528  0.6389  0.2644
13805SOL    HW144381   0.174   6.837   6.266 -1.0139 -1.4348  1.3020
13805SOL    HW244382   0.292   6.800   6.158 -0.3563  1.8678  0.8400
13806SOL     OW44383   8.039   6.710   1.043 -0.2056  0.0418  0.3549
13806SOL    HW144384   8.132   6.737   1.015 -0.0727 -0.1182  0.6368
13806SOL    HW244385   7.972   6.766   0.993  0.0089 -0.5755 -0.6494
13807SOL     OW44386   9.512   6.718   5.286 -0.3246 -0.3544 -0.8311
13807SOL    HW144387   9.546   6.750   5.374 -0.4206  0.3761 -1.0556
13807SOL    HW244388   9.560   6.633   5.261  1.3751  0.6656 -1.1446
13809SOL     OW44389   7.812   1.394   0.659 -0.0381 -0.1175 -0.6720
13809SOL    HW144390   7.813   1.411   0.758 -1.3297 -0.4220 -0.5955
13809SOL    HW244391   7.905   1.402   0.623  0.2389  1.3997  0.3259
13810SOL     OW44392   3.360   6.343   1.647  0.4007  0.4524  0.6021
13810SOL    HW144393   3.284   6.329   1.583  1.2447 -1.1204 -0.0668
13810SOL    HW244394   3.427   6.404   1.604  0.4129  0.3275  0.4414
13812SOL     OW44395   9.533   0.978   1.752 -0.4054  0.5702 -0.0499
13812SOL    HW144396   9.435   0.977   1.729  0.2919 -0.2115 -3.1783
13812SOL    HW244397   9.567   0.884   1.755  0.4471  0.8907  0.1889
13813SOL     OW44398   7.416   8.132   4.259  0.4305  0.4631  0.8113
13813SOL    HW144399   7.497   8.078   4.239  0.5896  0.8340  0.4416
13813SOL    HW244400   7.399   8.196   4.184 -1.1402 -0.7475  0.1179
13814SOL     OW44401   3.295   3.229   1.377 -0.2718  0.0105 -0.0292
13814SOL    HW144402   3.277   3.236   1.279 -0.4642  1.2458  0.0954
13814SOL    HW244403   3.333   3.315   1.411 -1.1528 -0.0596  1.1811
13815SOL     OW44404   9.280   8.454   1.844 -0.7814 -0.3111  0.2817
13815SOL    HW144405   9.330   8.454   1.758 -3.0661  2.1149 -1.1223
13815SOL    HW244406   9.343   8.432   1.919  1.9244  0.6030 -1.6372
13816SOL     OW44407   3.862   4.755   2.970 -0.6308 -0.3416  0.3887
13816SOL    HW144408   3.824   4.814   2.899 -0.1251 -2.0061 -1.3215
13816SOL    HW244409   3.791   4.732   3.036 -0.7613  2.3485  1.2104
13817SOL     OW44410   4.757   8.459   2.695  0.0724  0.1165  0.0210
13817SOL    HW144411   4.844   8.495   2.662  0.0936  0.0094 -0.0407
13817SOL    HW244412   4.764   8.436   2.792  0.0361  0.3487  0.0802
13818SOL     OW44413   2.125   7.193   1.277  0.0070  0.3432 -0.0252
13818SOL    HW144414   2.049   7.222   1.336  0.3221  0.8533  0.1343
13818SOL    HW244415   2.090   7.135   1.203 -0.9567  2.9384 -1.6563
13819SOL     OW44416   4.061   0.050   3.946 -0.3270 -0.4389  0.6441
13819SOL    HW144417   4.127  -0.021   3.970 -0.1588 -0.5660 -0.1643
13819SOL    HW244418   4.050   0.052   3.846 -0.0939  0.8848  0.6450
13820SOL     OW44419   1.159   9.602   6.009  0.1095 -0.1920  0.2783
13820SOL    HW144420   1.216   9.622   6.089  0.4211  0.2070 -0.0428
13820SOL    HW244421   1.213   9.612   5.926 -0.5521  0.6546 -0.0604
13822SOL     OW44422   1.605   7.711   3.822 -0.3638  0.9882 -0.1183
13822SOL    HW144423   1.584   7.682   3.729 -4.0203 -1.8633  1.4920
13822SOL    HW244424   1.678   7.654   3.860 -0.7511  0.3956 -0.2773
13824SOL     OW44425   4.023   9.742   6.212 -0.2806 -0.2191 -0.5545
13824SOL    HW144426   4.089   9.806   6.253 -1.1864 -0.1103  0.7594
13824SOL    HW244427   3.953   9.793   6.163 -0.3567 -0.2543 -0.4823
13825SOL     OW44428   6.886   7.826   4.781 -0.2588  0.3409  0.0841
13825SOL    HW144429   6.960   7.832   4.847  0.0901 -1.7232 -0.0944
13825SOL    HW244430   6.915   7.770   4.703 -1.1998  1.4469 -1.0998
13826SOL     OW44431   8.835   9.037   4.027  0.0019  0.1260  0.1278
13826SOL    HW144432   8.852   9.028   4.125 -0.6918  0.2611  0.2679
13826SOL    HW244433   8.786   9.123   4.009  0.0493  0.0625 -0.3218
13828SOL     OW44434   3.276   3.417   4.644  0.2458 -0.3567  0.4166
13828SOL    HW144435   3.241   3.359   4.571 -1.0206  0.3492  0.4588
13828SOL    HW244436   3.207   3.426   4.716  0.2675  1.5035  0.2306
13829SOL     OW44437   8.486   2.090   0.789 -0.4013 -0.4105  0.1196
13829SOL    HW144438   8.508   2.010   0.732  1.4300 -0.7081  1.1759
13829SOL    HW244439   8.524   2.172   0.747 -2.9527  0.0513 -1.3629
13830SOL     OW44440   8.886   4.870   1.411  0.3838  0.1173 -0.0360
13830SOL    HW144441   8.933   4.896   1.328  1.8511 -0.5417  0.5715
13830SOL    HW244442   8.858   4.952   1.461 -0.2055  0.5088 -1.0035
13831SOL     OW44443   5.363   9.807   5.318  0.5787  0.6551 -0.2528
13831SOL    HW144444   5.460   9.785   5.307  0.2605  0.1107 -2.0642
13831SOL    HW244445   5.308   9.744   5.263 -0.6415  2.7440 -1.4769
13833SOL     OW44446   4.929   1.766   5.292 -0.4216 -0.1356  0.8234
13833SOL    HW144447   4.988   1.689   5.264  0.2813 -0.2198  2.4411
13833SOL    HW244448   4.846   1.730   5.334 -1.6162 -0.0135 -1.3834
13834SOL     OW44449   9.069   5.765   4.400 -0.7070 -0.0751  0.3078
13834SOL    HW144450   9.041   5.788   4.493 -1.6720 -0.1216  0.0291
13834SOL    HW244451   9.123   5.840   4.361 -0.7197  0.1475  0.7207
13835SOL     OW44452   6.793   0.762   4.510 -0.3730 -0.1830 -0.3422
13835SOL    HW144453   6.787   0.677   4.459  0.2862 -0.8268  0.6296
13835SOL    HW244454   6.889   0.784   4.526 -0.4751  1.6021 -1.9767
13837SOL     OW44455   7.644   2.638   6.436  0.2187 -0.1098 -0.1123
13837SOL    HW144456   7.620   2.728   6.400 -0.8945 -0.0973  0.6425
13837SOL    HW244457   7.588   2.618   6.516  0.4397 -1.4856 -0.2903
13838SOL     OW44458   8.472   6.636   3.455  0.6386  0.1575  0.6987
13838SOL    HW144459   8.466   6.631   3.355 -0.6013 -0.8809  0.7956
13838SOL    HW244460   8.385   6.606   3.495  1.7246 -1.2098  2.1270
13839SOL     OW44461   9.355   1.487   1.486  0.2699 -0.2187  0.1254
13839SOL    HW144462   9.387   1.468   1.579 -0.3087 -3.1984 -0.2308
13839SOL    HW244463   9.271   1.541   1.490  0.3662 -0.1404  1.3289
13841SOL     OW44464   3.844   0.881   1.209  0.2150 -0.1768  0.1119
13841SOL    HW144465   3.857   0.917   1.117  0.1841 -0.7533 -0.1185
13841SOL    HW244466   3.920   0.820   1.232  0.6194  0.5546  0.7573
13842SOL     OW44467   8.459   6.674   2.626 -0.1807 -0.4151 -0.2261
13842SOL    HW144468   8.532   6.644   2.564 -0.8855  0.2236 -1.3847
13842SOL    HW244469   8.482   6.764   2.663  0.9060 -1.3863  1.5686
13843SOL     OW44470   7.957   6.264   5.721 -0.2465  0.3217 -1.2211
13843SOL    HW144471   7.958   6.277   5.621  0.6326  0.7437 -1.1663
13843SOL    HW244472   8.050   6.265   5.755 -0.4412 -1.5149 -0.5830
13844SOL     OW44473   8.774   2.324   3.238 -0.1854 -0.3779 -0.3680
13844SOL    HW144474   8.732   2.248   3.187  0.2740 -0.9922  0.1586
13844SOL    HW244475   8.802   2.292   3.329 -0.8613  0.6739  0.2140
13845SOL     OW44476   3.703   5.739   0.221  0.0721 -0.6995  0.0767
13845SOL    HW144477   3.738   5.662   0.275 -0.7674 -0.5578  0.8257
13845SOL    HW244478   3.651   5.705   0.143  1.8759 -0.9165 -1.0687
13846SOL     OW44479   4.365   6.887   2.709 -0.2214  0.0381  0.6718
13846SOL    HW144480   4.409   6.835   2.782  1.1007 -0.8234 -0.7198
13846SOL    HW244481   4.434   6.923   2.647 -1.2307  2.0997  0.6964
13847SOL     OW44482   8.418   7.107   1.920 -0.1153 -0.0920 -0.2208
13847SOL    HW144483   8.415   7.036   1.990  1.4314 -1.1841 -1.2356
13847SOL    HW244484   8.326   7.119   1.882 -0.5180 -1.1128  0.3859
13849SOL     OW44485   0.528   7.048   3.361 -0.2381 -0.1988  0.4721
13849SOL    HW144486   0.550   7.056   3.264  0.7660  0.3490  0.7456
13849SOL    HW244487   0.475   7.128   3.390  0.9512  0.4882  0.7773
13850SOL     OW44488   1.832   8.852   2.708  0.2834  0.6860 -0.5381
13850SOL    HW144489   1.740   8.814   2.720  0.4986  0.3221 -0.0140
13850SOL    HW244490   1.878   8.857   2.797  2.1149 -2.6036 -1.1993
13851SOL     OW44491   8.006   6.702   6.028 -0.0387  0.2470 -0.3295
13851SOL    HW144492   7.963   6.676   5.942  0.0022  1.4454 -0.7153
13851SOL    HW244493   7.952   6.774   6.072  0.1302 -0.1136  0.4789
13852SOL     OW44494   9.589   7.323   0.407  0.8556 -0.6131  1.1345
13852SOL    HW144495   9.574   7.276   0.320  1.0446  1.0047  0.2011
13852SOL    HW244496   9.518   7.297   0.472  0.4298 -1.4665  0.3354
13853SOL     OW44497   7.299   3.884   5.829 -0.4640 -0.1929  0.1912
13853SOL    HW144498   7.278   3.903   5.734  2.3895 -2.6853 -1.0410
13853SOL    HW244499   7.373   3.944   5.859 -0.7064 -0.0677  0.5422
13854SOL     OW44500   3.402   5.278   0.938  0.1057  0.0936 -0.2594
13854SOL    HW144501   3.435   5.322   1.021  0.6338 -0.7404 -0.0178
13854SOL    HW244502   3.465   5.298   0.862 -0.7807  1.4791 -0.6427
13855SOL     OW44503   2.452   2.149   3.335 -0.3023 -0.0410  0.1897
13855SOL    HW144504   2.430   2.094   3.254 -1.5730  0.0744  0.4475
13855SOL    HW244505   2.385   2.131   3.407  0.9643 -0.3134  1.3055
13856SOL     OW44506   6.860   2.515   0.594  0.0097 -0.2520 -0.5646
13856SOL    HW144507   6.956   2.530   0.614 -0.2588 -0.2205  0.7032
13856SOL    HW244508   6.810   2.601   0.598 -0.2157 -0.3857 -0.4491
13857SOL     OW44509   3.991   2.663   4.319  0.1943 -0.0510  0.2882
13857SOL    HW144510   3.964   2.664   4.223  3.1278  0.5068 -0.5594
13857SOL    HW244511   4.030   2.574   4.342  1.1184  0.3982  0.4891
13858SOL     OW44512   9.882   7.694   4.049  0.2150  0.1157  0.2281
13858SOL    HW144513   9.840   7.727   3.964 -0.9729  0.7117  1.0371
13858SOL    HW244514   9.958   7.754   4.074  0.6481 -0.1358 -0.4818
13859SOL     OW44515   0.443   7.759   0.880  0.2702  0.5682 -0.1471
13859SOL    HW144516   0.347   7.779   0.896 -0.1011 -2.0231  1.1416
13859SOL    HW244517   0.452   7.711   0.792  0.1640 -0.6255  0.4830
13860SOL     OW44518   1.691   3.382   2.325  0.4342 -0.0341  0.3363
13860SOL    HW144519   1.709   3.450   2.254 -0.9799  1.4183  1.3223
13860SOL    HW244520   1.777   3.355   2.368  1.1307  0.2594 -0.8517
13862SOL     OW44521   0.958   2.330   0.965  0.4377 -0.3008  0.3125
13862SOL    HW144522   0.893   2.343   0.890 -1.2485  0.9269  1.9478
13862SOL    HW244523   0.908   2.323   1.051  2.3782 -1.2729  1.3908
13863SOL     OW44524   9.793   9.988   4.405 -0.2393 -0.1691 -0.0789
13863SOL    HW144525   9.848  10.067   4.377 -2.3968  1.0093 -1.1381
13863SOL    HW244526   9.807   9.970   4.502 -0.2129  1.9300  0.3349
13864SOL     OW44527   0.640   0.213   1.227 -0.0768  0.0837 -0.3563
13864SOL    HW144528   0.610   0.289   1.285  0.5379 -0.0146  0.0877
13864SOL    HW244529   0.662   0.134   1.284  3.7271  1.0021 -0.4064
13865SOL     OW44530   1.551   4.791   5.303 -0.2615  0.0914 -0.0857
13865SOL    HW144531   1.513   4.860   5.365 -1.1488 -0.2967 -0.1935
13865SOL    HW244532   1.523   4.810   5.209 -0.4902 -0.3938 -0.1207
13866SOL     OW44533   0.370   8.189   0.195  0.0720  0.1816 -0.1969
13866SOL    HW144534   0.336   8.107   0.241  0.3195 -0.5600 -1.3445
13866SOL    HW244535   0.316   8.206   0.112  1.0314  0.2920 -0.8018
13868SOL     OW44536   1.661   7.593   1.945 -0.5122 -0.5352  0.0350
13868SOL    HW144537   1.639   7.550   1.857 -0.4446 -1.0110  0.2484
13868SOL    HW244538   1.656   7.525   2.018 -0.9976 -0.0466  0.4643
13869SOL     OW44539   2.224   0.802   0.246 -0.2227 -0.0213 -0.1300
13869SOL    HW144540   2.225   0.792   0.147  0.1040 -0.5475 -0.0790
13869SOL    HW244541   2.139   0.763   0.283  0.1961 -0.9269 -0.1018
13870SOL     OW44542   9.671   0.699   5.516  0.0734  0.1138  0.3909
13870SOL    HW144543   9.598   0.696   5.447 -1.5285 -1.3011  2.1070
13870SOL    HW244544   9.738   0.627   5.497 -0.4342 -0.3585  0.3727
13871SOL     OW44545   9.693   0.574   4.704  0.2408 -0.4177 -0.2723
13871SOL    HW144546   9.787   0.568   4.737  0.1875  0.0556 -0.0170
13871SOL    HW244547   9.642   0.493   4.733  0.0215  0.2955  1.4087
13872SOL     OW44548   2.933   4.318   3.176  0.7463 -0.0237  0.8196
13872SOL    HW144549   2.977   4.229   3.167 -0.1125 -0.4251  0.5934
13872SOL    HW244550   2.943   4.350   3.270 -1.1384 -1.5263  1.5689
13874SOL     OW44551   3.204   9.730   4.772  0.3823  0.5296  0.2315
13874SOL    HW144552   3.139   9.718   4.697  0.4992  1.0125  0.0529
13874SOL    HW244553   3.273   9.797   4.746  0.2725  0.8923  0.8694
13877SOL     OW44554   6.449   9.262   4.563 -0.0284 -0.9991 -0.1777
13877SOL    HW144555   6.357   9.231   4.590 -0.6836 -0.5407 -1.8072
13877SOL    HW244556   6.478   9.211   4.482 -0.4506  1.4815 -1.9420
13881SOL     OW44557   9.807   1.754   4.152 -0.1644  0.1038  0.2921
13881SOL    HW144558   9.864   1.698   4.092 -1.4241 -1.7062  0.7660
13881SOL    HW244559   9.711   1.727   4.144 -0.7393  1.8189  0.9576
13882SOL     OW44560   3.941   9.979   0.558 -0.0663 -0.3369 -0.0359
13882SOL    HW144561   3.987   9.953   0.474 -2.4810 -0.3123 -1.4152
13882SOL    HW244562   3.960  10.074   0.579  0.5190 -0.3346 -0.5764
13884SOL     OW44563   4.094   3.148   2.455 -0.3139 -0.4496 -0.7338
13884SOL    HW144564   4.040   3.188   2.530  0.2971  1.0941 -1.0916
13884SOL    HW244565   4.091   3.049   2.461  0.0513 -0.3460  1.5799
13885SOL     OW44566   7.284   7.177   5.089  0.4242  0.3413 -0.4860
13885SOL    HW144567   7.376   7.203   5.119  0.9097  0.2949 -1.8812
13885SOL    HW244568   7.289   7.089   5.042 -0.5006 -0.1338  0.2948
13888SOL     OW44569   2.486   6.662   5.985 -0.4236 -0.6360  0.7914
13888SOL    HW144570   2.435   6.709   5.913 -0.1480  0.4276  1.2791
13888SOL    HW244571   2.536   6.586   5.946 -2.6769 -1.9396  0.3604
13889SOL     OW44572   4.140   9.994   3.093  0.4368 -0.0996 -0.2617
13889SOL    HW144573   4.042  10.003   3.072 -0.1005 -2.0377  1.3289
13889SOL    HW244574   4.157  10.028   3.185  1.0861 -0.7662 -0.1387
13890SOL     OW44575   7.306   4.926   0.047  0.2859  0.3386  0.3899
13890SOL    HW144576   7.324   5.017   0.008 -2.7361  0.4870 -0.8087
13890SOL    HW244577   7.316   4.857  -0.024 -1.4467  0.2049  0.2435
13891SOL     OW44578   8.803   5.452   6.122  0.1172  0.2601  0.7118
13891SOL    HW144579   8.773   5.542   6.155 -0.3496 -0.0251  1.0656
13891SOL    HW244580   8.779   5.443   6.025 -0.6913  0.1525  0.9123
13892SOL     OW44581   4.511   7.980   1.476  0.3052  0.0092  0.0871
13892SOL    HW144582   4.450   8.057   1.457 -0.2635 -0.6639 -0.7867
13892SOL    HW244583   4.465   7.894   1.456  1.3352 -0.5269 -0.0140
13893SOL     OW44584   1.696   5.452   1.244 -0.1331  0.6184  0.1548
13893SOL    HW144585   1.756   5.374   1.228 -2.3209 -1.3096  0.9262
13893SOL    HW244586   1.745   5.522   1.296  1.8342 -0.2807 -0.4399
13894SOL     OW44587   9.631   7.289   2.621  0.2447 -0.0802  0.3964
13894SOL    HW144588   9.674   7.314   2.708  0.0335 -0.3225  0.5721
13894SOL    HW244589   9.531   7.288   2.633  0.1096  1.6918 -0.3207
13895SOL     OW44590   0.733   5.773   3.231  0.4661 -0.3198  0.1214
13895SOL    HW144591   0.795   5.723   3.292  1.0989  0.0020 -0.2512
13895SOL    HW244592   0.702   5.712   3.158  0.2955 -0.4966  0.3386
13896SOL     OW44593   1.889   7.330   3.905  0.2824 -0.4524 -0.5729
13896SOL    HW144594   1.946   7.379   3.839 -1.1565 -0.1024 -1.5790
13896SOL    HW244595   1.840   7.396   3.961  0.6708 -0.7526  0.1195
13897SOL     OW44596   5.640   7.291   6.022 -0.1901 -0.1345 -0.7892
13897SOL    HW144597   5.612   7.202   5.988 -0.9721  0.5212 -1.8957
13897SOL    HW244598   5.607   7.362   5.960 -1.0333  1.0493  0.9739
13898SOL     OW44599   5.171   5.855   1.901  0.2161 -0.1093 -0.1196
13898SOL    HW144600   5.231   5.827   1.826  1.1194 -2.2641  1.3637
13898SOL    HW244601   5.226   5.875   1.983 -0.8939  0.3720  0.5294
13899SOL     OW44602   9.137   9.384   2.654  0.2029 -0.5863 -0.0951
13899SOL    HW144603   9.090   9.356   2.738  1.3326 -0.5708  0.5487
13899SOL    HW244604   9.144   9.484   2.652  0.2519 -0.5909 -0.1641
13900SOL     OW44605   2.157   4.138   3.566 -0.1245 -0.8256 -0.8775
13900SOL    HW144606   2.214   4.217   3.541  0.6279 -1.5912 -1.6071
13900SOL    HW244607   2.149   4.077   3.487  1.3259 -2.7112  0.4087
13901SOL     OW44608   8.333   0.654   0.983 -0.1092  0.2848  0.6128
13901SOL    HW144609   8.412   0.692   0.934  0.2828 -2.3004 -0.8840
13901SOL    HW244610   8.250   0.702   0.956  0.2894 -0.2605 -1.6774
13902SOL     OW44611   2.714   4.407   4.901 -0.6910  0.2578  0.4759
13902SOL    HW144612   2.789   4.457   4.945 -1.5837  1.1749  0.9766
13902SOL    HW244613   2.726   4.409   4.802  2.0597 -2.9554  0.6640
13905SOL     OW44614   9.930   0.735   0.277  0.9126 -0.4251 -0.4673
13905SOL    HW144615   9.833   0.717   0.264  0.4496  2.0434 -0.6999
13905SOL    HW244616   9.945   0.777   0.366  1.5415  0.7989 -1.1361
13906SOL     OW44617   0.196   6.615   1.859 -0.0384 -0.0002  0.0469
13906SOL    HW144618   0.100   6.609   1.831  0.4790 -0.1504 -1.8312
13906SOL    HW244619   0.250   6.549   1.806  1.1326  0.2524  0.9036
13907SOL     OW44620   2.084   7.298   6.020 -0.0993 -0.1588  0.3485
13907SOL    HW144621   1.998   7.342   6.044 -0.5492 -0.7335 -0.2033
13907SOL    HW244622   2.137   7.357   5.959  0.3274  0.6076  1.4520
13908SOL     OW44623   2.739   3.918   3.539 -0.0757  0.1531 -0.3524
13908SOL    HW144624   2.702   3.828   3.564 -0.9645  0.4748 -0.4953
13908SOL    HW244625   2.805   3.906   3.465  0.6839 -0.5131  0.4257
13910SOL     OW44626   5.541   1.053   5.796 -0.2616  0.5815  0.3541
13910SOL    HW144627   5.494   1.009   5.873  0.0260 -0.4817 -0.0626
13910SOL    HW244628   5.508   1.014   5.710  0.2729  0.9250 -0.0086
13911SOL     OW44629   4.336   0.412   0.391 -0.0245 -0.1231  0.4417
13911SOL    HW144630   4.430   0.379   0.378  0.1397  0.2463  0.6730
13911SOL    HW244631   4.278   0.337   0.423  0.2523 -0.2840  0.5692
13912SOL     OW44632   2.098   6.851   3.243  0.3294 -0.0881 -0.1297
13912SOL    HW144633   2.136   6.779   3.301 -1.3861 -0.4840  0.5398
13912SOL    HW244634   2.041   6.912   3.299  1.4662  1.6083 -0.7484
13913SOL     OW44635   8.795   6.311   4.640 -0.0470 -0.1511  0.1270
13913SOL    HW144636   8.831   6.403   4.654 -1.0924  0.2732  0.0557
13913SOL    HW244637   8.831   6.273   4.555  0.4912  0.1297  0.2264
13914SOL     OW44638   9.491   4.283   1.925 -0.1867 -0.1551 -0.3815
13914SOL    HW144639   9.587   4.260   1.942  0.4489  0.6568 -2.6570
13914SOL    HW244640   9.441   4.287   2.012  2.9562  4.3618  1.4144
13915SOL     OW44641   3.931   0.774   4.648 -0.5456  0.3671 -0.3457
13915SOL    HW144642   3.959   0.779   4.744  1.2496  2.2974 -0.9078
13915SOL    HW244643   3.845   0.822   4.636 -2.0645 -2.0107  0.6971
13916SOL     OW44644   1.950   5.337   5.413  0.2687 -0.5107 -0.6033
13916SOL    HW144645   1.861   5.333   5.459 -0.4937 -0.1027 -2.0066
13916SOL    HW244646   1.964   5.429   5.375  2.0719 -0.0363  1.1137
13917SOL     OW44647   0.678   5.924   1.142 -0.1144 -0.1139  0.2740
13917SOL    HW144648   0.710   5.961   1.229 -1.5946 -0.8360  1.1463
13917SOL    HW244649   0.620   5.992   1.097 -1.0022 -0.5008  0.8189
13919SOL     OW44650   6.105   5.729   1.319  0.4712  1.0220 -0.0350
13919SOL    HW144651   6.103   5.819   1.276 -0.4535  1.0886  0.1365
13919SOL    HW244652   6.071   5.661   1.253  1.6804  0.7166 -0.3502
13920SOL     OW44653   7.058   2.306   4.200  0.0677 -0.3431 -0.3412
13920SOL    HW144654   7.075   2.263   4.112 -0.5122  0.1924 -0.7169
13920SOL    HW244655   7.131   2.282   4.264  0.8261 -0.2074 -1.1592
13921SOL     OW44656   2.445   9.908   3.932 -0.1203  0.0467 -0.6463
13921SOL    HW144657   2.364   9.876   3.884 -0.4351  1.6844 -1.2596
13921SOL    HW244658   2.483   9.834   3.987 -1.8166 -0.8363 -0.6300
13922SOL     OW44659   9.018   7.512   5.210  0.3980  0.0391  0.0960
13922SOL    HW144660   9.025   7.588   5.145 -1.0446  1.0696  1.0872
13922SOL    HW244661   9.065   7.432   5.174  1.8471  1.3698 -1.0375
13924SOL     OW44662   9.355   0.062   4.858  0.1726 -0.0884  0.5228
13924SOL    HW144663   9.344   0.091   4.953 -1.0601 -2.2961  1.1063
13924SOL    HW244664   9.425  -0.010   4.854  0.9026  0.6696 -0.3859
13926SOL     OW44665   8.315   8.586   3.232 -0.3637  0.5558 -0.7068
13926SOL    HW144666   8.356   8.676   3.245 -0.6386  0.8804 -2.0168
13926SOL    HW244667   8.217   8.591   3.249 -0.3711  0.4869 -0.7237
13927SOL     OW44668   9.771   4.689   0.597 -0.1444 -0.0247  0.2744
13927SOL    HW144669   9.677   4.667   0.622 -0.0781 -1.1165 -0.4209
13927SOL    HW244670   9.772   4.727   0.504  0.5914 -4.3815 -1.5925
13928SOL     OW44671   7.187   8.533   3.084 -0.4181  1.3932 -0.0654
13928SOL    HW144672   7.089   8.553   3.088 -0.4506  1.3302 -0.5711
13928SOL    HW244673   7.200   8.433   3.083 -0.4278  1.3863 -1.7825
13930SOL     OW44674   4.388   6.760   1.267  0.0594 -0.5703  0.1508
13930SOL    HW144675   4.348   6.679   1.224  0.6342 -0.3375 -0.8409
13930SOL    HW244676   4.448   6.732   1.342  1.0863 -1.1311 -0.8606
13931SOL     OW44677   7.012   8.038   5.353 -0.1245  0.5546 -0.2164
13931SOL    HW144678   6.929   7.988   5.378  1.1373 -1.2059  0.5548
13931SOL    HW244679   7.065   8.058   5.436  1.7814 -1.1641 -0.9779
13932SOL     OW44680   2.665   7.078   2.710  0.1416  0.4463 -0.2356
13932SOL    HW144681   2.712   7.134   2.778  1.0202 -1.5658  0.8467
13932SOL    HW244682   2.571   7.062   2.738  0.3269  0.1218  0.1969
13933SOL     OW44683   3.816   2.637   2.829  0.2476  0.4513 -0.3991
13933SOL    HW144684   3.802   2.638   2.928 -0.4966 -0.8103 -0.4730
13933SOL    HW244685   3.894   2.579   2.807 -1.2027 -1.4402 -0.7033
13934SOL     OW44686   8.653   0.049   1.404  0.4519 -0.0072 -0.1708
13934SOL    HW144687   8.699   0.115   1.464  1.2881 -0.2410 -0.5402
13934SOL    HW244688   8.658  -0.043   1.445 -0.1220  0.0487  0.0249
13935SOL     OW44689   3.300   4.060   1.114 -0.0634 -0.3108  0.4542
13935SOL    HW144690   3.345   4.141   1.078 -0.1968  0.0586  1.1119
13935SOL    HW244691   3.319   3.982   1.054  2.5512 -0.4662  1.4159
13936SOL     OW44692   9.813   6.411   5.824  0.4116  0.6423  0.0197
13936SOL    HW144693   9.908   6.421   5.854  0.2142  0.4196  0.7346
13936SOL    HW244694   9.802   6.321   5.782 -0.1379 -0.4918  2.4910
13937SOL     OW44695   2.422   4.039   4.750 -0.1707 -0.2131 -0.3904
13937SOL    HW144696   2.408   3.967   4.682 -1.1739  0.7086 -1.1862
13937SOL    HW244697   2.520   4.048   4.769  0.1167 -0.5596 -1.6268
13938SOL     OW44698   3.261   0.667   1.642  0.4786  0.0944  0.0848
13938SOL    HW144699   3.208   0.674   1.557  1.0159  0.3823 -0.2299
13938SOL    HW244700   3.228   0.589   1.695  1.1358 -0.9973 -1.0975
13940SOL     OW44701   4.952   1.616   1.446  0.2288 -0.0492  0.0390
13940SOL    HW144702   5.016   1.573   1.382 -1.4405 -0.4921 -1.3835
13940SOL    HW244703   4.892   1.678   1.396  0.0056  0.9020  1.4633
13941SOL     OW44704   8.608   5.586   3.851  0.3339  0.8371  0.0471
13941SOL    HW144705   8.688   5.633   3.814  0.3572  0.5065 -0.3269
13941SOL    HW244706   8.628   5.552   3.943  0.5256  1.0112  0.0680
13942SOL     OW44707   8.489   6.539   1.614 -0.3428 -0.4888 -0.7001
13942SOL    HW144708   8.520   6.448   1.589  0.4100 -0.8348  1.3551
13942SOL    HW244709   8.459   6.539   1.710 -0.2620  1.4277 -0.6465
13944SOL     OW44710   1.334   9.125   2.136 -0.3560  0.0165  0.4168
13944SOL    HW144711   1.431   9.137   2.114 -0.0596 -1.1111  1.0802
13944SOL    HW244712   1.281   9.122   2.052  0.3893 -1.0787 -0.0247
13945SOL     OW44713   2.121   9.592   1.073 -0.0866 -0.3436  0.1381
13945SOL    HW144714   2.202   9.535   1.084  0.1316 -0.3831 -1.4495
13945SOL    HW244715   2.040   9.541   1.103  0.3848 -0.5703  1.0488
13946SOL     OW44716   7.127   2.384   5.741  0.3094 -0.3860 -0.1872
13946SOL    HW144717   7.217   2.428   5.741 -0.7325  1.8329 -0.0143
13946SOL    HW244718   7.066   2.433   5.679 -1.6633  0.0529  2.0281
13947SOL     OW44719   0.382   0.388   5.789  0.3063  0.0890  0.0909
13947SOL    HW144720   0.438   0.355   5.865 -0.4910 -1.1673  0.1515
13947SOL    HW244721   0.311   0.450   5.824 -0.1494 -0.6004  0.4054
13948SOL     OW44722   7.621   4.970   1.585  0.3166  0.0395 -0.5026
13948SOL    HW144723   7.524   4.975   1.561  0.4018 -1.0149 -1.0783
13948SOL    HW244724   7.634   4.901   1.656  0.4951  0.9860  0.3987
13950SOL     OW44725   1.146   5.481   4.901  1.0757 -0.4830 -0.5137
13950SOL    HW144726   1.156   5.425   4.984  3.1542 -1.2145 -1.2370
13950SOL    HW244727   1.219   5.550   4.898  0.2725  0.3566 -1.1192
13951SOL     OW44728   0.176   1.894   3.463  0.0827  0.1196  0.8788
13951SOL    HW144729   0.214   1.860   3.548  0.0713 -1.3575  0.3081
13951SOL    HW244730   0.130   1.982   3.479  2.0391  0.9760  1.9234
13952SOL     OW44731   5.055   8.337   2.727  0.2498 -0.0700  0.2332
13952SOL    HW144732   5.147   8.369   2.751 -0.6317  2.0519  0.8814
13952SOL    HW244733   5.010   8.302   2.809  0.2031 -0.3710  0.0755
13953SOL     OW44734   9.776   5.010   0.113 -0.4405  0.0661  0.1124
13953SOL    HW144735   9.680   4.981   0.118 -0.8518  1.5486  1.3758
13953SOL    HW244736   9.804   5.016   0.017 -1.6922 -0.1685 -0.2781
13954SOL     OW44737   6.502   2.849   3.768 -0.0005  0.2786  0.3375
13954SOL    HW144738   6.430   2.815   3.829 -0.7706 -0.3169 -0.8792
13954SOL    HW244739   6.520   2.781   3.696 -0.7034  1.8869 -1.4181
13955SOL     OW44740   2.846   6.269   0.362 -0.1140  0.1279  0.0955
13955SOL    HW144741   2.837   6.192   0.425  0.0932 -0.6218 -0.7883
13955SOL    HW244742   2.935   6.265   0.316 -0.5890  0.2056 -0.8487
13956SOL     OW44743   8.146   9.008   0.411 -0.1657  0.4056  0.1704
13956SOL    HW144744   8.179   8.947   0.339  0.6322  1.1836 -0.1281
13956SOL    HW244745   8.217   9.018   0.481 -0.0494  1.5044 -0.1039
13957SOL     OW44746   3.271   5.972   1.398 -0.5651 -0.2515 -0.2029
13957SOL    HW144747   3.230   5.886   1.367 -1.6769  0.4034 -0.5781
13957SOL    HW244748   3.285   5.969   1.496  0.6828 -1.3965 -0.4121
13958SOL     OW44749   4.908   9.077   4.501  0.5468 -0.4947  0.2322
13958SOL    HW144750   4.868   9.088   4.592 -0.5073 -1.2756 -0.1308
13958SOL    HW244751   4.906   9.165   4.453 -1.0964 -0.6066  0.0783
13959SOL     OW44752   8.828   2.858   4.268  0.2948 -0.3399  0.2256
13959SOL    HW144753   8.747   2.913   4.250 -0.4067 -1.0389  1.1810
13959SOL    HW244754   8.871   2.831   4.182 -0.4153  0.1307 -0.2797
13961SOL     OW44755   3.763   6.830   3.243  0.4034 -0.2126 -0.1061
13961SOL    HW144756   3.757   6.918   3.195 -1.1057 -0.7196 -0.8786
13961SOL    HW244757   3.723   6.838   3.334 -3.2301 -1.0183 -1.5556
13964SOL     OW44758   0.028   8.809   4.115 -0.0987 -0.3433 -0.1566
13964SOL    HW144759  -0.026   8.861   4.049  0.2494 -1.4459 -1.3196
13964SOL    HW244760   0.123   8.839   4.110 -0.2144  0.1315  0.4175
13966SOL     OW44761   3.800   5.164   1.149  0.1099 -0.2940  0.1155
13966SOL    HW144762   3.851   5.168   1.235 -1.4504  2.2784  0.9833
13966SOL    HW244763   3.862   5.172   1.072  1.3321 -0.6951  1.0411
13968SOL     OW44764   5.516   2.234   3.356 -0.6990 -0.5246 -0.0241
13968SOL    HW144765   5.490   2.219   3.261 -0.6616 -1.3374  0.0922
13968SOL    HW244766   5.482   2.323   3.386  0.5233  0.3603 -1.2319
13969SOL     OW44767   5.524   5.683   1.762 -0.3277  0.2637  0.1106
13969SOL    HW144768   5.442   5.685   1.705 -0.1421 -0.5903 -0.1858
13969SOL    HW244769   5.554   5.776   1.780 -1.5918  0.5953  0.5398
13970SOL     OW44770   7.143   0.139   5.264  0.2486  0.1906 -0.0638
13970SOL    HW144771   7.160   0.147   5.166 -0.2221  0.0408 -0.1591
13970SOL    HW244772   7.206   0.073   5.303 -0.5386 -0.8473 -0.5330
13971SOL     OW44773   6.997   0.603   2.354 -0.4614 -0.5690 -0.0747
13971SOL    HW144774   6.995   0.703   2.355  2.4375 -0.4789  0.2809
13971SOL    HW244775   6.944   0.568   2.431 -0.7217  0.7181  0.3475
13972SOL     OW44776   0.180   2.136   2.795  0.4268  0.0746 -0.1462
13972SOL    HW144777   0.100   2.098   2.749 -1.2898  2.6962  0.5778
13972SOL    HW244778   0.187   2.098   2.887 -0.5634  0.5557  0.1323
13973SOL     OW44779   6.975   3.756   0.262  0.5616  0.2424 -0.8188
13973SOL    HW144780   6.882   3.757   0.224  0.7001 -0.6489 -1.1906
13973SOL    HW244781   7.014   3.847   0.254 -0.3393  0.6617 -0.5240
13974SOL     OW44782   9.453   3.605   1.683  0.1828 -0.9692 -0.1148
13974SOL    HW144783   9.452   3.562   1.773  0.7932 -0.1483  0.2798
13974SOL    HW244784   9.501   3.692   1.687 -3.1994  0.9998 -0.3604
13975SOL     OW44785   4.533   9.603   6.047  0.0062  0.2975  0.3553
13975SOL    HW144786   4.621   9.566   6.016 -0.2456  0.3823 -0.4605
13975SOL    HW244787   4.467   9.529   6.057  0.2280  0.2052  1.1809
13976SOL     OW44788   8.515   8.346   2.892  0.7257 -0.1377  0.2858
13976SOL    HW144789   8.458   8.425   2.915  1.3948  0.2787  0.5227
13976SOL    HW244790   8.465   8.262   2.915 -0.6544  0.1583 -1.5016
13977SOL     OW44791   9.955   4.668   1.106 -0.2445  0.1660  0.1932
13977SOL    HW144792   9.971   4.666   1.007  0.2949 -1.6113  0.3052
13977SOL    HW244793   9.881   4.605   1.129 -1.8228  2.1387  0.6950
13979SOL     OW44794   5.473   7.890   4.373 -0.4434  0.2639  0.2598
13979SOL    HW144795   5.483   7.844   4.461  0.8829 -2.9477 -1.4670
13979SOL    HW244796   5.394   7.853   4.325  1.0138 -0.7173 -1.4344
13980SOL     OW44797   3.403   1.355   6.370  0.2205  0.3566 -0.0848
13980SOL    HW144798   3.489   1.405   6.382  0.5692  0.2612 -1.9534
13980SOL    HW244799   3.376   1.313   6.457  1.2224  1.7147  0.9048
13982SOL     OW44800   9.861   9.827   6.208  0.8207  0.2911  0.1857
13982SOL    HW144801   9.944   9.773   6.218  0.9827  0.7835  1.6743
13982SOL    HW244802   9.783   9.777   6.246  0.9502  1.0278  1.4551
13983SOL     OW44803   1.584   8.763   2.772 -0.5743 -0.0479  0.4567
13983SOL    HW144804   1.564   8.675   2.730  1.2136  0.7123 -2.0652
13983SOL    HW244805   1.499   8.816   2.779 -1.4566 -1.4738  0.9115
13984SOL     OW44806   6.944   1.954   1.811  0.0592  0.1074 -0.3162
13984SOL    HW144807   7.005   1.909   1.876 -1.6323 -0.8616  0.6465
13984SOL    HW244808   6.862   1.898   1.799 -2.2420  3.0076  1.0937
13985SOL     OW44809   1.137   4.093   5.740  0.1718 -0.0837  0.5378
13985SOL    HW144810   1.079   4.172   5.719 -2.1238 -1.6664  0.6763
13985SOL    HW244811   1.196   4.073   5.662 -1.6009 -0.2104 -0.8083
13986SOL     OW44812   1.963   8.585   0.534  0.2808  0.5066  0.3131
13986SOL    HW144813   1.928   8.677   0.513 -2.7756 -0.2395  1.7801
13986SOL    HW244814   1.989   8.580   0.630 -0.2001 -0.3432  0.4044
13988SOL     OW44815   3.003   5.702   2.604 -0.1637 -0.3805  0.3635
13988SOL    HW144816   3.093   5.729   2.571 -1.0293  0.7791 -1.0755
13988SOL    HW244817   2.971   5.623   2.552 -0.5858  0.0893 -0.0939
13989SOL     OW44818   4.417   3.716   3.931  0.1635  0.1920  0.6913
13989SOL    HW144819   4.434   3.629   3.978  2.3847  1.1352  1.7535
13989SOL    HW244820   4.433   3.706   3.833 -3.0854 -1.4470  0.2822
13990SOL     OW44821   0.680   9.561   4.887 -0.1630 -0.1412  0.2124
13990SOL    HW144822   0.749   9.490   4.874 -0.5818 -0.8866  1.9061
13990SOL    HW244823   0.713   9.629   4.952 -0.8165 -0.1992  0.6040
13994SOL     OW44824   1.837   4.132   4.845 -0.6546  0.2944  0.2005
13994SOL    HW144825   1.761   4.184   4.806 -0.1734  0.3590 -0.6497
13994SOL    HW244826   1.811   4.036   4.851 -1.3729  0.5489  1.3440
13996SOL     OW44827   2.702   5.580   3.935  0.3051 -0.0930  0.1765
13996SOL    HW144828   2.607   5.553   3.916 -0.0546  0.8165  0.6743
13996SOL    HW244829   2.763   5.504   3.911 -0.4967 -0.4749 -0.6913
13997SOL     OW44830   1.648   9.759   4.925 -0.3847  0.0467  0.5505
13997SOL    HW144831   1.630   9.682   4.986  1.4263  1.2127  2.6388
13997SOL    HW244832   1.671   9.840   4.979  1.9495  0.9670 -1.6947
13999SOL     OW44833   4.771   9.347   0.441 -0.2135 -0.0300  0.1113
13999SOL    HW144834   4.799   9.274   0.378 -1.0491 -0.8844  0.7199
13999SOL    HW244835   4.787   9.436   0.398  1.2734 -0.5501 -0.4533
14000SOL     OW44836   6.997   3.011   2.771  0.3460 -0.3306 -0.0955
14000SOL    HW144837   6.952   2.970   2.850  1.0284  0.5355  0.7629
14000SOL    HW244838   6.958   2.975   2.687 -0.8473 -0.7687  0.6427
14001SOL     OW44839   8.807   0.106   5.430 -0.2784 -0.8196  0.1022
14001SOL    HW144840   8.803   0.027   5.491 -0.8257 -0.6262  0.3252
14001SOL    HW244841   8.902   0.129   5.410 -0.1254 -2.3809 -1.0726
14003SOL     OW44842   2.095   9.691   5.426  0.2594  0.1066 -0.3597
14003SOL    HW144843   2.077   9.747   5.345  0.6093  0.2310 -0.3499
14003SOL    HW244844   2.026   9.619   5.432 -0.5092  0.8528 -0.0874
14004SOL     OW44845   5.274   8.842   3.416 -0.6094 -0.1660  0.1768
14004SOL    HW144846   5.307   8.802   3.330  0.9537  1.2928  0.0718
14004SOL    HW244847   5.269   8.941   3.407 -2.9805 -0.1933  0.9419
14005SOL     OW44848   9.646   4.824   1.220  0.2486  0.4141 -0.5146
14005SOL    HW144849   9.642   4.788   1.127 -1.0467 -0.8920  0.0285
14005SOL    HW244850   9.586   4.903   1.228 -1.1051 -0.6208 -0.3125
14007SOL     OW44851   2.715   9.671   1.101  0.2795 -0.2258 -0.2465
14007SOL    HW144852   2.668   9.723   1.172  2.5380  0.5110  0.7355
14007SOL    HW244853   2.778   9.731   1.051  3.0669 -1.9948  1.0283
14008SOL     OW44854   6.501   1.622   2.705  0.6450  0.4948  0.2955
14008SOL    HW144855   6.514   1.713   2.664 -0.9446  0.4506 -0.3415
14008SOL    HW244856   6.406   1.611   2.732  1.0850 -0.5555  1.4614
14009SOL     OW44857   7.030   8.021   6.283 -0.0318 -0.6232  0.3950
14009SOL    HW144858   7.002   8.103   6.233  0.2094  0.2078  1.5944
14009SOL    HW244859   7.125   7.999   6.261 -0.3868 -1.1572 -0.6627
14010SOL     OW44860   2.912   1.104   1.063 -0.3000  0.5524 -0.6249
14010SOL    HW144861   2.830   1.134   1.015  0.9900  1.1826 -2.4768
14010SOL    HW244862   2.960   1.035   1.009  0.0490 -0.3313  0.7609
14011SOL     OW44863   8.373   1.265   0.447  0.0604 -0.0684 -0.2930
14011SOL    HW144864   8.392   1.326   0.524  2.1709 -0.9421 -0.0746
14011SOL    HW244865   8.446   1.198   0.439 -1.0829 -1.1641 -1.9258
14012SOL     OW44866   0.576   8.215   5.513 -0.1746  0.4445 -0.5599
14012SOL    HW144867   0.527   8.294   5.552 -1.3325 -0.5737  0.0912
14012SOL    HW244868   0.584   8.143   5.582  1.2964  0.1725 -1.0069
14013SOL     OW44869   4.534   1.455   0.965 -0.3384 -0.0259  0.1205
14013SOL    HW144870   4.572   1.451   0.873 -0.4841  0.5341  0.0362
14013SOL    HW244871   4.575   1.383   1.021 -0.3886 -0.4844 -0.4307
14014SOL     OW44872   4.778   2.080   2.529 -0.3202  0.4704 -0.4060
14014SOL    HW144873   4.726   2.053   2.449 -1.4454  0.7059  0.2357
14014SOL    HW244874   4.735   2.043   2.611  1.0765 -0.1569  0.0652
14016SOL     OW44875   1.241   4.066   4.845  0.0485  0.1590  0.1330
14016SOL    HW144876   1.271   3.971   4.853 -0.8351  0.0993  3.6475
14016SOL    HW244877   1.320   4.127   4.857  0.1965 -0.0942  0.4554
14017SOL     OW44878   1.259   5.127   1.549  0.3834 -0.2442  0.0651
14017SOL    HW144879   1.197   5.193   1.507 -0.6853 -1.3638 -0.1456
14017SOL    HW244880   1.250   5.039   1.502  2.3658 -0.3506 -0.1743
14018SOL     OW44881   1.076   0.373   4.706 -0.2147  0.3665 -0.5967
14018SOL    HW144882   1.051   0.467   4.682  0.3362  0.6966  0.1117
14018SOL    HW244883   1.000   0.312   4.682 -0.2901  0.8878 -1.7318
14019SOL     OW44884   9.865   0.955   1.006  0.1110  0.2737  0.1564
14019SOL    HW144885   9.797   0.916   0.943  0.8285  0.0716 -0.5086
14019SOL    HW244886   9.826   1.036   1.050 -0.2651  0.6731 -0.8686
14022SOL     OW44887   4.209   1.692   4.408  0.0018 -0.8728 -0.3901
14022SOL    HW144888   4.214   1.735   4.499 -0.2311 -0.3373 -0.6269
14022SOL    HW244889   4.142   1.618   4.410  2.0484 -2.7312  0.6288
14023SOL     OW44890   4.466   8.352   1.805  0.5073 -0.2317 -0.2807
14023SOL    HW144891   4.532   8.279   1.788 -0.4163 -0.9202 -0.9381
14023SOL    HW244892   4.373   8.319   1.788  0.1065  1.2364 -1.0803
14024SOL     OW44893   3.796   3.634   5.475 -0.2549 -0.1802  0.4790
14024SOL    HW144894   3.832   3.673   5.559  0.2777  0.7378 -0.1612
14024SOL    HW244895   3.721   3.691   5.441  0.3807  0.1831 -0.3416
14025SOL     OW44896   7.465   3.740   2.364 -0.2040 -0.1472  0.0438
14025SOL    HW144897   7.515   3.655   2.353  1.9298  0.7349  2.3341
14025SOL    HW244898   7.369   3.720   2.386  0.2970 -1.9625  0.6660
14026SOL     OW44899   8.344   7.379   5.967  0.2394  0.4273  0.3856
14026SOL    HW144900   8.428   7.380   5.914  0.3787  1.0313  0.6254
14026SOL    HW244901   8.363   7.402   6.062 -0.6593  3.8462 -0.2186
14027SOL     OW44902   7.927   1.045   0.886 -0.1399 -0.2377  0.1910
14027SOL    HW144903   7.943   1.083   0.977 -0.6591 -0.0439  0.2057
14027SOL    HW244904   7.998   1.077   0.824  1.0778 -1.5951  0.8666
14029SOL     OW44905   8.586   8.998   5.739 -1.0279 -0.2705 -0.1790
14029SOL    HW144906   8.682   8.975   5.725 -1.0588 -0.9326  0.6253
14029SOL    HW244907   8.578   9.073   5.805 -0.9987  0.9435 -1.5335
14030SOL     OW44908   0.102   9.084   2.587 -0.1871 -0.5805 -0.0884
14030SOL    HW144909   0.136   9.104   2.495  0.6979 -1.4660  0.0427
14030SOL    HW244910   0.013   9.038   2.580 -1.2956  1.5649 -0.4301
14031SOL     OW44911   1.409   3.067   3.905  0.4109 -0.3119 -0.5038
14031SOL    HW144912   1.332   3.004   3.902  0.0425  0.1285 -0.4863
14031SOL    HW244913   1.400   3.126   3.985  1.9446 -1.7228  0.7259
14033SOL     OW44914   0.099   0.466   4.117  0.1472  0.6386  0.3501
14033SOL    HW144915   0.103   0.493   4.021  0.2667  0.7691  0.3925
14033SOL    HW244916   0.019   0.509   4.160 -2.3772 -2.7639 -0.7424
14034SOL     OW44917   3.586   9.023   5.846  0.5269  0.1158  0.3489
14034SOL    HW144918   3.650   8.947   5.834  0.2160 -0.1064  0.1175
14034SOL    HW244919   3.582   9.048   5.942 -0.1097 -0.7947  0.5601
14035SOL     OW44920   8.170   8.544   0.777  0.1854 -0.4418 -0.0400
14035SOL    HW144921   8.163   8.447   0.753  1.3402 -0.5768  0.1413
14035SOL    HW244922   8.150   8.600   0.696  1.1106 -0.8623 -0.5721
14036SOL     OW44923   7.397   1.656   2.169  0.0466  0.1526  0.0314
14036SOL    HW144924   7.388   1.658   2.069  1.7073 -0.2270 -0.1416
14036SOL    HW244925   7.448   1.737   2.199 -0.1926  0.1149  0.5307
14038SOL     OW44926   7.694   1.761   3.330 -0.1053 -0.1797 -0.3341
14038SOL    HW144927   7.640   1.776   3.247 -0.4172 -0.0497 -0.1076
14038SOL    HW244928   7.791   1.780   3.311  0.0418 -1.5259 -1.0613
14039SOL     OW44929   2.379   7.324   1.735 -0.3550  0.5358  0.0810
14039SOL    HW144930   2.362   7.229   1.711  0.6772  0.8572 -2.0183
14039SOL    HW244931   2.323   7.383   1.678  1.1542  1.2870 -0.6464
14040SOL     OW44932   3.370   4.438   1.777 -0.6237  0.3014 -0.2925
14040SOL    HW144933   3.450   4.488   1.745 -1.0483  0.8683 -0.4836
14040SOL    HW244934   3.381   4.416   1.874 -0.3276  0.5633 -0.2644
14041SOL     OW44935   6.584   2.717   3.528 -0.7588 -0.4661 -0.7976
14041SOL    HW144936   6.514   2.708   3.457 -0.4498  0.2389 -1.1926
14041SOL    HW244937   6.653   2.782   3.499  0.5625 -1.8435 -0.7879
14042SOL     OW44938   2.133   8.675   1.308  0.1174  0.0516  0.8488
14042SOL    HW144939   2.050   8.700   1.357  1.2353 -0.9074  3.3564
14042SOL    HW244940   2.211   8.721   1.350  0.8335  1.4986 -1.9095
14043SOL     OW44941   5.772   4.702   0.462  0.0458  0.0768 -0.7112
14043SOL    HW144942   5.813   4.755   0.388 -0.3920  0.5572 -0.6156
14043SOL    HW244943   5.778   4.754   0.547  1.8543 -1.0817 -0.1052
14044SOL     OW44944   8.683   9.485   0.969 -0.3283  0.4557 -0.0510
14044SOL    HW144945   8.651   9.396   1.004 -0.3417 -0.2943 -1.9401
14044SOL    HW244946   8.644   9.502   0.879  1.3820  1.3890 -0.6460
14045SOL     OW44947   8.278   6.744   1.850 -0.2712  0.1052  0.1762
14045SOL    HW144948   8.360   6.688   1.859 -0.7877 -0.5003  1.2130
14045SOL    HW244949   8.197   6.688   1.870 -0.7748  1.2672  1.4838
14049SOL     OW44950   0.299   3.973   5.605  0.3888  0.0101 -0.2412
14049SOL    HW144951   0.287   4.064   5.643  0.3172  0.4046 -1.1990
14049SOL    HW244952   0.259   3.905   5.667  0.3796  0.6261  0.4361
14050SOL     OW44953   1.032   3.309   2.122 -0.1572  0.7973 -0.2286
14050SOL    HW144954   1.074   3.241   2.182 -0.8287 -0.2682 -0.9459
14050SOL    HW244955   0.935   3.319   2.146  0.1823  2.3268  0.5997
14051SOL     OW44956   8.068   6.876   1.762  0.2515  0.4398 -0.6153
14051SOL    HW144957   8.151   6.826   1.789 -0.7504 -1.2874 -0.6640
14051SOL    HW244958   8.058   6.873   1.663  0.2182  0.8043 -0.6228
14052SOL     OW44959   7.917   6.628   1.987  0.7126  1.0988 -0.2123
14052SOL    HW144960   7.818   6.631   1.972  0.6434  2.4686  0.4516
14052SOL    HW244961   7.961   6.577   1.913 -0.8047 -2.2404  1.0650
14055SOL     OW44962   4.389   5.950   0.583 -0.3151 -0.2791 -0.5532
14055SOL    HW144963   4.413   6.038   0.540 -2.6863  0.7026  0.0938
14055SOL    HW244964   4.318   5.905   0.529 -0.3281 -1.0208  0.0733
14057SOL     OW44965   8.943   5.158   2.508  0.5219  0.0546  0.6626
14057SOL    HW144966   8.961   5.068   2.548  1.1371 -0.0631  0.1392
14057SOL    HW244967   8.854   5.191   2.538 -0.7299 -1.7476 -0.9482
14058SOL     OW44968   6.956   8.672   6.300 -0.3931  0.3072  0.2144
14058SOL    HW144969   6.930   8.647   6.393  0.2770  0.5953  0.4845
14058SOL    HW244970   7.056   8.682   6.295 -0.4383  0.4403 -0.4969
14059SOL     OW44971   7.013   0.885   5.921 -0.1362  0.0275  0.0947
14059SOL    HW144972   6.941   0.840   5.868  1.1888 -0.5141 -1.3035
14059SOL    HW244973   6.972   0.949   5.986 -2.0469 -2.9328  1.9178
14060SOL     OW44974   4.486   4.066   5.817 -0.3228  0.1584 -0.0981
14060SOL    HW144975   4.483   3.966   5.810 -0.8029  0.1667  0.0158
14060SOL    HW244976   4.500   4.092   5.913 -2.5507  0.2512  0.2233
14061SOL     OW44977   1.450   0.047   6.409 -0.1132 -0.3052 -0.1686
14061SOL    HW144978   1.471   0.124   6.349  2.7666 -1.6234 -0.9169
14061SOL    HW244979   1.368   0.000   6.376 -1.0469  1.5632 -0.5341
14062SOL     OW44980   1.370   3.645   0.541 -0.2609  0.5979  0.0708
14062SOL    HW144981   1.359   3.716   0.611  2.6492  0.8079  0.3916
14062SOL    HW244982   1.436   3.677   0.472 -1.4843 -0.4618 -1.6192
14063SOL     OW44983   2.765   5.570   3.645  0.0354  0.1106  0.1427
14063SOL    HW144984   2.745   5.577   3.743 -2.0954 -0.7893 -0.1914
14063SOL    HW244985   2.830   5.496   3.630 -1.9641 -1.8054  0.6257
14066SOL     OW44986   8.202   3.434   2.898 -0.1634 -0.1600  0.5125
14066SOL    HW144987   8.236   3.375   2.972  1.2618 -0.4058 -0.3315
14066SOL    HW244988   8.238   3.402   2.811 -2.7963 -0.6101 -0.4615
14068SOL     OW44989   8.057   9.827   3.355 -0.0051  0.1272 -0.0105
14068SOL    HW144990   8.030   9.779   3.438  1.0970 -0.9606 -0.2784
14068SOL    HW244991   7.982   9.824   3.289 -1.2019  1.7274  1.2464
14069SOL     OW44992   3.907   6.667   1.436  0.6717 -0.1375 -0.4602
14069SOL    HW144993   3.947   6.578   1.460  0.5680  0.0178  0.2856
14069SOL    HW244994   3.922   6.732   1.510 -2.0663 -0.4258  0.3886
14070SOL     OW44995   7.539   0.487   2.549 -0.5659 -0.1355 -0.2937
14070SOL    HW144996   7.531   0.395   2.510 -0.6692  0.9202 -2.8645
14070SOL    HW244997   7.453   0.536   2.538  0.2045  1.0706 -1.1340
14071SOL     OW44998   0.925   1.166   5.601 -0.3549  0.3029  0.0871
14071SOL    HW144999   1.022   1.146   5.612 -0.1368  1.3952  0.2863
14071SOL    HW245000   0.907   1.191   5.506 -0.4810 -0.1442 -0.0035
14072SOL     OW45001   0.902   2.007   4.179  0.0451 -1.0180 -0.4670
14072SOL    HW145002   0.813   2.016   4.133 -0.1077  4.6887  0.4797
14072SOL    HW245003   0.888   1.987   4.276 -0.4041  1.5315  0.0382
14073SOL     OW45004   2.596   2.838   5.183 -0.0078 -0.8501  0.3437
14073SOL    HW145005   2.601   2.847   5.282  0.6387 -0.3486  0.2641
14073SOL    HW245006   2.553   2.751   5.160  0.8498 -1.4719  1.0622
14074SOL     OW45007   2.640   3.143   3.423 -0.3359 -0.4299  0.1750
14074SOL    HW145008   2.650   3.051   3.383  0.4473 -0.3692  0.2277
14074SOL    HW245009   2.728   3.173   3.458 -0.6091  0.3278  0.2028
14075SOL     OW45010   7.392   3.231   0.068  0.5551 -0.5109  1.0119
14075SOL    HW145011   7.306   3.188   0.038  0.3674  0.8624 -0.4608
14075SOL    HW245012   7.388   3.247   0.166 -0.9674 -0.2829  0.9269
14076SOL     OW45013   1.405   6.931   2.698 -0.0027 -0.3023 -0.5450
14076SOL    HW145014   1.375   6.841   2.732  2.3330 -0.4004  1.3598
14076SOL    HW245015   1.390   6.935   2.600  0.2379 -2.9445 -0.7450
14077SOL     OW45016   1.049   1.243   4.789  0.1760  0.0810 -0.1396
14077SOL    HW145017   0.955   1.273   4.807  0.7414  0.3619  2.5810
14077SOL    HW245018   1.104   1.321   4.758  0.1538  0.5293  0.9264
14078SOL     OW45019   9.318   4.369   2.418  0.1761 -0.5741  0.4866
14078SOL    HW145020   9.367   4.297   2.467  1.9661  0.6220  0.4954
14078SOL    HW245021   9.230   4.386   2.463  0.4185 -1.6624  1.3970
14079SOL     OW45022   9.832   9.377   6.172  0.5328  0.0808  0.0665
14079SOL    HW145023   9.892   9.415   6.242  0.7485 -0.1621  0.0140
14079SOL    HW245024   9.817   9.280   6.190 -0.1291  0.2204  0.2761
14080SOL     OW45025   6.949   9.429   2.859 -0.4064  0.0051 -0.6728
14080SOL    HW145026   6.883   9.369   2.905 -0.5025 -0.5354 -1.4984
14080SOL    HW245027   7.019   9.373   2.815 -0.6537  0.4875 -1.6902
14082SOL     OW45028   1.861   7.407   5.030 -0.2118 -0.2720  0.3071
14082SOL    HW145029   1.916   7.487   5.053 -0.5139 -0.1251  0.5190
14082SOL    HW245030   1.915   7.324   5.044  0.0631 -0.1106  0.1956
14083SOL     OW45031   3.307   3.665   0.449 -0.0724  0.0642  0.3757
14083SOL    HW145032   3.308   3.570   0.481 -2.1483 -0.1920 -0.2329
14083SOL    HW245033   3.279   3.724   0.524 -0.1598  0.0262  0.3737
14084SOL     OW45034   9.331   7.359   2.278  0.1957 -0.3351 -0.2184
14084SOL    HW145035   9.389   7.278   2.281  0.5879 -0.1016 -1.3308
14084SOL    HW245036   9.309   7.389   2.371  0.3041 -1.5318  0.1900
14085SOL     OW45037   9.491   8.572   1.252 -0.3942 -0.1770 -0.0462
14085SOL    HW145038   9.437   8.599   1.172  0.8363  0.4277 -0.6878
14085SOL    HW245039   9.431   8.558   1.330 -1.6338 -0.9184 -1.1192
14086SOL     OW45040   9.493   1.830   3.405  0.4329  0.0761  0.2700
14086SOL    HW145041   9.457   1.924   3.404  0.2027  0.0135  1.5979
14086SOL    HW245042   9.558   1.820   3.480 -0.2677 -1.0846  0.7422
14087SOL     OW45043   8.207   5.148   0.700  0.0742 -0.3500  0.3748
14087SOL    HW145044   8.139   5.200   0.752 -1.5549 -1.9698 -0.0671
14087SOL    HW245045   8.176   5.053   0.692  1.8029 -0.8176 -0.9171
14088SOL     OW45046   9.779   2.247   1.810  0.3685  0.2179  0.1255
14088SOL    HW145047   9.768   2.337   1.768  0.5992 -0.4983 -1.4793
14088SOL    HW245048   9.770   2.176   1.741 -2.5033 -1.1464  1.7813
14089SOL     OW45049   5.184   8.621   3.755 -0.4105  0.3412 -0.3028
14089SOL    HW145050   5.195   8.672   3.670 -2.1284 -0.8036 -1.2448
14089SOL    HW245051   5.156   8.683   3.828  1.8793  1.4760 -0.3500
14090SOL     OW45052   8.913   2.043   0.084 -0.0795 -0.1515 -0.5153
14090SOL    HW145053   8.921   2.090  -0.004 -2.0156  1.8563  0.3363
14090SOL    HW245054   8.845   2.090   0.141 -3.1286 -4.7306 -0.1041
14091SOL     OW45055   0.621   2.022   4.527 -0.0850  0.1379 -0.3955
14091SOL    HW145056   0.715   1.989   4.530 -0.2849 -0.5090 -1.0394
14091SOL    HW245057   0.618   2.111   4.483  0.2191  0.1150 -0.4635
14092SOL     OW45058   0.648   3.541   3.540 -0.7867  0.6945  0.6252
14092SOL    HW145059   0.577   3.609   3.524 -0.3611  0.9187 -0.2863
14092SOL    HW245060   0.735   3.572   3.502 -0.7499 -0.6736 -0.4414
14093SOL     OW45061   3.225   7.461   3.939 -0.1639 -0.0637 -0.3910
14093SOL    HW145062   3.193   7.483   3.847  0.1246  2.8747  0.1410
14093SOL    HW245063   3.154   7.486   4.006  1.5033  2.5323  0.4860
14094SOL     OW45064   5.972   0.244   3.989  0.0603  0.2980  0.1218
14094SOL    HW145065   5.989   0.151   4.022  0.0152  0.0993 -0.4004
14094SOL    HW245066   5.902   0.287   4.045  1.8077  0.8886  1.8904
14095SOL     OW45067   2.759   2.644   1.882  0.0190 -0.3962 -0.1373
14095SOL    HW145068   2.852   2.606   1.877 -0.4208 -1.4982  0.0066
14095SOL    HW245069   2.737   2.689   1.795  0.8945  0.3750  0.0244
14096SOL     OW45070   4.621   3.024   0.129 -0.6864  0.5378  0.1544
14096SOL    HW145071   4.617   3.059   0.036  1.0289  0.8883  0.1972
14096SOL    HW245072   4.680   2.943   0.132 -1.6829 -0.1882  0.7348
14097SOL     OW45073   1.215   2.626   3.846 -0.4174 -0.1955  0.1202
14097SOL    HW145074   1.200   2.588   3.754  1.5260 -1.4327  0.2645
14097SOL    HW245075   1.248   2.553   3.906 -0.6491  0.8503  1.5282
14099SOL     OW45076   3.414   5.193   3.403 -0.3212 -0.4953  0.3342
14099SOL    HW145077   3.493   5.139   3.377 -0.0695  1.3388 -3.0489
14099SOL    HW245078   3.331   5.153   3.363 -0.4612  0.1978 -0.0853
14100SOL     OW45079   7.527   1.625   3.822 -0.1663  0.0320 -0.6101
14100SOL    HW145080   7.607   1.600   3.877  0.4014  1.2066 -0.8889
14100SOL    HW245081   7.557   1.661   3.734 -1.0672 -1.7723 -1.6919
14101SOL     OW45082   0.899   3.005   2.311 -0.3138  0.2574  0.0305
14101SOL    HW145083   0.884   2.925   2.253  0.8910  0.0458 -0.0025
14101SOL    HW245084   0.862   3.086   2.267 -2.5473 -0.4415  0.5553
14103SOL     OW45085   0.305   8.077   4.037  0.0318 -0.7307 -0.0042
14103SOL    HW145086   0.265   8.068   3.946  1.0541  0.4933 -0.5971
14103SOL    HW245087   0.390   8.130   4.031  0.0964 -0.6105  1.6611
14104SOL     OW45088   4.195   7.193   2.330  0.4311  0.2666  0.0029
14104SOL    HW145089   4.220   7.096   2.330  0.3317  0.2335  1.1836
14104SOL    HW245090   4.276   7.247   2.309  0.0100 -0.1642 -2.9169
14105SOL     OW45091   8.346   7.939   4.904  0.6755  0.4051 -0.0023
14105SOL    HW145092   8.349   7.981   4.813  0.7970  1.8145  0.6418
14105SOL    HW245093   8.422   7.975   4.959  1.5961 -1.6892  0.1286
14106SOL     OW45094   7.855   0.629   3.723 -0.0255  0.2765  0.1049
14106SOL    HW145095   7.923   0.618   3.651  1.3799  2.0175  1.1253
14106SOL    HW245096   7.779   0.684   3.689 -0.2251 -0.4069 -0.5732
14107SOL     OW45097   6.609   8.849   3.701 -0.3383  0.1664  0.4362
14107SOL    HW145098   6.693   8.832   3.649  0.3800  0.5710  1.4683
14107SOL    HW245099   6.624   8.921   3.768 -1.3637 -0.1334  1.0073
14109SOL     OW45100   4.211   6.311   1.750 -0.4494 -0.1032 -0.5848
14109SOL    HW145101   4.208   6.411   1.742 -2.0991 -0.2746 -2.3511
14109SOL    HW245102   4.170   6.270   1.669  0.5173 -2.2407 -0.0155
14110SOL     OW45103   4.032   9.844   2.044  0.2977  0.2507 -0.0683
14110SOL    HW145104   4.091   9.800   2.112  0.7370  1.3492  0.2784
14110SOL    HW245105   4.048   9.943   2.046 -0.0740  0.3370 -1.4094
14111SOL     OW45106   2.820   3.043   0.672 -0.2288  0.7021  0.2469
14111SOL    HW145107   2.878   2.986   0.730  0.9319  2.3194  0.7324
14111SOL    HW245108   2.851   3.138   0.678  0.0224  0.9113 -3.1192
14112SOL     OW45109   1.172   6.447   6.117 -0.2783  0.1540 -0.0414
14112SOL    HW145110   1.180   6.349   6.101  0.6772  0.4071 -1.1415
14112SOL    HW245111   1.238   6.496   6.060 -0.6069  1.4232  0.6501
14113SOL     OW45112   8.196   2.741   3.452 -0.0390  0.6559  0.1453
14113SOL    HW145113   8.180   2.644   3.468 -0.2570  0.6048 -0.4048
14113SOL    HW245114   8.109   2.787   3.433  0.1174  0.8781 -0.0347
14114SOL     OW45115   8.896   0.869   3.022 -0.3565  0.0917  0.0888
14114SOL    HW145116   8.963   0.899   3.089 -0.7847 -0.4257  0.7540
14114SOL    HW245117   8.936   0.874   2.930  0.4933  0.0537  0.4502
14115SOL     OW45118   5.210   1.150   2.610  0.4118 -0.2610 -0.3391
14115SOL    HW145119   5.151   1.206   2.668  0.8665  0.8965 -0.9730
14115SOL    HW245120   5.229   1.199   2.525  2.1864 -0.6743 -0.1953
14116SOL     OW45121   6.959   2.869   3.985  0.0771 -0.0534  0.0316
14116SOL    HW145122   7.051   2.864   3.948  0.4340 -0.4927  0.9454
14116SOL    HW245123   6.894   2.833   3.918  0.3703  1.7426 -1.2397
14117SOL     OW45124   3.762   9.830   6.101 -0.4456  1.0011 -0.2696
14117SOL    HW145125   3.696   9.905   6.091 -1.1280  0.2475 -1.5401
14117SOL    HW245126   3.774   9.785   6.012  0.7709  0.2867  0.2569
14118SOL     OW45127   2.774   7.699   3.630  0.5181  0.1109 -0.6538
14118SOL    HW145128   2.763   7.765   3.704 -0.8515  0.9859 -1.6219
14118SOL    HW245129   2.801   7.611   3.668  1.9456  1.0979  0.6917
14119SOL     OW45130   4.341   9.937   1.361 -0.0839  0.3393  0.4710
14119SOL    HW145131   4.286   9.994   1.421  0.1410 -0.1008  1.1005
14119SOL    HW245132   4.322   9.840   1.380 -0.8975  0.1878 -0.9827
14120SOL     OW45133   4.208   2.250   2.986  0.1482 -0.0813 -0.3244
14120SOL    HW145134   4.117   2.223   3.014  1.2596 -1.8063  1.7623
14120SOL    HW245135   4.231   2.206   2.899 -0.5558 -0.5731 -0.2625
14121SOL     OW45136   2.750   0.649   5.718 -0.1600 -0.3472  0.5361
14121SOL    HW145137   2.819   0.694   5.774 -0.2743  1.5262 -0.8258
14121SOL    HW245138   2.661   0.692   5.733 -0.2041  0.1473 -1.0427
14122SOL     OW45139   5.021   9.768   1.373  0.0429 -0.0755 -0.3423
14122SOL    HW145140   5.027   9.676   1.333 -0.6177  0.3832 -1.5023
14122SOL    HW245141   4.925   9.793   1.385  0.2231  0.3640  0.2159
14123SOL     OW45142   7.756   0.685   5.641 -0.3544 -0.4840  0.0275
14123SOL    HW145143   7.853   0.675   5.616 -0.5293  0.1202 -0.8929
14123SOL    HW245144   7.737   0.780   5.662 -0.7421 -0.6161  0.2807
14124SOL     OW45145   3.608   3.556   4.882 -0.9775 -0.1167 -0.1235
14124SOL    HW145146   3.667   3.636   4.878  0.2033 -0.9130  0.7532
14124SOL    HW245147   3.538   3.569   4.953  1.6018 -1.3711  2.7854
14125SOL     OW45148   2.092   8.520   1.762 -0.0821 -0.5679  0.0416
14125SOL    HW145149   2.134   8.597   1.811 -0.4336 -0.1521 -0.3054
14125SOL    HW245150   2.016   8.554   1.707 -2.0024 -1.5630  2.0078
14126SOL     OW45151   0.633   3.219   3.297  0.1240 -0.1248  0.2885
14126SOL    HW145152   0.541   3.205   3.335 -0.6315  0.8905 -1.1114
14126SOL    HW245153   0.701   3.189   3.364 -1.1464  1.6167  2.4623
14127SOL     OW45154   8.992   8.630   0.450 -0.6062 -0.6233  0.6268
14127SOL    HW145155   8.944   8.692   0.512  1.0696  0.2333  1.1181
14127SOL    HW245156   9.084   8.612   0.486  0.2066 -0.5377 -1.3386
14128SOL     OW45157   9.238   1.397   5.353  0.1890  0.4123 -0.5158
14128SOL    HW145158   9.305   1.330   5.320  0.0939 -0.5006  1.0828
14128SOL    HW245159   9.158   1.396   5.293  0.4452 -0.4942 -0.8572
14129SOL     OW45160   3.839   9.393   1.424  1.1147 -0.0696 -0.3859
14129SOL    HW145161   3.796   9.475   1.461  0.7205 -1.0313  1.3280
14129SOL    HW245162   3.794   9.367   1.338 -0.3844  0.0845  0.3452
14132SOL     OW45163   0.392   4.198   3.784 -0.3807 -0.4335 -0.1761
14132SOL    HW145164   0.394   4.298   3.772 -1.2246 -0.5067 -0.9453
14132SOL    HW245165   0.476   4.169   3.829 -0.6888  0.7809  1.2530
14133SOL     OW45166   1.931   5.364   4.023 -0.1352  0.0947  0.3723
14133SOL    HW145167   1.881   5.445   4.053  0.0999  0.5431 -0.4348
14133SOL    HW245168   1.976   5.383   3.936 -0.3134 -0.9913  0.0343
14136SOL     OW45169   6.018   8.946   3.582 -0.1558  0.2121  0.5155
14136SOL    HW145170   6.040   8.888   3.503 -1.0780 -0.8751  1.0360
14136SOL    HW245171   6.103   8.982   3.621  0.5988 -2.2859  1.2808
14137SOL     OW45172   7.571   4.852   1.099  0.0077  0.3365  0.1026
14137SOL    HW145173   7.611   4.928   1.152  0.7420  0.4738 -0.6377
14137SOL    HW245174   7.523   4.889   1.020 -0.6119  0.0918  0.3595
14138SOL     OW45175   4.867   4.061   1.607  0.1382  0.1835 -0.2457
14138SOL    HW145176   4.888   4.114   1.690  0.7122 -0.4464  0.0126
14138SOL    HW245177   4.919   3.976   1.608 -0.7343 -0.3565 -0.6979
14139SOL     OW45178   9.330   9.404   4.002 -0.1794 -0.2423  0.4369
14139SOL    HW145179   9.347   9.358   3.915 -5.4618 -1.5248 -0.0670
14139SOL    HW245180   9.282   9.342   4.064  1.8257  1.2656  3.6530
14140SOL     OW45181   7.634   8.934   5.230  0.3237  0.1206 -0.4788
14140SOL    HW145182   7.635   8.869   5.306 -0.4398  0.1762 -0.4235
14140SOL    HW245183   7.591   9.019   5.260  2.8135  1.2823 -0.0427
14141SOL     OW45184   0.379   5.865   4.414 -0.1849  0.2112 -0.1035
14141SOL    HW145185   0.319   5.786   4.427 -1.4047  1.2504  0.7981
14141SOL    HW245186   0.399   5.876   4.317 -2.4034  0.4704 -0.5770
14142SOL     OW45187   4.234   2.527   2.173  0.6967 -0.1898 -0.3546
14142SOL    HW145188   4.183   2.613   2.171  0.9159 -0.0340  0.4887
14142SOL    HW245189   4.204   2.472   2.251  0.5774 -0.8731 -0.8702
14144SOL     OW45190   3.238   7.053   4.434 -0.0963 -0.0261 -0.2739
14144SOL    HW145191   3.330   7.071   4.469  0.0191 -0.4575 -0.3466
14144SOL    HW245192   3.183   7.010   4.506 -0.2858  0.3729 -0.1833
14145SOL     OW45193   5.238   9.235   2.618 -0.0711  0.6939 -0.7082
14145SOL    HW145194   5.190   9.198   2.539 -0.1000 -0.5398 -0.1309
14145SOL    HW245195   5.292   9.315   2.591 -0.3253  0.4622 -1.8971
14146SOL     OW45196   8.434   2.930   5.161  0.1245  0.0705  0.7400
14146SOL    HW145197   8.388   3.016   5.180  0.3649  0.3108  0.2406
14146SOL    HW245198   8.495   2.941   5.082  1.2258 -0.1781  1.5495
14147SOL     OW45199   2.560   1.505   2.392  0.6388  0.0804 -0.0344
14147SOL    HW145200   2.654   1.476   2.409  0.8227 -0.6005 -2.0616
14147SOL    HW245201   2.498   1.457   2.454  1.5134 -0.3296  0.5255
14148SOL     OW45202   9.361   1.932   4.742  0.4229  0.2338  0.0239
14148SOL    HW145203   9.318   1.981   4.818 -2.9663 -0.8499 -1.1101
14148SOL    HW245204   9.352   1.834   4.756 -0.4781  0.0158 -1.8492
14149SOL     OW45205   7.744   9.144   3.452 -0.1567 -0.1639 -0.6172
14149SOL    HW145206   7.672   9.202   3.492 -0.0783  0.0117 -0.7305
14149SOL    HW245207   7.790   9.094   3.525 -2.3047 -2.4910 -0.7921
14150SOL     OW45208   8.610   1.269   2.262  0.3830  0.3154 -0.7812
14150SOL    HW145209   8.550   1.341   2.227 -0.3860 -0.3325 -0.8049
14150SOL    HW245210   8.562   1.217   2.333  1.5584  0.9442  0.5043
14151SOL     OW45211   1.525   7.104   1.807  0.0572  0.2847  0.0319
14151SOL    HW145212   1.583   7.184   1.792  0.0049  0.3354  0.1037
14151SOL    HW245213   1.582   7.022   1.809  0.1199  0.3283  0.0409
14152SOL     OW45214   3.673   5.586   1.880  0.0477 -0.6254 -0.0867
14152SOL    HW145215   3.644   5.682   1.883  0.2326 -0.5655 -0.2325
14152SOL    HW245216   3.637   5.543   1.798 -0.5860 -0.8579  0.3106
14153SOL     OW45217   8.629   9.212   1.089 -0.8956 -0.1074  0.2594
14153SOL    HW145218   8.684   9.159   1.024  0.9162  1.4255  0.5099
14153SOL    HW245219   8.537   9.226   1.051 -0.1811 -0.1219 -1.5067
14154SOL     OW45220   5.048   8.098   4.410 -0.1661  0.0477  0.3354
14154SOL    HW145221   5.102   8.091   4.327  0.4873 -0.8568  0.8224
14154SOL    HW245222   5.090   8.042   4.482 -0.8465  0.6325  1.2012
14155SOL     OW45223   7.978   4.588   3.570  0.9890 -0.1458  0.5267
14155SOL    HW145224   7.959   4.530   3.491  0.9646  0.8379 -0.1977
14155SOL    HW245225   8.004   4.531   3.648 -2.3450 -1.3655  0.8002
14156SOL     OW45226   1.844   5.223   0.572  0.6251 -0.1912  0.0781
14156SOL    HW145227   1.873   5.186   0.485 -0.6733  0.5316 -0.6832
14156SOL    HW245228   1.920   5.221   0.637  0.9560 -2.9064 -0.3375
14157SOL     OW45229   4.134   4.005   6.410  0.0398  0.2511  0.5853
14157SOL    HW145230   4.037   4.029   6.412 -0.2279 -0.5856 -1.2881
14157SOL    HW245231   4.176   4.043   6.327  1.1662  0.0952  1.0777
14158SOL     OW45232   2.380   1.965   3.551 -0.2192  0.5378  0.0144
14158SOL    HW145233   2.452   1.957   3.483 -2.0245 -1.4502 -1.7024
14158SOL    HW245234   2.378   1.883   3.608 -1.6609  0.2258 -0.4793
14159SOL     OW45235   8.063   6.175   6.266  0.1043 -0.3533 -0.8780
14159SOL    HW145236   8.130   6.224   6.209 -0.2435  1.7984  0.5087
14159SOL    HW245237   8.075   6.202   6.361 -1.7249 -1.1464 -0.4042
14160SOL     OW45238   8.639   3.845   1.051  0.3990  0.1355 -0.0920
14160SOL    HW145239   8.611   3.936   1.080 -2.3179 -0.7400  0.1359
14160SOL    HW245240   8.570   3.807   0.989  1.3932 -1.8610 -0.0055
14161SOL     OW45241   7.147   8.397   5.499  0.1897  0.1906  0.3750
14161SOL    HW145242   7.184   8.474   5.447 -1.3464 -1.0766 -2.7652
14161SOL    HW245243   7.217   8.327   5.509  0.3421  0.2091 -0.5293
14162SOL     OW45244   1.589   8.954   1.819  0.5988  0.3934 -0.1006
14162SOL    HW145245   1.511   8.937   1.879 -0.3298  1.3959 -0.9934
14162SOL    HW245246   1.648   8.873   1.817 -1.6326 -1.2769 -1.2176
14164SOL     OW45247   4.925   9.954   2.071 -0.3638 -0.8052 -0.0705
14164SOL    HW145248   5.011   9.981   2.029 -0.3739 -0.0876  0.3451
14164SOL    HW245249   4.885   9.877   2.021  0.4331 -1.0360 -0.3605
14165SOL     OW45250   6.797   2.937   1.335  0.0068  0.0709 -0.1367
14165SOL    HW145251   6.705   2.911   1.307 -0.2395 -0.1238  0.8425
14165SOL    HW245252   6.791   3.014   1.399  0.5487  0.3538 -0.4257
14166SOL     OW45253   0.851   8.487   3.184 -0.1774 -0.3829 -0.2720
14166SOL    HW145254   0.799   8.477   3.100 -0.7370  0.5380 -0.0426
14166SOL    HW245255   0.949   8.490   3.163 -0.1613 -2.6084 -0.6586
14168SOL     OW45256   4.930   3.720   5.820 -0.1080  0.2086 -0.2589
14168SOL    HW145257   4.976   3.718   5.909 -1.8942 -0.4676  0.6674
14168SOL    HW245258   4.999   3.726   5.748  1.3217  2.0669  1.1932
14169SOL     OW45259   6.801   9.652   1.872  0.3740  0.2693 -0.3063
14169SOL    HW145260   6.752   9.669   1.957 -0.6128  1.4315 -1.0904
14169SOL    HW245261   6.739   9.608   1.806  0.9867 -0.1552 -0.6060
14170SOL     OW45262   5.743   2.431   4.591 -0.0552  0.0626  0.1950
14170SOL    HW145263   5.767   2.358   4.526  0.2116 -0.5610  0.9893
14170SOL    HW245264   5.799   2.512   4.572  1.8031 -0.9612  1.2385
14171SOL     OW45265   1.252   4.653   5.176 -0.6981 -0.1354 -0.3196
14171SOL    HW145266   1.229   4.702   5.260  0.7953 -1.0129  0.6075
14171SOL    HW245267   1.267   4.556   5.196 -0.2253 -0.3378 -1.5867
14173SOL     OW45268   9.155   1.946   1.118 -0.0133  0.3693  0.3555
14173SOL    HW145269   9.186   1.860   1.158  0.8023  1.3504  1.8508
14173SOL    HW245270   9.066   1.931   1.074 -0.1253 -1.1284  1.0409
14174SOL     OW45271   8.520   8.779   3.564 -0.2076  0.8874  0.0454
14174SOL    HW145272   8.506   8.743   3.472  0.6202  0.5265  0.0642
14174SOL    HW245273   8.568   8.867   3.559  0.8321  0.3309  0.1943
14175SOL     OW45274   2.732   5.046   2.285 -0.3189  0.1208 -0.1702
14175SOL    HW145275   2.645   5.016   2.324  0.9015 -1.2393  1.5980
14175SOL    HW245276   2.795   5.071   2.359  0.9916  0.5608 -1.4033
14176SOL     OW45277   0.274   4.040   6.265  0.5077  0.3747  0.0686
14176SOL    HW145278   0.220   4.045   6.181  2.5801 -0.2615 -1.3342
14176SOL    HW245279   0.353   4.101   6.257  1.9897 -1.4395  0.6036
14177SOL     OW45280   7.597   0.767   3.640 -0.7419 -0.0041 -0.0724
14177SOL    HW145281   7.552   0.831   3.702 -0.7895 -0.7209  0.6368
14177SOL    HW245282   7.576   0.673   3.667  0.1917 -0.3364 -0.4657
14178SOL     OW45283   6.328   9.272   3.785 -0.6043  0.0679  0.0848
14178SOL    HW145284   6.264   9.241   3.856 -2.0418  0.3562 -1.0575
14178SOL    HW245285   6.416   9.294   3.827 -1.5251  0.5269  1.8252
14179SOL     OW45286   8.252   0.073   2.286  0.2828  0.1804  0.2964
14179SOL    HW145287   8.278   0.167   2.305  1.4396 -0.2145  0.7518
14179SOL    HW245288   8.207   0.067   2.197 -0.1043  1.2053  0.4183
14180SOL     OW45289   4.381   8.559   0.900  0.4503 -0.1983  0.6116
14180SOL    HW145290   4.418   8.646   0.868 -2.2580  1.4622  1.8368
14180SOL    HW245291   4.381   8.557   1.000 -1.9908 -0.4657  0.6385
14181SOL     OW45292   9.919   9.668   0.879  0.3096 -0.1828  0.3747
14181SOL    HW145293   9.842   9.663   0.816  1.1911  0.1066 -0.7305
14181SOL    HW245294   9.990   9.727   0.841  1.1541 -0.5869  1.3013
14182SOL     OW45295   8.881   1.556   3.628  0.3952  0.5950 -0.3628
14182SOL    HW145296   8.832   1.510   3.702 -0.4175  0.8006 -0.7657
14182SOL    HW245297   8.827   1.633   3.595 -0.7175 -1.3812 -3.3046
14183SOL     OW45298   7.259   6.918   3.868 -0.2199  0.0862  0.2455
14183SOL    HW145299   7.350   6.902   3.830  0.2830  0.9745  1.0436
14183SOL    HW245300   7.192   6.859   3.823  1.3130 -3.1968  2.1154
14184SOL     OW45301   1.676   1.028   0.227  0.0939  0.0352  0.3965
14184SOL    HW145302   1.645   1.107   0.174  1.5380  0.9780  0.9265
14184SOL    HW245303   1.596   0.977   0.260 -0.9551  2.5876  1.9966
14185SOL     OW45304   7.829   3.565   3.243 -0.0907  0.5129 -0.4231
14185SOL    HW145305   7.743   3.572   3.193 -0.0756  3.3440 -0.1653
14185SOL    HW245306   7.901   3.613   3.191  0.8767 -0.1117  0.3187
14186SOL     OW45307   9.185   7.637   2.179  0.5194  0.1820 -0.4661
14186SOL    HW145308   9.235   7.567   2.229  0.7710  0.8275  0.1836
14186SOL    HW245309   9.245   7.680   2.112  0.6311  0.4441 -0.1977
14187SOL     OW45310   7.647   1.125   2.444 -0.0929 -0.3490 -0.4759
14187SOL    HW145311   7.597   1.115   2.357  0.9597 -0.0050 -1.1320
14187SOL    HW245312   7.716   1.053   2.450 -0.8454 -0.9864  0.5525
14189SOL     OW45313   1.383   7.529   2.663  0.3432  0.4737 -0.1196
14189SOL    HW145314   1.414   7.452   2.719 -0.2817 -0.2068 -0.7097
14189SOL    HW245315   1.463   7.573   2.622  0.7847  0.8000  1.0627
14190SOL     OW45316   8.369   2.671   5.954 -0.3704  0.5484  0.1514
14190SOL    HW145317   8.366   2.599   5.885 -1.4163  0.2447  0.5088
14190SOL    HW245318   8.464   2.701   5.967  0.0996 -0.9210  0.1823
14191SOL     OW45319   3.540   4.624   0.921 -0.1723  0.0673  0.2050
14191SOL    HW145320   3.567   4.669   1.006 -0.4131 -0.3500  0.5027
14191SOL    HW245321   3.558   4.685   0.844  1.8786 -0.2970  0.3698
14192SOL     OW45322   8.162   0.783   0.275  0.1966 -0.4508  0.6026
14192SOL    HW145323   8.252   0.825   0.264 -0.5373  0.6724 -1.6112
14192SOL    HW245324   8.172   0.684   0.286  1.5901 -0.9540 -3.8911
14193SOL     OW45325   8.573   7.418   5.358  0.3535  0.3228 -0.4921
14193SOL    HW145326   8.649   7.449   5.301  0.9652 -0.4387 -0.0993
14193SOL    HW245327   8.534   7.335   5.317  1.1598 -0.5568  0.4877
14194SOL     OW45328   8.757   6.275   4.101  0.2369  0.7634 -0.3536
14194SOL    HW145329   8.826   6.205   4.118  0.0754  0.8969  0.8824
14194SOL    HW245330   8.666   6.235   4.106  0.2020  0.6764 -1.5543
14196SOL     OW45331   1.468   2.064   0.849 -0.0415  0.2221  0.4473
14196SOL    HW145332   1.450   1.966   0.838 -1.3216  0.4086  0.8428
14196SOL    HW245333   1.565   2.082   0.831 -0.3558 -0.6859 -2.5696
14197SOL     OW45334   4.630   1.705   2.313 -0.0477 -0.4837 -0.0172
14197SOL    HW145335   4.702   1.689   2.381  0.0650  0.9910  0.2278
14197SOL    HW245336   4.645   1.646   2.234 -0.5687 -2.7375  1.5035
14198SOL     OW45337   7.593   3.202   1.207  0.0406  0.5728  0.6263
14198SOL    HW145338   7.684   3.198   1.165  0.3679  1.7117  1.2011
14198SOL    HW245339   7.539   3.123   1.178  1.0442  0.1520 -0.1154
14200SOL     OW45340   1.549   6.816   1.981  0.5983 -0.0466 -0.2457
14200SOL    HW145341   1.518   6.726   2.012 -2.5631  1.4961  1.3353
14200SOL    HW245342   1.505   6.838   1.894 -0.3633  0.8594  0.4604
14201SOL     OW45343   1.380   5.866   5.600 -0.0764  0.0579  0.6254
14201SOL    HW145344   1.374   5.921   5.683  0.8339  0.6213  0.3177
14201SOL    HW245345   1.461   5.891   5.548  0.7185 -2.0345  0.8005
14202SOL     OW45346   2.831   9.287   5.269 -0.2075 -0.5559  0.2744
14202SOL    HW145347   2.898   9.355   5.240 -0.9672 -0.1180 -0.4608
14202SOL    HW245348   2.822   9.289   5.369  0.4079 -0.1801  0.3203
14203SOL     OW45349   7.541   2.437   1.423  0.7244 -0.3464 -0.0818
14203SOL    HW145350   7.598   2.381   1.483  2.8551  2.7871  0.9914
14203SOL    HW245351   7.575   2.430   1.329  0.8768 -0.9952  0.0192
14204SOL     OW45352   2.135   7.516   2.792 -0.9262 -0.6030  0.2916
14204SOL    HW145353   2.113   7.545   2.699 -1.1655 -1.5116  0.0535
14204SOL    HW245354   2.186   7.429   2.788  2.4955  1.2811  0.8287
14205SOL     OW45355   1.116   6.448   3.627 -0.3465  0.4211  0.2228
14205SOL    HW145356   1.122   6.529   3.569  0.5580  0.5032  0.4230
14205SOL    HW245357   1.149   6.470   3.719 -0.2106 -0.1400  0.3083
14206SOL     OW45358   0.244   8.796   0.392  0.8862  0.3850 -0.4077
14206SOL    HW145359   0.192   8.732   0.449 -1.9441  2.0456 -1.0366
14206SOL    HW245360   0.287   8.865   0.451  0.9723  0.0140 -0.0320
14208SOL     OW45361   2.492   9.363   0.117  0.0007  0.4539 -0.0377
14208SOL    HW145362   2.497   9.437   0.184  0.7743  2.2572 -2.0229
14208SOL    HW245363   2.542   9.390   0.034 -2.4157 -0.9911 -2.0227
14211SOL     OW45364   2.934   8.396   4.063 -0.5408 -0.1534  0.1201
14211SOL    HW145365   2.934   8.467   3.992 -0.1820  1.0673  1.3127
14211SOL    HW245366   2.986   8.317   4.032  2.1572  1.5568  0.1468
14212SOL     OW45367   5.179   9.875   4.956  0.1654  0.1494 -0.3110
14212SOL    HW145368   5.236   9.804   4.998 -0.2814  1.0361  1.8684
14212SOL    HW245369   5.117   9.913   5.025 -3.1038 -0.7948 -2.5995
14213SOL     OW45370   5.639   7.309   4.450  0.4784 -0.1681  0.2490
14213SOL    HW145371   5.580   7.337   4.526  0.3197 -0.1562  0.1202
14213SOL    HW245372   5.647   7.385   4.385 -2.2294 -1.3568 -1.5481
14214SOL     OW45373   0.777   0.391   6.333 -0.8182  0.1125 -0.4771
14214SOL    HW145374   0.754   0.350   6.421  0.3589  0.7542  0.1429
14214SOL    HW245375   0.767   0.490   6.339  0.5140  0.2680 -0.6662
14218SOL     OW45376   4.644   0.570   1.446 -0.7203  0.2049 -0.5134
14218SOL    HW145377   4.550   0.540   1.433 -0.5569  0.4577 -2.3584
14218SOL    HW245378   4.705   0.516   1.388  0.2646  0.0970  0.6044
14219SOL     OW45379   5.255   1.409   0.035  0.8520  0.8719 -0.0552
14219SOL    HW145380   5.273   1.359   0.119  1.7247 -0.7616 -1.1797
14219SOL    HW245381   5.243   1.344  -0.040 -0.2063  2.2915 -1.1430
14220SOL     OW45382   0.497   1.226   1.352  0.2360 -0.1615  0.3844
14220SOL    HW145383   0.422   1.224   1.286  0.4056 -2.4004  0.2169
14220SOL    HW245384   0.558   1.148   1.336  1.8629  0.8662  1.3755
14221SOL     OW45385   9.907   2.125   2.283 -0.3006 -0.1796  0.1561
14221SOL    HW145386   9.900   2.164   2.375 -0.3021 -0.1014  0.1232
14221SOL    HW245387   9.930   2.198   2.218  3.1197 -0.7648  0.5863
14222SOL     OW45388   6.939   7.519   5.493  0.9131  0.8929  0.5050
14222SOL    HW145389   6.943   7.616   5.518  1.4508  0.9863  0.0759
14222SOL    HW245390   6.894   7.509   5.405 -2.9575  0.3752  2.4211
14223SOL     OW45391   4.295   7.321   2.787 -0.0293  0.0808  0.1640
14223SOL    HW145392   4.280   7.238   2.840 -1.4864 -0.8505 -1.6388
14223SOL    HW245393   4.375   7.310   2.729 -0.0173  0.0721  0.1825
14224SOL     OW45394   6.197   1.278   3.565  0.6849 -0.4798  0.2458
14224SOL    HW145395   6.238   1.347   3.624 -3.7407  2.0787  0.5408
14224SOL    HW245396   6.152   1.209   3.620  2.1898 -1.7537 -0.0990
14225SOL     OW45397   3.127   3.675   3.529  0.2391  0.3147 -0.4374
14225SOL    HW145398   3.100   3.613   3.602  0.3163 -0.4265 -1.0304
14225SOL    HW245399   3.143   3.767   3.566  0.1776 -0.0375  0.4479
14226SOL     OW45400   1.738   7.832   4.928 -0.3921  0.0444  0.2381
14226SOL    HW145401   1.789   7.917   4.943  1.3485 -1.0650  0.7599
14226SOL    HW245402   1.648   7.840   4.971  0.0082  1.3788  0.8813
14227SOL     OW45403   2.456   9.713   4.453 -0.1695  0.4002 -0.1800
14227SOL    HW145404   2.411   9.698   4.365  0.5194 -1.5467 -0.2206
14227SOL    HW245405   2.548   9.749   4.438 -0.7406  1.9374 -0.1668
14229SOL     OW45406   4.003   2.116   2.652 -0.4015  0.3268  0.2901
14229SOL    HW145407   3.996   2.095   2.555  2.5581  1.9551 -0.3444
14229SOL    HW245408   4.086   2.074   2.689 -0.2247  1.7268  1.5214
14231SOL     OW45409   2.636   0.050   4.096  0.0900  0.5356 -0.1674
14231SOL    HW145410   2.564   0.056   4.165 -2.2194  2.9224 -2.6505
14231SOL    HW245411   2.597   0.017   4.010  2.6777 -1.2892 -0.7050
14232SOL     OW45412   2.134   1.350   2.598  0.3947 -0.2831 -0.0036
14232SOL    HW145413   2.058   1.315   2.544 -0.2855  0.6375  0.3547
14232SOL    HW245414   2.099   1.397   2.679  1.2916  0.9923 -0.3321
14234SOL     OW45415   8.415   3.254   1.013  0.3003 -0.5355  0.0566
14234SOL    HW145416   8.372   3.313   1.081  2.1237  0.9671 -0.0538
14234SOL    HW245417   8.372   3.268   0.924  0.7211  0.6245  0.0356
14235SOL     OW45418   0.841   5.776   2.667  0.0063  0.0041 -0.3937
14235SOL    HW145419   0.915   5.735   2.720 -1.1878 -0.3357  1.0587
14235SOL    HW245420   0.864   5.774   2.569  1.0134 -1.9847 -0.1424
14236SOL     OW45421   3.649   8.280   1.777  0.5359 -0.1030 -0.4985
14236SOL    HW145422   3.683   8.373   1.765  1.4105 -0.2928  0.4491
14236SOL    HW245423   3.553   8.276   1.750  0.7106  0.8876 -1.3047
14237SOL     OW45424   4.284   0.556   3.725  0.2626  0.3087 -0.2253
14237SOL    HW145425   4.282   0.630   3.792 -1.5046  0.9668 -0.9640
14237SOL    HW245426   4.230   0.479   3.759 -3.2208  1.7797 -2.0727
14238SOL     OW45427   4.589   5.286   1.454 -0.0582  0.2914  0.6561
14238SOL    HW145428   4.539   5.251   1.533  0.0202  0.5174  0.8067
14238SOL    HW245429   4.577   5.224   1.377  0.6878 -0.4629  1.1333
14239SOL     OW45430   9.052   6.064   2.948  0.0382  0.7645  0.9902
14239SOL    HW145431   9.106   6.128   2.893 -1.1223  0.3801 -0.6373
14239SOL    HW245432   9.004   6.115   3.019 -1.4174  1.8722 -0.7150
14241SOL     OW45433   4.528   5.535   2.427  0.8883 -0.1802  0.3800
14241SOL    HW145434   4.435   5.532   2.390 -0.0138  2.1725  2.2946
14241SOL    HW245435   4.590   5.569   2.357 -0.3437  1.7513  0.1881
14242SOL     OW45436   3.787   4.013   5.696  0.3298  0.7645 -0.5254
14242SOL    HW145437   3.801   4.099   5.746  1.1856 -0.0788  0.7073
14242SOL    HW245438   3.862   4.000   5.631 -0.6631  1.7469 -1.8919
14244SOL     OW45439   6.870   9.376   2.346  0.7425 -0.3989  0.0124
14244SOL    HW145440   6.829   9.456   2.303  0.3960 -1.4704 -1.6580
14244SOL    HW245441   6.960   9.401   2.383  0.4696  0.8540 -0.1507
14246SOL     OW45442   2.354   9.080   6.352  0.1609 -0.1464 -0.0327
14246SOL    HW145443   2.328   9.175   6.337 -2.0077 -0.1124  3.3643
14246SOL    HW245444   2.305   9.021   6.288 -0.9086  0.8009 -0.1096
14247SOL     OW45445   9.497   6.332   0.969 -0.3579  0.3128  0.1908
14247SOL    HW145446   9.583   6.329   1.020 -0.5183 -0.6018  0.4179
14247SOL    HW245447   9.507   6.277   0.885 -0.2613  1.3785 -0.4977
14248SOL     OW45448   6.201   7.417   4.289 -0.3401 -0.0645 -0.2837
14248SOL    HW145449   6.171   7.496   4.343 -0.3132 -0.2285 -0.0272
14248SOL    HW245450   6.293   7.391   4.317 -0.3840 -0.2428 -0.3047
14249SOL     OW45451   3.481   5.938   6.041 -0.8098  0.2600  0.0357
14249SOL    HW145452   3.485   5.858   5.982  1.7455  1.0371 -0.9298
14249SOL    HW245453   3.428   6.010   5.997 -0.7940  0.0516 -0.3254
14250SOL     OW45454   0.235   6.139   1.561 -0.1777 -0.4593  0.0386
14250SOL    HW145455   0.197   6.213   1.507  1.6501 -0.5710 -1.4568
14250SOL    HW245456   0.264   6.174   1.650 -1.1310  0.1925  0.1005
14251SOL     OW45457   0.068   3.327   2.305  0.6619 -0.1546 -0.1614
14251SOL    HW145458   0.125   3.390   2.358 -0.1501 -0.3636  0.9750
14251SOL    HW245459   0.011   3.273   2.367  0.5931 -1.2818 -1.1866
14252SOL     OW45460   6.294   1.930   1.700  0.3461  0.2159  0.0732
14252SOL    HW145461   6.291   1.882   1.612  2.0179 -0.1364  0.1839
14252SOL    HW245462   6.223   1.894   1.760  0.3406 -0.7950 -0.5266
14253SOL     OW45463   2.443   5.438   1.060  0.1655  0.4608 -0.0434
14253SOL    HW145464   2.528   5.398   1.024 -1.3086 -0.4237 -2.6467
14253SOL    HW245465   2.451   5.537   1.062 -0.0558  0.5964 -3.7921
14254SOL     OW45466   9.513   5.168   5.394 -0.3465 -0.5081 -0.1981
14254SOL    HW145467   9.417   5.169   5.366  0.2616 -0.0123 -2.3812
14254SOL    HW245468   9.568   5.129   5.320  1.4787  1.8574 -0.1263
14255SOL     OW45469   7.595   3.490   2.374 -0.3413 -0.6223  0.7870
14255SOL    HW145470   7.688   3.458   2.353 -0.3827 -2.0229  2.6174
14255SOL    HW245471   7.559   3.439   2.452 -2.6280 -0.0142  0.1605
14256SOL     OW45472   2.822   6.869   5.438 -0.0761 -0.3627  0.0029
14256SOL    HW145473   2.796   6.801   5.506 -3.4349 -0.3073 -1.1296
14256SOL    HW245474   2.763   6.861   5.358  0.7647  2.5664 -0.9900
14257SOL     OW45475   7.721   6.322   3.154 -0.5645 -0.6210  0.0821
14257SOL    HW145476   7.638   6.292   3.202  0.6970 -3.4189  0.6441
14257SOL    HW245477   7.758   6.245   3.101  0.4682  1.2218 -1.9295
14258SOL     OW45478   1.669   1.508   5.190  0.3011 -0.6001  0.1506
14258SOL    HW145479   1.754   1.545   5.228 -0.6715  2.3187 -0.4210
14258SOL    HW245480   1.595   1.518   5.257  0.1119 -1.9132  0.1446
14259SOL     OW45481   1.983   6.081   4.311  0.6410  0.2699 -0.1461
14259SOL    HW145482   2.040   6.124   4.241  1.6705 -1.6610 -0.5346
14259SOL    HW245483   1.896   6.053   4.270  0.3773  1.0443 -0.1302
14261SOL     OW45484   3.504   7.855   4.455 -0.2854  0.1330 -0.1438
14261SOL    HW145485   3.550   7.924   4.400 -2.0027 -1.2951 -3.5086
14261SOL    HW245486   3.560   7.772   4.460 -0.5735 -0.0850 -0.5556
14262SOL     OW45487   9.680   8.450   1.612  0.2288 -0.2829  0.1401
14262SOL    HW145488   9.759   8.434   1.551 -0.6281 -0.2339 -0.9993
14262SOL    HW245489   9.644   8.541   1.594 -0.6049 -0.6292  0.0671
14263SOL     OW45490   7.625   8.808   4.139 -0.2390 -0.1195 -0.2577
14263SOL    HW145491   7.538   8.855   4.156  0.5773  0.6602  1.8233
14263SOL    HW245492   7.629   8.724   4.192 -0.4657 -1.1030 -1.7576
14264SOL     OW45493   8.062   7.994   4.785  0.1809  0.9394  0.4158
14264SOL    HW145494   8.144   8.040   4.751 -0.8552  0.6287 -2.6159
14264SOL    HW245495   8.069   7.896   4.767 -0.7364  0.8783  0.3774
14265SOL     OW45496   4.131   6.724   1.042  0.5356  0.0564  0.0379
14265SOL    HW145497   4.197   6.653   1.069  0.8143  0.6865  1.0449
14265SOL    HW245498   4.129   6.732   0.942  1.9973  0.0409  0.0029
14266SOL     OW45499   2.400   3.937   5.407  0.2909  0.5144  0.5450
14266SOL    HW145500   2.346   3.889   5.477  0.7666 -3.4513 -1.6256
14266SOL    HW245501   2.338   3.986   5.345 -0.6112 -1.0116  0.2038
14268SOL     OW45502   1.549   2.325   4.084  0.9544 -0.2658  0.1422
14268SOL    HW145503   1.482   2.290   4.149 -0.4472 -0.2583 -1.2601
14268SOL    HW245504   1.591   2.408   4.121 -0.9948  0.6440  0.3453
14269SOL     OW45505   6.776   6.506   5.700 -0.0903  0.1344 -0.2949
14269SOL    HW145506   6.745   6.556   5.619 -2.5598 -0.2587  0.3559
14269SOL    HW245507   6.861   6.458   5.679 -0.6200  0.1520 -2.6046
14271SOL     OW45508   7.761   8.291   3.191  0.0407 -0.0262  0.1802
14271SOL    HW145509   7.793   8.197   3.208 -0.7869 -0.3623 -0.0868
14271SOL    HW245510   7.820   8.334   3.122  0.6891 -0.1948  0.6222
14273SOL     OW45511   1.916   3.667   0.744 -0.8371 -0.4801  0.1116
14273SOL    HW145512   1.837   3.629   0.793 -1.6208  0.2859 -0.5318
14273SOL    HW245513   1.956   3.596   0.685 -0.9615 -0.9060  0.5328
14274SOL     OW45514   6.658   9.926   5.384 -0.2492  0.0738 -0.3109
14274SOL    HW145515   6.629   9.869   5.307 -0.9245 -0.5154  0.3780
14274SOL    HW245516   6.732   9.880   5.433 -2.3345 -1.3110  1.6186
14275SOL     OW45517   5.182   7.994   2.014 -0.4592 -0.1071 -0.1908
14275SOL    HW145518   5.167   7.936   2.094 -0.7882 -0.1909 -0.3127
14275SOL    HW245519   5.244   8.069   2.038 -1.2703  0.3857  0.3846
14276SOL     OW45520   1.251   3.169   2.545 -0.3862  0.0202 -0.3227
14276SOL    HW145521   1.232   3.232   2.470 -1.3094  0.4165  0.2349
14276SOL    HW245522   1.228   3.076   2.518 -1.6067  0.2874 -0.2098
14278SOL     OW45523   4.278   7.117   4.312 -0.2777  0.2973 -0.9096
14278SOL    HW145524   4.324   7.139   4.226 -0.1167 -0.7065 -1.0843
14278SOL    HW245525   4.313   7.175   4.385  0.3038  0.4583 -1.3216
14279SOL     OW45526   3.744   2.905   5.036 -0.2742  0.3357  0.4769
14279SOL    HW145527   3.664   2.846   5.048  0.3430 -0.9195 -1.3718
14279SOL    HW245528   3.815   2.877   5.102 -0.2424 -0.5581  0.0803
14280SOL     OW45529   5.418   0.046   2.605 -0.3239  0.6026  0.1497
14280SOL    HW145530   5.447   0.062   2.511 -1.1086 -1.4809 -0.4676
14280SOL    HW245531   5.493   0.001   2.655 -0.7845 -0.5588 -0.1812
14281SOL     OW45532   7.874   3.657   2.487 -0.2296 -0.0768 -0.1339
14281SOL    HW145533   7.915   3.719   2.554 -1.3329  0.2440  0.2472
14281SOL    HW245534   7.836   3.578   2.535 -2.6365  1.0189 -0.1852
14283SOL     OW45535   6.787   9.782   2.545  0.0618 -0.0751  0.3118
14283SOL    HW145536   6.808   9.724   2.624 -1.0232  0.9216  1.3565
14283SOL    HW245537   6.708   9.840   2.566  1.4304  2.1543 -0.5220
14284SOL     OW45538   4.970   9.445   2.686  0.1542 -0.4269 -0.6168
14284SOL    HW145539   4.976   9.359   2.736 -1.5225 -0.6251 -0.7365
14284SOL    HW245540   5.063   9.479   2.667  0.8126 -1.1674  1.1792
14285SOL     OW45541   1.166   9.376   2.401  0.2219  0.0336 -0.2909
14285SOL    HW145542   1.105   9.318   2.347  1.2448  0.3666 -1.8311
14285SOL    HW245543   1.214   9.439   2.340  1.2553  0.5529  1.0471
14286SOL     OW45544   2.134   4.241   0.315  0.7853  0.4291  0.0255
14286SOL    HW145545   2.084   4.181   0.377  1.3250 -1.6041 -1.4494
14286SOL    HW245546   2.188   4.306   0.368 -1.2803  0.8824  1.6381
14287SOL     OW45547   8.100   4.403   0.386 -0.0345 -0.3258  0.8161
14287SOL    HW145548   8.191   4.443   0.374 -0.0278 -0.4272  0.5169
14287SOL    HW245549   8.070   4.418   0.480 -1.1454  2.7200  0.0433
14288SOL     OW45550   1.056   4.717   2.061 -0.0095  0.1272  0.2180
14288SOL    HW145551   0.965   4.676   2.060 -0.4425  1.0672  0.6172
14288SOL    HW245552   1.061   4.785   2.134  0.8085  0.5501 -0.2293
14289SOL     OW45553   9.144   5.062   4.286 -0.1345  0.1879  0.8205
14289SOL    HW145554   9.235   5.093   4.315 -0.3021  1.9112 -0.4339
14289SOL    HW245555   9.155   4.990   4.218  0.2810 -0.3866  1.4845
14290SOL     OW45556   1.149   9.093   3.623  0.4927  0.1917  0.0381
14290SOL    HW145557   1.083   9.023   3.652  0.4945  0.3219  0.3539
14290SOL    HW245558   1.224   9.049   3.574  1.3509 -0.2390  1.6794
14292SOL     OW45559   4.530   8.478   2.492  0.5911 -0.1977  0.2266
14292SOL    HW145560   4.612   8.493   2.549 -1.7438 -2.6367  4.5478
14292SOL    HW245561   4.508   8.380   2.492 -1.3436  0.1993 -2.3359
14295SOL     OW45562   1.200   8.338   6.102  0.3322  0.3866  0.6835
14295SOL    HW145563   1.169   8.350   6.197  0.5532 -1.0952  0.9557
14295SOL    HW245564   1.299   8.348   6.098  0.1714  1.9144  0.3534
14297SOL     OW45565   9.269   0.694   2.786 -0.1061 -0.3110 -0.5874
14297SOL    HW145566   9.200   0.664   2.720 -0.2507  0.1888 -0.6673
14297SOL    HW245567   9.343   0.627   2.790 -1.4528 -1.7551  0.8057
14298SOL     OW45568   4.580   2.450   3.984  0.4744  0.1962 -0.4440
14298SOL    HW145569   4.603   2.357   4.013  2.1445  0.9493  0.7314
14298SOL    HW245570   4.615   2.465   3.891  1.1836  0.0049 -0.2116
14300SOL     OW45571   1.842   2.705   3.958  0.9258  0.4413 -0.2915
14300SOL    HW145572   1.782   2.741   3.886  1.5906  0.2135 -0.9622
14300SOL    HW245573   1.871   2.780   4.017 -0.8506  0.4142  0.6799
14301SOL     OW45574   7.827   7.251   2.724  0.1428 -0.6033  0.0742
14301SOL    HW145575   7.751   7.302   2.765  1.3762  1.0395  0.3331
14301SOL    HW245576   7.834   7.275   2.627 -0.2836 -1.5135 -0.1899
14302SOL     OW45577   9.734   6.213   1.275  0.6372  0.4370  0.1013
14302SOL    HW145578   9.757   6.214   1.372 -1.2472  0.5794  0.5537
14302SOL    HW245579   9.689   6.299   1.250  0.8847  0.3001 -0.8478
14305SOL     OW45580   7.718   6.860   6.328  0.0499  0.1346 -0.7923
14305SOL    HW145581   7.799   6.881   6.274  0.1651 -1.4826 -1.2739
14305SOL    HW245582   7.721   6.765   6.358 -1.3899  0.2156 -0.3152
14306SOL     OW45583   8.034   6.879   3.560  0.1618  0.3506  0.2718
14306SOL    HW145584   7.970   6.902   3.486  0.7593  2.1226  0.2951
14306SOL    HW245585   8.115   6.936   3.553  1.6249 -1.6526  0.4615
14308SOL     OW45586   7.047   9.592   4.425 -0.0603 -0.0313 -0.0404
14308SOL    HW145587   7.146   9.596   4.438 -0.2749  2.0928  1.2072
14308SOL    HW245588   7.012   9.683   4.403 -1.7476 -0.7606 -0.5034
14309SOL     OW45589   5.581   1.684   4.817  0.7019 -0.2453  0.0461
14309SOL    HW145590   5.646   1.607   4.818  0.0322 -0.8192  1.0057
14309SOL    HW245591   5.630   1.769   4.836  1.5068 -0.3909 -1.3665
14311SOL     OW45592   0.747   6.388   4.269 -0.0373  0.6451 -0.2599
14311SOL    HW145593   0.707   6.328   4.200  0.7571 -1.7734  1.3245
14311SOL    HW245594   0.819   6.443   4.227  0.0776 -0.3969 -1.4780
14312SOL     OW45595   3.218   9.175   2.012  0.6767 -0.3607 -0.0797
14312SOL    HW145596   3.225   9.076   2.025  2.8087 -0.3020 -0.6303
14312SOL    HW245597   3.284   9.222   2.071 -0.6573  0.7788  0.5458
14313SOL     OW45598   3.021   6.721   2.009  0.1061 -0.0969 -0.3114
14313SOL    HW145599   2.967   6.669   1.942 -1.1765  0.5979  0.1633
14313SOL    HW245600   3.070   6.794   1.962  1.5254 -1.4156 -0.9085
14315SOL     OW45601   8.770   5.291   4.926 -0.2905 -0.1279  0.0262
14315SOL    HW145602   8.751   5.295   4.828  1.6127 -1.1105 -0.4106
14315SOL    HW245603   8.862   5.253   4.940 -0.3480  0.4998  2.1684
14317SOL     OW45604   2.918   0.703   4.622 -0.6039 -0.0394 -0.6606
14317SOL    HW145605   2.887   0.702   4.717 -0.1157 -0.6291 -0.5002
14317SOL    HW245606   3.017   0.718   4.620 -1.0893  3.5712 -1.2321
14318SOL     OW45607   2.820   2.842   5.664 -0.9305  0.0562  0.0664
14318SOL    HW145608   2.881   2.836   5.585 -2.2093 -0.7900 -0.8967
14318SOL    HW245609   2.870   2.878   5.742 -0.3469  3.6451 -1.8590
14319SOL     OW45610   9.857   2.763   4.618 -0.2364  0.4817 -0.6754
14319SOL    HW145611   9.886   2.675   4.581  0.8462 -1.2894  4.0409
14319SOL    HW245612   9.938   2.819   4.637 -0.6647  0.7697  0.3140
14320SOL     OW45613   0.144   3.433   1.330  0.0174 -0.1677  0.3124
14320SOL    HW145614   0.208   3.362   1.301  0.8319 -0.6403  3.0933
14320SOL    HW245615   0.050   3.402   1.316  0.3749 -1.1564  0.0994
14321SOL     OW45616   6.803   4.656   1.969 -0.2209 -0.0551 -0.9712
14321SOL    HW145617   6.852   4.742   1.978  1.1866 -0.8449 -0.8766
14321SOL    HW245618   6.714   4.663   2.014 -0.7061  1.7800 -2.1989
14323SOL     OW45619   0.857   7.151   0.182 -0.1446  0.4054 -1.1813
14323SOL    HW145620   0.823   7.099   0.261  0.2178 -1.3631 -2.1525
14323SOL    HW245621   0.943   7.195   0.207  0.5143 -1.0050 -0.8686
14324SOL     OW45622   2.710   4.023   1.284  0.6303  0.1009  0.2385
14324SOL    HW145623   2.789   3.997   1.229 -0.3238  0.3869 -1.2890
14324SOL    HW245624   2.713   3.973   1.371  1.4425 -1.3784 -0.6056
14325SOL     OW45625   2.515   1.993   1.248 -0.0440 -0.1123  0.3852
14325SOL    HW145626   2.570   1.911   1.232 -1.1630 -0.8569  0.3444
14325SOL    HW245627   2.574   2.065   1.286  1.0487 -0.7559 -0.0513
14326SOL     OW45628   1.998   9.502   4.769 -0.2188 -0.1027  0.3262
14326SOL    HW145629   2.059   9.506   4.690 -0.7196 -1.0720 -0.1229
14326SOL    HW245630   2.019   9.420   4.823  0.5782  0.9061  1.5839
14327SOL     OW45631   0.918   2.692   6.255  0.4396  0.6176 -0.3346
14327SOL    HW145632   0.859   2.724   6.330 -2.1404 -0.5134 -1.8102
14327SOL    HW245633   0.863   2.681   6.172  2.1046 -3.2797 -1.0316
14328SOL     OW45634   0.261   0.728   5.575  0.3783  0.1448  0.0261
14328SOL    HW145635   0.236   0.761   5.666  0.7455 -2.2001  1.0181
14328SOL    HW245636   0.252   0.802   5.509 -2.7297  1.1214  1.4602
14329SOL     OW45637   8.003   5.254   0.865  0.0632 -0.6557 -0.1774
14329SOL    HW145638   7.904   5.269   0.868 -0.2452 -2.6351  0.4874
14329SOL    HW245639   8.031   5.206   0.948  1.5232 -0.4604 -0.5520
14330SOL     OW45640   8.297   6.638   2.972 -0.4669  0.2793  0.1691
14330SOL    HW145641   8.302   6.736   2.993 -1.2752  0.4764 -0.5266
14330SOL    HW245642   8.382   6.610   2.928 -0.0463  0.5661  0.7955
14331SOL     OW45643   9.280   5.844   5.212  0.7576  0.1398 -0.4107
14331SOL    HW145644   9.349   5.801   5.154  1.1070 -0.2797  0.3180
14331SOL    HW245645   9.195   5.791   5.207  0.3707  0.8718 -1.6067
14332SOL     OW45646   0.369   5.958   1.846  0.1259 -0.6439 -0.0937
14332SOL    HW145647   0.271   5.978   1.839  0.4975  0.3039 -4.0829
14332SOL    HW245648   0.410   6.017   1.915 -2.1866 -1.4680  2.0436
14333SOL     OW45649   0.435   0.785   3.502 -0.1180  0.7208 -0.3403
14333SOL    HW145650   0.360   0.739   3.548 -0.2784  0.0685 -1.2559
14333SOL    HW245651   0.522   0.752   3.539 -0.2621  0.9210  0.1823
14334SOL     OW45652   5.105   7.741   5.629  0.1550 -0.3018 -0.3891
14334SOL    HW145653   5.177   7.787   5.577  0.5308 -3.4651 -2.8587
14334SOL    HW245654   5.023   7.732   5.572 -0.5743 -0.9536  0.7336
14335SOL     OW45655   0.660   2.493   3.769 -0.2874 -0.4663  0.4454
14335SOL    HW145656   0.709   2.542   3.697 -1.6769 -0.1030 -0.2668
14335SOL    HW245657   0.724   2.468   3.842  0.7413  1.0540  0.0920
14336SOL     OW45658   1.501   6.683   2.944  0.1047  0.4299 -0.0084
14336SOL    HW145659   1.565   6.745   2.989 -0.3825  0.9376 -0.0050
14336SOL    HW245660   1.545   6.643   2.864  0.5028  0.6092  0.1178
14337SOL     OW45661   4.177   9.969   4.821  0.6855 -0.0586  0.3639
14337SOL    HW145662   4.144   9.884   4.862  1.9514 -0.6332  0.2061
14337SOL    HW245663   4.275   9.963   4.805  0.5221  0.8432 -1.0988
14341SOL     OW45664   3.405   8.048   2.349  0.1155  0.0504 -0.4829
14341SOL    HW145665   3.358   8.134   2.370 -0.2006  0.0878 -1.3273
14341SOL    HW245666   3.489   8.067   2.298  0.1204 -0.1325 -0.5426
14342SOL     OW45667   3.336   2.207   3.443 -0.0572  0.4889 -0.3426
14342SOL    HW145668   3.430   2.214   3.412 -0.2808 -1.3115 -1.5392
14342SOL    HW245669   3.314   2.111   3.461 -2.4745  0.5158 -2.8226
14343SOL     OW45670   8.039   4.377   2.610 -0.1438 -0.0738  0.1052
14343SOL    HW145671   8.039   4.352   2.707 -0.3818  0.2213  0.1838
14343SOL    HW245672   8.117   4.335   2.565  0.9923  1.2551  0.8177
14344SOL     OW45673   1.987   0.930   6.273 -0.0706  0.2549 -0.4252
14344SOL    HW145674   1.955   1.024   6.282  1.2394  0.5237  1.7040
14344SOL    HW245675   1.938   0.872   6.338  0.3338 -0.2380 -0.5579
14347SOL     OW45676   8.653   3.540   6.115  0.0638 -0.1700  0.5714
14347SOL    HW145677   8.613   3.560   6.026 -1.5146  1.4762  1.6313
14347SOL    HW245678   8.584   3.499   6.175  0.2283  1.6806  2.0613
14348SOL     OW45679   8.579   9.596   0.730 -0.3412 -0.0572  0.3740
14348SOL    HW145680   8.660   9.561   0.682  0.7901  0.1169  2.0991
14348SOL    HW245681   8.511   9.627   0.664  0.5137 -1.3254 -1.1149
14349SOL     OW45682   0.799   0.683   6.369 -0.1075 -0.3900  0.8785
14349SOL    HW145683   0.772   0.776   6.394 -0.5029  0.1928 -1.5817
14349SOL    HW245684   0.896   0.670   6.389  0.2845  1.0176 -0.0015
14350SOL     OW45685   1.539   0.194   2.779 -0.4477 -0.0328  0.4730
14350SOL    HW145686   1.574   0.272   2.831  0.0731 -0.0977  0.2220
14350SOL    HW245687   1.458   0.222   2.727 -1.2307 -0.0760  1.6463
14351SOL     OW45688   8.787   6.475   0.048 -0.7071 -0.0137  0.7136
14351SOL    HW145689   8.721   6.505   0.116 -1.3506  2.1363 -0.8126
14351SOL    HW245690   8.862   6.541   0.043 -0.6808 -0.1395 -0.6650
14352SOL     OW45691   0.557   2.792   6.129 -0.5154 -0.0267 -0.4069
14352SOL    HW145692   0.516   2.871   6.083  1.5303  1.6454  0.5559
14352SOL    HW245693   0.533   2.793   6.226  2.6120  1.6089  0.4072
14355SOL     OW45694   9.304   6.393   3.953 -0.4024 -0.7843  1.1827
14355SOL    HW145695   9.298   6.483   3.996  0.7064 -0.0334 -0.1897
14355SOL    HW245696   9.261   6.325   4.012 -2.5282  0.8662  1.5963
14357SOL     OW45697   8.041   8.561   5.455  0.2332  0.0827  0.4363
14357SOL    HW145698   8.063   8.635   5.519  0.3212  1.0382 -0.6840
14357SOL    HW245699   8.032   8.475   5.505 -0.5341  0.9680  1.8491
14358SOL     OW45700   9.613   3.128   4.641  0.4667 -0.0613 -0.3364
14358SOL    HW145701   9.628   3.030   4.625  0.7063 -0.1508  0.4373
14358SOL    HW245702   9.606   3.145   4.739 -0.1164  0.6211 -0.4924
14359SOL     OW45703   1.406   9.783   3.335 -0.2699  0.1436  0.0160
14359SOL    HW145704   1.455   9.866   3.307 -1.4126  1.0737  0.7513
14359SOL    HW245705   1.389   9.786   3.433 -0.9942 -0.5981 -0.0811
14360SOL     OW45706   1.525   3.775   2.369  0.3640  0.4024  0.3000
14360SOL    HW145707   1.531   3.741   2.276  1.5946  0.1496  0.4620
14360SOL    HW245708   1.549   3.702   2.433 -0.1367  0.6702  0.7975
14363SOL     OW45709   9.031   5.694   5.165 -0.3529 -0.6196 -0.0899
14363SOL    HW145710   9.012   5.605   5.205 -0.4280 -0.6052 -0.0951
14363SOL    HW245711   8.951   5.728   5.116 -0.8968  0.2097  1.3459
14364SOL     OW45712   0.496   6.922   6.380  0.1484  0.0354 -0.0254
14364SOL    HW145713   0.537   7.012   6.396  0.1313 -0.1230  0.9458
14364SOL    HW245714   0.416   6.911   6.439 -0.4156 -0.2441 -0.8352
14365SOL     OW45715   3.127   1.391   5.977 -0.4173 -0.0195 -0.0020
14365SOL    HW145716   3.190   1.350   6.044 -1.7987  1.2485  2.1100
14365SOL    HW245717   3.075   1.464   6.021 -1.2658  0.9219 -2.5268
14367SOL     OW45718   9.809   1.598   4.884  0.2178 -0.3145  0.2205
14367SOL    HW145719   9.840   1.584   4.789 -1.0915  1.6605 -0.5281
14367SOL    HW245720   9.885   1.634   4.938  0.6352 -0.2819 -0.3742
14369SOL     OW45721   1.374   2.206   0.416  0.2004  0.0878  0.8848
14369SOL    HW145722   1.368   2.223   0.318  1.2963 -0.5442  0.7043
14369SOL    HW245723   1.282   2.203   0.455 -0.1767  2.0969  0.1903
14370SOL     OW45724   4.997   9.026   3.002  0.8062  0.1989 -0.5831
14370SOL    HW145725   5.037   9.066   3.084  0.3862  0.7276 -0.6349
14370SOL    HW245726   5.066   8.970   2.955  0.8195 -0.7307  0.5377
14371SOL     OW45727   7.255   2.618   4.110 -0.2871  0.4480 -0.2322
14371SOL    HW145728   7.280   2.591   4.018 -0.4019 -0.0970 -0.1035
14371SOL    HW245729   7.155   2.625   4.118 -0.3411 -0.7947  0.2086
14372SOL     OW45730   4.418   5.990   3.043  0.1009 -0.3196 -0.9875
14372SOL    HW145731   4.383   5.960   2.954 -0.1004  1.3014 -1.4533
14372SOL    HW245732   4.395   5.921   3.112  1.0571 -2.0397 -2.3316
14373SOL     OW45733   8.172   8.104   2.121  0.0546 -0.5540 -0.3609
14373SOL    HW145734   8.133   8.196   2.113 -2.1248 -1.4440 -0.3971
14373SOL    HW245735   8.177   8.061   2.031  0.1414 -0.8265 -0.2286
14376SOL     OW45736   9.989   1.724   3.687 -0.5624 -0.2177 -0.4279
14376SOL    HW145737  10.070   1.782   3.675 -0.0653 -0.5119  1.3292
14376SOL    HW245738   9.981   1.698   3.784 -1.6341 -1.8369 -0.9383
14377SOL     OW45739   1.965   3.583   2.543  0.0424  0.1210 -0.0133
14377SOL    HW145740   1.874   3.623   2.536  0.1125  0.4824  1.1026
14377SOL    HW245741   1.970   3.524   2.624  1.2152  1.2139  0.7313
14379SOL     OW45742   4.087   3.805   0.568  0.0408  0.3371  0.2904
14379SOL    HW145743   4.045   3.827   0.480 -0.4763  0.8033  0.6525
14379SOL    HW245744   4.029   3.739   0.617  1.9996 -2.6011 -1.1606
14380SOL     OW45745   8.120   6.596   0.718  0.1574  0.1266 -0.3917
14380SOL    HW145746   8.205   6.564   0.760  0.1207 -0.4679 -0.7664
14380SOL    HW245747   8.123   6.696   0.710  0.0310  0.2803  1.2979
14381SOL     OW45748   2.902   4.265   2.874 -0.2420 -1.0347  0.8289
14381SOL    HW145749   2.871   4.333   2.808 -0.0273 -0.0190  1.7651
14381SOL    HW245750   2.854   4.277   2.960  0.7334 -1.2353  1.4094
14382SOL     OW45751   8.512   3.765   1.387  1.1611 -0.4655 -0.0445
14382SOL    HW145752   8.606   3.797   1.377  1.0916  0.2595  1.4812
14382SOL    HW245753   8.459   3.832   1.439 -0.5223 -0.2920 -1.8832
14383SOL     OW45754   8.571   8.985   5.349 -0.3075 -0.3578 -0.1745
14383SOL    HW145755   8.517   9.028   5.277  1.2601 -0.1342 -1.2623
14383SOL    HW245756   8.620   8.907   5.311  0.7077 -0.1086  0.5934
14384SOL     OW45757   9.825   3.349   2.726  0.0584 -0.0532  0.4817
14384SOL    HW145758   9.818   3.323   2.823 -2.0439  1.9503  0.8969
14384SOL    HW245759   9.776   3.281   2.670  0.6860 -0.8343  0.8633
14385SOL     OW45760   4.490   9.385   3.536 -0.8807  0.3118 -0.1172
14385SOL    HW145761   4.483   9.396   3.437 -1.3133 -0.5660 -0.1951
14385SOL    HW245762   4.587   9.383   3.562 -0.7783  3.2652 -0.1783
14386SOL     OW45763   1.581   8.341   1.227 -0.5538  0.3471 -0.1724
14386SOL    HW145764   1.598   8.270   1.159 -1.9603 -0.5568  0.4032
14386SOL    HW245765   1.663   8.353   1.284  0.4557  0.7535 -1.6668
14387SOL     OW45766   8.448   3.899   0.305 -0.3030  0.0864 -0.5331
14387SOL    HW145767   8.516   3.864   0.370 -0.8165 -0.6217 -0.3680
14387SOL    HW245768   8.409   3.823   0.254 -1.8493  0.3581  0.2303
14388SOL     OW45769   6.403   4.879   0.427  0.4766 -0.2529  0.6765
14388SOL    HW145770   6.360   4.879   0.336  0.8747  1.4419  0.4693
14388SOL    HW245771   6.463   4.799   0.435  0.2808 -0.5284 -0.4803
14389SOL     OW45772   2.067   1.976   5.535 -0.0170 -0.0633  0.1951
14389SOL    HW145773   2.013   2.048   5.580  1.2038  0.3065  1.1197
14389SOL    HW245774   2.032   1.887   5.562  0.1568  0.1695  1.2233
14392SOL     OW45775   4.039   5.588   1.395 -0.1977 -0.8238  0.1360
14392SOL    HW145776   3.966   5.603   1.329  2.1070  0.1146 -2.2592
14392SOL    HW245777   4.084   5.675   1.416 -0.6952 -1.1514  2.7348
14394SOL     OW45778   4.195   7.094   5.217  0.4053 -0.5473 -0.1769
14394SOL    HW145779   4.245   7.007   5.221  0.1696 -0.6392  0.9487
14394SOL    HW245780   4.116   7.090   5.278  1.4082  1.0771  1.2603
14395SOL     OW45781   8.725   7.200   3.319 -0.3322  0.3500  0.3914
14395SOL    HW145782   8.664   7.264   3.365  0.8738  0.7303  1.5082
14395SOL    HW245783   8.708   7.202   3.220  0.0129  2.7807  0.3537
14396SOL     OW45784   2.804   3.112   1.492 -0.0709  0.0469  0.3221
14396SOL    HW145785   2.893   3.157   1.495  0.9355 -1.8834  0.5703
14396SOL    HW245786   2.745   3.157   1.425  1.7655  0.1855 -1.2436
14397SOL     OW45787   9.063   5.504   0.785  0.0695 -0.2212  0.3116
14397SOL    HW145788   9.038   5.600   0.797 -1.3960 -0.6373  0.6343
14397SOL    HW245789   9.036   5.452   0.866 -0.5909 -1.1887 -0.5156
14398SOL     OW45790   7.488   0.027   5.661 -0.2186 -0.1094 -0.0551
14398SOL    HW145791   7.454   0.089   5.590 -0.0849 -0.3560 -0.3381
14398SOL    HW245792   7.559  -0.032   5.622 -1.6878 -1.7579 -0.3218
14399SOL     OW45793   4.640   1.800   1.017 -0.5729  0.0493 -0.1504
14399SOL    HW145794   4.556   1.854   1.015  0.4977  1.7272 -0.4490
14399SOL    HW245795   4.664   1.772   0.924 -1.6003 -1.7341  0.0912
14400SOL     OW45796   5.531   2.504   0.686  0.4972 -0.2425 -0.0177
14400SOL    HW145797   5.501   2.552   0.769 -0.5119 -1.4881  0.3580
14400SOL    HW245798   5.452   2.462   0.642  1.3852 -1.6675 -0.2690
14401SOL     OW45799   5.886   9.150   6.434  0.2136  0.0249  0.0897
14401SOL    HW145800   5.881   9.064   6.383  0.3632 -0.3286  0.6759
14401SOL    HW245801   5.794   9.182   6.456  0.0356  1.2290 -2.1582
14402SOL     OW45802   3.814   4.154   3.022 -0.2867 -0.3125 -0.0517
14402SOL    HW145803   3.859   4.230   2.974  2.0421 -0.2034  2.1572
14402SOL    HW245804   3.723   4.182   3.051  0.6454  1.7671  0.9738
14403SOL     OW45805   7.618   7.580   3.321  0.0416  0.4415  0.2581
14403SOL    HW145806   7.709   7.557   3.286  0.4253  1.6886  0.4164
14403SOL    HW245807   7.561   7.613   3.246 -0.1742  0.0073  0.2274
14404SOL     OW45808   3.360   1.621   3.717  0.3823  0.5123  0.0135
14404SOL    HW145809   3.342   1.530   3.681 -1.0166  0.5531  0.5707
14404SOL    HW245810   3.453   1.649   3.693  0.1767 -0.2855 -1.7745
14405SOL     OW45811   6.641   9.095   2.498  0.1509 -0.0797  0.2242
14405SOL    HW145812   6.628   9.191   2.522 -1.0281 -0.2502  0.3064
14405SOL    HW245813   6.736   9.069   2.515  0.6730  1.2693 -0.5071
14406SOL     OW45814   4.679   8.011   1.202 -0.0397 -0.4893 -0.0851
14406SOL    HW145815   4.675   7.919   1.242  1.2907 -0.1775  0.8363
14406SOL    HW245816   4.651   8.078   1.270 -0.9933 -0.2074 -0.7530
14408SOL     OW45817   0.216   2.512   0.792 -0.2453  0.2341  0.3971
14408SOL    HW145818   0.247   2.605   0.773  0.1111  0.3080  1.3177
14408SOL    HW245819   0.281   2.467   0.853 -0.4251 -0.6145 -0.0292
14409SOL     OW45820   4.358   1.934   2.129 -0.1110 -0.1925 -0.2519
14409SOL    HW145821   4.263   1.904   2.121 -0.5929  0.4322  2.7103
14409SOL    HW245822   4.418   1.854   2.137 -0.2124 -0.6298 -3.1344
14411SOL     OW45823   6.927   5.931   5.912  0.0468 -0.1464 -0.4742
14411SOL    HW145824   6.970   5.870   5.979  0.0089 -0.8205 -1.0470
14411SOL    HW245825   6.828   5.934   5.927  0.1075  0.1602 -0.1391
14412SOL     OW45826   5.143   6.471   2.469 -0.8110 -0.0194  0.3380
14412SOL    HW145827   5.142   6.455   2.370 -1.3456  0.1758  0.3120
14412SOL    HW245828   5.089   6.552   2.490 -0.2323  0.2706  0.7350
14413SOL     OW45829   3.464   2.440   0.971  0.0785  0.0880  0.6256
14413SOL    HW145830   3.463   2.479   1.063  2.6649 -2.5891  1.8832
14413SOL    HW245831   3.416   2.353   0.971  0.5734 -0.1902 -0.4291
14414SOL     OW45832   3.898   4.221   0.882  0.5976 -0.3487  0.2596
14414SOL    HW145833   3.842   4.303   0.898  0.2713 -0.9622  2.4642
14414SOL    HW245834   3.994   4.241   0.902  0.9221  0.1931 -1.7364
14415SOL     OW45835   4.454   8.941   3.144 -0.4787  0.5916  0.2079
14415SOL    HW145836   4.387   9.007   3.180  0.7358  3.2722 -2.1771
14415SOL    HW245837   4.544   8.985   3.139  0.4964 -1.4652 -0.8589
14416SOL     OW45838   0.886   6.693   1.667 -0.2764 -0.5335 -0.2287
14416SOL    HW145839   0.886   6.737   1.577  3.7438  0.0109 -0.0716
14416SOL    HW245840   0.879   6.762   1.739  1.3853 -0.5095 -0.0700
14417SOL     OW45841   4.020   1.855   1.200 -0.3827 -0.0836  0.2852
14417SOL    HW145842   3.925   1.843   1.171  0.0073 -3.9435  0.3549
14417SOL    HW245843   4.038   1.800   1.282  2.4504 -1.1975 -1.0007
14418SOL     OW45844   1.093   9.149   4.994 -0.3408 -0.2828 -0.4122
14418SOL    HW145845   1.075   9.218   5.064  2.4944 -1.5145  1.6215
14418SOL    HW245846   1.010   9.094   4.981 -1.5486  1.2727  0.4728
14419SOL     OW45847   1.587   0.693   1.945 -0.3552  0.1733 -0.7393
14419SOL    HW145848   1.525   0.616   1.959 -0.3822  0.9691  4.2248
14419SOL    HW245849   1.541   0.779   1.969  1.9972  0.9590  1.1294
14420SOL     OW45850   4.152   5.316   1.758 -0.1047 -0.2669 -0.0750
14420SOL    HW145851   4.171   5.319   1.856 -0.6315  2.3274 -0.0001
14420SOL    HW245852   4.230   5.352   1.708  0.2554 -1.8121 -0.6395
14421SOL     OW45853   3.191   8.279   3.784 -0.3746  0.4005 -0.0829
14421SOL    HW145854   3.267   8.281   3.719  0.3317 -0.5467  0.7113
14421SOL    HW245855   3.107   8.254   3.735  0.4171 -1.7600 -0.3975
14422SOL     OW45856   0.545   2.337   2.877 -0.4012  0.0387  0.7111
14422SOL    HW145857   0.575   2.256   2.927 -1.2016 -0.1634  0.8828
14422SOL    HW245858   0.576   2.331   2.782  1.4344  0.5985  1.2553
14424SOL     OW45859   1.638   0.904   1.263 -0.5060 -0.4106  0.2773
14424SOL    HW145860   1.672   0.932   1.173  0.9071  1.1896  1.2790
14424SOL    HW245861   1.658   0.976   1.330  0.0748 -2.3431  2.2239
14425SOL     OW45862   0.304   4.419   5.210  0.3164  0.1441 -0.3105
14425SOL    HW145863   0.369   4.370   5.152  0.3649  0.8721 -0.8718
14425SOL    HW245864   0.313   4.387   5.305 -1.2926 -2.6744 -1.0368
14426SOL     OW45865   3.008   4.511   1.367  0.2607  0.1484  0.1868
14426SOL    HW145866   3.019   4.590   1.426 -1.1631  0.7800 -0.3748
14426SOL    HW245867   3.014   4.427   1.421 -0.8298  0.7177  1.2003
14427SOL     OW45868   8.785   1.889   1.562  0.1563  0.2805 -0.3054
14427SOL    HW145869   8.788   1.818   1.491 -0.2446 -0.7212  0.6700
14427SOL    HW245870   8.879   1.913   1.588  0.2873 -0.6895  0.1456
14428SOL     OW45871   2.621   1.855   3.124 -0.3692 -0.1447 -0.3010
14428SOL    HW145872   2.712   1.821   3.150  0.6741  2.7854  0.0936
14428SOL    HW245873   2.631   1.925   3.054 -2.3056  0.6752  0.2087
14429SOL     OW45874   2.715   5.201   5.353  0.9296  0.0083 -0.5961
14429SOL    HW145875   2.795   5.218   5.410  0.5548  0.9114 -0.3222
14429SOL    HW245876   2.649   5.275   5.366 -0.6453 -1.5556  0.4188
14430SOL     OW45877   0.433   1.438   6.196  0.4798  0.1041  0.0336
14430SOL    HW145878   0.522   1.425   6.239  0.9120  2.9302  0.1301
14430SOL    HW245879   0.442   1.503   6.120 -1.5212  0.5575  0.1503
14431SOL     OW45880   4.868   2.600   5.315  0.2007  0.0031 -0.1096
14431SOL    HW145881   4.902   2.542   5.241  0.3433  2.2991 -1.9117
14431SOL    HW245882   4.945   2.649   5.357 -0.2618  1.5505 -0.9937
14433SOL     OW45883   3.231   9.652   3.461 -0.5842 -0.2354 -0.0586
14433SOL    HW145884   3.208   9.578   3.523  1.0821 -0.4063  0.3718
14433SOL    HW245885   3.271   9.614   3.377  1.6073  0.2117  0.7496
14436SOL     OW45886   9.100   9.553   0.718  0.1435  0.2006  0.3088
14436SOL    HW145887   9.129   9.589   0.629 -0.9878 -0.7437 -0.4348
14436SOL    HW245888   9.156   9.474   0.742  0.8875  0.8469  0.7581
14437SOL     OW45889   1.148   8.333   6.384 -0.1298  0.3762  0.1694
14437SOL    HW145890   1.054   8.323   6.416  0.4013  0.2464  1.7290
14437SOL    HW245891   1.211   8.300   6.455  1.0417 -0.9002 -1.4480
14438SOL     OW45892   8.689   7.274   4.948  0.1788 -0.1325  0.2855
14438SOL    HW145893   8.686   7.322   5.036 -0.6259 -2.0595  1.3473
14438SOL    HW245894   8.753   7.198   4.954 -0.0333 -0.3957 -0.7288
14439SOL     OW45895   3.216   7.716   5.185  0.4717  0.5710 -0.1106
14439SOL    HW145896   3.186   7.786   5.120  0.0727  1.3324  0.8798
14439SOL    HW245897   3.171   7.731   5.273 -1.0051 -1.9796 -0.3629
14440SOL     OW45898   2.738   9.647   4.335  0.2624  0.0009 -0.2920
14440SOL    HW145899   2.797   9.568   4.315 -1.2299 -1.2151  0.0333
14440SOL    HW245900   2.737   9.664   4.433 -1.3397 -1.1157 -0.1024
14441SOL     OW45901   8.329   1.674   2.628  0.3222  0.1014  0.4941
14441SOL    HW145902   8.404   1.633   2.680  0.2710  0.3317  0.7488
14441SOL    HW245903   8.249   1.614   2.632  0.7088 -0.4905 -0.3731
14442SOL     OW45904   2.276   4.723   1.596  0.0831 -0.4833  0.1718
14442SOL    HW145905   2.296   4.634   1.554 -0.8633 -0.0574 -1.2340
14442SOL    HW245906   2.196   4.713   1.656 -0.6516 -0.3666 -0.7815
14443SOL     OW45907   0.780   7.637   4.655 -0.6316 -0.5215  0.3983
14443SOL    HW145908   0.710   7.698   4.692 -0.0487  0.2598  0.2326
14443SOL    HW245909   0.753   7.608   4.563 -0.5365  0.1220  0.1622
14444SOL     OW45910   8.782   3.033   0.374  0.8868 -0.4491 -0.7122
14444SOL    HW145911   8.699   2.977   0.376  1.0639 -0.7138 -0.8559
14444SOL    HW245912   8.810   3.054   0.468  1.8908 -2.1740 -0.5958
14445SOL     OW45913   4.756   2.316   0.273  0.0216  0.6028 -0.0460
14445SOL    HW145914   4.849   2.354   0.270  0.8098 -1.2396  0.6410
14445SOL    HW245915   4.743   2.253   0.197 -0.7346  0.9694 -0.2284
14446SOL     OW45916   8.211   2.307   1.707  0.2949 -0.7463  0.1547
14446SOL    HW145917   8.115   2.279   1.706  0.4721 -1.3409 -0.3097
14446SOL    HW245918   8.248   2.305   1.614  0.4291  0.6361  0.1635
14448SOL     OW45919   1.006   6.067   2.380  0.1437  0.0003 -0.8929
14448SOL    HW145920   1.010   5.968   2.398 -3.5627  0.1230  1.1889
14448SOL    HW245921   0.969   6.083   2.288  0.5793 -0.5523 -1.1657
14449SOL     OW45922   8.963   6.748   1.233  0.0335 -0.1201  0.6990
14449SOL    HW145923   8.882   6.696   1.260 -0.3340 -0.6207 -1.2657
14449SOL    HW245924   8.942   6.803   1.152  0.7724  2.1727  2.0156
14450SOL     OW45925   3.028   1.051   5.856  0.0255 -0.1620 -0.1586
14450SOL    HW145926   2.931   1.075   5.860 -0.1922 -1.1485  0.7414
14450SOL    HW245927   3.073   1.078   5.942  0.7883  1.2931 -1.0034
14451SOL     OW45928   8.164   0.023   1.417  0.2541  0.6751  0.1492
14451SOL    HW145929   8.252   0.053   1.381  0.1745  0.3753 -0.3002
14451SOL    HW245930   8.091   0.051   1.355  0.1728 -0.3921 -0.2537
14452SOL     OW45931   6.364   0.857   0.453 -0.1482  0.1155 -0.2443
14452SOL    HW145932   6.331   0.913   0.529  0.1176  0.3203 -0.2769
14452SOL    HW245933   6.460   0.832   0.470 -0.9297 -2.2308  0.8623
14454SOL     OW45934   3.406   4.286   3.934  0.0725 -0.7072  0.1001
14454SOL    HW145935   3.437   4.217   3.868 -0.5110 -0.0098 -0.8965
14454SOL    HW245936   3.319   4.257   3.974 -0.5152 -0.2186 -0.8235
14456SOL     OW45937   1.496   1.566   5.434  0.2524  0.6244  0.7526
14456SOL    HW145938   1.562   1.629   5.474  0.4715  1.1718 -0.4509
14456SOL    HW245939   1.433   1.616   5.374  1.3238 -0.4644 -1.3589
14457SOL     OW45940   4.054   8.028   4.234  0.4870 -0.0948 -0.3335
14457SOL    HW145941   4.072   7.999   4.328 -0.6554  2.0090  0.5858
14457SOL    HW245942   4.097   8.117   4.218  0.2136 -0.1821 -1.6305
14458SOL     OW45943   2.210   9.811   3.853 -0.0882  0.3229 -0.1221
14458SOL    HW145944   2.229   9.717   3.824  1.0266  0.5742 -0.2179
14458SOL    HW245945   2.167   9.860   3.777 -1.3074 -0.2965  0.1529
14459SOL     OW45946   2.210   5.438   6.142 -0.0423 -0.1262  0.7341
14459SOL    HW145947   2.110   5.441   6.148 -0.0706 -0.9227  0.7712
14459SOL    HW245948   2.249   5.507   6.203 -0.5956  1.7313 -0.9844
14460SOL     OW45949   9.232   9.685   1.482  0.2547 -0.1475 -0.4678
14460SOL    HW145950   9.139   9.674   1.447  0.2275 -2.8844  0.3816
14460SOL    HW245951   9.242   9.632   1.567  2.1664  1.2912  0.2386
14461SOL     OW45952   5.552   3.032   0.602  0.5970 -0.0863  0.2541
14461SOL    HW145953   5.491   3.084   0.662  2.7652  1.1775  1.4037
14461SOL    HW245954   5.626   2.992   0.656  2.1163  0.3687 -1.4395
14462SOL     OW45955   3.398   4.143   2.805  0.4117  0.4200  0.3717
14462SOL    HW145956   3.315   4.199   2.805  0.2347  0.1585  0.4056
14462SOL    HW245957   3.465   4.182   2.742  0.4268  0.8715  0.6646
14463SOL     OW45958   8.488   7.744   5.816 -0.5072  0.6250 -0.1568
14463SOL    HW145959   8.539   7.769   5.734 -0.0607 -1.1251 -0.4364
14463SOL    HW245960   8.398   7.709   5.790 -0.0921 -0.6141  0.0437
14464SOL     OW45961   2.665   6.464   5.053 -0.1120 -0.0259  0.4729
14464SOL    HW145962   2.667   6.366   5.075 -0.9003 -0.0221  0.5892
14464SOL    HW245963   2.614   6.512   5.123 -3.6435 -0.1679 -1.8629
14465SOL     OW45964   4.001   3.835   5.356  0.4386 -0.2327  0.2123
14465SOL    HW145965   3.904   3.817   5.372  0.3273 -0.0089 -0.2037
14465SOL    HW245966   4.029   3.797   5.268  0.9939 -1.2462  0.8134
14467SOL     OW45967   8.946   3.203   4.554 -0.0785  0.1723  0.2859
14467SOL    HW145968   8.989   3.150   4.628  1.9835  1.9183  0.3869
14467SOL    HW245969   8.867   3.252   4.590  0.8828  0.9690  1.3701
14468SOL     OW45970   1.555   9.725   2.921  0.5788  0.0364  0.2182
14468SOL    HW145971   1.472   9.669   2.915  0.8160 -0.4335  1.2657
14468SOL    HW245972   1.630   9.678   2.876  0.6444 -0.2281  0.6078
14469SOL     OW45973   8.277   6.333   6.174 -0.2089 -0.1899  0.4260
14469SOL    HW145974   8.263   6.431   6.190 -1.1077  0.2581 -2.7184
14469SOL    HW245975   8.375   6.314   6.165 -0.1783  1.0504 -2.3056
14470SOL     OW45976   0.016   5.812   0.198  0.0737 -0.1752 -0.3672
14470SOL    HW145977  -0.076   5.849   0.184  0.3729  1.1873  1.1509
14470SOL    HW245978   0.077   5.846   0.126 -0.3610 -0.2076 -0.7528
14471SOL     OW45979   8.258   3.123   2.730  0.3419  0.0776  0.4516
14471SOL    HW145980   8.314   3.042   2.713  0.1050  0.2108 -1.0475
14471SOL    HW245981   8.190   3.102   2.801  2.7421  0.1484  2.8289
14472SOL     OW45982   4.143   5.909   3.781  0.9202 -0.0252 -0.1686
14472SOL    HW145983   4.053   5.940   3.749  1.2479 -0.4116 -1.4868
14472SOL    HW245984   4.207   5.985   3.779  1.2998 -0.3690 -1.8167
14473SOL     OW45985   5.549   9.525   3.977  0.2719  0.2529  0.4508
14473SOL    HW145986   5.516   9.430   3.975  0.5250  0.1654  0.4241
14473SOL    HW245987   5.592   9.547   3.890  0.7330  0.2068  0.6660
14474SOL     OW45988   1.517   4.694   2.833 -0.4677  0.2128 -0.0278
14474SOL    HW145989   1.436   4.651   2.794 -1.3169  0.3605  1.5362
14474SOL    HW245990   1.547   4.643   2.913  0.0289  1.0787  0.3505
14475SOL     OW45991   6.429   8.358   5.863  0.1574  0.4212 -0.0133
14475SOL    HW145992   6.455   8.263   5.881  1.6918  1.1148  1.5871
14475SOL    HW245993   6.331   8.363   5.846  0.1111 -1.4955 -0.4059
14476SOL     OW45994   4.934   1.896   0.815  0.0644  0.1877 -0.2072
14476SOL    HW145995   5.009   1.869   0.875  0.5318  0.0499 -0.8519
14476SOL    HW245996   4.907   1.990   0.836 -1.2960 -0.6057  1.7722
14477SOL     OW45997   1.235   4.205   3.939 -0.1967 -0.3879  0.4806
14477SOL    HW145998   1.215   4.285   3.882  0.4785  2.1110  3.5447
14477SOL    HW245999   1.333   4.185   3.935 -0.5270 -1.7306 -1.0863
14478SOL     OW46000   9.934   8.055   1.123 -0.0467 -0.2984  0.6451
14478SOL    HW146001   9.922   7.962   1.159  1.3025 -0.4755  0.6339
14478SOL    HW246002   9.886   8.061   1.035  1.2995 -1.5288 -0.2122
14479SOL     OW46003   3.135   5.379   0.999  0.2154 -0.0293  0.1469
14479SOL    HW146004   3.054   5.334   0.960  1.1223 -0.6876 -0.9904
14479SOL    HW246005   3.204   5.310   1.022  1.3543  0.7177 -0.9891
14480SOL     OW46006   0.859   9.798   1.391  0.0573 -0.3393  0.4065
14480SOL    HW146007   0.852   9.716   1.449 -2.3498  1.0170  2.1032
14480SOL    HW246008   0.933   9.856   1.425  0.2829 -0.7399  0.6050
14481SOL     OW46009   9.916   7.604   2.533  0.1034  0.7221  0.1607
14481SOL    HW146010   9.956   7.595   2.624  1.5151  1.4423 -0.3792
14481SOL    HW246011   9.856   7.684   2.530 -1.9187 -0.7165  1.1496
14484SOL     OW46012   6.302   2.322   0.789  0.8604 -0.0290  0.0426
14484SOL    HW146013   6.234   2.281   0.849  2.0668 -2.7079 -0.3471
14484SOL    HW246014   6.392   2.318   0.831  1.6334 -1.4384 -1.6629
14485SOL     OW46015   0.434   3.259   3.090 -0.0080  0.1021  0.7271
14485SOL    HW146016   0.518   3.241   3.140 -0.4431  0.8426  1.7268
14485SOL    HW246017   0.389   3.172   3.068  1.2935 -0.3277 -0.3155
14486SOL     OW46018   2.292   0.089   5.081 -0.0209  0.4332  0.2377
14486SOL    HW146019   2.315   0.029   5.157  0.4948 -1.0234 -1.0376
14486SOL    HW246020   2.193   0.086   5.065  0.1711 -1.1966 -0.7162
14487SOL     OW46021   1.328   9.647   1.177  0.1033 -0.1632 -0.5031
14487SOL    HW146022   1.342   9.588   1.257  1.6506 -0.5947 -1.0674
14487SOL    HW246023   1.260   9.716   1.198  1.0263  0.1781  1.4575
14488SOL     OW46024   3.671   8.547   0.917  0.5444 -0.1132 -0.0183
14488SOL    HW146025   3.580   8.515   0.943  0.2240  0.3133 -0.5849
14488SOL    HW246026   3.679   8.545   0.817  1.5156 -1.1000  0.0827
14489SOL     OW46027   9.628   6.519   3.255 -0.5274  0.3734 -0.2773
14489SOL    HW146028   9.556   6.453   3.276 -1.2893  1.3239  0.1224
14489SOL    HW246029   9.704   6.508   3.319 -0.8091  0.1116  0.0120
14490SOL     OW46030   1.095   7.543   4.299 -0.5022 -0.2624 -0.1090
14490SOL    HW146031   1.177   7.488   4.286  0.4069  1.1803 -0.5442
14490SOL    HW246032   1.090   7.572   4.395 -0.9895 -1.0877  0.1243
14491SOL     OW46033   9.389   7.624   1.604 -0.4907  0.1463 -0.5499
14491SOL    HW146034   9.347   7.547   1.652 -0.2638 -0.2519 -0.9858
14491SOL    HW246035   9.453   7.671   1.666  0.4302 -0.8718 -0.7071
14492SOL     OW46036   7.698   2.616   2.242 -0.3569 -0.4900  0.2517
14492SOL    HW146037   7.639   2.617   2.161  1.3953  0.2747 -1.0695
14492SOL    HW246038   7.712   2.710   2.274 -2.3152 -0.9113  2.4341
14493SOL     OW46039   4.167   4.069   4.141 -0.3656  0.9348  1.0249
14493SOL    HW146040   4.158   3.969   4.147  0.3878  0.8586  0.8616
14493SOL    HW246041   4.261   4.093   4.119 -0.7009  1.6597  0.3601
14494SOL     OW46042   7.519   8.269   3.048  0.2018 -0.0576  0.6481
14494SOL    HW146043   7.507   8.368   3.056  0.4688 -0.1266  2.0660
14494SOL    HW246044   7.598   8.241   3.103 -0.2795 -1.1463  0.7928
14495SOL     OW46045   8.659   9.858   4.654 -0.0341 -0.2815  0.9340
14495SOL    HW146046   8.706   9.816   4.576 -1.3520  0.3255 -0.2097
14495SOL    HW246047   8.704   9.830   4.739  2.0865 -0.0806 -0.0883
14496SOL     OW46048   8.258   8.440   5.085  0.8117  0.3085 -0.0729
14496SOL    HW146049   8.265   8.356   5.138  1.8387 -0.2890 -1.1550
14496SOL    HW246050   8.198   8.504   5.134 -0.2436 -1.1470  0.5988
14497SOL     OW46051   1.558   0.291   2.100 -0.7990  0.6837 -1.2303
14497SOL    HW146052   1.537   0.356   2.173  0.8977 -0.3486  0.2278
14497SOL    HW246053   1.599   0.209   2.140  1.0855  0.5139 -3.4448
14498SOL     OW46054   9.410   9.380   5.539  0.3144  0.7619 -0.2268
14498SOL    HW146055   9.439   9.452   5.602  1.3734  0.2783 -0.1507
14498SOL    HW246056   9.471   9.301   5.548 -1.1277 -0.3265  0.0170
14499SOL     OW46057   1.203   0.053   2.542 -0.7712  0.2239  0.1503
14499SOL    HW146058   1.280   0.016   2.595 -0.3814  0.6897 -0.0851
14499SOL    HW246059   1.125  -0.008   2.550  0.0225 -0.9115 -0.6370
14500SOL     OW46060   1.750   1.026   2.915  0.2563 -0.0983 -0.1042
14500SOL    HW146061   1.762   1.042   2.817  2.0259 -0.6585  0.0059
14500SOL    HW246062   1.728   0.929   2.930 -1.0858  0.2129 -0.0274
14501SOL     OW46063   9.286   5.353   5.096 -0.0973  0.1541  0.1951
14501SOL    HW146064   9.384   5.336   5.085 -0.0550  1.1037 -0.9751
14501SOL    HW246065   9.270   5.452   5.105 -0.9748  0.0233  0.1498
14502SOL     OW46066   6.775   1.394   4.314  0.3460 -0.0515 -0.1503
14502SOL    HW146067   6.768   1.304   4.358  0.5187 -0.4373 -0.9130
14502SOL    HW246068   6.834   1.388   4.234 -1.3976  0.2520 -1.4781
14503SOL     OW46069   3.019   8.774   2.421 -0.0057 -0.0586 -0.2595
14503SOL    HW146070   2.969   8.818   2.495 -0.6234  1.1459 -1.3697
14503SOL    HW246071   2.981   8.683   2.405 -0.2554 -0.0908  0.5007
14505SOL     OW46072   1.573   5.098   5.243 -0.0017  0.3314  0.1190
14505SOL    HW146073   1.672   5.097   5.232  0.0738  1.8987  0.6429
14505SOL    HW246074   1.534   5.172   5.188 -0.8708 -0.1669  0.0532
14506SOL     OW46075   2.472   1.133   5.674 -0.5330  0.1476  0.0834
14506SOL    HW146076   2.523   1.079   5.741  2.1459  2.0375 -0.3338
14506SOL    HW246077   2.389   1.168   5.716  0.4415  0.1952  2.0469
14507SOL     OW46078   0.596   4.005   3.799  0.0278 -0.1254 -0.1701
14507SOL    HW146079   0.521   3.988   3.735  0.8096 -2.0989 -0.6013
14507SOL    HW246080   0.682   3.971   3.760  0.6513 -0.6310  1.5794
14509SOL     OW46081   7.518   8.820   2.570  0.2501  0.4161 -0.6191
14509SOL    HW146082   7.593   8.862   2.621 -0.7705  0.8817  0.5278
14509SOL    HW246083   7.439   8.882   2.570 -0.9035 -1.0273  0.1352
14511SOL     OW46084   4.654   0.446   3.509 -0.9588 -0.4554  0.3488
14511SOL    HW146085   4.710   0.411   3.584 -0.7325 -0.2921  0.2553
14511SOL    HW246086   4.629   0.371   3.448 -0.0724 -0.3800 -0.1162
14513SOL     OW46087   7.393   4.218   5.890  0.0474  0.5982  0.5963
14513SOL    HW146088   7.449   4.138   5.909 -0.4409  0.5262  1.7497
14513SOL    HW246089   7.311   4.216   5.947 -1.2664  0.5725 -1.2569
14514SOL     OW46090   6.683   7.922   4.961 -0.3861  0.3099  0.6787
14514SOL    HW146091   6.767   7.961   4.999  0.2527 -0.7691  0.3932
14514SOL    HW246092   6.702   7.883   4.871 -1.3765  0.7640  0.2658
14515SOL     OW46093   0.006   4.989   3.185 -0.3564  1.2099 -0.3192
14515SOL    HW146094  -0.060   4.933   3.136  2.2519 -0.8070 -1.6905
14515SOL    HW246095   0.006   4.964   3.282  0.3205 -0.7801 -0.8007
14516SOL     OW46096   0.859   2.864   2.729 -0.1039  0.2638  0.1322
14516SOL    HW146097   0.786   2.799   2.751 -0.6636 -0.0806 -2.4845
14516SOL    HW246098   0.945   2.815   2.719  0.2091  0.4598  1.7265
14517SOL     OW46099   2.583   0.963   3.775  0.0323  0.0278  0.8639
14517SOL    HW146100   2.565   1.051   3.730 -0.5464 -0.9801 -0.9124
14517SOL    HW246101   2.664   0.972   3.834  2.0030  0.9042 -1.8667
14518SOL     OW46102   6.047   8.341   5.617  0.1091 -0.1279 -0.2572
14518SOL    HW146103   6.075   8.349   5.713 -1.3759  0.2431  0.1643
14518SOL    HW246104   6.011   8.429   5.585  1.0605 -0.1136 -1.3163
14519SOL     OW46105   2.694   4.638   4.576  0.0158 -0.0304  0.3668
14519SOL    HW146106   2.772   4.637   4.513 -0.9183 -2.5046 -0.8582
14519SOL    HW246107   2.615   4.679   4.530 -0.1883 -0.2220  0.5418
14520SOL     OW46108   7.106   4.213   1.580 -0.2013 -0.9166  0.0044
14520SOL    HW146109   7.108   4.126   1.629 -1.4784 -0.9727 -0.0325
14520SOL    HW246110   7.052   4.204   1.497 -0.8616  0.0707  0.3120
14521SOL     OW46111   8.669   9.479   3.215  0.0284  0.1394 -0.1931
14521SOL    HW146112   8.715   9.562   3.244 -1.0581  0.0828  1.7860
14521SOL    HW246113   8.601   9.501   3.144 -0.4164  0.9785  0.4862
14522SOL     OW46114   3.776   5.255   4.586  0.8717  0.1348  0.0781
14522SOL    HW146115   3.741   5.338   4.543  0.0136  0.5292  1.5183
14522SOL    HW246116   3.706   5.215   4.645  1.1302 -1.8602 -0.9388
14523SOL     OW46117   7.894   3.725   1.180 -0.3478  0.3111  0.2110
14523SOL    HW146118   7.965   3.723   1.110 -0.2516 -0.2159  0.3269
14523SOL    HW246119   7.819   3.663   1.155 -0.6422  0.6583  0.2227
14525SOL     OW46120   7.964   0.086   5.532 -0.0698  0.4768  0.3013
14525SOL    HW146121   7.902   0.121   5.462  0.5008 -0.9839 -0.9720
14525SOL    HW246122   7.935   0.119   5.621 -2.0052  0.7469 -0.3954
14526SOL     OW46123   3.526   9.986   5.625  0.3297 -0.3551 -0.2553
14526SOL    HW146124   3.476  10.034   5.697 -1.3390 -2.0094 -0.2687
14526SOL    HW246125   3.464   9.963   5.550  1.5289 -0.7551 -1.1441
14527SOL     OW46126   2.374   3.841   0.794  0.0554  0.5878  0.2143
14527SOL    HW146127   2.429   3.847   0.711  0.3206 -1.1302  0.2473
14527SOL    HW246128   2.401   3.760   0.847 -2.0655  0.0485  0.5342
14528SOL     OW46129   3.008   7.006   5.725 -0.3724 -0.5819 -0.0932
14528SOL    HW146130   3.096   6.992   5.681 -0.5772  0.4440 -0.8458
14528SOL    HW246131   2.964   6.918   5.741 -0.0477 -0.9954 -1.4446
14529SOL     OW46132   8.972   4.620   0.719  0.0928 -0.0876  0.4114
14529SOL    HW146133   8.915   4.542   0.695 -0.2441  0.0764  0.6737
14529SOL    HW246134   8.917   4.689   0.766  0.2692  0.5416 -0.2977
14533SOL     OW46135   7.510   3.036   1.690  0.4348  0.2692  0.0927
14533SOL    HW146136   7.418   3.040   1.730  0.8997  0.7620  1.1480
14533SOL    HW246137   7.503   3.030   1.591 -0.7451 -0.1219  0.1872
14534SOL     OW46138   3.690   4.048   4.140 -0.0550 -0.1307 -0.2166
14534SOL    HW146139   3.725   4.124   4.086 -0.9262 -0.2225 -0.9371
14534SOL    HW246140   3.612   4.079   4.195  0.4019 -0.1973  0.4729
14535SOL     OW46141   2.501   6.865   1.780 -0.0066 -0.3111  0.3579
14535SOL    HW146142   2.462   6.800   1.715 -0.2707 -0.5540  0.7568
14535SOL    HW246143   2.593   6.891   1.750 -0.9369  1.1936 -1.2269
14536SOL     OW46144   2.970   4.259   3.719  0.1813 -0.1702 -0.3549
14536SOL    HW146145   2.900   4.312   3.768 -1.2434 -0.4588 -2.0289
14536SOL    HW246146   2.928   4.211   3.642  2.1199 -0.8678 -1.0122
14537SOL     OW46147   3.990   5.121   5.878  0.1695  0.1458  0.0691
14537SOL    HW146148   4.010   5.153   5.785 -0.6044 -1.0869 -0.5314
14537SOL    HW246149   4.029   5.029   5.890 -0.9491 -0.2859  0.4786
14538SOL     OW46150   2.173   3.346   3.430  0.0862 -0.0759  0.2693
14538SOL    HW146151   2.268   3.335   3.401  0.2021 -0.9971  0.9752
14538SOL    HW246152   2.129   3.257   3.433 -1.3169  0.5139 -1.7412
14539SOL     OW46153   9.726   7.554   4.222  0.0896 -0.2444 -0.4973
14539SOL    HW146154   9.737   7.605   4.307 -1.3225  2.9666 -2.1480
14539SOL    HW246155   9.787   7.591   4.152 -0.4218 -1.3089 -1.5392
14540SOL     OW46156   3.748   6.508   2.430 -0.0815 -0.2041 -0.3333
14540SOL    HW146157   3.686   6.539   2.503  0.5017  0.7750 -0.2410
14540SOL    HW246158   3.827   6.462   2.471 -1.1857 -2.3089 -0.4907
14541SOL     OW46159   8.066   7.609   4.413  0.0279  0.1421  0.0928
14541SOL    HW146160   8.056   7.623   4.314  1.1115  3.4136  0.3660
14541SOL    HW246161   7.979   7.627   4.458  0.1989  1.4240 -0.0533
14542SOL     OW46162   2.898   8.157   5.311 -0.3487  0.2647 -0.0294
14542SOL    HW146163   2.904   8.075   5.368 -0.4484  0.9029  0.9320
14542SOL    HW246164   2.986   8.206   5.314 -0.8931  1.2191  1.0246
14543SOL     OW46165   0.502   7.376   2.792  0.6904 -0.1856 -0.2457
14543SOL    HW146166   0.403   7.390   2.780  0.2811 -1.6295  1.1842
14543SOL    HW246167   0.550   7.460   2.773 -0.9677  0.9638  0.4703
14544SOL     OW46168   1.472   3.213   3.539 -0.5047  0.6033  0.6302
14544SOL    HW146169   1.560   3.252   3.513 -0.3771  0.1869  0.4226
14544SOL    HW246170   1.408   3.223   3.463 -0.4229  0.2725  0.5135
14545SOL     OW46171   3.751   0.609   6.151  0.5481  0.4073  0.2425
14545SOL    HW146172   3.792   0.546   6.085  0.6874 -0.6763  1.3650
14545SOL    HW246173   3.652   0.595   6.153  0.4128  1.1962 -0.5238
14546SOL     OW46174   3.213   5.832   1.662 -0.4414 -0.5497 -0.3626
14546SOL    HW146175   3.173   5.748   1.701 -0.7325 -0.2330  0.0270
14546SOL    HW246176   3.147   5.906   1.668 -0.4682 -0.4852 -1.4433
14547SOL     OW46177   9.499   1.381   3.059  0.0491 -0.6095 -0.5701
14547SOL    HW146178   9.431   1.453   3.071  0.2687 -0.2355 -1.5288
14547SOL    HW246179   9.459   1.306   3.005  0.4068 -0.3576 -1.1955
14548SOL     OW46180   9.407   8.077   3.379 -0.1747  0.6748 -0.0044
14548SOL    HW146181   9.405   8.025   3.465 -0.1689 -0.4275 -0.6530
14548SOL    HW246182   9.378   8.171   3.396 -1.9143  0.0080  0.9006
14549SOL     OW46183   2.844   7.041   6.395  0.7071  0.3289  0.4517
14549SOL    HW146184   2.771   7.010   6.456  1.3821 -1.1532  0.5526
14549SOL    HW246185   2.818   7.127   6.353  0.8332  2.1750  3.9397
14550SOL     OW46186   3.522   4.974   1.961 -0.0661  0.4695 -0.0689
14550SOL    HW146187   3.602   4.933   2.006 -1.3099  0.0497  1.8599
14550SOL    HW246188   3.468   4.902   1.917 -0.6033  0.4231  0.6491
14551SOL     OW46189   9.735   5.719   5.929  0.2239 -0.1541 -0.6920
14551SOL    HW146190   9.698   5.811   5.933 -0.5799 -0.5229  0.8898
14551SOL    HW246191   9.758   5.696   5.835 -0.2429  1.3926 -1.1941
14553SOL     OW46192   0.882   0.789   4.856  0.3112  0.2669  0.0396
14553SOL    HW146193   0.920   0.788   4.948  0.1523 -1.0774  0.1092
14553SOL    HW246194   0.895   0.879   4.815  0.6933  0.7658  1.2444
14554SOL     OW46195   8.081   7.671   1.661  0.8422 -0.0058 -0.1422
14554SOL    HW146196   8.109   7.655   1.755  0.2841  0.5021  0.1160
14554SOL    HW246197   8.061   7.768   1.648 -0.8264 -0.3428 -0.2934
14556SOL     OW46198   3.339   8.135   0.659  0.4691  0.0119  0.0293
14556SOL    HW146199   3.419   8.191   0.680  0.2473  1.0847 -1.8386
14556SOL    HW246200   3.257   8.181   0.692  0.4174  0.1046 -0.2255
14557SOL     OW46201   2.910   8.726   4.148 -0.0194 -0.1009 -0.5277
14557SOL    HW146202   3.005   8.758   4.142  0.2192 -0.6795  0.0716
14557SOL    HW246203   2.901   8.663   4.225 -0.8050 -0.3598 -0.8255
14559SOL     OW46204   3.556   1.401   2.228 -0.1616 -0.1638 -0.3972
14559SOL    HW146205   3.620   1.394   2.151  0.1776  2.1529 -0.3793
14559SOL    HW246206   3.579   1.333   2.297 -1.0031 -2.8779 -2.6964
14560SOL     OW46207   3.737   8.054   4.051 -0.5887 -0.1191 -0.0454
14560SOL    HW146208   3.822   8.079   4.004 -1.5050 -2.7216 -3.3615
14560SOL    HW246209   3.672   8.129   4.046  0.2881  0.6071 -0.6448
14562SOL     OW46210   9.751   8.464   6.288  0.2048 -0.0705  0.0836
14562SOL    HW146211   9.800   8.403   6.226  1.8135  1.8330 -0.5528
14562SOL    HW246212   9.685   8.518   6.235 -1.6949 -1.7072  0.7455
14563SOL     OW46213   4.788   3.106   0.431 -0.1318  0.0220 -0.1405
14563SOL    HW146214   4.797   3.192   0.481 -1.5212 -0.7252  1.4461
14563SOL    HW246215   4.691   3.088   0.413  0.3375  0.6502 -3.8603
14564SOL     OW46216   9.461   3.636   1.213 -0.2064 -0.3167  0.1966
14564SOL    HW146217   9.424   3.593   1.131 -2.2572  0.5712  0.6409
14564SOL    HW246218   9.428   3.587   1.294  1.9963 -1.3376  0.5267
14566SOL     OW46219   9.493   1.518   2.137 -0.2362 -0.3482  0.0015
14566SOL    HW146220   9.463   1.426   2.112  1.4533 -1.5468  2.2766
14566SOL    HW246221   9.417   1.568   2.178 -0.3238 -1.8410  1.6867
14567SOL     OW46222   0.029   8.535   5.652  0.2850  0.2810  0.2421
14567SOL    HW146223   0.090   8.514   5.575  1.8067 -1.4562  1.8490
14567SOL    HW246224   0.083   8.571   5.728 -1.2168  2.0711  0.4965
14568SOL     OW46225   4.339   5.203   1.082  0.0407 -0.0801 -0.8538
14568SOL    HW146226   4.381   5.250   1.004 -0.8815 -0.2958 -1.4921
14568SOL    HW246227   4.278   5.265   1.130  2.8529  0.9429  1.4976
14571SOL     OW46228   4.804   9.697   2.410 -0.7294 -0.3092 -0.4681
14571SOL    HW146229   4.778   9.659   2.499 -0.9437  0.8938 -0.0010
14571SOL    HW246230   4.829   9.793   2.421 -1.4791  0.0575 -1.8292
14572SOL     OW46231   6.395   7.444   5.879  0.6115  0.0023  0.1702
14572SOL    HW146232   6.493   7.438   5.902  1.0420  0.7958 -1.3831
14572SOL    HW246233   6.344   7.476   5.959  1.7432  0.4353  0.7292
14574SOL     OW46234   4.782   9.530   6.283  0.1457  0.0131 -0.3083
14574SOL    HW146235   4.778   9.555   6.186  2.2385 -1.9070 -0.9413
14574SOL    HW246236   4.747   9.437   6.294  1.1045 -0.2449  0.5743
14575SOL     OW46237   7.543   9.613   4.895  0.0165  0.0952 -0.4841
14575SOL    HW146238   7.444   9.606   4.881 -0.1351  0.5992  0.3261
14575SOL    HW246239   7.589   9.612   4.806 -0.6472 -1.1048 -0.8267
14576SOL     OW46240   7.487   8.314   5.380 -0.0879  0.2877 -0.2777
14576SOL    HW146241   7.442   8.366   5.307 -0.9740 -1.1928 -0.7921
14576SOL    HW246242   7.514   8.225   5.345  3.2749  1.1349  0.0225
14577SOL     OW46243   1.872   2.946   2.181  0.2027 -0.3608  0.7305
14577SOL    HW146244   1.890   2.873   2.114  0.2436 -1.0073  1.4343
14577SOL    HW246245   1.781   2.932   2.222 -0.3148  0.7071 -0.0426
14578SOL     OW46246   7.496   2.140   1.110 -0.4575  0.0420 -0.0125
14578SOL    HW146247   7.397   2.136   1.120 -0.4898  1.1993  0.1960
14578SOL    HW246248   7.528   2.231   1.135  0.5430 -0.0252 -1.0316
14579SOL     OW46249   7.641   0.050   4.069 -0.2299  0.2399 -0.0535
14579SOL    HW146250   7.740   0.037   4.062 -0.4137 -0.9223 -0.5379
14579SOL    HW246251   7.594  -0.034   4.043 -1.3941  1.2553 -1.3372
14581SOL     OW46252   0.787   9.371   1.158 -0.5748  0.4157 -0.4218
14581SOL    HW146253   0.809   9.316   1.078 -1.8672 -0.1624 -0.4043
14581SOL    HW246254   0.838   9.456   1.156  0.6358 -0.3122 -1.0177
14582SOL     OW46255   9.999   8.181   5.559  1.0357 -0.4959 -0.1802
14582SOL    HW146256   9.986   8.249   5.486 -3.1879 -1.7724 -0.7354
14582SOL    HW246257  10.026   8.228   5.643 -2.2337  2.0523 -0.4266
14583SOL     OW46258   5.083   9.312   5.684  0.2444 -0.1099  0.4314
14583SOL    HW146259   5.029   9.395   5.670  2.4871  1.3163  0.0515
14583SOL    HW246260   5.067   9.276   5.776 -1.2323  0.3596  0.3696
14584SOL     OW46261   5.465   0.290   4.000  0.3921  0.8741  0.1718
14584SOL    HW146262   5.465   0.200   3.957 -0.3703  1.1432 -0.4022
14584SOL    HW246263   5.474   0.360   3.930 -1.7306  1.3574  0.3278
14585SOL     OW46264   7.315   3.821   1.352  0.1042 -0.1737 -0.3139
14585SOL    HW146265   7.357   3.783   1.435  0.4919  0.3510 -0.2663
14585SOL    HW246266   7.386   3.858   1.293 -0.3136  1.0399 -0.0752
14587SOL     OW46267   4.079   4.838   5.708 -0.6515  0.3480  0.3822
14587SOL    HW146268   4.166   4.838   5.658  0.0984  0.6632  1.6531
14587SOL    HW246269   4.011   4.785   5.657  1.0517 -2.2134  0.6716
14588SOL     OW46270   4.021   5.264   3.115 -0.4934  0.1379  0.2656
14588SOL    HW146271   3.950   5.242   3.049 -0.9352  1.0130  0.4439
14588SOL    HW246272   4.084   5.186   3.124 -1.4867 -0.6756  0.1963
14589SOL     OW46273   9.205   8.457   4.808 -0.0618  0.3309  0.7189
14589SOL    HW146274   9.208   8.369   4.760 -0.0144  0.2691  0.8345
14589SOL    HW246275   9.158   8.445   4.896  0.3103  0.3328  0.9193
14591SOL     OW46276   9.531   2.495   2.581  0.0628  0.0115 -0.2761
14591SOL    HW146277   9.541   2.486   2.482  2.5392  0.6875 -0.1234
14591SOL    HW246278   9.495   2.586   2.603 -0.8855 -0.2897 -0.5656
14593SOL     OW46279   0.655   3.026   5.831  0.7198 -0.2962 -0.2631
14593SOL    HW146280   0.690   3.076   5.910  0.1354  0.1591 -0.2880
14593SOL    HW246281   0.707   3.051   5.750  1.4331 -0.8942  0.0116
14594SOL     OW46282   5.915   1.508   3.295  0.2553  0.4711  0.2101
14594SOL    HW146283   5.839   1.442   3.294  0.6026  0.0533  0.8570
14594SOL    HW246284   5.967   1.500   3.210  2.1968 -2.3455  1.5971
14595SOL     OW46285   2.054   4.169   1.988 -0.1525  0.1584  0.0086
14595SOL    HW146286   2.045   4.247   2.051  1.0151 -0.9032  1.5108
14595SOL    HW246287   2.085   4.202   1.899 -0.5375  1.5276  0.3631
14596SOL     OW46288   2.270   6.653   4.040 -0.2877 -1.4539  0.4530
14596SOL    HW146289   2.292   6.719   4.111  0.7840 -2.4000  1.0164
14596SOL    HW246290   2.209   6.695   3.972  0.3224  0.0705  0.8413
14597SOL     OW46291   1.033   9.135   1.562  0.2240 -0.0054  0.3299
14597SOL    HW146292   1.125   9.110   1.530  0.5586  2.5366 -0.8550
14597SOL    HW246293   1.030   9.234   1.577 -2.5764  0.0588 -0.5115
14598SOL     OW46294   5.959   9.259   5.389  0.2113 -0.1673  0.2034
14598SOL    HW146295   5.865   9.234   5.364 -0.2679  1.7402 -0.0262
14598SOL    HW246296   5.957   9.322   5.467  1.3941 -1.3408  1.1980
14600SOL     OW46297   3.891   4.119   2.064  0.4534  0.0702 -0.0352
14600SOL    HW146298   3.811   4.075   2.103  2.0755 -0.9213  2.3043
14600SOL    HW246299   3.866   4.167   1.980 -2.6393  0.1611  0.9105
14601SOL     OW46300   8.738   8.226   2.957 -0.2020  0.2751 -0.1911
14601SOL    HW146301   8.662   8.282   2.922  0.3845  0.3701 -1.3308
14601SOL    HW246302   8.824   8.273   2.941  0.2265 -0.5666 -0.3879
14602SOL     OW46303   2.256   5.239   1.529 -0.1691  0.1864 -0.1228
14602SOL    HW146304   2.265   5.302   1.452 -0.7821 -1.3209 -1.4487
14602SOL    HW246305   2.321   5.265   1.601  1.6332  0.5739 -1.8610
14603SOL     OW46306   5.015   3.781   1.599  0.2425 -0.0172 -0.4846
14603SOL    HW146307   5.057   3.713   1.659 -0.4163 -0.6421 -0.7139
14603SOL    HW246308   4.937   3.739   1.552 -1.3378  1.4615  0.7915
14604SOL     OW46309   1.589   0.811   5.551  0.1969 -0.2153  0.3586
14604SOL    HW146310   1.592   0.911   5.547  1.5474 -0.2424  0.3833
14604SOL    HW246311   1.508   0.778   5.503 -0.2556  0.8917  0.3432
14605SOL     OW46312   2.336   5.056   1.763  0.1156  0.3650 -0.3433
14605SOL    HW146313   2.331   5.076   1.861  2.5896  1.2975 -0.3684
14605SOL    HW246314   2.254   5.006   1.735 -2.0345  2.6277  1.5989
14606SOL     OW46315   7.396   1.356   0.734  0.3877  0.0041  0.0460
14606SOL    HW146316   7.454   1.333   0.812  0.8607  3.0605  0.6501
14606SOL    HW246317   7.454   1.380   0.656 -0.0831 -0.2155 -0.3763
14607SOL     OW46318   6.166   8.999   5.350  0.0862 -0.0639 -0.0734
14607SOL    HW146319   6.255   9.043   5.332 -0.0479  1.1489  2.0910
14607SOL    HW246320   6.096   9.069   5.362 -0.9201 -0.9897 -0.4527
14610SOL     OW46321   1.639   2.879   5.706  0.1596 -0.0764  0.0145
14610SOL    HW146322   1.660   2.784   5.729  0.3907 -0.4696 -1.7590
14610SOL    HW246323   1.545   2.900   5.731  0.1513 -0.7260  0.5374
14611SOL     OW46324   9.110   0.046   4.168  0.0695 -0.2250  0.2705
14611SOL    HW146325   9.165   0.100   4.232 -0.8031 -0.1674  0.9659
14611SOL    HW246326   9.013   0.058   4.187 -0.2649  0.9423 -1.9908
14614SOL     OW46327   1.402   0.540   5.469 -0.1617 -0.6563 -0.5592
14614SOL    HW146328   1.324   0.574   5.521  0.3196  0.4561 -0.5649
14614SOL    HW246329   1.417   0.598   5.389  1.7103  0.1538  0.3616
14617SOL     OW46330   2.617   8.371   5.614  0.5004 -0.3896 -0.0446
14617SOL    HW146331   2.628   8.329   5.524 -0.3081  2.7987 -1.7025
14617SOL    HW246332   2.526   8.352   5.649 -0.0439  0.4319 -1.0185
14618SOL     OW46333   3.286   5.936   3.588  0.3888 -0.3145 -1.0569
14618SOL    HW146334   3.336   6.022   3.584  0.4470 -0.3540 -1.1894
14618SOL    HW246335   3.224   5.929   3.510  0.0865 -0.2105 -0.8259
14620SOL     OW46336   1.187   0.823   5.126 -0.4550  0.6567  0.3239
14620SOL    HW146337   1.113   0.765   5.091  0.9168 -0.2049 -1.2010
14620SOL    HW246338   1.149   0.890   5.190 -2.3099 -0.8390  0.8451
14621SOL     OW46339   3.223   2.861   0.778  0.1454 -0.2650 -0.6175
14621SOL    HW146340   3.289   2.888   0.848 -0.7853 -0.1616  0.2228
14621SOL    HW246341   3.174   2.942   0.745 -0.6192 -0.5431 -0.1608
14622SOL     OW46342   8.741   9.090   4.708  0.2431  0.0153  0.6588
14622SOL    HW146343   8.688   9.037   4.775 -0.0694 -1.8624 -1.0093
14622SOL    HW246344   8.680   9.151   4.658 -0.1562 -1.2284 -0.3942
14623SOL     OW46345   2.345   4.719   2.494  0.4616  0.5032 -0.2518
14623SOL    HW146346   2.337   4.808   2.540  2.2925  0.0217  1.0008
14623SOL    HW246347   2.327   4.731   2.396 -1.5829  1.8458  0.2483
14626SOL     OW46348   6.406   1.387   1.777 -0.1324  0.3453 -0.4946
14626SOL    HW146349   6.426   1.342   1.864  0.7577  1.1602 -0.2665
14626SOL    HW246350   6.349   1.328   1.721 -0.0935 -0.4968  0.3476
14627SOL     OW46351   2.882   2.886   6.082 -0.0183 -0.4083 -0.1023
14627SOL    HW146352   2.806   2.950   6.074 -1.0387 -1.6671 -0.5341
14627SOL    HW246353   2.943   2.898   6.004 -0.1855  0.0491 -0.1680
14629SOL     OW46354   2.747   9.894   6.272  0.4884 -0.2662 -0.2390
14629SOL    HW146355   2.672   9.853   6.221  0.6642  0.2544 -0.9170
14629SOL    HW246356   2.786   9.970   6.220 -1.1796  2.1225  1.8630
14630SOL     OW46357   6.873   5.380   1.116  0.3407 -0.1970  0.1207
14630SOL    HW146358   6.887   5.469   1.071  3.1939  0.4861  2.1935
14630SOL    HW246359   6.808   5.390   1.191 -0.1170 -0.0994 -0.2866
14631SOL     OW46360   3.205   6.875   4.666  0.1148 -0.1523 -0.9513
14631SOL    HW146361   3.147   6.796   4.686 -2.1567  1.5940 -0.3306
14631SOL    HW246362   3.269   6.889   4.741 -0.6364 -0.4128 -0.2471
14632SOL     OW46363   9.045   8.535   3.990  0.0297  0.2829  0.3457
14632SOL    HW146364   8.975   8.569   4.053  1.2204  1.4497  1.0713
14632SOL    HW246365   9.051   8.597   3.911  1.3164  1.0430  1.0397
14633SOL     OW46366   2.174   8.630   4.008  0.0978 -0.2282  0.2821
14633SOL    HW146367   2.214   8.547   4.046 -2.8861 -1.8907 -0.0659
14633SOL    HW246368   2.086   8.648   4.053 -0.7688  0.9744 -1.8386
14635SOL     OW46369   9.222   4.908   6.034 -0.0738 -0.0308 -0.7874
14635SOL    HW146370   9.168   4.840   6.084  0.5962  0.1570  0.1783
14635SOL    HW246371   9.193   4.999   6.061 -1.3741  0.1091 -2.4998
14636SOL     OW46372   6.899   5.757   0.063  0.4994 -0.5462  0.2183
14636SOL    HW146373   6.860   5.841   0.027 -1.0294 -2.4265 -2.6733
14636SOL    HW246374   6.831   5.712   0.122  0.2918 -1.1018 -0.4392
14638SOL     OW46375   6.729   4.435   1.642 -0.2085 -0.3696  0.0747
14638SOL    HW146376   6.820   4.440   1.682 -0.2306  0.1246  0.0591
14638SOL    HW246377   6.662   4.476   1.704 -0.2911  0.0769 -0.3050
14639SOL     OW46378   0.651   6.319   3.671  0.3546 -0.3698  0.2555
14639SOL    HW146379   0.692   6.344   3.759 -0.2611 -1.3294  0.8275
14639SOL    HW246380   0.639   6.220   3.668  2.6177 -0.6171 -1.9113
14640SOL     OW46381   2.426   6.622   2.596  0.2961  0.1517  0.1413
14640SOL    HW146382   2.519   6.645   2.569  0.7235 -1.4956  0.1674
14640SOL    HW246383   2.423   6.527   2.628 -1.0852  0.6831  1.6209
14642SOL     OW46384   3.753   3.171   0.925 -0.0012  0.7484 -0.0248
14642SOL    HW146385   3.654   3.170   0.911 -0.1071  1.2338  0.7050
14642SOL    HW246386   3.777   3.242   0.991  0.7788  0.2323  0.2512
14643SOL     OW46387   2.423   1.027   0.069 -0.3049  0.0468  0.0342
14643SOL    HW146388   2.371   0.953   0.026  0.5760  0.4962 -1.8462
14643SOL    HW246389   2.439   1.005   0.165 -0.4449 -1.9889 -0.3898
14644SOL     OW46390   4.259   1.800   5.786  0.1010 -0.3100 -0.5760
14644SOL    HW146391   4.318   1.719   5.791 -0.1804 -0.5647 -1.3302
14644SOL    HW246392   4.239   1.833   5.878  1.0736 -0.4787 -0.3016
14645SOL     OW46393   9.260   5.729   1.632 -0.4239  0.4124 -0.0016
14645SOL    HW146394   9.193   5.664   1.668 -0.6947 -1.3114 -3.4443
14645SOL    HW246395   9.213   5.811   1.598 -0.4685  0.5979  0.4991
14646SOL     OW46396   1.584   1.765   3.826 -0.7142  0.5583  0.3590
14646SOL    HW146397   1.539   1.851   3.803 -0.9842  0.3584  0.1382
14646SOL    HW246398   1.607   1.716   3.742  0.3474  0.8763  0.4576
14647SOL     OW46399   4.048   1.545   4.895 -0.0844  0.3463  0.4627
14647SOL    HW146400   4.101   1.622   4.860  1.1072 -1.3785 -1.6126
14647SOL    HW246401   3.986   1.512   4.824 -0.3980 -0.7783  1.2509
14649SOL     OW46402   3.247   1.551   4.234 -0.2395 -0.2210 -0.0846
14649SOL    HW146403   3.323   1.537   4.171 -0.7238 -3.2160 -0.0989
14649SOL    HW246404   3.162   1.522   4.191 -0.7213 -1.3152  1.5328
14650SOL     OW46405   8.970   9.851   6.130  1.2043 -0.0633 -0.0951
14650SOL    HW146406   8.975   9.947   6.156  0.1507 -0.6904  2.6504
14650SOL    HW246407   9.062   9.816   6.113  1.7623  0.9465  0.8042
14651SOL     OW46408   2.845   6.951   3.932  0.1175  0.6512 -0.4480
14651SOL    HW146409   2.939   6.918   3.936 -0.5883 -1.2309  1.6964
14651SOL    HW246410   2.807   6.932   3.841  1.7809  1.4291 -1.3244
14652SOL     OW46411   5.360   7.795   5.495  0.2346 -0.1299  0.2183
14652SOL    HW146412   5.420   7.725   5.534  2.6270  0.2062 -2.6488
14652SOL    HW246413   5.391   7.885   5.522  0.9471  0.0370 -1.1003
14653SOL     OW46414   3.334   5.764   4.452  0.2093 -0.4890 -0.2669
14653SOL    HW146415   3.418   5.751   4.400  0.5219  1.4069 -0.2651
14653SOL    HW246416   3.267   5.812   4.395  0.1930  0.6886  0.7179
14654SOL     OW46417   1.175   8.974   0.945 -0.1196 -0.2338  0.4183
14654SOL    HW146418   1.230   9.014   0.871  0.0218  1.3681  1.3753
14654SOL    HW246419   1.207   9.009   1.033 -1.5129 -0.6857  1.1070
14656SOL     OW46420   9.944   9.666   2.359  0.2096  0.0968  0.1046
14656SOL    HW146421   9.974   9.614   2.439 -0.6022 -0.7173 -0.1156
14656SOL    HW246422   9.845   9.676   2.361 -0.0101 -1.4294 -1.7054
14657SOL     OW46423   2.977   6.278   6.390  0.9756  0.1361 -0.1811
14657SOL    HW146424   2.901   6.322   6.340  0.6722 -0.9451 -0.6833
14657SOL    HW246425   3.003   6.194   6.343  0.1742 -1.3184  1.9249
14659SOL     OW46426   1.377   6.943   2.163  0.1292  0.6980  0.3083
14659SOL    HW146427   1.458   6.940   2.104 -1.0202  0.2171 -1.2905
14659SOL    HW246428   1.312   7.011   2.126  0.0043  1.4370  1.8467
14660SOL     OW46429   0.234   6.404   5.223  0.1237  0.1268  0.3174
14660SOL    HW146430   0.284   6.348   5.289 -0.0547  0.6587  0.9096
14660SOL    HW246431   0.240   6.362   5.133 -0.7253 -1.3031  0.9077
14661SOL     OW46432   9.975   2.440   4.879  0.5025  0.2252 -0.3293
14661SOL    HW146433   9.998   2.503   4.805 -1.4177  2.0102  0.5364
14661SOL    HW246434  10.059   2.403   4.919  1.6294  1.4271 -1.5340
14662SOL     OW46435   2.986   6.162   2.732 -0.3018 -0.3554  0.5033
14662SOL    HW146436   2.959   6.076   2.775 -0.6259 -0.2706  0.4769
14662SOL    HW246437   3.085   6.172   2.736 -0.3806  0.0277  1.9551
14663SOL     OW46438   9.094   5.920   0.166 -0.7445 -0.3340 -0.2188
14663SOL    HW146439   9.157   5.844   0.184  1.2254  1.5280  1.0102
14663SOL    HW246440   9.043   5.901   0.082  0.5655 -2.4603 -0.5854
14666SOL     OW46441   7.295   9.604   4.113 -0.3834 -0.0953  0.0706
14666SOL    HW146442   7.356   9.572   4.041 -0.6338  0.0277 -0.2005
14666SOL    HW246443   7.330   9.689   4.152 -1.5574  1.2224 -1.6655
14667SOL     OW46444   7.333   9.850   2.814  0.3623  0.2387  0.0002
14667SOL    HW146445   7.365   9.816   2.902 -0.2518  0.0406  0.1478
14667SOL    HW246446   7.409   9.894   2.765  0.1516  2.6271  1.7106
14668SOL     OW46447   7.741   9.199   3.079 -0.1223 -0.0979  0.0232
14668SOL    HW146448   7.714   9.138   3.154 -0.3805 -0.6686 -0.5291
14668SOL    HW246449   7.743   9.147   2.993 -0.8063  0.7761 -0.5329
14669SOL     OW46450   0.750   2.460   4.908  0.7293 -0.3692 -0.3317
14669SOL    HW146451   0.668   2.514   4.929  2.1825  2.3794 -1.4927
14669SOL    HW246452   0.742   2.422   4.816  1.2198  0.8741 -0.9051
14670SOL     OW46453   4.032   8.354   2.775  0.3896  0.0105 -0.1337
14670SOL    HW146454   4.098   8.413   2.728 -0.3757  0.6755 -0.3823
14670SOL    HW246455   4.010   8.393   2.864 -1.6967  1.2309 -1.1414
14671SOL     OW46456   4.044   3.401   0.467  0.7787  0.0306  0.3182
14671SOL    HW146457   4.138   3.366   0.460  0.3462 -1.4976  1.7334
14671SOL    HW246458   3.983   3.327   0.496 -0.9065  0.9710 -0.7371
14672SOL     OW46459   3.050   0.833   3.765 -0.2216 -0.1054  0.2641
14672SOL    HW146460   3.064   0.834   3.666  1.0346  0.7657  0.4457
14672SOL    HW246461   3.137   0.815   3.811 -0.1875  2.5643  1.3165
14673SOL     OW46462   2.813   1.024   3.914  0.3578  0.0130  0.1384
14673SOL    HW146463   2.889   1.089   3.905 -0.3076  0.7271 -0.3016
14673SOL    HW246464   2.850   0.932   3.927  1.3043  0.4087  0.2749
14674SOL     OW46465   2.865   4.903   4.118  0.0713  0.8094  0.3536
14674SOL    HW146466   2.964   4.899   4.107  0.1067  3.0885 -0.4851
14674SOL    HW246467   2.820   4.876   4.033  0.0146  1.2517  0.2393
14675SOL     OW46468   4.525   4.420   2.440 -0.0968 -0.2917 -0.2724
14675SOL    HW146469   4.579   4.469   2.507  0.6740 -2.1551  0.5092
14675SOL    HW246470   4.585   4.367   2.380 -0.8670  0.1473 -1.4717
14676SOL     OW46471   1.320   3.289   3.124 -0.0703  0.2128  0.3090
14676SOL    HW146472   1.241   3.349   3.134 -0.6312 -0.7788  1.9523
14676SOL    HW246473   1.328   3.261   3.028 -1.1065  1.1334 -0.0554
14677SOL     OW46474   8.422   0.343   6.311 -0.7471  0.4604  0.1641
14677SOL    HW146475   8.456   0.345   6.405  0.0051 -2.6152 -0.0128
14677SOL    HW246476   8.409   0.249   6.281 -2.3711  1.4180 -2.3502
14679SOL     OW46477   3.670   9.940   0.673  0.2031  0.3449  0.1670
14679SOL    HW146478   3.758   9.959   0.629  1.6288 -0.3905  2.5894
14679SOL    HW246479   3.650   9.842   0.668 -0.7739  0.5859 -0.8721
14683SOL     OW46480   9.726   5.830   0.201  0.2106 -0.7338 -0.3922
14683SOL    HW146481   9.692   5.915   0.241  1.2423 -0.1032 -0.8354
14683SOL    HW246482   9.739   5.762   0.274  0.4628 -0.1399  0.1287
14684SOL     OW46483   0.937   7.377   3.655 -0.0266  0.3986 -0.8050
14684SOL    HW146484   1.003   7.307   3.628 -0.8673 -0.7271 -0.0229
14684SOL    HW246485   0.855   7.333   3.692 -0.5831  1.7997 -0.3121
14686SOL     OW46486   8.658   0.004   3.074  0.1660  0.0099 -0.2264
14686SOL    HW146487   8.723   0.004   3.149 -0.1610  0.9143  0.0642
14686SOL    HW246488   8.701  -0.035   2.992  0.5300 -0.9435  0.4088
14687SOL     OW46489   2.796   4.047   4.146 -0.3482  0.2819 -0.6195
14687SOL    HW146490   2.707   4.078   4.114  0.1127  1.1662 -1.0789
14687SOL    HW246491   2.864   4.120   4.131  0.2835 -0.0728  0.4708
14690SOL     OW46492   8.183   8.794   2.513  0.6502 -0.1191 -0.1767
14690SOL    HW146493   8.215   8.733   2.585  0.6015  0.9783  0.8002
14690SOL    HW246494   8.089   8.771   2.488  0.1564  0.4434  1.1656
14692SOL     OW46495   1.559   9.324   3.413 -0.1245  0.1195  0.3290
14692SOL    HW146496   1.588   9.404   3.361  0.0442 -0.5718 -0.6760
14692SOL    HW246497   1.639   9.266   3.432 -0.7309 -1.5432 -2.0176
14693SOL     OW46498   9.078   4.780   5.829 -0.2190  0.1855 -0.7620
14693SOL    HW146499   9.158   4.749   5.881  0.2352  0.4281 -1.3165
14693SOL    HW246500   8.998   4.724   5.855  0.3475 -0.7068 -0.9322
14695SOL     OW46501   2.844   2.022   3.925 -0.2733  0.9160  0.1095
14695SOL    HW146502   2.942   2.010   3.941 -0.5295 -1.6093 -0.0345
14695SOL    HW246503   2.830   2.070   3.839  0.8374  0.8184 -0.1337
14696SOL     OW46504   7.538   6.042   5.387  0.2051  0.1163  0.3538
14696SOL    HW146505   7.443   6.021   5.362  0.6382  0.1993 -1.4711
14696SOL    HW246506   7.553   6.019   5.483 -1.2940 -1.1671  0.3060
14697SOL     OW46507   4.154   8.664   1.194 -0.5634  0.0336 -0.4021
14697SOL    HW146508   4.156   8.736   1.124 -1.5242  0.0933 -0.3800
14697SOL    HW246509   4.086   8.687   1.264 -0.5153 -0.6435 -0.1254
14698SOL     OW46510   6.551   8.016   6.398  1.1109  0.1852 -0.3593
14698SOL    HW146511   6.543   8.112   6.427  0.4336  0.1848 -0.5467
14698SOL    HW246512   6.614   8.010   6.321  0.5229  0.5929 -0.8821
14699SOL     OW46513   0.976   4.925   6.077  0.1058  0.0574 -0.3144
14699SOL    HW146514   1.028   4.946   6.160  2.9752  0.1871 -2.0729
14699SOL    HW246515   0.970   4.826   6.065 -3.5932 -0.0759  1.9775
14700SOL     OW46516   6.429   0.387   5.387 -0.1155  0.6767  0.2813
14700SOL    HW146517   6.354   0.411   5.449  2.3079  2.8472  2.4999
14700SOL    HW246518   6.488   0.319   5.432 -0.4804 -0.7042 -1.2776
14701SOL     OW46519   6.564   1.362   3.246  0.2155  0.7004 -0.2066
14701SOL    HW146520   6.648   1.361   3.300  0.7321 -3.1282 -0.9171
14701SOL    HW246521   6.486   1.386   3.304  1.5421  2.3908  0.8839
14702SOL     OW46522   3.625   5.378   1.411  0.0857 -0.0330  0.7051
14702SOL    HW146523   3.628   5.284   1.378  0.5233  0.3609 -0.4008
14702SOL    HW246524   3.709   5.399   1.461  0.1171 -0.1374  0.6942
14703SOL     OW46525   9.901   0.158   1.973 -0.3639  0.4018  0.7338
14703SOL    HW146526   9.832   0.091   1.943  0.3133 -0.1486  0.3787
14703SOL    HW246527   9.982   0.109   2.005  0.5978  1.0770 -0.6326
14704SOL     OW46528   5.688   5.075   2.108  0.8370  0.0375 -0.0212
14704SOL    HW146529   5.713   4.985   2.143  1.2681  1.0374  2.3039
14704SOL    HW246530   5.765   5.113   2.058  0.1828 -1.4377 -2.2442
14705SOL     OW46531   8.185   4.227   0.734 -0.2548 -0.1651  0.1033
14705SOL    HW146532   8.189   4.148   0.672 -1.1973 -0.2484  0.1358
14705SOL    HW246533   8.116   4.210   0.804  0.2949  0.2408  0.7496
14706SOL     OW46534   8.631   6.409   4.386 -0.0456  0.4200  0.0842
14706SOL    HW146535   8.648   6.376   4.479  1.2103 -0.3497 -0.4058
14706SOL    HW246536   8.591   6.336   4.331 -1.8012  1.1945  0.2854
14707SOL     OW46537   4.761   7.003   2.590  0.5156  0.4732  0.2180
14707SOL    HW146538   4.844   6.980   2.641  1.0586  0.4824 -0.6506
14707SOL    HW246539   4.740   7.100   2.601  0.9796  0.6054 -0.0805
14708SOL     OW46540   2.040   1.388   4.437  0.3583  0.3023  0.2609
14708SOL    HW146541   2.087   1.473   4.413  1.6850 -0.2730  0.7561
14708SOL    HW246542   1.944   1.393   4.408  0.5242  1.8054 -0.0575
14709SOL     OW46543   1.442   6.784   1.077 -0.2512  0.0018  0.1566
14709SOL    HW146544   1.446   6.737   1.165 -1.8309 -0.4012  0.0176
14709SOL    HW246545   1.508   6.743   1.014  0.2144 -0.3175  0.8541
14711SOL     OW46546   5.912   8.113   3.860  0.2989  0.0807 -0.3049
14711SOL    HW146547   5.832   8.150   3.813  1.4592  1.9650 -0.8527
14711SOL    HW246548   5.884   8.076   3.949 -1.0876  1.2110 -0.2499
14712SOL     OW46549   3.416   0.310   4.470 -0.0410 -0.3057  0.1241
14712SOL    HW146550   3.384   0.402   4.450  0.4148  0.1625  1.4907
14712SOL    HW246551   3.491   0.287   4.408  0.9762  0.9005  0.8803
14714SOL     OW46552   7.544   1.333   2.609 -0.5297 -0.0170 -0.2178
14714SOL    HW146553   7.590   1.264   2.554 -1.8572 -1.7547  0.8185
14714SOL    HW246554   7.497   1.397   2.548  1.8547  0.8353 -1.2286
14715SOL     OW46555   7.605   9.022   3.262 -0.4760 -0.3600 -0.2304
14715SOL    HW146556   7.671   9.068   3.322 -0.6071 -1.1319  0.5141
14715SOL    HW246557   7.539   8.971   3.318 -0.2264 -1.6060 -1.0605
14716SOL     OW46558   2.121   7.463   2.023  0.4388  0.2610  0.1235
14716SOL    HW146559   2.191   7.422   2.082 -0.0846 -1.0628 -0.1674
14716SOL    HW246560   2.032   7.456   2.068  0.4691  1.9632  0.5015
14717SOL     OW46561   8.580   5.717   3.333 -0.5531  0.3258 -0.5935
14717SOL    HW146562   8.615   5.810   3.348 -1.3534  0.6973 -0.9966
14717SOL    HW246563   8.605   5.659   3.411  1.2260  0.4962 -1.0071
14718SOL     OW46564   7.535   3.837   6.196 -0.4426  0.2734  0.3833
14718SOL    HW146565   7.574   3.787   6.273  0.1805 -0.9491 -0.7060
14718SOL    HW246566   7.596   3.829   6.117 -1.6829  0.4565 -0.5999
14719SOL     OW46567   2.755   2.732   2.214 -0.2429  0.0085  0.2555
14719SOL    HW146568   2.694   2.696   2.284 -0.5028  0.1734  0.1123
14719SOL    HW246569   2.707   2.799   2.158 -0.0188 -0.0754 -0.0430
14720SOL     OW46570   8.478   5.377   2.948 -0.2605  0.7472  0.0558
14720SOL    HW146571   8.512   5.318   2.875 -0.9550  0.0122  0.3249
14720SOL    HW246572   8.545   5.449   2.967  0.1566  0.6199 -0.9359
14721SOL     OW46573   6.182   5.050   0.626 -0.5599 -0.1907 -0.9321
14721SOL    HW146574   6.194   4.964   0.677  3.1576  0.9419  0.2106
14721SOL    HW246575   6.234   5.046   0.541  1.7143  1.8666  0.3344
14723SOL     OW46576   1.918   2.144   5.684  0.1272  0.0678 -0.0607
14723SOL    HW146577   1.821   2.157   5.664  0.5181  4.0273  0.1855
14723SOL    HW246578   1.928   2.107   5.776 -1.1273  0.7526  0.3667
14724SOL     OW46579   0.642   2.654   1.958 -0.1065 -0.1274  0.6686
14724SOL    HW146580   0.559   2.701   1.989 -0.2868 -0.2614  0.3909
14724SOL    HW246581   0.677   2.699   1.876  0.4035  0.2631  1.0960
14725SOL     OW46582   1.028   4.453   0.327 -0.1566 -0.1167  0.0013
14725SOL    HW146583   0.943   4.501   0.346  0.4700  0.4833  1.3387
14725SOL    HW246584   1.020   4.358   0.357 -0.0269  0.1826  0.9721
14726SOL     OW46585   7.793   0.650   4.598 -0.2909 -0.7525  0.4718
14726SOL    HW146586   7.837   0.560   4.604 -0.7749 -1.0138  0.2080
14726SOL    HW246587   7.702   0.639   4.558 -0.8725 -0.3189  1.6545
14727SOL     OW46588   5.997   9.985   6.079 -0.4752  0.0056  0.0636
14727SOL    HW146589   6.007   9.919   6.154  0.2090  0.4834  0.4049
14727SOL    HW246590   6.080   9.984   6.023 -0.0365  1.2880  0.6617
14728SOL     OW46591   7.998   4.214   1.729 -0.8278 -0.6334  0.1328
14728SOL    HW146592   7.919   4.224   1.789  0.5673 -0.7266  2.0257
14728SOL    HW246593   8.003   4.121   1.694 -1.5093 -0.6418  0.0607
14731SOL     OW46594   9.365   3.227   6.251 -0.1271 -0.0723  0.1995
14731SOL    HW146595   9.407   3.318   6.254 -0.2729 -0.0455  1.9781
14731SOL    HW246596   9.409   3.167   6.317 -1.1639 -0.7984  0.2506
14733SOL     OW46597   6.095   9.837   2.294 -0.4388 -0.2240  0.2124
14733SOL    HW146598   6.067   9.873   2.383  1.9965 -0.4623  1.0955
14733SOL    HW246599   6.159   9.901   2.251 -1.6403 -0.0791 -1.4295
14734SOL     OW46600   2.502   5.001   3.060  0.3605 -0.4762  0.0533
14734SOL    HW146601   2.567   5.065   3.020  1.1856 -0.6721  1.0538
14734SOL    HW246602   2.494   5.018   3.158  0.7023 -1.9891  0.3617
14735SOL     OW46603   3.112   2.203   5.754  0.0060 -0.1463 -0.9091
14735SOL    HW146604   3.128   2.277   5.818  0.8544 -0.2296 -1.0201
14735SOL    HW246605   3.199   2.159   5.731 -0.2812 -0.1319 -2.0870
14736SOL     OW46606   9.519   1.467   3.468  0.3673  0.2023  0.6882
14736SOL    HW146607   9.437   1.411   3.453  1.8000 -0.9674 -3.3589
14736SOL    HW246608   9.491   1.562   3.482 -1.7290 -0.1992 -0.5377
14737SOL     OW46609   5.900   5.220   1.726 -0.5772 -0.1375  0.3990
14737SOL    HW146610   5.963   5.182   1.659  0.2470  0.1553  0.9971
14737SOL    HW246611   5.855   5.301   1.688  1.6021  1.3885  1.0126
14738SOL     OW46612   4.565   3.404   1.575 -0.0303 -0.2316 -0.4999
14738SOL    HW146613   4.476   3.447   1.584 -0.1921 -0.3664 -1.3979
14738SOL    HW246614   4.628   3.444   1.642 -0.4800  0.6015 -0.5657
14739SOL     OW46615   7.812   9.442   6.284 -0.3087  0.4813  0.0261
14739SOL    HW146616   7.726   9.449   6.334  0.3720 -0.7428  1.3897
14739SOL    HW246617   7.858   9.357   6.307  0.5944  0.4311 -1.8067
14740SOL     OW46618   2.025   5.460   3.756 -0.0737  0.2581 -0.0835
14740SOL    HW146619   2.108   5.418   3.720  0.5804  1.0622  0.4659
14740SOL    HW246620   2.035   5.559   3.756 -0.8035  0.3365  0.5234
14741SOL     OW46621   5.390   8.085   4.681  0.7048  0.5903  0.1914
14741SOL    HW146622   5.365   8.171   4.637  0.7307  1.2058  1.3692
14741SOL    HW246623   5.381   8.094   4.780  1.9142 -0.3776  0.3956
14743SOL     OW46624   3.088   5.458   4.419  0.1243  0.4875  0.2327
14743SOL    HW146625   3.116   5.527   4.486 -0.9178  1.0414  0.1088
14743SOL    HW246626   3.017   5.400   4.458 -1.3875  1.5968 -0.7834
14744SOL     OW46627   6.484   8.073   5.750  0.3230  0.4111  0.5188
14744SOL    HW146628   6.581   8.056   5.767  0.1620 -1.7001 -0.5251
14744SOL    HW246629   6.471   8.105   5.657  0.0679  1.1533  0.8085
14745SOL     OW46630   3.113   7.496   3.550 -0.1190  0.6071  0.5810
14745SOL    HW146631   3.073   7.407   3.571  0.9362  0.0038  0.0503
14745SOL    HW246632   3.189   7.484   3.486 -0.2306  1.9295  0.1885
14747SOL     OW46633   9.393   6.080   0.026 -0.7041  0.2189  0.2641
14747SOL    HW146634   9.405   6.053  -0.070 -1.1266  0.3531  0.1698
14747SOL    HW246635   9.322   6.150   0.031 -1.0002 -0.1133  0.7258
14749SOL     OW46636   2.380   4.770   4.077  0.1302  0.3818 -0.5067
14749SOL    HW146637   2.398   4.720   3.993  0.2385 -0.9319  0.2780
14749SOL    HW246638   2.282   4.768   4.097  0.1748  0.1668 -0.2962
14750SOL     OW46639   9.818   8.129   2.623 -0.7350  0.1027 -0.2389
14750SOL    HW146640   9.744   8.093   2.680 -0.7567 -1.0286 -0.9618
14750SOL    HW246641   9.905   8.088   2.651 -0.7106 -0.2716 -0.8481
14752SOL     OW46642   9.635   5.821   2.704  0.1395  0.4490 -0.2183
14752SOL    HW146643   9.649   5.919   2.716 -0.8694  0.3947  1.5216
14752SOL    HW246644   9.538   5.802   2.693  0.4018 -0.2866 -1.2992
14753SOL     OW46645   8.959   2.743   5.114 -0.0828 -0.4984 -0.3516
14753SOL    HW146646   8.951   2.803   5.194  0.1667 -1.3977  0.3614
14753SOL    HW246647   9.056   2.729   5.093 -0.1382 -0.7286 -0.4505
14754SOL     OW46648   6.003   1.839   3.957  0.3491 -0.1639  0.4886
14754SOL    HW146649   5.975   1.757   3.907  0.5593  0.3448 -0.4692
14754SOL    HW246650   6.036   1.908   3.893  0.3149  0.6216  1.3030
14755SOL     OW46651   3.155   9.912   5.158  0.2716  0.0673  0.3227
14755SOL    HW146652   3.093   9.875   5.227  0.0767 -2.7995 -1.3146
14755SOL    HW246653   3.110   9.911   5.068  1.7112  0.5444 -0.4292
14756SOL     OW46654   7.209   1.070   1.478 -0.7282  0.1702 -0.1925
14756SOL    HW146655   7.119   1.047   1.514  0.0098 -0.8700  1.0190
14756SOL    HW246656   7.272   0.993   1.492 -0.2469 -0.0226 -3.1555
14757SOL     OW46657   2.832   7.812   1.526 -0.4967 -0.2136 -0.1652
14757SOL    HW146658   2.887   7.777   1.450  0.6737  0.2250  0.4587
14757SOL    HW246659   2.796   7.902   1.502 -1.2684 -0.6682 -0.7271
14758SOL     OW46660   3.415   3.673   4.066  0.5245 -0.4631  0.0064
14758SOL    HW146661   3.415   3.573   4.075  0.9746 -0.5495 -0.8987
14758SOL    HW246662   3.321   3.706   4.054  0.3869 -0.7834  0.2017
14761SOL     OW46663   6.167   3.870   0.448  0.0167  0.1806 -0.0537
14761SOL    HW146664   6.246   3.852   0.507 -2.1092 -1.5755  2.3553
14761SOL    HW246665   6.172   3.813   0.367 -0.2830 -2.1554  1.5336
14762SOL     OW46666   8.474   8.943   1.080  0.1409 -0.0836 -0.2176
14762SOL    HW146667   8.406   9.013   1.057 -1.0228 -1.2956 -0.5601
14762SOL    HW246668   8.469   8.922   1.177  1.4905  1.3157  0.1839
14763SOL     OW46669   8.684   0.157   0.659 -0.2300  0.3049  0.7014
14763SOL    HW146670   8.634   0.228   0.611 -1.4361 -0.4905  0.7657
14763SOL    HW246671   8.655   0.153   0.755 -1.0517 -1.0651  0.4092
14765SOL     OW46672   9.829   9.072   3.361 -0.0095  0.2031 -0.2655
14765SOL    HW146673   9.887   9.136   3.411 -0.9209 -0.3436  1.5486
14765SOL    HW246674   9.884   8.995   3.330  0.2222 -0.4037  1.5915
14767SOL     OW46675   4.180   7.706   2.604  0.8443 -0.2313 -0.1559
14767SOL    HW146676   4.160   7.789   2.553  1.1393  0.3554  0.6770
14767SOL    HW246677   4.097   7.675   2.650  1.4804  1.4427  2.1932
14768SOL     OW46678   4.594   3.989   2.214 -0.4364  0.8458  0.2095
14768SOL    HW146679   4.644   3.919   2.163 -0.2776 -0.0505  1.5701
14768SOL    HW246680   4.502   3.998   2.176 -0.2034  0.4655 -0.4628
14769SOL     OW46681   9.370   6.572   1.008  0.0822  0.5351  0.1419
14769SOL    HW146682   9.402   6.477   1.010  0.4623  0.6788  1.0294
14769SOL    HW246683   9.442   6.633   1.041 -1.1555  0.8318  2.4083
14770SOL     OW46684   4.368   9.088   5.046 -0.1808 -0.5226  0.5590
14770SOL    HW146685   4.395   9.007   5.099  0.9400  0.0273  0.8376
14770SOL    HW246686   4.313   9.149   5.104 -0.8314 -0.9575  0.4168
14771SOL     OW46687   3.006   3.614   3.281  0.1162  0.2825  0.1002
14771SOL    HW146688   3.035   3.594   3.187 -1.3382  1.9636 -0.7400
14771SOL    HW246689   3.087   3.634   3.337  0.7945  2.5906 -1.6292
14772SOL     OW46690   4.803   4.120   0.987  0.1745 -0.0121 -0.0138
14772SOL    HW146691   4.820   4.066   1.069  1.0975 -1.8449 -1.3686
14772SOL    HW246692   4.875   4.188   0.976  0.7719 -0.6274  0.0210
14773SOL     OW46693   8.242   4.599   5.403  0.0906 -0.1790 -0.0109
14773SOL    HW146694   8.331   4.572   5.440  0.5953 -1.1482 -1.8794
14773SOL    HW246695   8.193   4.653   5.471  1.3755 -1.1204  1.7089
14775SOL     OW46696   3.221   3.000   1.210 -0.0607  0.1499  0.5176
14775SOL    HW146697   3.144   3.056   1.180  0.2231  1.3530  1.9442
14775SOL    HW246698   3.255   3.034   1.298  0.8666 -1.5621  0.8539
14776SOL     OW46699   7.839   6.347   3.488 -0.2286  0.7243  0.0184
14776SOL    HW146700   7.809   6.257   3.518  0.1489 -0.3626 -2.7251
14776SOL    HW246701   7.923   6.372   3.536  0.6737 -1.2046 -0.5073
14777SOL     OW46702   2.892   7.289   4.678 -0.4315  0.3946  0.3523
14777SOL    HW146703   2.916   7.369   4.622 -1.5502 -0.2561 -1.0701
14777SOL    HW246704   2.976   7.241   4.703  0.1102  0.8545 -0.5216
14779SOL     OW46705   1.270   6.858   0.752 -0.3931  0.6363 -0.2597
14779SOL    HW146706   1.247   6.774   0.703 -0.5465  0.5598 -0.0572
14779SOL    HW246707   1.258   6.843   0.851  0.6241  0.5651 -0.1464
14780SOL     OW46708   6.347   0.889   5.820  0.1578 -0.1651 -0.1394
14780SOL    HW146709   6.422   0.939   5.864 -0.4444  0.4501  0.1911
14780SOL    HW246710   6.380   0.851   5.733  0.6606  0.7053 -0.3391
14782SOL     OW46711   1.381   1.227   1.828  0.1139 -0.0687 -0.2294
14782SOL    HW146712   1.454   1.260   1.888  0.8534 -1.2580 -0.4586
14782SOL    HW246713   1.302   1.287   1.836  0.6184  0.4435  1.0679
14783SOL     OW46714   3.632   8.503   2.909 -0.3339 -0.1111 -0.0677
14783SOL    HW146715   3.728   8.508   2.881 -0.4460 -2.2670 -0.9157
14783SOL    HW246716   3.626   8.504   3.009  0.7806 -2.4034  0.0594
14784SOL     OW46717   8.693   4.647   4.644 -0.7107 -0.5233  0.6115
14784SOL    HW146718   8.759   4.596   4.699 -0.4786 -0.8457  0.0466
14784SOL    HW246719   8.741   4.711   4.585 -1.0344  0.6602  1.6260
14785SOL     OW46720   8.634   3.999   0.117  0.5979  0.4510  0.4038
14785SOL    HW146721   8.603   3.980   0.210  0.8847 -0.5698  0.2994
14785SOL    HW246722   8.570   3.961   0.051  0.7320  0.5967  0.1867
14786SOL     OW46723   7.681   7.218   5.384 -0.4896 -0.5458 -0.1715
14786SOL    HW146724   7.692   7.212   5.483 -0.3236 -0.4955 -0.1865
14786SOL    HW246725   7.662   7.312   5.358 -0.4577 -0.5459 -0.1951
14787SOL     OW46726   0.984   6.978   2.098 -0.1077  0.1253  0.3099
14787SOL    HW146727   0.967   7.074   2.080 -0.4583  0.3289  1.6865
14787SOL    HW246728   1.041   6.968   2.180  1.5455 -0.7702 -0.9112
14788SOL     OW46729   2.637   3.265   5.532  0.0910  0.3077  0.3109
14788SOL    HW146730   2.598   3.352   5.504  0.5434  0.3485 -0.2060
14788SOL    HW246731   2.737   3.272   5.534  0.0754  0.2133  1.6303
14789SOL     OW46732   9.708   4.343   4.261 -0.2420  0.0722 -0.3395
14789SOL    HW146733   9.724   4.245   4.250  1.6544  0.2173  0.8031
14789SOL    HW246734   9.667   4.360   4.351 -4.5097 -0.0165 -2.1467
14791SOL     OW46735   3.389   1.132   4.892 -0.4796  0.6773  0.4226
14791SOL    HW146736   3.354   1.190   4.819 -1.4604  0.9583  1.1137
14791SOL    HW246737   3.346   1.042   4.887 -0.5887  0.7158  0.6943
14796SOL     OW46738   4.316   5.920   2.041 -0.6928 -0.9947 -0.0235
14796SOL    HW146739   4.320   6.013   2.005  1.9836 -1.1083 -0.1107
14796SOL    HW246740   4.262   5.919   2.126 -0.4434  0.7060  0.1727
14798SOL     OW46741   8.585   2.366   5.418 -0.1364  0.0502 -0.5047
14798SOL    HW146742   8.638   2.306   5.478 -0.8147 -0.7100 -0.6462
14798SOL    HW246743   8.645   2.404   5.347  0.1754 -0.9906 -0.8088
14799SOL     OW46744   0.110   7.473   1.867  0.1061  0.9830 -0.5040
14799SOL    HW146745   0.168   7.412   1.921 -1.7383 -1.0534 -0.7656
14799SOL    HW246746   0.015   7.461   1.894 -0.5097  2.2503 -2.0287
14800SOL     OW46747   1.827   8.383   0.353 -0.0098 -0.3389 -0.2038
14800SOL    HW146748   1.852   8.467   0.402  0.4864 -0.3715 -0.4042
14800SOL    HW246749   1.899   8.315   0.364 -1.3317 -1.4840  1.6927
14801SOL     OW46750   3.479   9.538   2.789 -0.7523 -0.0773 -0.8769
14801SOL    HW146751   3.513   9.451   2.752 -1.2041 -0.5693 -0.1531
14801SOL    HW246752   3.451   9.525   2.884 -2.6922  0.3583 -1.3546
14802SOL     OW46753   7.762   8.221   2.243 -0.0100  0.3459  0.4367
14802SOL    HW146754   7.672   8.177   2.250  0.7986 -1.6227 -0.9420
14802SOL    HW246755   7.754   8.302   2.184 -0.9545  0.3816  0.6028
14803SOL     OW46756   3.254   5.525   1.494 -0.3010 -0.0763  0.8218
14803SOL    HW146757   3.259   5.426   1.490 -1.6372 -0.1456  0.5968
14803SOL    HW246758   3.202   5.553   1.575  0.0622  0.4326  0.8822
14804SOL     OW46759   9.690   5.126   3.370 -0.2137 -0.5637  0.0527
14804SOL    HW146760   9.609   5.140   3.313 -1.1794 -0.0958  1.5287
14804SOL    HW246761   9.698   5.029   3.393 -0.4126 -0.5890  0.0142
14805SOL     OW46762   5.460   0.329   1.442 -0.1611  0.3227 -0.1903
14805SOL    HW146763   5.520   0.250   1.453  0.2855  0.9671  2.3166
14805SOL    HW246764   5.477   0.372   1.354  0.4803 -1.6251 -1.0443
14806SOL     OW46765   8.058   9.544   2.706 -0.0313 -0.3940 -0.5802
14806SOL    HW146766   8.019   9.463   2.750 -1.1555  0.7888  0.6506
14806SOL    HW246767   7.995   9.578   2.636  0.3593 -0.4820 -0.9757
14808SOL     OW46768   7.374   1.466   5.878 -0.3193  0.4899  0.0463
14808SOL    HW146769   7.426   1.523   5.814 -0.0100  0.0881 -0.0619
14808SOL    HW246770   7.341   1.522   5.954 -0.0109  0.8096 -0.0585
14810SOL     OW46771   9.213   1.118   2.691  0.1014  0.4265 -0.0240
14810SOL    HW146772   9.279   1.070   2.633 -1.1924 -1.4577 -0.0029
14810SOL    HW246773   9.162   1.184   2.636  0.7876  0.6280 -0.4254
14811SOL     OW46774   1.112   8.831   4.727 -0.3396  0.2248  0.0005
14811SOL    HW146775   1.157   8.920   4.723  0.1586  0.0262  0.9827
14811SOL    HW246776   1.095   8.798   4.634  2.3651 -0.1174 -0.4159
14812SOL     OW46777   9.971   2.516   5.797  0.4153  0.2632  0.2574
14812SOL    HW146778  10.046   2.452   5.780 -0.0645 -0.3732  0.5268
14812SOL    HW246779   9.891   2.488   5.745  0.4265  1.0591 -0.1865
14813SOL     OW46780   3.348   5.728   0.453  0.0233 -0.1043  0.1230
14813SOL    HW146781   3.335   5.748   0.550  1.7805 -1.5675  0.7033
14813SOL    HW246782   3.423   5.784   0.418  0.0345 -0.2829 -0.1382
14814SOL     OW46783   8.927   2.251   2.028 -0.4850 -0.0041  0.0284
14814SOL    HW146784   8.910   2.206   2.116  0.9368 -0.3934  0.1086
14814SOL    HW246785   8.981   2.333   2.043  0.4754 -0.5202 -0.5657
14815SOL     OW46786   9.160   4.521   0.943 -0.0284 -0.2737 -0.3900
14815SOL    HW146787   9.096   4.520   0.865 -1.0182  1.3655  0.3754
14815SOL    HW246788   9.155   4.434   0.991 -1.4012 -0.3263 -0.5963
14816SOL     OW46789   9.291   2.846   3.118 -0.4160 -0.0223 -0.3252
14816SOL    HW146790   9.321   2.753   3.096 -0.5807  0.0645 -0.9199
14816SOL    HW246791   9.201   2.843   3.160  0.1786 -0.2423  0.9831
14817SOL     OW46792   2.559   5.279   4.276 -0.6110 -0.1945  0.0461
14817SOL    HW146793   2.539   5.325   4.190 -3.7432  0.6226  1.1381
14817SOL    HW246794   2.517   5.189   4.277 -1.4981  0.2248  1.1268
14818SOL     OW46795   3.042   3.654   1.211 -0.2345  0.5022 -0.3652
14818SOL    HW146796   3.074   3.613   1.296  2.2132  2.3438 -0.3477
14818SOL    HW246797   2.965   3.714   1.230  0.1835  0.7643  0.5322
14819SOL     OW46798   4.099   8.739   2.923 -0.2817  0.0325 -0.1912
14819SOL    HW146799   4.153   8.746   3.007  0.3087 -0.8548 -0.4782
14819SOL    HW246800   4.053   8.826   2.904  1.9163  1.1694 -0.5057
14821SOL     OW46801   8.689   5.500   4.126 -0.2428 -0.1144  0.7457
14821SOL    HW146802   8.665   5.405   4.110  0.6880 -0.6665  2.4652
14821SOL    HW246803   8.758   5.505   4.198 -1.2933  1.9540  1.6489
14822SOL     OW46804   8.271   5.364   6.226 -0.4539 -0.3842 -0.2915
14822SOL    HW146805   8.322   5.354   6.140 -1.8518  0.8842 -1.2960
14822SOL    HW246806   8.217   5.448   6.223  0.9307  0.6823  2.6116
14825SOL     OW46807   3.420   3.865   0.831  0.4359  0.5066 -0.0384
14825SOL    HW146808   3.488   3.906   0.771 -0.1259  1.9631  0.2956
14825SOL    HW246809   3.418   3.766   0.818  2.6402  0.4476 -0.0249
14826SOL     OW46810   3.047   3.487   4.157  0.0702  0.2897  0.0419
14826SOL    HW146811   3.031   3.440   4.070 -1.5343 -1.0250  1.0079
14826SOL    HW246812   3.136   3.461   4.193 -0.5054 -1.5040  0.2184
14828SOL     OW46813   1.754   7.530   4.018  0.0369 -0.1245 -0.0755
14828SOL    HW146814   1.668   7.520   4.068 -0.5534  1.8358 -0.6738
14828SOL    HW246815   1.812   7.597   4.065  1.6372 -2.0970  0.8311
14829SOL     OW46816   4.901   3.709   0.897 -0.1332  0.0931  0.4951
14829SOL    HW146817   4.900   3.738   0.992 -0.3250  1.7135  0.0124
14829SOL    HW246818   4.888   3.788   0.837 -0.6015 -0.9748 -0.8639
14830SOL     OW46819   2.034   6.697   5.523  0.4872 -0.4589 -0.3911
14830SOL    HW146820   2.076   6.786   5.538  1.8473 -1.0003 -0.8823
14830SOL    HW246821   2.029   6.678   5.425  0.0608 -0.8644 -0.2977
14831SOL     OW46822   4.083   3.125   5.702  0.0675  0.7025 -0.4150
14831SOL    HW146823   4.035   3.152   5.785  0.3819  0.4194 -0.1385
14831SOL    HW246824   4.165   3.073   5.726  0.7206  1.5077 -0.8754
14832SOL     OW46825   4.503   4.173   3.904  0.0870 -0.4461  0.3607
14832SOL    HW146826   4.585   4.182   3.847 -1.0396 -0.4070 -1.2978
14832SOL    HW246827   4.426   4.146   3.846 -1.3383  0.7070  1.7118
14833SOL     OW46828   3.537   5.146   5.869 -0.3540  0.0564  0.1886
14833SOL    HW146829   3.522   5.098   5.783 -0.6992 -0.5375  0.5723
14833SOL    HW246830   3.462   5.125   5.932  0.8322 -0.9572  1.2696
14834SOL     OW46831   3.770   2.258   3.399  0.2149  0.7768  0.4495
14834SOL    HW146832   3.781   2.186   3.467  0.8118 -0.6877 -1.1841
14834SOL    HW246833   3.673   2.268   3.377  0.0889  0.7785  0.9940
14837SOL     OW46834   0.836   6.458   3.503 -0.0808  0.4212  0.1857
14837SOL    HW146835   0.923   6.476   3.549 -0.2711  2.8200 -0.3486
14837SOL    HW246836   0.782   6.394   3.559  1.0405  0.7288  1.6598
14838SOL     OW46837   4.836   0.407   2.469  0.7136 -0.8193  0.2825
14838SOL    HW146838   4.906   0.415   2.398  0.4147  3.0084  0.3419
14838SOL    HW246839   4.751   0.372   2.429  1.6433 -2.3101 -0.4340
14839SOL     OW46840   0.144   3.409   4.715  0.2200  0.0748  0.0970
14839SOL    HW146841   0.054   3.448   4.695  0.2999 -0.1668 -0.7249
14839SOL    HW246842   0.206   3.483   4.742  0.5948  0.6307 -2.2493
14840SOL     OW46843   9.732   4.298   3.353 -0.2632 -0.6304  0.0216
14840SOL    HW146844   9.692   4.281   3.263  0.5697  0.4746 -0.5777
14840SOL    HW246845   9.776   4.388   3.353  1.5698 -1.5019  0.8830
14841SOL     OW46846   9.801   0.766   5.007 -0.1922 -0.4814 -0.5513
14841SOL    HW146847   9.851   0.736   4.925 -0.5283 -1.8520 -0.2669
14841SOL    HW246848   9.739   0.693   5.036 -1.3661  0.6880 -0.1043
14842SOL     OW46849   8.597   2.654   3.090 -0.3662 -0.3077  0.2603
14842SOL    HW146850   8.499   2.661   3.072 -0.5567 -2.0235  0.5199
14842SOL    HW246851   8.631   2.741   3.125 -1.1095  1.3439 -2.9444
14843SOL     OW46852   1.850   0.374   6.150 -0.1575  0.4083 -0.0823
14843SOL    HW146853   1.792   0.370   6.231  0.3513  0.4396  0.2892
14843SOL    HW246854   1.802   0.334   6.072 -1.1053  1.4282 -0.0396
14844SOL     OW46855   7.612   2.739   0.970 -0.1397 -0.1692 -0.0871
14844SOL    HW146856   7.600   2.695   0.881  0.3300 -0.8106  0.1689
14844SOL    HW246857   7.571   2.682   1.041 -0.7603  0.4750  0.0791
14846SOL     OW46858   2.909   8.239   0.505 -0.0575  0.9320  0.5115
14846SOL    HW146859   2.965   8.197   0.434 -0.6571  1.0508 -0.0404
14846SOL    HW246860   2.937   8.204   0.595 -0.4447 -0.5491  0.0826
14847SOL     OW46861   0.417   9.753   3.385 -0.1798  0.1507 -0.5982
14847SOL    HW146862   0.412   9.841   3.432  0.3891 -0.6719  1.0247
14847SOL    HW246863   0.499   9.705   3.414 -1.8938 -2.1134  0.6094
14849SOL     OW46864   2.125   8.381   4.501 -0.3197 -0.3426 -0.1938
14849SOL    HW146865   2.028   8.357   4.492 -0.0031 -2.0918  0.9771
14849SOL    HW246866   2.133   8.474   4.537 -1.5607 -0.2621 -0.1142
14850SOL     OW46867   3.029   4.517   5.819 -0.0564  0.3953 -0.0049
14850SOL    HW146868   2.945   4.553   5.859  0.9040  1.7587  0.8037
14850SOL    HW246869   3.030   4.535   5.720 -0.8571  0.0936 -0.0660
14851SOL     OW46870   8.392   6.320   3.542 -0.2888  0.1376  0.2088
14851SOL    HW146871   8.474   6.372   3.565 -0.6135  0.4473  0.6716
14851SOL    HW246872   8.340   6.301   3.625  0.4606 -2.0134  0.2317
14853SOL     OW46873   8.820   8.503   2.664 -0.5434 -0.0478  0.1805
14853SOL    HW146874   8.756   8.432   2.636 -1.2629  0.8033 -0.3507
14853SOL    HW246875   8.782   8.554   2.742  0.1971 -0.5682  0.8961
14854SOL     OW46876   0.434   6.790   5.702 -0.4790 -0.2642 -0.3390
14854SOL    HW146877   0.495   6.714   5.726 -0.6635 -0.3286 -0.0684
14854SOL    HW246878   0.484   6.876   5.708 -0.7109 -0.2104  0.9960
14855SOL     OW46879   5.263   1.243   3.595  0.3246 -0.3112  0.2174
14855SOL    HW146880   5.359   1.218   3.592  0.9690  1.6133  2.6932
14855SOL    HW246881   5.233   1.274   3.505  1.3665 -3.1320 -1.1188
14856SOL     OW46882   7.698   2.512   6.002 -0.0509  0.2248 -0.3408
14856SOL    HW146883   7.791   2.549   6.004  1.0412 -2.3241 -1.8306
14856SOL    HW246884   7.694   2.430   6.059 -1.3836  0.2832 -0.3471
14857SOL     OW46885   4.944   1.351   0.243 -0.4714 -0.6415 -0.0067
14857SOL    HW146886   4.872   1.377   0.307 -0.1871  0.0853  0.0178
14857SOL    HW246887   5.012   1.424   0.237  0.5473 -1.5469  0.3813
14858SOL     OW46888   2.414   1.507   5.376  0.4310  0.1540 -0.4020
14858SOL    HW146889   2.464   1.428   5.412  2.9629  2.4968  1.5093
14858SOL    HW246890   2.473   1.556   5.311 -1.0237  0.6236 -1.3942
14859SOL     OW46891   2.862   1.726   3.148  0.1229 -0.0423 -0.0691
14859SOL    HW146892   2.887   1.711   3.052  0.1027 -0.7091  0.0268
14859SOL    HW246893   2.825   1.641   3.187  0.3185  0.1643  0.5831
14860SOL     OW46894   0.377   1.588   1.632  0.5046 -0.5762 -0.4353
14860SOL    HW146895   0.375   1.488   1.633 -0.6723 -0.5533 -0.3221
14860SOL    HW246896   0.319   1.623   1.559  0.1636  0.0453  0.1235
14861SOL     OW46897   7.708   2.563   4.535  0.1775  0.3726 -0.3506
14861SOL    HW146898   7.673   2.492   4.474  1.3310  0.4970 -1.1798
14861SOL    HW246899   7.806   2.575   4.518  0.2812  1.1450  0.8009
14862SOL     OW46900   4.284   1.318   3.209  0.0982  0.4010  0.0164
14862SOL    HW146901   4.315   1.409   3.239 -0.5468  0.1721  1.4358
14862SOL    HW246902   4.357   1.252   3.223 -0.0700  0.3658  0.7577
14863SOL     OW46903   9.207   0.968   0.641  0.1391 -0.3406 -0.2764
14863SOL    HW146904   9.267   1.021   0.701  0.9085 -1.2490 -0.2345
14863SOL    HW246905   9.189   1.021   0.558  1.2856 -0.1950 -0.4425
14865SOL     OW46906   9.356   2.593   2.032 -0.2517 -0.4256  0.1890
14865SOL    HW146907   9.427   2.609   1.964 -1.5402 -1.7061 -1.4815
14865SOL    HW246908   9.367   2.659   2.107  1.2834  0.8990 -1.1519
14866SOL     OW46909   0.926   4.226   4.715 -0.3056 -0.2857  0.4792
14866SOL    HW146910   0.974   4.313   4.712  2.7954 -1.7084  3.6798
14866SOL    HW246911   0.887   4.213   4.806 -1.9393 -1.6457 -0.3913
14867SOL     OW46912   8.223   6.577   1.560  0.1571  0.1051  0.4943
14867SOL    HW146913   8.319   6.551   1.569  0.4087  0.8317  0.0382
14867SOL    HW246914   8.177   6.514   1.497  0.9775  1.2642 -1.3088
14868SOL     OW46915   1.392   5.407   5.729 -0.1061 -0.0177 -0.0794
14868SOL    HW146916   1.484   5.444   5.740  0.2153 -1.2131  1.4507
14868SOL    HW246917   1.326   5.482   5.728  0.7448  0.7494  0.4741
14869SOL     OW46918   0.748   4.061   3.093 -0.0862  0.0427  0.6574
14869SOL    HW146919   0.745   4.153   3.130 -0.0411 -0.2290  1.3432
14869SOL    HW246920   0.716   4.062   2.998 -0.0737  0.7596  0.6589
14870SOL     OW46921   0.987   4.517   4.922 -0.1259  0.6017 -0.4083
14870SOL    HW146922   1.061   4.574   4.888  0.0774  2.4526  2.8559
14870SOL    HW246923   1.025   4.435   4.965 -0.0279  0.7847 -0.1365
14872SOL     OW46924   9.295   8.006   4.465 -0.1090 -0.0972  0.1465
14872SOL    HW146925   9.366   8.075   4.478 -0.9000  0.6004  0.7397
14872SOL    HW246926   9.333   7.930   4.412  1.3463 -0.1552  1.2387
14873SOL     OW46927   4.256   4.165   5.384  0.6680  0.5805 -0.0236
14873SOL    HW146928   4.328   4.138   5.320 -0.0791  0.4249 -0.7908
14873SOL    HW246929   4.280   4.252   5.426  1.6595  0.1807  0.2704
14874SOL     OW46930   3.073   9.456   3.647  0.0254 -0.1295 -0.1276
14874SOL    HW146931   3.047   9.546   3.613  1.2182 -0.1050 -0.9972
14874SOL    HW246932   3.103   9.464   3.743 -0.5517  0.2770  0.0186
14875SOL     OW46933   8.806   3.710   2.370  0.3188 -0.2255  0.5215
14875SOL    HW146934   8.708   3.716   2.349  0.8887  0.4391 -2.1936
14875SOL    HW246935   8.838   3.799   2.403  0.2294 -0.1266  0.3430
14876SOL     OW46936   1.874   3.085   5.399 -0.0651 -0.0554  0.1773
14876SOL    HW146937   1.823   3.002   5.376 -0.0405 -0.0750  0.1934
14876SOL    HW246938   1.956   3.060   5.451 -0.2208  0.0032  0.4551
14877SOL     OW46939   0.607   7.586   1.008 -0.1889  0.5600  0.4984
14877SOL    HW146940   0.707   7.578   0.996 -0.3163  1.2147 -1.1939
14877SOL    HW246941   0.574   7.663   0.955 -1.6368  0.2165  0.8985
14878SOL     OW46942   3.547   0.705   3.299 -0.3540 -0.1136  0.3704
14878SOL    HW146943   3.519   0.651   3.378  1.7766 -1.9141 -0.0804
14878SOL    HW246944   3.642   0.733   3.308 -0.0490 -0.4209 -1.6009
14879SOL     OW46945   1.127   2.943   2.445 -0.7731  0.0657  0.4650
14879SOL    HW146946   1.039   2.982   2.419 -0.2249  2.0352  1.4748
14879SOL    HW246947   1.126   2.844   2.429 -2.7700  0.2342 -0.5614
14880SOL     OW46948   1.901   0.123   4.358  0.3186 -0.5301 -0.2365
14880SOL    HW146949   1.937   0.109   4.266  0.6682 -1.6300  0.0650
14880SOL    HW246950   1.922   0.217   4.388  1.7082 -0.7129 -0.6085
14883SOL     OW46951   5.810   0.899   3.869  0.1307 -0.8745  0.1421
14883SOL    HW146952   5.741   0.968   3.846 -0.5735 -1.6018  0.0699
14883SOL    HW246953   5.849   0.861   3.785 -0.3763 -1.4611  0.1725
14884SOL     OW46954   3.650   0.297   0.170 -0.2762  0.5840 -0.4842
14884SOL    HW146955   3.726   0.356   0.199  0.4008 -0.1352 -0.7817
14884SOL    HW246956   3.674   0.252   0.084 -0.3021 -1.0414  0.3430
14885SOL     OW46957   5.161   8.500   5.920 -0.0588  0.0358  0.1497
14885SOL    HW146958   5.171   8.444   5.838 -1.8319 -0.6214  0.3684
14885SOL    HW246959   5.244   8.555   5.932  2.0837 -3.1308  0.4207
14887SOL     OW46960   5.321   9.653   5.067 -0.5654 -0.1416  0.6250
14887SOL    HW146961   5.413   9.615   5.078 -0.3949  0.0701 -0.0166
14887SOL    HW246962   5.253   9.583   5.088 -0.2593 -0.0164  2.0400
14888SOL     OW46963   1.350   6.065   4.308  0.3039 -0.0135 -0.0862
14888SOL    HW146964   1.274   6.130   4.316 -0.5204 -0.9678 -0.0250
14888SOL    HW246965   1.407   6.070   4.389  1.9063  2.6901 -1.3468
14889SOL     OW46966   6.218   1.847   5.375  0.2171  0.0440 -0.1348
14889SOL    HW146967   6.204   1.765   5.431  0.3444  0.0648 -0.0721
14889SOL    HW246968   6.208   1.928   5.432 -0.1136  0.0760 -0.2419
14890SOL     OW46969   1.384   0.856   4.933  0.2332  0.1587  0.9124
14890SOL    HW146970   1.381   0.782   4.865  0.2172 -1.5496  2.7139
14890SOL    HW246971   1.328   0.831   5.012  0.5593  1.9268  1.7232
14892SOL     OW46972   3.368   4.409   0.769  0.3656 -0.0521  0.1864
14892SOL    HW146973   3.435   4.453   0.829 -1.5194  0.3560  2.0245
14892SOL    HW246974   3.285   4.464   0.765 -0.6296 -1.5563 -0.4665
14894SOL     OW46975   1.632   7.001   3.278  0.1773 -0.0186 -0.3803
14894SOL    HW146976   1.593   7.011   3.370 -1.0075  2.4020 -1.0988
14894SOL    HW246977   1.600   6.916   3.238 -0.1667 -0.5769  1.0455
14895SOL     OW46978   2.020   5.588   3.095 -0.7101  0.3262  0.3856
14895SOL    HW146979   1.992   5.532   3.018 -2.0252  0.3776  0.8002
14895SOL    HW246980   2.111   5.627   3.078  0.0463 -1.5941 -0.0650
14896SOL     OW46981   9.550   6.356   1.807 -0.0804 -0.3132 -0.6524
14896SOL    HW146982   9.520   6.265   1.778 -1.2956 -0.3170  0.5859
14896SOL    HW246983   9.485   6.393   1.873  1.2099  0.8364 -0.0111
14897SOL     OW46984   7.756   3.293   1.457  0.2478 -0.4471 -0.3348
14897SOL    HW146985   7.740   3.238   1.375  2.2424 -1.2107 -0.2291
14897SOL    HW246986   7.827   3.361   1.438 -0.4175  0.4306  0.2936
14899SOL     OW46987   0.014   5.408   1.157 -0.3564 -0.0673 -0.4402
14899SOL    HW146988  -0.017   5.390   1.251  0.8669  3.1730  0.6725
14899SOL    HW246989   0.060   5.326   1.121 -2.1843 -1.8714  1.1805
14900SOL     OW46990   7.672   1.826   2.998  0.1620  0.0802 -0.2114
14900SOL    HW146991   7.639   1.916   2.967 -0.0887 -0.4087 -1.3640
14900SOL    HW246992   7.646   1.756   2.932 -1.0455 -1.0979  1.4684
14901SOL     OW46993   1.021   3.503   1.026  0.2286 -0.2730  0.1664
14901SOL    HW146994   1.014   3.446   0.944 -1.0730  1.4464 -0.9844
14901SOL    HW246995   1.113   3.540   1.033  0.3741 -0.5033 -0.4882
14902SOL     OW46996   0.194   3.104   5.036  0.0801  0.1261  0.4924
14902SOL    HW146997   0.191   3.004   5.042  1.7250 -0.1239 -2.1010
14902SOL    HW246998   0.138   3.135   4.959  1.1185  1.0665  0.1037
14904SOL     OW46999   0.366   0.482   5.269  0.7060  0.1959  0.5376
14904SOL    HW147000   0.333   0.494   5.363  1.2992  1.3943  0.6026
14904SOL    HW247001   0.344   0.563   5.215  0.0738 -0.6321 -0.4483
14905SOL     OW47002   4.595   4.435   3.649 -0.3271 -1.1099 -0.2982
14905SOL    HW147003   4.576   4.338   3.632 -2.6854 -0.3836 -2.1089
14905SOL    HW247004   4.550   4.490   3.579 -0.0045  1.3805  1.4035
14906SOL     OW47005   4.943   2.505   4.440  0.1211  0.2548 -0.4894
14906SOL    HW147006   5.024   2.452   4.467  0.8737  0.8566 -1.5674
14906SOL    HW247007   4.971   2.593   4.402 -1.0119  0.1892 -1.4992
14907SOL     OW47008   5.625   0.624   2.270  0.0580  0.0113 -0.6251
14907SOL    HW147009   5.612   0.545   2.330 -0.4038  0.8391  0.3766
14907SOL    HW247010   5.712   0.614   2.222  0.1116 -1.0003 -0.3446
14909SOL     OW47011   7.468   5.662   1.484  0.0708 -0.0212  0.4638
14909SOL    HW147012   7.433   5.582   1.436 -0.1652  0.2367  0.2043
14909SOL    HW247013   7.567   5.652   1.498  0.8460  1.4775 -3.2646
14910SOL     OW47014   6.612   4.786   0.017  0.6179  0.1971  0.1587
14910SOL    HW147015   6.709   4.803  -0.003  0.1891  0.2866 -1.9175
14910SOL    HW247016   6.555   4.825  -0.056 -1.0049  0.3121  1.4537
14911SOL     OW47017   4.450   3.457   4.078 -0.4916 -0.2907 -0.0831
14911SOL    HW147018   4.352   3.447   4.060 -0.4752 -0.5984 -0.0175
14911SOL    HW247019   4.474   3.403   4.159 -0.6382  1.3846  1.0942
14912SOL     OW47020   6.083   1.425   3.068  0.1383  0.6260  0.2623
14912SOL    HW147021   6.166   1.463   3.108  1.0034  0.6484 -1.4933
14912SOL    HW247022   6.107   1.346   3.011 -1.0180  0.7006 -0.3417
14913SOL     OW47023   1.742   7.827   2.716  0.0552 -0.4633  0.3091
14913SOL    HW147024   1.830   7.785   2.692  1.0023  1.3404  0.5398
14913SOL    HW247025   1.755   7.925   2.732 -2.3476  0.1905 -1.4987
14914SOL     OW47026   2.294   5.909   0.703  0.5734 -0.8525 -0.0252
14914SOL    HW147027   2.229   5.837   0.727 -1.0769  1.0309  1.3567
14914SOL    HW247028   2.385   5.884   0.736 -0.1731 -1.8817  1.3328
14915SOL     OW47029   3.124   5.169   3.489  0.2421 -0.7030 -0.5446
14915SOL    HW147030   3.135   5.114   3.407  1.1617 -0.2385 -0.7333
14915SOL    HW247031   3.213   5.188   3.530  0.0363  1.3246 -0.9435
14917SOL     OW47032   8.097   5.041   5.635  0.0883 -0.1237 -0.0273
14917SOL    HW147033   8.005   5.073   5.658 -0.2235  0.1458 -1.5740
14917SOL    HW247034   8.164   5.112   5.654  0.0497 -0.4734  1.5145
14918SOL     OW47035   7.870   3.572   0.356  0.0021  0.6838 -0.1381
14918SOL    HW147036   7.832   3.634   0.287 -1.8176  1.4113  1.4705
14918SOL    HW247037   7.859   3.477   0.326 -1.4246  0.9673 -0.5221
14919SOL     OW47038   4.830   1.279   4.816  0.4640  0.5273 -0.5318
14919SOL    HW147039   4.788   1.238   4.735 -1.9096  0.7731  0.5543
14919SOL    HW247040   4.809   1.377   4.819  0.0583  0.4060  0.6887
14920SOL     OW47041   5.173   9.181   5.005  0.7021  0.3625 -0.2086
14920SOL    HW147042   5.084   9.136   5.007  0.7636  0.2657  1.6850
14920SOL    HW247043   5.241   9.119   4.967  0.3636 -0.3717  0.3612
14921SOL     OW47044   0.937   9.244   5.400  0.4449  0.1971  0.3002
14921SOL    HW147045   0.974   9.165   5.448 -0.9551  0.6292  2.1331
14921SOL    HW247046   0.852   9.219   5.354  0.7722  0.2665 -0.3449
14923SOL     OW47047   0.877   0.454   2.008 -0.0760 -0.3312  0.3164
14923SOL    HW147048   0.828   0.391   1.948 -1.3803 -0.2187  1.2274
14923SOL    HW247049   0.811   0.512   2.056  1.0088  0.4294  0.9039
14924SOL     OW47050   0.931   8.198   4.232 -0.3288 -0.1835  0.4129
14924SOL    HW147051   0.950   8.129   4.302  1.4648 -0.6137 -0.4724
14924SOL    HW247052   0.964   8.166   4.144  0.5828  1.8204 -0.0049
14925SOL     OW47053   7.668   2.633   5.766  0.4428 -0.2919 -0.1112
14925SOL    HW147054   7.688   2.580   5.849  0.4003 -0.2724 -0.0885
14925SOL    HW247055   7.689   2.577   5.686  0.8271 -0.1840 -0.0900
14927SOL     OW47056   0.534   6.241   5.456 -0.0633 -0.2750 -0.2819
14927SOL    HW147057   0.561   6.336   5.470  0.4931 -0.7128  1.7638
14927SOL    HW247058   0.580   6.205   5.375  0.8689  0.7774 -0.2366
14928SOL     OW47059   9.193   8.211   5.341  0.1813  0.0152  0.1901
14928SOL    HW147060   9.224   8.236   5.433 -1.7739  0.3144  0.7823
14928SOL    HW247061   9.232   8.122   5.316 -1.1341 -1.1832  2.2568
14929SOL     OW47062   5.013   1.710   0.595  0.1835  0.4049  0.0772
14929SOL    HW147063   5.102   1.726   0.552  1.2881 -1.7812  1.4842
14929SOL    HW247064   5.007   1.763   0.679  0.9536 -0.9261  0.9870
14930SOL     OW47065   7.522   5.196   1.721  0.1470 -0.4256  0.4897
14930SOL    HW147066   7.578   5.125   1.678  0.5560 -0.3517  0.8931
14930SOL    HW247067   7.582   5.267   1.758 -0.3333  1.4346 -2.1424
14931SOL     OW47068   8.479   5.986   2.932  0.4403  0.0996  0.2623
14931SOL    HW147069   8.433   5.909   2.888 -1.5658  1.8261 -0.7770
14931SOL    HW247070   8.578   5.970   2.933  0.1515 -1.9497 -0.9212
14932SOL     OW47071   8.355   8.574   2.980  0.2593 -0.6867  0.8787
14932SOL    HW147072   8.323   8.557   3.074  0.1946 -0.9233  0.8128
14932SOL    HW247073   8.354   8.672   2.963 -0.5921 -0.6975  0.8254
14933SOL     OW47074   6.806   0.563   2.159 -0.6069 -0.7673 -0.0370
14933SOL    HW147075   6.736   0.540   2.227 -0.5274 -1.3336 -0.1467
14933SOL    HW247076   6.886   0.601   2.206 -0.6459 -0.9315  0.1649
14934SOL     OW47077   6.656   6.991   6.194 -0.7067 -0.0533  0.0780
14934SOL    HW147078   6.640   7.019   6.099  0.6780 -0.0639 -0.1590
14934SOL    HW247079   6.568   6.987   6.242 -1.1918  2.2072 -0.5750
14935SOL     OW47080   4.062   1.875   4.270  0.6182 -0.0776  0.2682
14935SOL    HW147081   4.009   1.811   4.214  0.5123 -0.2283  0.5416
14935SOL    HW247082   4.135   1.826   4.317  0.3358 -0.0558  0.7325
14936SOL     OW47083   1.923   9.991   1.352  0.2748 -0.4143  0.5161
14936SOL    HW147084   1.826   9.968   1.351  0.0524  0.5010  0.1614
14936SOL    HW247085   1.977   9.907   1.355 -0.5256 -0.9382  0.4665
14937SOL     OW47086   2.502   0.753   5.794  0.6524 -0.4869 -0.1169
14937SOL    HW147087   2.494   0.771   5.696  0.2321 -1.3111 -0.2381
14937SOL    HW247088   2.456   0.667   5.816 -1.3451  0.8537  1.1841
14938SOL     OW47089   4.606   6.172   1.806  0.1032 -0.0196  0.0445
14938SOL    HW147090   4.592   6.245   1.739 -0.2093 -0.5554 -0.4897
14938SOL    HW247091   4.615   6.211   1.897  1.2112  0.7757 -0.3922
14940SOL     OW47092   1.492   0.816   3.943  0.6383  0.1488  0.2785
14940SOL    HW147093   1.544   0.745   3.990  0.1682 -0.2243  0.2333
14940SOL    HW247094   1.416   0.846   4.001 -0.8211 -1.3463 -0.8323
14942SOL     OW47095   1.347   8.695   5.988 -0.2258  0.0349  1.0077
14942SOL    HW147096   1.369   8.599   5.969 -1.9274  0.1654 -2.0210
14942SOL    HW247097   1.320   8.705   6.084 -0.1138 -2.5412  1.3389
14943SOL     OW47098   8.493   5.334   3.876 -0.0677  0.1765 -0.1224
14943SOL    HW147099   8.538   5.418   3.848 -0.9646  0.7950  0.2746
14943SOL    HW247100   8.395   5.350   3.888  0.0313 -0.4413  1.7728
14944SOL     OW47101   5.540   0.403   5.251  0.3802 -0.4523  0.0109
14944SOL    HW147102   5.585   0.484   5.288  0.5107  0.3803 -1.9401
14944SOL    HW247103   5.444   0.423   5.234  0.8730  0.0060 -2.4746
14945SOL     OW47104   3.275   3.381   5.150  0.5319  0.3323 -0.0892
14945SOL    HW147105   3.246   3.298   5.103  0.4184  0.8146 -0.8885
14945SOL    HW247106   3.313   3.357   5.240  1.3675 -0.6704 -0.6933
14946SOL     OW47107   1.762   0.627   5.646 -0.7323 -0.5280 -0.5456
14946SOL    HW147108   1.719   0.537   5.649 -1.1225 -0.3350 -0.2268
14946SOL    HW247109   1.695   0.695   5.616 -0.4857 -0.3183 -0.6251
14947SOL     OW47110   2.714   0.779   3.122 -0.2363 -0.0085 -0.0374
14947SOL    HW147111   2.771   0.720   3.179 -1.3997 -1.5779 -0.4653
14947SOL    HW247112   2.633   0.806   3.173 -0.3994  0.0540 -0.3289
14948SOL     OW47113   4.875   0.188   6.005 -0.2481  0.4451 -0.8401
14948SOL    HW147114   4.912   0.274   6.039  2.0207 -0.4471 -0.9653
14948SOL    HW247115   4.860   0.126   6.082  0.7887 -0.0320 -1.0111
14949SOL     OW47116   0.725   8.645   0.174 -0.6265 -0.1832 -0.8668
14949SOL    HW147117   0.669   8.568   0.207  0.0417 -0.5760 -0.6540
14949SOL    HW247118   0.818   8.635   0.207 -0.3232  0.2457 -1.5928
14950SOL     OW47119   9.330   4.635   5.575 -0.1648 -0.0509  0.1151
14950SOL    HW147120   9.390   4.648   5.496 -1.9280 -1.1918 -1.4497
14950SOL    HW247121   9.324   4.721   5.627  0.5100  0.8795 -1.3260
14951SOL     OW47122   6.799   0.547   2.531 -0.4606 -0.6939  0.1340
14951SOL    HW147123   6.761   0.574   2.619 -0.9675  1.1119 -0.6096
14951SOL    HW247124   6.729   0.557   2.460  0.8102  0.8263 -0.9495
14952SOL     OW47125   5.770   1.230   4.688 -0.2212  0.4431 -0.0552
14952SOL    HW147126   5.680   1.261   4.657  0.3560  1.5454 -0.6348
14952SOL    HW247127   5.839   1.297   4.664  0.8343 -0.5877  0.0334
14953SOL     OW47128   2.777   7.029   4.189  1.4346 -0.0499  0.1543
14953SOL    HW147129   2.783   7.006   4.092  1.4056 -2.3661  0.6783
14953SOL    HW247130   2.860   7.000   4.235  0.3766 -1.3245  1.2844
14954SOL     OW47131   9.119   0.496   2.161 -0.2254 -0.0492 -0.0944
14954SOL    HW147132   9.212   0.471   2.134  1.4242  2.3441  2.8850
14954SOL    HW247133   9.078   0.421   2.212 -0.0626 -1.2510 -1.7102
14955SOL     OW47134   3.379   1.280   5.116  0.5396  0.0419 -0.4392
14955SOL    HW147135   3.380   1.226   5.032  0.5859  0.4755 -0.7203
14955SOL    HW247136   3.362   1.376   5.093  0.7674  0.1935  0.0261
14956SOL     OW47137   4.247   3.791   6.194 -0.2849 -0.2323 -0.3711
14956SOL    HW147138   4.150   3.789   6.170 -0.3201  0.6907 -0.3144
14956SOL    HW247139   4.282   3.884   6.185  0.2113 -0.2482  1.1625
14957SOL     OW47140   8.713   9.252   5.425 -0.1438  0.0008  1.1144
14957SOL    HW147141   8.662   9.167   5.412  0.3592 -0.4675  2.1615
14957SOL    HW247142   8.808   9.239   5.397 -0.3403  0.5616  0.1758
14958SOL     OW47143   2.443   8.303   2.562 -0.2239  0.2188  0.1544
14958SOL    HW147144   2.473   8.319   2.656 -0.0138  1.7724 -0.1668
14958SOL    HW247145   2.394   8.383   2.528 -1.7350 -0.9446 -0.5192
14960SOL     OW47146   8.161   4.784   3.187 -0.3259  0.2401  0.9545
14960SOL    HW147147   8.136   4.865   3.239 -0.4569  0.9962 -0.2782
14960SOL    HW247148   8.110   4.782   3.101  0.4031 -0.6391  0.5314
14961SOL     OW47149   6.906   1.776   4.128  0.0804 -0.1455  0.1351
14961SOL    HW147150   6.963   1.769   4.210  0.2297 -0.1166  0.0331
14961SOL    HW247151   6.819   1.820   4.152  0.0779 -0.2392  0.3011
14963SOL     OW47152   9.262   7.071   2.515  0.0736  0.3561 -0.2692
14963SOL    HW147153   9.168   7.071   2.482  0.3951  1.2589 -1.2112
14963SOL    HW247154   9.299   6.978   2.514 -0.5016  0.1346 -0.7612
14964SOL     OW47155   4.319   9.465   2.217 -0.5012 -0.6826  0.4669
14964SOL    HW147156   4.293   9.405   2.293 -1.9743 -0.5494  0.0751
14964SOL    HW247157   4.415   9.491   2.227 -1.1752  0.9047  3.3496
14966SOL     OW47158   6.532   2.794   0.035  0.6389 -0.2466 -0.5041
14966SOL    HW147159   6.527   2.838   0.125  0.8956 -0.3638 -0.4302
14966SOL    HW247160   6.628   2.779   0.011  0.6095  0.8615 -1.3392
14967SOL     OW47161   9.733   0.602   0.512 -0.2656 -0.0464  0.1636
14967SOL    HW147162   9.825   0.601   0.552 -1.4351  0.2282  2.9348
14967SOL    HW247163   9.704   0.508   0.494 -0.0508 -0.2164  0.6975
14968SOL     OW47164   5.182   2.978   0.844 -0.3213 -0.3131  0.6478
14968SOL    HW147165   5.211   2.922   0.922 -0.6528  0.5935  1.4164
14968SOL    HW247166   5.251   3.049   0.827 -0.3881 -0.3337  0.2807
14969SOL     OW47167   8.248   5.954   1.253  0.2779  0.1710 -0.3757
14969SOL    HW147168   8.294   5.897   1.184 -1.9717 -1.1543 -0.8293
14969SOL    HW247169   8.236   6.046   1.217  1.9776  0.3473 -0.5076
14970SOL     OW47170   3.274   7.684   3.289  0.0751 -0.0101 -0.2557
14970SOL    HW147171   3.325   7.736   3.358 -0.4083 -1.0355  0.9047
14970SOL    HW247172   3.281   7.586   3.310 -0.8706 -0.2655 -1.1261
14971SOL     OW47173   3.072   5.800   4.116 -0.8230  0.1731 -0.5718
14971SOL    HW147174   3.022   5.803   4.030  1.6582  1.9079 -2.0243
14971SOL    HW247175   3.118   5.712   4.125  0.7451  0.8133 -2.1367
14972SOL     OW47176   7.415   4.832   1.867  0.6620  0.0269 -0.3057
14972SOL    HW147177   7.440   4.893   1.941  1.3555 -0.2399 -0.3099
14972SOL    HW247178   7.498   4.790   1.830  0.4577  1.1414 -2.0874
14973SOL     OW47179   1.093   2.825   0.630  0.2137 -0.3242 -0.3070
14973SOL    HW147180   1.117   2.851   0.537 -1.1802 -0.8750 -0.8214
14973SOL    HW247181   1.172   2.780   0.673  0.7927 -0.2507 -1.2821
14975SOL     OW47182   0.547   2.588   2.257 -0.3082 -0.4065 -0.0188
14975SOL    HW147183   0.531   2.585   2.159  0.4717  0.8362 -0.1837
14975SOL    HW247184   0.595   2.504   2.285 -0.9217 -0.9650 -0.6081
14976SOL     OW47185   8.745   3.093   6.324  0.1487  0.4179 -0.4168
14976SOL    HW147186   8.798   3.044   6.255  1.4507  1.3032 -0.0666
14976SOL    HW247187   8.647   3.085   6.304  0.3582 -1.9386 -0.6045
14977SOL     OW47188   9.888   9.990   1.049 -0.1984  0.3499  0.2047
14977SOL    HW147189   9.983   9.965   1.066 -0.6708 -0.3372  1.9805
14977SOL    HW247190   9.841   9.915   1.003  0.0857  0.6639 -0.6107
14978SOL     OW47191   4.523   7.054   3.079  0.6627 -0.1630  0.0521
14978SOL    HW147192   4.615   7.090   3.095  1.1254 -2.0156  1.8122
14978SOL    HW247193   4.456   7.126   3.095  1.6785  0.5763  1.1101
14980SOL     OW47194   0.914   1.351   4.060 -0.7287  0.0241  0.2237
14980SOL    HW147195   0.884   1.267   4.105  0.9201  0.2123  1.7083
14980SOL    HW247196   0.879   1.430   4.111 -1.3316  0.2498 -0.5298
14981SOL     OW47197   3.101   0.206   5.753  0.6972 -0.6679  0.1761
14981SOL    HW147198   3.052   0.275   5.700  3.0470  0.5159 -0.5416
14981SOL    HW247199   3.100   0.119   5.703 -1.1303 -0.8034  0.4434
14982SOL     OW47200   9.291   6.782   3.578 -0.2756 -0.5029  0.0060
14982SOL    HW147201   9.381   6.797   3.535 -0.0677 -1.0429  0.2508
14982SOL    HW247202   9.221   6.781   3.507 -0.0430 -0.4599 -0.2292
14983SOL     OW47203   4.682   2.313   4.425 -0.3906 -0.3278  0.0825
14983SOL    HW147204   4.609   2.352   4.369  0.0637 -1.4875 -1.3442
14983SOL    HW247205   4.746   2.386   4.450 -0.7286  0.2494 -0.7015
14985SOL     OW47206   8.061   3.586   2.217 -0.1096 -0.4240 -0.0159
14985SOL    HW147207   8.105   3.631   2.295 -0.3004 -0.6866  0.2447
14985SOL    HW247208   7.970   3.625   2.203 -0.4988 -1.1187  0.5637
14986SOL     OW47209   6.522   0.107   3.029 -0.9847  0.1904 -0.6385
14986SOL    HW147210   6.525   0.207   3.029 -0.1582  0.1814 -2.1664
14986SOL    HW247211   6.515   0.073   3.123  1.6391  1.5973  0.0978
14988SOL     OW47212   7.737   4.273   3.752  0.6720 -0.1781  0.0553
14988SOL    HW147213   7.705   4.311   3.665  1.8093 -1.4344 -0.9406
14988SOL    HW247214   7.759   4.347   3.815 -2.7983  0.7227  0.2778
14989SOL     OW47215   0.531   5.021   1.422 -0.0050  0.5504 -0.2132
14989SOL    HW147216   0.608   5.002   1.361  0.3242  0.6694  0.1633
14989SOL    HW247217   0.477   5.097   1.386 -1.1041 -0.8296 -1.5282
14990SOL     OW47218   5.776   0.326   4.141  0.4114 -0.0606  0.1707
14990SOL    HW147219   5.701   0.391   4.126  1.4327  1.1913  0.4341
14990SOL    HW247220   5.771   0.289   4.234  0.5349  0.5395  0.4124
14991SOL     OW47221   7.520   6.817   5.095 -0.5059 -0.7079 -0.1578
14991SOL    HW147222   7.518   6.727   5.140  1.5545 -1.0459 -0.7059
14991SOL    HW247223   7.567   6.883   5.153  0.7752 -0.7640 -1.1133
14993SOL     OW47224   9.281   9.517   4.980 -0.1920 -0.1443 -0.4931
14993SOL    HW147225   9.318   9.510   5.073 -2.7268  1.1320  0.6777
14993SOL    HW247226   9.269   9.426   4.942 -0.2315 -0.7359  0.9104
14994SOL     OW47227   3.685   8.018   4.315 -0.2974 -0.4794 -0.4619
14994SOL    HW147228   3.693   8.005   4.216  3.0416  0.8375 -0.4273
14994SOL    HW247229   3.696   8.114   4.338 -0.7603 -0.8046  1.2316
14995SOL     OW47230   2.363   7.044   2.879  0.0805  0.3480 -0.0221
14995SOL    HW147231   2.277   7.007   2.915 -0.8146  0.7003 -1.7566
14995SOL    HW247232   2.426   6.969   2.858  0.0143  0.0656  0.7652
14996SOL     OW47233   3.290   4.985   3.018  0.1222  0.1078 -0.2810
14996SOL    HW147234   3.243   4.898   3.030 -0.7111  0.7456  1.1937
14996SOL    HW247235   3.241   5.040   2.951 -0.3397  0.1167  0.0559
14997SOL     OW47236   6.453   9.386   5.209  0.1231 -0.1802  0.0144
14997SOL    HW147237   6.520   9.418   5.142  1.7625  0.1258  1.7478
14997SOL    HW247238   6.415   9.299   5.178  1.3737 -0.3985 -0.9911
14998SOL     OW47239   8.540   3.589   4.085 -0.2912  0.3453  0.3335
14998SOL    HW147240   8.571   3.675   4.044  1.7649 -0.2207  0.6707
14998SOL    HW247241   8.469   3.609   4.152 -1.5247  1.5580 -1.2762
14999SOL     OW47242   2.814   3.573   2.352  0.1966  0.0844  0.2468
14999SOL    HW147243   2.742   3.504   2.351  0.9348 -0.7194  0.9987
14999SOL    HW247244   2.776   3.662   2.328 -0.8330 -0.5183 -0.3954
15001SOL     OW47245   3.027   6.458   1.043  0.2571  0.1077 -0.0593
15001SOL    HW147246   3.119   6.454   1.004  0.1920  1.0992 -0.3438
15001SOL    HW247247   2.996   6.553   1.044 -1.3698 -0.3818 -1.3714
15002SOL     OW47248   6.640   0.441   0.638  0.0373 -0.0872 -0.0438
15002SOL    HW147249   6.604   0.352   0.610  0.9504 -0.4215 -0.1900
15002SOL    HW247250   6.699   0.477   0.565 -0.2734  0.6014  0.0462
15004SOL     OW47251   7.705   0.219   4.782 -0.5143  0.1443  0.1343
15004SOL    HW147252   7.700   0.250   4.688  0.5692  0.6668  0.2411
15004SOL    HW247253   7.728   0.295   4.842  0.0485 -0.4279  0.6618
15006SOL     OW47254   9.885   4.035   0.871  0.1262  0.0620  0.3615
15006SOL    HW147255   9.980   4.068   0.866 -0.1014  0.7023  0.2418
15006SOL    HW247256   9.875   3.977   0.951  0.3746  0.8124  0.9451
15007SOL     OW47257   5.624   6.635   1.326  0.3745 -0.4154  0.4919
15007SOL    HW147258   5.648   6.668   1.235 -0.4492  0.6476  0.6415
15007SOL    HW247259   5.524   6.625   1.332  0.4742 -1.1129  1.0703
15008SOL     OW47260   2.106   4.707   6.056 -0.3962  0.1817  0.6716
15008SOL    HW147261   2.100   4.651   6.139  0.6515  1.5408  1.6992
15008SOL    HW247262   2.164   4.661   5.989 -0.4709 -0.4908  1.0670
15011SOL     OW47263   1.638   0.621   4.679  0.2165  0.0757  0.6801
15011SOL    HW147264   1.664   0.531   4.715  1.2036 -0.8019 -2.0714
15011SOL    HW247265   1.707   0.689   4.704  0.8530 -0.4979  0.4922
15012SOL     OW47266   3.142   2.872   5.165  0.5257 -0.5526  1.0550
15012SOL    HW147267   3.050   2.838   5.144 -0.0664  1.8403 -0.4874
15012SOL    HW247268   3.210   2.806   5.134 -0.6338 -1.6727  0.8206
15013SOL     OW47269   8.580   7.781   2.147  0.0000 -0.1298  0.1091
15013SOL    HW147270   8.541   7.864   2.186  0.0400  0.0283 -0.1849
15013SOL    HW247271   8.607   7.798   2.052 -1.0577 -0.7933 -0.3353
15014SOL     OW47272   0.451   8.522   0.058 -0.0305 -0.2255 -0.4251
15014SOL    HW147273   0.448   8.588  -0.018  0.2764 -0.1797 -0.3983
15014SOL    HW247274   0.461   8.571   0.144  1.7541 -0.3791 -0.5353
15015SOL     OW47275   3.968   3.771   2.423 -0.1690 -0.0079  0.1560
15015SOL    HW147276   3.880   3.726   2.404  0.3174 -1.5744  1.4650
15015SOL    HW247277   3.971   3.795   2.520  1.3950 -1.2075  0.4159
15016SOL     OW47278   8.576   9.199   2.756  0.6746 -0.1970  0.4001
15016SOL    HW147279   8.575   9.167   2.661  0.2911 -0.0092  0.3360
15016SOL    HW247280   8.639   9.144   2.810 -1.6562 -2.5470  0.8192
15017SOL     OW47281   1.631   8.525   0.603  0.2019  0.2025 -0.4091
15017SOL    HW147282   1.665   8.613   0.637  1.3088 -0.6304  0.6586
15017SOL    HW247283   1.656   8.452   0.666 -1.5255 -0.7778 -0.8093
15019SOL     OW47284   4.939   2.363   5.159  0.5628 -0.4246  0.6287
15019SOL    HW147285   4.921   2.328   5.067  0.2278 -0.6856  0.7946
15019SOL    HW247286   4.909   2.296   5.226  3.6637 -1.6454  0.8892
15020SOL     OW47287   6.202   7.833   5.438 -0.3122  0.0883  0.5591
15020SOL    HW147288   6.276   7.767   5.430 -0.4922  0.1077 -1.3730
15020SOL    HW247289   6.147   7.813   5.520  0.1671 -1.5807  0.4769
15021SOL     OW47290   9.902   2.030   0.240 -0.2255  0.1092 -0.3311
15021SOL    HW147291   9.852   2.093   0.180 -1.1148 -0.5251 -0.2657
15021SOL    HW247292   9.981   2.077   0.280 -0.8033  1.1337 -0.3885
15022SOL     OW47293   4.685   2.750   0.696  0.3532  0.2100 -0.1052
15022SOL    HW147294   4.647   2.712   0.780  0.0034  1.5364  0.3520
15022SOL    HW247295   4.713   2.845   0.712  0.0414  0.5629 -1.5486
15023SOL     OW47296   6.006   9.825   6.329  0.3047 -0.2231 -0.1160
15023SOL    HW147297   6.003   9.894   6.401  0.4452  0.4468 -0.7549
15023SOL    HW247298   5.916   9.782   6.320 -0.3278  1.3056 -1.1188
15024SOL     OW47299   9.311   0.282   0.658 -0.5487 -0.2636  0.1779
15024SOL    HW147300   9.223   0.328   0.669  0.2784  0.9704  1.9088
15024SOL    HW247301   9.304   0.187   0.689 -0.3775  0.8538  3.7874
15025SOL     OW47302   2.451   0.280   3.291  0.4117 -0.2151 -0.0451
15025SOL    HW147303   2.368   0.244   3.333  0.0461 -0.3863 -0.9089
15025SOL    HW247304   2.459   0.245   3.198  1.3367 -0.0223 -0.0420
15026SOL     OW47305   4.214   3.152   6.228 -0.5441 -0.2920 -0.1936
15026SOL    HW147306   4.250   3.226   6.284 -1.0126 -0.8222  0.8233
15026SOL    HW247307   4.286   3.117   6.168 -0.3073  0.9341 -0.6281
15027SOL     OW47308   9.131   1.599   0.081  0.6317 -0.1861 -0.0279
15027SOL    HW147309   9.203   1.540   0.118 -0.7425 -1.8815  0.0281
15027SOL    HW247310   9.131   1.686   0.130  1.8952 -0.6087  0.7530
15028SOL     OW47311   4.244   1.097   6.229  0.1605 -0.6328  0.3643
15028SOL    HW147312   4.167   1.082   6.166 -0.4114 -1.1511  1.1792
15028SOL    HW247313   4.330   1.083   6.180 -0.2703 -0.7380 -0.3775
15029SOL     OW47314   1.907   8.612   1.572  0.3160  0.2402 -0.0261
15029SOL    HW147315   1.841   8.635   1.644 -1.3370  1.7970 -1.9742
15029SOL    HW247316   1.918   8.691   1.511  1.3454 -1.1838 -1.7304
15030SOL     OW47317   0.210   5.263   1.792  0.2309 -0.7186  0.2500
15030SOL    HW147318   0.300   5.278   1.752  0.1600 -1.2491 -0.1128
15030SOL    HW247319   0.160   5.196   1.738 -0.6623  0.1157  0.0282
15031SOL     OW47320   1.572   4.787   3.136  0.2154 -0.3779 -0.7603
15031SOL    HW147321   1.476   4.816   3.128  0.7922  1.9458  0.2966
15031SOL    HW247322   1.632   4.865   3.119  1.8398 -0.7618  2.7195
15032SOL     OW47323   8.453   1.252   5.264  0.4768  0.1114  0.3860
15032SOL    HW147324   8.548   1.259   5.294  0.3935 -0.6099  0.8579
15032SOL    HW247325   8.392   1.270   5.342  0.2179  1.4260 -0.1156
15033SOL     OW47326   1.168   8.103   2.176  0.9797  0.4266  0.0930
15033SOL    HW147327   1.247   8.042   2.181  1.4540  0.9622 -0.8780
15033SOL    HW247328   1.096   8.068   2.236  0.8555 -1.6734 -1.2279
15035SOL     OW47329   8.367   7.952   2.244  0.0558 -0.1184 -0.1043
15035SOL    HW147330   8.329   7.859   2.245 -0.7083  0.1966  0.9440
15035SOL    HW247331   8.301   8.014   2.200 -0.9095  0.5203  2.1509
15036SOL     OW47332   8.330   4.336   5.314  0.6587  0.5182 -0.5729
15036SOL    HW147333   8.256   4.343   5.247  0.8945 -0.0108 -0.8802
15036SOL    HW247334   8.291   4.320   5.405  0.5564 -3.9925 -1.3253
15037SOL     OW47335   2.502   4.675   2.114  0.0809 -0.2152 -0.2542
15037SOL    HW147336   2.597   4.706   2.101 -0.2011  0.1452 -1.6234
15037SOL    HW247337   2.472   4.627   2.031 -1.2424  0.5324 -0.2169
15038SOL     OW47338   4.420   2.166   1.535 -0.1433 -0.4225  0.0532
15038SOL    HW147339   4.391   2.072   1.519  0.0363 -0.2933 -1.1111
15038SOL    HW247340   4.478   2.170   1.616 -1.8264 -0.9806  1.3064
15039SOL     OW47341   4.459   4.134   6.076  0.7991 -0.3214  0.2836
15039SOL    HW147342   4.538   4.152   6.135  0.8755  0.2956  0.0028
15039SOL    HW247343   4.375   4.133   6.131  1.0173 -1.0664  0.5946
15040SOL     OW47344   0.520   0.630   6.233 -0.2583  0.2060  0.1885
15040SOL    HW147345   0.609   0.662   6.267 -1.1239 -0.8119  3.6755
15040SOL    HW247346   0.471   0.707   6.191  1.8058  1.0381 -0.7522
15041SOL     OW47347   6.406   0.669   2.062  0.3998 -0.2583 -0.2812
15041SOL    HW147348   6.309   0.684   2.040  0.2481 -0.5771  0.1733
15041SOL    HW247349   6.431   0.576   2.037  1.2194  0.5601 -2.6549
15042SOL     OW47350   2.042   8.606   4.630 -0.4131 -0.2290  0.0928
15042SOL    HW147351   2.012   8.598   4.725 -1.0541  0.6495 -0.0271
15042SOL    HW247352   2.093   8.691   4.619 -3.7098  1.6703 -1.1970
15043SOL     OW47353   2.635   3.821   5.965  0.1500 -0.5599  0.1459
15043SOL    HW147354   2.693   3.890   5.921 -0.1564 -1.0717 -1.0820
15043SOL    HW247355   2.539   3.846   5.951  0.0623 -0.1420  1.4762
15044SOL     OW47356   4.261   9.884   5.235  0.0658  0.2878 -0.1362
15044SOL    HW147357   4.321   9.846   5.306 -0.2365  1.3368  0.6802
15044SOL    HW247358   4.294   9.975   5.209  0.5234 -0.3320 -1.7748
15045SOL     OW47359   8.398   0.121   0.272  0.1343 -0.0746 -0.5392
15045SOL    HW147360   8.368   0.084   0.184  0.2079 -1.9416  0.2114
15045SOL    HW247361   8.340   0.087   0.345  2.0958 -1.2381  0.5390
15046SOL     OW47362   2.272   2.280   6.283  0.3929 -0.0461  0.1960
15046SOL    HW147363   2.214   2.199   6.271  0.4691  0.1726 -1.7704
15046SOL    HW247364   2.356   2.254   6.330  0.2368 -1.0222 -0.0495
15047SOL     OW47365   1.378   6.108   2.104  0.5384  0.3516  0.0565
15047SOL    HW147366   1.369   6.022   2.054  0.7781  0.3392  0.0354
15047SOL    HW247367   1.326   6.102   2.190  1.3563 -0.1723  0.5230
15048SOL     OW47368   3.428   1.792   1.985 -0.3442  0.1994  0.5707
15048SOL    HW147369   3.458   1.752   2.071 -1.2292 -0.4941  0.5656
15048SOL    HW247370   3.400   1.719   1.922 -0.1835  0.7265 -0.1124
15049SOL     OW47371   0.966   4.758   0.629  0.3371  0.2474 -0.2561
15049SOL    HW147372   0.918   4.677   0.662  1.4653 -0.9367 -1.4756
15049SOL    HW247373   0.899   4.826   0.598 -0.6009 -0.4245  0.2861
15050SOL     OW47374   2.681   7.691   0.094 -0.3892  0.3208 -0.2256
15050SOL    HW147375   2.633   7.697   0.182 -1.0139 -0.4395 -0.5049
15050SOL    HW247376   2.623   7.643   0.028 -0.7953  2.7821 -1.6960
15051SOL     OW47377   4.241   2.956   4.589  0.6606 -0.1898  0.0949
15051SOL    HW147378   4.218   2.983   4.496 -0.6097  1.4342  0.8606
15051SOL    HW247379   4.329   2.997   4.615 -0.5514  2.0362  0.7353
15052SOL     OW47380   4.052   8.438   5.262  0.2345  0.1177  0.0762
15052SOL    HW147381   4.106   8.363   5.301  0.4468 -0.0437 -0.5137
15052SOL    HW247382   3.959   8.405   5.242  0.7330 -0.4106 -1.4987
15053SOL     OW47383   2.622   7.649   6.171 -0.3843 -0.1252 -0.0623
15053SOL    HW147384   2.599   7.566   6.223  1.0933  0.2830  1.2607
15053SOL    HW247385   2.700   7.630   6.112  0.0310  0.3433  0.3306
15054SOL     OW47386   1.302   3.435   4.387 -0.3262 -0.0142  0.0207
15054SOL    HW147387   1.259   3.518   4.422  0.4644  0.0831  0.7876
15054SOL    HW247388   1.232   3.370   4.358 -0.9743  0.3843  0.6840
15055SOL     OW47389   1.716   4.070   0.365  0.0875  0.6272  0.4409
15055SOL    HW147390   1.746   3.982   0.326  2.4081  1.8086 -0.5492
15055SOL    HW247391   1.673   4.054   0.454  1.7444 -1.4038  0.9247
15056SOL     OW47392   7.251   7.817   3.003 -0.2618  0.0299 -0.0654
15056SOL    HW147393   7.153   7.832   2.992 -0.5989 -0.8753  1.5664
15056SOL    HW247394   7.296   7.905   3.018 -0.6257  0.5967 -2.1437
15057SOL     OW47395   0.792   6.425   3.225  0.0255  0.1212 -0.2229
15057SOL    HW147396   0.807   6.513   3.180  1.6359  0.1971  0.4159
15057SOL    HW247397   0.843   6.423   3.311  0.8611 -1.8281 -0.7371
15058SOL     OW47398   6.279   2.470   5.029  0.0513  0.1913 -0.2692
15058SOL    HW147399   6.374   2.481   4.999 -0.4241  1.2892 -1.4117
15058SOL    HW247400   6.271   2.499   5.125  0.7110  0.9131 -0.4247
15060SOL     OW47401   0.887   5.684   4.551 -0.4667  0.4277  0.0721
15060SOL    HW147402   0.841   5.616   4.493  0.2347  0.4412 -0.4962
15060SOL    HW247403   0.824   5.760   4.569 -0.9130  0.1053 -0.1014
15061SOL     OW47404   9.929   9.350   0.731 -0.3591 -0.2740 -0.1991
15061SOL    HW147405   9.939   9.295   0.813  1.7225  0.9206  0.3914
15061SOL    HW247406   9.843   9.400   0.735  0.0243  0.2863  1.5980
15062SOL     OW47407   3.691   9.327   2.081 -0.3765 -0.1669 -0.1200
15062SOL    HW147408   3.717   9.242   2.036 -2.4433 -1.5515  1.1539
15062SOL    HW247409   3.649   9.305   2.169 -1.3113  2.1702  0.0390
15064SOL     OW47410   0.329   1.814   6.401 -0.2726 -0.2529  0.2023
15064SOL    HW147411   0.305   1.890   6.461  1.2873  0.5613 -0.1769
15064SOL    HW247412   0.425   1.821   6.375 -0.4557 -1.6194 -0.9149
15066SOL     OW47413   7.614   0.229   1.275  0.1411 -0.0402 -0.1838
15066SOL    HW147414   7.684   0.268   1.335  0.6719  0.0542 -0.8626
15066SOL    HW247415   7.527   0.224   1.324  0.6916 -0.4394  0.7628
15067SOL     OW47416   9.054   5.099   6.337  0.1027 -0.1973  0.0363
15067SOL    HW147417   8.976   5.083   6.399  0.3632  0.3137  0.5031
15067SOL    HW247418   9.077   5.196   6.337  1.2575 -0.4648  0.5202
15068SOL     OW47419   3.020   8.863   0.140  0.5736 -0.1970  0.2743
15068SOL    HW147420   2.946   8.882   0.075  0.7273  0.3639  0.2539
15068SOL    HW247421   2.988   8.801   0.211  0.4707 -1.0120 -0.4766
15070SOL     OW47422   1.155   7.988   2.484  0.2424  0.4083  0.4391
15070SOL    HW147423   1.150   8.085   2.506  1.8548  0.2785  1.4787
15070SOL    HW247424   1.251   7.963   2.467 -0.1760 -0.9631  0.0224
15071SOL     OW47425   0.807   2.656   3.346  0.0193 -0.0102 -0.1658
15071SOL    HW147426   0.759   2.569   3.346 -1.8099  0.9741  0.5812
15071SOL    HW247427   0.746   2.728   3.314  1.2012  1.1761  0.1699
15072SOL     OW47428   1.545   4.198   6.304  0.3430  0.5697 -0.0954
15072SOL    HW147429   1.548   4.181   6.205 -2.5760  2.7117 -0.6066
15072SOL    HW247430   1.623   4.255   6.330  0.7650  0.5590 -1.2861
15073SOL     OW47431   7.861   2.154   3.836  0.2900 -0.1664  0.6178
15073SOL    HW147432   7.955   2.130   3.813  1.1128  0.5313  3.0779
15073SOL    HW247433   7.850   2.253   3.828 -0.6124 -0.3646 -0.8521
15074SOL     OW47434   3.999   5.105   2.009 -0.5292  0.1643  0.2942
15074SOL    HW147435   3.957   5.164   2.078  0.2140  0.6065  0.3690
15074SOL    HW247436   4.086   5.071   2.043 -0.4785 -0.1635 -0.1632
15076SOL     OW47437   0.036   1.410   6.360 -0.3185  0.5849 -0.1519
15076SOL    HW147438   0.112   1.346   6.370 -0.9198 -0.4342 -1.9365
15076SOL    HW247439  -0.049   1.359   6.347 -0.8857  1.7403 -1.0228
15077SOL     OW47440   0.856   9.315   2.913  0.3136  0.5689  0.1011
15077SOL    HW147441   0.913   9.267   2.847 -0.6509 -0.2727 -0.1373
15077SOL    HW247442   0.846   9.258   2.995  1.0618  1.3727  0.7644
15078SOL     OW47443   3.583   9.780   1.864 -0.0840  0.3739 -0.4305
15078SOL    HW147444   3.571   9.756   1.961  0.9335  0.0319 -0.3802
15078SOL    HW247445   3.501   9.756   1.813 -0.6768  0.6602  0.3729
15079SOL     OW47446   9.955   7.658   0.871  0.1259  0.0221 -0.1843
15079SOL    HW147447   9.937   7.576   0.924  1.5223  0.5251  1.1165
15079SOL    HW247448  10.047   7.654   0.834  0.8704  1.7540  1.3811
15080SOL     OW47449   9.278   8.655   2.375  0.3537  0.3124  0.3068
15080SOL    HW147450   9.346   8.596   2.419  0.2490 -0.3340 -0.3781
15080SOL    HW247451   9.308   8.675   2.281 -0.8835 -0.8249 -0.3502
15081SOL     OW47452   8.949   1.904   2.024  0.0259 -0.0046 -0.1483
15081SOL    HW147453   9.016   1.979   2.026 -1.4368  1.3186  1.7087
15081SOL    HW247454   8.857   1.943   2.019 -0.6499 -1.7768 -1.6098
15082SOL     OW47455   5.105   0.990   1.175  0.5234 -0.4790  0.2291
15082SOL    HW147456   5.072   0.999   1.081  1.9013 -2.3617 -0.4550
15082SOL    HW247457   5.029   1.006   1.238 -0.7686 -0.7537 -1.2335
15083SOL     OW47458   8.940   0.410   4.194  0.2201 -0.1365 -0.4042
15083SOL    HW147459   8.927   0.336   4.261  1.4151 -0.1531 -0.1808
15083SOL    HW247460   8.892   0.387   4.110  0.1838 -0.9533 -0.1675
15084SOL     OW47461   1.950   5.630   0.335 -0.0118 -0.2676  0.3287
15084SOL    HW147462   1.965   5.726   0.357  0.4275 -0.6151  1.6078
15084SOL    HW247463   1.884   5.622   0.260 -0.8713  0.9850  0.9435
15085SOL     OW47464   9.721   6.638   2.132 -0.2053 -0.5156 -0.5030
15085SOL    HW147465   9.723   6.715   2.195  0.4833 -0.3654 -0.7007
15085SOL    HW247466   9.776   6.562   2.169 -0.5855 -0.7783 -0.4741
15086SOL     OW47467   0.089   0.731   6.273  0.3408 -0.5121 -0.7461
15086SOL    HW147468   0.114   0.667   6.346 -2.1348  1.3616  1.8514
15086SOL    HW247469   0.171   0.778   6.241  1.3861 -0.8281  1.3592
15087SOL     OW47470   3.521   4.289   5.699 -0.0734 -0.9044  0.0086
15087SOL    HW147471   3.509   4.363   5.632  0.7000 -0.8987 -0.1360
15087SOL    HW247472   3.613   4.294   5.737 -0.3414 -1.2216  0.7040
15088SOL     OW47473   9.131   8.362   4.204  0.7622 -0.6021  0.1899
15088SOL    HW147474   9.162   8.377   4.298  0.2545  0.8212  0.1431
15088SOL    HW247475   9.047   8.415   4.188  1.1137 -0.4536 -1.2171
15089SOL     OW47476   0.571   1.056   3.121  0.3592  0.3347  0.7367
15089SOL    HW147477   0.571   1.156   3.112  2.3783  0.5606  2.8499
15089SOL    HW247478   0.577   1.015   3.030 -0.3568  2.1365 -0.1524
15090SOL     OW47479   9.554   3.371   2.560 -0.3390 -0.3352  0.0198
15090SOL    HW147480   9.495   3.335   2.632  0.4441  2.5589  2.2283
15090SOL    HW247481   9.507   3.446   2.513  0.6645  0.4708  0.2671
15091SOL     OW47482   2.997   5.795   2.088 -0.2786 -0.0449  0.0412
15091SOL    HW147483   3.094   5.775   2.078  0.1493  1.9730 -0.0046
15091SOL    HW247484   2.952   5.720   2.136  2.1793  0.9997  4.1908
15093SOL     OW47485   9.738   6.863   3.585  0.4470 -0.4695 -0.2007
15093SOL    HW147486   9.808   6.813   3.635  1.7405  0.7550 -0.7419
15093SOL    HW247487   9.781   6.934   3.529 -1.2381  0.4618 -0.3658
15094SOL     OW47488   1.746   1.049   2.644  0.0399 -0.4350  0.0927
15094SOL    HW147489   1.806   1.012   2.573  1.0672  0.3689  0.5232
15094SOL    HW247490   1.659   1.076   2.604  0.1650 -1.1040 -0.6455
15095SOL     OW47491   4.701   0.493   0.463  0.4341 -0.0173  0.0509
15095SOL    HW147492   4.778   0.555   0.481 -0.8366  1.3340  1.0055
15095SOL    HW247493   4.677   0.445   0.547  1.2014 -1.5893 -0.6131
15096SOL     OW47494   9.456   9.126   1.338 -0.1365  0.3347  0.3667
15096SOL    HW147495   9.410   9.195   1.394 -1.8962  0.9076 -1.6957
15096SOL    HW247496   9.400   9.043   1.334  0.1881  0.1362 -0.1597
15097SOL     OW47497   4.764   2.143   0.761 -0.1801 -0.5755  0.2605
15097SOL    HW147498   4.789   2.186   0.674 -0.1703  0.6536  0.8629
15097SOL    HW247499   4.834   2.163   0.829  0.0030 -1.8547  0.4619
15098SOL     OW47500   3.330   3.773   1.164 -0.2077 -0.5266  0.0321
15098SOL    HW147501   3.267   3.703   1.131 -2.2264  1.3977 -0.3303
15098SOL    HW247502   3.293   3.814   1.248  1.0107  0.0041  0.3186
15099SOL     OW47503   4.492   0.665   0.353 -0.1757 -0.3034  0.1779
15099SOL    HW147504   4.551   0.605   0.407 -1.2580 -1.7797 -0.2644
15099SOL    HW247505   4.417   0.612   0.314  1.4769  0.3467 -4.1860
15100SOL     OW47506   6.683   9.330   5.711  0.7444  0.2483 -0.6983
15100SOL    HW147507   6.656   9.260   5.777  2.3652 -1.7791 -2.1427
15100SOL    HW247508   6.608   9.347   5.647  0.2169  0.1319 -0.1208
15101SOL     OW47509   7.132   7.134   6.417  0.1580 -0.2040 -1.0468
15101SOL    HW147510   7.032   7.132   6.419  0.1839 -2.0497  1.9784
15101SOL    HW247511   7.165   7.195   6.489  1.2288 -0.3957 -1.3694
15102SOL     OW47512   3.365   0.210   0.716 -0.1145  0.7484  0.1908
15102SOL    HW147513   3.287   0.163   0.674  0.0170 -1.1729  1.9684
15102SOL    HW247514   3.449   0.183   0.669 -0.1565 -0.0504  0.5507
15103SOL     OW47515   8.968   9.977   5.044  0.3044  0.3760 -0.0806
15103SOL    HW147516   8.963  10.076   5.050  0.7616  0.4257 -0.4557
15103SOL    HW247517   9.001   9.951   4.952  1.0687 -0.0892  0.3152
15104SOL     OW47518   3.344   4.735   1.933 -0.4115  0.1028  0.2351
15104SOL    HW147519   3.334   4.763   2.028  0.5758  0.5642  0.2039
15104SOL    HW247520   3.382   4.642   1.930  1.8735  1.0001  0.2850
15105SOL     OW47521   4.029   9.661   5.921  0.2761  0.0041 -0.2087
15105SOL    HW147522   4.058   9.686   6.013 -0.8655  0.2274  0.0873
15105SOL    HW247523   3.938   9.698   5.903 -0.0457 -1.1426 -0.9588
15106SOL     OW47524   2.086   8.874   6.441  0.5798 -0.3459  0.3557
15106SOL    HW147525   2.073   8.774   6.442  1.0340 -0.4745 -2.4769
15106SOL    HW247526   2.121   8.902   6.352 -1.1479  2.5678  0.5173
15107SOL     OW47527   0.460   8.592   6.065 -0.1864 -0.0241  0.0405
15107SOL    HW147528   0.475   8.658   5.991  0.7512 -1.6112 -1.2054
15107SOL    HW247529   0.374   8.543   6.050 -0.4970  0.3424  0.5631
15108SOL     OW47530   8.944   9.813   1.667 -0.1416 -0.2430  0.4528
15108SOL    HW147531   8.914   9.763   1.586 -0.0562  2.5620 -1.3631
15108SOL    HW247532   8.868   9.822   1.731 -1.2872  0.7841 -1.0183
15109SOL     OW47533   2.909   1.390   4.473  0.6584  0.0004  0.3243
15109SOL    HW147534   3.006   1.373   4.491  0.2691 -0.9154  1.5764
15109SOL    HW247535   2.872   1.450   4.543 -0.3444 -1.8641  1.3976
15110SOL     OW47536   0.374   7.101   2.506  0.7611  0.1756 -0.0557
15110SOL    HW147537   0.419   7.013   2.491  2.3176  0.9938 -0.2921
15110SOL    HW247538   0.316   7.095   2.587  1.0820 -0.9817  0.1025
15112SOL     OW47539   4.700   7.463   3.740  0.2446 -0.4015  0.1743
15112SOL    HW147540   4.699   7.553   3.698  0.6760  0.0703  1.1629
15112SOL    HW247541   4.620   7.452   3.799 -0.7633 -1.3441 -1.3137
15114SOL     OW47542   0.705   2.717   5.177  0.2912 -0.5658 -0.2991
15114SOL    HW147543   0.613   2.703   5.142  0.2009  2.7164 -1.5660
15114SOL    HW247544   0.761   2.763   5.108  1.8299  0.7277  1.7123
15115SOL     OW47545   9.826   5.926   0.544  0.1275  0.2416  0.6829
15115SOL    HW147546   9.809   5.844   0.599  0.9016  0.3171  1.0470
15115SOL    HW247547   9.915   5.918   0.499  0.9769  1.6014  2.0631
15116SOL     OW47548   0.710   2.004   2.293 -0.2576  0.2388 -0.4054
15116SOL    HW147549   0.656   2.045   2.367  1.9147 -0.8582  1.8728
15116SOL    HW247550   0.693   1.906   2.290 -1.4594  0.4898 -2.3833
15117SOL     OW47551   1.521   0.739   4.441  0.1335 -0.1236 -0.4737
15117SOL    HW147552   1.543   0.722   4.537  1.2642  0.7783 -0.5577
15117SOL    HW247553   1.510   0.652   4.394 -1.2061 -0.5823  0.6347
15119SOL     OW47554   9.231   2.189   2.325 -0.2741 -0.0069  0.0408
15119SOL    HW147555   9.318   2.141   2.321 -0.5476 -0.3931 -1.4878
15119SOL    HW247556   9.195   2.186   2.418 -0.6114 -3.3368 -0.1469
15120SOL     OW47557   6.794   8.574   5.308 -0.0111 -0.2281 -0.1875
15120SOL    HW147558   6.699   8.606   5.307  0.2270  0.5747  1.1684
15120SOL    HW247559   6.817   8.536   5.218 -2.1142 -1.9509 -0.0563
15121SOL     OW47560   9.309   1.744   3.779  0.3235  0.1975  0.4471
15121SOL    HW147561   9.355   1.795   3.851  2.7152  0.7289 -1.4160
15121SOL    HW247562   9.294   1.803   3.700  0.1163 -1.0718 -0.4846
15122SOL     OW47563   7.857   1.498   3.132 -0.4338 -0.6468  0.0226
15122SOL    HW147564   7.793   1.494   3.209 -0.8880 -0.0516 -0.3227
15122SOL    HW247565   7.885   1.406   3.107 -1.0251 -0.8974  0.2852
15124SOL     OW47566   0.563   6.184   6.144 -0.7170  0.4022 -0.1017
15124SOL    HW147567   0.552   6.103   6.201 -0.4710 -0.9280 -1.8966
15124SOL    HW247568   0.660   6.198   6.125 -0.5953  2.2222  1.7298
15126SOL     OW47569   9.259   2.752   1.781  0.0590  0.4226  0.7547
15126SOL    HW147570   9.196   2.818   1.741 -1.2484 -1.2373  0.0038
15126SOL    HW247571   9.207   2.679   1.825  1.4516 -0.9098  0.2341
15127SOL     OW47572   2.157   2.642   4.137 -0.2887  0.1187 -0.0856
15127SOL    HW147573   2.132   2.646   4.040  1.5587  1.5725 -0.5416
15127SOL    HW247574   2.235   2.580   4.148 -0.0377  0.5087  0.3415
15128SOL     OW47575   3.402   8.674   3.267 -0.5223  0.2376  0.2388
15128SOL    HW147576   3.447   8.752   3.309 -1.9384  0.2319  1.7975
15128SOL    HW247577   3.318   8.704   3.221 -0.6147 -0.2385  0.0920
15131SOL     OW47578   1.769   2.908   4.436 -0.2551 -0.2805  0.6806
15131SOL    HW147579   1.769   2.940   4.531 -2.6112 -0.0879  0.6409
15131SOL    HW247580   1.677   2.879   4.411 -0.3485  2.4965 -2.5057
15133SOL     OW47581   9.385   1.623   5.948  0.0520 -0.4125 -0.1614
15133SOL    HW147582   9.465   1.586   5.901  1.1160  1.0466  0.4496
15133SOL    HW247583   9.387   1.593   6.044 -0.8472 -1.4447 -0.4548
15134SOL     OW47584   0.170   9.711   2.532 -0.2509 -0.2897  0.1081
15134SOL    HW147585   0.090   9.709   2.592  0.4356 -0.1295  1.0439
15134SOL    HW247586   0.219   9.624   2.540 -0.9984 -0.8653 -1.3982
15135SOL     OW47587   6.779   8.517   4.355  0.0221 -0.2068 -0.5503
15135SOL    HW147588   6.766   8.610   4.320 -1.6292  0.2738  1.1941
15135SOL    HW247589   6.853   8.517   4.422 -1.2612  0.2801  0.8930
15137SOL     OW47590   8.977   4.118   0.904  1.1490 -0.6707  0.2234
15137SOL    HW147591   8.898   4.179   0.908  2.4246  1.4569 -3.9765
15137SOL    HW247592   8.951   4.028   0.938 -2.7599  0.2646 -0.0250
15140SOL     OW47593   4.312   8.391   3.957 -0.0391 -0.1606 -0.0810
15140SOL    HW147594   4.304   8.483   3.994 -0.8844 -0.4741  0.5509
15140SOL    HW247595   4.408   8.363   3.957  0.0815  0.2380  0.9247
15142SOL     OW47596   3.051   6.335   0.184 -0.0723 -0.3517  0.0607
15142SOL    HW147597   3.118   6.271   0.222 -0.0786 -0.7355 -0.5584
15142SOL    HW247598   3.039   6.316   0.086  0.6888  1.2351 -0.3705
15143SOL     OW47599   3.837   1.768   1.851  0.3773 -0.1139  0.2280
15143SOL    HW147600   3.862   1.718   1.934  1.6759  0.6978  0.3327
15143SOL    HW247601   3.844   1.867   1.868  0.8744  0.0587 -0.9115
15144SOL     OW47602   5.855   9.282   3.186 -0.5706 -0.0367  0.2141
15144SOL    HW147603   5.840   9.381   3.188  1.1922  0.2272  0.7880
15144SOL    HW247604   5.895   9.252   3.273  1.1174 -0.8924 -0.8358
15145SOL     OW47605   2.735   7.146   0.435 -0.4967  0.2397  0.0694
15145SOL    HW147606   2.660   7.126   0.373 -0.5073  0.4271  0.0200
15145SOL    HW247607   2.813   7.182   0.383 -0.6288  0.7294  0.2022
15147SOL     OW47608   3.708   8.749   0.458  0.1049 -0.5786  0.0301
15147SOL    HW147609   3.806   8.758   0.478  0.5472 -1.0915 -1.7715
15147SOL    HW247610   3.696   8.735   0.359 -1.9030  1.3458 -0.0244
15149SOL     OW47611   0.738   9.802   0.221  0.4465 -0.0442  0.2645
15149SOL    HW147612   0.655   9.763   0.260  0.9511  0.5698  1.9544
15149SOL    HW247613   0.816   9.742   0.240  0.6824  0.2118  0.1258
15150SOL     OW47614   1.869   1.983   2.438  0.1560 -0.1168  0.0712
15150SOL    HW147615   1.919   2.045   2.377 -0.8131  1.3797  0.7606
15150SOL    HW247616   1.771   1.997   2.427 -0.1076 -2.2449 -0.4557
15151SOL     OW47617   8.748   5.757   0.586  0.0713  0.0978 -0.3765
15151SOL    HW147618   8.700   5.837   0.623  1.0806  0.9791 -0.9391
15151SOL    HW247619   8.687   5.706   0.526 -0.8199  0.0197  0.5906
15152SOL     OW47620   2.512   7.028   4.275  0.0276 -0.1297  0.0368
15152SOL    HW147621   2.483   7.121   4.300 -0.0834  0.0843 -0.8640
15152SOL    HW247622   2.612   7.024   4.274  0.0340  0.0349 -0.1053
15153SOL     OW47623   4.007   1.058   6.102 -0.1411 -0.0869  0.3145
15153SOL    HW147624   4.016   1.038   6.004  0.4285 -0.2096  0.3917
15153SOL    HW247625   3.920   1.104   6.118  0.9800  2.4695 -0.6502
15154SOL     OW47626   4.499   6.656   0.941  0.1729  0.5679  0.0327
15154SOL    HW147627   4.533   6.651   1.035 -0.1665  1.3650  0.2000
15154SOL    HW247628   4.469   6.565   0.911 -1.0640  0.5997  1.1833
15155SOL     OW47629   3.153   8.957   1.543 -0.1623 -0.1290 -0.3465
15155SOL    HW147630   3.170   8.977   1.640 -0.1437  0.4696 -0.4666
15155SOL    HW247631   3.224   9.001   1.488 -0.1991 -0.4332 -0.6363
15156SOL     OW47632   6.246   9.952   2.913 -0.3164  0.3867 -0.3479
15156SOL    HW147633   6.345   9.967   2.912  0.0371 -1.5449  1.8621
15156SOL    HW247634   6.202  10.022   2.970  0.1867 -0.7057  1.4390
15157SOL     OW47635   1.187   2.981   1.474  0.1312 -0.0551  0.0148
15157SOL    HW147636   1.194   2.994   1.573 -0.6639  0.6325 -0.0099
15157SOL    HW247637   1.238   3.054   1.427 -1.0669  0.7158 -0.0960
15158SOL     OW47638   9.708   4.335   4.845  0.4482  0.2547  0.2166
15158SOL    HW147639   9.796   4.329   4.798  0.9278  1.2671  0.9819
15158SOL    HW247640   9.640   4.282   4.794  0.8752  1.5875 -1.7795
15159SOL     OW47641   1.614   2.042   2.344  0.5906 -0.7266 -0.1037
15159SOL    HW147642   1.535   2.025   2.285  1.3134 -2.6740 -0.5567
15159SOL    HW247643   1.583   2.067   2.435 -0.5467 -1.4247 -0.2949
15160SOL     OW47644   6.267   1.044   5.252 -0.1033 -0.3791 -0.3852
15160SOL    HW147645   6.171   1.064   5.236  0.2727  1.4370 -0.4124
15160SOL    HW247646   6.287   0.951   5.219 -1.6726 -0.5148 -1.0064
15161SOL     OW47647   1.770   1.457   4.463 -0.3608 -0.5889  0.0709
15161SOL    HW147648   1.807   1.544   4.495 -1.7200 -0.4405  1.3146
15161SOL    HW247649   1.724   1.410   4.539 -1.0499 -1.6244 -0.9640
15162SOL     OW47650   9.162   9.128   3.055  0.2111  0.0643  0.0536
15162SOL    HW147651   9.202   9.039   3.035  0.0767 -0.2510  1.1752
15162SOL    HW247652   9.093   9.150   2.986 -0.8924 -1.4238  0.6737
15163SOL     OW47653   9.723   7.062   1.489  0.3830  0.0880 -0.3126
15163SOL    HW147654   9.699   6.971   1.522  1.6800 -0.1369  0.0490
15163SOL    HW247655   9.785   7.106   1.554  1.7603  0.2368 -1.6775
15164SOL     OW47656   7.455   2.994   1.111  0.5745  0.5117  0.2101
15164SOL    HW147657   7.360   3.019   1.092  1.0938  0.9327 -1.9958
15164SOL    HW247658   7.478   2.911   1.061  0.6336 -1.0873  2.7987
15165SOL     OW47659   2.269   9.299   0.380  0.3614 -0.0074  0.0694
15165SOL    HW147660   2.298   9.244   0.302 -2.0163  0.1535 -0.9553
15165SOL    HW247661   2.331   9.283   0.457  2.6082 -0.3299 -1.7593
15166SOL     OW47662   4.674   9.736   3.565  0.1154  0.3557  0.7464
15166SOL    HW147663   4.614   9.758   3.642 -0.4099 -1.5904  0.9285
15166SOL    HW247664   4.758   9.693   3.600 -1.0020 -2.4117  0.1613
15167SOL     OW47665   4.266   9.934   1.091 -0.3613 -0.3596  0.1297
15167SOL    HW147666   4.310   9.954   1.179  1.6312 -3.1239 -0.1746
15167SOL    HW247667   4.214   9.849   1.098  0.3750 -0.9640 -1.5210
15168SOL     OW47668   4.717   7.421   5.235 -0.1585  0.0292 -0.2751
15168SOL    HW147669   4.778   7.387   5.164 -1.1589 -0.6721 -0.8168
15168SOL    HW247670   4.758   7.406   5.325  0.5584 -0.2268 -0.6424
15169SOL     OW47671   4.366   9.826   2.978  0.1393 -0.1464  0.2000
15169SOL    HW147672   4.307   9.899   3.013  0.3929 -0.5622  1.5476
15169SOL    HW247673   4.353   9.816   2.880  1.0323  2.5708 -0.2379
15170SOL     OW47674   0.784   2.385   0.382 -0.8583 -0.2459  0.0515
15170SOL    HW147675   0.697   2.337   0.378 -1.2603  0.3747  1.2136
15170SOL    HW247676   0.789   2.439   0.466  0.4297  0.1347 -0.2546
15171SOL     OW47677   8.117   8.382   4.844  0.1637 -0.4266 -0.0242
15171SOL    HW147678   8.036   8.337   4.881  0.3366  0.3757  1.3532
15171SOL    HW247679   8.192   8.373   4.909  1.0429 -0.7306 -1.0749
15172SOL     OW47680   7.740   7.456   0.089 -0.0802  0.4085 -0.5543
15172SOL    HW147681   7.760   7.444  -0.008  0.1763 -2.0143 -0.2324
15172SOL    HW247682   7.653   7.412   0.112  0.3726  0.0183  0.4975
15174SOL     OW47683   9.969   1.917   4.589 -0.3710 -0.6671 -0.0678
15174SOL    HW147684   9.990   1.895   4.494  0.0692 -1.0316  0.1139
15174SOL    HW247685   9.985   1.837   4.647 -1.7499 -0.8033  0.1540
15175SOL     OW47686   7.864   2.557   2.490  0.4764  0.0683  0.1801
15175SOL    HW147687   7.865   2.562   2.390 -0.7718  2.0831  0.2376
15175SOL    HW247688   7.947   2.599   2.526  1.3631 -1.4787 -0.0099
15176SOL     OW47689   1.684   3.295   4.330 -0.2441 -0.1164  0.0636
15176SOL    HW147690   1.623   3.359   4.282 -1.0241 -0.1545  0.9915
15176SOL    HW247691   1.711   3.334   4.418  2.4101  0.6144 -1.0253
15177SOL     OW47692   3.379   1.359   1.756 -0.7668 -0.1566 -0.0760
15177SOL    HW147693   3.337   1.313   1.677 -1.0115 -1.4990  0.8162
15177SOL    HW247694   3.453   1.301   1.792 -0.3452  0.6696  0.3864
15178SOL     OW47695   2.414   2.502   4.124 -0.4258  0.6290  0.0072
15178SOL    HW147696   2.467   2.448   4.190 -0.3129 -0.4921 -0.9687
15178SOL    HW247697   2.421   2.459   4.034  0.2612  2.7012 -0.9563
15181SOL     OW47698   2.413   3.119   5.113  0.2466  0.0008 -0.0755
15181SOL    HW147699   2.484   3.176   5.154  0.1972 -0.5369  0.7629
15181SOL    HW247700   2.394   3.042   5.173 -1.0088  0.1124 -0.3292
15183SOL     OW47701   7.741   3.930   1.823  0.3097  0.1458 -0.2636
15183SOL    HW147702   7.680   3.954   1.748 -0.7258 -0.2381  0.4356
15183SOL    HW247703   7.739   3.831   1.837  1.6889  0.0495 -0.7314
15184SOL     OW47704   6.533   3.728   1.915 -0.0506  0.1744 -0.0372
15184SOL    HW147705   6.494   3.769   1.997  1.3605 -0.3434  0.9252
15184SOL    HW247706   6.618   3.775   1.891  0.4724 -0.7994 -0.1464
15185SOL     OW47707   5.114   1.897   3.735 -0.3810 -0.6055  0.6074
15185SOL    HW147708   5.138   1.807   3.697 -0.8636 -0.4449 -0.0960
15185SOL    HW247709   5.083   1.957   3.661  0.2746  0.2546  1.0232
15186SOL     OW47710   3.230   2.900   4.722  0.0961 -0.4512 -0.2687
15186SOL    HW147711   3.184   2.987   4.708  2.3435  0.7870 -0.2260
15186SOL    HW247712   3.171   2.838   4.773 -1.5859  0.9956 -0.4378
15188SOL     OW47713   6.074   7.328   5.987  0.4703 -0.4244  0.5224
15188SOL    HW147714   6.091   7.234   5.959 -0.5921 -0.8063  1.1428
15188SOL    HW247715   6.081   7.388   5.907  0.1429 -1.1625 -0.0619
15191SOL     OW47716   2.006   4.371   2.799  0.5061 -0.0167  0.1390
15191SOL    HW147717   1.964   4.394   2.711  1.9370  1.1402 -0.2836
15191SOL    HW247718   2.082   4.308   2.784  1.2007  0.7324  0.4443
15192SOL     OW47719   0.724   6.786   6.354 -0.6552 -0.1284  0.8377
15192SOL    HW147720   0.654   6.858   6.352  1.0422  1.5487 -0.0433
15192SOL    HW247721   0.743   6.760   6.449  0.1898  2.1229  1.3184
15194SOL     OW47722   1.032   9.785   0.967  0.0730  0.0995 -0.0899
15194SOL    HW147723   1.126   9.818   0.965  0.0165  0.2869  0.3421
15194SOL    HW247724   0.995   9.785   0.874  0.2589  0.7265 -0.1684
15195SOL     OW47725   2.156   9.886   4.111 -0.7407 -0.2861  0.2814
15195SOL    HW147726   2.180   9.853   4.020  3.5510 -0.9054  1.5334
15195SOL    HW247727   2.127   9.982   4.105 -0.0737 -0.1765 -1.6836
15197SOL     OW47728   2.269   1.778   4.779 -0.5412 -0.1776 -0.9468
15197SOL    HW147729   2.345   1.712   4.789 -1.4997 -1.5210 -2.3274
15197SOL    HW247730   2.220   1.784   4.865  0.2511 -0.4074 -0.4661
15198SOL     OW47731   9.550   2.111   1.940 -0.2538 -0.3127  0.0316
15198SOL    HW147732   9.643   2.096   1.974 -0.8181 -1.1491  1.2425
15198SOL    HW247733   9.540   2.069   1.850  0.3745 -0.7208  0.1544
15200SOL     OW47734   2.308   9.139   3.335 -0.0911 -0.1278  0.2851
15200SOL    HW147735   2.340   9.196   3.411 -1.2715 -0.8570  1.3361
15200SOL    HW247736   2.381   9.077   3.307  0.0917 -0.3957  1.3458
15201SOL     OW47737   6.639   0.991   5.639 -0.2284 -0.0042  0.0214
15201SOL    HW147738   6.611   0.989   5.544  0.0652  1.5761 -0.1154
15201SOL    HW247739   6.632   1.084   5.674 -3.5788 -1.1261  2.5558
15202SOL     OW47740   2.025   0.145   0.140  0.3385 -0.2472 -0.2540
15202SOL    HW147741   2.051   0.147   0.043  0.4421  1.0007 -0.2079
15202SOL    HW247742   2.076   0.072   0.186  1.6879  0.3503 -0.7529
15203SOL     OW47743   8.535   9.086   6.030 -0.2869 -0.1172 -0.2963
15203SOL    HW147744   8.504   9.113   6.121  0.4276  1.0344 -0.3783
15203SOL    HW247745   8.477   9.014   5.994 -0.2225 -0.9948  1.3258
15204SOL     OW47746   8.000   3.445   5.322  0.1375 -0.0740  0.2132
15204SOL    HW147747   7.959   3.460   5.232 -2.2209  2.4109  1.6311
15204SOL    HW247748   7.980   3.353   5.353 -2.3762  0.3268 -0.1533
15205SOL     OW47749   2.390   6.171   4.335 -0.0431  0.1375 -0.1135
15205SOL    HW147750   2.406   6.140   4.429 -1.2137  1.5600  0.5831
15205SOL    HW247751   2.453   6.245   4.313  0.0182  0.0177 -0.3467
15206SOL     OW47752   8.099   0.995   0.481 -0.0341 -0.1630  0.1393
15206SOL    HW147753   8.025   0.933   0.507 -1.2311  0.6141 -1.3863
15206SOL    HW247754   8.116   0.987   0.383  0.9007  0.7583  0.2191
15208SOL     OW47755   4.851   3.618   5.438  0.1355  0.5230  0.0035
15208SOL    HW147756   4.865   3.597   5.342  2.2278  0.5527  0.2680
15208SOL    HW247757   4.814   3.538   5.485  0.3209  0.0927 -0.5856
15209SOL     OW47758   9.494   0.707   0.771  0.2700  0.3390 -0.6478
15209SOL    HW147759   9.406   0.714   0.818  1.2529 -0.7466  1.4190
15209SOL    HW247760   9.495   0.624   0.715  0.5768 -0.5738  0.6777
15210SOL     OW47761   3.244   3.139   5.062  0.2426  0.1298  0.1607
15210SOL    HW147762   3.317   3.085   5.021  0.6162 -0.0655  1.0893
15210SOL    HW247763   3.178   3.079   5.107 -0.9712  0.2362 -1.4186
15211SOL     OW47764   4.825   9.014   3.587 -0.0565  0.0776 -0.6265
15211SOL    HW147765   4.856   9.050   3.675 -0.7528 -0.2334 -0.2499
15211SOL    HW247766   4.849   9.078   3.515 -2.1132  1.7618  0.1469
15212SOL     OW47767   2.973   0.252   0.025 -0.4042  0.2147  0.3463
15212SOL    HW147768   2.975   0.160   0.064  0.8948 -0.9714 -2.3433
15212SOL    HW247769   3.045   0.308   0.066 -1.1822  0.0529  1.9690
15213SOL     OW47770   5.229   8.360   4.157 -0.0833  0.1588 -0.3132
15213SOL    HW147771   5.239   8.307   4.242 -2.9653 -0.4853 -0.3203
15213SOL    HW247772   5.217   8.457   4.180  1.4159  0.3102 -0.1175
15214SOL     OW47773   9.554   1.652   4.062  0.0664 -0.0794 -0.4076
15214SOL    HW147774   9.500   1.600   4.129  1.5045 -0.5237  0.4289
15214SOL    HW247775   9.608   1.588   4.007  1.2050  0.4734  0.0608
15215SOL     OW47776   9.755   9.573   0.332 -0.0795  0.2256  0.5260
15215SOL    HW147777   9.724   9.659   0.292 -1.6667 -0.0956  1.0192
15215SOL    HW247778   9.678   9.527   0.375  1.2619 -0.2747  2.4307
15216SOL     OW47779   7.705   2.208   2.792 -0.0351  0.3163  0.3126
15216SOL    HW147780   7.707   2.240   2.698 -0.8448  1.1246  0.5642
15216SOL    HW247781   7.753   2.273   2.851 -1.1846  0.7875  0.7394
15217SOL     OW47782   8.269   4.981   1.039  0.8050  0.2247 -0.9709
15217SOL    HW147783   8.367   4.993   1.025  1.1772 -1.6269 -0.0751
15217SOL    HW247784   8.243   4.887   1.018 -0.4602  0.2157  0.5215
15218SOL     OW47785   9.758   3.870   0.685  0.3597  0.5036 -0.4902
15218SOL    HW147786   9.785   3.894   0.778 -0.1425 -0.2196 -0.1492
15218SOL    HW247787   9.819   3.915   0.620 -0.3359  2.3626  0.1278
15219SOL     OW47788   8.760   3.270   2.381 -0.0991 -0.5325 -0.1303
15219SOL    HW147789   8.749   3.212   2.461 -0.3543  0.5281  0.6173
15219SOL    HW247790   8.820   3.347   2.404 -0.2088 -0.2032 -0.9411
15220SOL     OW47791   4.286   1.518   5.976  0.3713  0.0485  0.6556
15220SOL    HW147792   4.339   1.445   6.020 -1.1496 -0.9646  0.8601
15220SOL    HW247793   4.339   1.558   5.903  1.9323 -0.0421  1.7245
15221SOL     OW47794   2.532   4.537   2.351 -0.0630  0.3074  0.1471
15221SOL    HW147795   2.443   4.544   2.394 -0.9578 -1.3928 -1.3227
15221SOL    HW247796   2.528   4.577   2.259  0.9501  1.0354  0.4043
15222SOL     OW47797   5.178   5.052   0.991  0.2266  0.2498  0.2408
15222SOL    HW147798   5.115   5.020   0.920  0.6423 -0.1523  0.0505
15222SOL    HW247799   5.236   4.976   1.021 -0.4886  0.2299  1.5837
15223SOL     OW47800   8.054   7.746   5.273 -0.4087  0.2450  0.0909
15223SOL    HW147801   7.987   7.686   5.317 -1.1768  1.1729  0.2065
15223SOL    HW247802   8.107   7.694   5.206 -1.1055 -0.5343  0.1409
15224SOL     OW47803   1.862   9.132   6.216  0.0371  0.2200 -0.3280
15224SOL    HW147804   1.848   9.076   6.298 -2.0646 -0.3937 -1.0841
15224SOL    HW247805   1.831   9.225   6.234 -0.0524  0.1861 -0.3058
15225SOL     OW47806   9.534   6.251   4.471  0.2237 -0.4418 -0.1208
15225SOL    HW147807   9.494   6.213   4.554 -0.0646 -1.2484 -0.6176
15225SOL    HW247808   9.483   6.332   4.443  0.2256 -0.2614  0.4016
15226SOL     OW47809   0.487   0.592   2.655  0.5997 -0.3774  0.0883
15226SOL    HW147810   0.552   0.613   2.727 -0.6536  2.7741  0.3998
15226SOL    HW247811   0.427   0.517   2.685  1.5855 -0.6913  1.3238
15227SOL     OW47812   2.799   7.883   0.411  0.6734  0.4345  0.1200
15227SOL    HW147813   2.703   7.890   0.383  0.9230  0.3606 -0.7717
15227SOL    HW247814   2.807   7.819   0.487  0.3421 -1.5196 -1.4434
15228SOL     OW47815   9.307   0.809   2.398  0.1160 -0.3479  0.6439
15228SOL    HW147816   9.357   0.865   2.464 -0.8330  1.1153  0.1393
15228SOL    HW247817   9.364   0.794   2.318  0.7903 -1.0640  1.2393
15230SOL     OW47818   9.481   9.860   1.800 -0.5266 -0.0476 -0.2526
15230SOL    HW147819   9.422   9.905   1.732  2.4575  0.9663 -2.2548
15230SOL    HW247820   9.511   9.772   1.765  1.7412  0.8624 -0.7010
15231SOL     OW47821   8.917   2.533   2.606  0.2727 -0.0221 -0.5077
15231SOL    HW147822   8.965   2.513   2.520  0.8832 -1.9882  0.2641
15231SOL    HW247823   8.819   2.522   2.593  0.3384 -0.0052 -1.0261
15232SOL     OW47824   8.077   0.196   3.358 -0.4269 -0.5862  0.1988
15232SOL    HW147825   8.115   0.144   3.281  1.4874  2.2655 -0.8703
15232SOL    HW247826   8.023   0.272   3.323  1.5301  1.5221  1.6212
15233SOL     OW47827   0.006   9.097   5.514 -0.3428  0.5405 -0.9639
15233SOL    HW147828   0.005   9.080   5.416  0.5912  2.1030 -1.2669
15233SOL    HW247829   0.003   9.195   5.531  2.7368  0.4695  0.4428
15235SOL     OW47830   7.623   8.969   4.684 -0.0750  0.1509 -0.3234
15235SOL    HW147831   7.611   8.875   4.717  1.2273 -0.2868 -1.0391
15235SOL    HW247832   7.637   9.030   4.762 -1.2213 -0.1913  0.1656
15236SOL     OW47833   8.674   5.572   2.936 -0.8422  0.0963 -0.2132
15236SOL    HW147834   8.747   5.521   2.890 -0.7456  0.0155  0.0276
15236SOL    HW247835   8.708   5.606   3.024 -0.8020  0.8457 -0.5107
15237SOL     OW47836   7.018   1.957   5.467  0.5820  0.3554 -0.4894
15237SOL    HW147837   7.070   2.025   5.519  1.1435 -1.3055  1.1498
15237SOL    HW247838   6.920   1.965   5.490  0.1747  2.8385 -2.8552
15238SOL     OW47839   8.451   9.565   1.080 -0.5211  0.3185  0.2757
15238SOL    HW147840   8.549   9.553   1.065 -1.0996 -3.0967 -1.4112
15238SOL    HW247841   8.405   9.579   0.991 -1.9327 -1.6825  0.6488
15239SOL     OW47842   7.510   0.025   4.770 -0.3032 -0.1051 -0.2132
15239SOL    HW147843   7.571   0.104   4.777 -0.0856 -0.3661  0.9131
15239SOL    HW247844   7.419   0.056   4.743  0.5642  0.1704 -2.9129
15242SOL     OW47845   4.914   2.362   3.843  0.2141 -0.3271 -0.6834
15242SOL    HW147846   4.827   2.411   3.837  0.0356 -0.2259  2.0294
15242SOL    HW247847   4.896   2.264   3.849  0.3367 -0.3708 -1.0114
15243SOL     OW47848   9.780   3.587   6.321  0.3998  0.4185 -0.4146
15243SOL    HW147849   9.778   3.590   6.221 -0.5719  0.9349 -0.3877
15243SOL    HW247850   9.690   3.610   6.357 -0.0620 -2.5579  0.5116
15244SOL     OW47851   8.530   6.737   5.000 -0.4487 -0.0991 -0.4088
15244SOL    HW147852   8.531   6.700   5.093  1.9233 -0.7647 -0.6754
15244SOL    HW247853   8.519   6.837   5.005  2.0311  0.1584  0.7245
15245SOL     OW47854   9.312   1.164   1.576  0.3863  0.1989  0.5679
15245SOL    HW147855   9.237   1.203   1.523 -0.4425 -0.2242  1.4357
15245SOL    HW247856   9.347   1.232   1.640 -2.4983 -1.0730  3.6442
15246SOL     OW47857   1.809   3.059   1.902  0.0638  0.1414  0.5545
15246SOL    HW147858   1.761   2.972   1.892 -0.8756  0.8256 -0.9988
15246SOL    HW247859   1.822   3.078   1.999 -1.2417 -0.9029  0.9545
15247SOL     OW47860   0.464   1.824   0.572  0.2859 -0.1043  0.1980
15247SOL    HW147861   0.536   1.841   0.505 -0.4580  1.9990 -0.0938
15247SOL    HW247862   0.386   1.883   0.553 -1.1278 -1.6302  1.1273
15248SOL     OW47863   0.118   9.576   2.184 -0.4762  0.4976 -0.5012
15248SOL    HW147864   0.044   9.589   2.250 -1.3659 -1.6543 -1.0288
15248SOL    HW247865   0.183   9.651   2.192 -1.1270  0.8494  2.0676
15249SOL     OW47866   3.506   5.101   5.128 -0.5640 -0.0631 -0.7698
15249SOL    HW147867   3.518   5.191   5.087  1.0875 -0.3560 -0.9599
15249SOL    HW247868   3.422   5.100   5.182  1.1364  2.6804  2.1009
15250SOL     OW47869   3.280   2.687   4.238 -0.2173  0.2842 -0.1249
15250SOL    HW147870   3.286   2.783   4.266  1.6356 -0.4548  2.2177
15250SOL    HW247871   3.309   2.629   4.314 -2.2112 -2.1912 -1.1895
15251SOL     OW47872   9.936   7.396   0.245  0.4759  0.1857  0.1916
15251SOL    HW147873   9.949   7.340   0.327  1.2240 -1.4006 -0.9843
15251SOL    HW247874   9.968   7.489   0.263  1.2843 -0.3244  1.4778
15253SOL     OW47875   7.270   1.024   5.777  0.5079  0.1393  0.1633
15253SOL    HW147876   7.252   1.104   5.835 -0.7178  1.3300 -1.8026
15253SOL    HW247877   7.196   0.958   5.787  1.4378 -0.6970  1.6610
15254SOL     OW47878   3.391   3.661   1.703 -0.2026 -0.0961 -0.7296
15254SOL    HW147879   3.388   3.607   1.786 -1.4763 -0.5920 -1.0854
15254SOL    HW247880   3.310   3.721   1.699  1.6817  2.6227  0.1780
15255SOL     OW47881   7.836   9.738   4.321 -0.2490 -0.0983 -0.2605
15255SOL    HW147882   7.744   9.776   4.319 -0.5931 -0.9575 -1.0902
15255SOL    HW247883   7.832   9.643   4.355  0.4597  0.2101  0.7147
15256SOL     OW47884   7.293   5.909   0.240  0.1231 -0.6929  0.2922
15256SOL    HW147885   7.208   5.959   0.249  0.3050 -0.5559  1.2880
15256SOL    HW247886   7.290   5.851   0.158  0.1337  1.3503 -1.1697
15257SOL     OW47887   0.683   1.389   5.484  0.3223 -0.2315  0.1362
15257SOL    HW147888   0.632   1.305   5.463  0.9926 -0.5947 -0.0452
15257SOL    HW247889   0.643   1.432   5.565  0.3352 -1.0335  0.5763
15258SOL     OW47890   8.041   5.575   6.141 -0.4723 -0.0635  0.0520
15258SOL    HW147891   7.956   5.610   6.182 -0.4566 -1.9343  1.7799
15258SOL    HW247892   8.108   5.649   6.135 -1.7253  1.0936  0.0410
15259SOL     OW47893   3.731   8.909   3.804  0.3752 -0.2281 -0.3579
15259SOL    HW147894   3.648   8.897   3.749 -0.5575 -1.2619  1.2513
15259SOL    HW247895   3.776   8.821   3.816 -1.0649 -0.5650  3.0478
15260SOL     OW47896   7.280   3.337   3.462 -0.0172 -0.4712  0.3080
15260SOL    HW147897   7.378   3.356   3.469  0.0567 -0.2166 -1.2283
15260SOL    HW247898   7.239   3.399   3.395 -1.1048 -1.0280  0.4495
15262SOL     OW47899   4.272   3.502   0.740 -0.2025 -0.0212 -0.1857
15262SOL    HW147900   4.272   3.406   0.768  0.2468  0.4236  1.3650
15262SOL    HW247901   4.178   3.536   0.738 -0.4397 -0.7022 -1.5377
15263SOL     OW47902   3.692   2.430   4.756  0.2335  0.3216 -0.4720
15263SOL    HW147903   3.633   2.373   4.699  0.7867 -0.7804  0.0416
15263SOL    HW247904   3.692   2.395   4.849  0.3092  1.3765 -0.0638
15265SOL     OW47905   3.614   9.781   1.152  0.8736  0.0748 -0.1185
15265SOL    HW147906   3.590   9.787   1.055  1.9939 -1.5360 -0.5088
15265SOL    HW247907   3.530   9.783   1.207  0.2559  1.3860 -1.0905
15266SOL     OW47908   0.532   8.813   4.106 -0.1259  0.2131 -0.0595
15266SOL    HW147909   0.594   8.881   4.067 -0.3481  1.4720  1.7469
15266SOL    HW247910   0.524   8.827   4.204 -0.8568 -1.8995  0.2107
15267SOL     OW47911   6.455   0.426   3.923  0.0760 -0.5859 -0.1394
15267SOL    HW147912   6.357   0.425   3.943  0.2916 -1.2142  0.9547
15267SOL    HW247913   6.471   0.392   3.831 -0.6803 -1.3427 -0.0001
15268SOL     OW47914   5.037   4.450   1.565  0.2851 -0.2883 -0.0556
15268SOL    HW147915   5.124   4.485   1.530  0.3312  0.8320  1.1370
15268SOL    HW247916   5.052   4.362   1.609  0.8659  0.0135  0.3595
15269SOL     OW47917   0.891   4.504   0.729 -0.1297  0.0155 -0.4425
15269SOL    HW147918   0.794   4.526   0.731 -0.2847 -0.7207  0.3531
15269SOL    HW247919   0.903   4.405   0.733  0.6796  0.1544  1.1069
15271SOL     OW47920   8.565   1.501   4.825 -0.3969  0.2687  0.1719
15271SOL    HW147921   8.494   1.566   4.853 -1.7007 -0.4408 -1.4292
15271SOL    HW247922   8.522   1.421   4.785  1.2578 -1.0498  0.9900
15272SOL     OW47923   0.959   3.358   4.137  0.3186 -0.6175 -0.2301
15272SOL    HW147924   0.882   3.382   4.196  0.6567  1.0848 -0.4489
15272SOL    HW247925   0.927   3.299   4.063 -0.3361 -1.7856  0.9758
15273SOL     OW47926   4.045   4.421   2.068 -0.3703  0.3643  0.4632
15273SOL    HW147927   4.035   4.383   2.160 -0.5511 -1.6321 -0.3582
15273SOL    HW247928   3.955   4.447   2.033 -0.2578  1.4996  0.9816
15274SOL     OW47929   9.240   6.761   2.251  0.4439 -0.0688 -0.8134
15274SOL    HW147930   9.149   6.786   2.284  1.4341  2.1622  0.3528
15274SOL    HW247931   9.264   6.819   2.173  0.8580 -0.6448 -1.1175
15275SOL     OW47932   1.945   8.645   5.663 -0.0085 -0.3023 -0.2174
15275SOL    HW147933   1.869   8.631   5.600 -0.3764  0.8247 -0.0382
15275SOL    HW247934   1.933   8.732   5.711  1.4988 -0.0163 -0.3325
15276SOL     OW47935   7.048   3.213   0.839  0.1081 -0.6396 -0.1835
15276SOL    HW147936   7.080   3.295   0.791  0.6889 -0.5166  0.4026
15276SOL    HW247937   7.043   3.137   0.775  2.7226 -0.9611 -0.0740
15278SOL     OW47938   1.871   4.206   2.425  0.1911  0.1935 -0.1805
15278SOL    HW147939   1.959   4.175   2.390  0.8731  4.1197 -2.1838
15278SOL    HW247940   1.799   4.147   2.389  1.5316  0.0015 -2.6894
15279SOL     OW47941   7.023   8.587   3.573  0.3997 -0.1908 -0.3888
15279SOL    HW147942   7.020   8.499   3.526  0.4206  0.3047 -1.3179
15279SOL    HW247943   7.118   8.618   3.577  0.5592 -0.8025  1.0630
15281SOL     OW47944   4.522   3.031   3.758 -0.1411 -0.0197  0.3175
15281SOL    HW147945   4.573   3.016   3.843 -0.0861  1.5092  0.5760
15281SOL    HW247946   4.540   2.957   3.694  1.1312 -0.3244  1.0115
15282SOL     OW47947   2.519   7.762   2.185 -0.3232  0.4688  0.5566
15282SOL    HW147948   2.458   7.832   2.146 -0.2273  0.4314  0.3388
15282SOL    HW247949   2.555   7.705   2.111 -0.0156  0.4950  0.6870
15286SOL     OW47950   2.978   3.800   2.729  0.7716  0.2068 -0.1451
15286SOL    HW147951   2.894   3.745   2.722  0.2190  0.7760  1.6918
15286SOL    HW247952   2.988   3.855   2.646 -2.1182  2.0713  0.6294
15287SOL     OW47953   7.430   7.968   2.708  0.4660  0.3509  0.1525
15287SOL    HW147954   7.487   7.893   2.741  0.8752  0.8086  0.5005
15287SOL    HW247955   7.420   7.961   2.609 -0.8009 -1.0542  0.3626
15288SOL     OW47956   1.894   4.114   6.288 -0.7463 -0.1512  0.1635
15288SOL    HW147957   1.857   4.111   6.195 -0.9237  0.5111  0.2135
15288SOL    HW247958   1.909   4.020   6.320  1.4455 -0.3514 -1.3761
15289SOL     OW47959   0.478   2.994   2.213 -0.2629 -0.3251 -0.0036
15289SOL    HW147960   0.389   2.998   2.168 -0.6978  0.8425  0.9083
15289SOL    HW247961   0.550   2.983   2.144 -0.7635  3.1347 -1.2050
15290SOL     OW47962   5.666   0.991   3.395  0.3158 -0.6928  0.0486
15290SOL    HW147963   5.589   0.946   3.350  0.4485 -0.3483 -0.5316
15290SOL    HW247964   5.722   1.037   3.326 -0.0647  0.7304  0.6809
15292SOL     OW47965   7.284   9.992   1.148  0.6402 -0.3367  0.3952
15292SOL    HW147966   7.290  10.090   1.131 -3.0393 -0.3963 -1.7180
15292SOL    HW247967   7.229   9.976   1.231 -0.3061 -0.6373 -0.2815
15294SOL     OW47968   3.187   8.672   5.746 -0.3328  0.9564 -0.1777
15294SOL    HW147969   3.215   8.739   5.814 -0.2708 -1.8810  2.7244
15294SOL    HW247970   3.263   8.652   5.685 -0.0331  2.6824 -0.3929
15295SOL     OW47971   7.834   3.410   5.079 -0.4741 -0.4663 -0.4408
15295SOL    HW147972   7.836   3.396   4.980 -3.1229  3.5482 -1.2047
15295SOL    HW247973   7.740   3.402   5.112 -0.1887  1.8356  1.0877
15296SOL     OW47974   0.081   7.608   3.043  0.1294  0.0589 -0.1704
15296SOL    HW147975   0.021   7.536   3.077  0.3896 -0.9093 -1.7388
15296SOL    HW247976   0.044   7.697   3.070 -0.8061 -0.6066  0.7936
15297SOL     OW47977   9.697   7.585   6.312 -0.7487  0.1814 -0.0405
15297SOL    HW147978   9.709   7.486   6.304 -0.3360  0.0064  2.4354
15297SOL    HW247979   9.742   7.630   6.235  0.0870 -1.4828 -0.5543
15300SOL     OW47980   7.836   1.468   5.955  0.3133 -0.4588  0.3555
15300SOL    HW147981   7.811   1.518   6.038  0.8154  1.6564 -0.7331
15300SOL    HW247982   7.763   1.403   5.932 -0.7649  0.4074  1.2984
15302SOL     OW47983   9.473   5.437   2.765 -0.1034  0.1918 -1.2344
15302SOL    HW147984   9.530   5.517   2.782  0.3302 -0.1244 -1.1974
15302SOL    HW247985   9.424   5.450   2.678  1.8739 -0.5697 -2.5065
15303SOL     OW47986   0.771   2.052   0.592 -0.4609 -0.1303  0.2150
15303SOL    HW147987   0.697   2.119   0.587  0.6407  1.1455  0.8106
15303SOL    HW247988   0.756   1.981   0.523 -1.2471  1.1099 -0.9187
15304SOL     OW47989   2.372   0.815   6.062  0.1401  0.1039 -0.3709
15304SOL    HW147990   2.407   0.907   6.076 -0.6944  0.1354  1.7919
15304SOL    HW247991   2.286   0.819   6.012  0.4024  0.4572 -0.7954
15305SOL     OW47992   2.029   9.102   6.014 -0.0320 -0.8705 -0.0519
15305SOL    HW147993   1.972   9.104   6.097  2.5493 -1.7841  1.8080
15305SOL    HW247994   2.014   9.186   5.962 -1.2023  0.0426  1.6949
15306SOL     OW47995   0.728   3.643   1.098  0.3336  0.2865 -0.3079
15306SOL    HW147996   0.819   3.603   1.104 -0.4180 -1.5273 -0.7278
15306SOL    HW247997   0.669   3.585   1.042 -0.9934  1.6154 -0.3344
15307SOL     OW47998   1.787   3.850   4.389  0.0804 -0.4393  0.0695
15307SOL    HW147999   1.828   3.940   4.370  0.5363 -0.5843  0.3776
15307SOL    HW248000   1.853   3.778   4.369 -0.8061 -0.7994 -1.7210
15308SOL     OW48001   7.599   7.503   2.289 -0.3708 -0.6828 -0.3308
15308SOL    HW148002   7.615   7.516   2.387 -0.1603 -2.1992 -0.1496
15308SOL    HW248003   7.668   7.552   2.237 -0.5631  0.2376  0.2813
15309SOL     OW48004   5.958   1.752   5.466  0.0015  0.3350  0.4335
15309SOL    HW148005   5.996   1.841   5.440  0.8208  0.1473  0.9830
15309SOL    HW248006   5.957   1.744   5.565 -0.5453 -0.0668  0.3944
15310SOL     OW48007   6.221   8.848   5.606 -0.4610 -0.0232 -0.1407
15310SOL    HW148008   6.220   8.854   5.506  0.5450  2.0802 -0.0726
15310SOL    HW248009   6.227   8.941   5.644  1.0034 -0.8869  1.8157
15311SOL     OW48010   8.961   9.209   5.328  0.4609  0.9117  0.2132
15311SOL    HW148011   9.058   9.187   5.330  0.3601  0.4381  0.0381
15311SOL    HW248012   8.922   9.180   5.241  0.0755  0.7338  0.4451
15313SOL     OW48013   3.477   9.248   0.418 -0.2510  0.5736  0.4799
15313SOL    HW148014   3.412   9.274   0.490 -0.3191 -1.4635  1.1844
15313SOL    HW248015   3.435   9.179   0.360  1.3760 -0.9899  1.1268
15314SOL     OW48016   3.949   8.187   3.949 -0.0921 -0.2343 -0.0649
15314SOL    HW148017   4.020   8.227   4.008  0.2379 -0.8779 -0.0172
15314SOL    HW248018   3.992   8.138   3.874 -0.4988 -0.3149 -0.2470
15315SOL     OW48019   4.046   7.851   4.040 -0.3584  0.0695 -0.6379
15315SOL    HW148020   4.139   7.824   4.066 -0.6077 -1.1758 -1.0341
15315SOL    HW248021   4.015   7.925   4.101 -0.0487 -1.1990  1.1056
15316SOL     OW48022   3.036   7.277   4.242 -0.1224 -0.1864  0.0651
15316SOL    HW148023   2.937   7.261   4.247 -0.2079  0.2045 -0.3267
15316SOL    HW248024   3.076   7.218   4.172 -0.1127 -0.1793  0.0645
15317SOL     OW48025   1.208   4.525   1.895 -0.6004 -0.1722  0.4185
15317SOL    HW148026   1.266   4.582   1.837 -2.6944  1.1462 -0.4431
15317SOL    HW248027   1.162   4.582   1.963 -2.2454 -0.9218 -0.0559
15318SOL     OW48028   1.754   2.180   4.000  0.2191  0.5413  0.1432
15318SOL    HW148029   1.778   2.128   4.082 -0.9129 -0.1092  0.0729
15318SOL    HW248030   1.672   2.235   4.019  0.1054  0.5838 -0.4819
15320SOL     OW48031   1.362   8.204   5.279  0.7874  0.2606  0.4482
15320SOL    HW148032   1.322   8.254   5.202  0.0118 -1.2202 -0.1237
15320SOL    HW248033   1.460   8.193   5.264  0.2742 -2.0451 -1.4934
15321SOL     OW48034   8.797   2.528   5.175 -0.3388 -0.1957  0.1245
15321SOL    HW148035   8.856   2.604   5.148 -1.2364  0.8901  1.1066
15321SOL    HW248036   8.716   2.527   5.116 -0.9204  0.3910  0.9019
15323SOL     OW48037   6.669   8.752   6.260 -0.0726 -0.2374 -0.1985
15323SOL    HW148038   6.662   8.786   6.354  0.7084  0.1100 -0.2535
15323SOL    HW248039   6.762   8.718   6.244 -0.7424 -2.0675 -0.2672
15324SOL     OW48040   0.482   4.562   4.512 -0.2469  0.1809 -0.0707
15324SOL    HW148041   0.427   4.637   4.475  0.7364  0.4806 -0.9551
15324SOL    HW248042   0.422   4.493   4.552 -1.4012 -0.4600 -2.7750
15326SOL     OW48043   8.481   2.815   1.550  1.1463  0.6534  0.6654
15326SOL    HW148044   8.483   2.908   1.588  0.5585  0.9699 -0.0773
15326SOL    HW248045   8.508   2.818   1.454  0.6352  0.1167  0.5065
15327SOL     OW48046   3.619   7.017   3.916 -0.0117 -0.0624 -0.2755
15327SOL    HW148047   3.644   7.096   3.860  0.4215 -0.6125 -0.8631
15327SOL    HW248048   3.550   7.044   3.983 -0.2457  0.6840 -0.8191
15328SOL     OW48049   9.061   6.267   1.834 -0.4831 -0.3344  0.5721
15328SOL    HW148050   9.031   6.192   1.775  1.2974 -1.4460  1.0567
15328SOL    HW248051   9.026   6.252   1.927  0.2627 -0.8394  0.7807
15330SOL     OW48052   5.784   8.264   4.513 -0.2239 -0.3121  0.7539
15330SOL    HW148053   5.721   8.192   4.541 -0.1651 -0.7805 -0.2975
15330SOL    HW248054   5.743   8.354   4.530 -1.8445 -0.6205 -1.4312
15332SOL     OW48055   0.988   8.593   2.412  0.2384  0.1774  0.2124
15332SOL    HW148056   0.987   8.690   2.387 -1.0532  0.3373  0.8574
15332SOL    HW248057   0.998   8.538   2.329 -3.4556  0.7143 -0.6736
15333SOL     OW48058   2.184   3.156   4.902 -0.5964 -0.0336 -0.7998
15333SOL    HW148059   2.258   3.148   4.970  2.1300 -1.2583 -3.7688
15333SOL    HW248060   2.110   3.094   4.928 -0.1453  0.3760  1.6634
15334SOL     OW48061   0.287   8.729   1.338 -0.0780  0.3025  0.1877
15334SOL    HW148062   0.380   8.751   1.308  0.2835 -1.1014  0.2702
15334SOL    HW248063   0.223   8.794   1.296  0.7203  0.0594 -1.4515
15336SOL     OW48064   4.061   2.011   0.913  0.3375  0.1283  0.2385
15336SOL    HW148065   4.130   1.999   0.841  1.0158  3.1329  0.2933
15336SOL    HW248066   4.096   1.974   0.999  0.3766 -1.6364 -0.5317
15338SOL     OW48067   8.868   4.160   1.346  0.2171 -0.2112  0.2441
15338SOL    HW148068   8.787   4.134   1.398 -0.4738 -0.8528 -1.1262
15338SOL    HW248069   8.901   4.081   1.294 -0.1567  0.8533 -1.6666
15339SOL     OW48070   3.156   3.163   4.766 -0.2748  0.0983 -0.2346
15339SOL    HW148071   3.123   3.254   4.791 -0.6589 -0.0010 -0.3758
15339SOL    HW248072   3.229   3.135   4.829 -0.0290  0.5793 -0.3020
15340SOL     OW48073   4.485   1.105   3.222  0.0364 -0.1860 -0.4542
15340SOL    HW148074   4.509   1.009   3.239 -1.3487 -0.6390 -0.9667
15340SOL    HW248075   4.564   1.153   3.185  0.7626 -1.1164 -0.1375
15341SOL     OW48076   6.454   9.732   6.409  0.4561  0.2247 -0.1101
15341SOL    HW148077   6.502   9.671   6.472 -1.9518  1.6781  3.2816
15341SOL    HW248078   6.485   9.826   6.426 -0.1686  0.6216 -1.1772
15342SOL     OW48079   3.757   7.697   5.142  0.3976  0.6043  0.0461
15342SOL    HW148080   3.755   7.745   5.229 -1.0191 -0.1828  0.4711
15342SOL    HW248081   3.801   7.754   5.073  1.0547  1.4429  1.1463
15343SOL     OW48082   3.117   8.617   2.973  0.7827  0.4303  0.1567
15343SOL    HW148083   3.053   8.634   2.898 -0.7815 -1.8141  0.9160
15343SOL    HW248084   3.152   8.523   2.965 -0.7757 -0.4594  3.1729
15344SOL     OW48085   8.804   2.869   0.121  0.1188 -0.2741 -0.2878
15344SOL    HW148086   8.748   2.934   0.070  1.4319 -0.5315 -2.1359
15344SOL    HW248087   8.819   2.903   0.214  0.8441  2.1414 -1.2434
15345SOL     OW48088   0.225   0.713   5.154  0.0513 -0.0520  0.4238
15345SOL    HW148089   0.131   0.736   5.182  0.5493  1.6505  0.7080
15345SOL    HW248090   0.231   0.715   5.055  0.0119  0.7374  0.4352
15346SOL     OW48091   3.410   1.785   6.301  0.1722  0.0456  0.2273
15346SOL    HW148092   3.406   1.740   6.391 -1.5003  1.0479  0.6737
15346SOL    HW248093   3.368   1.727   6.232 -3.2889  1.4060  1.0533
15347SOL     OW48094   4.605   8.131   2.692  0.0810 -0.5889  0.0930
15347SOL    HW148095   4.544   8.141   2.613 -0.3388  0.2305  0.5191
15347SOL    HW248096   4.599   8.212   2.750 -1.3544 -2.1356  2.1898
15349SOL     OW48097   0.933   7.761   0.875 -0.1451 -0.3345 -0.1122
15349SOL    HW148098   0.840   7.788   0.851 -0.8845 -1.9472  0.8268
15349SOL    HW248099   0.930   7.676   0.928  1.8330 -0.1567  0.3179
15350SOL     OW48100   7.565   8.312   6.446 -0.6910  0.1248 -0.0955
15350SOL    HW148101   7.599   8.228   6.404  0.1054  0.4993 -0.2145
15350SOL    HW248102   7.623   8.337   6.523  0.6194  1.9025 -1.5893
15351SOL     OW48103   0.505   2.191   6.253  0.1276 -0.4266 -0.0895
15351SOL    HW148104   0.446   2.228   6.326  0.8869 -0.7440  0.6957
15351SOL    HW248105   0.493   2.245   6.170 -0.8901 -0.1721  0.2192
15352SOL     OW48106   5.183   7.952   4.967  0.1732  0.1483  0.4054
15352SOL    HW148107   5.204   7.855   4.958 -2.0305 -0.5461  2.1346
15352SOL    HW248108   5.100   7.973   4.914 -0.3836  0.6645  1.4678
15353SOL     OW48109   7.855   3.777   5.548  0.1941 -0.4666 -0.0683
15353SOL    HW148110   7.863   3.799   5.451 -1.4727 -0.8128 -0.3010
15353SOL    HW248111   7.935   3.726   5.578  0.3297 -1.0834 -1.4657
15355SOL     OW48112   6.633   8.746   2.872 -0.1605  0.2175 -1.0771
15355SOL    HW148113   6.679   8.730   2.960 -1.2224  0.3630 -0.4805
15355SOL    HW248114   6.569   8.823   2.882 -0.7874 -0.2051 -1.7859
15356SOL     OW48115   3.192   9.147   3.561  0.1788 -0.2700  0.3875
15356SOL    HW148116   3.256   9.123   3.633 -1.6051 -0.0266  2.0967
15356SOL    HW248117   3.183   9.246   3.556 -0.3384 -0.3139  0.4134
15358SOL     OW48118   8.792   3.530   0.496 -0.4330  0.2235  0.1942
15358SOL    HW148119   8.751   3.481   0.572 -1.5856 -0.0992 -0.6152
15358SOL    HW248120   8.887   3.553   0.517 -0.3750 -0.9561  1.2170
15360SOL     OW48121   0.267   6.274   0.007 -0.0498 -0.0027 -0.5524
15360SOL    HW148122   0.171   6.283   0.034 -0.2546 -0.3209 -1.1832
15360SOL    HW248123   0.318   6.354   0.041 -0.4966  0.0803 -0.0638
15361SOL     OW48124   4.541   9.372   1.479 -0.2602  0.1307 -0.0353
15361SOL    HW148125   4.531   9.445   1.546  0.9102  0.1032  0.1774
15361SOL    HW248126   4.514   9.405   1.389 -2.6149 -0.0612  0.5667
15365SOL     OW48127   5.105   9.184   5.939 -0.5672  0.3010 -0.1602
15365SOL    HW148128   5.191   9.132   5.931 -0.5164  0.2599  0.6656
15365SOL    HW248129   5.056   9.156   6.021 -0.6389  1.4151  0.1831
15366SOL     OW48130   7.089   0.460   3.624 -0.1762 -0.0613  0.1229
15366SOL    HW148131   7.090   0.550   3.666 -0.5859  0.1004 -0.2032
15366SOL    HW248132   6.998   0.443   3.585 -0.0192 -0.5010 -0.0524
15367SOL     OW48133   1.868   7.612   3.210 -0.3915  0.0309  0.0904
15367SOL    HW148134   1.824   7.693   3.170  2.5472  2.3550  1.3050
15367SOL    HW248135   1.906   7.555   3.137  1.5201  2.2026 -0.6944
15368SOL     OW48136   8.650   2.116   2.324 -0.4720  0.2806  0.2829
15368SOL    HW148137   8.621   2.141   2.416 -1.7376  1.4426 -0.4157
15368SOL    HW248138   8.721   2.179   2.293 -1.9505  1.5613 -0.5520
15369SOL     OW48139   5.228   8.760   4.521 -0.2538  0.0626  0.6213
15369SOL    HW148140   5.147   8.805   4.483 -1.2599 -2.5356 -0.4282
15369SOL    HW248141   5.230   8.772   4.620 -0.8814  1.7501  0.4494
15370SOL     OW48142   0.715   1.411   3.452  0.0972  0.2277 -0.0647
15370SOL    HW148143   0.636   1.470   3.467  0.9889  1.2382  0.7473
15370SOL    HW248144   0.711   1.373   3.359 -2.1618 -1.0086  0.5165
15374SOL     OW48145   6.623   8.963   4.563 -0.2813  0.5164 -0.4381
15374SOL    HW148146   6.586   8.997   4.477 -0.4524 -0.6160 -0.8200
15374SOL    HW248147   6.557   8.902   4.606 -0.4934  1.6167  0.8565
15375SOL     OW48148   8.905   8.233   5.322  0.0176  0.2490 -0.2841
15375SOL    HW148149   9.002   8.209   5.333  0.1843  0.6193 -0.9374
15375SOL    HW248150   8.851   8.150   5.313  0.4631  0.0665 -1.4268
15377SOL     OW48151   1.027   4.747   4.061  0.3261 -0.2273 -0.0875
15377SOL    HW148152   0.994   4.653   4.069 -0.7603  0.0338 -1.2408
15377SOL    HW248153   0.951   4.807   4.037  0.9071  1.0396  1.1447
15378SOL     OW48154   2.715   1.295   4.762  0.4270 -0.0420  0.4423
15378SOL    HW148155   2.755   1.383   4.735 -0.0453  0.1859  0.4835
15378SOL    HW248156   2.785   1.223   4.756  0.8755  0.3792  0.6433
15379SOL     OW48157   8.381   9.965   1.659 -0.0267  0.0614  0.1653
15379SOL    HW148158   8.403  10.063   1.650  0.1004 -0.0409 -0.7312
15379SOL    HW248159   8.307   9.942   1.595 -0.4059 -0.3241  0.7417
15380SOL     OW48160   6.390   7.485   4.905 -0.4631  0.1176 -0.2385
15380SOL    HW148161   6.438   7.429   4.973 -1.4878  0.7484  1.0228
15380SOL    HW248162   6.296   7.499   4.934 -1.5591 -1.3925 -2.8663
15381SOL     OW48163   0.654   1.003   1.266 -0.0515 -0.2176 -0.0468
15381SOL    HW148164   0.624   0.960   1.180  1.5073  0.2890 -0.8517
15381SOL    HW248165   0.753   0.992   1.277 -0.2208 -0.2201  1.6667
15382SOL     OW48166   2.886   2.774   5.129 -0.4462  0.8034 -0.3179
15382SOL    HW148167   2.854   2.693   5.178  1.2527  1.2524  1.6245
15382SOL    HW248168   2.835   2.855   5.159  0.8134  1.1309  0.9895
15383SOL     OW48169   2.422   9.138   3.641 -0.2410  0.0771 -0.2338
15383SOL    HW148170   2.514   9.168   3.664  0.4939  0.3855 -3.3122
15383SOL    HW248171   2.402   9.052   3.687  0.6823  1.1800  2.2904
15384SOL     OW48172   6.316   9.778   1.746  0.1326  0.1166 -1.0060
15384SOL    HW148173   6.245   9.723   1.703 -0.4996  0.5033 -0.4741
15384SOL    HW248174   6.273   9.845   1.807  1.0314 -0.7737  0.6181
15385SOL     OW48175   7.737   7.480   6.171  0.2982 -0.5984  0.1000
15385SOL    HW148176   7.743   7.385   6.140 -2.5651 -0.6238 -0.5088
15385SOL    HW248177   7.809   7.533   6.128  1.0769 -2.2103 -0.6504
15386SOL     OW48178   1.043   7.272   2.441 -0.3044 -0.1592 -0.2867
15386SOL    HW148179   1.045   7.176   2.413 -0.5050 -0.2101 -0.1331
15386SOL    HW248180   1.090   7.328   2.373  2.3606 -0.7132  1.0265
15387SOL     OW48181   1.165   5.103   5.307 -0.1672 -0.5633  0.2247
15387SOL    HW148182   1.226   5.030   5.277 -1.0554 -0.7396 -1.2042
15387SOL    HW248183   1.193   5.135   5.398  0.8188 -1.9961  0.4429
15388SOL     OW48184   5.568   1.682   0.058 -0.3308 -0.5188 -0.3958
15388SOL    HW148185   5.618   1.729   0.131 -3.4892  0.1602  1.4097
15388SOL    HW248186   5.566   1.584   0.077 -0.2313 -0.4704 -0.1288
15389SOL     OW48187   8.954   1.861   4.895  0.1086  0.1099  0.2691
15389SOL    HW148188   8.856   1.866   4.877  0.4014  1.1780 -1.1329
15389SOL    HW248189   9.002   1.833   4.812  0.7391 -3.6267  1.7761
15390SOL     OW48190   3.928   6.910   2.384  0.3397  0.0018 -0.3675
15390SOL    HW148191   3.992   6.939   2.455 -0.7232 -0.8188  0.9379
15390SOL    HW248192   3.837   6.897   2.423 -0.0851 -1.2298 -1.7076
15391SOL     OW48193   0.537   6.075   0.942 -0.3034 -0.2901 -0.1746
15391SOL    HW148194   0.476   6.107   0.869 -0.7201  1.2890  0.8423
15391SOL    HW248195   0.585   6.153   0.983 -1.4160 -0.9081  2.4303
15392SOL     OW48196   6.099   9.550   4.762 -0.8137  0.3585  0.1905
15392SOL    HW148197   6.019   9.494   4.785 -0.9338  1.0723  1.5953
15392SOL    HW248198   6.179   9.517   4.813 -0.5974  0.6625  0.0508
15393SOL     OW48199   2.182   7.347   4.218 -0.4359  0.3158  0.2969
15393SOL    HW148200   2.154   7.267   4.165 -0.5550  0.5885 -0.0592
15393SOL    HW248201   2.248   7.320   4.288  0.7700  0.1740 -0.8781
15394SOL     OW48202   1.330   2.676   0.703  0.6485 -0.5883  0.0339
15394SOL    HW148203   1.380   2.747   0.654 -1.8677  0.3864 -1.2049
15394SOL    HW248204   1.362   2.586   0.672  2.6948 -0.0131  0.4079
15396SOL     OW48205   7.963   9.922   3.776 -0.0774  0.1487 -0.3786
15396SOL    HW148206   8.019   9.932   3.695 -0.3017  1.3855 -0.3893
15396SOL    HW248207   7.871   9.891   3.750 -0.3080  1.0457 -0.6562
15397SOL     OW48208   9.338   8.507   5.731  0.5294  0.1868 -0.8034
15397SOL    HW148209   9.381   8.510   5.641 -0.2938  1.0177 -1.1737
15397SOL    HW248210   9.239   8.494   5.720  0.6828 -2.0431  0.0413
15398SOL     OW48211   1.588   1.367   4.264  0.2766 -0.1533  0.2360
15398SOL    HW148212   1.614   1.277   4.229 -2.2809 -0.4496 -1.0085
15398SOL    HW248213   1.660   1.401   4.325  1.4832 -2.8243  0.3782
15399SOL     OW48214   0.640   6.281   1.100 -0.6593 -0.4013 -0.1143
15399SOL    HW148215   0.588   6.248   1.179 -0.3246 -1.6032 -0.3799
15399SOL    HW248216   0.714   6.341   1.130 -1.8295  0.8394  0.3155
15400SOL     OW48217   9.478   0.853   1.498  0.1339 -0.1899  0.1215
15400SOL    HW148218   9.401   0.891   1.549  1.7571  0.8371  1.8890
15400SOL    HW248219   9.522   0.782   1.552  1.0162 -0.1019 -0.4629
15401SOL     OW48220   5.411   9.915   6.412  0.2814  0.1541  0.4416
15401SOL    HW148221   5.344   9.988   6.427  0.4436  0.7837 -1.6847
15401SOL    HW248222   5.371   9.828   6.439 -2.3680  0.1674 -2.9759
15402SOL     OW48223   1.106   2.861   2.112 -0.1627 -0.9151 -0.4262
15402SOL    HW148224   1.127   2.784   2.173 -0.0926 -1.2418 -0.8615
15402SOL    HW248225   1.170   2.862   2.036 -0.7715 -1.0063 -0.9452
15403SOL     OW48226   1.089   1.080   4.568 -0.4660  0.0573 -0.1670
15403SOL    HW148227   1.061   1.130   4.650 -0.2251  1.3158 -0.8483
15403SOL    HW248228   1.170   1.025   4.589  0.1300  1.0652  0.2203
15405SOL     OW48229   0.313   2.866   2.576  0.4936  0.2586  0.5870
15405SOL    HW148230   0.344   2.950   2.530  0.1151 -0.2780 -0.6795
15405SOL    HW248231   0.216   2.875   2.599  0.9055  0.8790  2.1034
15406SOL     OW48232   8.836   7.026   3.789  0.1589  0.0409 -0.5188
15406SOL    HW148233   8.847   7.038   3.690  0.3099 -2.4990 -0.8586
15406SOL    HW248234   8.863   6.933   3.814 -0.6961  0.3835  1.7997
15407SOL     OW48235   7.546   3.995   5.876 -0.1352 -0.1287  0.5482
15407SOL    HW148236   7.624   4.032   5.825  0.8715 -0.9725  1.4662
15407SOL    HW248237   7.562   3.899   5.897 -1.6649 -0.4564  0.3084
15408SOL     OW48238   2.308   3.942   6.225  0.5652  0.8847  0.4733
15408SOL    HW148239   2.323   3.872   6.294  0.3710 -0.0313 -0.4015
15408SOL    HW248240   2.251   4.015   6.263 -0.9883 -0.4498  0.7604
15409SOL     OW48241   3.594   6.583   2.703 -0.1289  0.0171  0.4910
15409SOL    HW148242   3.534   6.658   2.677  0.5796  0.4216 -0.0134
15409SOL    HW248243   3.667   6.618   2.763 -0.2063 -0.4030  0.8350
15410SOL     OW48244   1.254   8.317   5.499 -0.3667 -0.3736  0.2671
15410SOL    HW148245   1.270   8.251   5.426 -0.2876 -0.4596  0.3612
15410SOL    HW248246   1.250   8.409   5.461  0.9379 -0.2927  0.3223
15411SOL     OW48247   1.675   4.309   0.670 -0.0784  0.0230 -0.1085
15411SOL    HW148248   1.627   4.279   0.752  0.7372  1.8062  1.0514
15411SOL    HW248249   1.761   4.258   0.662 -0.4856 -0.6529 -0.2663
15412SOL     OW48250   7.926   4.995   0.087 -0.4056 -0.3335  0.3808
15412SOL    HW148251   7.918   4.925   0.017 -0.5732 -1.1652  1.2203
15412SOL    HW248252   7.958   4.954   0.172  1.8422  1.0194  0.2226
15414SOL     OW48253   9.611   0.984   6.220 -0.0861  0.1466 -0.0727
15414SOL    HW148254   9.707   0.957   6.209  0.1962  0.9587  0.3683
15414SOL    HW248255   9.568   0.996   6.131  0.5273  0.8551 -0.2731
15415SOL     OW48256   9.208   2.357   2.069 -0.0067 -0.6182  0.2540
15415SOL    HW148257   9.209   2.305   2.155 -0.0804  0.6051  1.0041
15415SOL    HW248258   9.282   2.424   2.070  1.8089 -2.5137 -1.8534
15416SOL     OW48259   7.155   1.318   5.767  0.2746  0.2061 -0.5108
15416SOL    HW148260   7.246   1.359   5.763  0.5773 -0.1331  2.0813
15416SOL    HW248261   7.117   1.330   5.858 -2.0980 -0.1041 -1.4231
15418SOL     OW48262   2.067   1.990   3.142 -0.2821  0.4362 -0.4037
15418SOL    HW148263   1.977   2.007   3.183 -0.6619 -2.1237 -0.0855
15418SOL    HW248264   2.055   1.934   3.060  1.0477 -0.0860 -0.2473
15419SOL     OW48265   6.405   8.910   2.904 -0.2837 -0.7476  0.5339
15419SOL    HW148266   6.414   8.973   2.827  0.8349  0.1171  1.3640
15419SOL    HW248267   6.341   8.948   2.971  0.0383 -0.7024  0.8192
15420SOL     OW48268   4.101   6.971   2.566 -0.1938 -0.0740 -0.3971
15420SOL    HW148269   4.058   7.019   2.642 -0.1278 -0.0504 -0.3746
15420SOL    HW248270   4.196   6.950   2.589  0.5030  1.8951 -1.3239
15421SOL     OW48271   8.154   1.880   4.551  0.0307 -0.1725 -0.5886
15421SOL    HW148272   8.236   1.849   4.600  0.0036  2.6117  1.3507
15421SOL    HW248273   8.123   1.809   4.489  3.2341 -1.7459 -0.4746
15423SOL     OW48274   0.700   4.353   1.616  0.0098  0.2752 -0.1596
15423SOL    HW148275   0.709   4.445   1.655 -2.2435  0.1488  0.7324
15423SOL    HW248276   0.660   4.360   1.525 -0.5911  0.1654  0.0917
15424SOL     OW48277   5.850   7.763   3.417 -0.2696 -0.0992 -0.0465
15424SOL    HW148278   5.824   7.796   3.326  1.0716  1.0772 -0.0344
15424SOL    HW248279   5.934   7.708   3.409 -0.8823 -1.0866  0.3129
15425SOL     OW48280   6.885   1.186   4.551 -0.0111  1.0828 -0.0929
15425SOL    HW148281   6.910   1.093   4.577  0.4697  1.3523  0.4121
15425SOL    HW248282   6.789   1.188   4.524  0.4621  0.0732 -1.9063
15426SOL     OW48283   2.016   6.149   6.274  0.0031 -0.0542  0.0944
15426SOL    HW148284   2.011   6.166   6.176 -0.7216  0.7471  0.2691
15426SOL    HW248285   2.108   6.172   6.307 -0.1592  0.9744 -0.1568
15428SOL     OW48286   7.594   0.144   3.826  0.3586  0.1922 -0.4603
15428SOL    HW148287   7.505   0.109   3.800  1.4560 -2.3246 -0.9189
15428SOL    HW248288   7.605   0.139   3.925  0.7469 -1.3996 -0.5733
15429SOL     OW48289   2.319   8.409   5.472  0.0989  0.3175  0.5152
15429SOL    HW148290   2.252   8.435   5.402 -0.1587 -1.1276  0.2085
15429SOL    HW248291   2.387   8.348   5.431  0.8901  0.7775  1.1305
15430SOL     OW48292   0.511   0.198   1.514  0.0681  0.1254 -1.3672
15430SOL    HW148293   0.586   0.141   1.480  0.8402  0.5378 -0.3658
15430SOL    HW248294   0.517   0.288   1.471 -0.7867 -0.3317 -2.4758
15431SOL     OW48295   8.808   9.857   2.392  0.2921 -0.2620  0.0557
15431SOL    HW148296   8.755   9.855   2.477  0.4198 -0.4922  0.1313
15431SOL    HW248297   8.853   9.769   2.380  0.9584  0.0607  0.1802
15432SOL     OW48298   0.780   3.192   3.952 -0.1838 -0.3841  0.1698
15432SOL    HW148299   0.718   3.145   4.015 -0.9521  1.4729  0.8383
15432SOL    HW248300   0.750   3.287   3.940  1.2898 -0.0644 -1.1970
15435SOL     OW48301   1.604   3.848   0.072 -0.1962 -0.4747 -0.1654
15435SOL    HW148302   1.529   3.912   0.091 -0.2242 -0.6826  0.4466
15435SOL    HW248303   1.606   3.827  -0.025 -1.6655 -1.3788 -0.0111
15436SOL     OW48304   3.175   3.425   1.700 -0.3679  0.4812 -0.2411
15436SOL    HW148305   3.118   3.345   1.719 -0.8835  0.9431  0.1788
15436SOL    HW248306   3.204   3.467   1.786  1.2515 -0.1907 -0.4466
15437SOL     OW48307   2.711   0.490   1.376  0.1218 -0.3534  0.0823
15437SOL    HW148308   2.764   0.574   1.360 -0.0243 -0.3954 -0.6008
15437SOL    HW248309   2.698   0.442   1.290  1.1164 -1.6277  0.6205
15440SOL     OW48310   4.387   6.614   3.904 -0.4433 -0.9582  0.3019
15440SOL    HW148311   4.350   6.521   3.893 -2.9424 -0.0097  0.5285
15440SOL    HW248312   4.457   6.612   3.976 -1.1893 -2.4850  1.0350
15441SOL     OW48313   8.515   6.985   4.328 -0.7272 -0.2716  0.0535
15441SOL    HW148314   8.437   6.992   4.265 -0.0088  1.4567 -0.6732
15441SOL    HW248315   8.521   7.069   4.382  1.7536  0.4066 -1.2262
15442SOL     OW48316   6.364   7.984   4.611 -0.4970  0.3122  0.5231
15442SOL    HW148317   6.346   7.915   4.681 -0.4364  1.8362  2.0688
15442SOL    HW248318   6.463   7.989   4.595 -0.5855 -0.7750 -0.4678
15443SOL     OW48319   5.228   0.334   1.197 -0.4988 -0.4339 -0.2466
15443SOL    HW148320   5.229   0.255   1.258  2.7752 -1.4901 -1.5779
15443SOL    HW248321   5.322   0.361   1.175 -1.5789  0.9781 -3.4255
15444SOL     OW48322   2.491   1.623   3.154  1.2107  0.2954 -0.4483
15444SOL    HW148323   2.523   1.717   3.140 -0.2304  0.4654 -2.8996
15444SOL    HW248324   2.529   1.563   3.084 -0.9722 -0.1624 -1.2953
15446SOL     OW48325   8.287   3.425   1.202 -0.3663  0.1844  0.5972
15446SOL    HW148326   8.319   3.401   1.294  0.6498  0.0462  0.2153
15446SOL    HW248327   8.272   3.523   1.197  2.5528  0.6661  0.0407
15447SOL     OW48328   1.483   6.673   3.471  0.6141 -0.4499 -0.0933
15447SOL    HW148329   1.487   6.610   3.394 -0.5412 -3.7560  2.4508
15447SOL    HW248330   1.555   6.650   3.537 -0.5327  0.1594  1.3980
15448SOL     OW48331   2.131   1.780   3.579 -0.1563 -0.2402 -0.3874
15448SOL    HW148332   2.108   1.857   3.638 -0.1914  0.2290 -1.0164
15448SOL    HW248333   2.215   1.737   3.613 -1.1676 -1.1017  1.0818
15450SOL     OW48334   7.462   9.138   2.820  0.1725  0.1789  0.2470
15450SOL    HW148335   7.409   9.076   2.762  0.7590  0.2601 -0.3806
15450SOL    HW248336   7.466   9.228   2.777  2.1690 -0.2437 -0.5018
15451SOL     OW48337   2.172   6.795   5.169  0.6242 -0.7737  0.7603
15451SOL    HW148338   2.082   6.775   5.208 -0.1469  0.2756 -0.4604
15451SOL    HW248339   2.196   6.723   5.104 -0.1608 -0.0977 -0.2889
15452SOL     OW48340   3.090   5.637   6.209 -0.1961 -0.4416  0.0204
15452SOL    HW148341   3.157   5.612   6.139  0.0240  1.5764 -0.4899
15452SOL    HW248342   3.003   5.661   6.166 -0.2632  0.1504  0.4836
15453SOL     OW48343   8.065   2.125   4.710 -0.7878 -0.6820  0.3645
15453SOL    HW148344   8.092   2.036   4.675 -0.8627 -0.1594 -1.0337
15453SOL    HW248345   8.124   2.150   4.787  0.8765 -0.8369 -0.8300
15454SOL     OW48346   3.494   6.848   6.301  0.1663  0.0027 -0.2144
15454SOL    HW148347   3.396   6.848   6.324  0.3371  0.1848  0.5457
15454SOL    HW248348   3.537   6.768   6.343  0.5882  0.6325  0.5741
15455SOL     OW48349   3.924   2.203   6.045  0.5586  0.0152 -0.2567
15455SOL    HW148350   3.903   2.211   6.142  0.4579  0.6641 -0.3266
15455SOL    HW248351   3.869   2.268   5.993 -0.5260 -1.4126 -0.9220
15456SOL     OW48352   0.700   6.240   3.031  0.8324  0.2344 -0.9346
15456SOL    HW148353   0.749   6.299   3.095  0.2065  0.9918 -1.1438
15456SOL    HW248354   0.660   6.163   3.080 -1.3320  1.8580 -0.0629
15457SOL     OW48355   0.241   1.282   1.643 -0.3797  0.4939  0.3711
15457SOL    HW148356   0.267   1.217   1.715 -0.4303 -0.1425 -0.1828
15457SOL    HW248357   0.323   1.311   1.593 -0.4686  0.1603  0.0327
15458SOL     OW48358   2.255   6.066   3.931 -0.4881 -0.0221  0.5264
15458SOL    HW148359   2.345   6.109   3.925 -0.0403 -0.9071  0.8266
15458SOL    HW248360   2.208   6.097   4.013 -0.5182  0.5432  0.3017
15459SOL     OW48361   3.691   7.546   3.068 -0.2754  0.3729 -0.0079
15459SOL    HW148362   3.680   7.636   3.111  0.4159  0.1571  0.6329
15459SOL    HW248363   3.782   7.510   3.089 -0.1070  0.0441 -1.2570
15460SOL     OW48364   9.021   9.736   0.386 -0.7002  0.2736  0.1685
15460SOL    HW148365   9.021   9.766   0.291 -0.6412  0.8972  0.3691
15460SOL    HW248366   9.034   9.636   0.389  1.9223  0.5626 -0.3836
15461SOL     OW48367   8.612   1.062   1.434 -0.5712  0.2392 -0.3078
15461SOL    HW148368   8.617   1.066   1.335  0.5640 -0.0091 -0.2692
15461SOL    HW248369   8.523   1.095   1.465 -0.1159  2.4266 -1.2806
15462SOL     OW48370   5.107   1.680   0.987 -0.0009 -0.2211 -0.5743
15462SOL    HW148371   5.165   1.749   0.943 -1.8406  1.8598  0.1908
15462SOL    HW248372   5.126   1.679   1.086 -2.1585  1.4740 -0.0843
15464SOL     OW48373   9.265   3.607   2.033 -0.1951 -0.1941 -0.1068
15464SOL    HW148374   9.283   3.687   1.976  2.4950 -1.5218 -1.1757
15464SOL    HW248375   9.308   3.619   2.122  0.3021 -0.4957 -0.3060
15465SOL     OW48376   0.304   9.153   0.020 -0.2217 -0.5388  0.0320
15465SOL    HW148377   0.369   9.092  -0.025 -1.1873 -0.1860 -1.8792
15465SOL    HW248378   0.210   9.125  -0.002 -0.7031  0.1480  1.1449
15466SOL     OW48379   1.406   4.446   6.243 -0.2670  0.3112 -0.2685
15466SOL    HW148380   1.463   4.528   6.241 -0.7656  0.7311  1.5003
15466SOL    HW248381   1.463   4.365   6.258  0.2077  0.3237 -1.8523
15467SOL     OW48382   4.194   9.768   5.723  0.4024 -0.9397 -0.6083
15467SOL    HW148383   4.131   9.735   5.794  3.8608  0.4374  3.2632
15467SOL    HW248384   4.169   9.861   5.697  0.1646 -0.8094  0.0817
15468SOL     OW48385   4.778   0.642   4.768  0.2127  0.4194  0.3337
15468SOL    HW148386   4.711   0.603   4.706  1.1426 -0.7411  0.0448
15468SOL    HW248387   4.752   0.736   4.790 -0.4382  0.6457 -1.3419
15469SOL     OW48388   2.084   0.735   2.007  0.2951  0.1773 -0.5701
15469SOL    HW148389   2.097   0.831   1.983 -0.3232  0.6374  0.8633
15469SOL    HW248390   2.171   0.686   1.999  1.3729  1.6128  1.9009
15470SOL     OW48391   6.031   1.118   4.465 -0.2644  0.0016  0.5788
15470SOL    HW148392   6.055   1.214   4.476  1.2265 -0.3598  0.6435
15470SOL    HW248393   6.013   1.077   4.554 -2.5210  0.6145  0.4172
15471SOL     OW48394   1.122   6.883   5.436  0.4758 -0.3716  0.3898
15471SOL    HW148395   1.088   6.921   5.521  0.6491 -0.1546  0.3638
15471SOL    HW248396   1.106   6.784   5.435  0.0342 -0.3035  0.4614
15473SOL     OW48397   7.193   6.941   4.454  0.3624 -0.0372  0.3398
15473SOL    HW148398   7.222   6.858   4.405 -0.1805  0.1801 -0.3523
15473SOL    HW248399   7.171   6.917   4.548  1.1028 -0.5178  0.3963
15474SOL     OW48400   5.087   2.798   1.090  0.1497 -0.2247  0.2928
15474SOL    HW148401   5.049   2.736   1.158 -1.5223 -0.4402 -0.8196
15474SOL    HW248402   5.026   2.877   1.079  0.2372 -0.3468 -1.1848
15475SOL     OW48403   2.022   2.044   5.020  0.1994 -0.2622 -0.6884
15475SOL    HW148404   1.926   2.021   5.030  0.4784 -0.7308  1.2543
15475SOL    HW248405   2.031   2.128   4.966 -1.3832  0.5355  0.2510
15476SOL     OW48406   1.341   2.580   1.975  0.0388  0.1679 -0.3387
15476SOL    HW148407   1.271   2.515   2.006  0.4749 -0.1987 -0.1113
15476SOL    HW248408   1.430   2.554   2.013  0.4708  0.0802 -1.3854
15477SOL     OW48409   2.521   1.642   4.572  0.1469  0.2800 -0.2409
15477SOL    HW148410   2.497   1.624   4.667 -0.7728 -0.7334 -0.6426
15477SOL    HW248411   2.437   1.649   4.517  0.6417  1.7589 -0.8212
15479SOL     OW48412   5.122   6.454   1.196  0.3943 -0.3469  0.3761
15479SOL    HW148413   5.091   6.549   1.204 -0.5393 -0.6447  0.3627
15479SOL    HW248414   5.048   6.393   1.224  0.5012 -1.1150 -1.0103
15480SOL     OW48415   6.329   4.410   0.817 -0.3646  0.0260  0.2901
15480SOL    HW148416   6.342   4.316   0.849 -1.9101  0.0244  0.9694
15480SOL    HW248417   6.322   4.471   0.896 -1.0051  0.4793 -0.1105
15481SOL     OW48418   8.397   1.434   1.091  0.4183 -0.3444 -0.0705
15481SOL    HW148419   8.400   1.386   1.004  0.3100  1.0496 -0.8478
15481SOL    HW248420   8.365   1.528   1.077  3.1525  0.8162  1.0580
15482SOL     OW48421   8.147   2.872   3.054  0.7107 -0.1057  0.4283
15482SOL    HW148422   8.179   2.893   3.146 -1.6659  1.6222  0.9126
15482SOL    HW248423   8.125   2.958   3.006 -1.3676 -1.1352 -0.5105
15483SOL     OW48424   2.261   9.807   0.980  0.0952  0.1868 -0.7698
15483SOL    HW148425   2.220   9.727   1.025  1.6148  0.3961  1.0653
15483SOL    HW248426   2.328   9.776   0.913 -1.1692 -0.1093 -1.9053
15484SOL     OW48427   4.449   5.316   2.966  0.0601  0.3152  0.2813
15484SOL    HW148428   4.469   5.234   3.020 -0.4742  0.9427  1.4512
15484SOL    HW248429   4.517   5.325   2.893  2.2198  0.7192  2.2792
15485SOL     OW48430   0.480   0.676   1.177  0.1093 -0.6382 -0.6503
15485SOL    HW148431   0.384   0.687   1.202  0.0885 -2.1214 -0.0285
15485SOL    HW248432   0.497   0.582   1.148  1.9431 -1.2197  2.0037
15486SOL     OW48433   8.673   7.349   2.112 -0.0392  0.2763 -0.0271
15486SOL    HW148434   8.690   7.365   2.014 -1.3485  2.6386  0.0894
15486SOL    HW248435   8.707   7.427   2.165 -0.4135 -0.4391  1.2906
15487SOL     OW48436   7.003   1.721   4.783 -0.1929 -0.0646  0.0085
15487SOL    HW148437   7.040   1.778   4.857 -1.0217 -1.0747  1.2194
15487SOL    HW248438   6.963   1.638   4.821 -0.5421 -0.6555 -1.5943
15488SOL     OW48439   2.969   0.078   4.449 -0.5840 -0.5054 -0.5617
15488SOL    HW148440   2.930   0.107   4.536 -0.5792 -1.7166 -0.1372
15488SOL    HW248441   2.896   0.057   4.384 -0.5766  2.5953 -1.6275
15489SOL     OW48442   5.396   0.773   3.865  0.1124  0.8866  0.3741
15489SOL    HW148443   5.311   0.806   3.908 -1.0888 -2.4614  0.6720
15489SOL    HW248444   5.473   0.794   3.924 -0.5897  3.0048  0.6117
15491SOL     OW48445   0.479   6.995   5.967 -0.1844  0.1418 -0.2020
15491SOL    HW148446   0.387   7.030   5.946 -0.6979 -2.1807 -2.0145
15491SOL    HW248447   0.472   6.916   6.028  0.4733 -1.0495 -1.6338
15493SOL     OW48448   8.692   2.247   4.207 -0.0825  0.0468  0.2031
15493SOL    HW148449   8.780   2.206   4.185 -0.4441 -0.8442  0.4323
15493SOL    HW248450   8.681   2.251   4.306  0.2375  1.3151  0.2078
15494SOL     OW48451   9.687   4.009   3.280 -0.2460 -0.0878  0.6653
15494SOL    HW148452   9.719   4.103   3.275  0.3217 -0.2530  1.1613
15494SOL    HW248453   9.673   3.983   3.375 -1.2673 -0.2196  0.4846
15495SOL     OW48454   3.994   5.461   3.697  0.4772 -0.0250 -0.1842
15495SOL    HW148455   4.009   5.506   3.784 -2.0648  0.5394  0.0023
15495SOL    HW248456   4.056   5.499   3.628  0.1385  1.9844  0.5763
15496SOL     OW48457   8.536   8.238   1.369  0.4077 -0.0219 -0.3993
15496SOL    HW148458   8.589   8.164   1.412  0.4233  0.5831  0.6353
15496SOL    HW248459   8.596   8.316   1.351  0.2091  0.0610 -0.6970
15497SOL     OW48460   9.575   8.509   0.399  0.0536  0.3031 -0.3684
15497SOL    HW148461   9.628   8.426   0.382  1.0605  0.6577  0.9562
15497SOL    HW248462   9.638   8.584   0.421 -0.9954  0.7175  1.2721
15498SOL     OW48463   7.205   3.064   1.049 -0.0669  0.0842 -0.4130
15498SOL    HW148464   7.164   2.994   1.107 -1.7749  0.7173 -0.8471
15498SOL    HW248465   7.139   3.095   0.981  0.8961  1.6064 -0.6870
15499SOL     OW48466   0.999   1.559   4.238  0.3285  0.1223  0.0848
15499SOL    HW148467   0.984   1.489   4.309 -2.5471  0.0986 -0.4664
15499SOL    HW248468   1.054   1.634   4.276 -0.1879 -0.4368  1.9959
15500SOL     OW48469   3.746   4.180   6.136  0.1242 -0.0860  0.0202
15500SOL    HW148470   3.669   4.233   6.099  1.2548  0.7645 -1.1705
15500SOL    HW248471   3.785   4.228   6.215  1.1015  0.8596 -1.0139
15501SOL     OW48472   7.836   3.251   0.153 -0.3153 -0.2315  0.6891
15501SOL    HW148473   7.786   3.253   0.067  1.0210 -0.3934 -0.0989
15501SOL    HW248474   7.785   3.198   0.221 -2.2306  1.3899  0.5466
15502SOL     OW48475   6.790   7.289   6.013  0.0791  0.3498 -0.2791
15502SOL    HW148476   6.703   7.293   6.064 -0.0147  0.2630 -0.4312
15502SOL    HW248477   6.831   7.199   6.024  0.4435  0.5783  0.2730
15503SOL     OW48478   3.223   8.689   4.772 -0.0364 -0.1777  0.8444
15503SOL    HW148479   3.224   8.603   4.721  0.6313 -0.0405  0.6237
15503SOL    HW248480   3.129   8.714   4.794 -0.3367 -0.1129 -0.5083
15504SOL     OW48481   2.009   7.182   5.131  0.3201  0.2210  0.0452
15504SOL    HW148482   2.094   7.154   5.087  0.4169  0.2611  0.2083
15504SOL    HW248483   2.019   7.178   5.230  0.8981  2.4162  0.1114
15505SOL     OW48484   3.457   5.684   3.120  0.3740 -0.3439  0.2675
15505SOL    HW148485   3.454   5.617   3.194  0.7600  0.4257  0.9963
15505SOL    HW248486   3.546   5.679   3.075  0.5429 -0.0762  0.5646
15506SOL     OW48487   2.213   8.731   1.878  0.2559  0.1913 -0.1900
15506SOL    HW148488   2.172   8.821   1.870 -1.5645 -0.7704 -2.0401
15506SOL    HW248489   2.293   8.736   1.939 -0.4326  2.8021  0.5533
15507SOL     OW48490   3.454   7.015   4.134 -0.3998  0.5812  0.5490
15507SOL    HW148491   3.442   6.918   4.154  2.9658  0.5355  2.8059
15507SOL    HW248492   3.420   7.069   4.211 -1.5824  1.1885 -0.3818
15508SOL     OW48493   3.278   8.022   5.712 -0.0654 -0.6216 -0.3891
15508SOL    HW148494   3.254   8.107   5.665 -0.1136 -0.0943  0.5703
15508SOL    HW248495   3.239   8.023   5.804  0.6278 -1.3268 -0.0851
15511SOL     OW48496   1.622   4.609   0.764  1.1093 -0.5262  0.0875
15511SOL    HW148497   1.607   4.571   0.673  1.6381  0.3780 -0.3920
15511SOL    HW248498   1.534   4.630   0.806  0.8838  0.1820 -0.7111
15512SOL     OW48499   8.114   3.559   0.802  0.0820 -0.1049 -0.0131
15512SOL    HW148500   8.109   3.637   0.741 -0.7983  0.3499  0.6305
15512SOL    HW248501   8.209   3.526   0.808  0.4536  0.9273 -0.2525
15515SOL     OW48502   7.910   6.028   0.449  0.0753  0.7816 -0.0472
15515SOL    HW148503   7.902   6.000   0.353  1.6924  0.5446 -0.1286
15515SOL    HW248504   7.889   6.125   0.458 -0.0921  0.7993 -0.6406
15516SOL     OW48505   2.576   1.302   5.484  0.0684 -0.3239 -0.3876
15516SOL    HW148506   2.676   1.304   5.493  0.0231 -0.5623  0.1587
15516SOL    HW248507   2.540   1.220   5.529 -0.1996 -1.2526 -2.2523
15517SOL     OW48508   1.010   0.741   3.994  0.3942 -0.4840  0.0068
15517SOL    HW148509   1.084   0.741   3.926  0.7879  1.7393  0.3699
15517SOL    HW248510   0.936   0.800   3.962  1.0037  1.3714  1.9057
15518SOL     OW48511   4.412   0.174   1.010  0.2946 -0.1565  0.1114
15518SOL    HW148512   4.436   0.209   1.101  0.3602 -0.2207  0.1184
15518SOL    HW248513   4.355   0.093   1.019  0.1696 -0.0716  0.0948
15519SOL     OW48514   2.150   5.752   4.251 -0.4298  0.2896 -0.3625
15519SOL    HW148515   2.156   5.778   4.347  0.4122 -0.7545 -0.1245
15519SOL    HW248516   2.063   5.705   4.235  0.2231 -1.1673  0.3005
15520SOL     OW48517   4.221   3.075   1.909  0.3162  0.2408  0.5316
15520SOL    HW148518   4.127   3.085   1.876  0.4971  0.1595 -0.0142
15520SOL    HW248519   4.282   3.127   1.849  0.5104  1.0622  1.4334
15521SOL     OW48520   0.674   5.984   0.496 -0.4179  0.0162  0.6332
15521SOL    HW148521   0.592   5.981   0.553 -0.6238  2.5825  0.4885
15521SOL    HW248522   0.652   6.024   0.407  1.1805  1.6612  0.9509
15523SOL     OW48523   8.877   8.085   6.441  0.0251  0.1042  0.1021
15523SOL    HW148524   8.893   8.170   6.391  1.0960 -0.4959 -0.6010
15523SOL    HW248525   8.894   8.098   6.538 -0.7133  0.9225  0.1268
15524SOL     OW48526   1.811   9.443   3.001 -0.2259 -0.0215 -0.6742
15524SOL    HW148527   1.715   9.429   3.022  0.2868 -0.2411  1.6396
15524SOL    HW248528   1.820   9.514   2.931 -2.0337  0.6653 -0.2292
15525SOL     OW48529   3.836   7.839   4.498 -0.1777  0.2975  0.4317
15525SOL    HW148530   3.843   7.918   4.558 -0.2138  0.0269  0.7926
15525SOL    HW248531   3.808   7.869   4.407  1.9020  0.9506 -0.0045
15526SOL     OW48532   0.748   8.873   5.798  0.2610 -0.4963 -0.5845
15526SOL    HW148533   0.759   8.863   5.897  0.5500  0.7233 -0.4849
15526SOL    HW248534   0.761   8.969   5.773  0.3947 -0.8356 -1.8295
15527SOL     OW48535   5.275   9.266   4.647  0.8678 -0.1336 -0.2789
15527SOL    HW148536   5.330   9.324   4.586 -0.0043 -0.1573 -1.0945
15527SOL    HW248537   5.222   9.324   4.709  0.4505 -0.0757 -0.6920
15528SOL     OW48538   8.724   2.045   2.016 -0.0233 -0.0064 -0.2356
15528SOL    HW148539   8.624   2.045   2.029  0.1210  0.7005  0.9736
15528SOL    HW248540   8.752   2.135   1.982  0.0615 -0.6352 -1.9072
15530SOL     OW48541   5.171   8.588   6.299  0.0871 -0.2082  0.2025
15530SOL    HW148542   5.199   8.539   6.381 -0.7920 -1.0379  0.0197
15530SOL    HW248543   5.136   8.523   6.231 -0.2860  0.5805 -0.3747
15533SOL     OW48544   0.206   7.522   0.501  0.3272  0.4246  0.2064
15533SOL    HW148545   0.277   7.549   0.436  0.1753  0.3275 -0.0006
15533SOL    HW248546   0.152   7.447   0.462  0.4104  0.1772  0.5561
15534SOL     OW48547   3.284   5.577   6.025  0.2443  0.0460 -0.0698
15534SOL    HW148548   3.366   5.589   6.080  0.7169 -0.5014 -0.6539
15534SOL    HW248549   3.307   5.529   5.940 -0.6201  0.1609 -0.3743
15535SOL     OW48550   7.786   0.218   3.617  0.2792 -0.0194  0.0725
15535SOL    HW148551   7.865   0.230   3.678  1.3696  1.3551 -1.5517
15535SOL    HW248552   7.707   0.191   3.670  1.2956  0.8179  2.0712
15536SOL     OW48553   1.509   3.669   3.086  0.3588 -0.2673  0.4344
15536SOL    HW148554   1.563   3.735   3.138 -3.9159  1.8105  2.4204
15536SOL    HW248555   1.519   3.688   2.988  3.2876 -0.0656  0.7244
15537SOL     OW48556   8.361   2.522   4.392 -0.5958 -0.0621  0.3959
15537SOL    HW148557   8.327   2.432   4.419 -0.4603 -1.1564 -2.8424
15537SOL    HW248558   8.459   2.517   4.375 -0.6683  0.5958 -0.2198
15538SOL     OW48559   9.565   8.063   1.302 -0.0697  0.1660 -0.3469
15538SOL    HW148560   9.561   7.979   1.248 -2.1205  0.6823 -1.0282
15538SOL    HW248561   9.626   8.049   1.380 -0.1779 -1.8658 -0.5970
15539SOL     OW48562   6.960   0.926   0.693 -0.2016 -0.1028  0.4221
15539SOL    HW148563   7.041   0.923   0.751 -0.0742 -0.7328  0.2219
15539SOL    HW248564   6.880   0.898   0.746 -0.4026  1.1588  0.7968
15540SOL     OW48565   1.368   0.728   0.991  0.6737  0.7038 -0.3339
15540SOL    HW148566   1.291   0.772   1.038  0.9952 -1.8058  2.6758
15540SOL    HW248567   1.450   0.785   1.000  0.7489  0.2458  2.2935
15541SOL     OW48568   2.230   3.369   0.660 -0.4333 -0.4639  0.1400
15541SOL    HW148569   2.301   3.436   0.636  0.5196 -0.7733  1.9800
15541SOL    HW248570   2.224   3.300   0.589  1.1016 -0.4104 -0.0561
15542SOL     OW48571   7.355   9.575   3.198 -0.6201 -0.5294  0.3529
15542SOL    HW148572   7.394   9.667   3.190  1.1932 -1.2734  0.6366
15542SOL    HW248573   7.332   9.541   3.106  0.3801 -0.5105  0.0926
15543SOL     OW48574   5.554   7.530   4.730 -0.4239  0.4190 -0.8416
15543SOL    HW148575   5.588   7.444   4.767 -2.1528  0.4762  0.9551
15543SOL    HW248576   5.521   7.588   4.805  2.5666  3.5203 -1.7785
15544SOL     OW48577   3.837   2.836   1.756 -0.7355  0.2766  0.1508
15544SOL    HW148578   3.828   2.897   1.677  0.2614  2.1306  1.4366
15544SOL    HW248579   3.830   2.741   1.725 -0.5127  0.9743 -2.1536
15545SOL     OW48580   1.530   9.245   5.205  0.3109  0.0946  0.3092
15545SOL    HW148581   1.456   9.201   5.256  0.9146  1.3572  2.3190
15545SOL    HW248582   1.514   9.233   5.107 -2.5695  0.3960  0.7057
15548SOL     OW48583   1.423   1.799   0.862 -0.7221  0.1207  0.6367
15548SOL    HW148584   1.388   1.775   0.953 -2.7809  1.1418  0.1286
15548SOL    HW248585   1.419   1.719   0.803  0.0154 -0.3761  1.2442
15549SOL     OW48586   8.875   7.500   1.030  0.1166 -0.3736  0.4704
15549SOL    HW148587   8.792   7.448   1.009  1.0875 -1.2775 -1.2061
15549SOL    HW248588   8.882   7.514   1.129 -1.6030 -0.9976  0.6914
15550SOL     OW48589   3.356   8.757   5.157  0.5576  0.2049  0.3477
15550SOL    HW148590   3.448   8.746   5.119  1.0391 -1.9487  2.0262
15550SOL    HW248591   3.322   8.668   5.187 -1.4406  1.2298  1.2115
15551SOL     OW48592   2.109   7.448   3.754  0.0398 -0.3016  0.3015
15551SOL    HW148593   2.149   7.470   3.843  0.7456  1.1202 -0.3494
15551SOL    HW248594   2.165   7.379   3.708  0.4156 -0.0693  0.4096
15552SOL     OW48595   5.214   9.708   3.581 -0.3644  0.5643  0.3092
15552SOL    HW148596   5.199   9.782   3.516  2.6643 -0.1456 -1.2446
15552SOL    HW248597   5.267   9.741   3.659  0.2446  0.2511  0.0322
15553SOL     OW48598   6.933   8.667   3.806 -0.7561  0.1815  0.2615
15553SOL    HW148599   6.996   8.660   3.729 -0.1855  1.3677  0.6056
15553SOL    HW248600   6.849   8.617   3.785  0.4698 -1.8008 -0.0139
15554SOL     OW48601   0.652   7.691   5.575 -0.1514  0.1992  0.2721
15554SOL    HW148602   0.610   7.752   5.507  1.2445  0.6923 -0.1611
15554SOL    HW248603   0.706   7.621   5.527  0.2290  0.0929  0.8531
15555SOL     OW48604   8.403   4.508   0.720  0.4319 -0.3393 -0.1135
15555SOL    HW148605   8.372   4.481   0.810  0.7938  0.4278  0.2470
15555SOL    HW248606   8.434   4.428   0.670  0.4090 -0.7416  0.5166
15556SOL     OW48607   8.292   3.503   5.331 -0.2712 -0.6866 -0.2279
15556SOL    HW148608   8.194   3.489   5.345 -0.3133 -0.0308  0.1670
15556SOL    HW248609   8.332   3.544   5.414  0.7053 -2.7506  0.3503
15557SOL     OW48610   4.929   6.054   1.875  0.1052 -0.0591 -0.5990
15557SOL    HW148611   4.972   5.971   1.840  0.3161 -0.1813 -0.0497
15557SOL    HW248612   4.940   6.059   1.974  1.0050  1.1626 -0.7527
15558SOL     OW48613   9.550   8.389   5.904 -0.0221  0.4556 -0.3598
15558SOL    HW148614   9.471   8.418   5.851  0.4878  2.0976 -0.2572
15558SOL    HW248615   9.622   8.358   5.842 -0.1592  0.4729 -0.5295
15559SOL     OW48616   1.202   7.116   4.884  0.4907 -0.9509  0.2063
15559SOL    HW148617   1.276   7.146   4.943 -0.0255 -0.7567  0.7653
15559SOL    HW248618   1.222   7.141   4.789  0.1041  1.0972  0.6474
15560SOL     OW48619   2.101   8.116   6.211  0.0456  0.1354 -0.1422
15560SOL    HW148620   2.141   8.029   6.185  1.0823  0.4595  0.3455
15560SOL    HW248621   2.049   8.105   6.296  1.0786  0.2139  0.5116
15561SOL     OW48622   0.841   0.950   3.866  0.1207  0.5369  0.1000
15561SOL    HW148623   0.750   0.990   3.866  0.4478  1.2863 -1.2237
15561SOL    HW248624   0.905   1.011   3.819  1.2666 -0.0748  0.8367
15562SOL     OW48625   1.104   2.053   0.413  0.2885 -0.2503 -0.5635
15562SOL    HW148626   1.081   2.066   0.510  0.9248 -0.3928 -0.3915
15562SOL    HW248627   1.033   2.095   0.357  0.4481  0.7657 -0.0244
15563SOL     OW48628   2.422   6.002   3.391  0.3710  0.3803  0.6919
15563SOL    HW148629   2.375   6.069   3.448 -1.5577 -0.2282 -0.1563
15563SOL    HW248630   2.520   6.006   3.410  0.3769  3.7069  0.4123
15565SOL     OW48631   1.072   9.522   0.868  0.5687  0.0638  0.1332
15565SOL    HW148632   1.092   9.536   0.771  1.6323 -0.0581  0.3316
15565SOL    HW248633   1.069   9.610   0.914  2.0793  0.0088  0.3714
15566SOL     OW48634   4.855   5.755   2.636  0.2844 -0.3928 -0.0377
15566SOL    HW148635   4.868   5.764   2.734 -0.4275 -0.8059  0.0943
15566SOL    HW248636   4.891   5.837   2.590  2.1626 -0.9394  0.4118
15567SOL     OW48637   0.012   5.546   0.674 -0.1343 -0.0593 -0.9731
15567SOL    HW148638  -0.044   5.465   0.657  1.1119 -0.9459 -0.9373
15567SOL    HW248639   0.077   5.559   0.599  0.5541  0.1421 -0.3513
15568SOL     OW48640   4.648   9.071   4.287 -0.6692  0.1474 -0.0696
15568SOL    HW148641   4.687   9.002   4.348 -0.9370  0.7277  0.7616
15568SOL    HW248642   4.575   9.121   4.335 -0.1789  1.3030 -0.5139
15569SOL     OW48643   3.820   6.043   4.023 -0.3194 -0.3024 -0.5425
15569SOL    HW148644   3.906   6.043   4.073  1.0429 -0.0404 -2.8210
15569SOL    HW248645   3.813   6.127   3.968 -1.4333 -0.9198 -1.3669
15570SOL     OW48646   5.434   7.253   5.041 -0.0174 -0.1332 -0.1039
15570SOL    HW148647   5.507   7.294   5.095 -0.6442  1.0482 -0.1490
15570SOL    HW248648   5.472   7.217   4.956  0.9256 -1.7563  0.9585
15571SOL     OW48649   1.146   8.803   3.455  0.5777 -0.3048  0.3625
15571SOL    HW148650   1.214   8.873   3.435 -0.7883  1.9051  3.0673
15571SOL    HW248651   1.181   8.741   3.526 -0.1734  0.7839  1.6978
15572SOL     OW48652   6.743   7.621   3.593 -0.5053 -0.3531  0.5145
15572SOL    HW148653   6.739   7.579   3.502 -0.8848 -0.5559  0.6258
15572SOL    HW248654   6.719   7.717   3.586  3.0561  0.5775 -0.1896
15573SOL     OW48655   4.618   3.141   0.844 -0.4747  0.7245  0.5794
15573SOL    HW148656   4.600   3.165   0.939 -0.9624  1.8209  0.2220
15573SOL    HW248657   4.704   3.091   0.837 -1.5232 -1.2843  1.8626
15574SOL     OW48658   9.595   9.339   3.705 -0.0836  0.1007 -0.4845
15574SOL    HW148659   9.597   9.320   3.607 -1.9484  4.9233 -1.6184
15574SOL    HW248660   9.501   9.336   3.738  0.2202  1.2255  0.5251
15575SOL     OW48661   5.178   0.299   4.280  0.2255 -0.4129 -0.0780
15575SOL    HW148662   5.114   0.332   4.209  0.1563  0.3522  0.3291
15575SOL    HW248663   5.254   0.252   4.236  0.6608  0.8695 -0.7376
15576SOL     OW48664   4.418   6.621   2.287  0.0936  0.4760  0.5164
15576SOL    HW148665   4.462   6.572   2.362  0.0354  1.0215  0.9097
15576SOL    HW248666   4.324   6.588   2.276  1.0727 -1.8425 -1.3817
15577SOL     OW48667   0.675   9.601   3.385  0.1667  0.4595  0.1656
15577SOL    HW148668   0.670   9.615   3.286 -1.1939  0.1458  0.1762
15577SOL    HW248669   0.762   9.558   3.408  0.1138 -0.2965 -1.0033
15578SOL     OW48670   0.133   1.191   5.340 -0.1141 -0.6036 -0.3542
15578SOL    HW148671   0.034   1.195   5.327 -0.0901 -0.4543 -0.4856
15578SOL    HW248672   0.165   1.278   5.379 -0.0230 -0.6199 -0.3929
15579SOL     OW48673   1.760   8.212   1.896  0.0089  0.3023 -1.0288
15579SOL    HW148674   1.828   8.166   1.953  0.9988  2.0227 -0.7652
15579SOL    HW248675   1.795   8.222   1.803 -1.4477 -2.1501 -1.8955
15580SOL     OW48676   2.300   2.519   4.563 -0.2544  0.4242  0.9810
15580SOL    HW148677   2.373   2.465   4.607 -2.2810  0.2713  4.3209
15580SOL    HW248678   2.318   2.617   4.577  0.9339  0.5276 -0.9997
15581SOL     OW48679   2.568   5.786   5.299  0.3094  0.1347 -0.3320
15581SOL    HW148680   2.641   5.750   5.241  1.2033  0.0013  0.8562
15581SOL    HW248681   2.482   5.782   5.250  0.8149 -1.2888 -1.1368
15582SOL     OW48682   4.525   2.237   1.783 -0.5966 -0.6029  0.2620
15582SOL    HW148683   4.590   2.184   1.838  1.0537  1.3708  0.2781
15582SOL    HW248684   4.441   2.250   1.836 -0.7172 -2.4597  0.5748
15583SOL     OW48685   8.540   2.926   1.854  0.5286  0.5294 -0.0545
15583SOL    HW148686   8.476   2.849   1.846  1.6417 -0.4639  0.4441
15583SOL    HW248687   8.490   3.007   1.884 -0.7665  0.1675 -1.1562
15584SOL     OW48688   8.604   0.185   3.439 -0.4555 -0.1214  0.3392
15584SOL    HW148689   8.508   0.185   3.464  0.1819 -0.1261  2.9362
15584SOL    HW248690   8.627   0.271   3.394 -1.1478  0.8834  1.8692
15586SOL     OW48691   7.836   4.833   0.625  0.1129  0.1636  0.4910
15586SOL    HW148692   7.772   4.839   0.548 -1.7645  0.4427  2.0169
15586SOL    HW248693   7.852   4.737   0.648 -0.1508  0.0986  0.4019
15587SOL     OW48694   6.236   8.680   3.784  0.8650  0.0639 -0.2197
15587SOL    HW148695   6.327   8.709   3.757  1.2031 -1.0755 -0.3099
15587SOL    HW248696   6.207   8.602   3.728  0.8149 -1.1160  1.4007
15588SOL     OW48697   9.414   8.800   6.164 -0.3669 -0.3718 -0.5422
15588SOL    HW148698   9.358   8.838   6.090 -0.0861  0.8543 -0.1434
15588SOL    HW248699   9.509   8.827   6.149 -0.1495 -1.0188 -0.3048
15590SOL     OW48700   5.550   0.488   4.201  0.2897 -0.0548  0.3982
15590SOL    HW148701   5.489   0.492   4.281  0.1256  1.2274  0.2294
15590SOL    HW248702   5.518   0.417   4.139 -1.3016  0.8905  0.1118
15592SOL     OW48703   1.275   0.386   3.436 -0.3857 -0.5624  0.0961
15592SOL    HW148704   1.264   0.290   3.410 -1.9365 -0.8982  1.8228
15592SOL    HW248705   1.324   0.435   3.365  1.2860 -2.8565 -0.3858
15593SOL     OW48706   7.651   0.931   5.079 -0.0840  0.1028  0.1890
15593SOL    HW148707   7.631   0.860   5.011 -0.4860  0.0229  0.3894
15593SOL    HW248708   7.594   0.916   5.160 -0.4967  0.9326  0.0502
15594SOL     OW48709   3.379   7.662   6.220 -0.2884 -0.0932  0.2325
15594SOL    HW148710   3.400   7.631   6.313  0.0484  0.4865  0.3557
15594SOL    HW248711   3.446   7.732   6.192 -0.9082  0.3686 -0.1139
15595SOL     OW48712   1.155   7.236   3.521 -0.4001 -0.2482  0.0159
15595SOL    HW148713   1.215   7.249   3.600 -1.3683  0.8714  0.5667
15595SOL    HW248714   1.181   7.151   3.475  0.2004 -0.9074  1.5067
15596SOL     OW48715   9.428   7.054   0.729 -0.4062 -0.3110  0.3480
15596SOL    HW148716   9.368   6.998   0.786 -1.0536  0.7136  0.6917
15596SOL    HW248717   9.522   7.047   0.763 -0.5342 -0.9407  0.5791
15597SOL     OW48718   0.074   3.081   4.231 -0.1711  0.4199  0.2983
15597SOL    HW148719  -0.014   3.033   4.224 -0.2098  0.6329 -0.7162
15597SOL    HW248720   0.083   3.120   4.322 -0.5843 -0.6534  0.8079
15598SOL     OW48721   4.381   9.159   3.696  0.2959 -0.0847  0.1324
15598SOL    HW148722   4.411   9.234   3.637 -0.5644 -0.6528 -1.0683
15598SOL    HW248723   4.391   9.072   3.646 -0.1795 -0.6098  0.9361
15599SOL     OW48724   3.503   1.783   0.121 -0.4766  0.1398 -0.5363
15599SOL    HW148725   3.501   1.872   0.074 -0.4067 -0.5402 -1.8525
15599SOL    HW248726   3.584   1.732   0.093 -1.5202 -1.1275 -1.2835
15601SOL     OW48727   8.486   7.641   1.797  0.1126  0.0278  0.2139
15601SOL    HW148728   8.441   7.612   1.882 -0.6999 -0.8499 -0.5074
15601SOL    HW248729   8.418   7.648   1.724  0.7498  1.1277 -0.2928
15603SOL     OW48730   1.186   5.114   2.095 -0.1902  0.1672 -0.6513
15603SOL    HW148731   1.126   5.034   2.089  1.4037 -1.1091 -0.0259
15603SOL    HW248732   1.135   5.191   2.132 -2.5409  0.2983 -3.9688
15604SOL     OW48733   8.195   2.118   3.167  0.1753 -0.0634 -0.3770
15604SOL    HW148734   8.222   2.043   3.107  0.1917 -0.8136  0.5561
15604SOL    HW248735   8.203   2.089   3.262 -1.1303  0.6570 -0.0338
15605SOL     OW48736   9.081   7.956   3.407 -0.1171  0.4881 -0.3101
15605SOL    HW148737   9.129   7.884   3.458 -0.8745 -0.0697 -0.3635
15605SOL    HW248738   9.019   8.005   3.468 -0.0770  0.6700 -0.4146
15608SOL     OW48739   2.076   1.751   4.584 -0.3978  0.2110  0.3898
15608SOL    HW148740   1.988   1.708   4.603 -1.1912  2.0245  1.0059
15608SOL    HW248741   2.121   1.775   4.671 -0.4684  1.5663  0.0600
15609SOL     OW48742   5.622   1.433   5.571  0.0227  0.1653 -0.3458
15609SOL    HW148743   5.630   1.376   5.489  2.4560 -0.0732  0.0227
15609SOL    HW248744   5.640   1.528   5.548  1.4638 -0.0096  0.0395
15610SOL     OW48745   9.631   7.337   4.500  0.0071 -0.3119 -0.1088
15610SOL    HW148746   9.657   7.241   4.511  0.0056 -0.4362 -1.0751
15610SOL    HW248747   9.594   7.350   4.408  1.0084  0.8441 -0.3578
15611SOL     OW48748   8.394   5.673   4.348 -0.4785  0.1642  0.4205
15611SOL    HW148749   8.318   5.654   4.411 -0.7592  1.3937  0.4776
15611SOL    HW248750   8.465   5.604   4.360 -1.3092 -0.6395  0.8235
15612SOL     OW48751   5.140   2.134   2.962 -0.0125  0.5377 -0.5080
15612SOL    HW148752   5.142   2.226   3.001 -1.2801 -0.4348  1.9873
15612SOL    HW248753   5.143   2.139   2.862  0.8706  3.2241 -0.3711
15614SOL     OW48754   0.504   9.296   3.752  0.0263  0.3028 -0.2949
15614SOL    HW148755   0.419   9.248   3.774  0.0176  0.7056  0.5967
15614SOL    HW248756   0.498   9.335   3.660  0.3014 -1.9685 -1.3162
15617SOL     OW48757   9.665   7.049   4.039 -0.1730  0.2428 -0.2573
15617SOL    HW148758   9.645   7.130   4.095 -2.1675  1.0375 -2.0229
15617SOL    HW248759   9.764   7.037   4.031  0.1460  0.8351  2.3528
15618SOL     OW48760   2.285   8.367   1.930 -0.0180  0.1213 -0.5941
15618SOL    HW148761   2.272   8.282   1.878 -0.3646  0.7914 -1.6267
15618SOL    HW248762   2.241   8.442   1.881  1.8626  1.2201 -0.6268
15619SOL     OW48763   1.520   4.913   3.399 -0.5250 -0.0244  0.0738
15619SOL    HW148764   1.586   4.847   3.433 -0.0102 -0.2515 -1.3222
15619SOL    HW248765   1.513   4.905   3.300 -1.3708  1.1773  0.0201
15621SOL     OW48766   6.964   2.363   4.702 -0.6733  0.0368  0.1350
15621SOL    HW148767   7.012   2.433   4.756 -0.7549  0.4786 -0.3566
15621SOL    HW248768   6.888   2.405   4.654 -1.0126 -0.4915  0.2099
15622SOL     OW48769   9.916   3.631   4.568  0.2413 -0.0048  0.2632
15622SOL    HW148770   9.850   3.695   4.529 -0.2416 -0.0817  0.9514
15622SOL    HW248771   9.872   3.578   4.641  0.3222 -1.8681 -1.0099
15623SOL     OW48772   5.438   3.885   1.560 -0.0499 -0.0644  0.6972
15623SOL    HW148773   5.345   3.851   1.547  0.5065 -1.8796  1.4221
15623SOL    HW248774   5.454   3.901   1.658  0.9767 -1.4235  0.7544
15624SOL     OW48775   6.482   4.426   1.245  0.3211  0.3058  1.0359
15624SOL    HW148776   6.401   4.381   1.280  0.7155 -0.8688  0.4650
15624SOL    HW248777   6.543   4.449   1.320  0.3642 -0.6021  1.2791
15625SOL     OW48778   1.451   5.276   3.663 -0.1809  0.4084  0.7046
15625SOL    HW148779   1.452   5.275   3.563  0.7794  1.2465  0.6967
15625SOL    HW248780   1.415   5.190   3.697  1.9437 -0.9303 -0.3367
15626SOL     OW48781   3.475   3.021   4.890  0.1001  0.0091 -0.3335
15626SOL    HW148782   3.422   2.940   4.862  0.8501 -0.3208 -0.8295
15626SOL    HW248783   3.571   2.995   4.899  0.2446  0.7089  0.1296
15627SOL     OW48784   4.280   7.087   3.833 -0.1768  0.8547  0.4304
15627SOL    HW148785   4.294   7.128   3.743  0.3024 -1.2810 -0.4912
15627SOL    HW248786   4.269   6.988   3.824  1.5661  0.3807  2.8754
15628SOL     OW48787   2.446   4.580   4.344  0.1499  0.5421  0.4195
15628SOL    HW148788   2.540   4.557   4.320  0.0790 -0.2734  0.9302
15628SOL    HW248789   2.419   4.664   4.296  0.4214 -0.3942 -1.3815
15629SOL     OW48790   4.499   2.336   0.816  0.1104  0.0184 -0.0476
15629SOL    HW148791   4.563   2.408   0.840  0.8106 -0.1388 -1.4203
15629SOL    HW248792   4.546   2.263   0.767 -1.3058  0.4102 -2.0499
15630SOL     OW48793   3.095   8.741   5.487 -0.0384  0.3782  0.2673
15630SOL    HW148794   3.107   8.695   5.575  1.0405 -0.9187 -0.5262
15630SOL    HW248795   3.048   8.680   5.424 -2.0198  1.7948  0.3156
15631SOL     OW48796   1.492   4.179   2.345 -0.0350  0.0067  0.2338
15631SOL    HW148797   1.413   4.142   2.295 -0.6423 -0.6653  1.6597
15631SOL    HW248798   1.461   4.254   2.404  0.6497  0.7015 -0.2781
15632SOL     OW48799   4.944   6.794   1.765  0.0834  0.2236 -0.1622
15632SOL    HW148800   4.852   6.834   1.762  0.3392  0.8224 -0.1772
15632SOL    HW248801   4.944   6.712   1.822 -0.3260  0.5711  0.3381
15633SOL     OW48802   3.982   5.052   0.976  0.3716  0.1253 -0.2849
15633SOL    HW148803   3.946   4.967   1.015 -0.5275 -0.5761 -2.5942
15633SOL    HW248804   4.075   5.036   0.941  0.7203  0.4490  0.4838
15634SOL     OW48805   7.887   3.701   5.273 -0.0848 -0.2814  0.9449
15634SOL    HW148806   7.885   3.610   5.314 -1.0598 -0.4210  0.6036
15634SOL    HW248807   7.862   3.695   5.177  0.7707  0.2336  0.6777
15635SOL     OW48808   8.055   4.007   4.227  0.2089  0.1629 -0.5593
15635SOL    HW148809   7.955   4.004   4.233  0.3046 -0.5519  0.9016
15635SOL    HW248810   8.082   4.023   4.132 -1.2895 -0.1403 -1.0535
15636SOL     OW48811   0.996   3.216   2.663 -0.0819  0.7119  0.1185
15636SOL    HW148812   1.001   3.256   2.754 -0.6873  0.1952  0.3817
15636SOL    HW248813   1.089   3.196   2.630  0.0712 -0.4174  1.2047
15637SOL     OW48814   1.471   1.551   4.095 -0.3290  0.1091 -0.6319
15637SOL    HW148815   1.509   1.466   4.133  0.2966 -0.1854 -1.8599
15637SOL    HW248816   1.540   1.623   4.101 -1.5214  1.0896  2.1854
15639SOL     OW48817   5.123   2.121   0.107  0.3187 -0.0007 -0.0951
15639SOL    HW148818   5.210   2.074   0.114  0.8918  1.0753  0.1249
15639SOL    HW248819   5.138   2.220   0.103 -0.9539  0.2792  1.4075
15640SOL     OW48820   5.085   3.455   1.483  0.2673  0.1280 -0.0569
15640SOL    HW148821   4.992   3.493   1.490  0.8042  1.1376  1.9472
15640SOL    HW248822   5.145   3.522   1.439  0.3954  0.0592  0.0138
15641SOL     OW48823   5.878   0.004   1.621  0.3845  0.1970 -0.1139
15641SOL    HW148824   5.889   0.074   1.551  1.8458 -0.2958 -0.3833
15641SOL    HW248825   5.960  -0.001   1.678 -0.8041  0.6179  1.6712
15642SOL     OW48826   9.166   3.961   4.226 -0.1109  0.3407  0.0950
15642SOL    HW148827   9.074   3.996   4.208  0.9779  2.3985 -1.7654
15642SOL    HW248828   9.231   4.038   4.229  1.4605 -1.0051  2.0836
15643SOL     OW48829   1.869   6.183   5.194 -0.2321  0.1126  0.9055
15643SOL    HW148830   1.936   6.148   5.259  1.5570 -0.7468 -1.3359
15643SOL    HW248831   1.915   6.239   5.125 -1.2542 -2.9498 -2.4328
15644SOL     OW48832   8.852   2.619   3.664  0.4063 -0.1577 -0.1468
15644SOL    HW148833   8.766   2.588   3.622 -0.0486  0.5031  0.2857
15644SOL    HW248834   8.847   2.717   3.683  1.3703 -0.0554 -0.3812
15645SOL     OW48835   1.535   6.027   6.434  0.8043  0.4231 -0.5207
15645SOL    HW148836   1.569   5.974   6.356 -2.1006  1.7093 -2.7441
15645SOL    HW248837   1.530   6.123   6.408 -1.8118  0.6343  0.6742
15646SOL     OW48838   5.936   5.076   0.240  0.7219 -0.2445 -0.4615
15646SOL    HW148839   5.964   5.167   0.211  3.2283 -1.5152 -2.2575
15646SOL    HW248840   5.935   5.072   0.340 -1.5443  2.3252 -0.3358
15647SOL     OW48841   0.936   5.116   2.663 -0.3153  0.0380 -0.1065
15647SOL    HW148842   0.965   5.180   2.733 -1.1685 -0.7151  0.9486
15647SOL    HW248843   0.850   5.073   2.690 -0.4792 -0.5216 -1.4487
15648SOL     OW48844   8.088   2.253   2.826 -0.3373  0.4117  0.3285
15648SOL    HW148845   8.063   2.189   2.754  1.5571  0.0402 -0.0276
15648SOL    HW248846   8.014   2.259   2.893 -1.1316 -1.0237 -0.4030
15649SOL     OW48847   8.058   4.358   5.153 -1.0916 -0.3518 -0.2250
15649SOL    HW148848   8.012   4.412   5.224 -0.3459  1.0510 -0.7874
15649SOL    HW248849   8.014   4.375   5.065 -0.2617  0.0678 -0.5630
15650SOL     OW48850   0.951   0.210   0.219  1.5277 -0.4077 -0.8452
15650SOL    HW148851   0.869   0.258   0.187 -0.1598 -0.9556  2.3687
15650SOL    HW248852   0.971   0.134   0.157 -0.1969 -0.0632 -1.8688
15651SOL     OW48853   2.644   7.462   5.613  0.1633  0.3877  0.1378
15651SOL    HW148854   2.621   7.371   5.646 -0.2921  0.7329  0.7863
15651SOL    HW248855   2.639   7.464   5.513 -0.4827 -0.1129  0.1607
15653SOL     OW48856   6.686   6.275   5.957 -0.3997  0.2963 -0.5749
15653SOL    HW148857   6.690   6.183   5.995 -1.5426 -0.3847 -2.0600
15653SOL    HW248858   6.679   6.270   5.857 -2.1863  1.9365 -0.5709
15654SOL     OW48859   2.456   5.914   5.689 -0.4227 -0.4156  0.1327
15654SOL    HW148860   2.438   5.815   5.688  0.2035 -0.5248 -1.1651
15654SOL    HW248861   2.377   5.962   5.728 -1.0335 -1.3705  0.0884
15655SOL     OW48862   7.808   7.920   1.765  0.5006  0.1418  0.1313
15655SOL    HW148863   7.874   7.907   1.690 -1.2578  1.1422 -1.6454
15655SOL    HW248864   7.848   7.982   1.833  1.5784  0.3987 -0.7062
15656SOL     OW48865   0.062   5.147   1.998  0.0644  0.2352 -0.3816
15656SOL    HW148866  -0.025   5.168   1.953 -0.5208 -0.4617  0.4239
15656SOL    HW248867   0.136   5.188   1.945 -0.7597  1.0209 -0.9643
15659SOL     OW48868   5.932   2.689   4.964  0.1937 -0.5106 -0.2027
15659SOL    HW148869   5.861   2.752   4.933  0.9315  0.9025  0.8953
15659SOL    HW248870   5.903   2.595   4.948 -1.2561  0.0891 -1.1730
15660SOL     OW48871   0.504   4.146   6.187 -0.1915 -0.1157  0.2317
15660SOL    HW148872   0.489   4.234   6.143 -2.0950 -0.3853  0.2877
15660SOL    HW248873   0.523   4.077   6.118 -0.5266 -0.0159  0.0385
15661SOL     OW48874   1.618   9.198   2.205 -0.3611 -0.0863  0.4152
15661SOL    HW148875   1.633   9.195   2.106  1.3619  3.1113  0.4764
15661SOL    HW248876   1.701   9.233   2.249 -2.1743  1.5754  2.6401
15662SOL     OW48877   7.489   2.706   4.915 -0.4047 -0.1737  0.0568
15662SOL    HW148878   7.518   2.627   4.862  0.7880  0.5733 -0.4336
15662SOL    HW248879   7.494   2.788   4.858  0.2832  0.5444  1.1255
15663SOL     OW48880   0.254   9.632   1.439 -0.3906 -0.3351  0.1051
15663SOL    HW148881   0.192   9.710   1.447 -0.7495 -0.5502 -0.4979
15663SOL    HW248882   0.269   9.592   1.529  0.1437  0.6952  0.4826
15664SOL     OW48883   5.943   1.970   3.703  0.2051  0.2470 -0.2158
15664SOL    HW148884   5.892   1.912   3.639 -1.3598  0.3547  0.9288
15664SOL    HW248885   5.880   2.015   3.766  1.6930  0.5598  1.0885
15665SOL     OW48886   4.058   4.703   4.096  0.0851 -0.1290 -0.8226
15665SOL    HW148887   4.115   4.713   4.177 -1.5527  1.3852  0.1856
15665SOL    HW248888   3.965   4.732   4.117 -1.1660 -2.8471 -2.3266
15666SOL     OW48889   9.443   0.170   3.573 -0.0588 -0.4426  0.1029
15666SOL    HW148890   9.528   0.176   3.625  0.8639  1.4684 -1.5354
15666SOL    HW248891   9.464   0.163   3.475 -1.7795 -1.3113 -0.2322
15667SOL     OW48892   4.411   5.089   4.043  0.0806  0.1806 -0.6160
15667SOL    HW148893   4.345   5.053   4.109  0.2409  0.5621 -0.2399
15667SOL    HW248894   4.495   5.035   4.047  0.2226  0.4216 -0.2461
15668SOL     OW48895   1.728   0.017   4.557 -0.1046  0.5297 -0.5849
15668SOL    HW148896   1.734   0.032   4.656  1.9337 -1.4855 -0.3377
15668SOL    HW248897   1.787   0.082   4.510  0.1026  0.5214 -0.3412
15669SOL     OW48898   7.721   0.530   5.195 -0.1141 -0.1100  0.3181
15669SOL    HW148899   7.751   0.611   5.247  0.3047 -0.6487  0.9253
15669SOL    HW248900   7.699   0.456   5.258  1.8099 -1.2574 -0.2996
15670SOL     OW48901   6.536   0.382   3.065 -0.0517 -0.4037  0.3143
15670SOL    HW148902   6.597   0.409   3.139 -0.1009  0.0059  0.2060
15670SOL    HW248903   6.461   0.448   3.057  0.6637  0.2705 -0.9570
15671SOL     OW48904   8.486   4.584   2.937 -0.3317  0.2992  0.5472
15671SOL    HW148905   8.471   4.666   2.881  1.7745  0.2690 -0.1089
15671SOL    HW248906   8.438   4.594   3.024 -0.2371  2.1712  0.4088
15672SOL     OW48907   0.147   0.461   3.392 -0.1292 -0.2060  0.1058
15672SOL    HW148908   0.115   0.427   3.480  2.2996 -1.1422  0.6377
15672SOL    HW248909   0.180   0.555   3.402 -0.5956 -0.0264  0.0040
15674SOL     OW48910   7.314   8.282   4.987 -0.4743  0.6597  0.2894
15674SOL    HW148911   7.246   8.295   5.059 -1.9381 -0.4975 -0.8629
15674SOL    HW248912   7.292   8.200   4.935  2.6157 -0.5427  0.7784
15676SOL     OW48913   4.105   1.094   4.084  0.1747 -0.5432 -0.1030
15676SOL    HW148914   4.082   1.175   4.138 -0.3618 -0.6011 -0.2390
15676SOL    HW248915   4.121   1.121   3.989  1.4114 -0.3989  0.1343
15677SOL     OW48916   1.569   9.603   5.651  0.1662  0.1217 -0.6634
15677SOL    HW148917   1.486   9.595   5.597 -0.6347 -0.2139  0.5830
15677SOL    HW248918   1.576   9.695   5.689 -0.3517 -0.2414  0.3362
15678SOL     OW48919   7.859   0.317   2.293 -0.0519 -0.0791 -0.3185
15678SOL    HW148920   7.826   0.401   2.250 -0.2322  0.1916  0.3319
15678SOL    HW248921   7.917   0.340   2.371  1.4147 -0.5572 -1.2577
15679SOL     OW48922   1.312   2.365   5.630  0.2704  0.5216  0.1546
15679SOL    HW148923   1.235   2.429   5.633 -0.5395 -0.4257  0.1172
15679SOL    HW248924   1.277   2.271   5.630  1.4560  0.0670  0.8687
15680SOL     OW48925   4.419   9.261   4.846 -0.2543 -0.8393 -0.6249
15680SOL    HW148926   4.411   9.178   4.900 -0.5531 -0.9355 -0.8125
15680SOL    HW248927   4.513   9.296   4.850 -0.3366 -0.7026  0.1668
15681SOL     OW48928   6.437   7.663   5.350 -0.2036 -0.4629 -0.6036
15681SOL    HW148929   6.490   7.579   5.340 -0.0325 -0.1196 -2.6280
15681SOL    HW248930   6.495   7.742   5.331 -1.1079 -0.0183 -1.5340
15683SOL     OW48931   3.862   4.023   6.347 -0.4571  0.4529 -0.2296
15683SOL    HW148932   3.804   4.057   6.273 -1.1477 -1.1760 -0.4406
15683SOL    HW248933   3.890   3.929   6.327  1.1483  0.7548  0.5233
15684SOL     OW48934   0.654   1.656   1.479  0.2496  0.0983 -0.2763
15684SOL    HW148935   0.634   1.598   1.400 -0.0044 -1.1006  0.6630
15684SOL    HW248936   0.627   1.609   1.563  0.7364  1.2692  0.5473
15690SOL     OW48937   2.994   8.080   1.080 -0.2766  0.2967  0.1044
15690SOL    HW148938   3.029   8.002   1.029 -0.1963 -0.3478  1.1335
15690SOL    HW248939   2.908   8.055   1.124 -0.3486  0.8554  0.2931
15691SOL     OW48940   4.803   0.400   4.298  0.1756 -0.3581  0.4823
15691SOL    HW148941   4.722   0.379   4.242 -0.0309 -0.5553  0.8575
15691SOL    HW248942   4.880   0.422   4.238 -0.7006  1.8934  0.1092
15692SOL     OW48943   9.972   4.283   5.821 -0.6702  0.2470  0.5135
15692SOL    HW148944   9.910   4.208   5.797 -1.8644  1.3365  0.1632
15692SOL    HW248945   9.920   4.368   5.827  0.5755  0.9399  1.5298
15694SOL     OW48946   0.060   4.662   2.258 -0.1272  0.2409 -0.5075
15694SOL    HW148947   0.088   4.755   2.235 -2.6656  1.3659  0.7817
15694SOL    HW248948   0.138   4.600   2.249  2.5100  3.0446  1.9520
15695SOL     OW48949   8.904   2.875   0.622 -0.0368  0.1790 -0.5964
15695SOL    HW148950   8.897   2.940   0.698  1.6385  1.1099 -1.2028
15695SOL    HW248951   8.851   2.793   0.643 -0.7981  1.0411  0.9317
15696SOL     OW48952   4.485   4.668   0.309  0.2139 -0.5520  0.4458
15696SOL    HW148953   4.525   4.617   0.232 -1.2208 -0.7368 -0.1854
15696SOL    HW248954   4.460   4.605   0.382 -0.8154 -0.6689 -0.0039
15697SOL     OW48955   9.123   8.744   4.154  0.2696  0.4969 -0.2814
15697SOL    HW148956   9.090   8.826   4.107 -1.1259  0.4897  0.6627
15697SOL    HW248957   9.094   8.663   4.104  1.1165  0.5509 -0.8748
15698SOL     OW48958   3.362   6.003   1.126 -0.3358 -0.5079 -0.0272
15698SOL    HW148959   3.349   5.971   1.220  0.9996  1.6634  0.9505
15698SOL    HW248960   3.441   6.064   1.122  0.9143 -2.2136 -3.0051
15700SOL     OW48961   0.589   8.952   1.515  0.4021  0.1173 -0.9818
15700SOL    HW148962   0.544   9.030   1.559 -1.4286 -1.0626 -0.7422
15700SOL    HW248963   0.678   8.981   1.480  1.3181  1.4482  2.2590
15701SOL     OW48964   0.974   3.443   3.789 -0.6502 -0.1612 -0.3309
15701SOL    HW148965   0.877   3.417   3.798 -0.9574  0.8370 -0.6584
15701SOL    HW248966   1.032   3.369   3.824 -1.4390 -2.0150 -2.8491
15702SOL     OW48967   8.498   9.863   0.913 -0.5298 -0.3246  0.3049
15702SOL    HW148968   8.520   9.956   0.883  0.2975 -0.2500  1.1060
15702SOL    HW248969   8.563   9.799   0.871 -1.1211 -0.5396 -0.2744
15703SOL     OW48970   0.318   0.112   1.318  0.1117 -0.2315 -0.3118
15703SOL    HW148971   0.396   0.124   1.379 -0.1620  0.7020 -0.1438
15703SOL    HW248972   0.249   0.181   1.337 -1.1100 -1.5304  0.0702
15704SOL     OW48973   0.045   0.557   1.917  0.7498 -0.2785 -0.0985
15704SOL    HW148974   0.039   0.633   1.852 -0.4234  0.4289  0.8175
15704SOL    HW248975   0.025   0.471   1.870  0.1032  0.2050 -0.7170
15706SOL     OW48976   4.687   9.586   3.322 -0.5502 -0.0396  0.0921
15706SOL    HW148977   4.628   9.633   3.257 -0.6800  2.2198  1.7518
15706SOL    HW248978   4.676   9.627   3.413  2.2272 -0.7600  0.8181
15708SOL     OW48979   8.150   7.311   0.070  0.1717 -0.3173  0.1366
15708SOL    HW148980   8.106   7.355   0.148 -0.7455 -0.0824 -0.4989
15708SOL    HW248981   8.248   7.300   0.088  0.2817  1.3140  0.6123
15712SOL     OW48982   9.628   4.048   4.249  0.4334  0.0644 -0.9089
15712SOL    HW148983   9.571   3.966   4.240  0.2036  0.3707 -2.4218
15712SOL    HW248984   9.722   4.025   4.225  0.4785  0.1126 -0.7760
15714SOL     OW48985   9.496   7.615   2.273 -0.0491  0.2445 -0.0047
15714SOL    HW148986   9.465   7.595   2.181 -0.8909  0.9942  0.1094
15714SOL    HW248987   9.592   7.643   2.270  0.3267 -1.0754 -0.4789
15715SOL     OW48988   0.923   4.745   1.065 -0.0329  0.0909  0.0707
15715SOL    HW148989   0.884   4.666   1.113  0.0570  2.8859  5.0508
15715SOL    HW248990   1.023   4.741   1.071 -0.0150  0.2522 -0.1400
15716SOL     OW48991   0.633   3.035   1.972 -0.5543  0.1412  0.8336
15716SOL    HW148992   0.733   3.028   1.977 -0.5711 -0.2562  0.6351
15716SOL    HW248993   0.601   2.998   1.885 -0.9165 -0.1758  1.0977
15717SOL     OW48994   0.150   6.946   6.432  0.2791 -0.0171  0.4052
15717SOL    HW148995   0.143   7.030   6.486  0.3153  0.8530 -0.9264
15717SOL    HW248996   0.059   6.916   6.406  0.3558  0.6644 -0.6983
15718SOL     OW48997   3.961   7.564   3.311  0.2333  0.1317  0.3669
15718SOL    HW148998   3.932   7.525   3.398 -1.6621  0.9351  0.1438
15718SOL    HW248999   3.955   7.494   3.239  1.9169 -0.5629  0.8875
15719SOL     OW49000   1.209   8.332   4.053  0.2734 -0.0421 -0.4097
15719SOL    HW149001   1.205   8.236   4.027  1.8160  0.0863 -1.1763
15719SOL    HW249002   1.300   8.369   4.032 -0.5989  1.8294 -1.0304
15720SOL     OW49003   4.430   9.134   1.519  0.2310 -0.2600  0.3819
15720SOL    HW149004   4.466   9.227   1.521  0.0388 -0.1964  1.3850
15720SOL    HW249005   4.331   9.137   1.534  0.2332 -0.6244  0.4700
15721SOL     OW49006   6.163   1.946   3.392 -0.3938  0.2392 -0.4175
15721SOL    HW149007   6.179   2.010   3.468 -1.3819  0.8072 -0.6903
15721SOL    HW249008   6.217   1.974   3.313  0.8127 -0.4791  0.1263
15722SOL     OW49009   1.450   1.212   3.942 -0.5305 -0.0726  0.4363
15722SOL    HW149010   1.368   1.258   3.977  0.3451 -0.2592  2.8050
15722SOL    HW249011   1.486   1.264   3.865  0.1518  3.0399  2.7123
15723SOL     OW49012   1.957   2.308   4.430  0.0924 -0.1647  0.3666
15723SOL    HW149013   1.924   2.394   4.392  0.4894 -0.4276 -0.5857
15723SOL    HW249014   2.055   2.298   4.408 -0.0976 -1.1434 -0.0605
15724SOL     OW49015   5.560   3.874   1.320  0.0046 -0.3505  0.1219
15724SOL    HW149016   5.654   3.859   1.352 -0.2187 -1.7294  0.1676
15724SOL    HW249017   5.497   3.863   1.397 -0.3509 -1.3907 -0.3091
15725SOL     OW49018   0.742   7.464   0.043 -0.6109 -0.5326 -0.4578
15725SOL    HW149019   0.660   7.453   0.100 -0.8200  0.6002 -0.5200
15725SOL    HW249020   0.823   7.447   0.098 -0.8797 -1.4582 -0.3401
15729SOL     OW49021   8.249   9.248   3.516 -0.2303 -0.3116  0.5081
15729SOL    HW149022   8.302   9.274   3.435 -3.5879  0.7936 -1.4465
15729SOL    HW249023   8.208   9.158   3.502 -0.7509 -0.1592  1.0477
15730SOL     OW49024   6.014   7.608   6.363  0.5326  0.3862  0.2663
15730SOL    HW149025   5.989   7.704   6.349  2.0018  1.0372  1.9832
15730SOL    HW249026   5.934   7.551   6.346 -0.3721  1.8994 -0.7723
15731SOL     OW49027   9.048   3.560   0.989 -0.1185  1.1809 -0.3344
15731SOL    HW149028   9.037   3.514   0.901 -0.2143  1.0380 -0.2484
15731SOL    HW249029   9.093   3.498   1.053  1.0005  1.6831 -0.6190
15732SOL     OW49030   8.444   8.554   0.134 -0.1935 -0.2403 -0.5123
15732SOL    HW149031   8.416   8.638   0.088 -0.7041  0.2055  0.6270
15732SOL    HW249032   8.518   8.511   0.082 -1.3888 -0.2304 -2.2805
15733SOL     OW49033   8.872   4.338   3.845 -0.2416 -0.0444 -0.0682
15733SOL    HW149034   8.800   4.398   3.810  0.9648 -0.4606 -3.4258
15733SOL    HW249035   8.835   4.245   3.855 -0.7082  0.1677  0.2269
15734SOL     OW49036   5.700   9.642   2.558  0.2957 -0.6177  0.4023
15734SOL    HW149037   5.713   9.653   2.656 -1.5844  1.5361  0.4477
15734SOL    HW249038   5.676   9.548   2.538  1.3079 -1.2216  1.9158
15735SOL     OW49039   5.415   8.843   1.850  0.0925 -0.2059  0.4140
15735SOL    HW149040   5.493   8.902   1.871  1.1331 -0.7247 -1.8665
15735SOL    HW249041   5.332   8.883   1.890  1.1069  1.6657  0.7418
15736SOL     OW49042   1.278   2.834   4.172  0.3104  0.0679  0.1674
15736SOL    HW149043   1.229   2.894   4.235  1.1593  0.3811  0.5504
15736SOL    HW249044   1.232   2.834   4.083  1.0846  2.4514 -0.2884
15737SOL     OW49045   0.930   2.244   4.515  0.2243 -0.2088 -0.0340
15737SOL    HW149046   0.895   2.289   4.433 -0.2838 -0.6212 -0.0448
15737SOL    HW249047   0.904   2.147   4.513  0.4089 -0.2679  0.5004
15738SOL     OW49048   5.401   8.317   6.078 -0.1786  0.3365  0.1623
15738SOL    HW149049   5.373   8.385   6.011  1.6669 -0.8463 -1.8615
15738SOL    HW249050   5.352   8.232   6.062  0.6687 -0.1175 -0.0482
15739SOL     OW49051   1.609   3.597   5.030  0.1184  0.6122  0.0561
15739SOL    HW149052   1.666   3.546   5.094 -0.0379  0.6472  0.2267
15739SOL    HW249053   1.546   3.535   4.984 -0.2113  0.6765  0.4125
15741SOL     OW49054   2.455   6.241   0.616  0.0544 -0.1772 -0.2672
15741SOL    HW149055   2.543   6.204   0.587 -0.5202 -1.5858 -0.2773
15741SOL    HW249056   2.395   6.250   0.537  0.4520  1.5390 -0.3799
15744SOL     OW49057   2.173   0.594   6.331 -0.1480  0.9207  0.3085
15744SOL    HW149058   2.128   0.678   6.302  1.0021  1.5321  0.2779
15744SOL    HW249059   2.230   0.560   6.256 -0.7673  0.0000  0.2460
15745SOL     OW49060   3.628   9.639   0.330  0.2323  0.5298  0.1512
15745SOL    HW149061   3.552   9.576   0.311 -0.0831  1.0128 -0.2073
15745SOL    HW249062   3.608   9.692   0.412 -0.9622  2.4217 -1.3253
15746SOL     OW49063   1.273   5.831   6.033  0.6228  0.2486  0.0141
15746SOL    HW149064   1.372   5.838   6.023  0.6368  0.6128  0.3663
15746SOL    HW249065   1.251   5.789   6.121  0.4908 -2.0582 -1.0931
15747SOL     OW49066   2.654   0.030   2.418  0.1098 -0.2543  0.4161
15747SOL    HW149067   2.643  -0.055   2.366 -0.1664 -0.6181  1.0567
15747SOL    HW249068   2.751   0.048   2.432  0.1495 -1.8508  2.4865
15748SOL     OW49069   3.589   3.785   0.411  0.4442 -0.1721 -0.0591
15748SOL    HW149070   3.572   3.881   0.432  1.2189  0.6918 -3.1995
15748SOL    HW249071   3.503   3.739   0.391 -0.3339 -1.0408  4.7615
15749SOL     OW49072   7.995   6.896   1.502  0.1091 -0.1339 -0.1433
15749SOL    HW149073   7.952   6.975   1.458 -1.4014  0.2377  1.8944
15749SOL    HW249074   7.930   6.819   1.501  0.6839 -0.6199 -0.0260
15750SOL     OW49075   7.950   2.882   0.703  0.0372  0.1437 -0.1533
15750SOL    HW149076   7.938   2.849   0.609  0.3020  1.2867 -0.5927
15750SOL    HW249077   7.862   2.918   0.737  0.6178  2.4739 -1.0374
15751SOL     OW49078   4.287   8.369   2.698 -0.0495 -0.5787 -0.3809
15751SOL    HW149079   4.283   8.343   2.602  0.4704  0.9121 -0.8215
15751SOL    HW249080   4.381   8.396   2.721 -0.5495  0.8692  0.0363
15753SOL     OW49081   2.356   0.731   2.662 -0.0505 -0.0705 -0.6138
15753SOL    HW149082   2.429   0.664   2.647  0.9325  1.3421 -2.2600
15753SOL    HW249083   2.391   0.806   2.717 -0.8334 -0.3371  0.2542
15754SOL     OW49084   1.945   8.622   2.216 -0.6356 -0.5017 -0.3835
15754SOL    HW149085   2.002   8.542   2.196 -0.2660  0.1014 -1.7953
15754SOL    HW249086   1.943   8.637   2.314  0.0970 -1.6638 -0.1765
15755SOL     OW49087   8.884   1.131   5.284  0.1888  0.4023 -0.0398
15755SOL    HW149088   8.946   1.145   5.362  0.5676 -0.0206 -0.2644
15755SOL    HW249089   8.868   1.034   5.271 -0.0354  0.4826 -0.3668
15756SOL     OW49090   2.423   3.467   0.406 -0.0172 -0.1249  0.1057
15756SOL    HW149091   2.439   3.396   0.337  1.2362  0.8506 -0.6311
15756SOL    HW249092   2.506   3.521   0.418 -0.6336  0.5523  1.4354
15757SOL     OW49093   3.193   4.895   4.630 -0.0192 -0.7988 -0.6744
15757SOL    HW149094   3.261   4.835   4.673  1.2798 -0.4937 -2.2590
15757SOL    HW249095   3.238   4.976   4.593 -1.0150 -1.1710 -2.8377
15758SOL     OW49096   4.296   8.256   5.813 -0.4224  0.3657 -0.0224
15758SOL    HW149097   4.291   8.308   5.898 -1.8100  1.1382 -0.5690
15758SOL    HW249098   4.283   8.159   5.832  0.6838  0.3694  0.8107
15762SOL     OW49099   2.404   1.010   4.102  1.0122 -0.2948  0.0264
15762SOL    HW149100   2.321   1.050   4.138  0.5197 -0.2559 -1.1227
15762SOL    HW249101   2.381   0.947   4.027  2.0485  0.2853 -0.8022
15763SOL     OW49102   9.609   0.561   3.017 -0.7638 -0.4035 -0.3147
15763SOL    HW149103   9.621   0.496   3.092 -0.7904 -0.7313 -0.5946
15763SOL    HW249104   9.514   0.592   3.014 -0.7489 -0.3431 -0.1749
15764SOL     OW49105   2.462   1.610   4.850 -0.0537 -0.0670 -0.3374
15764SOL    HW149106   2.449   1.513   4.870  0.0650 -0.2272 -1.0419
15764SOL    HW249107   2.554   1.637   4.878  0.2479 -0.3844 -1.0084
15765SOL     OW49108   6.566   8.412   3.129  0.0483 -0.3986  0.1635
15765SOL    HW149109   6.557   8.426   3.030 -1.2527 -1.3397  0.1392
15765SOL    HW249110   6.501   8.470   3.177  1.4072  0.8446  0.5358
15767SOL     OW49111   9.105   3.546   0.355 -0.4283 -0.7424 -0.1013
15767SOL    HW149112   9.096   3.612   0.281 -0.0452 -0.2893  0.2538
15767SOL    HW249113   9.087   3.591   0.443  0.3938 -0.9774  0.1922
15768SOL     OW49114   8.319   9.024   0.611  0.0369  0.2208  0.0266
15768SOL    HW149115   8.298   8.998   0.705 -1.1107 -0.2999 -0.3740
15768SOL    HW249116   8.324   9.124   0.605  0.7565  0.2394  0.7646
15769SOL     OW49117   0.708   4.472   0.376 -0.0276 -0.1252  0.0492
15769SOL    HW149118   0.689   4.400   0.309 -2.2035  1.1514 -0.7488
15769SOL    HW249119   0.622   4.512   0.407  1.1242  1.5052  1.1943
15770SOL     OW49120   3.723   0.264   2.242 -0.2347  0.2078  0.1664
15770SOL    HW149121   3.743   0.335   2.174 -0.4526 -0.8859 -1.0589
15770SOL    HW249122   3.790   0.190   2.234  0.4906  0.6361  1.9978
15771SOL     OW49123   8.288   5.658   4.095  0.1638  0.0428  0.0723
15771SOL    HW149124   8.232   5.576   4.102  0.4398 -0.2691 -1.1157
15771SOL    HW249125   8.346   5.666   4.176 -1.1770  0.0650  1.0428
15772SOL     OW49126   9.161   7.749   1.472 -0.0688  0.3565 -0.0414
15772SOL    HW149127   9.237   7.708   1.523 -0.2681 -0.3251 -0.2914
15772SOL    HW249128   9.106   7.806   1.534  0.0635  0.0519  0.3601
15773SOL     OW49129   3.703   5.443   4.391  0.4709 -0.1104  0.4198
15773SOL    HW149130   3.756   5.398   4.320 -0.9380  0.4909 -1.0652
15773SOL    HW249131   3.608   5.412   4.386  0.1433  0.7205  1.3463
15774SOL     OW49132   8.601   8.584   3.722 -0.0047  0.0057 -0.3727
15774SOL    HW149133   8.529   8.566   3.790  0.3545  0.6010  0.1634
15774SOL    HW249134   8.586   8.674   3.681  0.6492  0.2903  0.0081
15775SOL     OW49135   9.229   1.799   1.859 -0.0318 -0.0355 -0.3558
15775SOL    HW149136   9.259   1.858   1.934 -0.1808  0.4000 -0.6320
15775SOL    HW249137   9.304   1.789   1.793 -0.4081  0.8551 -0.9250
15776SOL     OW49138   0.303   1.302   6.385 -0.2797 -0.9865  0.3981
15776SOL    HW149139   0.341   1.359   6.458  2.1061 -3.0096  0.7991
15776SOL    HW249140   0.330   1.341   6.297  1.6721 -1.6466  0.6711
15777SOL     OW49141   7.679   6.167   4.024 -0.2365  0.1475 -0.0047
15777SOL    HW149142   7.600   6.229   4.021 -0.4502 -0.1609 -0.7484
15777SOL    HW249143   7.723   6.164   3.935  0.1285 -0.3191  0.1881
15778SOL     OW49144   2.835   3.460   0.449  0.3928 -0.3801 -0.0003
15778SOL    HW149145   2.756   3.501   0.494  1.9069  1.3035  1.1712
15778SOL    HW249146   2.863   3.517   0.372  1.5496 -0.0230  0.6762
15781SOL     OW49147   5.841   0.847   5.082  0.0219 -0.2034  0.5887
15781SOL    HW149148   5.886   0.935   5.094 -1.2259  0.5483 -0.1401
15781SOL    HW249149   5.753   0.860   5.037  0.0952 -1.8942 -0.0823
15782SOL     OW49150   7.955   7.066   4.303  0.1283 -0.7855 -0.1926
15782SOL    HW149151   8.033   7.006   4.320  0.7773 -0.2430 -1.1228
15782SOL    HW249152   7.942   7.127   4.381  1.2115 -0.2870 -0.3768
15783SOL     OW49153   6.585   8.376   6.211  0.6488 -0.2125  0.9905
15783SOL    HW149154   6.663   8.436   6.190 -0.5673  0.8498 -0.5693
15783SOL    HW249155   6.586   8.297   6.149  0.9757 -0.6519  1.5514
15785SOL     OW49156   9.837   2.903   5.545  0.4376  0.5072  0.2901
15785SOL    HW149157   9.915   2.875   5.601 -0.3747 -2.6861 -0.1240
15785SOL    HW249158   9.762   2.931   5.604 -0.1937 -2.2318  0.8169
15786SOL     OW49159   2.936   1.286   3.297 -0.5334  0.1916  0.0002
15786SOL    HW149160   3.005   1.228   3.254  0.1131  1.7048 -1.0603
15786SOL    HW249161   2.954   1.293   3.395  0.0949 -0.4117 -0.0709
15787SOL     OW49162   0.171   2.578   4.611 -0.1476  0.3052  0.5021
15787SOL    HW149163   0.111   2.617   4.541 -0.3800  0.3057  0.7035
15787SOL    HW249164   0.215   2.651   4.662 -0.9153  0.3094  1.1666
15788SOL     OW49165   0.808   1.154   1.686  0.3457 -0.4536  0.2713
15788SOL    HW149166   0.905   1.136   1.700  1.0274  0.7517 -2.6355
15788SOL    HW249167   0.788   1.249   1.711  0.4443  0.0487 -1.5271
15789SOL     OW49168   0.664   5.096   1.656  0.4096 -0.1944 -0.5593
15789SOL    HW149169   0.612   5.091   1.572  1.0319 -0.8034 -0.9176
15789SOL    HW249170   0.669   5.005   1.698  2.0872 -0.3620 -1.0929
15790SOL     OW49171   2.428   7.138   4.747  0.2295 -0.3166  0.1068
15790SOL    HW149172   2.379   7.096   4.823  3.1036  0.1368  2.3159
15790SOL    HW249173   2.500   7.197   4.783  2.5501 -1.1421 -2.9683
15792SOL     OW49174   3.896   3.000   3.539  0.4902  0.4538 -0.2078
15792SOL    HW149175   3.916   2.902   3.547 -1.9338  0.0192  1.1088
15792SOL    HW249176   3.873   3.021   3.444  0.1010 -0.4496 -0.3249
15794SOL     OW49177   2.065   3.891   0.704 -0.3801  0.3972  0.3556
15794SOL    HW149178   2.011   3.806   0.707 -0.0754  0.1881 -0.0416
15794SOL    HW249179   2.148   3.878   0.758  0.6416 -0.2442 -1.3348
15795SOL     OW49180   0.311   3.096   2.429 -0.4588 -0.2505  0.1064
15795SOL    HW149181   0.312   3.195   2.446  1.4036 -0.5126  1.6631
15795SOL    HW249182   0.392   3.071   2.376  0.2847 -1.2718  1.7081
15796SOL     OW49183   1.744   6.495   5.817 -0.1835 -0.1862  0.9170
15796SOL    HW149184   1.733   6.451   5.906 -0.0801 -1.3996  0.3323
15796SOL    HW249185   1.658   6.491   5.766 -0.1504  0.2133  0.8248
15799SOL     OW49186   2.132   4.586   4.985 -0.2567  0.2638 -0.5517
15799SOL    HW149187   2.185   4.510   4.946 -0.8736  0.1529 -1.1923
15799SOL    HW249188   2.080   4.553   5.064  0.0186  0.1875 -0.4022
15800SOL     OW49189   1.764   9.654   5.415  0.1068  0.2446 -0.5044
15800SOL    HW149190   1.822   9.607   5.481  0.7826  0.1201 -1.1816
15800SOL    HW249191   1.723   9.734   5.458  1.4919  0.8406 -0.2886
15801SOL     OW49192   0.250   7.390   2.699  0.6224  0.3332 -0.2029
15801SOL    HW149193   0.178   7.328   2.729 -0.6171  2.0715  0.5029
15801SOL    HW249194   0.228   7.427   2.609 -0.1405  2.0200  0.6575
15802SOL     OW49195   5.049   9.970   3.032  0.4515  0.8419 -0.3141
15802SOL    HW149196   5.014   9.877   3.029  0.8686  0.6634  0.3420
15802SOL    HW249197   4.987  10.028   3.084  0.7032  0.7020  0.1492
15803SOL     OW49198   3.864   0.232   3.912  0.0692  0.3479 -0.0686
15803SOL    HW149199   3.924   0.154   3.927  0.4073  0.9393  1.7761
15803SOL    HW249200   3.769   0.201   3.908  0.2835 -0.2746 -0.3701
15804SOL     OW49201   4.783   7.419   1.975 -0.2069 -0.2167  0.2853
15804SOL    HW149202   4.830   7.360   1.909  1.8709  0.9617  0.6709
15804SOL    HW249203   4.754   7.503   1.930 -0.0720 -0.0272  0.5550
15806SOL     OW49204   8.277   2.070   3.431 -0.1436  0.6381  0.3273
15806SOL    HW149205   8.243   1.992   3.484  0.4092 -1.3493 -2.1580
15806SOL    HW249206   8.374   2.058   3.412 -0.0618  1.9331 -0.1076
15807SOL     OW49207   5.590   5.093   1.703  0.4914 -0.4558  0.2262
15807SOL    HW149208   5.686   5.117   1.718  0.4457 -0.4400  0.4989
15807SOL    HW249209   5.550   5.060   1.789  0.7879 -2.3437 -0.3225
15808SOL     OW49210   1.877   1.174   5.086 -0.8007 -0.8088  0.2291
15808SOL    HW149211   1.949   1.221   5.034 -0.1158 -1.4578  0.5702
15808SOL    HW249212   1.804   1.238   5.108 -0.0680 -0.0042  0.3438
15809SOL     OW49213   3.097   9.895   5.907 -0.1558 -0.0943  0.0440
15809SOL    HW149214   3.080   9.920   5.812 -0.6309 -1.2497 -0.1777
15809SOL    HW249215   3.072   9.972   5.967 -0.0396  0.5588 -0.7398
15810SOL     OW49216   8.390   7.580   0.460  0.0232  0.1334 -0.2652
15810SOL    HW149217   8.464   7.528   0.416  0.1796 -2.4656  2.8303
15810SOL    HW249218   8.429   7.649   0.520 -0.0715 -0.1933  0.1761
15811SOL     OW49219   8.711   6.291   5.520  0.2376  0.6953 -0.6100
15811SOL    HW149220   8.652   6.254   5.592 -0.8555 -0.6572 -2.1432
15811SOL    HW249221   8.806   6.286   5.549 -0.0681 -1.2028  0.1608
15812SOL     OW49222   1.137   5.389   3.409  0.1359  0.0329 -0.5792
15812SOL    HW149223   1.158   5.386   3.507  1.9582  0.9523 -0.9192
15812SOL    HW249224   1.213   5.431   3.360 -0.9536 -0.0073 -2.3491
15813SOL     OW49225   1.069   7.840   1.092  0.2006 -0.2953  0.4154
15813SOL    HW149226   1.002   7.813   1.160  0.6112 -3.6555 -0.4275
15813SOL    HW249227   1.032   7.826   1.000  1.1678  0.1591 -0.0569
15814SOL     OW49228   1.986   6.896   4.734 -0.5907  0.3556 -0.2285
15814SOL    HW149229   1.951   6.989   4.741 -1.7678 -0.1722  1.0224
15814SOL    HW249230   1.917   6.831   4.766  0.7369 -0.8585  0.2382
15815SOL     OW49231   9.095   3.357   4.136  0.3655 -0.4686 -0.0236
15815SOL    HW149232   9.008   3.325   4.096  0.5520 -1.2489  0.1853
15815SOL    HW249233   9.171   3.319   4.084  0.6233 -2.0198  1.4393
15816SOL     OW49234   9.469   5.131   6.217  0.2839 -0.1750  0.3090
15816SOL    HW149235   9.394   5.193   6.239 -1.5503 -1.7937 -1.2147
15816SOL    HW249236   9.553   5.183   6.202 -1.0009  1.8322  0.0184
15817SOL     OW49237   3.946   9.500   6.378  0.0272 -0.3922 -0.3321
15817SOL    HW149238   4.039   9.481   6.411  0.3805 -1.2032 -1.7156
15817SOL    HW249239   3.946   9.587   6.328 -0.2510  0.2569  0.7915
15818SOL     OW49240   4.537   0.100   1.510 -0.2517 -0.1506  0.4197
15818SOL    HW149241   4.482   0.025   1.475 -1.8970  1.5998 -0.8550
15818SOL    HW249242   4.526   0.106   1.609 -0.4419 -1.3111  0.4768
15819SOL     OW49243   2.256   7.015   2.182 -0.1226 -0.4771  0.1220
15819SOL    HW149244   2.181   7.013   2.117 -0.6470 -1.8115  0.7605
15819SOL    HW249245   2.329   6.954   2.150  0.6265  0.6515 -0.3891
15820SOL     OW49246   3.972   6.256   2.691 -0.0849 -0.1227 -0.4356
15820SOL    HW149247   4.063   6.291   2.669 -0.0068  0.6199  0.9877
15820SOL    HW249248   3.950   6.278   2.786 -0.7732 -2.3550 -0.0276
15821SOL     OW49249   8.792   1.557   5.499 -0.2683  0.2084  0.0998
15821SOL    HW149250   8.852   1.574   5.420 -1.2361 -0.3577 -0.7554
15821SOL    HW249251   8.848   1.527   5.577  0.5415 -0.5027 -0.7486
15822SOL     OW49252   2.839   1.571   0.375  0.1520 -0.4819 -0.3622
15822SOL    HW149253   2.846   1.615   0.285  1.3263 -1.1593 -0.6052
15822SOL    HW249254   2.918   1.597   0.431 -1.2182  0.9778  0.9516
15824SOL     OW49255   9.278   3.353   3.708 -0.0183 -0.1660 -0.6279
15824SOL    HW149256   9.357   3.389   3.657  0.8526  1.6103  1.8794
15824SOL    HW249257   9.308   3.319   3.797 -2.3912  2.7641  1.3731
15825SOL     OW49258   9.963   2.032   4.991 -0.3153  0.0516  0.2005
15825SOL    HW149259  10.060   2.049   4.979 -0.6294  0.2550 -2.3628
15825SOL    HW249260   9.948   1.934   5.008  0.2476 -0.1566 -0.4815
15828SOL     OW49261   5.089   3.690   0.133 -0.5058  0.5306  0.7002
15828SOL    HW149262   5.122   3.611   0.185 -0.4966  0.1095  0.0599
15828SOL    HW249263   5.128   3.774   0.172 -0.3257  0.2062  1.2347
15829SOL     OW49264   5.423   4.933   0.591 -0.5019  0.3646  0.1554
15829SOL    HW149265   5.385   4.950   0.500 -0.7841  0.8034  0.3519
15829SOL    HW249266   5.498   4.996   0.609 -0.2263  0.0568  0.0996
15830SOL     OW49267   2.695   6.864   6.101 -0.5706 -0.5630  0.4763
15830SOL    HW149268   2.598   6.841   6.099 -0.1978 -2.1462 -1.5124
15830SOL    HW249269   2.732   6.847   6.192 -1.5476 -2.7366  0.5059
15834SOL     OW49270   9.666   9.756   2.081 -0.3690  0.5870  0.7961
15834SOL    HW149271   9.661   9.755   2.181 -2.0967  0.0652  0.7198
15834SOL    HW249272   9.753   9.716   2.051  0.1637  0.7729  2.0877
15835SOL     OW49273   5.615   5.198   1.048  0.0101 -0.7979 -0.5062
15835SOL    HW149274   5.673   5.218   0.969  1.4465 -0.9139  0.4948
15835SOL    HW249275   5.550   5.272   1.061  1.3249  0.3574 -0.4034
15836SOL     OW49276   3.387   5.397   5.829 -0.2997  0.7936 -0.3415
15836SOL    HW149277   3.382   5.345   5.743 -1.9249  0.1969  0.0958
15836SOL    HW249278   3.450   5.350   5.892  0.5747  1.0070 -1.0406
15837SOL     OW49279   4.058   4.259   3.803  0.1812  0.0491  0.3648
15837SOL    HW149280   4.055   4.337   3.865 -0.2570 -0.8355  1.4885
15837SOL    HW249281   4.146   4.211   3.815 -0.2091 -0.5547  0.8618
15839SOL     OW49282   1.741   7.135   1.284 -0.2976 -0.3017 -0.3043
15839SOL    HW149283   1.720   7.040   1.308  0.4866 -0.0551  1.4488
15839SOL    HW249284   1.700   7.196   1.352 -2.4317  0.7494 -2.4890
15840SOL     OW49285   8.789   5.436   0.200 -0.1663  0.0675  0.4231
15840SOL    HW149286   8.744   5.422   0.288  1.7273 -1.6860  1.1563
15840SOL    HW249287   8.883   5.402   0.204  0.2951  0.9061 -1.9705
15841SOL     OW49288   1.913   6.265   2.322 -0.2219 -0.2810 -0.1827
15841SOL    HW149289   1.907   6.239   2.226 -1.4902 -0.1600 -0.1465
15841SOL    HW249290   1.870   6.355   2.335 -0.7922 -0.6714  0.6335
15842SOL     OW49291   8.375   3.482   0.592 -0.0162  0.3895  0.4191
15842SOL    HW149292   8.296   3.447   0.541 -0.5832  1.8251  0.2846
15842SOL    HW249293   8.456   3.429   0.568 -1.0141 -1.3921  0.8859
15845SOL     OW49294   0.737   4.047   6.260  0.1600 -0.8187 -0.3190
15845SOL    HW149295   0.644   4.079   6.278 -0.3962 -1.6410 -1.5974
15845SOL    HW249296   0.739   3.947   6.262  1.2441 -0.7859  0.7418
15846SOL     OW49297   8.012   0.649   5.041 -0.9447 -0.1332 -0.0854
15846SOL    HW149298   7.952   0.645   5.120 -0.6862  0.8320  0.1614
15846SOL    HW249299   7.973   0.711   4.972 -0.0566  0.7913  0.2300
15847SOL     OW49300   7.606   0.821   0.228 -0.5059  0.0739 -0.2486
15847SOL    HW149301   7.620   0.916   0.257  0.1285  0.3451 -1.3823
15847SOL    HW249302   7.695   0.776   0.219 -0.7993 -0.5960  0.1718
15848SOL     OW49303   4.462   0.241   5.472  0.1311  0.0934  0.3618
15848SOL    HW149304   4.536   0.280   5.416  0.3242  0.5729  0.9425
15848SOL    HW249305   4.378   0.237   5.418 -0.6228  3.9467  1.1107
15849SOL     OW49306   7.859   8.098   1.940 -0.2023 -0.3420  0.4920
15849SOL    HW149307   7.889   8.184   1.898 -0.0613 -0.8955 -0.5690
15849SOL    HW249308   7.840   8.113   2.037  1.9768  0.3697  0.8354
15850SOL     OW49309   8.339   0.194   2.678 -0.0876  0.3280 -0.2376
15850SOL    HW149310   8.363   0.176   2.774 -0.8104  1.8078  0.2515
15850SOL    HW249311   8.257   0.142   2.654 -0.4685  0.6849  0.2617
15852SOL     OW49312   2.939   6.708   1.048  0.8233  0.5086  0.0026
15852SOL    HW149313   2.906   6.711   1.143 -0.6636 -2.4020 -0.3659
15852SOL    HW249314   2.893   6.779   0.995 -2.5369 -1.3710  0.2511
15853SOL     OW49315   4.927   1.687   1.882  0.2115  0.6503 -0.5933
15853SOL    HW149316   4.875   1.734   1.953  1.2219 -0.5708  0.9965
15853SOL    HW249317   4.922   1.738   1.796 -0.8886  2.2292  0.4080
15854SOL     OW49318   2.454   1.064   2.722  0.0292  0.9104  0.1862
15854SOL    HW149319   2.495   1.050   2.813  1.4941 -1.0472 -0.7381
15854SOL    HW249320   2.354   1.069   2.732  0.2338  1.9575  2.0408
15855SOL     OW49321   4.558   4.361   5.264  0.3916 -0.4523  0.0400
15855SOL    HW149322   4.468   4.400   5.287  1.4148  0.7390  2.1465
15855SOL    HW249323   4.550   4.262   5.258 -0.7759 -0.4776  1.6402
15856SOL     OW49324   0.471   3.154   6.149  0.8432  0.1013 -0.2836
15856SOL    HW149325   0.534   3.132   6.074  0.3846  1.3854 -1.0590
15856SOL    HW249326   0.463   3.253   6.158 -0.1436 -0.0466  0.5990
15857SOL     OW49327   5.690   5.676   0.775 -0.0482  0.2195 -0.1274
15857SOL    HW149328   5.654   5.627   0.854  0.0008  0.0942 -0.1838
15857SOL    HW249329   5.630   5.662   0.696  0.2687 -0.2073 -0.2923
15858SOL     OW49330   6.111   8.911   2.832 -0.1811  0.0145  0.6683
15858SOL    HW149331   6.122   8.993   2.888 -1.9497  0.6527  0.1197
15858SOL    HW249332   6.146   8.928   2.740  0.2898 -0.1465  0.8190
15859SOL     OW49333   1.670   9.950   0.116  0.5604  0.2755 -0.4309
15859SOL    HW149334   1.581   9.907   0.125  0.0105  1.0221 -2.0638
15859SOL    HW249335   1.660  10.041   0.075  2.1565 -0.1101 -1.7379
15860SOL     OW49336   2.690   0.006   1.973  0.3257 -0.6102 -0.1145
15860SOL    HW149337   2.641  -0.082   1.976  0.6461 -0.8538 -1.6402
15860SOL    HW249338   2.720   0.024   1.880  0.7712  0.8595  0.3009
15861SOL     OW49339   0.170   7.560   5.395 -0.3718  0.3398  0.1886
15861SOL    HW149340   0.244   7.601   5.342  0.0803 -0.0406  0.5198
15861SOL    HW249341   0.159   7.464   5.368 -0.2649  0.1969  0.6538
15862SOL     OW49342   8.418   0.985   5.221 -0.6240 -0.0742 -0.5510
15862SOL    HW149343   8.452   1.079   5.215  0.1872 -0.4062 -1.3710
15862SOL    HW249344   8.384   0.956   5.131  2.2032 -1.6718 -1.2002
15863SOL     OW49345   9.784   6.732   1.879 -0.5651  0.1962 -0.0875
15863SOL    HW149346   9.731   6.692   1.954  0.9446  0.7142  1.3045
15863SOL    HW249347   9.794   6.831   1.895 -1.0850  0.4914 -1.5178
15864SOL     OW49348   4.398   1.264   1.297  0.2257  0.0383  0.2245
15864SOL    HW149349   4.380   1.359   1.273 -0.3325 -0.4513 -1.3651
15864SOL    HW249350   4.466   1.226   1.235 -1.4283 -1.3339 -0.7885
15865SOL     OW49351   4.189   3.622   5.393  0.0955 -0.4756  0.4551
15865SOL    HW149352   4.148   3.704   5.353  1.0908  0.5362  1.4795
15865SOL    HW249353   4.191   3.549   5.325 -0.4549  0.4648 -0.5815
15867SOL     OW49354   7.816   9.740   5.484  0.2123 -0.4308 -0.3057
15867SOL    HW149355   7.904   9.705   5.517 -0.3771 -1.6758 -0.0556
15867SOL    HW249356   7.742   9.704   5.540 -0.3746  1.6284  0.2893
15868SOL     OW49357   3.625   7.426   1.163  0.1065  1.2947 -0.1808
15868SOL    HW149358   3.693   7.359   1.190 -0.7580  0.9619  1.2214
15868SOL    HW249359   3.564   7.386   1.094  0.4902  1.1358 -0.4290
15871SOL     OW49360   7.941   5.852   1.756 -0.4255  0.1028 -0.0868
15871SOL    HW149361   7.926   5.814   1.847 -1.2625 -3.1627 -1.5424
15871SOL    HW249362   7.878   5.928   1.741 -0.5254  0.4426  1.8917
15872SOL     OW49363   6.201   8.856   4.349 -0.1396 -0.0826  0.2577
15872SOL    HW149364   6.108   8.820   4.348  0.5284 -1.8865 -2.6611
15872SOL    HW249365   6.244   8.834   4.436 -1.3901 -2.0676  0.4003
15873SOL     OW49366   9.762   9.863   3.041 -0.1802  0.3330 -0.2424
15873SOL    HW149367   9.666   9.862   3.011  0.1916  1.6740 -1.5283
15873SOL    HW249368   9.803   9.774   3.021 -1.3298 -0.4905  0.9502
15874SOL     OW49369   6.006   2.035   5.245  0.3930  0.1257 -0.7028
15874SOL    HW149370   5.966   1.991   5.165  0.8714  0.8024 -1.3095
15874SOL    HW249371   6.022   2.132   5.226  0.7470  0.2322  0.1202
15875SOL     OW49372   1.109   8.798   5.846  0.7818 -0.2939  0.3364
15875SOL    HW149373   1.055   8.808   5.930 -0.0004  0.1291 -0.2065
15875SOL    HW249374   1.192   8.746   5.866  1.1130  0.6890  1.5875
15876SOL     OW49375   9.834   8.040   5.174  0.0363 -0.2963  0.2015
15876SOL    HW149376   9.751   8.032   5.119  1.6712  1.3087 -2.6197
15876SOL    HW249377   9.849   8.136   5.199  1.7391 -0.3585 -0.4861
15877SOL     OW49378   2.700   5.700   3.416  0.2013  0.2086  0.7048
15877SOL    HW149379   2.725   5.647   3.497  1.1764 -1.3489 -0.5661
15877SOL    HW249380   2.683   5.637   3.340 -2.3155  1.5552  0.1189
15878SOL     OW49381   5.606   0.932   4.294  0.2959 -0.0223  0.0181
15878SOL    HW149382   5.646   0.930   4.386 -0.5354  1.4210  0.4223
15878SOL    HW249383   5.630   0.848   4.246  0.5684 -0.8890  1.6252
15879SOL     OW49384   3.009   9.754   1.127  0.1094 -0.1321  0.3659
15879SOL    HW149385   2.956   9.704   1.196 -1.3589  0.2146 -0.5161
15879SOL    HW249386   3.030   9.693   1.051  2.9842 -0.9484  1.7078
15880SOL     OW49387   5.716   8.957   3.010  0.2063 -0.7164  0.2073
15880SOL    HW149388   5.683   8.865   2.986  1.1656 -0.6532 -1.3706
15880SOL    HW249389   5.641   9.022   3.005 -0.2297 -1.2111  0.2432
15881SOL     OW49390   1.143   8.099   5.970  0.6734  0.1842 -0.0467
15881SOL    HW149391   1.172   8.123   5.878  1.4722  0.1287  0.1830
15881SOL    HW249392   1.158   8.177   6.031  2.0107 -0.4414  0.4325
15882SOL     OW49393   9.123   9.662   3.424  0.0686  0.0359 -0.3091
15882SOL    HW149394   9.165   9.574   3.445  1.2348  0.8617  0.9325
15882SOL    HW249395   9.048   9.679   3.488 -0.4143 -0.2334 -0.8030
15883SOL     OW49396   4.595   2.713   3.284 -0.1359 -0.0398 -0.0086
15883SOL    HW149397   4.600   2.622   3.244  3.1729  0.7703 -1.6669
15883SOL    HW249398   4.536   2.771   3.228  2.1803  0.2977 -2.1736
15884SOL     OW49399   3.921   4.687   1.965  0.2161  0.3816  0.4333
15884SOL    HW149400   3.860   4.750   2.012 -0.9837 -1.4908  1.4302
15884SOL    HW249401   3.929   4.714   1.869  0.8022  2.8219  1.1505
15885SOL     OW49402   2.524   7.861   6.280 -0.1690 -0.4527 -0.2954
15885SOL    HW149403   2.561   7.779   6.236 -0.2539 -1.1701  0.9367
15885SOL    HW249404   2.543   7.941   6.224  2.1288 -0.9821 -0.2891
15886SOL     OW49405   0.590   5.426   0.632  0.4864 -0.4177 -0.6520
15886SOL    HW149406   0.659   5.491   0.600  0.4073  0.6407  1.2540
15886SOL    HW249407   0.572   5.442   0.729 -1.7688 -1.2900 -0.9024
15887SOL     OW49408   8.236   4.649   1.564  0.0092 -0.0501 -0.4809
15887SOL    HW149409   8.161   4.584   1.555  0.0045 -0.0855 -0.1727
15887SOL    HW249410   8.310   4.608   1.618 -0.0682  0.2648 -0.1340
15888SOL     OW49411   8.962   6.252   4.400  0.3612  0.2622 -0.3743
15888SOL    HW149412   9.013   6.325   4.356 -1.2117  0.6457 -1.5885
15888SOL    HW249413   8.948   6.177   4.336  0.6600 -0.4772  0.4082
15889SOL     OW49414   1.058   2.955   4.424  0.2278  0.2137 -0.2232
15889SOL    HW149415   0.968   2.930   4.387  0.6706 -0.2110 -1.0344
15889SOL    HW249416   1.073   2.908   4.511 -0.2152  0.0540 -0.2306
15890SOL     OW49417   9.153   5.969   1.545 -0.1165 -0.6271 -0.0204
15890SOL    HW149418   9.079   5.961   1.478 -0.2358 -1.5845  0.2272
15890SOL    HW249419   9.208   6.049   1.523 -0.5169 -0.5875 -0.9103
15892SOL     OW49420   0.726   1.310   5.893  0.2215 -0.3665  0.2166
15892SOL    HW149421   0.737   1.211   5.882  1.1886 -0.1764 -0.5737
15892SOL    HW249422   0.786   1.342   5.965  0.6109 -0.2134 -0.1738
15893SOL     OW49423   9.598   9.405   3.116  0.0456 -0.2758 -0.1523
15893SOL    HW149424   9.657   9.370   3.043 -0.8759 -0.0261 -1.0284
15893SOL    HW249425   9.642   9.390   3.204  2.0782  1.2306 -0.8862
15894SOL     OW49426   0.368   1.293   0.108 -0.0242 -0.3651 -0.3928
15894SOL    HW149427   0.283   1.342   0.089 -0.2330 -0.9376 -0.9582
15894SOL    HW249428   0.444   1.338   0.061  0.3560  1.4056  1.8255
15895SOL     OW49429   2.682   9.172   0.857 -0.2898 -0.0088 -0.4039
15895SOL    HW149430   2.679   9.132   0.949 -1.2548 -0.4585 -0.6247
15895SOL    HW249431   2.718   9.265   0.862 -0.1523 -0.1025  0.4029
15897SOL     OW49432   3.513   1.251   1.210 -0.1398 -0.5107 -0.0904
15897SOL    HW149433   3.573   1.319   1.251 -2.3179  1.4502 -0.0700
15897SOL    HW249434   3.568   1.176   1.173  2.1871  0.4080  1.3978
15898SOL     OW49435   8.234   2.769   4.246  0.1130 -0.4598  0.1208
15898SOL    HW149436   8.218   2.731   4.155 -1.6845 -0.3852  0.3895
15898SOL    HW249437   8.247   2.694   4.311  1.9022 -0.5055 -0.2698
15900SOL     OW49438   2.350   5.589   0.847 -0.4335 -0.4079  0.7180
15900SOL    HW149439   2.339   5.507   0.904 -0.0889 -1.4089 -0.6109
15900SOL    HW249440   2.420   5.572   0.778 -1.1352  0.6322 -0.2673
15901SOL     OW49441   1.077   3.788   0.490 -0.2978 -0.2065  0.9491
15901SOL    HW149442   1.107   3.736   0.410 -2.5648 -1.0678  0.6125
15901SOL    HW249443   1.049   3.725   0.562  0.2857  0.5714  1.8702
15902SOL     OW49444   0.108   0.726   2.174  0.3267  0.2937  0.4137
15902SOL    HW149445   0.117   0.679   2.086  0.4811 -0.8520  1.0354
15902SOL    HW249446   0.060   0.667   2.239  0.4231  1.0413  1.1768
15904SOL     OW49447   5.467   5.801   1.093  0.3691  0.2535 -0.0621
15904SOL    HW149448   5.451   5.889   1.049 -1.4591  0.0455  0.1440
15904SOL    HW249449   5.384   5.772   1.142  0.9703 -1.5291 -0.0465
15905SOL     OW49450   7.908   5.822   3.299 -0.1902  0.0634 -0.3079
15905SOL    HW149451   7.985   5.883   3.315 -0.5323  0.6554 -0.8867
15905SOL    HW249452   7.841   5.833   3.374 -0.2020  0.3209 -0.3563
15907SOL     OW49453   3.766   1.987   4.890  0.1790 -0.1179  0.1774
15907SOL    HW149454   3.851   2.023   4.928  0.9122 -1.5395 -0.0838
15907SOL    HW249455   3.777   1.968   4.793 -0.9505  1.2219 -0.2306
15908SOL     OW49456   8.653   4.916   2.810 -0.0648  0.3223 -0.0192
15908SOL    HW149457   8.676   4.977   2.886 -0.9380 -0.5036  0.9164
15908SOL    HW249458   8.712   4.835   2.813  0.8797  0.9397 -1.0804
15909SOL     OW49459   4.090   1.399   6.220 -0.3386 -0.0914 -0.3856
15909SOL    HW149460   4.132   1.318   6.260  1.7984  1.4426  0.5822
15909SOL    HW249461   4.141   1.426   6.138 -2.5243 -1.1220 -2.1326
15910SOL     OW49462   8.085   3.962   3.938  0.1690  0.2334 -0.9256
15910SOL    HW149463   8.003   3.952   3.881 -1.5418  0.7863  1.3582
15910SOL    HW249464   8.162   3.916   3.894 -2.1862 -3.4922 -1.4172
15911SOL     OW49465   1.064   1.795   2.470  0.4649 -0.1195 -0.4056
15911SOL    HW149466   1.026   1.757   2.555 -0.7176 -0.6219 -1.1565
15911SOL    HW249467   1.093   1.720   2.411  0.3649  0.2082 -0.8673
15912SOL     OW49468   6.140   0.869   2.464  0.3838 -0.0002  0.3270
15912SOL    HW149469   6.225   0.822   2.487 -0.0776 -1.3486 -0.6526
15912SOL    HW249470   6.091   0.893   2.548 -0.0515 -2.5367  0.8144
15913SOL     OW49471   2.532   0.403   2.308  0.0259 -0.2412 -0.3144
15913SOL    HW149472   2.481   0.452   2.237 -1.9470 -2.3179 -0.3815
15913SOL    HW249473   2.480   0.323   2.337  2.3235 -1.2424  1.1592
15914SOL     OW49474   0.986   2.221   3.795 -0.2561  0.8103 -0.2715
15914SOL    HW149475   1.059   2.156   3.820 -1.3680 -0.0438  0.8273
15914SOL    HW249476   0.921   2.175   3.733 -1.2836  0.7184  0.8557
15916SOL     OW49477   8.837   0.135   6.040 -0.3107  0.6921 -0.0516
15916SOL    HW149478   8.819   0.071   5.965  0.9343 -1.3772  1.3616
15916SOL    HW249479   8.753   0.182   6.064 -1.8152 -2.0614  0.3283
15918SOL     OW49480   7.383   0.549   0.861 -0.1879 -0.5724  0.0203
15918SOL    HW149481   7.466   0.583   0.906  0.2973 -0.1601 -1.1871
15918SOL    HW249482   7.404   0.469   0.806 -0.5147 -0.2274 -0.6147
15919SOL     OW49483   0.398   7.776   1.909  0.2460  0.4017  0.5187
15919SOL    HW149484   0.310   7.772   1.956 -0.0181  1.6936  0.1589
15919SOL    HW249485   0.430   7.871   1.906  1.8008 -0.0997  0.9183
15920SOL     OW49486   4.456   0.212   4.283 -0.0523  0.6386  0.1343
15920SOL    HW149487   4.492   0.183   4.194 -0.0622  0.4544  0.1901
15920SOL    HW249488   4.397   0.291   4.270 -1.2895 -0.3282 -0.2213
15921SOL     OW49489   8.714   1.466   5.096 -0.2542  0.1518 -0.0913
15921SOL    HW149490   8.661   1.486   5.178 -0.1502  1.8615 -0.4188
15921SOL    HW249491   8.664   1.499   5.015  0.5592  0.3152 -0.5339
15922SOL     OW49492   2.529   7.563   3.631 -0.1422  0.0743  0.3715
15922SOL    HW149493   2.595   7.637   3.616  1.6821 -1.2378  1.7543
15922SOL    HW249494   2.441   7.603   3.657  1.0246  1.7691  1.8949
15924SOL     OW49495   1.600   2.000   0.375 -0.2117  0.3382 -0.2134
15924SOL    HW149496   1.514   2.050   0.389 -0.7178 -0.9361  1.3006
15924SOL    HW249497   1.602   1.963   0.282 -0.8505  1.2129 -0.5811
15925SOL     OW49498   1.516   0.519   1.262 -0.6293  0.7228 -0.7832
15925SOL    HW149499   1.458   0.448   1.302 -1.2884  0.7737 -1.6457
15925SOL    HW249500   1.514   0.600   1.320  0.6768 -0.1971  0.5770
15927SOL     OW49501   7.491   7.994   4.684  0.8516 -0.2051 -0.0818
15927SOL    HW149502   7.589   8.012   4.696  0.1038  2.5376  2.5695
15927SOL    HW249503   7.457   8.046   4.606  1.0873  0.5620  0.3222
15928SOL     OW49504   6.958   8.399   4.793 -0.0506  0.0148  0.1965
15928SOL    HW149505   6.947   8.444   4.705  1.0065  0.4093  0.2566
15928SOL    HW249506   6.910   8.312   4.792 -0.3804  0.2003 -0.6326
15929SOL     OW49507   8.278   1.300   1.279 -0.3656  0.5427  0.2900
15929SOL    HW149508   8.344   1.331   1.211 -0.4700 -0.9762 -0.5345
15929SOL    HW249509   8.327   1.255   1.355 -0.4193 -0.4039 -0.2246
15930SOL     OW49510   9.369   8.070   0.776  0.1899 -0.0703 -0.3899
15930SOL    HW149511   9.362   7.985   0.725 -0.1263 -0.7455  0.7785
15930SOL    HW249512   9.434   8.059   0.851 -0.7238  0.3668  0.4706
15931SOL     OW49513   2.893   4.671   1.143 -0.3892 -0.0088 -0.2555
15931SOL    HW149514   2.935   4.762   1.138 -0.5516  0.1323  0.7586
15931SOL    HW249515   2.957   4.608   1.186 -0.1771 -0.4455 -1.1936
15932SOL     OW49516   1.208   0.757   4.525 -0.0165 -0.2688 -0.4190
15932SOL    HW149517   1.256   0.672   4.502 -1.1952 -0.9095 -0.5069
15932SOL    HW249518   1.179   0.803   4.441  0.7239  0.2950 -0.3769
15933SOL     OW49519   1.790   7.827   1.727 -0.2658  0.1694  0.1363
15933SOL    HW149520   1.819   7.811   1.822  1.9234 -0.4360 -0.6024
15933SOL    HW249521   1.739   7.748   1.694 -1.3198  0.5190  0.9125
15934SOL     OW49522   6.866   2.709   1.664  0.0029  0.0538  0.3601
15934SOL    HW149523   6.805   2.655   1.607  0.5821 -1.0541  0.7608
15934SOL    HW249524   6.818   2.790   1.698 -0.8810 -0.2127 -0.2345
15935SOL     OW49525   0.047   5.737   4.830  0.7406 -0.1534 -0.3625
15935SOL    HW149526  -0.029   5.784   4.876  1.1183  0.4270 -0.3337
15935SOL    HW249527   0.132   5.788   4.845  1.4824 -1.7869  1.1713
15937SOL     OW49528   9.597   1.127   4.676 -0.0833  0.1970  0.0033
15937SOL    HW149529   9.585   1.030   4.657 -1.5116  0.7301 -1.9439
15937SOL    HW249530   9.512   1.164   4.713  0.7322  0.5375  1.5879
15939SOL     OW49531   9.193   7.549   6.296 -0.0134 -0.5890 -0.3065
15939SOL    HW149532   9.248   7.486   6.352  0.1317  0.3067  0.5687
15939SOL    HW249533   9.098   7.516   6.294  0.1630 -1.1104 -0.2732
15940SOL     OW49534   7.420   2.995   3.624  0.0893 -0.2067  0.0646
15940SOL    HW149535   7.402   3.013   3.721  1.8907 -1.8298  0.7300
15940SOL    HW249536   7.516   2.970   3.612  0.2306  1.3557 -2.3591
15941SOL     OW49537   4.577   4.745   2.594 -0.2115 -0.5311 -0.3317
15941SOL    HW149538   4.497   4.779   2.544  0.3030  0.3457 -0.5580
15941SOL    HW249539   4.556   4.654   2.631 -0.8464 -0.8854 -1.5265
15942SOL     OW49540   0.532   7.663   2.680 -0.3469  0.1980 -0.3662
15942SOL    HW149541   0.452   7.682   2.738 -0.4328  1.5639 -0.9065
15942SOL    HW249542   0.600   7.735   2.693  0.3004 -0.3352 -0.7945
15943SOL     OW49543   8.945   5.935   0.401  0.4407  0.5201 -0.3524
15943SOL    HW149544   8.985   5.936   0.309  1.6532 -0.7518  0.1209
15943SOL    HW249545   8.909   5.843   0.420  1.6858  0.2891  1.0271
15944SOL     OW49546   1.517   5.219   3.386 -0.0734 -0.1146  0.2264
15944SOL    HW149547   1.489   5.249   3.295  0.3915 -2.0983 -0.5931
15944SOL    HW249548   1.537   5.121   3.385  0.2761 -0.1078  2.3870
15945SOL     OW49549   9.908   8.970   2.142  0.5692  0.0913  0.5093
15945SOL    HW149550   9.939   8.886   2.187  0.6178 -0.1934 -0.0618
15945SOL    HW249551   9.842   8.948   2.071 -1.2055  0.7132  1.9136
15946SOL     OW49552   5.811   8.514   3.303 -0.9600 -0.5427 -0.5253
15946SOL    HW149553   5.802   8.538   3.206 -1.6477 -0.6330 -0.4891
15946SOL    HW249554   5.785   8.592   3.359 -1.0240 -0.6428 -0.4144
15947SOL     OW49555   2.001   3.163   4.567 -0.4776 -0.3589  0.1961
15947SOL    HW149556   1.939   3.099   4.611  1.4210 -1.0227  1.9723
15947SOL    HW249557   2.092   3.121   4.558  0.4348  1.5633  0.1326
15948SOL     OW49558   4.052   6.328   3.076 -0.4999  0.4133  0.9320
15948SOL    HW149559   4.065   6.231   3.099 -0.8719 -0.1116 -0.9869
15948SOL    HW249560   4.142   6.371   3.062 -0.3722 -0.0446  0.3017
15949SOL     OW49561   7.418   6.507   6.124 -0.2595 -0.0087 -0.4036
15949SOL    HW149562   7.516   6.525   6.117 -0.6315  1.7467 -1.2346
15949SOL    HW249563   7.371   6.539   6.042 -1.5545 -0.7519  0.0165
15951SOL     OW49564   2.869   9.952   5.741  0.1404 -0.1795 -0.2467
15951SOL    HW149565   2.803   9.975   5.671  0.2561 -0.8781 -0.5862
15951SOL    HW249566   2.856  10.011   5.821  0.5195  1.1541 -1.1556
15952SOL     OW49567   4.795   0.968   4.675  0.2693 -0.1777 -0.5347
15952SOL    HW149568   4.774   1.044   4.613  0.1577  0.0709 -0.1948
15952SOL    HW249569   4.890   0.975   4.705 -0.2918  0.9511  1.0421
15953SOL     OW49570   3.653   7.009   5.632  0.4276  0.2562 -0.2608
15953SOL    HW149571   3.636   7.033   5.727  0.7602  1.0461 -0.3959
15953SOL    HW249572   3.585   7.052   5.573 -0.0631 -0.6140 -0.3456
15955SOL     OW49573   8.818   3.199   6.031  0.6670 -0.8240  0.0717
15955SOL    HW149574   8.824   3.266   5.957 -1.0346 -1.1534 -0.3741
15955SOL    HW249575   8.906   3.195   6.079  0.9268  1.3932 -0.1667
15956SOL     OW49576   5.737   0.834   5.773  0.3441  0.2192  0.0045
15956SOL    HW149577   5.696   0.743   5.776  0.7216 -0.0361 -1.6684
15956SOL    HW249578   5.667   0.903   5.791 -0.3248 -0.3295 -0.4557
15957SOL     OW49579   5.117   0.153   6.237 -0.2132  0.0258  0.2753
15957SOL    HW149580   5.151   0.130   6.146 -1.0551  0.7382 -0.2285
15957SOL    HW249581   5.034   0.100   6.255 -1.0803  1.2255 -0.1203
15958SOL     OW49582   2.701   4.567   2.846  0.0626 -0.3408  0.1426
15958SOL    HW149583   2.607   4.567   2.880  0.2245  2.6767  0.7258
15958SOL    HW249584   2.763   4.596   2.919  1.1880 -0.0775 -0.8993
15960SOL     OW49585   8.522   4.091   3.325  0.1161  0.3846  0.1202
15960SOL    HW149586   8.603   4.149   3.336  0.1973  0.1342  0.9271
15960SOL    HW249587   8.442   4.137   3.364  0.0907  0.1675  0.3302
15961SOL     OW49588   5.778   5.541   0.390 -0.2109 -0.0592 -0.4651
15961SOL    HW149589   5.782   5.441   0.391  2.1372  0.0090 -0.0272
15961SOL    HW249590   5.812   5.575   0.303 -0.5769  0.3759 -0.4379
15962SOL     OW49591   2.698   9.561   6.089 -0.2041  0.1357 -0.4810
15962SOL    HW149592   2.649   9.642   6.120  0.3140 -0.1571  1.1405
15962SOL    HW249593   2.774   9.588   6.030  0.1650  0.8353  0.3178
15963SOL     OW49594   3.645   1.361   0.262  0.3032 -0.2893 -0.0191
15963SOL    HW149595   3.653   1.448   0.213 -0.2171 -0.7094 -0.8447
15963SOL    HW249596   3.676   1.286   0.203  0.4658 -0.7058  0.5842
15965SOL     OW49597   4.758   5.723   1.965  0.1948 -0.0736  0.4399
15965SOL    HW149598   4.784   5.737   1.869  0.4923 -1.3173  0.3354
15965SOL    HW249599   4.840   5.710   2.020 -0.0295 -0.5266  0.6712
15966SOL     OW49600   5.371   4.848   1.798  0.0521  0.2635  0.2695
15966SOL    HW149601   5.334   4.775   1.856  1.6929 -0.0499  0.9391
15966SOL    HW249602   5.415   4.917   1.855  0.6398  0.5464 -0.5179
15968SOL     OW49603   7.103   0.339   4.892  0.1407 -0.0038 -0.4638
15968SOL    HW149604   7.014   0.356   4.932  0.3047  2.6495 -1.1181
15968SOL    HW249605   7.175   0.368   4.955  0.4941  0.0425 -0.8803
15969SOL     OW49606   0.434   2.625   5.117 -0.3698 -0.5268 -0.2164
15969SOL    HW149607   0.408   2.590   5.027 -1.1550  0.4236 -0.3618
15969SOL    HW249608   0.357   2.615   5.181 -1.5198  3.2541 -0.9277
15971SOL     OW49609   5.277   0.057   4.129  0.2541 -0.4007  0.3695
15971SOL    HW149610   5.257   0.090   4.037 -0.5181  1.6412  1.2422
15971SOL    HW249611   5.211  -0.014   4.154  0.0092 -0.4308 -0.3541
15973SOL     OW49612   0.341   4.772   2.974 -0.1113 -0.4514  0.1927
15973SOL    HW149613   0.308   4.741   2.884 -1.2571  3.2403 -0.7352
15973SOL    HW249614   0.266   4.765   3.040  0.2975 -1.7668  0.5253
15974SOL     OW49615   7.139   0.469   3.964 -0.0391  0.0863  0.1740
15974SOL    HW149616   7.091   0.546   3.922  0.7688 -0.0939 -1.1217
15974SOL    HW249617   7.158   0.489   4.060  0.0464  1.4433 -0.1235
15975SOL     OW49618   0.201   7.226   2.331  0.1340 -0.4382 -0.5289
15975SOL    HW149619   0.271   7.183   2.389  0.0125 -0.9105 -0.7336
15975SOL    HW249620   0.164   7.306   2.378 -1.3170 -1.9087  0.8946
15977SOL     OW49621   9.245   9.429   3.481  0.1932  0.2425  0.7033
15977SOL    HW149622   9.268   9.362   3.411 -0.1440  0.4025  0.4381
15977SOL    HW249623   9.247   9.385   3.571 -1.2276 -0.4369  0.4148
15978SOL     OW49624   8.487   5.401   2.246 -0.3781  0.3801 -0.1714
15978SOL    HW149625   8.397   5.361   2.260  0.7372 -1.4140  2.2882
15978SOL    HW249626   8.545   5.336   2.197 -0.5965  1.7912 -2.3416
15979SOL     OW49627   0.839   0.612   1.017  0.6081 -0.2356 -0.1029
15979SOL    HW149628   0.857   0.564   0.931 -3.4063 -2.0815 -0.0097
15979SOL    HW249629   0.844   0.711   1.002 -2.8986 -0.4239 -3.2588
15980SOL     OW49630   5.559   1.374   0.143 -0.4043  0.5278  0.1793
15980SOL    HW149631   5.480   1.328   0.184  0.2323 -1.5992 -0.9458
15980SOL    HW249632   5.643   1.341   0.186  0.0874  0.3628 -0.9050
15981SOL     OW49633   8.709   4.628   3.987 -0.9398 -0.4511 -0.0156
15981SOL    HW149634   8.667   4.716   3.966  2.3983  0.9039 -1.3599
15981SOL    HW249635   8.690   4.564   3.911  1.3410  0.8768 -1.7497
15982SOL     OW49636   8.653   0.061   0.387 -0.4327 -0.2221  0.2983
15982SOL    HW149637   8.569   0.091   0.342 -0.4252  0.3909  0.6831
15982SOL    HW249638   8.642   0.070   0.486  0.9138  2.1249  0.2776
15983SOL     OW49639   2.181   7.131   3.838 -0.3033  0.1940  0.2347
15983SOL    HW149640   2.272   7.114   3.876  0.1455 -2.2132 -1.8371
15983SOL    HW249641   2.121   7.164   3.911  1.6449 -0.2476  2.0956
15984SOL     OW49642   2.710   5.968   5.825 -0.3298 -0.0744 -0.4434
15984SOL    HW149643   2.647   5.935   5.754  1.1838  1.3939 -2.5492
15984SOL    HW249644   2.670   6.049   5.868 -0.6830 -0.1888 -0.5488
15985SOL     OW49645   9.808   9.346   1.840  0.1497 -0.0515  0.0786
15985SOL    HW149646   9.876   9.406   1.798  0.1690  0.8154  1.3075
15985SOL    HW249647   9.782   9.384   1.929 -2.8232  0.2593 -0.8970
15986SOL     OW49648   7.602   0.829   2.336 -0.0597  0.2466 -0.0967
15986SOL    HW149649   7.681   0.878   2.300  0.1482 -0.2938 -0.3626
15986SOL    HW249650   7.550   0.789   2.261  0.2917 -0.7499  0.1863
15987SOL     OW49651   8.593   9.032   3.532 -0.2874 -0.1088  0.1511
15987SOL    HW149652   8.690   9.053   3.537  0.0668 -1.8805  1.6914
15987SOL    HW249653   8.553   9.072   3.450  1.4768  1.6512  0.1317
15988SOL     OW49654   8.581   7.643   1.109  0.4769 -0.5643 -0.5292
15988SOL    HW149655   8.560   7.737   1.081  1.3890 -0.3284 -0.4354
15988SOL    HW249656   8.579   7.584   1.029 -0.2102 -0.4889 -0.5724
15989SOL     OW49657   8.694   4.139   1.575  0.5957  0.3150 -0.8152
15989SOL    HW149658   8.644   4.170   1.656 -0.2345  0.0192 -1.2164
15989SOL    HW249659   8.762   4.071   1.601  0.2073  0.0912 -0.3855
15990SOL     OW49660   0.629   8.564   2.685  1.0117  0.4274 -0.3253
15990SOL    HW149661   0.645   8.520   2.596  1.4594  0.0917 -0.0799
15990SOL    HW249662   0.549   8.622   2.679  1.4428  0.9461 -1.1475
15991SOL     OW49663   3.956   2.126   2.996  0.1010 -0.2057  0.4600
15991SOL    HW149664   3.957   2.161   2.903  0.6447 -0.7427  0.2624
15991SOL    HW249665   3.870   2.079   3.014  0.9346 -2.1349 -0.5286
15992SOL     OW49666   8.929   9.802   1.117  0.2918 -0.2352 -0.2826
15992SOL    HW149667   8.930   9.745   1.035  1.6007  0.7225 -0.9404
15992SOL    HW249668   8.865   9.878   1.104 -0.3984 -0.7466  0.0585
15993SOL     OW49669   2.633   4.770   5.184  0.2387  0.1060 -0.1529
15993SOL    HW149670   2.717   4.796   5.231  0.6471  0.0671 -0.8703
15993SOL    HW249671   2.629   4.814   5.094  0.4433 -1.4826 -0.9570
15994SOL     OW49672   4.522   1.381   6.044  0.0996  0.1731 -0.7760
15994SOL    HW149673   4.600   1.319   6.039  0.0192 -0.0551  0.7103
15994SOL    HW249674   4.522   1.428   6.132 -0.9356  0.8436 -1.1222
15995SOL     OW49675   4.576   1.902   1.796 -0.0747  0.2423 -0.9189
15995SOL    HW149676   4.484   1.922   1.830 -0.0977  0.1142 -0.9029
15995SOL    HW249677   4.573   1.819   1.740 -0.1214  0.7123 -1.6164
15996SOL     OW49678   8.444   5.103   0.817 -0.2264  0.2460  0.3973
15996SOL    HW149679   8.459   5.183   0.876  0.6560  1.8643 -1.9801
15996SOL    HW249680   8.349   5.103   0.785  0.1112  1.0610 -0.6224
15997SOL     OW49681   8.756   6.461   3.226  0.0504 -0.6142 -0.4940
15997SOL    HW149682   8.789   6.453   3.320  1.0525 -0.5170 -0.8318
15997SOL    HW249683   8.763   6.372   3.180  2.1256 -0.0835 -1.2916
15998SOL     OW49684   9.720   0.403   3.762 -0.4725  0.1791 -0.4712
15998SOL    HW149685   9.647   0.389   3.829 -0.2887 -0.3480 -0.3780
15998SOL    HW249686   9.704   0.345   3.682 -0.0647 -0.0700 -0.3736
16000SOL     OW49687   0.864   1.445   0.049 -0.2244  0.8678  0.3984
16000SOL    HW149688   0.898   1.426  -0.043 -0.4729  0.1537  0.4480
16000SOL    HW249689   0.935   1.491   0.103  0.5330 -0.2831  0.3873
16001SOL     OW49690   0.715   6.495   5.260  0.0016 -0.3114 -0.3690
16001SOL    HW149691   0.770   6.413   5.252 -0.2672 -0.6526  1.0841
16001SOL    HW249692   0.647   6.483   5.332 -0.0401  1.1780 -0.1320
16002SOL     OW49693   7.959   7.568   5.540  0.7563 -0.1752  0.2181
16002SOL    HW149694   8.039   7.547   5.596  0.8985  0.9754  0.4650
16002SOL    HW249695   7.881   7.513   5.570  1.1342 -0.4088  0.7774
16004SOL     OW49696   7.839   9.330   2.037  0.2752 -0.1028  0.0201
16004SOL    HW149697   7.921   9.336   2.094 -0.3110  1.1493  0.7571
16004SOL    HW249698   7.766   9.384   2.079 -1.6060 -2.8932  0.5470
16005SOL     OW49699   1.529   1.058   3.558  0.2609 -0.1858  0.7204
16005SOL    HW149700   1.483   1.063   3.469  1.5651  0.3915  0.0544
16005SOL    HW249701   1.513   0.968   3.599  0.3667 -0.7803 -0.5091
16006SOL     OW49702   1.413   5.192   3.122  0.4779 -0.3375  0.5092
16006SOL    HW149703   1.401   5.182   3.023  0.8200 -0.7549  0.5075
16006SOL    HW249704   1.499   5.148   3.150  1.6543  1.9137  0.6120
16007SOL     OW49705   0.442  -0.000   4.818  0.0345 -0.1857 -0.3989
16007SOL    HW149706   0.471   0.014   4.913 -2.2064 -1.6959  0.5637
16007SOL    HW249707   0.347   0.030   4.807 -0.5633 -2.3596 -1.4897
16011SOL     OW49708   4.368   2.211   5.344 -0.0552 -0.7332  0.2713
16011SOL    HW149709   4.289   2.154   5.367 -1.3251  0.4904 -1.0067
16011SOL    HW249710   4.347   2.267   5.264  1.4178  1.0492  1.0998
16012SOL     OW49711   7.876   0.062   0.687  0.6323 -0.4164 -0.1807
16012SOL    HW149712   7.814   0.001   0.637 -0.6958  1.0065 -0.3074
16012SOL    HW249713   7.831   0.092   0.772 -0.7376  4.1785 -2.3839
16013SOL     OW49714   2.142   5.725   0.806  0.3605 -0.4616  0.3035
16013SOL    HW149715   2.062   5.670   0.831  0.3922  0.0975  1.6726
16013SOL    HW249716   2.225   5.676   0.831  0.4320 -0.5946 -0.1847
16014SOL     OW49717   2.084   0.663   3.425  0.6465  0.5569 -0.2950
16014SOL    HW149718   2.088   0.583   3.365  2.6686  0.5145 -0.1503
16014SOL    HW249719   2.177   0.691   3.449 -0.0990  1.2513  1.9290
16015SOL     OW49720   4.115   3.265   5.992  0.0876  0.4022 -0.2248
16015SOL    HW149721   4.152   3.208   6.066  2.7242 -0.9640 -2.4860
16015SOL    HW249722   4.178   3.341   5.974 -1.6660  2.0470  0.3904
16018SOL     OW49723   0.038   3.565   2.026 -0.4124  0.5386  0.3633
16018SOL    HW149724   0.012   3.647   2.076  0.1518  0.8745  0.1142
16018SOL    HW249725   0.117   3.523   2.070 -0.6189  0.2048  0.4138
16019SOL     OW49726   4.903   3.958   0.779  0.7704 -0.3319 -0.7480
16019SOL    HW149727   4.828   3.961   0.714  0.5273  0.9497 -0.4177
16019SOL    HW249728   4.883   4.018   0.857  1.8293 -0.4975 -0.3307
16020SOL     OW49729   3.785   9.477   3.845 -0.4689  0.6535  0.0955
16020SOL    HW149730   3.796   9.525   3.932  0.0709 -0.2635  0.5433
16020SOL    HW249731   3.792   9.379   3.860  0.1620  0.5066 -1.0559
16021SOL     OW49732   7.297   7.976   6.248 -0.5704 -0.0203  0.8841
16021SOL    HW149733   7.318   7.954   6.343 -0.5944  0.7120  1.0581
16021SOL    HW249734   7.330   8.068   6.226 -0.1371 -0.3749  0.0461
16022SOL     OW49735   8.049   7.394   4.039 -0.4614  0.0962  0.8100
16022SOL    HW149736   8.131   7.350   4.076 -1.2482 -1.3145  0.9163
16022SOL    HW249737   7.974   7.385   4.104 -1.0049  0.3969  0.2335
16023SOL     OW49738   9.521   3.822   5.955  0.0839  0.7546 -0.2890
16023SOL    HW149739   9.479   3.842   6.044  0.2768 -1.7528  0.4024
16023SOL    HW249740   9.466   3.862   5.882 -1.2640  1.0002  0.8388
16024SOL     OW49741   0.554   7.503   2.022 -0.4421  0.0826 -0.0491
16024SOL    HW149742   0.651   7.486   2.003 -0.5484 -1.6020  0.8681
16024SOL    HW249743   0.507   7.523   1.936  0.6720  0.6946 -0.5264
16025SOL     OW49744   9.530   4.468   2.826 -0.4864  0.1318 -0.4356
16025SOL    HW149745   9.479   4.537   2.774 -0.8089  0.2181 -0.0120
16025SOL    HW249746   9.523   4.380   2.780 -1.4083  0.0411 -0.1475
16026SOL     OW49747   9.506   2.274   4.556  0.5125  0.4357 -0.1826
16026SOL    HW149748   9.491   2.373   4.565  2.5974  0.8124 -0.6872
16026SOL    HW249749   9.601   2.253   4.577  0.1265 -1.4592 -0.2762
16027SOL     OW49750   8.908   4.466   5.587 -1.0462 -0.0750  0.0872
16027SOL    HW149751   8.893   4.454   5.489 -0.2166 -0.0863 -0.0429
16027SOL    HW249752   8.858   4.546   5.619 -1.4083 -0.1376 -0.3225
16028SOL     OW49753   6.213   9.538   2.516  0.0367  0.6406 -0.0730
16028SOL    HW149754   6.294   9.591   2.489 -0.7065  1.4577 -0.7483
16028SOL    HW249755   6.155   9.594   2.575  0.0559 -0.0159  0.5733
16029SOL     OW49756   2.270   7.446   1.301 -0.0743  0.1783 -0.0485
16029SOL    HW149757   2.200   7.516   1.290  0.0261  0.4163  0.7433
16029SOL    HW249758   2.228   7.355   1.300 -0.2612  0.2732 -0.6300
16030SOL     OW49759   9.651   0.672   3.846 -0.3758 -0.3465  0.0274
16030SOL    HW149760   9.683   0.587   3.804  0.6648  1.0591 -2.1243
16030SOL    HW249761   9.551   0.675   3.841 -0.5807 -2.3239  1.9510
16031SOL     OW49762   8.872   3.196   4.031  0.2268  0.6064  0.3667
16031SOL    HW149763   8.816   3.139   4.091 -1.7171  2.7065  0.5877
16031SOL    HW249764   8.870   3.159   3.938  0.0486 -0.4085  0.7714
16032SOL     OW49765   1.909   6.365   3.192 -0.4099  0.3720 -0.2391
16032SOL    HW149766   1.906   6.448   3.249 -0.5037 -1.2906  2.2724
16032SOL    HW249767   1.980   6.375   3.123  1.6074  1.4150  1.8904
16033SOL     OW49768   1.433   5.081   0.050 -0.2089 -0.2545 -0.1320
16033SOL    HW149769   1.349   5.027   0.043 -0.3147 -0.1953  0.6366
16033SOL    HW249770   1.501   5.029   0.101  0.5462 -0.6875 -1.5471
16036SOL     OW49771   1.122   9.882   1.759 -0.8006 -0.1412 -0.9803
16036SOL    HW149772   1.128   9.969   1.709 -0.9549  0.3514 -0.1564
16036SOL    HW249773   1.027   9.866   1.786 -0.4496  0.5005  0.7173
16037SOL     OW49774   1.527   5.322   2.365 -0.1653  0.2685 -0.3107
16037SOL    HW149775   1.457   5.387   2.395  0.2147 -0.1145  1.4555
16037SOL    HW249776   1.581   5.363   2.292 -0.5264  1.5827  0.1470
16038SOL     OW49777   4.747   7.918   2.768  0.4077  0.0500 -0.0942
16038SOL    HW149778   4.704   8.008   2.763 -1.9024 -0.9070  1.3223
16038SOL    HW249779   4.846   7.927   2.771  0.1889  2.5193  0.0986
16039SOL     OW49780   9.669   5.792   1.922 -0.0002  0.8186  0.1072
16039SOL    HW149781   9.619   5.727   1.865  0.8098  0.2157  0.0753
16039SOL    HW249782   9.765   5.764   1.928 -0.2783  0.2716  2.6100
16041SOL     OW49783   8.159   4.704   4.277  0.3917  0.5808 -0.1217
16041SOL    HW149784   8.254   4.734   4.284  0.9608 -1.3019  0.4713
16041SOL    HW249785   8.098   4.783   4.283  1.8312  1.5674  2.0021
16042SOL     OW49786   9.912   0.059   2.864  0.8511 -0.6307 -0.2388
16042SOL    HW149787   9.994   0.018   2.824  1.9801  0.4842  0.8972
16042SOL    HW249788   9.880   0.004   2.941  1.5534 -0.1457  0.4064
16043SOL     OW49789   2.586   7.001   0.027  0.0580 -0.2465 -0.1140
16043SOL    HW149790   2.503   7.041   0.066 -0.4616  0.1542 -1.5953
16043SOL    HW249791   2.645   6.968   0.101 -0.5390  1.2040  1.0399
16044SOL     OW49792   9.525   0.598   5.147  0.0792 -0.1332  0.0101
16044SOL    HW149793   9.459   0.561   5.213  0.4086  1.5052  1.2897
16044SOL    HW249794   9.595   0.530   5.129 -0.1979 -0.7316  1.1134
16046SOL     OW49795   3.769   6.718   0.900 -0.9311 -0.2723 -0.1520
16046SOL    HW149796   3.704   6.647   0.925 -1.1391 -0.6035 -1.5991
16046SOL    HW249797   3.829   6.737   0.978 -0.7456 -2.1536  0.1871
16047SOL     OW49798   1.933   5.364   5.011 -0.3609 -0.1049  0.3233
16047SOL    HW149799   1.971   5.322   5.093 -1.2594  0.3030  0.9575
16047SOL    HW249800   1.888   5.293   4.956  0.7364 -0.4753 -0.1059
16048SOL     OW49801   7.355   1.796   1.454  0.3205 -0.7572  0.0739
16048SOL    HW149802   7.419   1.836   1.387  0.1432 -2.1403 -0.9467
16048SOL    HW249803   7.261   1.816   1.425  0.2315 -1.9316 -0.4660
16050SOL     OW49804   7.882   2.702   4.902 -0.0613  0.8582  0.1229
16050SOL    HW149805   7.853   2.746   4.816  1.6322  0.3597 -0.7227
16050SOL    HW249806   7.980   2.683   4.898 -0.4997 -1.7868  1.0004
16051SOL     OW49807   6.872   9.506   5.349 -0.0333  0.0935  0.0146
16051SOL    HW149808   6.938   9.478   5.419 -0.9557  2.1411  1.7708
16051SOL    HW249809   6.918   9.562   5.280  0.4802 -0.2795  0.0489
16054SOL     OW49810   1.692   1.354   0.698  0.4219  0.1179  0.2581
16054SOL    HW149811   1.747   1.428   0.659  0.1321 -0.1798 -0.7112
16054SOL    HW249812   1.667   1.289   0.626  0.0488 -0.5339  0.9707
16055SOL     OW49813   9.428   4.523   1.783 -0.2634 -0.1166  0.1114
16055SOL    HW149814   9.505   4.482   1.734 -0.9295 -2.1512  0.7272
16055SOL    HW249815   9.399   4.462   1.857 -1.3015  1.4733  1.0538
16056SOL     OW49816   0.681   5.681   0.532 -0.1423  0.4283 -0.1623
16056SOL    HW149817   0.697   5.775   0.504 -0.7926  0.4476 -0.4731
16056SOL    HW249818   0.766   5.642   0.570 -0.4163  1.8085  1.9371
16057SOL     OW49819   5.015   9.121   2.456 -0.3352  0.0147  0.1145
16057SOL    HW149820   4.995   9.208   2.410 -0.2733 -0.3429 -0.6047
16057SOL    HW249821   4.929   9.074   2.478 -0.3599 -0.0411 -0.0931
16058SOL     OW49822   8.607   7.231   0.410  0.3102 -0.0508  0.3399
16058SOL    HW149823   8.676   7.288   0.453  0.4299  0.3735 -0.4058
16058SOL    HW249824   8.653   7.158   0.358  0.1842 -0.0465  0.2240
16059SOL     OW49825   4.388   8.173   3.471  0.3105  0.1772  0.0375
16059SOL    HW149826   4.462   8.159   3.404 -0.0545  0.7732 -0.4937
16059SOL    HW249827   4.300   8.152   3.428  0.3107 -2.5552  1.2786
16060SOL     OW49828   3.738   4.150   0.484  0.2007 -0.1369 -0.6792
16060SOL    HW149829   3.657   4.198   0.451  0.1360  1.1983  1.3464
16060SOL    HW249830   3.813   4.216   0.495  0.3501 -0.6440  1.3771
16061SOL     OW49831   3.155   7.907   3.547  0.4686  0.1870 -0.0118
16061SOL    HW149832   3.244   7.885   3.506  1.5766  2.1051  1.2951
16061SOL    HW249833   3.137   7.843   3.622 -0.5024 -1.8545 -1.8999
16062SOL     OW49834   3.931   7.638   4.667  0.4093 -0.1073  0.1555
16062SOL    HW149835   4.000   7.575   4.631 -0.4424 -0.1078 -1.5173
16062SOL    HW249836   3.935   7.724   4.617 -2.4464 -0.9853 -1.7072
16063SOL     OW49837   3.541   1.025   4.199 -0.3704  0.1697  0.7593
16063SOL    HW149838   3.451   1.014   4.158  0.2823 -0.7004 -0.4648
16063SOL    HW249839   3.544   0.977   4.286 -0.6942 -0.9018  0.1871
16064SOL     OW49840   2.536   8.371   2.945 -0.1843 -0.6801 -0.4145
16064SOL    HW149841   2.611   8.361   3.011 -1.3348  0.2696  1.0883
16064SOL    HW249842   2.516   8.282   2.904  1.8675 -0.9114 -0.9697
16065SOL     OW49843   1.981   7.445   0.673 -0.2101  0.5637  0.0552
16065SOL    HW149844   1.913   7.488   0.614 -0.1141  2.2962  1.1604
16065SOL    HW249845   1.935   7.394   0.746 -0.3271  0.3389 -0.1759
16066SOL     OW49846   1.838   4.872   1.193 -0.0128  0.1188 -0.1209
16066SOL    HW149847   1.935   4.863   1.172 -0.4204 -2.7961 -1.0107
16066SOL    HW249848   1.807   4.790   1.242 -1.7433  1.6084  1.3727
16068SOL     OW49849   9.886   0.943   2.133  0.2946 -0.2462 -0.1253
16068SOL    HW149850   9.958   0.945   2.063  0.6437 -0.3648  0.2279
16068SOL    HW249851   9.909   0.876   2.202 -0.5331 -0.8280 -0.4047
16069SOL     OW49852   1.748   4.079   2.910 -0.1527  0.2650 -0.0025
16069SOL    HW149853   1.821   4.144   2.930 -0.9025  0.5838  1.7425
16069SOL    HW249854   1.697   4.058   2.993 -0.6226 -1.7179 -0.7635
16072SOL     OW49855   8.364   8.833   1.607  0.0744  0.1147  0.2349
16072SOL    HW149856   8.272   8.829   1.569 -0.0511 -1.8649  0.7269
16072SOL    HW249857   8.363   8.885   1.692 -0.3639  1.1461 -0.3921
16073SOL     OW49858   1.423   7.502   1.522 -0.0101 -0.3121 -0.4329
16073SOL    HW149859   1.388   7.553   1.443 -0.7285 -0.5947 -0.3030
16073SOL    HW249860   1.352   7.438   1.554  1.2323 -2.1165 -1.2139
16074SOL     OW49861   0.649   4.755   4.148  0.3540  0.0828 -0.1587
16074SOL    HW149862   0.696   4.820   4.088 -2.5405  0.8849 -1.6583
16074SOL    HW249863   0.668   4.777   4.243  1.3318  1.6301 -0.7011
16076SOL     OW49864   1.810   9.169   5.156 -0.0197  0.0856 -0.3956
16076SOL    HW149865   1.719   9.206   5.174  0.1598  0.3599 -0.0225
16076SOL    HW249866   1.807   9.108   5.078 -0.3456  0.8218 -0.9661
16078SOL     OW49867   9.440   5.699   5.788 -0.4210  0.0936  0.0019
16078SOL    HW149868   9.502   5.685   5.711 -0.7049 -1.0789 -0.0309
16078SOL    HW249869   9.444   5.794   5.818  2.2710 -0.2278  0.7698
16079SOL     OW49870   5.005   5.881   0.825  0.1901  0.0970  0.5066
16079SOL    HW149871   5.101   5.905   0.837  0.0492  0.9850 -0.0893
16079SOL    HW249872   4.955   5.960   0.789 -0.7695 -0.3436  0.8560
16080SOL     OW49873   8.352   5.997   2.534  0.6345 -0.2669 -0.2499
16080SOL    HW149874   8.334   5.930   2.607 -0.7353  1.1805  0.7764
16080SOL    HW249875   8.282   5.990   2.464 -0.5706  1.3117  0.7699
16081SOL     OW49876   1.083   2.614   1.531 -0.7793  0.2015 -0.9941
16081SOL    HW149877   1.172   2.624   1.574 -1.1996  1.8492 -0.4632
16081SOL    HW249878   1.019   2.573   1.596 -0.7910  0.4137 -0.8720
16082SOL     OW49879   9.655   0.707   3.497  0.1077 -0.3705 -0.7739
16082SOL    HW149880   9.679   0.616   3.464 -0.7927 -0.1608 -2.0407
16082SOL    HW249881   9.719   0.774   3.460  0.7585 -0.4862  0.1420
16084SOL     OW49882   4.032   8.616   2.510 -0.3649  0.2449 -1.0466
16084SOL    HW149883   4.107   8.628   2.574 -0.1258 -1.4532 -0.9675
16084SOL    HW249884   4.046   8.673   2.430  1.0164 -0.0603 -1.0295
16085SOL     OW49885   4.961   5.925   1.592 -0.4100 -0.4594  0.2040
16085SOL    HW149886   5.013   5.844   1.619  0.0697  0.4383  1.9931
16085SOL    HW249887   4.870   5.922   1.634 -0.9194 -0.7847 -0.9061
16086SOL     OW49888   4.075   7.670   5.924  0.3849 -0.0244  0.0846
16086SOL    HW149889   4.074   7.684   5.825 -1.4788 -1.4223 -0.1280
16086SOL    HW249890   4.155   7.714   5.963  1.1653  0.5187 -2.0540
16087SOL     OW49891   0.602   1.815   4.079  0.7166 -0.0729 -0.7784
16087SOL    HW149892   0.649   1.879   4.018  1.1465 -0.5184 -0.9111
16087SOL    HW249893   0.648   1.727   4.078  1.8075  0.4282  1.5663
16088SOL     OW49894   8.743   1.440   0.196  0.0617 -0.1415 -0.1184
16088SOL    HW149895   8.658   1.439   0.144  0.2408 -2.0341 -0.4319
16088SOL    HW249896   8.740   1.367   0.265  1.0062  0.4519  0.5585
16089SOL     OW49897   9.413   2.114   4.367 -0.2400 -0.0208  0.0440
16089SOL    HW149898   9.461   2.177   4.430 -2.1709  0.6556  0.8748
16089SOL    HW249899   9.422   2.021   4.401 -1.5078  0.3723  1.5157
16090SOL     OW49900   2.998   9.293   1.969  0.3841  0.4057 -0.5319
16090SOL    HW149901   3.091   9.256   1.973 -0.0390 -0.7051 -0.9987
16090SOL    HW249902   2.997   9.373   1.909  1.1318  0.7015 -0.1570
16091SOL     OW49903   2.832   4.177   6.422  0.0939 -0.5485 -0.1862
16091SOL    HW149904   2.884   4.106   6.471 -0.6739 -0.6155  0.5573
16091SOL    HW249905   2.888   4.215   6.349  1.7403  0.4378  1.5554
16092SOL     OW49906   7.187   4.994   1.336  0.0160 -0.3526 -0.3590
16092SOL    HW149907   7.257   5.008   1.406 -0.4740  0.8165 -0.0858
16092SOL    HW249908   7.100   5.030   1.369  0.2050  2.0103 -2.3241
16093SOL     OW49909   6.568   4.462   0.660  0.2315  0.2922  0.4717
16093SOL    HW149910   6.616   4.491   0.743 -0.7420  0.4851  0.9683
16093SOL    HW249911   6.477   4.430   0.683  1.1307 -2.8086 -0.1332
16094SOL     OW49912   2.949   0.524   6.356 -0.3118 -0.4659 -0.5776
16094SOL    HW149913   2.906   0.495   6.270 -0.6684  2.3837 -1.4070
16094SOL    HW249914   2.881   0.529   6.428 -0.4413 -0.7002 -0.6845
16096SOL     OW49915   6.012   7.369   3.562  0.1944 -0.3896  0.1576
16096SOL    HW149916   5.956   7.452   3.553  3.6686  2.1851  1.0579
16096SOL    HW249917   6.042   7.360   3.657  3.6171 -0.0651 -0.8473
16097SOL     OW49918   9.037   1.246   2.525  0.4363 -0.0568  0.1358
16097SOL    HW149919   9.077   1.184   2.457 -0.1378 -0.7442  0.4264
16097SOL    HW249920   9.028   1.338   2.485  0.6409 -0.3193 -0.5210
16098SOL     OW49921   5.024   0.610   2.929  0.2186  0.2951  0.1137
16098SOL    HW149922   4.943   0.665   2.950  1.7794  2.5466  0.4519
16098SOL    HW249923   5.007   0.556   2.847 -1.6010  0.8106  0.1263
16099SOL     OW49924   2.697   8.695   3.877 -0.3556  0.3146  0.1762
16099SOL    HW149925   2.779   8.662   3.924  0.4988  0.7901 -0.9549
16099SOL    HW249926   2.623   8.629   3.890 -0.3794  0.8151  2.8416
16100SOL     OW49927   7.059   9.635   2.998  0.1295  0.1747 -0.0933
16100SOL    HW149928   7.130   9.666   2.935  2.0724 -1.6283  1.1269
16100SOL    HW249929   7.020   9.549   2.964  1.3394 -0.9248  1.2168
16101SOL     OW49930   2.249   1.174   5.838  0.2127  0.2127 -0.4183
16101SOL    HW149931   2.178   1.108   5.815  0.9757 -0.7224 -0.0951
16101SOL    HW249932   2.267   1.172   5.936 -0.6509  1.8070 -0.2139
16102SOL     OW49933   6.706   4.106   0.048  0.1358  0.9426  0.3835
16102SOL    HW149934   6.666   4.053  -0.026 -0.3282  1.4213  0.2893
16102SOL    HW249935   6.633   4.144   0.105  0.4924 -0.0682  1.5428
16103SOL     OW49936   0.291   0.786   3.829 -0.2196 -0.0287 -0.2076
16103SOL    HW149937   0.374   0.838   3.851 -1.4299  1.5294  0.8001
16103SOL    HW249938   0.216   0.850   3.812 -1.5511 -1.4408  0.3027
16104SOL     OW49939   4.031   7.669   1.942 -0.4666 -0.2102  0.4446
16104SOL    HW149940   4.005   7.740   1.876  0.1060  0.2679  0.7306
16104SOL    HW249941   3.974   7.678   2.024 -0.2448  0.0667  0.5714
16105SOL     OW49942   0.064   9.785   5.024 -0.2646  0.1737 -0.0004
16105SOL    HW149943   0.110   9.718   4.966 -0.5492  0.6780 -0.8114
16105SOL    HW249944   0.085   9.877   4.991 -0.7614  0.4511  0.4522
16106SOL     OW49945   0.831   9.082   3.569  0.0427  0.1479  0.0604
16106SOL    HW149946   0.878   9.000   3.600 -0.3131 -0.1960 -0.3194
16106SOL    HW249947   0.738   9.060   3.542  0.0978  0.5915 -0.4986
16107SOL     OW49948   4.573   3.202   6.298 -0.9058 -0.1624 -0.0425
16107SOL    HW149949   4.593   3.177   6.203  1.8328  2.2587 -0.1800
16107SOL    HW249950   4.613   3.134   6.360  0.9907  0.4399 -0.5617
16108SOL     OW49951   8.111   2.043   4.171  0.0317 -0.5803  0.2402
16108SOL    HW149952   8.084   2.035   4.267  1.3094 -0.0168  0.6563
16108SOL    HW249953   8.139   1.954   4.137  0.5564 -0.5938  0.6952
16109SOL     OW49954   3.417   2.718   3.491  0.3543  0.2572  0.0329
16109SOL    HW149955   3.506   2.672   3.490  0.6965  0.8109  2.2828
16109SOL    HW249956   3.345   2.652   3.473  1.3099  0.1145 -3.6008
16110SOL     OW49957   7.042   1.640   5.760 -0.0157 -0.3565  0.0642
16110SOL    HW149958   7.028   1.598   5.671 -1.9159  0.9497 -0.2776
16110SOL    HW249959   7.106   1.717   5.750 -0.3055 -0.1476 -0.1853
16111SOL     OW49960   9.241   6.729   4.837  0.0621 -0.3723 -0.3531
16111SOL    HW149961   9.243   6.631   4.854  1.4576 -0.1626  0.7377
16111SOL    HW249962   9.149   6.764   4.853 -0.9097 -1.8017 -2.5602
16112SOL     OW49963   2.642   4.825   3.922  0.0693 -0.1116  0.0303
16112SOL    HW149964   2.578   4.761   3.879  1.2428 -0.3709 -1.3717
16112SOL    HW249965   2.638   4.913   3.875  1.6947 -0.5389 -0.9802
16113SOL     OW49966   1.335   1.202   0.789  0.5336  0.0215 -0.2168
16113SOL    HW149967   1.373   1.129   0.846  1.3522 -0.1638 -0.9952
16113SOL    HW249968   1.292   1.271   0.848  0.0800 -0.8959  0.5373
16114SOL     OW49969   3.937   1.890   5.361 -0.0706  0.3477 -0.5697
16114SOL    HW149970   3.986   1.856   5.442  0.8620 -0.9214 -1.6504
16114SOL    HW249971   3.840   1.864   5.367  0.3551 -1.3311 -0.7142
16116SOL     OW49972   0.857   2.563   4.527 -0.6340 -0.3655  0.0146
16116SOL    HW149973   0.952   2.551   4.556 -0.8217  1.1321  1.2634
16116SOL    HW249974   0.850   2.546   4.428  0.9954 -0.0945 -0.1575
16117SOL     OW49975   3.102   0.680   0.137 -0.4283 -0.1841 -0.1317
16117SOL    HW149976   3.045   0.704   0.058 -2.2885 -1.2319  0.8511
16117SOL    HW249977   3.146   0.592   0.121 -1.0421 -0.5378  0.1162
16118SOL     OW49978   7.783   6.142   5.468 -0.1198 -0.0182  0.2491
16118SOL    HW149979   7.809   6.092   5.550 -1.5256  0.1777  0.8266
16118SOL    HW249980   7.729   6.082   5.408  0.4339  0.0068 -0.2759
16119SOL     OW49981   0.498   9.332   6.190 -0.1657 -0.4387  0.0839
16119SOL    HW149982   0.420   9.270   6.187  1.4862 -2.6590  1.1605
16119SOL    HW249983   0.558   9.314   6.113  0.6241 -0.6040  0.7290
16120SOL     OW49984   5.608   9.954   6.178 -0.3157 -0.0337  0.0990
16120SOL    HW149985   5.571   9.976   6.087  1.9429  1.6255 -0.4668
16120SOL    HW249986   5.533   9.939   6.242 -1.9484 -1.5804 -2.1073
16121SOL     OW49987   9.371   0.196   2.138 -0.4817 -0.1981 -0.0654
16121SOL    HW149988   9.326   0.191   2.228 -0.3347 -0.3258  0.0012
16121SOL    HW249989   9.348   0.115   2.085  0.7724 -0.9346  0.4863
16123SOL     OW49990   6.753   8.728   4.184 -0.2284 -0.4451  0.2645
16123SOL    HW149991   6.812   8.741   4.104  0.7309 -1.7008  0.7476
16123SOL    HW249992   6.675   8.790   4.178  1.7349  2.1175  0.1998
16124SOL     OW49993   4.268   2.809   0.233  0.2783  0.0808 -0.2164
16124SOL    HW149994   4.305   2.829   0.324  0.8757 -0.5669 -0.3154
16124SOL    HW249995   4.295   2.881   0.169  1.2757 -0.3291 -0.2619
16125SOL     OW49996   6.606   1.466   2.511  0.1769  0.2419 -0.1790
16125SOL    HW149997   6.580   1.522   2.590 -0.5814 -1.7691  1.0375
16125SOL    HW249998   6.535   1.472   2.441 -2.1285 -2.6266  1.7755
16127SOL     OW49999   4.992   8.909   1.713  0.0962  0.1437  0.4754
16127SOL    HW150000   5.062   8.967   1.671  0.5292 -0.8556 -0.1995
16127SOL    HW250001   5.035   8.825   1.748 -0.8741 -0.8063 -0.5808
16129SOL     OW50002   3.885   3.219   2.622  0.3979 -0.5983 -1.1977
16129SOL    HW150003   3.867   3.309   2.661 -0.4977  0.2109 -3.3754
16129SOL    HW250004   3.862   3.148   2.688 -1.2024  0.7131 -0.3288
16130SOL     OW50005   9.931   5.010   0.902 -0.1379  0.3887 -0.4548
16130SOL    HW150006   9.969   5.030   0.992 -1.3035 -1.1771  0.3992
16130SOL    HW250007   9.964   4.921   0.871 -1.0165  0.1993 -0.8551
16131SOL     OW50008   3.445   9.554   0.021 -0.7200  0.2090 -0.2471
16131SOL    HW150009   3.446   9.531   0.118 -0.8449 -0.3807 -0.3886
16131SOL    HW250010   3.431   9.653   0.011  1.4925  0.6281  0.4024
16133SOL     OW50011   1.134   5.944   1.856  0.3873  0.1574 -0.1159
16133SOL    HW150012   1.071   6.005   1.810 -0.9417 -0.7958  0.4031
16133SOL    HW250013   1.124   5.954   1.955  1.9014  0.8506 -0.0182
16134SOL     OW50014   8.514   8.758   6.209  0.0497  0.5031 -0.2871
16134SOL    HW150015   8.557   8.687   6.264 -1.2963  0.6870  1.0255
16134SOL    HW250016   8.568   8.842   6.216 -0.0918  0.5181  0.7314
16136SOL     OW50017   7.605   9.941   2.719 -0.2751 -0.0615  0.2167
16136SOL    HW150018   7.633  10.010   2.652 -1.3201 -0.4491 -0.6474
16136SOL    HW250019   7.676   9.931   2.789 -0.0150  1.7105  0.2174
16138SOL     OW50020   1.690   2.944   0.236  0.1706 -0.2491  0.3098
16138SOL    HW150021   1.776   2.981   0.271  0.3385  0.1557 -0.5064
16138SOL    HW250022   1.628   3.019   0.214  0.3934 -0.4523 -1.0561
16139SOL     OW50023   9.674   0.335   4.405  0.2188  0.6320 -0.2282
16139SOL    HW150024   9.611   0.259   4.394 -0.0915  0.9801 -0.8729
16139SOL    HW250025   9.622   0.419   4.423  0.5289  0.8035 -0.1241
16140SOL     OW50026   0.692   9.444   0.069 -0.4766  0.6574 -0.0739
16140SOL    HW150027   0.736   9.367   0.022 -0.2414  0.9135 -0.2672
16140SOL    HW250028   0.734   9.530   0.041 -0.6286  0.8472  0.2726
16141SOL     OW50029   2.428   4.667   3.797  0.4048  0.1266 -0.2914
16141SOL    HW150030   2.367   4.737   3.758 -0.1834 -0.0831  0.2483
16141SOL    HW250031   2.435   4.590   3.733  0.9881  0.6435 -0.8495
16142SOL     OW50032   6.925   0.831   2.659 -0.0955  0.3785 -0.3109
16142SOL    HW150033   6.963   0.752   2.707 -0.9366  0.1035 -0.0752
16142SOL    HW250034   6.895   0.899   2.726  2.5673  1.8450 -0.5631
16144SOL     OW50035   3.212   6.620   3.259 -0.0893 -0.4367  0.2128
16144SOL    HW150036   3.220   6.699   3.319  1.0192 -0.4978  0.1466
16144SOL    HW250037   3.273   6.630   3.181 -1.3210 -0.4827 -0.7877
16145SOL     OW50038   1.898   3.540   1.769  0.0864 -0.2525 -0.3960
16145SOL    HW150039   1.852   3.465   1.720  0.9925 -1.0257 -0.0703
16145SOL    HW250040   1.899   3.519   1.867  0.5307  0.0864 -0.3308
16146SOL     OW50041   0.492   9.123   4.726 -0.3681 -0.1668 -0.1940
16146SOL    HW150042   0.536   9.169   4.803 -0.9175 -0.1418  0.1057
16146SOL    HW250043   0.405   9.085   4.756 -1.3526  1.2628 -1.2140
16149SOL     OW50044   6.398   1.740   0.781 -0.7203 -0.2114  0.3038
16149SOL    HW150045   6.465   1.758   0.853 -0.3544  0.1822 -0.1414
16149SOL    HW250046   6.401   1.813   0.713 -0.8443 -0.7588 -0.2867
16150SOL     OW50047   3.110   3.541   1.456 -0.0247  0.0953  0.4984
16150SOL    HW150048   3.093   3.494   1.542 -0.0980 -0.1048  0.3752
16150SOL    HW250049   3.208   3.543   1.438 -0.1045 -1.1022 -0.1050
16151SOL     OW50050   3.016   9.815   5.349 -0.1638  0.1690  0.0695
16151SOL    HW150051   2.917   9.830   5.354 -0.5927 -2.0034 -1.4029
16151SOL    HW250052   3.046   9.767   5.431 -0.6499 -0.8393 -0.3397
16152SOL     OW50053   1.541   9.037   1.039  0.0802 -0.2404 -0.1574
16152SOL    HW150054   1.624   9.056   0.986  0.1544 -1.4008 -0.4805
16152SOL    HW250055   1.503   8.949   1.010 -1.0754  0.1269  0.2325
16153SOL     OW50056   7.800   0.819   1.992  0.0047 -0.4683 -0.4770
16153SOL    HW150057   7.774   0.907   2.033 -0.5299 -1.0589  0.4691
16153SOL    HW250058   7.731   0.750   2.015  2.2222 -2.0108  1.8155
16154SOL     OW50059   5.034   7.692   2.689 -0.5251 -0.3190  0.0207
16154SOL    HW150060   5.030   7.791   2.702 -0.9448 -0.1585 -1.3393
16154SOL    HW250061   5.122   7.658   2.722  0.7034  0.8724 -1.9285
16155SOL     OW50062   4.200   3.452   3.982 -0.3036 -0.2993 -0.0364
16155SOL    HW150063   4.105   3.463   3.954  0.3143 -2.0231 -3.0813
16155SOL    HW250064   4.255   3.429   3.902  2.7448  0.9643  1.6367
16156SOL     OW50065   9.421   3.919   2.465 -0.4925 -0.2375 -0.3410
16156SOL    HW150066   9.433   3.839   2.523 -1.0064  0.6369  0.9986
16156SOL    HW250067   9.510   3.952   2.434 -0.1181  0.0622  1.0344
16157SOL     OW50068   2.931   9.294   6.349  0.1375  0.4091  0.0224
16157SOL    HW150069   2.989   9.339   6.281  1.8565 -0.0867  1.1353
16157SOL    HW250070   2.928   9.350   6.432  0.1280 -0.2295  0.4571
16158SOL     OW50071   8.360   8.156   2.962 -0.4457 -0.0861  0.2753
16158SOL    HW150072   8.276   8.124   3.007 -1.2093 -0.6567 -1.5015
16158SOL    HW250073   8.412   8.076   2.931  0.3472  0.2894  0.6433
16159SOL     OW50074   5.763   9.073   4.021 -0.5900 -0.3856  0.5810
16159SOL    HW150075   5.742   8.989   4.072  1.8240 -1.1215  0.4409
16159SOL    HW250076   5.807   9.049   3.934 -1.3111  0.9959 -0.1901
16160SOL     OW50077   5.724   1.878   3.546 -0.3743 -0.1097  0.1291
16160SOL    HW150078   5.632   1.916   3.549 -0.7108 -0.8120 -1.0869
16160SOL    HW250079   5.761   1.886   3.454  0.9380  0.5146  0.6914
16161SOL     OW50080   8.098   5.997   3.369 -0.2823 -0.0506  0.2711
16161SOL    HW150081   8.185   5.985   3.418 -0.9319  0.3569  1.5442
16161SOL    HW250082   8.099   6.084   3.321  0.0285 -0.0614  0.2558
16162SOL     OW50083   4.618   0.170   3.881 -0.1337 -0.0432  0.1691
16162SOL    HW150084   4.639   0.131   3.791 -0.7744 -0.7908  0.3437
16162SOL    HW250085   4.622   0.270   3.875 -1.2333 -0.0584 -0.9576
16163SOL     OW50086   2.555   9.474   3.622 -0.0195  0.7030  0.1661
16163SOL    HW150087   2.546   9.392   3.678  0.2676  2.3013  2.6163
16163SOL    HW250088   2.551   9.449   3.525  0.2090 -2.1965  0.8688
16164SOL     OW50089   9.253   8.929   2.045 -0.4036  0.2713 -1.1617
16164SOL    HW150090   9.231   8.928   1.948 -0.6788  0.3944 -1.0999
16164SOL    HW250091   9.300   8.844   2.070 -0.2220  0.2948 -1.4263
16165SOL     OW50092   1.728   3.607   5.781 -0.0777 -0.0584 -0.3934
16165SOL    HW150093   1.710   3.699   5.747  0.9417 -0.0342 -0.9075
16165SOL    HW250094   1.650   3.574   5.833 -0.8480  0.7096 -1.0502
16166SOL     OW50095   9.437   4.356   3.752 -0.5660  0.1526 -0.6991
16166SOL    HW150096   9.515   4.412   3.723 -0.3617 -0.5282 -1.4791
16166SOL    HW250097   9.470   4.279   3.807 -0.9378  1.3626  1.2833
16170SOL     OW50098   9.298   3.860   1.960 -0.6564 -0.4494 -0.6380
16170SOL    HW150099   9.333   3.929   1.896 -0.2104  0.0999  0.1955
16170SOL    HW250100   9.293   3.899   2.052 -1.9848 -1.0057 -0.4626
16171SOL     OW50101   4.719   3.442   6.330 -0.7740  0.1935  0.0214
16171SOL    HW150102   4.691   3.491   6.413 -0.3370  0.2428  0.1378
16171SOL    HW250103   4.672   3.354   6.326 -1.3945  0.5261 -0.0765
16172SOL     OW50104   7.117   2.455   2.408 -0.1670 -0.2601  0.3903
16172SOL    HW150105   7.096   2.433   2.313 -2.3459  0.0963  0.7468
16172SOL    HW250106   7.176   2.385   2.447 -0.3576 -1.1140 -0.8413
16173SOL     OW50107   9.482   7.444   3.190 -0.1089 -0.3021  0.5303
16173SOL    HW150108   9.398   7.414   3.145  0.4789 -0.1427 -0.7199
16173SOL    HW250109   9.489   7.402   3.280 -1.8730  0.2504  0.9369
16174SOL     OW50110   7.608   1.613   5.206  0.1132  0.7024  0.0769
16174SOL    HW150111   7.688   1.574   5.160 -0.5042  1.3311 -1.6001
16174SOL    HW250112   7.608   1.712   5.194 -1.4784  0.6082 -0.9056
16175SOL     OW50113   0.221   2.279   5.226 -0.1486 -0.3251  0.4208
16175SOL    HW150114   0.219   2.379   5.224 -0.9053 -0.3441  0.0018
16175SOL    HW250115   0.127   2.245   5.234 -0.0748 -1.0508 -1.6489
16176SOL     OW50116   3.055   4.079   3.176  0.0332  0.2664 -0.0219
16176SOL    HW150117   3.048   4.058   3.079  0.0212 -0.0198  0.0422
16176SOL    HW250118   3.004   4.012   3.229 -1.2709  1.3201  0.0864
16178SOL     OW50119   0.596   9.532   4.611  0.0620 -0.4235  0.0868
16178SOL    HW150120   0.545   9.618   4.617 -1.6782 -1.5237  1.3413
16178SOL    HW250121   0.637   9.512   4.699  0.0061 -1.1527 -0.0526
16179SOL     OW50122   8.638   8.278   0.725  0.1014  0.2693  0.0679
16179SOL    HW150123   8.575   8.353   0.705 -0.6568 -0.5014 -0.4172
16179SOL    HW250124   8.675   8.241   0.639 -0.8434 -1.0422  0.2136
16180SOL     OW50125   1.095   5.421   5.386  0.1082  0.5314 -0.5823
16180SOL    HW150126   1.155   5.501   5.391 -0.6292  0.9524  2.0613
16180SOL    HW250127   1.028   5.435   5.313 -0.3304  2.5685  0.1707
16181SOL     OW50128   3.640   6.081   3.322 -0.5776  0.0689 -0.4456
16181SOL    HW150129   3.717   6.113   3.266  0.0690 -0.5617  0.0683
16181SOL    HW250130   3.675   6.024   3.396 -1.4249  0.8584  0.5725
16182SOL     OW50131   4.963   8.680   4.718  0.1470 -0.0274  0.2123
16182SOL    HW150132   5.035   8.744   4.744 -0.0650  0.9584 -1.6288
16182SOL    HW250133   4.897   8.672   4.793  0.0852  2.0240  0.3904
16183SOL     OW50134   3.403   8.384   1.683  0.1891  0.5448  0.1170
16183SOL    HW150135   3.426   8.430   1.597  2.0045 -0.3197  0.1148
16183SOL    HW250136   3.306   8.359   1.682 -0.0129  1.2939 -1.3170
16184SOL     OW50137   4.513   3.431   3.324 -0.0879 -1.1380  0.8855
16184SOL    HW150138   4.491   3.497   3.395 -2.9389 -0.2126 -0.7953
16184SOL    HW250139   4.438   3.365   3.315  0.2974 -1.3266 -1.1527
16185SOL     OW50140   7.328   9.991   6.158  0.3702 -0.3644  0.4297
16185SOL    HW150141   7.398   9.995   6.229  0.0891  1.9371  0.6065
16185SOL    HW250142   7.371   9.985   6.068  0.8546  2.3434  0.4512
16186SOL     OW50143   5.117   1.917   4.442 -0.6228  0.1468  0.3191
16186SOL    HW150144   5.058   1.998   4.446 -0.6820  0.1087  0.1811
16186SOL    HW250145   5.119   1.873   4.532  0.6490  1.2022  0.8306
16189SOL     OW50146   7.570   9.520   5.156 -0.2761  0.1979 -0.3828
16189SOL    HW150147   7.584   9.534   5.058  1.2811  1.5167  0.0034
16189SOL    HW250148   7.658   9.508   5.201 -0.9392  0.2108  0.9418
16190SOL     OW50149   1.975   7.665   4.801  0.3571  0.4595 -0.0868
16190SOL    HW150150   2.052   7.725   4.822  1.1515 -0.5270 -0.1752
16190SOL    HW250151   1.898   7.687   4.861  1.2701  0.3166  1.1635
16191SOL     OW50152   7.673   7.228   5.643 -0.2172  0.2476  0.0738
16191SOL    HW150153   7.678   7.315   5.691  1.9265 -1.1474  2.5100
16191SOL    HW250154   7.604   7.170   5.686  0.8790 -0.5674  0.7583
16192SOL     OW50155   5.213   9.334   6.384  0.5123  0.6589  0.2013
16192SOL    HW150156   5.203   9.411   6.321  1.0744 -0.0325 -0.7505
16192SOL    HW250157   5.125   9.288   6.396  0.3486  0.9544  0.1348
16193SOL     OW50158   0.561   2.778   5.778  0.4316 -0.0094  0.4637
16193SOL    HW150159   0.493   2.745   5.844 -0.5962  0.1966 -0.4892
16193SOL    HW250160   0.588   2.871   5.802  1.6206 -0.6663  1.8019
16194SOL     OW50161   1.584   3.814   2.820  0.0078 -0.5182  0.4349
16194SOL    HW150162   1.634   3.830   2.735  0.6118  0.7534  1.0148
16194SOL    HW250163   1.493   3.854   2.813 -0.3262 -1.3379  0.0086
16195SOL     OW50164   3.664   2.294   3.038 -0.3018 -0.2758  0.0536
16195SOL    HW150165   3.723   2.374   3.048 -0.3875 -0.3296  1.0328
16195SOL    HW250166   3.705   2.231   2.972 -0.1161  0.4607 -0.5430
16196SOL     OW50167   0.431   0.162   1.779  0.8241 -0.2299  0.6098
16196SOL    HW150168   0.376   0.242   1.804 -0.2009 -1.4592  2.4954
16196SOL    HW250169   0.435   0.153   1.680  1.0884  2.2310  0.3801
16197SOL     OW50170   2.707   0.169   0.255  0.3084 -0.1302 -0.0673
16197SOL    HW150171   2.709   0.239   0.185 -0.1836 -0.9405 -0.9054
16197SOL    HW250172   2.625   0.182   0.312  0.7640  0.5895  0.4310
16198SOL     OW50173   0.093   4.330   4.432  0.3295 -0.1397 -0.3623
16198SOL    HW150174   0.090   4.403   4.364  1.3900  0.6155  0.3746
16198SOL    HW250175   0.186   4.292   4.434  0.2216 -0.3498  0.4575
16199SOL     OW50176   4.451   7.959   3.993  0.0108 -0.2486 -0.4507
16199SOL    HW150177   4.416   8.017   3.919 -0.8790  1.3774  1.1948
16199SOL    HW250178   4.534   7.913   3.962 -0.1936  0.5942 -2.3741
16200SOL     OW50179   3.189   9.644   5.927 -0.0862 -0.0526  0.3444
16200SOL    HW150180   3.289   9.633   5.922 -0.0708  0.3380 -0.3612
16200SOL    HW250181   3.166   9.738   5.903 -0.5232  0.2533  1.9301
16201SOL     OW50182   5.131   0.239   2.690 -0.0427  0.0087  0.0929
16201SOL    HW150183   5.074   0.177   2.636  1.5597  0.0901 -1.7642
16201SOL    HW250184   5.175   0.189   2.764 -1.1126 -0.4175  0.4503
16203SOL     OW50185   7.986   1.321   2.199 -0.1006  0.5357  0.0720
16203SOL    HW150186   8.035   1.407   2.208 -1.8621  1.6396 -0.7078
16203SOL    HW250187   7.931   1.305   2.282 -0.1167  0.3676  0.0298
16205SOL     OW50188   8.376   4.110   5.769  0.6067  0.7713  0.1955
16205SOL    HW150189   8.463   4.101   5.721  1.4333  1.6584  1.4790
16205SOL    HW250190   8.303   4.068   5.715  1.9321 -0.5764 -0.5742
16206SOL     OW50191   6.238   4.804   0.788 -0.3407  0.7093 -0.3955
16206SOL    HW150192   6.254   4.843   0.879  0.3505  1.2453 -0.7443
16206SOL    HW250193   6.303   4.730   0.772  1.1742  2.2123 -1.4041
16207SOL     OW50194   9.642   1.288   0.276  0.0821 -0.2990  0.2637
16207SOL    HW150195   9.706   1.211   0.272 -0.7721 -0.9515 -1.2351
16207SOL    HW250196   9.564   1.262   0.333  1.0280  0.4216  1.9195
16208SOL     OW50197   3.321   7.818   0.515  0.1173 -0.2966 -0.2008
16208SOL    HW150198   3.393   7.873   0.474  0.5295 -0.2897  0.5249
16208SOL    HW250199   3.276   7.763   0.443  1.3677 -0.8984 -0.5411
16210SOL     OW50200   8.264   7.845   3.125 -0.2268 -0.2060 -0.6974
16210SOL    HW150201   8.233   7.752   3.105  0.2451 -0.6054  0.3952
16210SOL    HW250202   8.230   7.908   3.054 -0.1020 -1.2866 -1.7298
16211SOL     OW50203   9.931   5.091   0.645 -0.5642 -0.1943 -0.0475
16211SOL    HW150204   9.934   5.066   0.741 -2.9200 -0.7929 -0.0987
16211SOL    HW250205  10.000   5.038   0.594 -0.1129 -0.7257  1.1090
16212SOL     OW50206   6.812   1.439   2.091  0.0407 -0.2907  0.1822
16212SOL    HW150207   6.726   1.485   2.067 -0.2245 -1.4697 -1.1707
16212SOL    HW250208   6.877   1.447   2.016  1.3281  1.0543  1.4140
16214SOL     OW50209   2.812   3.500   3.425  0.1848 -0.1966 -0.1550
16214SOL    HW150210   2.886   3.545   3.375  0.7251  0.8102  1.5063
16214SOL    HW250211   2.772   3.565   3.490 -2.0652 -0.7649 -0.9212
16216SOL     OW50212   8.750   6.430   1.794  0.1089  0.0778  0.2748
16216SOL    HW150213   8.663   6.475   1.814  2.2572  2.6072  4.5433
16216SOL    HW250214   8.813   6.497   1.754  0.6528 -1.3549 -1.3460
16217SOL     OW50215   9.667   1.688   6.317  0.2835 -0.4983 -0.3178
16217SOL    HW150216   9.682   1.766   6.377 -0.2991  0.8261 -1.8849
16217SOL    HW250217   9.667   1.718   6.222 -0.8926 -2.2498 -0.8944
16219SOL     OW50218   4.066   4.629   4.892 -0.2855 -0.7058  0.3244
16219SOL    HW150219   3.980   4.679   4.904 -0.2914 -1.0084  1.5757
16219SOL    HW250220   4.132   4.660   4.960  0.0341 -1.6890  0.4687
16220SOL     OW50221   7.689   6.786   4.841  0.3731 -0.0883  0.7201
16220SOL    HW150222   7.746   6.867   4.830  0.7042 -0.1763  1.7747
16220SOL    HW250223   7.626   6.800   4.917 -0.0376 -0.5566  0.4711
16221SOL     OW50224   2.848   8.080   6.117  0.0620  0.2666  0.0298
16221SOL    HW150225   2.861   8.176   6.140 -1.5748  0.3624  0.6295
16221SOL    HW250226   2.754   8.053   6.138  0.4258 -1.3954 -0.3876
16223SOL     OW50227   3.137   2.744   1.224  0.0073  0.2018 -0.3804
16223SOL    HW150228   3.164   2.839   1.208 -0.5201  0.1148 -1.8814
16223SOL    HW250229   3.219   2.687   1.232  0.3080  0.5588 -0.8886
16224SOL     OW50230   5.898   0.026   2.088  0.0755 -0.4587  0.3656
16224SOL    HW150231   5.805   0.058   2.074 -0.0469 -0.3988  1.2872
16224SOL    HW250232   5.898  -0.074   2.097 -0.2613 -0.2703  3.0007
16225SOL     OW50233   0.521   8.536   1.975  0.4507  0.3808 -0.5353
16225SOL    HW150234   0.462   8.607   1.938 -0.1357 -0.2035 -0.7252
16225SOL    HW250235   0.549   8.561   2.068  1.0236  1.3115 -0.9578
16227SOL     OW50236   4.146   5.528   3.497  0.0781  0.3087 -0.8056
16227SOL    HW150237   4.120   5.510   3.403  0.1386 -0.0086 -0.7653
16227SOL    HW250238   4.202   5.451   3.531  0.9616  0.9204 -0.8563
16228SOL     OW50239   8.015   0.204   1.599 -0.1756 -0.2331 -0.1463
16228SOL    HW150240   8.073   0.131   1.562 -0.8199 -0.2874 -1.0582
16228SOL    HW250241   8.073   0.277   1.636  0.4861  0.1329 -1.8732
16231SOL     OW50242   1.688   2.633   5.787 -0.1948  0.1666 -0.2491
16231SOL    HW150243   1.635   2.551   5.767  0.3162  0.0614 -1.2082
16231SOL    HW250244   1.786   2.613   5.776 -0.0689  0.8874 -0.4567
16232SOL     OW50245   2.128   9.529   2.188  0.9362  0.2841  0.5585
16232SOL    HW150246   2.228   9.529   2.197  1.2841  0.5907 -2.6868
16232SOL    HW250247   2.102   9.475   2.108 -1.3060  2.5430 -0.3078
16233SOL     OW50248   1.352   1.408   0.980 -0.4024 -0.3726  0.2287
16233SOL    HW150249   1.273   1.470   0.975  1.3359  1.9602  0.7481
16233SOL    HW250250   1.408   1.419   0.898 -0.5725 -1.9559 -0.1023
16234SOL     OW50251   1.226   7.758   0.394  0.4493 -0.2719 -0.8055
16234SOL    HW150252   1.267   7.790   0.479 -0.5216  1.1049 -0.8399
16234SOL    HW250253   1.267   7.807   0.317  1.0806 -1.2631 -1.1048
16235SOL     OW50254   7.099   3.343   0.151 -0.0216  0.4992 -0.4124
16235SOL    HW150255   7.095   3.313   0.056 -0.3809 -0.1283 -0.2044
16235SOL    HW250256   7.010   3.328   0.194 -0.0180  1.2858 -0.1294
16238SOL     OW50257   8.418   9.742   4.752 -0.5484  0.3636 -0.0318
16238SOL    HW150258   8.485   9.791   4.696  0.8239 -0.4150  0.8823
16238SOL    HW250259   8.348   9.805   4.783 -0.3140  1.1750 -1.1195
16240SOL     OW50260   7.339   1.137   5.295  0.0729 -0.0781 -0.2066
16240SOL    HW150261   7.387   1.222   5.271  1.6612 -0.8478  0.1498
16240SOL    HW250262   7.249   1.136   5.251  0.7943  0.9323 -1.7578
16241SOL     OW50263   5.621   2.653   4.805  0.4462  0.3064  0.1610
16241SOL    HW150264   5.626   2.605   4.893  1.4936 -0.3579 -0.2691
16241SOL    HW250265   5.638   2.589   4.730 -0.7519  0.8104 -0.5572
16242SOL     OW50266   0.287   0.736   0.084 -0.5632 -0.3003  0.0117
16242SOL    HW150267   0.380   0.726   0.050 -0.2195 -0.2635  0.9120
16242SOL    HW250268   0.277   0.825   0.129 -1.2591  0.0254 -0.7798
16243SOL     OW50269   8.167   3.857   1.045 -0.7852 -0.2906  0.5676
16243SOL    HW150270   8.209   3.776   1.087  1.1703  0.4470  0.0975
16243SOL    HW250271   8.148   3.924   1.117 -0.4117 -0.3104  0.6894
16244SOL     OW50272   4.381   5.124   0.042 -0.0881 -0.9436  0.2016
16244SOL    HW150273   4.429   5.092   0.124  0.4727  0.7634  0.5593
16244SOL    HW250274   4.319   5.198   0.068 -0.4162 -0.8594 -0.8206
16245SOL     OW50275   9.995   1.632   4.664  0.0442  0.4347 -0.1886
16245SOL    HW150276  10.072   1.573   4.688 -0.3643  0.3756  1.0429
16245SOL    HW250277   9.975   1.623   4.567  0.6286 -0.7012 -0.2145
16246SOL     OW50278   7.008   9.759   3.284  0.1944 -0.4360 -0.2988
16246SOL    HW150279   7.033   9.841   3.233  0.2763 -0.3589 -0.1368
16246SOL    HW250280   7.050   9.679   3.240 -0.2843 -0.4477 -0.7378
16247SOL     OW50281   3.197   6.341   1.883 -0.1325  0.4405  0.1452
16247SOL    HW150282   3.194   6.367   1.980 -0.0966  0.6907  0.0781
16247SOL    HW250283   3.276   6.383   1.839  0.3912 -0.4505  0.2330
16248SOL     OW50284   7.412   1.077   5.547  0.5248  0.5058  0.1633
16248SOL    HW150285   7.340   1.049   5.611  0.6876  3.0198  1.5027
16248SOL    HW250286   7.371   1.100   5.458  0.0734 -1.1642 -0.0747
16249SOL     OW50287   5.773   1.204   6.249 -0.1090  0.5608 -0.5463
16249SOL    HW150288   5.799   1.109   6.267 -0.7919  0.4960  0.1706
16249SOL    HW250289   5.782   1.224   6.152  0.6712 -0.0427 -0.6011
16250SOL     OW50290   3.076   4.116   2.057  0.3865 -0.3526 -0.1201
16250SOL    HW150291   3.140   4.154   1.990 -0.0189 -0.9015 -0.8147
16250SOL    HW250292   2.987   4.161   2.048  0.0531 -1.1076 -0.5959
16251SOL     OW50293   3.441   6.400   3.237  0.3032  0.5450 -0.0001
16251SOL    HW150294   3.344   6.416   3.252  0.1551  1.2331 -1.6118
16251SOL    HW250295   3.455   6.305   3.208 -0.2735  1.2881 -2.8571
16252SOL     OW50296   2.030   5.580   5.287  0.4482  0.5193  0.0224
16252SOL    HW150297   1.957   5.608   5.224 -0.0520  0.3765  0.5386
16252SOL    HW250298   2.113   5.631   5.266  0.4553  0.0306 -1.1524
16253SOL     OW50299   9.037   3.089   4.778 -0.5733 -0.1631 -0.3878
16253SOL    HW150300   8.994   3.013   4.827 -2.8704  0.7156 -0.9611
16253SOL    HW250301   9.014   3.176   4.822  0.1577  0.3795 -1.0454
16254SOL     OW50302   3.541   2.717   5.159  0.1039 -0.3494 -0.2690
16254SOL    HW150303   3.591   2.632   5.174  1.1799  0.3473  0.2065
16254SOL    HW250304   3.453   2.697   5.117  0.2999 -1.7016 -0.0700
16256SOL     OW50305   3.153   9.155   2.582 -0.1131 -0.2064  0.1723
16256SOL    HW150306   3.139   9.251   2.605 -1.0193 -0.3965  0.4486
16256SOL    HW250307   3.127   9.098   2.661 -0.3967 -0.7181 -0.2851
16259SOL     OW50308   7.486   0.814   0.542 -0.1831 -0.3707 -0.1898
16259SOL    HW150309   7.437   0.895   0.508  1.5620  0.4985 -0.6505
16259SOL    HW250310   7.581   0.838   0.561  0.0293 -2.0123  0.8933
16260SOL     OW50311   1.539   4.250   1.368 -0.4513 -0.0785 -0.2141
16260SOL    HW150312   1.441   4.269   1.360 -0.6597 -0.9207  0.2669
16260SOL    HW250313   1.562   4.172   1.309 -0.6816 -1.9136  2.0318
16261SOL     OW50314   0.971   7.469   6.062  0.2860  0.2908  0.4968
16261SOL    HW150315   1.056   7.521   6.056  0.7213 -0.5988 -1.0852
16261SOL    HW250316   0.897   7.521   6.021  0.4798  0.1679 -0.0030
16262SOL     OW50317   0.201   3.157   0.366  0.0127 -0.3209 -0.4476
16262SOL    HW150318   0.112   3.111   0.361 -1.3547  2.1069  0.8337
16262SOL    HW250319   0.243   3.139   0.454  1.1091 -1.9871 -1.2930
16263SOL     OW50320   1.047   5.013   3.831  0.3771 -0.2920  0.1990
16263SOL    HW150321   1.097   5.074   3.891  0.0751  0.3116 -0.1537
16263SOL    HW250322   0.999   4.943   3.885 -0.9832  1.0587  0.7676
16264SOL     OW50323   8.954   2.590   4.487  0.0517  0.0661 -0.2985
16264SOL    HW150324   8.892   2.522   4.526  1.8652 -1.3394  0.1626
16264SOL    HW250325   9.037   2.545   4.454  0.7883  1.9142 -1.0205
16265SOL     OW50326   5.701   8.297   6.447  0.4632  0.1141 -0.6137
16265SOL    HW150327   5.651   8.267   6.528  0.4117  1.4333 -0.1422
16265SOL    HW250328   5.759   8.376   6.471 -0.2369  1.0959 -2.0556
16266SOL     OW50329   6.393   1.295   5.295  0.5422 -0.2285  0.1437
16266SOL    HW150330   6.462   1.275   5.225 -0.1939  0.5288 -0.8153
16266SOL    HW250331   6.329   1.218   5.302  0.9271 -0.5279  0.3560
16267SOL     OW50332   4.651   0.147   0.890  0.5984  0.1804  0.3425
16267SOL    HW150333   4.563   0.172   0.929  0.8610  1.2035  0.3037
16267SOL    HW250334   4.646   0.055   0.851 -0.5162  0.3311  0.1187
16269SOL     OW50335   4.501   4.209   2.611 -0.3872 -0.2736 -0.1120
16269SOL    HW150336   4.524   4.134   2.547  0.9179 -0.6528  0.7735
16269SOL    HW250337   4.524   4.296   2.568  0.8268 -0.5455 -0.0492
16270SOL     OW50338   2.645   8.224   4.936  0.6343 -0.1871 -0.6076
16270SOL    HW150339   2.621   8.321   4.928 -0.9802 -0.4719  0.5251
16270SOL    HW250340   2.580   8.170   4.882  1.0363 -0.7049 -0.5723
16271SOL     OW50341   0.349   7.178   4.344  0.2280 -0.2206  0.4922
16271SOL    HW150342   0.429   7.122   4.366 -0.1237 -0.6076  0.7914
16271SOL    HW250343   0.267   7.121   4.340  0.1300 -0.0108 -0.9415
16274SOL     OW50344   1.488   5.334   0.150 -0.0076  0.3193  0.0615
16274SOL    HW150345   1.483   5.256   0.088 -2.8236  1.7723 -1.6428
16274SOL    HW250346   1.469   5.304   0.244 -1.0878 -1.0278 -0.5781
16277SOL     OW50347   5.386   3.273   0.517  0.3914 -0.0108 -0.2658
16277SOL    HW150348   5.367   3.243   0.611  2.1874  0.9961  0.4488
16277SOL    HW250349   5.336   3.215   0.453 -0.4598 -1.0454  1.2924
16278SOL     OW50350   4.240   0.329   2.641 -0.4651 -0.6159  0.4233
16278SOL    HW150351   4.210   0.353   2.548  0.5035  0.8056  0.4649
16278SOL    HW250352   4.338   0.346   2.650 -0.9810  1.5709  2.4150
16279SOL     OW50353   8.237   8.321   2.752  0.2798 -0.1818 -0.1679
16279SOL    HW150354   8.286   8.294   2.669 -1.5243 -0.7477 -1.0858
16279SOL    HW250355   8.277   8.275   2.831  2.6082  1.0777 -0.5901
16280SOL     OW50356   4.708   7.162   1.599 -0.2410  0.3144 -0.1603
16280SOL    HW150357   4.610   7.159   1.623 -0.3919 -0.3920 -0.8390
16280SOL    HW250358   4.721   7.222   1.520  0.3521  3.2153  2.0469
16281SOL     OW50359   4.799   2.273   3.462 -0.1964  0.0505  0.0560
16281SOL    HW150360   4.735   2.349   3.472 -1.2131 -0.4390 -2.2658
16281SOL    HW250361   4.801   2.219   3.547 -2.7867  0.1664  0.2274
16285SOL     OW50362   1.723   3.814   3.208  0.0126 -0.0587  0.0215
16285SOL    HW150363   1.816   3.826   3.175 -0.3427  0.0527 -0.9626
16285SOL    HW250364   1.724   3.791   3.305  1.0018  1.3550  0.3505
16286SOL     OW50365   3.532   4.942   3.132  0.8211 -0.0915  0.2616
16286SOL    HW150366   3.444   4.943   3.086  1.3901  1.8923 -0.8251
16286SOL    HW250367   3.564   4.847   3.141  0.4912 -0.5931 -3.0659
16287SOL     OW50368   5.798   2.162   3.885  0.0127  0.0691  0.1649
16287SOL    HW150369   5.700   2.183   3.873 -0.2689 -1.2638  0.0553
16287SOL    HW250370   5.824   2.178   3.980 -0.4683 -0.2149  0.3465
16288SOL     OW50371   4.648   8.950   6.411 -0.3104  0.0924 -0.5857
16288SOL    HW150372   4.618   9.043   6.431  1.9073  0.7328 -0.0533
16288SOL    HW250373   4.631   8.892   6.491  1.2448  0.8234  0.3184
16289SOL     OW50374   0.627   0.752   4.953 -0.4149 -0.0300 -0.0455
16289SOL    HW150375   0.719   0.763   4.915  0.1411  0.2402  1.3705
16289SOL    HW250376   0.572   0.697   4.890  0.2785  0.9905 -1.5859
16290SOL     OW50377   1.791   4.543   4.755  0.0860 -0.8326  0.2310
16290SOL    HW150378   1.723   4.558   4.683  0.4663 -0.4047 -0.0400
16290SOL    HW250379   1.880   4.575   4.724  0.6177 -2.2986  0.2069
16291SOL     OW50380   8.890   2.758   1.094  0.5797 -0.3274 -0.3501
16291SOL    HW150381   8.889   2.770   1.194 -1.4779 -2.5848 -0.0766
16291SOL    HW250382   8.951   2.827   1.054 -2.3974  3.8927  1.9973
16292SOL     OW50383   9.901   3.913   4.257 -0.5482  0.0076 -0.3672
16292SOL    HW150384   9.955   3.984   4.212  1.3505 -0.9925  0.2685
16292SOL    HW250385   9.962   3.850   4.304 -2.3211 -0.8927  0.7836
16293SOL     OW50386   4.465   4.874   4.331  0.2029 -0.1110 -0.0782
16293SOL    HW150387   4.535   4.888   4.402  0.6346  1.4203 -0.7777
16293SOL    HW250388   4.487   4.792   4.278  0.0019 -1.1389  1.4031
16294SOL     OW50389   0.014   9.208   2.836  0.1121  0.0257  0.1836
16294SOL    HW150390   0.085   9.241   2.898  0.9064 -1.2871  0.0003
16294SOL    HW250391   0.056   9.173   2.753 -0.6793 -1.4443  0.3778
16295SOL     OW50392   6.329   8.538   4.205  0.2622  0.0548 -0.0713
16295SOL    HW150393   6.263   8.522   4.132  0.8044  0.3780 -0.6309
16295SOL    HW250394   6.341   8.454   4.258  0.3021 -0.3438 -0.7095
16296SOL     OW50395   5.820   4.217   0.538 -0.0415 -0.5882  0.1476
16296SOL    HW150396   5.868   4.154   0.478  0.3473  2.1944 -2.6095
16296SOL    HW250397   5.876   4.300   0.550 -1.4530  0.1295  1.9369
16297SOL     OW50398   2.355   5.657   1.531  0.7952 -0.3456 -0.0943
16297SOL    HW150399   2.311   5.690   1.447  0.1626  1.0235  0.7552
16297SOL    HW250400   2.293   5.593   1.578  0.5987 -0.0811  0.0060
16298SOL     OW50401   8.836   8.291   6.191  0.2188  0.1999  0.1550
16298SOL    HW150402   8.829   8.318   6.095 -0.9782 -0.4632  0.0516
16298SOL    HW250403   8.752   8.315   6.239  1.3838  1.8801  1.3963
16299SOL     OW50404   8.619   6.401   4.848  0.0825 -0.1010  0.0508
16299SOL    HW150405   8.689   6.348   4.800 -0.2995 -2.0199  1.5525
16299SOL    HW250406   8.644   6.410   4.944 -0.3932  1.5780  0.0419
16300SOL     OW50407   4.169   4.558   0.501  0.3007  0.1307  0.1256
16300SOL    HW150408   4.104   4.483   0.488 -1.6991  2.0454 -1.2385
16300SOL    HW250409   4.258   4.531   0.463 -0.9820 -0.7307 -2.4235
16302SOL     OW50410   5.203   3.506   4.305 -0.2315  0.4625  0.1397
16302SOL    HW150411   5.216   3.490   4.403  0.4145  2.0597  0.3227
16302SOL    HW250412   5.292   3.512   4.260 -0.5301 -0.3609 -0.5729
16303SOL     OW50413   8.162   6.341   5.212  0.4807  0.0386  0.2306
16303SOL    HW150414   8.243   6.397   5.230  1.7359 -1.0595 -1.8667
16303SOL    HW250415   8.125   6.363   5.122  0.3149 -1.6647 -0.1404
16304SOL     OW50416   0.440   6.244   1.307 -0.3169  0.1048 -0.3966
16304SOL    HW150417   0.343   6.266   1.298 -0.7568 -1.9480 -0.8627
16304SOL    HW250418   0.451   6.157   1.356  1.3590  1.1241  1.1163
16306SOL     OW50419   8.813   7.179   0.773  0.0690 -0.1021  0.6792
16306SOL    HW150420   8.845   7.183   0.868  1.2286  0.0198  0.2867
16306SOL    HW250421   8.859   7.104   0.726 -2.3222 -1.7393  0.8683
16307SOL     OW50422   2.499   2.783   3.960 -0.0560 -0.1681 -0.2420
16307SOL    HW150423   2.420   2.841   3.941 -1.0221 -1.7296 -1.0730
16307SOL    HW250424   2.483   2.732   4.045  0.4330  0.1387  0.0398
16309SOL     OW50425   6.639   9.688   2.102 -0.0457  0.0656  0.7139
16309SOL    HW150426   6.710   9.681   2.171 -0.1803  0.1012  0.8565
16309SOL    HW250427   6.560   9.632   2.128 -0.0079 -0.0961  0.4799
16310SOL     OW50428   8.611   9.909   1.786  0.1927  0.5501 -0.1043
16310SOL    HW150429   8.665   9.993   1.783  0.4115  0.3785 -1.0385
16310SOL    HW250430   8.526   9.923   1.735 -0.0177  0.3707  0.1962
16311SOL     OW50431   0.172   5.895   2.219 -0.6172  0.3527 -0.0949
16311SOL    HW150432   0.207   5.944   2.139 -0.3527  0.8255  0.3054
16311SOL    HW250433   0.170   5.797   2.200 -0.0459  0.4167 -0.4955
16312SOL     OW50434   0.037   3.321   0.566 -0.3782 -0.2069 -0.3014
16312SOL    HW150435   0.105   3.289   0.501  0.3101 -0.2191  0.4111
16312SOL    HW250436  -0.003   3.407   0.533  0.2357 -0.0161 -0.5610
16313SOL     OW50437   7.252   9.330   3.267 -0.0752 -0.2576  0.4098
16313SOL    HW150438   7.269   9.277   3.184 -0.8452 -0.3175  0.2863
16313SOL    HW250439   7.293   9.421   3.257  0.1607 -0.3928  0.1176
16314SOL     OW50440   6.951   1.165   1.080  0.7872  0.5293  0.2497
16314SOL    HW150441   7.004   1.230   1.025  0.8297  0.8132  0.6264
16314SOL    HW250442   7.012   1.093   1.114  0.6678  0.0543 -0.5067
16315SOL     OW50443   3.521   0.643   3.030 -0.3521 -0.0854  0.0840
16315SOL    HW150444   3.426   0.634   3.002 -1.0209  2.0077  1.5583
16315SOL    HW250445   3.526   0.673   3.125  1.8192 -1.9979  0.6341
16316SOL     OW50446   4.783   7.540   3.309  0.4111  0.4100  0.4035
16316SOL    HW150447   4.788   7.440   3.318 -1.0112  0.1614 -1.2227
16316SOL    HW250448   4.872   7.580   3.328  1.6233 -1.3861 -1.3256
16317SOL     OW50449   4.228   8.726   5.834 -0.5156  0.6774 -0.7958
16317SOL    HW150450   4.133   8.755   5.826 -0.5419  0.6436 -0.6190
16317SOL    HW250451   4.238   8.666   5.914  0.3191  3.4381  1.2582
16318SOL     OW50452   0.370   5.397   3.231  0.3472  0.0603  0.1101
16318SOL    HW150453   0.469   5.408   3.242  0.1650  0.1004  1.9713
16318SOL    HW250454   0.336   5.336   3.303 -0.7835 -1.0477 -1.3460
16319SOL     OW50455   6.845   8.440   5.068  0.2571 -0.0539 -0.1772
16319SOL    HW150456   6.812   8.345   5.068  2.2533 -0.7795 -0.0019
16319SOL    HW250457   6.913   8.451   4.996  1.7149  0.6288  1.2682
16320SOL     OW50458   7.154   8.892   4.150  0.9218  0.1695 -0.0007
16320SOL    HW150459   7.099   8.833   4.091  0.5805 -0.4028  0.8903
16320SOL    HW250460   7.093   8.955   4.199  1.1165 -0.0646  0.5384
16321SOL     OW50461   0.422   2.048   4.176  0.2325  0.3341 -0.4319
16321SOL    HW150462   0.468   1.961   4.189  0.6582  0.7823  1.1211
16321SOL    HW250463   0.478   2.108   4.119  1.8758  1.0953  1.9412
16322SOL     OW50464   3.703   9.098   6.085 -0.7165 -0.0659  0.7004
16322SOL    HW150465   3.780   9.148   6.124 -1.1186 -0.0288  1.4597
16322SOL    HW250466   3.621   9.114   6.141 -0.5140 -2.7241  1.8153
16323SOL     OW50467   3.266   8.280   5.631  0.2337 -0.5581  0.5506
16323SOL    HW150468   3.348   8.338   5.636 -0.3997  0.2233  2.3025
16323SOL    HW250469   3.212   8.292   5.715 -0.2370 -3.2277  0.6561
16324SOL     OW50470   8.758   8.672   0.001 -0.0393  0.3225 -0.8188
16324SOL    HW150471   8.766   8.695   0.098  2.2660  2.5719 -1.4763
16324SOL    HW250472   8.701   8.741  -0.044 -0.9356 -0.6050 -1.0990
16325SOL     OW50473   6.724   8.868   5.746 -0.4629  0.3913  0.0864
16325SOL    HW150474   6.770   8.827   5.825  0.9271 -1.5147 -1.6525
16325SOL    HW250475   6.661   8.801   5.705 -0.2213  0.9106 -1.1717
16327SOL     OW50476   0.962   1.622   1.545 -0.3172  0.0138 -0.5311
16327SOL    HW150477   0.879   1.647   1.495 -2.2039  0.6306  2.7791
16327SOL    HW250478   1.012   1.704   1.570  0.1114 -0.2403 -0.5501
16328SOL     OW50479   7.512   4.523   3.258  1.0790 -0.3535  0.0891
16328SOL    HW150480   7.456   4.605   3.243  2.0440  0.5552  1.4428
16328SOL    HW250481   7.458   4.442   3.232  0.0804  0.6726 -1.1615
16329SOL     OW50482   0.774   4.915   3.942  0.1067 -0.5174 -0.9003
16329SOL    HW150483   0.757   4.931   3.845  0.7014  0.2537 -0.8869
16329SOL    HW250484   0.787   5.003   3.988 -1.8153 -0.7847  0.1917
16331SOL     OW50485   6.809   0.434   1.803  0.0770  0.4633 -0.1128
16331SOL    HW150486   6.780   0.425   1.708 -0.3948  0.2803  0.0480
16331SOL    HW250487   6.729   0.437   1.863  0.3793  0.2791  0.3049
16332SOL     OW50488   9.354   7.884   2.608  0.2553 -0.0930 -0.0026
16332SOL    HW150489   9.287   7.833   2.555 -1.3726  1.5852  0.3747
16332SOL    HW250490   9.353   7.851   2.703 -0.2163  0.0658  0.0528
16334SOL     OW50491   0.088   2.111   1.153 -0.4400  0.6297 -0.2052
16334SOL    HW150492   0.130   2.198   1.182 -1.1715  0.5806  1.0352
16334SOL    HW250493  -0.011   2.121   1.152 -0.4453  0.7941 -3.3001
16336SOL     OW50494   2.659   4.992   3.703  0.5259  0.1742  0.5378
16336SOL    HW150495   2.680   5.088   3.717  0.2467  0.1009  1.5102
16336SOL    HW250496   2.743   4.938   3.704  0.5331  0.1658  2.0895
16338SOL     OW50497   0.794   2.347   5.222 -0.0421 -0.2734 -0.1956
16338SOL    HW150498   0.759   2.384   5.136  1.7990 -0.5114 -1.0785
16338SOL    HW250499   0.808   2.421   5.287 -2.6206 -0.2300  0.3658
16339SOL     OW50500   1.100   2.432   1.980 -0.3276 -0.1558 -0.1451
16339SOL    HW150501   1.059   2.437   2.071  1.1397 -0.1461  0.5319
16339SOL    HW250502   1.049   2.368   1.923 -0.5171 -1.0905  1.0696
16340SOL     OW50503   8.870   7.045   4.971  0.5910 -0.1676  0.5122
16340SOL    HW150504   8.804   6.977   4.940 -0.4382  0.3067  1.6535
16340SOL    HW250505   8.954   7.037   4.916  0.5389 -2.4259  0.7315
16341SOL     OW50506   1.194   5.941   0.995  0.1210 -0.1308  0.4129
16341SOL    HW150507   1.174   6.037   0.975 -2.4506 -0.3765  1.5643
16341SOL    HW250508   1.290   5.931   1.022  1.0625  1.6945 -2.0869
16342SOL     OW50509   0.458   1.184   5.019  0.3573 -0.0401 -0.1452
16342SOL    HW150510   0.487   1.097   5.060 -1.2014  0.3646  1.8636
16342SOL    HW250511   0.364   1.204   5.045  0.2878  1.6878 -1.5820
16344SOL     OW50512   6.232   9.479   5.473 -0.3146 -0.2702 -0.6670
16344SOL    HW150513   6.172   9.457   5.550 -0.4765 -0.6957 -0.9151
16344SOL    HW250514   6.249   9.396   5.419  0.1138 -0.0538 -0.8667
16345SOL     OW50515   3.679   0.729   0.667  0.3247 -0.5567 -0.3160
16345SOL    HW150516   3.721   0.804   0.718  1.3501 -0.8555 -0.7130
16345SOL    HW250517   3.584   0.718   0.697  0.1512  0.9177 -0.2726
16346SOL     OW50518   0.888   6.144   3.964  0.8513 -0.0676 -0.0004
16346SOL    HW150519   0.826   6.067   3.978  0.6479  0.0006 -0.4910
16346SOL    HW250520   0.835   6.224   3.934  1.2796 -0.2695 -1.3534
16347SOL     OW50521   2.525   3.970   1.069 -0.3961 -0.4465  0.1593
16347SOL    HW150522   2.582   3.970   1.151 -0.1130 -2.9244 -0.0018
16347SOL    HW250523   2.429   3.958   1.095 -0.4764  0.3067  0.2167
16348SOL     OW50524   8.027   6.167   2.593  0.2726 -0.8167 -0.4360
16348SOL    HW150525   8.074   6.223   2.661  0.9258  0.6639 -2.0360
16348SOL    HW250526   7.948   6.216   2.558 -0.3744 -1.7869 -0.3431
16349SOL     OW50527   3.209   0.473   1.306  0.1962  0.2547  0.2725
16349SOL    HW150528   3.161   0.408   1.248  1.4351  0.9010 -1.4956
16349SOL    HW250529   3.152   0.555   1.318  0.9878  1.2132 -2.1984
16351SOL     OW50530   4.869   0.305   1.571 -0.1861 -0.5245 -0.1382
16351SOL    HW150531   4.841   0.395   1.605  0.9331  0.3910 -1.5559
16351SOL    HW250532   4.789   0.257   1.535 -0.4756  0.7571 -1.2448
16352SOL     OW50533   2.931   5.809   0.633 -0.0127  0.6256  0.1107
16352SOL    HW150534   2.890   5.786   0.545 -0.6058 -1.7131  0.9883
16352SOL    HW250535   2.865   5.860   0.688 -1.1957 -1.6519  0.8558
16354SOL     OW50536   5.606   7.461   4.020  0.6820 -0.9360  1.1400
16354SOL    HW150537   5.701   7.454   4.051  1.4583 -0.2174 -0.9388
16354SOL    HW250538   5.593   7.403   3.940  0.8161  2.7649 -1.7211
16355SOL     OW50539   2.244   0.762   2.411  0.2910  0.0372  0.1228
16355SOL    HW150540   2.315   0.763   2.340 -1.7126 -0.1136 -1.9517
16355SOL    HW250541   2.281   0.722   2.495  2.2128 -1.5152 -1.4108
16356SOL     OW50542   6.347   8.566   6.357  0.5934  0.4159 -0.5323
16356SOL    HW150543   6.290   8.634   6.311  0.4079  0.1168 -0.7455
16356SOL    HW250544   6.418   8.534   6.294  1.3290  1.1727 -0.1044
16358SOL     OW50545   3.197   2.383   0.059 -0.5027  0.3789  0.1941
16358SOL    HW150546   3.291   2.401   0.089 -0.8888 -1.1304  2.4521
16358SOL    HW250547   3.140   2.462   0.083  0.0883  1.1062 -0.7626
16359SOL     OW50548   8.383   3.753   0.611 -0.6457 -0.2383 -0.4146
16359SOL    HW150549   8.391   3.653   0.602 -0.2808 -0.2048 -0.4773
16359SOL    HW250550   8.389   3.778   0.707  3.2430  0.0474 -0.6774
16360SOL     OW50551   3.118   4.830   5.266 -0.6219 -0.3884 -0.7116
16360SOL    HW150552   3.132   4.838   5.167 -0.8446 -1.3890 -0.8368
16360SOL    HW250553   3.174   4.754   5.300 -0.6399 -0.1213 -0.0925
16361SOL     OW50554   4.629   2.171   5.072 -0.3486  0.6916  0.3508
16361SOL    HW150555   4.581   2.214   4.995 -1.3641 -0.6629  0.2066
16361SOL    HW250556   4.644   2.074   5.052 -0.6306  0.3238  1.8648
16363SOL     OW50557   3.222   5.036   3.278  0.2583  0.7819 -0.0883
16363SOL    HW150558   3.232   5.037   3.179  2.4491  0.3911  0.1050
16363SOL    HW250559   3.261   4.952   3.315 -0.9645  0.7089  1.0792
16364SOL     OW50560   0.369   9.815   5.208  0.2189  0.5028  0.5381
16364SOL    HW150561   0.372   9.723   5.170  1.8919  0.5793  0.4513
16364SOL    HW250562   0.350   9.880   5.134 -0.7289  0.2612  0.5600
16365SOL     OW50563   3.956   3.264   3.717  0.2286 -0.8545  0.4734
16365SOL    HW150564   3.942   3.198   3.643  0.4277  1.4981 -1.7026
16365SOL    HW250565   3.875   3.266   3.775 -1.6772  0.3153 -2.1483
16366SOL     OW50566   6.347   5.061   1.440  0.4215 -0.0907 -0.8971
16366SOL    HW150567   6.386   5.084   1.529  0.4184  1.0553 -1.1891
16366SOL    HW250568   6.386   5.121   1.369 -0.1255 -0.4940 -1.5480
16367SOL     OW50569   1.674   5.000   4.154  0.4826 -0.1074 -0.8389
16367SOL    HW150570   1.652   4.915   4.107  0.8206 -0.2638 -0.7199
16367SOL    HW250571   1.760   4.989   4.204 -0.3825 -0.2690  0.6395
16368SOL     OW50572   8.783   4.361   0.915  0.3931  0.1054  0.2887
16368SOL    HW150573   8.765   4.351   0.817 -0.8069 -0.0093  0.5093
16368SOL    HW250574   8.822   4.452   0.933  0.1935  0.2948 -0.2341
16369SOL     OW50575   1.647   9.018   4.855  0.3378 -0.2852  0.9137
16369SOL    HW150576   1.589   8.941   4.882  0.7106 -1.3576 -1.2392
16369SOL    HW250577   1.589   9.095   4.827 -0.0389 -0.7281  0.4724
16371SOL     OW50578   7.639   0.098   1.670 -0.3926  0.2614 -0.2903
16371SOL    HW150579   7.623   0.002   1.648  2.4129 -0.1867 -0.6207
16371SOL    HW250580   7.648   0.108   1.770 -0.1855  0.0880 -0.2907
16372SOL     OW50581   6.807   0.513   3.525 -0.1334 -0.0282 -0.5881
16372SOL    HW150582   6.732   0.456   3.492 -0.3728 -0.2758  0.3884
16372SOL    HW250583   6.813   0.595   3.468 -0.7585 -0.2967 -1.0477
16374SOL     OW50584   5.472   9.250   3.602 -0.3697 -0.1385  0.3544
16374SOL    HW150585   5.395   9.311   3.586 -0.3450  0.0375  0.8728
16374SOL    HW250586   5.460   9.204   3.691 -0.1171 -0.4694  0.2177
16375SOL     OW50587   7.969   5.903   2.680 -0.7034  1.1500  0.2389
16375SOL    HW150588   7.968   5.993   2.636  0.9483  0.5234 -1.1369
16375SOL    HW250589   8.059   5.861   2.668 -1.6996 -1.0361  0.1560
16376SOL     OW50590   2.895   0.211   4.131  0.1678 -0.1505  0.1275
16376SOL    HW150591   2.814   0.158   4.104 -1.6998  1.7192  1.7859
16376SOL    HW250592   2.901   0.293   4.075 -0.1183  0.5956  1.1746
16377SOL     OW50593   0.874   7.647   5.143  0.1571  0.0787 -0.1194
16377SOL    HW150594   0.926   7.706   5.081 -0.2013  2.5755  1.8816
16377SOL    HW250595   0.923   7.638   5.229 -1.4985  0.4041  0.8860
16379SOL     OW50596   4.697   2.105   4.110 -0.0558 -0.2202  0.0636
16379SOL    HW150597   4.649   2.124   4.195 -0.3994  0.8451 -0.3580
16379SOL    HW250598   4.796   2.115   4.124 -0.0305 -1.3349  0.6591
16380SOL     OW50599   2.735   4.668   3.421  0.2699  0.1374  0.2846
16380SOL    HW150600   2.669   4.593   3.426 -1.3514  1.2838 -2.6938
16380SOL    HW250601   2.686   4.755   3.418  2.0415  1.1654  0.8997
16381SOL     OW50602   1.965   5.175   0.184 -0.4467 -0.2291  0.3087
16381SOL    HW150603   1.911   5.109   0.234  0.1358 -0.3563  0.7722
16381SOL    HW250604   1.971   5.260   0.236  0.3742 -0.4487  0.5791
16383SOL     OW50605   7.130   2.863   1.266  0.4880 -0.1804 -0.5175
16383SOL    HW150606   7.219   2.823   1.285  1.1043  1.7052  0.6920
16383SOL    HW250607   7.058   2.806   1.306  1.1928 -1.2540 -0.7782
16384SOL     OW50608   1.460   6.164   1.050  0.1722 -0.7799 -0.0832
16384SOL    HW150609   1.433   6.163   1.147  0.3299 -0.7384 -0.0376
16384SOL    HW250610   1.541   6.108   1.038  1.8703  1.4828  0.3404
16385SOL     OW50611   4.495   4.518   2.721 -0.1049  0.2954  0.3470
16385SOL    HW150612   4.562   4.449   2.747 -0.6625 -0.3948 -0.0243
16385SOL    HW250613   4.427   4.528   2.793  0.2266  0.7889  0.5978
16387SOL     OW50614   7.142   3.964   2.823 -0.4415  0.6331  0.2175
16387SOL    HW150615   7.157   3.890   2.888 -0.5776 -0.5380 -1.0603
16387SOL    HW250616   7.044   3.970   2.801 -0.3283  0.6316 -0.3105
16388SOL     OW50617   3.930   9.806   2.365 -0.1315  0.3069 -0.0318
16388SOL    HW150618   3.947   9.866   2.444  0.9282  0.4861 -0.3914
16388SOL    HW250619   3.841   9.761   2.376  0.3412 -0.2633  1.6567
16390SOL     OW50620   6.248   0.773   5.184  0.1951  0.0745 -0.0467
16390SOL    HW150621   6.198   0.767   5.270  0.6291  0.7509  0.2637
16390SOL    HW250622   6.290   0.685   5.163  2.1698  0.5528  1.7217
16391SOL     OW50623   5.754   1.634   4.442  0.0120 -0.0128  0.2580
16391SOL    HW150624   5.794   1.678   4.361 -2.3073 -2.0376 -2.0816
16391SOL    HW250625   5.677   1.687   4.475  1.1641  0.9920  1.4062
16394SOL     OW50626   1.711   1.303   2.884  0.3095  0.3120 -0.0929
16394SOL    HW150627   1.709   1.204   2.896 -0.5973  0.7879  4.4024
16394SOL    HW250628   1.627   1.333   2.838  0.8661 -1.0222 -2.0259
16395SOL     OW50629   3.020   0.794   0.681 -0.3826 -0.5511 -1.0164
16395SOL    HW150630   3.054   0.706   0.649 -0.5749 -0.0635 -2.6023
16395SOL    HW250631   2.937   0.818   0.630 -1.6236 -0.5084  0.9847
16396SOL     OW50632   8.673   8.616   3.394  0.1379 -0.3422  0.0812
16396SOL    HW150633   8.633   8.572   3.474 -0.5459 -1.3986 -0.8180
16396SOL    HW250634   8.769   8.589   3.385 -0.0822 -1.0811 -0.0620
16397SOL     OW50635   8.816   0.873   5.204 -0.4176 -0.0523 -0.2107
16397SOL    HW150636   8.758   0.916   5.135 -1.0473 -0.7197 -0.1037
16397SOL    HW250637   8.844   0.783   5.172  0.6620  0.3087 -0.3105
16398SOL     OW50638   0.279   5.767   5.203 -0.2390 -0.1048 -0.0410
16398SOL    HW150639   0.360   5.717   5.235 -0.8438 -0.2703  1.2963
16398SOL    HW250640   0.217   5.781   5.280 -0.7216  1.4906 -0.7043
16400SOL     OW50641   2.237   8.658   5.580  0.1605  0.2417  0.1106
16400SOL    HW150642   2.147   8.649   5.623  1.0614  0.7949  2.2036
16400SOL    HW250643   2.267   8.569   5.545 -0.1965 -0.4481  1.5161
16401SOL     OW50644   7.350   0.934   4.098 -0.6326  0.1017  0.2995
16401SOL    HW150645   7.368   0.848   4.146  0.5591  0.7283  1.0002
16401SOL    HW250646   7.304   0.998   4.160  0.7462  0.8451  0.5999
16402SOL     OW50647   6.117   3.326   1.007 -0.3065  0.2107  0.1473
16402SOL    HW150648   6.204   3.317   0.958 -0.8216 -2.3827 -0.3555
16402SOL    HW250649   6.135   3.356   1.101  0.9729  1.3773 -0.4429
16403SOL     OW50650   2.817   1.506   3.555 -0.0229  0.0458 -0.0158
16403SOL    HW150651   2.760   1.532   3.478  0.4643  0.5241 -0.2246
16403SOL    HW250652   2.766   1.517   3.640  0.1866  1.8146 -0.0888
16404SOL     OW50653   9.512   7.271   6.174  0.5137  0.2182 -0.5167
16404SOL    HW150654   9.539   7.180   6.142  0.5423 -0.2754  0.8703
16404SOL    HW250655   9.594   7.327   6.189  0.5250  0.2687 -0.7500
16405SOL     OW50656   9.286   2.468   0.809 -0.2275  0.0648 -0.3320
16405SOL    HW150657   9.218   2.469   0.883  0.7429  0.9487  0.5499
16405SOL    HW250658   9.279   2.553   0.756  0.0180  0.0478 -0.3929
16406SOL     OW50659   2.454   6.815   3.569  0.0086  0.0625 -0.2467
16406SOL    HW150660   2.412   6.906   3.577 -0.4509 -0.2656  1.2016
16406SOL    HW250661   2.446   6.784   3.474  2.2155  2.4917 -1.3068
16407SOL     OW50662   9.321   4.765   1.860 -0.6583 -0.3287  0.1918
16407SOL    HW150663   9.232   4.736   1.894 -0.8693 -0.6541 -0.6408
16407SOL    HW250664   9.371   4.685   1.825 -1.1261  0.2433 -1.8333
16408SOL     OW50665   7.608   1.254   5.619  0.0015  0.2470  0.4060
16408SOL    HW150666   7.606   1.274   5.717 -1.4349  0.0264  0.4290
16408SOL    HW250667   7.545   1.179   5.598 -0.2947  0.8117 -0.7917
16409SOL     OW50668   3.053   8.195   1.346  0.3202 -0.2060  0.0814
16409SOL    HW150669   3.044   8.172   1.249  0.3444  0.0862  0.0098
16409SOL    HW250670   3.106   8.279   1.356 -0.8394  0.5081  0.2780
16410SOL     OW50671   3.929   2.694   2.343  0.9824 -0.0985  0.1686
16410SOL    HW150672   3.834   2.691   2.313 -0.1000  1.3174  3.2348
16410SOL    HW250673   3.986   2.736   2.272 -0.9627  0.6005 -0.9929
16411SOL     OW50674   2.844   1.769   1.559 -0.0056 -0.0123 -0.4942
16411SOL    HW150675   2.787   1.851   1.560  0.2053  0.1498 -1.4764
16411SOL    HW250676   2.808   1.703   1.493  0.0080 -0.5914  0.0629
16412SOL     OW50677   0.469   2.443   4.507 -0.1429 -0.2323  0.6709
16412SOL    HW150678   0.374   2.417   4.493 -0.1870 -0.0232  0.5762
16412SOL    HW250679   0.473   2.520   4.571 -0.1397  0.7358 -0.4691
16414SOL     OW50680   1.517   2.483   6.243  0.2216  0.2035 -0.1911
16414SOL    HW150681   1.572   2.535   6.179  0.9663  0.7493  0.8822
16414SOL    HW250682   1.459   2.418   6.193 -0.7624  2.0852 -1.5349
16417SOL     OW50683   1.789   4.660   2.045  0.0217 -0.0024  0.1962
16417SOL    HW150684   1.707   4.607   2.065  0.0224  0.6597  2.1315
16417SOL    HW250685   1.843   4.615   1.974 -2.7343  0.3195 -2.1630
16418SOL     OW50686   6.772   2.509   0.155 -0.2721  0.2295 -0.3045
16418SOL    HW150687   6.759   2.429   0.213 -1.1151 -0.4060 -1.3458
16418SOL    HW250688   6.817   2.482   0.070  3.9592  1.6667  1.3459
16419SOL     OW50689   5.206   7.823   5.901  0.0459  0.1462 -0.5773
16419SOL    HW150690   5.181   7.846   5.807  1.3314  2.3944 -0.4056
16419SOL    HW250691   5.219   7.724   5.909 -0.4776 -0.1105 -2.6610
16421SOL     OW50692   2.964   7.248   5.630 -0.1278 -0.4536 -0.5052
16421SOL    HW150693   2.986   7.157   5.667 -1.8999 -0.7515 -0.1593
16421SOL    HW250694   2.896   7.239   5.557 -0.4594  0.6139 -0.3353
16423SOL     OW50695   5.264   9.416   3.527  0.6179 -0.2176 -0.0204
16423SOL    HW150696   5.257   9.507   3.486 -1.0591 -0.7164 -0.8871
16423SOL    HW250697   5.251   9.422   3.626 -3.0017  0.1172 -0.4405
16424SOL     OW50698   7.475   7.717   5.920 -0.0227  0.4688  0.4683
16424SOL    HW150699   7.482   7.695   5.822  0.8255  2.7035  0.0024
16424SOL    HW250700   7.465   7.632   5.972 -1.6391 -0.7101 -1.6393
16425SOL     OW50701   2.548   7.218   1.150 -0.5030 -0.1304 -0.2143
16425SOL    HW150702   2.565   7.289   1.218  2.1690 -0.1866 -0.7746
16425SOL    HW250703   2.484   7.253   1.081 -1.1539  0.8480  0.8739
16426SOL     OW50704   0.296   5.049   6.229  0.6295 -0.3537 -0.0205
16426SOL    HW150705   0.347   5.050   6.143  2.0684 -2.0976  0.7654
16426SOL    HW250706   0.202   5.020   6.212  0.3422  1.2982 -1.2745
16427SOL     OW50707   3.446   2.369   0.538 -0.3250 -0.1880  0.4833
16427SOL    HW150708   3.510   2.426   0.590 -0.9623  1.4043 -0.4480
16427SOL    HW250709   3.366   2.348   0.594 -0.8193  1.1771  0.3014
16428SOL     OW50710   8.030   5.950   6.110 -0.5247 -0.2120 -0.1991
16428SOL    HW150711   7.969   5.886   6.157 -0.9983  0.0901 -0.4013
16428SOL    HW250712   8.034   6.036   6.160 -0.0716 -0.3138 -0.0553
16429SOL     OW50713   1.553   9.447   3.907  0.3433 -0.0668 -0.2360
16429SOL    HW150714   1.498   9.415   3.985 -1.4984 -1.1032 -1.9181
16429SOL    HW250715   1.641   9.401   3.907  0.1106 -0.5250  0.8891
16430SOL     OW50716   9.773   3.547   1.840  0.0585 -0.1363  0.0406
16430SOL    HW150717   9.701   3.500   1.891  1.8751 -1.1999  1.6862
16430SOL    HW250718   9.812   3.620   1.896  1.8855 -1.1238  0.0803
16431SOL     OW50719   2.992   9.020   1.315 -0.1570 -0.8270 -0.4972
16431SOL    HW150720   3.011   8.978   1.403  2.6117 -0.1486 -0.7165
16431SOL    HW250721   3.066   9.083   1.291 -2.2161  1.0798 -2.0531
16432SOL     OW50722   3.468   5.390   2.665  0.3662  0.1135  0.0592
16432SOL    HW150723   3.471   5.488   2.683  1.8619 -0.1273  1.1891
16432SOL    HW250724   3.447   5.340   2.749 -0.4265 -0.5473 -0.5135
16434SOL     OW50725   3.639   2.824   2.269  0.2517  0.1184 -0.6428
16434SOL    HW150726   3.634   2.808   2.170  1.7001 -0.3662 -0.6570
16434SOL    HW250727   3.613   2.740   2.317 -2.1444  0.8813 -0.5821
16435SOL     OW50728   8.094   0.449   2.942 -0.1788 -0.0945  0.3164
16435SOL    HW150729   8.022   0.380   2.935 -0.4289  0.1315  0.6714
16435SOL    HW250730   8.066   0.532   2.895  0.3237 -0.3935 -0.5295
16437SOL     OW50731   9.265   8.165   1.766 -0.3239  0.1096 -0.4858
16437SOL    HW150732   9.276   8.239   1.833  1.7684 -0.6616  0.0746
16437SOL    HW250733   9.285   8.200   1.674 -2.5946  1.0204 -0.6673
16439SOL     OW50734   8.876   0.892   4.002  0.5419 -0.0192  0.2624
16439SOL    HW150735   8.956   0.946   4.028  0.2194  0.5637  0.0503
16439SOL    HW250736   8.903   0.822   3.936  0.3745  1.9529 -1.9300
16440SOL     OW50737   0.356   6.320   4.539  0.1255 -0.2896  0.2525
16440SOL    HW150738   0.312   6.260   4.472  0.0922  1.5080 -1.3882
16440SOL    HW250739   0.301   6.403   4.551  3.1789  2.2307 -2.2072
16441SOL     OW50740   4.434   5.794   1.662  0.0456  0.1909 -0.0036
16441SOL    HW150741   4.347   5.822   1.704  0.5089 -0.8006  1.6975
16441SOL    HW250742   4.488   5.743   1.729  2.2916  1.4564 -0.7966
16442SOL     OW50743   9.722   5.314   2.616 -0.7911 -0.2812 -0.0288
16442SOL    HW150744   9.676   5.348   2.698  0.7117 -0.4519  0.9105
16442SOL    HW250745   9.664   5.247   2.570 -1.8781  0.2217  0.5954
16445SOL     OW50746   6.322   5.158   0.968  0.1430  0.0034 -0.6752
16445SOL    HW150747   6.266   5.233   0.932  0.0810  0.1447 -0.2839
16445SOL    HW250748   6.387   5.130   0.898  0.9972  1.2532 -0.3986
16446SOL     OW50749   5.967   0.821   3.652 -0.9240 -0.0005  0.1421
16446SOL    HW150750   6.030   0.779   3.718  0.6803  1.0047 -0.6863
16446SOL    HW250751   5.981   0.779   3.562 -0.8031  0.8232 -0.2282
16448SOL     OW50752   7.875   6.725   5.256 -0.0901 -0.1966  0.1198
16448SOL    HW150753   7.829   6.810   5.280  1.3628  0.3399  1.0741
16448SOL    HW250754   7.896   6.674   5.340  1.5882 -0.1379 -0.2600
16449SOL     OW50755   1.791   6.212  -0.000 -0.3986  0.5585 -0.2118
16449SOL    HW150756   1.867   6.190  -0.063  0.3692 -0.2476  0.9722
16449SOL    HW250757   1.825   6.269   0.074 -1.4414  2.0173 -0.8421
16450SOL     OW50758   5.126   4.209   1.705 -0.0540  0.5447 -0.2551
16450SOL    HW150759   5.118   4.196   1.804  0.4893 -1.3920 -0.4512
16450SOL    HW250760   5.221   4.227   1.681 -0.3200  1.9099 -0.3469
16451SOL     OW50761   1.466   7.932   5.084  0.6705 -0.2211  0.5377
16451SOL    HW150762   1.441   8.024   5.115  0.6998  0.0972 -0.3778
16451SOL    HW250763   1.476   7.872   5.163 -0.9418  0.1701  1.0614
16453SOL     OW50764   1.544   8.533   1.016 -0.0559 -0.0287 -0.0388
16453SOL    HW150765   1.548   8.472   1.095  1.7055  0.7576  0.4978
16453SOL    HW250766   1.471   8.503   0.954 -0.0489 -1.9087  0.8381
16454SOL     OW50767   1.661   9.865   1.258 -0.1371  0.0397 -0.2758
16454SOL    HW150768   1.637   9.772   1.287 -1.6027  0.4060 -0.2970
16454SOL    HW250769   1.581   9.924   1.266  1.0087  1.4881  0.4700
16455SOL     OW50770   2.280   8.819   5.225 -0.1523 -0.3128 -0.0594
16455SOL    HW150771   2.247   8.880   5.297 -0.0352  2.6339 -2.4004
16455SOL    HW250772   2.379   8.813   5.229 -0.2708 -1.6143  1.1311
16456SOL     OW50773   2.384   6.467   3.868 -0.5627  0.5221 -0.2893
16456SOL    HW150774   2.446   6.497   3.795 -0.0521  0.5566  0.1518
16456SOL    HW250775   2.363   6.546   3.927 -1.1795  0.5519 -0.5514
16457SOL     OW50776   7.911   0.032   4.029  0.0498 -0.0418  0.0735
16457SOL    HW150777   7.962  -0.016   3.958 -0.8667  1.7148 -1.8321
16457SOL    HW250778   7.974   0.064   4.100  1.6759  2.1947 -2.2899
16458SOL     OW50779   7.881   2.648   0.409 -0.3503 -0.6560  0.3047
16458SOL    HW150780   7.891   2.644   0.309 -4.3589 -2.0234 -0.1144
16458SOL    HW250781   7.916   2.563   0.449  1.3752 -0.0568  0.1117
16459SOL     OW50782   9.078   3.724   4.114  0.2583 -0.3379  0.0999
16459SOL    HW150783   9.089   3.823   4.125  3.3449 -0.4052 -1.9183
16459SOL    HW250784   9.091   3.679   4.202 -1.6186  1.0607  1.1220
16460SOL     OW50785   4.192   2.418   3.280  0.7262  0.3783  0.3506
16460SOL    HW150786   4.151   2.358   3.210  0.0980  0.6969  0.4414
16460SOL    HW250787   4.253   2.364   3.338  0.7125 -0.0323 -0.0150
16461SOL     OW50788   7.086   5.199   0.850 -0.1583  0.0412 -0.3280
16461SOL    HW150789   7.091   5.188   0.949  0.1436  0.6904 -0.2688
16461SOL    HW250790   7.150   5.270   0.821  1.7724 -2.0645 -1.3083
16462SOL     OW50791   0.806   2.590   5.394 -0.0396 -0.0273  0.6778
16462SOL    HW150792   0.875   2.652   5.431 -1.2283  2.3174 -0.8792
16462SOL    HW250793   0.758   2.635   5.318 -1.6044 -2.5156  0.1223
16463SOL     OW50794   5.679   4.527   1.596  0.4643  0.2075  0.5769
16463SOL    HW150795   5.705   4.433   1.617  1.4861  0.5407  0.7996
16463SOL    HW250796   5.693   4.585   1.677  1.2998  0.8449 -0.0131
16464SOL     OW50797   7.380   8.934   4.957  0.0200 -0.4102 -0.1344
16464SOL    HW150798   7.411   9.029   4.966  0.3649 -0.5186 -0.1533
16464SOL    HW250799   7.421   8.894   4.875 -2.0505  0.1568 -1.4823
16465SOL     OW50800   0.380   2.455   0.038  0.0398 -0.3292 -0.0240
16465SOL    HW150801   0.441   2.385   0.000  1.7529  0.5402  1.0733
16465SOL    HW250802   0.370   2.529  -0.028 -0.4286 -0.8220 -0.5081
16466SOL     OW50803   4.030   3.103   1.116  0.0722 -0.7292  0.3235
16466SOL    HW150804   4.005   3.110   1.213 -0.0394 -1.2777  0.3368
16466SOL    HW250805   3.977   3.168   1.063  1.8934  1.3281  0.9453
16467SOL     OW50806   6.073   8.495   3.342 -0.1948 -0.4164  0.6260
16467SOL    HW150807   6.106   8.467   3.432 -0.1124  0.4074  0.8572
16467SOL    HW250808   5.974   8.487   3.339 -0.2317 -0.0849  0.9181
16468SOL     OW50809   3.137   8.474   5.999 -0.0007  0.1347  0.2160
16468SOL    HW150810   3.113   8.393   5.946  0.3460  0.0434  0.2020
16468SOL    HW250811   3.172   8.545   5.938  0.9299 -0.1706  0.3877
16469SOL     OW50812   7.546   2.187   5.956  0.0309 -0.0323  0.0691
16469SOL    HW150813   7.468   2.245   5.980 -0.3807 -0.9871  1.0984
16469SOL    HW250814   7.623   2.207   6.017  1.1529  2.0020 -1.9280
16470SOL     OW50815   8.448   8.310   3.927 -0.1483  0.0512  0.4840
16470SOL    HW150816   8.542   8.286   3.904 -0.1620 -1.2118  1.6882
16470SOL    HW250817   8.385   8.258   3.870 -0.1252  0.3930  0.1464
16472SOL     OW50818   9.071   2.975   1.660  0.4290 -0.0336 -0.2538
16472SOL    HW150819   8.994   2.993   1.721 -1.2302  0.0273 -2.3205
16472SOL    HW250820   9.141   3.045   1.673  0.5650 -0.6055  2.2852
16473SOL     OW50821   9.446   9.367   1.767  0.6757 -0.5998  0.1239
16473SOL    HW150822   9.446   9.428   1.847  0.3674 -0.1342 -0.2324
16473SOL    HW250823   9.465   9.273   1.797 -0.5843 -0.6259  0.9094
16474SOL     OW50824   8.421   1.216   4.759  0.1052 -0.0266 -0.9033
16474SOL    HW150825   8.520   1.205   4.765 -0.0980 -1.6784 -0.3658
16474SOL    HW250826   8.387   1.253   4.846  0.1416 -0.4129 -0.7207
16476SOL     OW50827   0.044   3.484   2.621  0.6126  0.0252 -0.1580
16476SOL    HW150828   0.048   3.578   2.655 -1.0122  1.0118 -2.5803
16476SOL    HW250829  -0.048   3.447   2.635  1.1471 -1.1044  0.4616
16477SOL     OW50830   4.536   1.348   2.601 -0.7434 -0.0707 -0.4663
16477SOL    HW150831   4.522   1.419   2.670 -2.1312  0.8361 -1.6671
16477SOL    HW250832   4.530   1.258   2.645 -0.3186  0.5116  0.8121
16479SOL     OW50833   9.244   2.150   0.228  0.3385  0.0555  0.2890
16479SOL    HW150834   9.237   2.077   0.160  1.2183 -0.2649  0.5444
16479SOL    HW250835   9.163   2.209   0.221  0.5349  0.1600 -1.1939
16480SOL     OW50836   4.872   0.419   3.694 -0.1164  0.2187  0.1817
16480SOL    HW150837   4.953   0.476   3.683  1.9289 -2.8844 -1.5070
16480SOL    HW250838   4.899   0.325   3.712 -3.3980 -0.6100  1.2566
16481SOL     OW50839   9.187   7.239   0.086 -0.2121 -0.1790 -0.8384
16481SOL    HW150840   9.235   7.256   0.000  0.2728 -2.7063 -1.1095
16481SOL    HW250841   9.127   7.160   0.075 -0.5789 -0.1741  0.9987
16482SOL     OW50842   1.537   4.349   3.723 -0.0262 -0.8210 -0.1616
16482SOL    HW150843   1.463   4.314   3.664  0.8116 -0.6692 -1.3150
16482SOL    HW250844   1.529   4.308   3.814 -1.7872 -0.4861 -0.1496
16484SOL     OW50845   5.581   8.732   2.968 -0.9118 -0.5135  0.1091
16484SOL    HW150846   5.551   8.713   2.875 -0.5962 -1.0329  0.1145
16484SOL    HW250847   5.586   8.647   3.021 -2.3201 -0.0795  0.9821
16485SOL     OW50848   9.622   2.366   1.390 -0.0837 -0.0379  0.1906
16485SOL    HW150849   9.576   2.340   1.475 -0.5454  0.8580  0.2278
16485SOL    HW250850   9.553   2.380   1.319  0.1944  0.5560  0.0383
16486SOL     OW50851   8.098   8.913   1.620  0.4019  0.0081  0.3444
16486SOL    HW150852   8.013   8.903   1.569 -1.0960 -0.2090  2.8217
16486SOL    HW250853   8.105   9.007   1.654  0.5916 -0.2950  1.1384
16488SOL     OW50854   9.979   8.427   5.957  0.2172  0.7955 -0.1097
16488SOL    HW150855   9.934   8.363   6.019  1.6429  0.3529  0.4989
16488SOL    HW250856   9.923   8.509   5.946 -0.6132  0.3565  0.8077
16489SOL     OW50857   4.929   8.321   5.830 -0.4236  0.4243 -0.7230
16489SOL    HW150858   4.941   8.406   5.778  0.9268  1.1971  0.7883
16489SOL    HW250859   4.835   8.316   5.864 -0.2911  1.7231 -0.1409
16490SOL     OW50860   1.353   3.395   6.170  0.1897 -0.1303  0.4200
16490SOL    HW150861   1.400   3.396   6.258 -1.6573  0.5370  1.4205
16490SOL    HW250862   1.355   3.487   6.131  2.3291 -0.7402 -0.9805
16491SOL     OW50863   4.091   5.463   0.974 -0.6054 -0.1677  0.1916
16491SOL    HW150864   4.034   5.384   0.954 -0.9634  0.3345 -0.8186
16491SOL    HW250865   4.185   5.445   0.947 -0.4260 -0.7099  1.1440
16492SOL     OW50866   0.475   5.236   5.294 -0.1632 -0.9765 -0.4365
16492SOL    HW150867   0.507   5.235   5.200  1.4346 -0.6099  0.0964
16492SOL    HW250868   0.551   5.258   5.355 -1.3343 -0.5150  0.8781
16494SOL     OW50869   0.621   6.578   5.796 -0.3345  0.1864 -0.1658
16494SOL    HW150870   0.555   6.507   5.820  1.0497 -2.1176 -2.8761
16494SOL    HW250871   0.693   6.581   5.866 -0.6677 -0.7729  0.2353
16495SOL     OW50872   6.675   0.663   3.232 -0.1017 -0.1511 -0.6314
16495SOL    HW150873   6.700   0.714   3.314  1.6207 -1.3567 -0.3763
16495SOL    HW250874   6.595   0.606   3.251  1.1866 -1.5608  0.6821
16496SOL     OW50875   1.787   3.205   1.037  0.2589 -0.6717  0.3501
16496SOL    HW150876   1.875   3.160   1.051  0.4916 -0.3313 -0.0222
16496SOL    HW250877   1.713   3.145   1.069  0.5166 -1.6138 -0.8186
16497SOL     OW50878   3.799   9.065   4.557 -0.0347 -0.1486 -0.5011
16497SOL    HW150879   3.759   9.157   4.550 -0.4078 -0.3149 -0.5569
16497SOL    HW250880   3.878   9.068   4.619 -1.7161 -0.3460  1.7231
16498SOL     OW50881   1.534   7.123   3.719  0.1659 -0.9372 -0.3342
16498SOL    HW150882   1.488   7.074   3.644 -0.3471  0.2583 -0.8070
16498SOL    HW250883   1.477   7.119   3.801  0.0299 -0.9650 -0.4295
16499SOL     OW50884   8.813   1.064   3.291  0.2025  0.0082  0.0387
16499SOL    HW150885   8.902   1.021   3.279 -0.1047 -0.5476 -0.3002
16499SOL    HW250886   8.776   1.090   3.201  1.0745  2.4113  0.3461
16500SOL     OW50887   5.909   0.042   2.905  0.3906  0.1977 -0.1665
16500SOL    HW150888   5.823   0.074   2.944 -0.4362 -1.7691 -0.3241
16500SOL    HW250889   5.911   0.063   2.807  0.0513  0.1416 -0.1846
16501SOL     OW50890   0.010   8.136   1.925 -0.0062 -0.1323 -1.1109
16501SOL    HW150891   0.094   8.149   1.872  1.8572 -1.7309  1.2759
16501SOL    HW250892  -0.045   8.063   1.883  1.0122 -0.7790 -1.3525
16502SOL     OW50893   7.767   3.261   3.781 -0.8517 -0.1355 -0.4064
16502SOL    HW150894   7.679   3.280   3.823  0.0249 -0.1396  1.4979
16502SOL    HW250895   7.816   3.193   3.836  0.9099  0.8986 -0.6740
16503SOL     OW50896   8.808   4.949   0.890 -0.2312 -0.2426 -0.8783
16503SOL    HW150897   8.798   4.850   0.897  1.5966 -0.4672 -1.2251
16503SOL    HW250898   8.761   4.982   0.809  2.0135 -1.2999 -2.6807
16505SOL     OW50899   7.927   4.121   2.935 -0.0326  0.1977 -0.3614
16505SOL    HW150900   7.892   4.111   3.028 -0.0255 -0.0642 -0.3893
16505SOL    HW250901   7.857   4.093   2.870  0.0862  0.0563 -0.4278
16507SOL     OW50902   2.697   8.176   3.233  0.0861  0.0926 -0.1023
16507SOL    HW150903   2.762   8.117   3.282 -0.8716  0.7895  2.0566
16507SOL    HW250904   2.748   8.241   3.177  1.2013 -1.1054 -0.5181
16508SOL     OW50905   9.401   4.675   2.627 -0.0951 -0.1630 -0.2486
16508SOL    HW150906   9.308   4.663   2.662 -1.3523  2.9321 -2.3065
16508SOL    HW250907   9.405   4.647   2.532  0.0891  3.0914 -1.2703
16509SOL     OW50908   2.390   7.910   0.134 -0.2122  0.4077  0.0866
16509SOL    HW150909   2.373   7.996   0.086  0.3201 -0.6006 -1.9560
16509SOL    HW250910   2.319   7.844   0.109 -0.1269 -0.0227  0.9808
16510SOL     OW50911   3.563   4.151   3.736 -0.0964  0.2835 -0.2236
16510SOL    HW150912   3.606   4.241   3.734  0.5603 -0.0291 -0.6014
16510SOL    HW250913   3.628   4.083   3.701 -0.9357 -0.1853 -0.8945
16511SOL     OW50914   7.202   9.497   6.138 -0.8846 -0.4056 -0.2644
16511SOL    HW150915   7.117   9.449   6.159 -0.9701 -0.2662 -0.2965
16511SOL    HW250916   7.184   9.594   6.127 -0.9184 -0.5391 -1.4405
16512SOL     OW50917   9.298   9.097   6.346  0.1015 -0.1763  0.7336
16512SOL    HW150918   9.203   9.071   6.366  0.1376 -1.5455 -0.7993
16512SOL    HW250919   9.346   9.019   6.305  1.5357  0.9005  0.3424
16514SOL     OW50920   4.875   7.928   5.238  0.4133  0.4461  0.0467
16514SOL    HW150921   4.831   7.986   5.169  0.8310 -0.7424 -1.2300
16514SOL    HW250922   4.913   7.847   5.194  3.0504  0.9782  1.2662
16516SOL     OW50923   5.886   0.961   6.275  0.1519 -0.0927  0.4689
16516SOL    HW150924   5.922   0.883   6.327 -2.2315 -1.5495  0.0210
16516SOL    HW250925   5.884   0.938   6.178 -1.1611  0.2815  0.4010
16519SOL     OW50926   0.160   1.198   5.055  0.1988 -0.1252 -0.1988
16519SOL    HW150927   0.087   1.214   4.988 -1.0676  0.5554  1.3110
16519SOL    HW250928   0.119   1.182   5.145  1.8963 -0.6293  0.4961
16520SOL     OW50929   3.632   1.061   2.196 -0.3731  1.2290  0.5076
16520SOL    HW150930   3.718   1.060   2.145 -0.3685  0.1477  0.5084
16520SOL    HW250931   3.581   0.977   2.176 -0.9604  1.3957  1.2868
16521SOL     OW50932   8.110   0.803   0.911 -0.4163  0.2057  0.2832
16521SOL    HW150933   8.048   0.754   0.850 -0.4740  0.8714 -0.2046
16521SOL    HW250934   8.061   0.878   0.955  0.2562  1.2950 -0.7909
16522SOL     OW50935   4.827   0.793   2.961 -0.0219 -0.2527  0.4917
16522SOL    HW150936   4.776   0.756   2.884 -1.3855  0.2801  1.1377
16522SOL    HW250937   4.818   0.893   2.963  1.3246 -0.1070  0.4220
16523SOL     OW50938   4.043   7.085   4.009 -0.1190  0.4707 -0.1816
16523SOL    HW150939   3.984   7.004   4.003  1.4143 -0.7751  0.9451
16523SOL    HW250940   4.128   7.067   3.960  1.2345  0.4546  2.1161
16524SOL     OW50941   9.155   6.092   6.267  0.1447  0.4754  0.1106
16524SOL    HW150942   9.163   5.999   6.305  0.4983  1.0588  1.4811
16524SOL    HW250943   9.059   6.110   6.244  0.1795 -0.4912 -0.8524
16525SOL     OW50944   4.355   0.148   5.867 -0.1078  0.2853 -0.0249
16525SOL    HW150945   4.303   0.162   5.951 -0.7223 -2.7878  0.1799
16525SOL    HW250946   4.450   0.177   5.880 -0.2525 -0.0028  1.6745
16526SOL     OW50947   9.285   2.008   2.048 -0.2770  0.2348  0.2629
16526SOL    HW150948   9.362   2.066   2.021  0.2236 -0.1273  0.8942
16526SOL    HW250949   9.221   2.061   2.103 -0.0809  0.3199  0.4056
16527SOL     OW50950   2.084   7.731   4.535 -0.2592  0.2977 -0.3294
16527SOL    HW150951   2.054   7.669   4.608 -0.4302  1.0360  0.2287
16527SOL    HW250952   2.060   7.692   4.446 -0.1151 -0.5728  0.0085
16528SOL     OW50953   3.336   3.251   5.393  0.0657 -0.1187  0.1049
16528SOL    HW150954   3.344   3.309   5.473  1.8229  1.5392 -1.2392
16528SOL    HW250955   3.394   3.170   5.404 -0.0607 -0.1280  0.7002
16529SOL     OW50956   5.371   0.798   1.409 -0.2215 -0.0078  0.1493
16529SOL    HW150957   5.271   0.800   1.413 -0.2437  2.6337 -0.9449
16529SOL    HW250958   5.405   0.730   1.473 -2.5970  1.0235  2.6162
16530SOL     OW50959   2.341   3.556   2.722  0.0220  0.3090  0.3379
16530SOL    HW150960   2.379   3.558   2.815 -1.4277  0.6860  0.9282
16530SOL    HW250961   2.319   3.462   2.697  1.7203  0.0184 -0.1881
16531SOL     OW50962   4.699   0.176   4.408  0.1671 -0.4634  0.2547
16531SOL    HW150963   4.753   0.254   4.376  1.6111 -1.2967  0.5871
16531SOL    HW250964   4.605   0.184   4.375  0.2438  1.5334  0.5009
16532SOL     OW50965   8.067   6.152   0.670 -0.5528  0.1000 -0.1995
16532SOL    HW150966   8.154   6.157   0.621 -0.8677  0.1706 -0.7535
16532SOL    HW250967   8.041   6.056   0.683 -0.5414  0.0833 -0.2988
16533SOL     OW50968   0.234   2.591   2.000 -0.2957 -0.5524 -0.3111
16533SOL    HW150969   0.192   2.656   2.063  0.9962 -0.4461  0.4671
16533SOL    HW250970   0.238   2.501   2.043 -0.2249 -0.6830 -0.5916
16534SOL     OW50971   2.125   3.593   3.901  0.0513 -0.0316 -0.1659
16534SOL    HW150972   2.223   3.615   3.898  0.0635  0.0742  0.7824
16534SOL    HW250973   2.090   3.609   3.993 -0.4500 -1.9030 -0.0137
16535SOL     OW50974   1.779   3.892   3.943 -0.1026 -0.5137 -0.3701
16535SOL    HW150975   1.730   3.969   3.984 -0.0053 -1.5517  1.7945
16535SOL    HW250976   1.738   3.807   3.974  2.8993 -1.4041  1.3366
16536SOL     OW50977   9.121   4.330   3.729  0.0393 -0.3417  0.0817
16536SOL    HW150978   9.030   4.351   3.763  0.6231  2.7022 -0.1681
16536SOL    HW250979   9.173   4.283   3.801 -1.2264 -0.8138  0.7124
16538SOL     OW50980   9.230   3.001   2.431 -0.1861 -0.2701  0.1572
16538SOL    HW150981   9.138   2.979   2.400  0.7957 -1.3466 -2.0962
16538SOL    HW250982   9.283   2.917   2.441  0.8426  0.4110  0.5185
16539SOL     OW50983   1.208   7.026   5.206 -0.3397 -0.0004 -0.5438
16539SOL    HW150984   1.144   7.026   5.283 -0.8990  1.1339 -0.9992
16539SOL    HW250985   1.189   6.947   5.147  0.2270 -0.9934  0.5831
16540SOL     OW50986   4.993   0.744   5.865 -0.4489 -0.3352 -0.5276
16540SOL    HW150987   4.984   0.648   5.838  2.0349 -0.5438 -0.7614
16540SOL    HW250988   4.942   0.759   5.950 -0.4321 -2.0166 -0.1879
16541SOL     OW50989   1.610   5.447   5.343  0.0967  0.3291  0.3002
16541SOL    HW150990   1.690   5.394   5.372  0.9910  1.3015 -0.3898
16541SOL    HW250991   1.538   5.438   5.412  0.4473 -1.3209  0.4713
16543SOL     OW50992   8.875   4.018   5.600  0.2728  0.3305  0.4549
16543SOL    HW150993   8.934   4.089   5.562  0.1636  0.1015 -0.1472
16543SOL    HW250994   8.913   3.928   5.580  0.2365  0.2067  0.9314
16545SOL     OW50995   3.575   7.500   5.063  0.0426  0.2989  0.4442
16545SOL    HW150996   3.621   7.463   4.982 -1.7812  1.1310 -1.0055
16545SOL    HW250997   3.633   7.572   5.104  1.0377 -0.2227 -0.0233
16546SOL     OW50998   8.636   2.794   5.980  0.2667 -0.5369 -0.1802
16546SOL    HW150999   8.637   2.848   5.895  5.4374  0.4473  0.3789
16546SOL    HW251000   8.672   2.702   5.961  0.6755 -0.5754  0.7985
16547SOL     OW51001   7.763   5.246   0.068  0.4882  0.1850  0.1810
16547SOL    HW151002   7.841   5.183   0.059  0.5949  0.1483  1.2952
16547SOL    HW251003   7.683   5.196   0.101  0.2451  0.4104 -0.0611
16549SOL     OW51004   2.463   2.764   0.707  0.2667 -0.1781 -0.0869
16549SOL    HW151005   2.389   2.824   0.737  0.7467  0.6507 -0.5365
16549SOL    HW251006   2.504   2.800   0.623  0.7343 -0.9946 -0.2192
16550SOL     OW51007   0.436   3.671   2.346  0.2261  0.0532 -0.0661
16550SOL    HW151008   0.450   3.752   2.289 -0.9019  0.1479 -0.2184
16550SOL    HW251009   0.488   3.594   2.308  1.3218  0.7087  0.0953
16551SOL     OW51010   1.690   5.560   3.061 -0.1513 -0.2745  0.1769
16551SOL    HW151011   1.785   5.543   3.085  0.2289  0.4598 -0.7806
16551SOL    HW251012   1.653   5.630   3.122  0.5875  1.0327 -0.8410
16552SOL     OW51013   9.187   7.208   3.518  0.2206 -0.3250 -0.0349
16552SOL    HW151014   9.118   7.224   3.589  0.5176  0.3609  0.1020
16552SOL    HW251015   9.278   7.213   3.559  0.3973  0.2108 -0.4899
16554SOL     OW51016   2.628   2.561   3.875  0.2374  0.8264  0.0403
16554SOL    HW151017   2.573   2.478   3.873  1.3004  0.1061  0.6613
16554SOL    HW251018   2.569   2.639   3.896 -1.0825  0.5081 -2.3540
16556SOL     OW51019   9.626   1.304   5.334 -0.6519 -0.0994 -0.0432
16556SOL    HW151020   9.568   1.255   5.268  0.7690 -0.3128 -1.1660
16556SOL    HW251021   9.612   1.402   5.324  0.3870 -0.0721 -1.4962
16558SOL     OW51022   8.207   6.202   1.129  0.0117 -0.4904 -0.0545
16558SOL    HW151023   8.167   6.288   1.097 -0.6128 -0.8054 -0.1460
16558SOL    HW251024   8.268   6.165   1.058 -0.8505 -0.8486 -0.6299
16559SOL     OW51025   2.028   1.429   1.415  0.6271 -0.5330  0.3183
16559SOL    HW151026   1.986   1.348   1.374  1.5942 -1.1315  0.5221
16559SOL    HW251027   2.119   1.443   1.377  0.7773  0.0095  0.8687
16560SOL     OW51028   6.556   8.597   5.859  0.1600 -0.1928 -0.3397
16560SOL    HW151029   6.544   8.502   5.888  0.4463  0.3088  1.4694
16560SOL    HW251030   6.590   8.599   5.765  0.8411 -1.9052 -0.1424
16561SOL     OW51031   2.834   5.064   4.371  0.5502 -0.3385  0.1651
16561SOL    HW151032   2.851   4.995   4.442  0.5419 -0.8253 -0.3051
16561SOL    HW251033   2.828   5.019   4.282 -1.1331  0.0684  0.0641
16562SOL     OW51034   2.489   1.271   1.700  0.3296 -0.4613  0.1605
16562SOL    HW151035   2.527   1.341   1.639  0.5139 -1.4791 -0.9086
16562SOL    HW251036   2.389   1.274   1.695  0.3176  0.2374  0.7120
16564SOL     OW51037   7.378   2.351   0.841  0.1741 -0.0640  0.7066
16564SOL    HW151038   7.426   2.428   0.798 -0.3613  0.3853  0.9117
16564SOL    HW251039   7.441   2.273   0.850  0.4445  0.0268 -0.3755
16565SOL     OW51040   3.578   9.745   2.146  0.0282 -0.3909 -0.4077
16565SOL    HW151041   3.537   9.833   2.172 -2.2725 -1.3480 -0.7143
16565SOL    HW251042   3.653   9.724   2.208  0.6708  1.8379 -0.3878
16566SOL     OW51043   7.860   8.411   3.549  0.4053  0.6688 -0.0956
16566SOL    HW151044   7.848   8.509   3.560 -2.2788  0.3466  0.0452
16566SOL    HW251045   7.808   8.363   3.620  0.1399 -0.9049 -1.3365
16567SOL     OW51046   2.143   1.798   1.471 -0.1344  0.3846  0.2278
16567SOL    HW151047   2.061   1.759   1.429 -0.4820  0.2918  0.9869
16567SOL    HW251048   2.225   1.762   1.426 -0.5472  3.0990 -2.8737
16570SOL     OW51049   8.451   4.687   1.106 -0.4833  0.7096 -0.2904
16570SOL    HW151050   8.451   4.590   1.131 -0.3382  1.0276  0.9589
16570SOL    HW251051   8.401   4.699   1.020 -0.8247 -0.4181 -0.2585
16572SOL     OW51052   1.490   5.113   6.278  0.3427 -0.5729 -0.0807
16572SOL    HW151053   1.505   5.145   6.372  2.8566 -1.3473 -0.1924
16572SOL    HW251054   1.395   5.134   6.251 -0.3550 -0.1450  2.5245
16573SOL     OW51055   4.033   5.422   0.427  0.5756 -0.5593  0.0145
16573SOL    HW151056   4.120   5.445   0.471  0.9728 -0.6276 -0.7235
16573SOL    HW251057   4.033   5.325   0.403 -0.4133 -0.9603  1.5937
16575SOL     OW51058   4.540   6.904   3.916  0.2573  0.1240 -0.0449
16575SOL    HW151059   4.590   6.986   3.892 -0.0763  0.2709 -0.2383
16575SOL    HW251060   4.484   6.874   3.839  0.1792 -0.1371  0.1101
16576SOL     OW51061   5.293   2.103   5.433  0.1436 -0.3932 -0.1812
16576SOL    HW151062   5.219   2.163   5.464 -0.1285 -1.3311  0.9947
16576SOL    HW251063   5.277   2.077   5.338 -1.5986 -1.4495  0.3974
16579SOL     OW51064   2.710   2.621   5.956 -0.3495 -0.0168 -0.0419
16579SOL    HW151065   2.774   2.616   5.879 -0.2536  0.6881 -0.0142
16579SOL    HW251066   2.761   2.624   6.042 -0.4173  0.4561 -0.0153
16580SOL     OW51067   9.145   6.065   5.465  0.1223  0.3399 -0.6076
16580SOL    HW151068   9.054   6.024   5.467  0.2680 -0.1047 -2.3494
16580SOL    HW251069   9.205   6.016   5.528 -0.4917 -0.2167 -0.4503
16581SOL     OW51070   1.636   8.490   0.133  0.1414 -0.2818 -0.0123
16581SOL    HW151071   1.707   8.481   0.063  1.5646  1.3664  1.1612
16581SOL    HW251072   1.671   8.459   0.221 -0.3043  1.2567  0.7363
16582SOL     OW51073   9.268   1.602   2.273  0.6396  0.3180 -0.7708
16582SOL    HW151074   9.321   1.674   2.318 -0.4577  0.1924  0.7479
16582SOL    HW251075   9.219   1.642   2.195 -0.2125  1.3052  0.2486
16583SOL     OW51076   1.696   1.802   0.969 -0.0096 -0.2362 -0.0427
16583SOL    HW151077   1.610   1.847   0.944  0.5453  0.2174 -1.1706
16583SOL    HW251078   1.733   1.753   0.890  0.9896 -0.0668  0.3067
16584SOL     OW51079   5.193   8.844   4.046  0.3486 -0.0617  0.1413
16584SOL    HW151080   5.166   8.912   4.114  1.9810  1.4233 -0.6461
16584SOL    HW251081   5.170   8.877   3.955 -1.2365 -1.7530 -0.1105
16585SOL     OW51082   6.478   9.656   2.469  0.0389  0.0512  0.7867
16585SOL    HW151083   6.506   9.738   2.419 -2.5713 -0.6931 -2.0919
16585SOL    HW251084   6.540   9.581   2.448  0.1191  0.2745  0.2207
16586SOL     OW51085   8.803   6.122   5.321 -0.1129  0.5056 -0.2167
16586SOL    HW151086   8.844   6.064   5.391  0.1204  0.3030 -0.5217
16586SOL    HW251087   8.758   6.200   5.364 -1.2663 -0.4091  0.2687
16588SOL     OW51088   2.512   2.322   3.904 -0.3195  0.0081 -0.0004
16588SOL    HW151089   2.550   2.250   3.963  1.7314  0.0662 -1.2006
16588SOL    HW251090   2.454   2.280   3.834  0.1931 -0.4302 -0.1735
16589SOL     OW51091   3.881   0.172   0.921 -0.0117  0.4702  0.0207
16589SOL    HW151092   3.799   0.225   0.898 -0.3405 -0.0115  0.0894
16589SOL    HW251093   3.901   0.182   1.018 -1.7693 -1.8816  0.6669
16590SOL     OW51094   2.492   3.242   1.528 -0.0980  0.0515 -0.4263
16590SOL    HW151095   2.562   3.222   1.460 -1.1163 -0.1673 -1.4294
16590SOL    HW251096   2.462   3.157   1.572  0.4446  0.1743  0.1850
16591SOL     OW51097   9.009   3.749   5.579 -0.0874  0.2218  0.3220
16591SOL    HW151098   8.993   3.715   5.672 -0.1540 -0.5366  0.0434
16591SOL    HW251099   9.093   3.708   5.543 -0.8271 -0.6369 -0.4794
16592SOL     OW51100   8.842   5.399   1.341  0.2911  0.7296  0.3873
16592SOL    HW151101   8.915   5.395   1.410 -1.7590  2.4041  2.7358
16592SOL    HW251102   8.861   5.473   1.277  0.8826  0.8702  0.7199
16594SOL     OW51103   9.175   9.627   5.326  0.5543  0.0939 -0.3983
16594SOL    HW151104   9.224   9.704   5.368  1.0767 -0.6904  0.4522
16594SOL    HW251105   9.241   9.555   5.302  0.0876 -0.0350 -1.3305
16595SOL     OW51106   3.779   4.288   4.044  0.1209 -0.7918  0.7794
16595SOL    HW151107   3.861   4.334   4.078 -0.9599  0.1908  2.0934
16595SOL    HW251108   3.746   4.336   3.963 -0.5883  0.3305  1.7236
16596SOL     OW51109   4.427   3.683   2.930  0.0479  0.3894 -0.3335
16596SOL    HW151110   4.482   3.740   2.870  2.2048 -1.5604 -0.3132
16596SOL    HW251111   4.353   3.640   2.878  0.7294  0.2194 -1.1657
16597SOL     OW51112   8.650   1.696   2.101  0.0272 -0.2069 -0.1770
16597SOL    HW151113   8.673   1.709   2.005  2.9159 -1.3575  0.3137
16597SOL    HW251114   8.610   1.780   2.137 -1.4051  0.1195 -2.4510
16598SOL     OW51115   8.610   8.745   0.973 -0.6219  0.0008 -0.1438
16598SOL    HW151116   8.546   8.677   0.936  0.1138 -0.9654  0.3156
16598SOL    HW251117   8.558   8.820   1.014 -1.4877 -1.1999  1.0097
16599SOL     OW51118   4.977   0.277   2.155  0.1142  0.3197 -0.1786
16599SOL    HW151119   5.046   0.215   2.118 -0.4019 -0.5948  0.3659
16599SOL    HW251120   4.887   0.235   2.148  0.1118 -0.3220  2.9814
16601SOL     OW51121   9.317   7.297   4.736  0.4136 -0.1024 -0.3428
16601SOL    HW151122   9.220   7.307   4.757  0.3535  1.3838 -1.2044
16601SOL    HW251123   9.328   7.283   4.638  1.0848  0.1079 -0.3005
16602SOL     OW51124   8.876   0.950   6.077 -0.0673  0.3088 -0.6466
16602SOL    HW151125   8.792   0.900   6.097  0.3344 -0.3083 -0.4948
16602SOL    HW251126   8.876   1.036   6.128 -0.3332  0.0368 -0.1819
16603SOL     OW51127   8.498   3.449   6.332 -0.0844 -0.1350 -0.2391
16603SOL    HW151128   8.439   3.530   6.321  0.6463  0.4209 -0.1090
16603SOL    HW251129   8.447   3.376   6.377 -1.1032 -0.1394 -1.3701
16604SOL     OW51130   3.187   3.874   0.709 -0.4602  0.4237  0.2688
16604SOL    HW151131   3.274   3.891   0.754 -0.2206  1.2330 -0.4893
16604SOL    HW251132   3.129   3.820   0.769  0.4561  0.1214  0.8943
16605SOL     OW51133   7.466   0.140   3.057 -0.2561 -0.0934  0.1698
16605SOL    HW151134   7.503   0.213   2.999  1.1865 -0.3708  0.7232
16605SOL    HW251135   7.394   0.178   3.116 -1.5216  0.2505 -1.5458
16606SOL     OW51136   7.653   5.742   2.474 -0.6820  0.4339 -0.5624
16606SOL    HW151137   7.642   5.780   2.566 -0.3304 -0.1404 -0.2807
16606SOL    HW251138   7.719   5.798   2.423 -0.2145  0.2367 -0.1711
16607SOL     OW51139   3.724   2.476   6.386  0.2884  0.1817  0.1128
16607SOL    HW151140   3.713   2.491   6.484  0.3059 -0.7572  0.2694
16607SOL    HW251141   3.734   2.563   6.339 -1.1288  0.7078  0.7737
16608SOL     OW51142   1.490   5.142   0.351  0.0629 -0.1452 -0.7019
16608SOL    HW151143   1.394   5.127   0.375  1.0038 -0.7699  2.9741
16608SOL    HW251144   1.530   5.055   0.322 -0.0647 -0.2547 -0.5561
16609SOL     OW51145   4.447   3.109   4.730 -0.5809 -0.2772 -0.0511
16609SOL    HW151146   4.372   3.154   4.778  0.0718  0.2869  0.4495
16609SOL    HW251147   4.516   3.080   4.796  0.1619  0.1943 -0.6062
16612SOL     OW51148   8.301   6.443   4.828  0.5882  0.3759 -0.5503
16612SOL    HW151149   8.303   6.542   4.837  2.3430  0.3929 -0.8360
16612SOL    HW251150   8.388   6.411   4.790  1.1990 -1.5107  2.2268
16614SOL     OW51151   5.958   9.115   3.014  0.0890 -0.0914  0.1735
16614SOL    HW151152   5.886   9.047   2.996  0.6051 -0.6883  0.3587
16614SOL    HW251153   5.921   9.187   3.073 -1.0021  0.7751 -1.5032
16615SOL     OW51154   3.621   2.391   3.883 -0.5322 -0.1987  0.3373
16615SOL    HW151155   3.645   2.481   3.847 -0.2186 -0.1625  0.6328
16615SOL    HW251156   3.619   2.394   3.983 -1.1366 -0.3632  0.3315
16616SOL     OW51157   5.541   8.999   4.598  0.7744  0.2963 -0.3215
16616SOL    HW151158   5.499   8.952   4.520 -1.0394 -0.7504  1.2330
16616SOL    HW251159   5.633   8.962   4.614  0.7299 -0.2491 -1.2842
16617SOL     OW51160   2.954   7.309   0.511 -0.5717  0.0089 -0.0468
16617SOL    HW151161   2.948   7.407   0.495  0.0436  0.0179 -0.2111
16617SOL    HW251162   2.873   7.279   0.561 -1.0602  0.4905 -0.5438
16618SOL     OW51163   8.491   7.827   3.825  0.1560  0.2785 -0.0913
16618SOL    HW151164   8.524   7.821   3.919  1.7725  0.0513 -0.6688
16618SOL    HW251165   8.529   7.752   3.771 -1.5882 -0.2080 -0.6988
16622SOL     OW51166   4.462   7.448   3.543  0.7213  0.0434  0.2193
16622SOL    HW151167   4.432   7.493   3.459 -0.8462 -0.4962  0.4536
16622SOL    HW251168   4.541   7.496   3.581  1.3752  0.3560 -1.4905
16623SOL     OW51169   0.902   6.206   2.155 -0.1122  0.5068  0.2189
16623SOL    HW151170   0.873   6.227   2.062 -1.4478 -0.6068  0.3729
16623SOL    HW251171   0.969   6.274   2.185  0.3691  0.8466 -1.5632
16625SOL     OW51172   9.663   5.018   3.685 -0.1216 -0.6658  0.1526
16625SOL    HW151173   9.575   5.037   3.640  0.0904 -0.2301 -0.0835
16625SOL    HW251174   9.723   5.097   3.675 -0.3531 -0.2600  1.9092
16627SOL     OW51175   8.363   0.282   5.719  0.3566  0.2506 -0.5054
16627SOL    HW151176   8.307   0.221   5.664  0.1690 -0.1343  0.0985
16627SOL    HW251177   8.451   0.238   5.738 -0.6904 -0.8943  1.9648
16628SOL     OW51178   2.232   6.557   1.891 -0.1618  0.1474  0.0833
16628SOL    HW151179   2.319   6.600   1.864 -0.3098  0.5170  0.1857
16628SOL    HW251180   2.175   6.544   1.810 -0.4456  0.8943  0.1570
16632SOL     OW51181   0.398   3.760   4.392 -0.1330  0.5645 -0.2296
16632SOL    HW151182   0.415   3.674   4.440 -0.3808  0.6113 -0.0566
16632SOL    HW251183   0.417   3.748   4.295 -0.9301  0.0837 -0.3321
16633SOL     OW51184   8.862   6.432   3.885  0.8189  0.2045 -0.1046
16633SOL    HW151185   8.842   6.380   3.968  1.3849  0.0540 -0.0605
16633SOL    HW251186   8.840   6.528   3.899  3.2625  0.6332  1.0811
16634SOL     OW51187   9.298   7.955   2.007 -0.4930  0.4231 -0.1488
16634SOL    HW151188   9.267   7.869   1.967 -2.0549 -0.1873  2.2483
16634SOL    HW251189   9.296   8.028   1.938 -1.8995 -0.8449 -1.4627
16635SOL     OW51190   4.407   5.280   0.639 -0.1187 -0.1782  0.0181
16635SOL    HW151191   4.445   5.373   0.643 -0.0408 -0.2207  0.3234
16635SOL    HW251192   4.433   5.230   0.722 -1.6573  0.1130  0.7069
16637SOL     OW51193   6.339   5.689   0.950 -0.2561 -0.6752 -0.3184
16637SOL    HW151194   6.270   5.646   0.891  0.4635  0.1646 -1.8094
16637SOL    HW251195   6.424   5.636   0.946  0.1513 -0.0004 -0.9615
16638SOL     OW51196   3.222   6.982   5.549 -0.2161  0.7618 -0.1210
16638SOL    HW151197   3.293   7.052   5.551  0.2638  0.2649  0.4977
16638SOL    HW251198   3.264   6.891   5.548 -0.8048  0.4766 -2.3208
16639SOL     OW51199   3.020   9.882   6.354 -0.3406 -0.2449  0.5475
16639SOL    HW151200   3.025   9.979   6.378  1.3461 -0.0422 -0.5152
16639SOL    HW251201   2.925   9.854   6.344 -0.8413  1.2324  1.1597
16642SOL     OW51202   8.526   7.357   1.833 -0.8982 -0.3901 -0.0675
16642SOL    HW151203   8.467   7.282   1.862 -0.3330 -0.2602  1.4703
16642SOL    HW251204   8.481   7.444   1.851 -1.3933 -0.3519 -1.4917
16643SOL     OW51205   7.502   1.959   4.875  0.0923  0.0418 -0.2409
16643SOL    HW151206   7.468   2.035   4.930  1.9563  0.8565 -0.1738
16643SOL    HW251207   7.587   1.986   4.829  0.8051 -2.0080 -0.1854
16644SOL     OW51208   4.483   9.387   3.252  0.4018  0.3495 -0.7867
16644SOL    HW151209   4.560   9.349   3.200  1.8085  1.2779  0.5812
16644SOL    HW251210   4.465   9.481   3.221 -0.8037 -0.1873 -1.7498
16645SOL     OW51211   9.724   8.731   0.427 -0.3536 -0.3219  0.7800
16645SOL    HW151212   9.672   8.806   0.467  0.4976  0.7585 -0.0946
16645SOL    HW251213   9.725   8.740   0.327 -0.6405 -1.7686  0.6353
16646SOL     OW51214   4.660   9.842   0.790  0.2614 -0.5857  0.2194
16646SOL    HW151215   4.702   9.781   0.858 -0.2589  0.7586  1.7677
16646SOL    HW251216   4.564   9.816   0.777  0.2309 -0.5448  0.3605
16647SOL     OW51217   7.119   1.834   1.980 -0.6825 -0.0257  0.0993
16647SOL    HW151218   7.202   1.827   1.923  0.1655  0.9598  1.1765
16647SOL    HW251219   7.115   1.755   2.042  0.2079  0.6216  1.0054
16648SOL     OW51220   1.444   9.924   2.077 -0.1295 -0.0960  0.3286
16648SOL    HW151221   1.377   9.971   2.134  1.5128  1.4293  1.0499
16648SOL    HW251222   1.469   9.982   1.999  1.6691  0.1469  1.0499
16649SOL     OW51223   8.051   6.413   5.487  0.3435 -0.0157 -0.0048
16649SOL    HW151224   8.135   6.459   5.518 -1.4804  4.2440 -0.9568
16649SOL    HW251225   8.065   6.376   5.396  1.3335  0.2772  0.0250
16650SOL     OW51226   8.022   9.523   3.809  0.4598 -0.1548 -0.2768
16650SOL    HW151227   7.951   9.555   3.872  0.7954 -0.1146  0.0815
16650SOL    HW251228   8.040   9.426   3.826 -0.4169 -0.4884 -1.2280
16651SOL     OW51229   3.145   4.437   3.643 -0.2040  0.0874 -0.5821
16651SOL    HW151230   3.080   4.369   3.676 -0.3302  0.3553 -0.2747
16651SOL    HW251231   3.235   4.395   3.632  0.0294  0.1740  0.8684
16652SOL     OW51232   0.164   0.722   3.542 -0.3643  0.0459 -0.5016
16652SOL    HW151233   0.137   0.818   3.541  0.4495  0.3491  1.9653
16652SOL    HW251234   0.089   0.667   3.580  0.2724  0.1475  0.9698
16653SOL     OW51235   1.366   5.203   1.228 -0.7863 -0.1890 -0.0651
16653SOL    HW151236   1.266   5.200   1.222 -0.6908 -1.9006 -1.1857
16653SOL    HW251237   1.404   5.121   1.185  1.0712  0.0214  1.1364
16654SOL     OW51238   8.507   3.183   5.359 -0.1072 -0.3874  0.3571
16654SOL    HW151239   8.596   3.223   5.334  0.7854 -0.7781  2.7883
16654SOL    HW251240   8.443   3.196   5.283  1.2007  2.3869 -0.3562
16655SOL     OW51241   8.334   0.263   3.503 -0.5172 -0.5075 -0.3949
16655SOL    HW151242   8.303   0.338   3.561  1.0834  0.7257 -1.0678
16655SOL    HW251243   8.285   0.266   3.416 -0.5471 -0.2933 -0.3720
16656SOL     OW51244   5.513   8.429   4.219  0.3114 -0.0167  0.9954
16656SOL    HW151245   5.553   8.425   4.127 -1.4871 -0.8580  0.2348
16656SOL    HW251246   5.440   8.496   4.221 -0.1607 -0.5442  1.6199
16657SOL     OW51247   0.281   1.573   0.122  0.8711  0.6000  0.0505
16657SOL    HW151248   0.346   1.646   0.101  0.9050  0.7711  0.7337
16657SOL    HW251249   0.300   1.537   0.214  0.6156 -0.0101 -0.1318
16658SOL     OW51250   4.561   0.957   2.050  0.3573 -0.0442 -0.4723
16658SOL    HW151251   4.591   0.953   2.146 -1.1279 -2.2661 -0.0612
16658SOL    HW251252   4.641   0.962   1.991  1.3686 -0.5566  0.8148
16659SOL     OW51253   0.827   5.033   3.328  0.0829  0.0876 -0.4432
16659SOL    HW151254   0.776   5.033   3.414  0.8605 -0.8029  0.0374
16659SOL    HW251255   0.845   5.127   3.299  0.8520  0.4013  1.0058
16660SOL     OW51256   8.472   3.859   4.374  0.0949 -0.5220 -0.3772
16660SOL    HW151257   8.426   3.774   4.346 -0.0165 -0.3786 -0.6249
16660SOL    HW251258   8.521   3.843   4.460 -0.8532 -0.5254  0.1649
16661SOL     OW51259   2.233   7.581   2.325  0.8475 -0.2026 -0.1751
16661SOL    HW151260   2.241   7.629   2.237  2.3715 -0.0902 -0.0029
16661SOL    HW251261   2.253   7.484   2.312  0.9612 -0.2059  0.0137
16662SOL     OW51262   8.301   9.285   5.495  0.6780 -0.2909 -0.5681
16662SOL    HW151263   8.231   9.336   5.445  0.1582 -0.5388 -0.0974
16662SOL    HW251264   8.311   9.194   5.456  0.6523 -0.2959 -0.5622
16663SOL     OW51265   8.696   6.441   1.202 -0.0384  0.0211 -0.6871
16663SOL    HW151266   8.736   6.366   1.256  2.9858  1.3666 -0.9175
16663SOL    HW251267   8.688   6.523   1.260 -0.9771  0.2253 -1.1018
16664SOL     OW51268   7.770   6.982   2.759  0.2886  0.2139 -0.2905
16664SOL    HW151269   7.782   7.080   2.742 -0.2076  0.3106 -0.0862
16664SOL    HW251270   7.723   6.969   2.847  0.3990 -0.2076 -0.2924
16665SOL     OW51271   7.391   3.384   1.259  0.4372  0.7629  0.7151
16665SOL    HW151272   7.298   3.354   1.238  1.1895 -0.3224 -1.2059
16665SOL    HW251273   7.451   3.303   1.265  1.4357  1.5146  0.9953
16666SOL     OW51274   9.768   3.920   2.039  0.2629  0.1498  0.5580
16666SOL    HW151275   9.713   3.839   2.057 -1.7101  1.1869 -0.5860
16666SOL    HW251276   9.714   4.002   2.058  2.6662  1.2487  2.9987
16667SOL     OW51277   6.161   2.469   4.759 -0.4147 -0.0519 -0.4763
16667SOL    HW151278   6.082   2.408   4.757 -1.0371  0.7062  0.8082
16667SOL    HW251279   6.206   2.463   4.848  0.0852  0.6585 -0.6763
16668SOL     OW51280   1.999   5.960   3.131  0.4324  0.2893  0.1618
16668SOL    HW151281   2.093   5.939   3.159  0.0864  0.2351  1.2843
16668SOL    HW251282   1.972   6.049   3.169  0.4765  0.9303 -1.2450
16669SOL     OW51283   1.084   0.732   4.243  0.2893  0.4915 -0.4475
16669SOL    HW151284   1.125   0.642   4.256 -0.7032  0.0133 -0.5951
16669SOL    HW251285   1.050   0.741   4.150 -2.3196 -0.1318  0.3976
16670SOL     OW51286   4.834   2.034   1.049 -0.0427 -0.0666  0.4732
16670SOL    HW151287   4.745   2.079   1.055  0.3808  0.5498  2.3229
16670SOL    HW251288   4.821   1.935   1.050 -0.6588  0.0147  1.8214
16671SOL     OW51289   3.328   1.346   5.810 -0.5553 -0.6962 -0.6289
16671SOL    HW151290   3.237   1.349   5.851 -0.9378  0.3115 -1.5064
16671SOL    HW251291   3.394   1.312   5.876 -1.6078 -1.6598 -0.0505
16672SOL     OW51292   4.108   2.976   0.703 -0.3381  0.8587  0.0533
16672SOL    HW151293   4.044   3.053   0.714 -0.5739  0.5625  0.8160
16672SOL    HW251294   4.201   3.008   0.717 -0.4181  1.0594  0.1262
16673SOL     OW51295   4.443   0.220   2.935 -0.3448  0.2585 -0.2534
16673SOL    HW151296   4.344   0.220   2.921 -0.2363 -0.1910 -1.0454
16673SOL    HW251297   4.486   0.279   2.867 -0.0336  0.1471 -0.1531
16675SOL     OW51298   9.772   3.644   5.237  0.0690 -0.5658  0.5834
16675SOL    HW151299   9.868   3.652   5.267 -0.0099 -0.5277  0.8255
16675SOL    HW251300   9.744   3.730   5.195 -0.9981  0.7806  3.8549
16676SOL     OW51301   4.114   9.671   1.160 -0.2304  0.6295  0.4669
16676SOL    HW151302   4.172   9.661   1.241 -0.1524 -2.0697  0.1000
16676SOL    HW251303   4.041   9.737   1.180  1.1484  1.7444  1.9396
16677SOL     OW51304   2.207   4.817   5.054  0.0959 -0.0430 -0.1288
16677SOL    HW151305   2.164   4.737   5.013  2.4314 -1.7761  0.6550
16677SOL    HW251306   2.274   4.787   5.122 -0.2434  2.6406  1.4451
16678SOL     OW51307   3.471   2.830   1.870 -0.0797  0.0457 -0.0595
16678SOL    HW151308   3.435   2.888   1.797 -0.0721  1.0481  0.7310
16678SOL    HW251309   3.545   2.878   1.918 -1.1402  0.0205  1.6394
16679SOL     OW51310   1.829   4.321   5.721 -0.0988  0.4743  0.3098
16679SOL    HW151311   1.845   4.405   5.772  0.0142  0.5146  0.2076
16679SOL    HW251312   1.866   4.330   5.628 -0.0975  0.3173  0.2941
16680SOL     OW51313   6.585   5.545   1.618 -0.3728 -0.1551 -0.2027
16680SOL    HW151314   6.553   5.627   1.569  1.3303  0.9728  0.5207
16680SOL    HW251315   6.528   5.530   1.698 -1.7919 -0.7111 -1.3041
16681SOL     OW51316   8.462   6.971   2.969  0.0796 -0.2464 -0.0340
16681SOL    HW151317   8.398   6.929   3.033 -0.5998  0.4435 -0.2580
16681SOL    HW251318   8.540   7.008   3.019  0.3829 -1.2148  0.2247
16682SOL     OW51319   7.677   3.730   5.941  0.9295 -0.0723 -0.1669
16682SOL    HW151320   7.604   3.662   5.937  0.9692 -0.0781 -0.8817
16682SOL    HW251321   7.754   3.701   5.884  1.6225 -0.2125  0.8190
16683SOL     OW51322   0.326   9.999   5.939 -0.3446 -0.1344 -0.1200
16683SOL    HW151323   0.324   9.913   5.888 -0.8587  0.5433 -1.2729
16683SOL    HW251324   0.365  10.071   5.882 -1.1615  0.6954  0.3461
16684SOL     OW51325   5.106   0.049   5.783  0.5044  0.2280  0.2624
16684SOL    HW151326   5.149   0.098   5.707 -1.5711  0.5395 -0.7344
16684SOL    HW251327   5.033   0.104   5.822  0.0229 -0.8964  0.9896
16685SOL     OW51328   9.411   3.167   0.727 -0.1832 -0.0340  0.9182
16685SOL    HW151329   9.437   3.232   0.655 -2.0148  0.6529  0.8420
16685SOL    HW251330   9.464   3.083   0.717  1.6777  1.1510  0.5489
16686SOL     OW51331   1.814   1.492   2.042  0.0768  0.4390  0.2910
16686SOL    HW151332   1.892   1.429   2.040  0.4445  0.8962  0.2029
16686SOL    HW251333   1.822   1.557   1.966 -0.0236  0.9232  0.6935
16687SOL     OW51334   1.242   7.482   0.326  0.0513  0.0630 -0.8936
16687SOL    HW151335   1.300   7.458   0.248 -0.0809  2.7002 -1.8574
16687SOL    HW251336   1.253   7.579   0.347 -0.9258 -0.3242  1.5461
16690SOL     OW51337   6.233   0.460   5.581 -0.0571 -0.4105 -0.2783
16690SOL    HW151338   6.223   0.384   5.645  0.9925  1.2835  2.0026
16690SOL    HW251339   6.143   0.492   5.553 -0.6662  0.5671  2.5839
16691SOL     OW51340   8.639   5.069   1.934  0.4581 -0.1513 -0.4907
16691SOL    HW151341   8.607   5.104   2.022 -1.3433  1.3320 -1.7023
16691SOL    HW251342   8.682   5.143   1.882  2.8504 -1.3437 -0.2967
16693SOL     OW51343   8.412   5.083   0.136  0.4995 -0.4907 -0.1576
16693SOL    HW151344   8.509   5.108   0.138  0.2728  0.3662  1.9465
16693SOL    HW251345   8.389   5.035   0.221 -0.6174 -1.9260 -1.2456
16695SOL     OW51346   8.802   4.115   6.355 -0.4316 -0.5630 -0.1895
16695SOL    HW151347   8.728   4.092   6.291 -0.1710  0.4439 -0.8594
16695SOL    HW251348   8.890   4.088   6.316 -0.2782 -0.0209 -0.2167
16696SOL     OW51349   7.248   1.344   2.127 -0.4040  0.3442 -0.7903
16696SOL    HW151350   7.346   1.350   2.142 -0.6154  0.8991  0.4367
16696SOL    HW251351   7.210   1.436   2.115 -1.0379  0.2692  0.5623
16697SOL     OW51352   0.425   7.854   1.630 -0.1424 -0.2417 -0.0260
16697SOL    HW151353   0.327   7.873   1.625 -0.5997 -2.1791  0.9651
16697SOL    HW251354   0.448   7.822   1.721  1.3849 -0.0384 -0.3250
16698SOL     OW51355   7.069   5.211   1.122 -0.4267 -0.1686 -0.2397
16698SOL    HW151356   7.114   5.202   1.211 -1.3427 -0.3084  0.2060
16698SOL    HW251357   6.990   5.271   1.130 -1.5667 -1.5957 -0.5729
16700SOL     OW51358   3.269   0.476   4.038  0.1782 -0.3433 -0.6269
16700SOL    HW151359   3.294   0.493   4.134 -2.2714 -0.4250  0.0530
16700SOL    HW251360   3.304   0.387   4.010  0.6664 -0.4412  0.2570
16701SOL     OW51361   3.962   9.437   2.188  0.3482  0.2305 -0.3005
16701SOL    HW151362   3.931   9.343   2.197  0.5353  0.1756 -0.2142
16701SOL    HW251363   3.912   9.483   2.115  0.0841  0.1372 -0.1787
16703SOL     OW51364   1.055   2.842   4.683  0.4998  0.2874  0.3928
16703SOL    HW151365   1.101   2.911   4.738 -1.7428  0.3050  2.2903
16703SOL    HW251366   1.025   2.766   4.741 -0.4215 -0.4933 -1.0517
16705SOL     OW51367   0.113   4.977   2.653  0.2445 -0.3735 -0.1741
16705SOL    HW151368   0.175   5.040   2.699  0.8087  0.9949 -2.7305
16705SOL    HW251369   0.156   4.887   2.643  1.2763  0.1765 -0.6814
16706SOL     OW51370   3.505   0.668   5.485  0.1314  0.0656  0.0432
16706SOL    HW151371   3.592   0.624   5.467 -0.3997  0.7410 -4.7853
16706SOL    HW251372   3.437   0.637   5.418 -2.4528  1.9879  1.6825
16707SOL     OW51373   7.765   5.168   0.458 -0.1399 -0.3267 -0.3922
16707SOL    HW151374   7.856   5.205   0.437 -1.4341  3.7718  0.7823
16707SOL    HW251375   7.707   5.173   0.377  0.0910 -1.1625 -0.6164
16708SOL     OW51376   6.165   8.796   5.168  0.3026  0.4820 -0.2802
16708SOL    HW151377   6.205   8.727   5.228 -2.0662  0.2986  1.2017
16708SOL    HW251378   6.147   8.879   5.221 -0.4832  0.8394 -1.0900
16709SOL     OW51379   3.703   5.614   2.693  0.4718 -0.5946 -0.1024
16709SOL    HW151380   3.695   5.552   2.771 -0.0718  1.1188  1.2606
16709SOL    HW251381   3.612   5.638   2.660  0.6757 -0.6322 -0.6916
16711SOL     OW51382   1.372   5.380   0.719  0.2732 -0.1223 -0.4422
16711SOL    HW151383   1.383   5.477   0.741  0.5352 -0.3746  0.5696
16711SOL    HW251384   1.434   5.356   0.645 -0.7415  0.7852 -1.6143
16712SOL     OW51385   2.820   7.652   4.343 -0.1820  0.1967  0.5012
16712SOL    HW151386   2.734   7.678   4.298  1.0899 -1.4984 -3.1078
16712SOL    HW251387   2.809   7.562   4.385 -0.2275 -0.0092  0.0603
16713SOL     OW51388   6.762   1.950   0.575 -0.2323 -0.0653 -0.0475
16713SOL    HW151389   6.756   1.863   0.526 -0.3170 -0.2441  0.2745
16713SOL    HW251390   6.715   2.021   0.523  0.9723  0.0864 -0.9674
16714SOL     OW51391   7.511   3.810   0.538 -0.2356 -0.4127 -0.9394
16714SOL    HW151392   7.599   3.804   0.586 -0.6305 -1.0018 -0.2849
16714SOL    HW251393   7.463   3.892   0.567 -0.3354 -0.6060 -0.5508
16715SOL     OW51394   2.616   1.506   4.294 -0.1986  0.2768 -0.0238
16715SOL    HW151395   2.516   1.496   4.288 -0.2493  0.7769 -0.0225
16715SOL    HW251396   2.640   1.539   4.385 -0.0396  0.2565 -0.0586
16716SOL     OW51397   5.827   7.602   5.486  0.3491 -0.6447 -0.1171
16716SOL    HW151398   5.761   7.528   5.480  0.1905 -0.5070 -0.0934
16716SOL    HW251399   5.887   7.601   5.406  0.0035 -0.4745 -0.3809
16717SOL     OW51400   0.954   7.772   0.365 -0.0353  0.3241  0.0449
16717SOL    HW151401   1.053   7.761   0.368 -0.2709 -2.7815 -2.3413
16717SOL    HW251402   0.923   7.777   0.271 -2.1736  1.4536  0.7674
16718SOL     OW51403   4.074   1.021   2.421 -0.5379 -0.3410  0.2849
16718SOL    HW151404   4.171   1.032   2.400 -0.4720 -0.1340  0.6924
16718SOL    HW251405   4.046   0.926   2.402 -0.5306 -0.1168 -0.9009
16719SOL     OW51406   0.807   8.825   1.182  0.3606 -0.0972 -0.5017
16719SOL    HW151407   0.863   8.898   1.143  0.9275  0.4710  1.3134
16719SOL    HW251408   0.866   8.748   1.209  0.2298  0.2925  0.9461
16721SOL     OW51409   9.567   2.795   1.369  0.5480 -0.3851  0.0946
16721SOL    HW151410   9.495   2.784   1.300 -0.8887 -1.6649  1.7536
16721SOL    HW251411   9.653   2.759   1.334 -0.1731 -1.0519 -1.0275
16723SOL     OW51412   3.794   3.513   2.263 -0.1232  0.3969 -0.0765
16723SOL    HW151413   3.808   3.506   2.362  0.2841  0.2183 -0.1451
16723SOL    HW251414   3.699   3.490   2.242  0.3491 -1.8396  0.0569
16724SOL     OW51415   2.235   4.240   2.689 -0.3220 -0.0677 -0.2197
16724SOL    HW151416   2.314   4.179   2.678 -0.6938 -0.5803 -0.0645
16724SOL    HW251417   2.265   4.335   2.682 -0.0980 -0.2956 -2.9291
16726SOL     OW51418   7.759   4.478   1.459 -0.2777  0.2662 -0.5221
16726SOL    HW151419   7.685   4.484   1.526 -0.3573 -0.1861 -0.5700
16726SOL    HW251420   7.728   4.425   1.380  0.1641 -0.0842 -0.4573
16727SOL     OW51421   2.859   0.070   6.099  0.1254 -0.8310 -0.4550
16727SOL    HW151422   2.791   0.124   6.051  0.3079 -0.3762 -0.2019
16727SOL    HW251423   2.951   0.104   6.077  0.1982 -0.3981  0.4780
16728SOL     OW51424   0.642   8.009   1.170 -0.2545  0.1972 -0.0884
16728SOL    HW151425   0.693   8.057   1.099 -1.8855  1.8426 -0.1849
16728SOL    HW251426   0.688   8.020   1.258  0.7953 -0.3105 -0.5690
16729SOL     OW51427   8.642   2.600   2.370 -0.2367  0.6510  0.4020
16729SOL    HW151428   8.633   2.568   2.465 -1.8783  0.1004  0.0733
16729SOL    HW251429   8.554   2.636   2.338 -0.1274 -0.6526 -1.4410
16730SOL     OW51430   7.581   3.440   5.215  0.4907  0.2723 -0.4649
16730SOL    HW151431   7.541   3.521   5.171  1.5302  0.3157 -1.3456
16730SOL    HW251432   7.600   3.461   5.311 -2.0317  0.0932  0.0952
16731SOL     OW51433   1.596   6.647   1.598  0.0125  0.6813 -0.0525
16731SOL    HW151434   1.522   6.669   1.661 -0.8301  0.1524 -0.8515
16731SOL    HW251435   1.613   6.549   1.598 -0.1652  0.6445 -0.8419
16734SOL     OW51436   5.440   0.039   4.347  0.0611 -0.1519  0.1619
16734SOL    HW151437   5.403   0.098   4.419  0.1293 -0.1610  0.2037
16734SOL    HW251438   5.391   0.056   4.262 -1.9860 -2.1866  0.8878
16735SOL     OW51439   3.968   9.896   0.885  0.3700  0.0501  0.2196
16735SOL    HW151440   3.946   9.993   0.876 -0.2565 -0.0457  0.6939
16735SOL    HW251441   3.947   9.866   0.978 -1.8606 -1.1524 -0.6593
16737SOL     OW51442   9.254   2.617   1.333  0.1688 -0.0158 -0.0179
16737SOL    HW151443   9.286   2.691   1.274  0.0314  0.0114 -0.0576
16737SOL    HW251444   9.212   2.656   1.415 -1.1772 -0.0276 -0.6934
16738SOL     OW51445   2.869   9.246   4.145 -0.3826 -0.1663 -0.0270
16738SOL    HW151446   2.838   9.187   4.220  0.6998 -0.6851  0.0236
16738SOL    HW251447   2.926   9.194   4.083  0.8327  0.8934  0.1730
16740SOL     OW51448   7.295   1.426   4.404  0.6706  0.6378 -0.3509
16740SOL    HW151449   7.236   1.396   4.329  0.6606 -0.7310  0.1926
16740SOL    HW251450   7.239   1.464   4.478  0.6191  1.1118 -0.6278
16741SOL     OW51451   7.104   3.164   3.046  0.5940 -0.5305 -0.5340
16741SOL    HW151452   7.184   3.115   3.081 -0.4247 -1.9276 -0.1022
16741SOL    HW251453   7.044   3.100   2.998 -0.4687  0.4294 -0.5109
16743SOL     OW51454   0.942   0.322   2.647 -0.0130 -0.1818  0.1705
16743SOL    HW151455   0.952   0.278   2.558 -0.0499 -0.0767  0.1144
16743SOL    HW251456   0.946   0.253   2.719 -2.2522 -0.5574 -0.0283
16744SOL     OW51457   5.120   0.988   1.976 -0.1870  0.5521  0.5793
16744SOL    HW151458   5.045   0.978   2.041 -0.7383  2.2600  0.2359
16744SOL    HW251459   5.205   0.956   2.018 -0.9799 -0.7744  1.2035
16745SOL     OW51460   1.750   5.918   1.322 -0.8943 -0.1200  0.0570
16745SOL    HW151461   1.719   5.824   1.334  0.0707 -0.3970  0.4334
16745SOL    HW251462   1.735   5.947   1.228  0.4639 -1.2631 -0.5243
16747SOL     OW51463   8.203   6.640   3.611  0.0798 -0.4157 -0.2218
16747SOL    HW151464   8.160   6.716   3.560 -1.1865 -0.9070  0.0908
16747SOL    HW251465   8.214   6.666   3.706 -2.5145 -1.4395  0.4075
16749SOL     OW51466   0.355   2.868   4.758  0.1353 -0.5227 -0.5275
16749SOL    HW151467   0.325   2.898   4.848  1.4083 -1.4228  0.2104
16749SOL    HW251468   0.281   2.882   4.692 -0.4927  0.9684  0.4705
16750SOL     OW51469   3.136   5.231   0.606  0.4896 -0.5970 -0.2557
16750SOL    HW151470   3.046   5.250   0.566  0.0814  0.7697  1.2647
16750SOL    HW251471   3.201   5.303   0.578  1.1188 -1.5644 -1.3284
16751SOL     OW51472   4.418   8.150   4.198 -0.2933  0.1258  0.1658
16751SOL    HW151473   4.391   8.091   4.122 -0.4747  1.9414 -1.1832
16751SOL    HW251474   4.518   8.158   4.200 -0.4025  2.4398 -1.7179
16752SOL     OW51475   9.517   6.429   3.017  0.4099  0.5168 -0.0808
16752SOL    HW151476   9.563   6.456   3.102  2.5708 -1.0350 -0.7290
16752SOL    HW251477   9.504   6.330   3.017 -0.8094  0.6773 -0.9666
16754SOL     OW51478   3.758   2.717   4.438 -0.2447 -0.3209  0.2487
16754SOL    HW151479   3.709   2.630   4.436  0.9007 -0.9640 -0.1742
16754SOL    HW251480   3.842   2.709   4.385  0.3882  0.7305  1.0687
16755SOL     OW51481   3.225   3.948   5.117 -0.2588 -0.2556 -0.5513
16755SOL    HW151482   3.243   3.986   5.208 -0.1591 -0.9002 -0.3015
16755SOL    HW251483   3.167   3.867   5.125  0.6891 -0.9873 -0.9588
16756SOL     OW51484   8.182   0.695   4.130 -0.2345 -0.0049 -0.1028
16756SOL    HW151485   8.263   0.748   4.155  0.7230  0.3690 -3.6431
16756SOL    HW251486   8.099   0.745   4.158  0.7088 -0.1088  3.0116
16757SOL     OW51487   7.651   9.772   2.071 -0.7356  0.2599 -0.4904
16757SOL    HW151488   7.730   9.799   2.017 -2.4396  0.8166 -2.7953
16757SOL    HW251489   7.605   9.854   2.106 -1.9468  0.0776 -1.6273
16758SOL     OW51490   3.009   0.311   4.998 -0.3963 -0.2660  0.4794
16758SOL    HW151491   3.098   0.329   5.038  0.0272  1.5442 -1.1882
16758SOL    HW251492   2.983   0.387   4.938 -2.8174 -1.0045  0.5138
16759SOL     OW51493   8.978   3.973   1.194  0.0183  0.0418 -0.0881
16759SOL    HW151494   9.001   3.923   1.110 -1.0287 -0.6242  0.0068
16759SOL    HW251495   9.059   3.981   1.252  0.1211 -1.9037  0.0677
16760SOL     OW51496   8.851   1.018   2.407  0.4314 -0.6219 -0.2676
16760SOL    HW151497   8.949   0.996   2.413  0.4340 -0.6123 -0.2803
16760SOL    HW251498   8.838   1.090   2.339  0.4791 -0.2311  0.1365
16761SOL     OW51499   9.525   2.511   4.317 -0.0925 -0.3653  0.6765
16761SOL    HW151500   9.528   2.419   4.279 -0.8397 -0.4623  0.8396
16761SOL    HW251501   9.437   2.554   4.294 -0.8005 -0.6395  2.7465
16762SOL     OW51502   9.859   8.252   6.186 -0.8084  0.4439  0.0864
16762SOL    HW151503   9.819   8.168   6.148 -0.7032  0.8880 -1.0166
16762SOL    HW251504   9.864   8.244   6.286  0.9593 -1.6406 -0.1334
16764SOL     OW51505   8.484   2.302   1.796  0.1516 -0.0403  0.3005
16764SOL    HW151506   8.516   2.326   1.888 -1.0339  1.5048  0.3386
16764SOL    HW251507   8.400   2.352   1.776 -0.4575 -1.5343 -1.0447
16765SOL     OW51508   1.057   0.421   3.835  0.1014 -0.0147  0.2086
16765SOL    HW151509   0.996   0.373   3.897  0.1838  1.7039  1.6714
16765SOL    HW251510   1.144   0.440   3.881  0.9758 -0.6001 -1.1586
16766SOL     OW51511   5.417   1.059   1.534  0.0448 -0.4252  0.4893
16766SOL    HW151512   5.408   0.988   1.464  3.5519  0.0526 -0.5534
16766SOL    HW251513   5.483   1.030   1.603  0.3825  1.1814  0.8667
16767SOL     OW51514   1.174   4.084   1.270  0.1369  0.4683 -0.1966
16767SOL    HW151515   1.214   4.106   1.360 -0.0784 -0.3995  0.1158
16767SOL    HW251516   1.203   3.993   1.242 -1.9884 -0.3888  0.2596
16768SOL     OW51517   7.526   7.323   1.654  0.1237 -0.2106 -0.3169
16768SOL    HW151518   7.622   7.298   1.663 -0.1054 -0.2030  2.3548
16768SOL    HW251519   7.515   7.421   1.668 -0.4019 -0.3642  0.3453
16770SOL     OW51520   8.050   8.595   6.058 -0.5052  0.1238 -0.5199
16770SOL    HW151521   8.137   8.640   6.078 -1.9313  2.6229  0.2695
16770SOL    HW251522   8.033   8.597   5.960  0.4718 -0.6741 -0.7103
16771SOL     OW51523   2.372   9.668   5.425 -0.2368 -0.0019 -0.1806
16771SOL    HW151524   2.391   9.569   5.423  0.8634  0.1428  1.8247
16771SOL    HW251525   2.274   9.683   5.431 -0.3231 -1.0355  1.4293
16775SOL     OW51526   7.274   0.949   3.260  0.0667 -0.2996  0.3540
16775SOL    HW151527   7.358   0.966   3.208 -0.2943  0.0092 -0.1361
16775SOL    HW251528   7.229   0.867   3.224 -0.9312  0.7315 -0.7857
16776SOL     OW51529   0.828   4.962   0.497 -0.2372  0.4485  0.0840
16776SOL    HW151530   0.826   5.048   0.549  0.1763  0.3839  0.2062
16776SOL    HW251531   0.879   4.976   0.412 -0.2050  0.3347  0.0844
16777SOL     OW51532   3.070   2.759   4.478 -0.1546 -0.1330  0.3297
16777SOL    HW151533   3.023   2.719   4.399 -0.1912 -2.7806  1.6494
16777SOL    HW251534   3.162   2.789   4.450 -0.2603 -0.7928 -0.7595
16778SOL     OW51535   5.400   3.803   1.129 -0.4200 -0.3044  0.0067
16778SOL    HW151536   5.475   3.840   1.185 -0.1668 -2.3358  1.0694
16778SOL    HW251537   5.332   3.874   1.114  0.0639  0.6208  1.9537
16779SOL     OW51538   7.315   8.641   2.565 -0.3209 -0.0187 -0.1995
16779SOL    HW151539   7.268   8.636   2.653 -0.7444  2.1461 -0.2600
16779SOL    HW251540   7.410   8.669   2.580  0.0988 -1.3465 -0.3159
16780SOL     OW51541   8.429   0.003   4.987  0.1896 -0.1678  0.1817
16780SOL    HW151542   8.443   0.054   5.071  0.5966  0.7634 -0.4490
16780SOL    HW251543   8.372  -0.077   5.006 -0.0430  0.2473  1.2622
16781SOL     OW51544   6.366   0.780   2.547  0.0238 -0.6448  0.0775
16781SOL    HW151545   6.386   0.691   2.589 -0.9444 -1.3087 -0.8611
16781SOL    HW251546   6.440   0.844   2.569  0.9730 -1.8160  0.3564
16782SOL     OW51547   7.160   0.315   6.378 -0.0702  0.2620  0.2785
16782SOL    HW151548   7.180   0.312   6.280 -0.9059 -0.7797  0.1408
16782SOL    HW251549   7.122   0.227   6.408 -2.3881  1.4660  0.9934
16783SOL     OW51550   5.108   2.745   4.398 -0.6694 -0.5270  0.4402
16783SOL    HW151551   5.169   2.803   4.451  0.2051 -2.3570  1.4856
16783SOL    HW251552   5.162   2.681   4.343 -1.6288 -1.1309  0.1881
16785SOL     OW51553   9.303   9.869   4.392 -0.7267 -0.4863 -0.3333
16785SOL    HW151554   9.378   9.884   4.455 -1.5614 -0.2174  0.6076
16785SOL    HW251555   9.232   9.938   4.406 -1.6875 -1.4379 -0.3752
16786SOL     OW51556   0.899   5.522   4.788  0.2222 -0.3324  0.5732
16786SOL    HW151557   0.920   5.586   4.714  0.9492 -1.6403 -0.3762
16786SOL    HW251558   0.984   5.492   4.831  0.0507 -2.0385 -0.2015
16787SOL     OW51559   2.104   1.074   0.048  0.1003 -0.0204 -0.1656
16787SOL    HW151560   2.146   0.994   0.091  1.3790  0.1950 -0.9922
16787SOL    HW251561   2.069   1.049  -0.042 -0.8497 -0.0068  0.1950
16788SOL     OW51562   9.923   6.862   5.836 -0.5021  0.2471 -0.0581
16788SOL    HW151563   9.893   6.937   5.777 -1.3823  0.0318  0.1182
16788SOL    HW251564  10.023   6.854   5.831 -0.5949 -0.0319 -1.8426
16789SOL     OW51565   3.042   2.541   1.010  0.0443 -0.1522 -0.5517
16789SOL    HW151566   3.086   2.623   1.046 -2.3409  0.9321  0.0049
16789SOL    HW251567   3.068   2.462   1.065  0.4631  0.6289  0.3933
16790SOL     OW51568   3.468   0.602   1.271 -0.4194  0.0766  0.2879
16790SOL    HW151569   3.375   0.638   1.270 -1.4206 -2.2596  2.2869
16790SOL    HW251570   3.491   0.568   1.180 -0.5620  2.8712 -0.8427
16791SOL     OW51571   2.819   4.410   1.725  0.4498  0.0985 -0.0715
16791SOL    HW151572   2.787   4.505   1.731  0.4270  0.0490  0.6004
16791SOL    HW251573   2.919   4.409   1.725  0.4511  0.1307 -0.2459
16792SOL     OW51574   7.878   4.951   2.397  0.4539  0.6999 -0.4972
16792SOL    HW151575   7.835   5.039   2.415 -1.0619  0.1328 -1.1991
16792SOL    HW251576   7.967   4.947   2.441 -0.3934  1.7485  1.3836
16794SOL     OW51577   8.861   8.911   3.750 -0.0453 -0.2206  0.2032
16794SOL    HW151578   8.846   8.953   3.840 -0.1935 -0.9276  0.5106
16794SOL    HW251579   8.847   8.980   3.679 -0.3368  0.2435  0.7041
16795SOL     OW51580   2.402   6.388   5.511 -0.0992  0.6648  0.0399
16795SOL    HW151581   2.472   6.319   5.530  0.1523  0.7710 -0.4755
16795SOL    HW251582   2.349   6.405   5.594  0.3492  0.4281  0.3823
16797SOL     OW51583   7.535   2.853   3.311  0.2904 -0.8079 -0.4478
16797SOL    HW151584   7.600   2.860   3.387 -0.2373 -0.4193 -0.0257
16797SOL    HW251585   7.456   2.799   3.339 -1.3611  1.8956  0.3408
16799SOL     OW51586   8.951   0.346   3.416 -0.0447  0.2668 -0.1554
16799SOL    HW151587   8.956   0.442   3.444  0.4293  0.3411 -0.4901
16799SOL    HW251588   8.915   0.291   3.492 -0.1382  0.6791  0.1013
16800SOL     OW51589   0.085   0.628   3.193  0.0473 -0.1783 -0.1809
16800SOL    HW151590   0.092   0.542   3.245  0.8754 -1.9036 -3.0165
16800SOL    HW251591  -0.011   0.653   3.183 -0.2296 -1.0486  0.2224
16801SOL     OW51592   9.703   1.573   3.067 -0.5929 -0.0298  0.2541
16801SOL    HW151593   9.646   1.491   3.074 -0.0781 -0.3086  1.4897
16801SOL    HW251594   9.760   1.567   2.986  0.5559 -1.6454  1.1436
16802SOL     OW51595   8.784   9.553   5.677  0.3684 -0.6124  0.5398
16802SOL    HW151596   8.778   9.462   5.720 -1.0181 -0.0084  1.6684
16802SOL    HW251597   8.739   9.551   5.588  2.2429 -1.5817 -0.4018
16804SOL     OW51598   8.702   8.366   5.128 -0.7491 -0.1473 -0.8389
16804SOL    HW151599   8.690   8.296   5.199  0.2172  0.2835 -0.2535
16804SOL    HW251600   8.794   8.402   5.132 -1.2035  1.0661 -1.2452
16805SOL     OW51601   2.769   1.628   5.684 -0.4209 -0.0485 -0.7051
16805SOL    HW151602   2.793   1.638   5.587 -3.7954  0.7159 -1.5054
16805SOL    HW251603   2.793   1.535   5.714  1.4532 -0.0230 -2.0027
16806SOL     OW51604   9.513   1.864   3.938  0.3003 -0.4803  0.3424
16806SOL    HW151605   9.496   1.930   4.011  0.3217 -0.3842  0.2602
16806SOL    HW251606   9.535   1.775   3.978  0.8120 -0.3013  0.4546
16807SOL     OW51607   2.384   5.980   1.442 -0.8681  0.6078 -0.0710
16807SOL    HW151608   2.460   5.957   1.503 -2.5871  0.9171  2.2501
16807SOL    HW251609   2.382   5.915   1.366 -0.4837 -1.7026  1.8320
16808SOL     OW51610   5.386   8.645   5.936 -0.4509  0.1475  0.0116
16808SOL    HW151611   5.384   8.718   5.867 -1.0558 -0.2309 -0.3775
16808SOL    HW251612   5.443   8.571   5.903 -0.6761  0.0001 -0.0511
16809SOL     OW51613   4.832   9.390   0.099  0.6955  0.2059  0.0164
16809SOL    HW151614   4.878   9.354   0.018  0.6152 -0.6182  0.3230
16809SOL    HW251615   4.825   9.317   0.167 -1.2775  0.2610 -0.1121
16810SOL     OW51616   3.095   5.513   4.152  0.4161 -0.4817  0.3697
16810SOL    HW151617   3.069   5.463   4.235  2.0248 -1.7583  0.1281
16810SOL    HW251618   3.118   5.449   4.080  3.0749  0.5652  0.2265
16811SOL     OW51619   2.154   2.937   6.223 -0.1737  0.2242 -0.5875
16811SOL    HW151620   2.089   2.973   6.157  0.2303 -1.2027 -1.7835
16811SOL    HW251621   2.105   2.885   6.293 -0.5162  1.0384 -0.2078
16812SOL     OW51622   3.992   1.869   0.249 -0.1100 -0.2302 -0.2297
16812SOL    HW151623   3.940   1.799   0.201 -1.3432  1.1427 -0.9399
16812SOL    HW251624   3.959   1.877   0.343  0.6038 -1.1759  0.1070
16813SOL     OW51625   0.395   7.513   1.797  0.3641  0.0721 -0.1806
16813SOL    HW151626   0.301   7.479   1.788  0.5033 -0.0703 -1.0877
16813SOL    HW251627   0.393   7.611   1.814 -0.0360 -0.3213  2.2894
16814SOL     OW51628   6.785   1.323   3.386 -1.0047  0.7633  0.0046
16814SOL    HW151629   6.864   1.294   3.333 -2.1292  0.8647 -1.7742
16814SOL    HW251630   6.757   1.248   3.447  0.5144  0.7746  0.7177
16815SOL     OW51631   1.444   5.444   4.285 -0.5598  0.0029  0.2905
16815SOL    HW151632   1.393   5.394   4.355 -2.2074  0.4608 -0.5481
16815SOL    HW251633   1.474   5.380   4.214  0.5365 -0.3565  1.0692
16816SOL     OW51634   6.310   9.468   4.899 -0.3336 -0.3016  0.3313
16816SOL    HW151635   6.376   9.403   4.862  0.2062  1.5578 -2.0982
16816SOL    HW251636   6.358   9.534   4.957 -0.5064 -0.6038  0.8224
16817SOL     OW51637   9.776   1.450   1.531 -0.4733 -0.0802 -0.1647
16817SOL    HW151638   9.843   1.381   1.559 -1.0633 -1.4127 -1.9603
16817SOL    HW251639   9.684   1.415   1.546 -0.8051 -0.5896 -3.1004
16819SOL     OW51640   8.534   1.455   4.393  0.5681 -0.6067 -0.2041
16819SOL    HW151641   8.552   1.468   4.295 -0.2006  1.8720 -0.0543
16819SOL    HW251642   8.615   1.484   4.445  1.2098 -2.5063 -0.1044
16822SOL     OW51643   4.436   4.055   5.213 -0.6505  0.1304 -0.3174
16822SOL    HW151644   4.490   4.012   5.285  0.6892 -0.4335 -1.6177
16822SOL    HW251645   4.376   3.987   5.171 -1.9376  0.6171  0.7155
16823SOL     OW51646   1.491   6.234   4.682  0.2639 -0.2086  0.0515
16823SOL    HW151647   1.481   6.147   4.633  1.2820 -1.8391  2.6270
16823SOL    HW251648   1.580   6.275   4.659 -0.0804  0.0135 -0.9174
16824SOL     OW51649   3.744   1.971   0.562 -0.2519 -0.2404 -0.5351
16824SOL    HW151650   3.757   1.875   0.537  2.6865 -0.0766  0.1740
16824SOL    HW251651   3.727   1.977   0.661  0.0806 -0.0040 -0.4911
16825SOL     OW51652   0.216   6.442   1.236  0.2724 -0.6321  0.3862
16825SOL    HW151653   0.249   6.448   1.142  0.1288 -1.0425  0.3098
16825SOL    HW251654   0.173   6.529   1.262 -1.7202 -1.2612 -0.6868
16826SOL     OW51655   3.608   8.587   4.596 -0.1198 -0.6100 -0.0134
16826SOL    HW151656   3.654   8.604   4.509  1.7786 -0.9228  0.9047
16826SOL    HW251657   3.569   8.495   4.596  0.7612 -0.9843 -0.1508
16828SOL     OW51658   9.240   8.696   0.769 -0.1403  0.1516 -0.4263
16828SOL    HW151659   9.267   8.636   0.694 -2.0456 -1.0991 -0.1515
16828SOL    HW251660   9.209   8.641   0.846  0.5371  1.4597  0.7949
16829SOL     OW51661   1.538   5.868   5.983 -0.5411 -0.2708 -0.3110
16829SOL    HW151662   1.603   5.863   6.059 -0.4715 -0.4969 -0.3852
16829SOL    HW251663   1.583   5.836   5.899 -0.0892  1.5607 -0.7942
16830SOL     OW51664   3.318   6.544   4.769 -0.0166  0.3333  0.0740
16830SOL    HW151665   3.246   6.590   4.821  0.7018  0.9035  0.5923
16830SOL    HW251666   3.397   6.606   4.760  1.0484 -0.8614  0.9459
16831SOL     OW51667   8.894   3.321   6.358  0.1549 -0.2608  0.2315
16831SOL    HW151668   8.841   3.246   6.318  0.5248  0.5335 -1.7824
16831SOL    HW251669   8.831   3.393   6.389 -0.0422  0.0535 -0.8694
16832SOL     OW51670   2.643   5.784   2.871 -0.0356 -0.1786  0.1113
16832SOL    HW151671   2.701   5.836   2.934 -0.4615  0.6590 -0.1797
16832SOL    HW251672   2.670   5.805   2.777  1.1992 -2.0980 -0.0130
16833SOL     OW51673   4.336   3.882   1.169 -0.7739  0.7295 -0.0409
16833SOL    HW151674   4.256   3.823   1.159 -0.0754 -0.1719 -0.4062
16833SOL    HW251675   4.383   3.889   1.081 -0.3224  1.0721  0.2286
16836SOL     OW51676   1.316   6.273   0.855 -0.6942 -0.0824  0.2465
16836SOL    HW151677   1.318   6.216   0.773  0.4025 -1.2068  1.0281
16836SOL    HW251678   1.364   6.226   0.929  2.4703  2.9695  0.2090
16837SOL     OW51679   8.663   0.461   3.584 -0.2378 -1.1947 -0.2033
16837SOL    HW151680   8.713   0.377   3.605 -2.6222 -2.3193  1.1131
16837SOL    HW251681   8.570   0.439   3.556 -0.9407  1.0189  0.2798
16838SOL     OW51682   6.663   1.660   1.539 -0.5108 -0.4877  0.3559
16838SOL    HW151683   6.650   1.627   1.632  0.7282 -0.4653  0.5445
16838SOL    HW251684   6.607   1.607   1.476  0.0165 -1.6882  0.8932
16840SOL     OW51685   7.329   6.913   5.993 -0.2939  0.4875  0.4807
16840SOL    HW151686   7.251   6.885   6.049 -0.8655  1.1507  0.0258
16840SOL    HW251687   7.413   6.908   6.047 -0.4356 -1.6383  0.5569
16841SOL     OW51688   7.720   0.280   4.216  0.3301  0.1166 -0.1702
16841SOL    HW151689   7.667   0.217   4.161 -1.9988  1.7347  0.1243
16841SOL    HW251690   7.782   0.332   4.157 -1.5153  1.2237 -1.1826
16842SOL     OW51691   0.999   4.488   2.448 -0.2788 -0.0493 -0.3334
16842SOL    HW151692   1.065   4.484   2.523 -0.7338  0.3440  0.0952
16842SOL    HW251693   1.025   4.561   2.385 -0.4501  0.2834 -0.0211
16843SOL     OW51694   9.003   4.738   4.716 -0.2345  0.0883 -0.0875
16843SOL    HW151695   8.964   4.770   4.630 -1.2452 -0.3538  0.2006
16843SOL    HW251696   8.973   4.645   4.734 -0.1984  0.2513  0.8465
16844SOL     OW51697   6.654   1.514   1.268 -0.1676 -0.1784  0.4533
16844SOL    HW151698   6.692   1.571   1.195  0.4571 -0.9248  0.1731
16844SOL    HW251699   6.727   1.489   1.331 -0.0792 -1.9548 -0.3052
16845SOL     OW51700   3.183   1.685   5.665  0.0375 -0.6444  0.2858
16845SOL    HW151701   3.146   1.760   5.611 -0.8104 -1.2484  0.0079
16845SOL    HW251702   3.244   1.630   5.610 -1.1696 -1.5167 -0.2006
16846SOL     OW51703   3.506   1.445   4.454 -0.2888 -0.4225  0.0204
16846SOL    HW151704   3.583   1.390   4.487  1.3415  1.2493 -0.8936
16846SOL    HW251705   3.508   1.449   4.354 -0.3135  1.3646  0.0741
16849SOL     OW51706   2.356   8.548   1.162  0.4780  0.2258 -0.0090
16849SOL    HW151707   2.293   8.613   1.204 -0.4197 -1.0824  0.7321
16849SOL    HW251708   2.314   8.509   1.080  1.1671  0.8492 -0.6673
16850SOL     OW51709   8.206   1.939   2.287 -0.2914 -0.3405  0.2684
16850SOL    HW151710   8.150   2.021   2.278 -0.8394 -0.7778 -0.4028
16850SOL    HW251711   8.173   1.869   2.223 -0.9563 -1.7144  2.0706
16851SOL     OW51712   2.684   7.813   5.121  0.1210 -0.5973 -0.3993
16851SOL    HW151713   2.744   7.891   5.104 -0.5547 -0.1720 -0.8883
16851SOL    HW251714   2.594   7.832   5.082 -0.9075 -0.4321  2.0037
16855SOL     OW51715   7.125   3.325   1.208 -0.7747  0.1770 -0.3063
16855SOL    HW151716   7.057   3.294   1.142 -0.0694 -0.8024 -0.5824
16855SOL    HW251717   7.127   3.425   1.210 -3.4325  0.2539  0.9421
16857SOL     OW51718   6.657   2.513   6.056  0.5803 -1.0759  0.1701
16857SOL    HW151719   6.653   2.561   5.968  2.3445  1.0471  1.2213
16857SOL    HW251720   6.604   2.564   6.124  2.1534 -0.7973  1.2065
16858SOL     OW51721   9.707   1.372   1.105 -0.2292 -0.3591 -1.0239
16858SOL    HW151722   9.704   1.462   1.062 -0.5826  0.9176  1.5673
16858SOL    HW251723   9.621   1.355   1.153  1.2101 -0.4997  1.5573
16861SOL     OW51724   6.443   1.374   3.000  0.1967 -0.4009 -0.2992
16861SOL    HW151725   6.437   1.462   2.954 -1.0409 -0.7045 -0.7299
16861SOL    HW251726   6.501   1.382   3.081 -2.7363  1.6651  1.6783
16862SOL     OW51727   3.227   7.793   5.976 -0.1084  0.6621 -0.2426
16862SOL    HW151728   3.249   7.742   6.059 -1.0651  1.4758  0.5064
16862SOL    HW251729   3.206   7.728   5.902  2.8720 -0.1165 -0.4736
16863SOL     OW51730   3.918   7.763   1.656  0.2356 -0.2291  0.4485
16863SOL    HW151731   3.963   7.845   1.693 -3.2262  1.4859  1.0674
16863SOL    HW251732   3.847   7.790   1.592 -0.5991 -2.8137  0.2211
16864SOL     OW51733   3.391   7.240   1.046  0.0816  0.0872 -0.0042
16864SOL    HW151734   3.335   7.313   1.006 -1.5680 -0.8668  0.5038
16864SOL    HW251735   3.423   7.178   0.975 -1.0281 -0.3779 -0.1052
16865SOL     OW51736   8.792   5.284   4.648 -0.0286  0.0954  0.2866
16865SOL    HW151737   8.853   5.224   4.597 -2.8903 -2.0963 -0.6590
16865SOL    HW251738   8.806   5.379   4.619 -1.6689 -1.0782 -4.7356
16866SOL     OW51739   1.533   9.852   4.466  0.4307 -0.1814  0.0178
16866SOL    HW151740   1.576   9.769   4.430 -2.2206 -0.8769 -1.6463
16866SOL    HW251741   1.604   9.913   4.502  2.7347 -1.5317 -2.0969
16869SOL     OW51742   1.611   9.499   2.563  0.5052 -0.2029 -0.5219
16869SOL    HW151743   1.518   9.463   2.573  1.4793 -2.5727  0.4431
16869SOL    HW251744   1.668   9.431   2.517  2.3269  0.2357  1.0055
16870SOL     OW51745   0.605   0.509   2.118 -0.6356  0.5954 -0.0275
16870SOL    HW151746   0.635   0.472   2.206 -1.4013  1.3681  0.5644
16870SOL    HW251747   0.591   0.607   2.126  0.5945  0.8874 -1.3820
16873SOL     OW51748   8.381   2.511   0.848  0.4055 -0.4666 -0.2292
16873SOL    HW151749   8.419   2.568   0.776  1.2400 -1.2102 -0.3799
16873SOL    HW251750   8.399   2.553   0.937  0.0754  0.0457 -0.4028
16874SOL     OW51751   1.417   9.499   1.408  0.5611 -0.1355 -0.3764
16874SOL    HW151752   1.402   9.401   1.424 -0.5373  0.0396 -0.2957
16874SOL    HW251753   1.349   9.551   1.459 -1.8976  0.5072 -4.1188
16875SOL     OW51754   8.219   7.559   3.077  0.0993 -0.3216 -0.0753
16875SOL    HW151755   8.183   7.540   3.168 -0.4499 -0.3933 -0.3043
16875SOL    HW251756   8.287   7.490   3.053 -0.4256 -0.8474 -0.0845
16876SOL     OW51757   8.280   0.105   6.261  0.3063  0.0379 -0.3665
16876SOL    HW151758   8.303   0.159   6.180  2.0256  0.7716  0.5736
16876SOL    HW251759   8.227   0.025   6.235 -0.9352  1.3498 -1.9772
16877SOL     OW51760   2.681   7.080   0.819  0.4728 -0.1777 -0.2573
16877SOL    HW151761   2.684   7.028   0.733  0.8067  0.2239 -0.4937
16877SOL    HW251762   2.590   7.074   0.859  0.1257  0.1983 -0.9911
16878SOL     OW51763   8.947   0.693   0.962  0.1745 -0.4290  0.2595
16878SOL    HW151764   8.998   0.617   1.002  0.7878 -1.0232 -1.5640
16878SOL    HW251765   8.945   0.682   0.862 -0.5771  1.4250  0.0528
16879SOL     OW51766   3.061   2.496   0.352 -0.2446 -0.0359 -0.2250
16879SOL    HW151767   3.025   2.421   0.409 -1.3863  0.2141 -0.5920
16879SOL    HW251768   3.160   2.494   0.353 -0.2624 -1.1784  0.2781
16880SOL     OW51769   2.963   7.855   4.480  0.4356  0.2032 -0.5301
16880SOL    HW151770   3.043   7.885   4.428  1.4239 -0.7473  0.4204
16880SOL    HW251771   2.909   7.792   4.425  0.0056  1.3264 -1.4036
16881SOL     OW51772   1.150   8.373   2.075  0.2538 -0.1595 -0.3384
16881SOL    HW151773   1.063   8.419   2.057  0.3642 -0.5811 -2.0065
16881SOL    HW251774   1.134   8.275   2.089  0.5843 -0.4980 -2.1183
16883SOL     OW51775   3.567   0.006   4.334 -0.4363 -0.1229 -0.0478
16883SOL    HW151776   3.565  -0.076   4.277  0.0226 -0.7412  0.8234
16883SOL    HW251777   3.483   0.010   4.388 -0.6368  0.1998 -0.3710
16884SOL     OW51778   3.227   3.854   4.679  0.1838 -0.2933  0.0073
16884SOL    HW151779   3.274   3.828   4.762  1.3000 -0.2034 -0.5902
16884SOL    HW251780   3.278   3.927   4.632 -1.2959  0.8480  0.0972
16885SOL     OW51781   9.629   7.415   0.719 -0.3698 -0.2667  0.5844
16885SOL    HW151782   9.563   7.384   0.651 -0.9333  1.4855  0.2898
16885SOL    HW251783   9.585   7.419   0.809 -0.2399 -0.5337  0.6592
16886SOL     OW51784   0.762   3.924   4.867 -0.6848 -0.0402 -0.2076
16886SOL    HW151785   0.788   3.908   4.771 -0.4670  0.4615 -0.2296
16886SOL    HW251786   0.767   3.837   4.917  1.3135  0.0888 -0.1428
16887SOL     OW51787   3.339   6.640   5.907  0.8939  0.2841  0.4237
16887SOL    HW151788   3.368   6.616   5.815  0.8221  0.6452  0.3049
16887SOL    HW251789   3.376   6.730   5.931 -0.5723  0.9881  0.0691
16888SOL     OW51790   9.227   3.324   0.852 -0.3648  0.1033  0.1777
16888SOL    HW151791   9.293   3.255   0.823 -0.8046 -0.1455 -0.2363
16888SOL    HW251792   9.225   3.399   0.787 -1.3340 -0.4443 -0.4321
16889SOL     OW51793   3.973   8.440   4.843 -0.0942 -0.0199 -0.0572
16889SOL    HW151794   4.039   8.444   4.917 -0.5143 -0.5139  0.3475
16889SOL    HW251795   3.895   8.383   4.870  0.7234 -1.9614 -1.6124
16891SOL     OW51796   6.889   9.456   4.597 -0.1425  0.0767 -0.0878
16891SOL    HW151797   6.941   9.370   4.595 -1.9739 -1.0660  0.4177
16891SOL    HW251798   6.926   9.518   4.528  0.1121 -1.7717 -1.6721
16892SOL     OW51799   2.881   0.721   4.877 -0.2132 -0.4996  0.5144
16892SOL    HW151800   2.817   0.798   4.883 -0.6767 -0.8525  0.1314
16892SOL    HW251801   2.968   0.746   4.920  0.0676  0.6810 -0.6796
16893SOL     OW51802   0.482   3.792   3.218 -0.1336  0.5218  0.0673
16893SOL    HW151803   0.572   3.835   3.224  0.3458 -0.6604  1.4242
16893SOL    HW251804   0.485   3.720   3.149  0.3473 -0.4209  1.0572
16894SOL     OW51805   4.605   6.009   3.369  0.0960  0.2736  0.5656
16894SOL    HW151806   4.649   5.984   3.283  2.0697  1.7838  1.0948
16894SOL    HW251807   4.607   6.108   3.381  0.9276  0.0271  2.8652
16896SOL     OW51808   2.850   6.287   2.105 -0.0413 -0.4539  0.2251
16896SOL    HW151809   2.907   6.217   2.062  0.7616  0.2728  0.1035
16896SOL    HW251810   2.756   6.252   2.114  0.3519 -1.5399  0.1726
16897SOL     OW51811   0.792   0.613   5.621 -0.5705 -0.1056 -0.1768
16897SOL    HW151812   0.702   0.634   5.584 -2.3255 -2.7307  2.3530
16897SOL    HW251813   0.810   0.515   5.612  1.9685  0.3546 -0.4645
16899SOL     OW51814   7.746   0.985   5.867  0.5368  0.3380  0.1776
16899SOL    HW151815   7.662   0.932   5.881  0.4782  0.5060  0.4607
16899SOL    HW251816   7.825   0.923   5.868  0.4083  0.1625 -0.2163
16900SOL     OW51817   4.081   9.112   0.546 -0.2384  0.6428  0.4314
16900SOL    HW151818   4.016   9.185   0.525  0.5775  1.5154  0.8732
16900SOL    HW251819   4.063   9.075   0.637 -0.3059  0.6754  0.4308
16901SOL     OW51820   6.751   3.191   1.787 -0.2325 -0.4070  0.2564
16901SOL    HW151821   6.850   3.186   1.797 -0.1925 -0.4274 -0.1313
16901SOL    HW251822   6.711   3.234   1.868  0.3093  1.7027 -0.5776
16902SOL     OW51823   0.860   6.243   6.354 -0.3670  0.5715  0.1126
16902SOL    HW151824   0.851   6.279   6.261 -2.5308  1.4996  0.6506
16902SOL    HW251825   0.823   6.150   6.357  1.5621 -0.2475 -0.3735
16903SOL     OW51826   3.732   3.505   4.091  0.6842 -0.7977 -0.0865
16903SOL    HW151827   3.718   3.603   4.076 -1.0123 -0.9901  0.1669
16903SOL    HW251828   3.826   3.489   4.121  0.5361  0.9254  1.3593
16905SOL     OW51829   3.915   7.999   1.350 -0.3539  0.0388 -0.9718
16905SOL    HW151830   3.881   7.975   1.259 -0.0100 -0.1649 -1.0511
16905SOL    HW251831   3.839   8.026   1.409 -0.7042 -0.8346 -1.0141
16906SOL     OW51832   3.792   5.521   0.358 -0.2862  0.2478  0.0291
16906SOL    HW151833   3.733   5.450   0.321 -0.7478 -0.7206  2.5610
16906SOL    HW251834   3.885   5.486   0.368 -0.5952 -0.1601  1.6376
16907SOL     OW51835   4.195   2.490   1.373 -0.1919  0.4908  0.1904
16907SOL    HW151836   4.188   2.513   1.470  2.7923  0.1719  0.5331
16907SOL    HW251837   4.237   2.400   1.363  0.5804  0.9948 -1.4013
16908SOL     OW51838   9.229   0.193   6.005  0.4122  0.3622 -0.4528
16908SOL    HW151839   9.228   0.272   6.065  1.2863  0.1522 -0.1527
16908SOL    HW251840   9.296   0.126   6.038 -0.3142 -0.5037 -0.6957
16909SOL     OW51841   0.248   5.584   1.236  0.0771 -0.1525  1.1939
16909SOL    HW151842   0.181   5.513   1.216  0.9714 -0.7887  0.3856
16909SOL    HW251843   0.231   5.664   1.179  0.8729 -0.8659 -0.0621
16910SOL     OW51844   6.092   5.904   0.464  0.0441  0.0149 -0.9043
16910SOL    HW151845   6.012   5.846   0.482 -0.5551  0.8864 -0.6890
16910SOL    HW251846   6.141   5.921   0.550 -0.4394  0.7536 -0.7626
16911SOL     OW51847   5.247   1.108   5.323 -0.4933  0.7064  0.8366
16911SOL    HW151848   5.169   1.046   5.316 -1.1792  1.5659  0.8150
16911SOL    HW251849   5.282   1.108   5.417 -0.4271  0.2244  0.8155
16915SOL     OW51850   6.289   2.654   4.579  0.6578 -0.8102  0.1430
16915SOL    HW151851   6.254   2.740   4.615 -0.0833 -0.3356 -1.6853
16915SOL    HW251852   6.261   2.579   4.639 -0.8342 -0.0753  0.3828
16916SOL     OW51853   4.009   4.472   0.203  0.0909  0.9095  0.0004
16916SOL    HW151854   4.089   4.414   0.187 -0.7471  0.1306 -1.5618
16916SOL    HW251855   4.031   4.567   0.181  0.3215  0.5543 -1.3704
16918SOL     OW51856   8.315   9.900   1.159  0.0876  0.3779 -0.1928
16918SOL    HW151857   8.340   9.963   1.233 -2.4949  2.2356 -0.8409
16918SOL    HW251858   8.397   9.853   1.127  1.5435  0.8886  2.6072
16920SOL     OW51859   2.801   4.751   4.805 -0.6513 -0.1165 -0.1607
16920SOL    HW151860   2.742   4.695   4.747  1.1224 -2.5846  0.2918
16920SOL    HW251861   2.841   4.693   4.876  1.7405  1.6406 -0.0148
16921SOL     OW51862   5.817   8.829   5.240  0.0646 -0.2921 -0.2847
16921SOL    HW151863   5.788   8.887   5.164  1.0082  3.1636  1.9113
16921SOL    HW251864   5.916   8.815   5.235 -0.0883 -1.3476 -0.5139
16922SOL     OW51865   6.930   3.425   1.009 -0.0484  0.1795  0.5308
16922SOL    HW151866   6.957   3.341   0.961  0.8940  0.2383  0.9633
16922SOL    HW251867   6.982   3.502   0.973  1.0378  0.1468  1.9918
16923SOL     OW51868   9.863   9.731   3.810  0.3487 -0.2184  0.0224
16923SOL    HW151869   9.786   9.692   3.760  0.6178 -1.0713  0.2720
16923SOL    HW251870   9.839   9.824   3.840 -0.2040 -0.0999 -0.7679
16924SOL     OW51871   4.110   6.164   2.100 -0.4901  0.0758 -0.2835
16924SOL    HW151872   4.170   6.173   2.021  0.9102 -0.1378  0.7500
16924SOL    HW251873   4.153   6.204   2.180 -0.4911 -2.5218  1.0928
16925SOL     OW51874   4.779   8.949   2.842 -0.0397  0.5440  0.3937
16925SOL    HW151875   4.861   8.965   2.895  0.3531 -0.5549  0.1347
16925SOL    HW251876   4.783   9.001   2.757 -0.3701  1.7818  1.1245
16927SOL     OW51877   1.521   7.278   5.846 -1.3993  0.2901  0.1696
16927SOL    HW151878   1.445   7.277   5.781 -1.7369 -2.3871  0.5466
16927SOL    HW251879   1.597   7.225   5.810 -0.5317  1.0939  0.7717
16928SOL     OW51880   3.217   7.911   4.965 -0.0454 -0.1986 -0.0778
16928SOL    HW151881   3.293   7.977   4.966  0.2334 -0.5232  0.6034
16928SOL    HW251882   3.243   7.832   4.910  0.5062 -0.7600  0.9734
16929SOL     OW51883   1.821   8.356   1.345  0.7385  0.7656 -0.2397
16929SOL    HW151884   1.815   8.425   1.417 -2.5610  2.0172 -1.6209
16929SOL    HW251885   1.899   8.377   1.285  1.4307  1.6599  0.9369
16930SOL     OW51886   8.335   0.191   5.996  0.0467 -0.0923 -0.2928
16930SOL    HW151887   8.314   0.229   5.906 -0.2806  0.9392  0.2174
16930SOL    HW251888   8.337   0.091   5.990  3.4065  0.0254 -2.2134
16931SOL     OW51889   1.494   7.186   0.015  0.1604 -0.6792 -0.6880
16931SOL    HW151890   1.520   7.090   0.020  0.9829 -0.4463 -0.3605
16931SOL    HW251891   1.564   7.242   0.061 -0.7842 -0.0111 -0.0497
16932SOL     OW51892   1.147   0.731   3.166  0.7636 -0.3028 -0.0368
16932SOL    HW151893   1.142   0.640   3.125 -0.1759 -0.8961  1.3563
16932SOL    HW251894   1.094   0.732   3.251  2.2424  1.0384  0.8895
16933SOL     OW51895   8.326   4.654   0.285  0.2691  0.9114 -0.1427
16933SOL    HW151896   8.280   4.676   0.372  0.2965  1.4037 -0.2501
16933SOL    HW251897   8.416   4.698   0.283  1.1745 -0.8858  0.4955
16934SOL     OW51898   0.299   9.085   5.561 -0.5671 -0.0203  0.2439
16934SOL    HW151899   0.357   9.012   5.596  0.6561  0.1260 -1.4131
16934SOL    HW251900   0.203   9.057   5.569 -0.0904 -2.4048 -1.5260
16935SOL     OW51901   9.386   8.466   1.602  0.1379  0.0852  0.3935
16935SOL    HW151902   9.330   8.471   1.519  1.4751 -0.5000 -0.5441
16935SOL    HW251903   9.460   8.401   1.589  0.1004 -0.3521  2.2129
16936SOL     OW51904   7.717   3.301   4.151  0.1564 -0.2055 -0.2197
16936SOL    HW151905   7.644   3.340   4.207 -0.9039  0.0965 -1.7758
16936SOL    HW251906   7.753   3.370   4.088  0.0588 -1.0181 -1.1876
16937SOL     OW51907   5.856   1.116   4.921 -0.0010 -0.2929  0.0565
16937SOL    HW151908   5.787   1.124   4.994  1.0740  3.3753  0.7836
16937SOL    HW251909   5.817   1.149   4.835  0.8426  2.0662  0.5295
16938SOL     OW51910   1.583   8.258   4.571 -0.3443 -0.0567 -0.1498
16938SOL    HW151911   1.657   8.286   4.631  1.0154 -0.0197 -1.8040
16938SOL    HW251912   1.544   8.172   4.604  0.1930  0.1199  0.9487
16939SOL     OW51913   2.854   8.797   0.942  0.0859  0.3346  0.1828
16939SOL    HW151914   2.940   8.818   0.990  1.0134  1.1340 -1.7839
16939SOL    HW251915   2.844   8.698   0.934  1.8315  0.2476 -1.3132
16940SOL     OW51916   9.506   9.636   0.029  0.8815 -0.6963  0.4042
16940SOL    HW151917   9.434   9.670  -0.032  0.4133  0.0647  1.3662
16940SOL    HW251918   9.553   9.559  -0.015  0.9072  0.1797 -1.1334
16941SOL     OW51919   3.658   4.005   2.742 -0.2214 -0.1473 -0.0732
16941SOL    HW151920   3.692   3.973   2.654  0.1215  1.7111 -0.6265
16941SOL    HW251921   3.681   4.101   2.755  1.3784 -0.8552  2.8773
16942SOL     OW51922   7.916   8.738   2.478  0.0653 -0.2098  0.6167
16942SOL    HW151923   7.868   8.729   2.391  0.1648 -0.5970  0.6037
16942SOL    HW251924   7.881   8.818   2.527  1.0648  0.9190 -0.4571
16943SOL     OW51925   7.605   8.894   3.854  0.0832  0.1034  0.2653
16943SOL    HW151926   7.703   8.901   3.839  0.2571 -1.2409  0.6455
16943SOL    HW251927   7.588   8.835   3.933 -1.0503 -0.3699 -0.3207
16944SOL     OW51928   0.168   5.887   2.838 -0.1078  0.0907 -0.2515
16944SOL    HW151929   0.208   5.847   2.756  0.2054 -0.4170  0.1439
16944SOL    HW251930   0.073   5.857   2.847 -0.1289  0.1123 -0.4030
16945SOL     OW51931   8.731   1.079   5.802 -0.2536 -0.6332  0.0825
16945SOL    HW151932   8.821   1.050   5.834  0.4603  2.0819  0.6880
16945SOL    HW251933   8.727   1.179   5.800 -1.9604 -0.6785 -3.5550
16946SOL     OW51934   9.683   6.169   5.181 -0.5296  0.1177  0.0728
16946SOL    HW151935   9.614   6.212   5.123 -2.1842 -1.2039  1.0272
16946SOL    HW251936   9.686   6.217   5.269  1.5527  1.7362 -0.8096
16947SOL     OW51937   2.942   4.157   0.006 -0.4788  0.0692 -0.6735
16947SOL    HW151938   2.989   4.109  -0.068  0.2008  0.6132 -0.6051
16947SOL    HW251939   2.993   4.145   0.091  0.1417  1.5455 -0.8093
16948SOL     OW51940   9.115   6.558   0.908 -0.4704  0.1002  0.1028
16948SOL    HW151941   9.211   6.587   0.917 -1.2790  2.3576  1.9367
16948SOL    HW251942   9.094   6.546   0.811  0.8343  2.6429 -0.5439
16949SOL     OW51943   5.560   4.552   0.715 -0.2306  0.2333 -0.0851
16949SOL    HW151944   5.539   4.532   0.619 -1.1190  0.4213  0.0677
16949SOL    HW251945   5.659   4.547   0.729 -0.0664  0.5613 -1.0938
16950SOL     OW51946   0.299   2.881   5.676  0.2091  0.9578  0.1992
16950SOL    HW151947   0.302   2.922   5.585 -1.4271  0.1997 -0.2133
16950SOL    HW251948   0.356   2.798   5.676 -0.4979  0.4618 -0.4016
16951SOL     OW51949   8.293   7.257   3.558 -0.0857 -0.8156  0.4964
16951SOL    HW151950   8.249   7.346   3.570 -0.2394 -0.6789 -1.0000
16951SOL    HW251951   8.252   7.191   3.621 -1.9364 -0.4980 -0.3299
16952SOL     OW51952   5.954   9.062   5.666  0.1754 -0.4667 -0.3565
16952SOL    HW151953   5.959   8.970   5.626 -1.0109  0.5431 -2.9625
16952SOL    HW251954   5.963   9.130   5.593  1.7915  1.5189  1.6363
16954SOL     OW51955   7.607   7.950   4.194 -0.2219 -0.0866 -0.9455
16954SOL    HW151956   7.698   7.955   4.153  0.8043 -2.2224  0.9815
16954SOL    HW251957   7.555   7.876   4.150 -0.4583  0.0581 -0.9115
16955SOL     OW51958   9.921   6.238   1.866 -0.1546  0.3811 -0.5823
16955SOL    HW151959   9.845   6.174   1.868  0.3954 -0.2197  2.3128
16955SOL    HW251960   9.887   6.330   1.849 -1.2256 -0.2577 -1.9880
16956SOL     OW51961   1.977   4.472   3.341 -0.0382  0.2423 -0.7411
16956SOL    HW151962   1.885   4.508   3.327  0.2157  1.1112 -0.2657
16956SOL    HW251963   2.032   4.488   3.259 -0.4629 -0.7859 -1.2355
16958SOL     OW51964   0.072   9.598   3.678 -0.0050  0.3054  0.6397
16958SOL    HW151965   0.142   9.636   3.739  0.2429  0.6398  0.1499
16958SOL    HW251966  -0.018   9.633   3.706 -0.0530 -0.6012  1.6438
16959SOL     OW51967   2.886   6.797   0.797  0.5194  0.2503 -0.2915
16959SOL    HW151968   2.897   6.701   0.822 -1.6754  0.4754  1.7897
16959SOL    HW251969   2.795   6.810   0.758  0.4503  1.6498  0.3149
16960SOL     OW51970   0.220   5.770   1.464 -0.6265  0.4370 -0.2788
16960SOL    HW151971   0.221   5.692   1.402 -1.3379  0.9540 -0.9433
16960SOL    HW251972   0.157   5.751   1.540  0.9806 -0.6016  0.8420
16961SOL     OW51973   3.945   3.369   1.721  0.3835 -0.3280  0.2366
16961SOL    HW151974   3.983   3.449   1.769 -0.5027 -0.5329  1.2954
16961SOL    HW251975   3.894   3.399   1.641 -0.7683  0.2610  1.1680
16963SOL     OW51976   8.913   3.983   1.628  0.1889 -0.5041 -0.1216
16963SOL    HW151977   8.997   4.029   1.654 -0.4052  0.0576  0.7898
16963SOL    HW251978   8.920   3.885   1.651  0.4058 -0.3693  0.3849
16964SOL     OW51979   8.405   5.809   3.668  0.5108 -0.4663  0.3868
16964SOL    HW151980   8.382   5.896   3.623 -1.9583 -0.4540  1.6298
16964SOL    HW251981   8.471   5.826   3.741  1.0686  0.1536 -0.2482
16965SOL     OW51982   2.703   0.921   2.885  0.6836  0.0955  0.2564
16965SOL    HW151983   2.706   0.880   2.976 -1.6620 -0.5536  0.0766
16965SOL    HW251984   2.689   1.020   2.893  0.8643  0.0927  0.6010
16966SOL     OW51985   3.339   3.421   4.174  0.0183  0.4976  0.3856
16966SOL    HW151986   3.345   3.337   4.121 -0.8630  0.5030  0.2677
16966SOL    HW251987   3.418   3.428   4.235  0.3527 -0.1600  0.0333
16967SOL     OW51988   4.532   5.040   2.346  0.3919 -0.2459 -0.2490
16967SOL    HW151989   4.530   5.064   2.443 -0.5550 -0.4396 -0.2150
16967SOL    HW251990   4.623   5.057   2.310  0.4123  1.0132  0.3742
16968SOL     OW51991   3.442   8.298   2.897 -0.3986 -0.1085 -0.4155
16968SOL    HW151992   3.369   8.330   2.957 -1.0764  0.2261 -1.3980
16968SOL    HW251993   3.509   8.371   2.885 -0.3022 -0.1497 -0.1112
16969SOL     OW51994   6.370   7.510   4.104  0.2326  0.4156  0.0522
16969SOL    HW151995   6.372   7.480   4.009  2.2059 -0.9882  0.5115
16969SOL    HW251996   6.283   7.485   4.146  0.1511 -0.7639 -0.8211
16971SOL     OW51997   8.913   1.858   5.364  0.3089  0.0123 -0.1471
16971SOL    HW151998   9.002   1.865   5.318  0.3205  0.5760 -0.0405
16971SOL    HW251999   8.860   1.784   5.322  0.5250  0.1797 -0.7193
16972SOL     OW52000   3.689   8.167   4.726  0.5952 -0.0538 -0.6202
16972SOL    HW152001   3.781   8.141   4.700  0.7599 -1.6687  1.4963
16972SOL    HW252002   3.626   8.091   4.708 -0.0815  0.5017 -0.6359
16974SOL     OW52003   3.397   6.456   0.749  0.1255  0.0238 -0.6754
16974SOL    HW152004   3.468   6.465   0.679 -0.5339  0.7716 -1.2561
16974SOL    HW252005   3.318   6.407   0.710  0.7564 -1.8166  0.2958
16975SOL     OW52006   4.832   2.319   1.770 -0.1717  0.3915 -0.3320
16975SOL    HW152007   4.803   2.406   1.728 -0.8685  0.7990  0.9780
16975SOL    HW252008   4.875   2.338   1.858  0.9709 -0.4948 -0.6997
16976SOL     OW52009   4.189   5.629   2.502 -0.3723  0.4385  0.3606
16976SOL    HW152010   4.091   5.625   2.481  0.0581 -0.0785 -1.6426
16976SOL    HW252011   4.221   5.539   2.530  0.0498 -0.0402 -1.5542
16977SOL     OW52012   9.062   6.654   3.661 -0.4036  0.0166  0.3450
16977SOL    HW152013   9.043   6.560   3.631  0.6877 -0.5685  1.4418
16977SOL    HW252014   9.157   6.676   3.641 -0.4968  0.6791  0.6399
16978SOL     OW52015   6.619   0.278   3.504  0.6612 -0.2365 -0.0328
16978SOL    HW152016   6.605   0.253   3.600  0.2552 -0.7440 -0.2165
16978SOL    HW252017   6.535   0.262   3.453  0.8749  0.0346 -0.4745
16979SOL     OW52018   0.836   6.899   0.866 -0.7188 -0.2941  0.5736
16979SOL    HW152019   0.797   6.939   0.948 -0.1247  0.8767  0.2847
16979SOL    HW252020   0.776   6.916   0.788 -0.9336 -0.7958  0.6253
16981SOL     OW52021   1.805   7.452   5.847 -0.2707 -0.1656 -0.3795
16981SOL    HW152022   1.709   7.443   5.822 -0.4081 -1.3263  0.4875
16981SOL    HW252023   1.857   7.375   5.809 -0.1309 -0.8518  1.1306
16982SOL     OW52024   1.976   8.224   3.078  0.0258  0.1520  0.2566
16982SOL    HW152025   1.990   8.238   2.980  1.7386 -1.4863  0.2333
16982SOL    HW252026   1.892   8.271   3.107 -0.7281  0.3089 -2.0607
16983SOL     OW52027   7.464   0.621   0.370  0.0054  0.2380 -0.1556
16983SOL    HW152028   7.474   0.692   0.440  0.3819  0.6815 -0.6492
16983SOL    HW252029   7.526   0.641   0.294 -0.5436 -0.1239 -0.7051
16984SOL     OW52030   7.703   6.829   1.389 -0.3769  0.3068 -0.3056
16984SOL    HW152031   7.657   6.889   1.454 -1.9101 -0.2682 -0.8365
16984SOL    HW252032   7.644   6.751   1.368  1.5991 -1.4436  0.4303
16985SOL     OW52033   0.575   1.845   3.575  0.0749  0.2231  0.0669
16985SOL    HW152034   0.670   1.815   3.582 -0.2229 -1.0770 -1.3489
16985SOL    HW252035   0.573   1.942   3.552  1.0412  0.4865  1.0338
16986SOL     OW52036   0.936   4.203   2.417  0.0802 -0.0772 -0.3095
16986SOL    HW152037   0.886   4.157   2.343 -0.6101 -0.7288  0.5564
16986SOL    HW252038   0.928   4.302   2.405 -1.7204 -0.1692  0.0109
16987SOL     OW52039   0.682   4.329   0.135 -0.0859 -0.4123 -0.2181
16987SOL    HW152040   0.603   4.271   0.118  0.5098 -1.6555  1.1538
16987SOL    HW252041   0.681   4.406   0.072 -1.3569 -1.4446 -1.4860
16988SOL     OW52042   7.839   0.209   5.323  0.2759  0.6421  0.1396
16988SOL    HW152043   7.758   0.265   5.304  0.0785  0.4081  0.2797
16988SOL    HW252044   7.895   0.203   5.241  1.2906  2.6398  0.6549
16990SOL     OW52045   6.896   1.183   2.019 -0.3209 -0.8308  0.3033
16990SOL    HW152046   6.866   1.270   2.058 -0.4928 -0.6086 -0.3078
16990SOL    HW252047   6.911   1.116   2.092  2.3657  0.4735  1.0154
16991SOL     OW52048   6.081   1.036   2.240 -0.0987 -0.4200 -0.0069
16991SOL    HW152049   6.093   0.980   2.322 -1.5767  0.2593  0.6820
16991SOL    HW252050   6.020   1.113   2.260  1.1909  0.9531 -1.1803
16992SOL     OW52051   4.000   2.809   0.164 -0.0534  0.1616  0.2473
16992SOL    HW152052   3.986   2.834   0.068  0.7871 -3.5325 -0.9479
16992SOL    HW252053   4.097   2.796   0.181 -0.2080  0.6763  1.5958
16993SOL     OW52054   8.595   0.682   5.465  0.1542 -0.0862 -0.5960
16993SOL    HW152055   8.650   0.624   5.405 -1.9625 -0.0992 -2.5792
16993SOL    HW252056   8.533   0.625   5.518  0.3179  0.1169 -0.1858
16994SOL     OW52057   2.169   6.209   4.148  0.2260  0.4273  0.2216
16994SOL    HW152058   2.153   6.308   4.144  0.7925  0.4797 -0.9956
16994SOL    HW252059   2.237   6.190   4.219  1.0636  1.0455 -0.3997
16995SOL     OW52060   3.905   7.968   3.621  0.3337 -0.0219  0.1053
16995SOL    HW152061   3.948   7.885   3.657 -3.2761 -2.1074 -0.1283
16995SOL    HW252062   3.878   7.952   3.526 -1.2017  1.0657  0.3460
16996SOL     OW52063   4.520   7.809   2.898 -0.2236  0.0907  0.3558
16996SOL    HW152064   4.460   7.831   2.820  0.1302 -0.5051 -0.0937
16996SOL    HW252065   4.601   7.867   2.895 -0.0560 -0.1506  0.0858
16997SOL     OW52066   1.390   4.923   0.849  0.2681 -0.1552  0.5680
16997SOL    HW152067   1.399   4.883   0.758  0.1045  0.3431  0.3304
16997SOL    HW252068   1.297   4.958   0.861  0.4693  0.3426  0.6933
16998SOL     OW52069   2.049   1.832   2.599 -0.1721 -0.0428  0.5683
16998SOL    HW152070   2.063   1.762   2.529 -2.1820  0.1015 -0.0120
16998SOL    HW252071   1.989   1.903   2.563 -0.9226  0.2309  2.3129
16999SOL     OW52072   2.952   1.749   4.050 -0.6494  0.1226 -0.0680
16999SOL    HW152073   3.020   1.744   3.977 -0.9704  0.4500 -0.3973
16999SOL    HW252074   2.939   1.659   4.091 -0.3333 -0.0248 -0.2962
17000SOL     OW52075   3.960   5.605   2.060  0.0413  0.4779 -0.2090
17000SOL    HW152076   3.895   5.663   2.108  0.3990 -0.0371  0.9349
17000SOL    HW252077   3.974   5.638   1.967 -0.5661  1.5791  0.0932
17001SOL     OW52078   3.874   6.487   3.716 -0.0570  0.5477  0.1691
17001SOL    HW152079   3.776   6.475   3.730  0.4501 -2.4716  1.6822
17001SOL    HW252080   3.903   6.574   3.754 -1.5953 -0.0664  2.8847
17002SOL     OW52081   0.159   0.526   5.875 -0.0951  1.1933  0.4481
17002SOL    HW152082   0.123   0.509   5.967 -1.6369  0.9020 -0.1924
17002SOL    HW252083   0.163   0.625   5.859 -1.9125  1.2254  0.0507
17003SOL     OW52084   1.008   5.626   2.849 -0.6182  0.1211  0.2985
17003SOL    HW152085   0.993   5.558   2.778 -0.7825  1.3797 -0.9060
17003SOL    HW252086   1.106   5.647   2.854 -0.2500 -1.8933  2.2967
17005SOL     OW52087   1.169   6.336   2.739 -0.0194 -0.3242  0.0370
17005SOL    HW152088   1.265   6.331   2.711  0.0030 -1.9106  0.3650
17005SOL    HW252089   1.161   6.396   2.819  0.8490 -0.9040  0.5801
17006SOL     OW52090   3.178   0.708   0.408  0.3298 -0.0534 -0.1510
17006SOL    HW152091   3.158   0.725   0.311 -0.2591 -0.9358 -0.1917
17006SOL    HW252092   3.275   0.723   0.425  0.4680 -0.0490 -0.9171
17008SOL     OW52093   3.609   1.804   2.591  0.5331  0.2182  0.4616
17008SOL    HW152094   3.637   1.713   2.561  1.5281  0.7811 -0.3556
17008SOL    HW252095   3.677   1.841   2.654  0.4088  0.6166  0.3646
17009SOL     OW52096   1.168   0.396   0.202 -0.4368  0.0464 -0.2530
17009SOL    HW152097   1.102   0.330   0.238  0.0014 -0.4509 -0.3622
17009SOL    HW252098   1.126   0.448   0.128 -0.9584  0.2592  0.1903
17010SOL     OW52099   7.497   2.208   4.279  0.3382 -0.2211  0.1403
17010SOL    HW152100   7.409   2.191   4.233  0.2808 -0.3275  0.2893
17010SOL    HW252101   7.481   2.263   4.360  0.3456 -0.6569  0.4407
17013SOL     OW52102   7.705   4.323   1.826  0.0381  0.2757  0.0716
17013SOL    HW152103   7.704   4.418   1.859  2.7758  1.3298 -2.5801
17013SOL    HW252104   7.778   4.272   1.870 -1.4651 -0.6602  1.5313
17014SOL     OW52105   9.338   4.841   3.925  0.3461  1.3840  0.9511
17014SOL    HW152106   9.316   4.785   4.005 -0.5392  1.3596  0.6876
17014SOL    HW252107   9.435   4.867   3.930  1.0071 -0.8515  0.6651
17015SOL     OW52108   7.976   0.842   5.857  0.7633  0.1166  0.7058
17015SOL    HW152109   8.006   0.864   5.765 -0.5776  1.0381  0.4856
17015SOL    HW252110   8.055   0.816   5.913  1.4933 -1.1361 -0.8810
17016SOL     OW52111   3.843   3.641   0.287 -0.1884  0.1340 -0.1174
17016SOL    HW152112   3.801   3.570   0.343 -1.1730  1.4908  0.8859
17016SOL    HW252113   3.824   3.730   0.327  0.7577  0.9838 -1.5485
17017SOL     OW52114   5.024   0.146   5.427  0.6476  0.3878  0.6093
17017SOL    HW152115   4.944   0.147   5.487 -0.8492  0.8348 -1.3396
17017SOL    HW252116   5.104   0.117   5.479 -0.8466 -0.4622  2.5125
17018SOL     OW52117   0.067   7.405   5.976 -0.4138 -0.3745 -0.0203
17018SOL    HW152118   0.112   7.318   5.993 -0.6674 -0.2152  1.5438
17018SOL    HW252119   0.130   7.480   5.996 -0.7696 -0.1766  0.3703
17019SOL     OW52120   9.123   9.123   0.124  0.0050  0.0089 -0.4105
17019SOL    HW152121   9.080   9.206   0.157  0.3890  0.7565 -1.7557
17019SOL    HW252122   9.054   9.050   0.117 -0.4863  0.4308  0.0451
17020SOL     OW52123   7.535   7.453   3.546  0.1578 -0.4640 -0.0151
17020SOL    HW152124   7.446   7.494   3.564  1.1222  1.5331  0.4190
17020SOL    HW252125   7.568   7.482   3.456  1.3433  0.6623  0.7593
17021SOL     OW52126   1.181   6.857   6.347 -0.4916 -0.1426  0.0147
17021SOL    HW152127   1.138   6.771   6.375 -0.0211  0.2383  2.0018
17021SOL    HW252128   1.173   6.867   6.248 -1.8622 -1.7580 -0.0737
17022SOL     OW52129   9.264   0.933   1.310 -0.0012  0.0340  0.1669
17022SOL    HW152130   9.352   0.907   1.349 -0.5458 -1.1310  0.6385
17022SOL    HW252131   9.217   0.852   1.275  0.5109  1.0421 -3.0456
17024SOL     OW52132   3.345   3.803   4.920 -0.3540  0.1763  0.7520
17024SOL    HW152133   3.322   3.877   4.983  0.2539 -0.4387  1.7146
17024SOL    HW252134   3.373   3.722   4.972 -1.8385 -1.0221 -0.2429
17026SOL     OW52135   9.490   6.608   2.589  0.2389 -0.2600 -0.0087
17026SOL    HW152136   9.581   6.613   2.629  0.1473  0.0887  0.1540
17026SOL    HW252137   9.489   6.538   2.517  1.3113  1.5559 -1.8371
17027SOL     OW52138   2.542   4.855   3.509 -0.6321 -0.0028 -0.0368
17027SOL    HW152139   2.514   4.767   3.549  1.1401 -0.0310  1.2145
17027SOL    HW252140   2.584   4.911   3.580  0.3031  0.9554 -1.3289
17028SOL     OW52141   2.884   6.669   4.344  0.0536  0.8356  0.2841
17028SOL    HW152142   2.791   6.659   4.309  0.3140 -0.3570 -0.1053
17028SOL    HW252143   2.882   6.711   4.435 -0.7306  2.5895 -0.5355
17029SOL     OW52144   3.846   1.782   5.735 -0.0988 -0.5658 -0.0938
17029SOL    HW152145   3.768   1.843   5.718  0.9209  0.7209 -0.1970
17029SOL    HW252146   3.834   1.738   5.824 -0.9767 -0.4432 -0.1413
17030SOL     OW52147   2.672   5.231   2.835  0.3964 -0.4171 -0.0874
17030SOL    HW152148   2.718   5.316   2.808  2.1580 -1.2677  0.1016
17030SOL    HW252149   2.592   5.252   2.891  0.5426  1.1305 -0.4354
17031SOL     OW52150   7.440   4.934   6.222  0.0200  0.8021  0.1922
17031SOL    HW152151   7.507   4.870   6.185  1.7347  2.7436 -0.1905
17031SOL    HW252152   7.403   4.990   6.147 -2.6616 -0.7709  0.2819
17032SOL     OW52153   3.776   2.104   1.223 -0.5546 -0.7020 -0.4421
17032SOL    HW152154   3.818   2.153   1.146 -1.6372  2.5532  0.9455
17032SOL    HW252155   3.691   2.150   1.249 -0.5421 -2.1304  2.2882
17033SOL     OW52156   3.374   7.748   2.395  0.0436  0.1818  0.0898
17033SOL    HW152157   3.417   7.674   2.342 -0.2919 -0.2542  0.4191
17033SOL    HW252158   3.438   7.824   2.403 -0.0128  0.3783 -1.1953
17034SOL     OW52159   2.749   7.728   4.821  0.2557  0.3736  0.1878
17034SOL    HW152160   2.807   7.805   4.847 -1.3687  1.4990  0.5864
17034SOL    HW252161   2.719   7.680   4.903 -1.1719  1.1595  0.1444
17035SOL     OW52162   0.352   5.224   1.316  0.1171  0.4312  0.4175
17035SOL    HW152163   0.377   5.320   1.324  0.9566  0.1824  0.9038
17035SOL    HW252164   0.276   5.214   1.251  1.0143  1.2497 -0.7789
17036SOL     OW52165   7.225   1.303   3.822 -0.4771  0.0608  0.2124
17036SOL    HW152166   7.239   1.355   3.906 -0.2099  0.3233  0.0059
17036SOL    HW252167   7.128   1.302   3.800 -0.8192 -1.7499  1.6408
17037SOL     OW52168   3.897   1.763   1.538  0.0991  0.5069 -0.0797
17037SOL    HW152169   3.891   1.760   1.638  0.4969 -0.4488 -0.0747
17037SOL    HW252170   3.970   1.702   1.507 -0.4149  0.3421 -0.9925
17038SOL     OW52171   2.770   1.141   5.964  0.4586  0.3189  0.2776
17038SOL    HW152172   2.769   1.172   6.059  0.0473 -1.7092  0.9496
17038SOL    HW252173   2.692   1.080   5.949  1.0407 -0.0862 -1.1178
17039SOL     OW52174   9.767   1.917   2.410  0.0658  0.0413  0.1022
17039SOL    HW152175   9.809   1.995   2.365  0.7281 -0.9008 -0.9454
17039SOL    HW252176   9.738   1.850   2.341  0.0968 -0.9209  1.0017
17042SOL     OW52177   2.082   6.500   6.062  0.2182 -0.4816 -0.6345
17042SOL    HW152178   2.157   6.532   6.119  1.3570 -2.9459 -0.6807
17042SOL    HW252179   2.100   6.525   5.967  0.3650  0.0013 -0.4819
17043SOL     OW52180   9.371   3.993   3.092  0.0574  0.0936 -0.1117
17043SOL    HW152181   9.381   3.988   3.191  0.2805  0.8887 -0.0916
17043SOL    HW252182   9.425   4.070   3.056 -1.4772  0.9574 -0.6329
17044SOL     OW52183   3.015   9.744   2.164  0.6339 -0.1558 -0.1863
17044SOL    HW152184   3.004   9.697   2.252  1.3994  1.5808  0.8621
17044SOL    HW252185   3.041   9.839   2.180  2.4223 -0.2418 -2.3148
17045SOL     OW52186   3.130   0.178   6.031 -0.2495  0.1705  0.2095
17045SOL    HW152187   3.117   0.210   5.937 -0.1985 -2.6131 -0.7713
17045SOL    HW252188   3.227   0.178   6.054 -0.4486  3.8838  1.4143
17047SOL     OW52189   4.534   1.131   5.055  0.1595 -0.3224 -0.2441
17047SOL    HW152190   4.489   1.143   5.144  0.3494  0.5077 -0.2556
17047SOL    HW252191   4.590   1.212   5.035 -2.1012  0.7758 -2.4305
17048SOL     OW52192   7.822   5.611   4.839  0.2817 -0.0173  0.1225
17048SOL    HW152193   7.878   5.693   4.822 -0.2376 -0.2844 -3.2435
17048SOL    HW252194   7.881   5.531   4.846  0.5501  0.1152 -0.5472
17049SOL     OW52195   9.742   4.342   0.766 -0.1664 -0.5512 -0.0760
17049SOL    HW152196   9.742   4.349   0.666 -2.5223  2.3290  0.0356
17049SOL    HW252197   9.669   4.281   0.795 -0.3057 -0.3724 -0.0555
17050SOL     OW52198   0.394   8.324   5.315  0.1644  0.0858  0.1421
17050SOL    HW152199   0.404   8.276   5.228 -0.1722 -0.2249  0.2714
17050SOL    HW252200   0.438   8.272   5.387  1.4604  0.9203 -0.0310
17051SOL     OW52201   5.267   0.669   6.155  0.6070 -0.4372 -0.5135
17051SOL    HW152202   5.253   0.706   6.247 -0.2941 -1.3754 -0.2708
17051SOL    HW252203   5.215   0.723   6.089  2.3454  1.0956 -0.6703
17052SOL     OW52204   1.237   2.410   5.270 -0.0702 -0.4609  0.1195
17052SOL    HW152205   1.141   2.383   5.269 -0.1063 -0.3557  0.6678
17052SOL    HW252206   1.275   2.402   5.177 -1.8265  3.8451 -1.1113
17053SOL     OW52207   1.938   4.229   0.677 -0.6466  0.6105 -0.1701
17053SOL    HW152208   1.952   4.192   0.769  0.0172  0.0721 -0.4789
17053SOL    HW252209   1.943   4.155   0.610 -2.2863  0.8354 -0.5471
17054SOL     OW52210   7.380   8.935   3.704 -0.0972 -0.0288  0.2329
17054SOL    HW152211   7.444   8.912   3.777  0.1520 -0.6298 -0.1671
17054SOL    HW252212   7.323   9.011   3.732  0.1385 -0.1232  0.9735
17055SOL     OW52213   7.782   0.556   0.156  0.2206 -0.4590  0.1875
17055SOL    HW152214   7.756   0.462   0.177  0.3869 -0.4275  0.5411
17055SOL    HW252215   7.834   0.594   0.233  0.9228 -0.3772 -0.3160
17056SOL     OW52216   8.907   9.491   1.578  0.1626 -0.4224 -0.0157
17056SOL    HW152217   8.896   9.461   1.483 -0.7443  2.8404 -1.0050
17056SOL    HW252218   8.994   9.458   1.613  0.7286 -1.2888 -2.1259
17058SOL     OW52219   1.130   1.234   3.553 -0.5407  0.1389  0.1958
17058SOL    HW152220   1.076   1.158   3.589  1.2937 -1.1121  0.3730
17058SOL    HW252221   1.182   1.276   3.628  0.6217 -0.2591 -0.3763
17060SOL     OW52222   8.393   2.507   5.751  0.0743  0.2463 -0.2817
17060SOL    HW152223   8.351   2.432   5.701 -0.0264  1.0610 -1.4313
17060SOL    HW252224   8.488   2.485   5.772  0.4547  0.3954 -1.8582
17061SOL     OW52225   3.331   0.188   4.060  1.1949  0.0752 -0.6905
17061SOL    HW152226   3.381   0.223   4.139  0.1788  0.7552 -0.3292
17061SOL    HW252227   3.261   0.123   4.090  0.0324  1.1989 -0.8869
17062SOL     OW52228   4.542   2.053   4.337  0.7052  0.0682  0.0954
17062SOL    HW152229   4.586   1.969   4.370 -0.1122 -0.3942  0.0157
17062SOL    HW252230   4.452   2.062   4.379  0.1442  0.0995 -1.0923
17063SOL     OW52231   6.882   8.953   2.955  0.2995  0.3539 -0.4746
17063SOL    HW152232   6.966   8.955   2.902  0.6691 -0.4301  0.0708
17063SOL    HW252233   6.866   8.860   2.989  0.8719  1.1285  2.0483
17064SOL     OW52234   0.756   0.024   5.223 -0.0223 -0.4845  0.0625
17064SOL    HW152235   0.784  -0.068   5.249  0.9183 -0.0736  0.5284
17064SOL    HW252236   0.749   0.081   5.304  0.7814  0.2245 -0.3594
17065SOL     OW52237   7.075   1.306   2.892  0.1732 -0.1240  0.1297
17065SOL    HW152238   7.090   1.303   2.991  0.9341  1.6064  0.0977
17065SOL    HW252239   7.036   1.395   2.867  0.1160 -0.4938 -1.1473
17066SOL     OW52240   3.713   8.546   0.646  0.0756 -0.2856 -0.2045
17066SOL    HW152241   3.689   8.632   0.602 -0.6080 -0.2308  0.2616
17066SOL    HW252242   3.806   8.521   0.622  0.4208  0.7917 -0.0115
17067SOL     OW52243   8.557   8.832   2.495  0.1020 -0.2367  0.1336
17067SOL    HW152244   8.651   8.857   2.472  0.4470  0.6801  2.4058
17067SOL    HW252245   8.497   8.911   2.481 -0.3756 -0.8783 -1.5120
17070SOL     OW52246   9.888   3.788   1.452  0.3604  0.1815  0.1485
17070SOL    HW152247   9.909   3.713   1.514  3.6216 -0.3425 -1.4686
17070SOL    HW252248   9.922   3.874   1.490  0.9435  0.0893 -0.1467
17071SOL     OW52249   3.706   2.638   3.790  0.7670 -0.0321  0.1767
17071SOL    HW152250   3.778   2.647   3.721  0.7099  0.3788  0.1677
17071SOL    HW252251   3.659   2.726   3.800  1.5743  0.2593  1.6024
17072SOL     OW52252   2.181   4.393   1.028  0.0534  0.2291  0.5441
17072SOL    HW152253   2.270   4.403   0.984  0.0518 -0.7428  0.3106
17072SOL    HW252254   2.134   4.312   0.992 -1.6770  1.7094 -0.6254
17075SOL     OW52255   2.735   5.823   6.397 -0.0963 -0.0270  0.2516
17075SOL    HW152256   2.745   5.762   6.475 -0.7337  1.0915  1.2304
17075SOL    HW252257   2.825   5.850   6.364  0.2697 -3.4034 -1.7672
17077SOL     OW52258   7.975   7.252   5.301  0.1300 -0.3902 -0.2763
17077SOL    HW152259   7.982   7.257   5.202 -0.1838 -0.5261 -0.3046
17077SOL    HW252260   7.880   7.239   5.328  0.0385  0.9444  0.0917
17078SOL     OW52261   0.598   3.046   1.392 -0.1733 -0.1841 -0.3843
17078SOL    HW152262   0.554   3.079   1.476 -0.8026  0.5001 -0.9742
17078SOL    HW252263   0.679   2.993   1.416 -0.2157  0.1975  0.6501
17079SOL     OW52264   5.809   9.871   2.439  0.7869  0.3545  0.0472
17079SOL    HW152265   5.759   9.901   2.358  2.4095 -2.6121 -2.1477
17079SOL    HW252266   5.768   9.786   2.474  1.2449  0.6095  1.2283
17081SOL     OW52267   4.735   9.264   6.278  0.6220 -1.1367  0.1926
17081SOL    HW152268   4.649   9.287   6.233  0.4218 -0.5138  0.8829
17081SOL    HW252269   4.718   9.205   6.357  0.8772 -1.4218  0.0370
17083SOL     OW52270   1.917   6.791   2.776  0.4134  0.5096 -0.4328
17083SOL    HW152271   1.919   6.772   2.677 -0.5819 -0.5041 -0.2743
17083SOL    HW252272   1.880   6.882   2.792  0.4492  0.6259 -0.9919
17085SOL     OW52273   0.212   7.405   4.836 -0.1456 -0.1774 -0.5887
17085SOL    HW152274   0.124   7.359   4.840  0.3222 -1.4650 -3.9473
17085SOL    HW252275   0.283   7.344   4.871 -0.1994 -0.2080 -0.5335
17087SOL     OW52276   3.350   1.201   0.993  0.1877 -0.4247  0.0268
17087SOL    HW152277   3.400   1.235   1.072  0.8003  0.8714 -0.8971
17087SOL    HW252278   3.362   1.102   0.986  0.0288 -0.5647  1.6130
17088SOL     OW52279   6.478   1.493   1.001  0.4379  0.8644 -0.1118
17088SOL    HW152280   6.528   1.570   1.039 -1.2108  2.2439 -0.6555
17088SOL    HW252281   6.504   1.481   0.905  0.4445  0.9614 -0.1220
17089SOL     OW52282   5.346   3.193   0.770 -0.3797 -0.0914  0.5468
17089SOL    HW152283   5.323   3.289   0.785  0.1474 -0.2354  2.4111
17089SOL    HW252284   5.438   3.175   0.804 -0.7792 -1.4403  0.9488
17092SOL     OW52285   3.294   2.471   4.846 -0.0333 -0.6483  0.1537
17092SOL    HW152286   3.209   2.501   4.803  0.8768  1.7401 -0.0095
17092SOL    HW252287   3.356   2.433   4.777 -0.1050 -0.3981 -0.0436
17094SOL     OW52288   2.454   4.531   1.483 -0.1327  0.7137 -0.0371
17094SOL    HW152289   2.453   4.445   1.534  2.0568  0.2350 -0.7588
17094SOL    HW252290   2.535   4.535   1.425 -1.6989  2.0075 -2.2207
17095SOL     OW52291   1.258   4.228   2.189  0.1484  0.2493  0.2170
17095SOL    HW152292   1.233   4.324   2.203 -3.5775 -0.7671  1.0679
17095SOL    HW252293   1.234   4.201   2.096  0.8863  0.0748  0.0818
17098SOL     OW52294   1.188   4.075   3.644  0.0917  0.5808 -0.5426
17098SOL    HW152295   1.180   3.980   3.673  1.2059  0.2384 -1.3195
17098SOL    HW252296   1.099   4.119   3.649  0.0007  0.1888  2.1409
17099SOL     OW52297   8.792   3.600   3.322  0.5900  0.1297 -0.0727
17099SOL    HW152298   8.891   3.591   3.315  0.4323 -1.9983 -0.0535
17099SOL    HW252299   8.765   3.595   3.418  0.5381  1.9346  0.0286
17102SOL     OW52300   9.656   2.763   0.527 -0.3268 -0.2777  0.6519
17102SOL    HW152301   9.572   2.775   0.473 -0.3986  2.1153  1.2208
17102SOL    HW252302   9.701   2.679   0.500 -1.9721 -0.6776 -0.9650
17103SOL     OW52303   2.932   7.914   4.884 -0.5307  0.3172  0.2945
17103SOL    HW152304   2.886   7.960   4.960  0.5190  1.1689  0.4342
17103SOL    HW252305   3.026   7.893   4.911 -1.0735 -2.1807  0.3285
17105SOL     OW52306   2.189   3.348   5.492  0.0610 -0.6081  0.1809
17105SOL    HW152307   2.160   3.398   5.410  2.4347 -0.0424 -0.3518
17105SOL    HW252308   2.206   3.413   5.566 -0.2307 -0.9460  0.5449
17107SOL     OW52309   2.136   2.192   4.791 -0.5510 -0.9467  0.3309
17107SOL    HW152310   2.062   2.237   4.742  0.7928  1.7002  0.6362
17107SOL    HW252311   2.190   2.137   4.727 -0.5752  0.1074 -0.6173
17108SOL     OW52312   3.963   6.489   4.319 -0.1303  0.1241 -0.2872
17108SOL    HW152313   4.001   6.578   4.294 -0.6894  0.6416  0.6513
17108SOL    HW252314   3.883   6.503   4.377 -0.7740 -0.9804 -0.8954
17109SOL     OW52315   8.582   0.890   3.433 -0.4354  0.3445  0.0166
17109SOL    HW152316   8.640   0.867   3.512 -0.6031  0.6759  0.2369
17109SOL    HW252317   8.598   0.985   3.406 -0.0753  0.1083 -0.6107
17111SOL     OW52318   4.663   9.370   2.979  0.7760  0.0606 -0.2030
17111SOL    HW152319   4.754   9.411   2.977  0.4828  0.7573  0.3219
17111SOL    HW252320   4.595   9.438   2.950  0.1786  0.2523  1.5662
17112SOL     OW52321   4.963   4.357   0.345 -0.4273  0.0361  0.5763
17112SOL    HW152322   4.910   4.328   0.425 -1.0315 -1.3545 -0.3045
17112SOL    HW252323   4.901   4.394   0.276 -0.0871 -0.2053  0.1358
17114SOL     OW52324   8.639   3.751   0.456 -0.0198  0.0693  0.5122
17114SOL    HW152325   8.575   3.753   0.532 -0.5559 -1.6715  0.1429
17114SOL    HW252326   8.703   3.674   0.469  2.5006  2.2262  1.2728
17115SOL     OW52327   9.786   4.225   0.505 -0.3501  0.0988 -0.0868
17115SOL    HW152328   9.812   4.183   0.592  0.9840 -0.1246 -0.5762
17115SOL    HW252329   9.863   4.219   0.442 -1.4979 -0.2452 -1.4701
17118SOL     OW52330   2.311   6.234   3.504  0.1021 -0.0509  0.0098
17118SOL    HW152331   2.354   6.309   3.454 -0.9063  0.9512  0.6156
17118SOL    HW252332   2.267   6.270   3.587  0.7316 -1.5035  0.9959
17119SOL     OW52333   8.950   1.324   2.789 -0.5437  0.2679 -0.3459
17119SOL    HW152334   8.936   1.286   2.698  1.3419 -0.7108 -0.2499
17119SOL    HW252335   8.878   1.293   2.850 -1.9213  1.0759 -1.5411
17120SOL     OW52336   7.333   8.436   2.275 -0.0788 -0.3316  0.1867
17120SOL    HW152337   7.262   8.486   2.323  0.3447  0.2268  0.2340
17120SOL    HW252338   7.377   8.372   2.338  1.1673  1.1241  0.8248
17121SOL     OW52339   5.281   9.869   4.558  0.0071  0.2307  0.3936
17121SOL    HW152340   5.304   9.964   4.538  1.3000  0.4746  2.8208
17121SOL    HW252341   5.342   9.808   4.507  1.2062  0.7832  1.1354
17122SOL     OW52342   4.199   8.857   1.029 -0.1660  0.5104 -0.4688
17122SOL    HW152343   4.270   8.867   0.959 -1.6588 -1.7092 -2.3527
17122SOL    HW252344   4.126   8.922   1.011  0.2457  1.1320  0.0697
17124SOL     OW52345   9.434   3.112   4.138 -0.3987  0.0700  0.1717
17124SOL    HW152346   9.410   3.014   4.138 -1.1353  0.2473  0.7854
17124SOL    HW252347   9.529   3.122   4.166  0.5362 -0.6613 -2.5605
17125SOL     OW52348   2.175   0.453   2.292  0.1779  0.3403  0.2835
17125SOL    HW152349   2.124   0.414   2.215  1.0332 -0.6674  0.2137
17125SOL    HW252350   2.249   0.510   2.257  1.0874 -0.7951  0.3441
17126SOL     OW52351   7.829   4.817   3.960 -0.5604  0.0530 -0.1465
17126SOL    HW152352   7.840   4.837   3.863 -2.3080  1.9511  0.0046
17126SOL    HW252353   7.831   4.718   3.974  2.2195 -0.1606 -1.7500
17127SOL     OW52354   5.079   0.171   4.530 -0.0665 -0.2905  0.2686
17127SOL    HW152355   5.094   0.211   4.439 -0.6557  0.0456  0.3186
17127SOL    HW252356   5.166   0.165   4.578 -0.0123  1.2190  0.3732
17129SOL     OW52357   0.755   8.398   5.343 -0.1573  0.1989  0.5305
17129SOL    HW152358   0.757   8.459   5.264  0.4633  0.9945  1.1367
17129SOL    HW252359   0.733   8.305   5.314 -3.9349  1.1973 -0.0864
17130SOL     OW52360   1.659   6.089   5.779  0.2155  0.5848 -0.7072
17130SOL    HW152361   1.670   6.148   5.700 -0.3527  3.6067  1.3846
17130SOL    HW252362   1.726   6.114   5.849 -0.2436 -1.0700  0.3552
17131SOL     OW52363   3.988   3.693   1.857 -0.0835 -0.1465 -0.1718
17131SOL    HW152364   3.943   3.686   1.945  1.3190  0.6324  0.6304
17131SOL    HW252365   3.932   3.747   1.794 -0.9413 -0.4432  0.3447
17133SOL     OW52366   0.322   6.653   3.960  0.4214 -0.4900  0.4732
17133SOL    HW152367   0.281   6.565   3.936 -0.4330  0.0926 -0.2035
17133SOL    HW252368   0.330   6.661   4.059 -0.3812 -0.9276  0.5728
17134SOL     OW52369   7.376   7.684   3.210 -0.4992 -0.0470  0.0487
17134SOL    HW152370   7.378   7.719   3.304 -3.1670 -1.6187  0.7542
17134SOL    HW252371   7.304   7.730   3.159 -0.3176 -0.5341 -0.6487
17135SOL     OW52372   6.476   5.429   0.124  0.0832 -0.2837  0.1042
17135SOL    HW152373   6.498   5.370   0.201  1.8924 -0.7614 -0.7497
17135SOL    HW252374   6.414   5.502   0.154 -0.7991 -1.6050  1.5408
17136SOL     OW52375   4.251   5.264   1.452 -0.4945  0.1764 -0.0298
17136SOL    HW152376   4.250   5.297   1.358 -1.5374  0.8617  0.2227
17136SOL    HW252377   4.298   5.331   1.510  0.0129 -0.1744 -0.0346
17137SOL     OW52378   7.842   0.522   0.421 -0.1761  0.3942 -1.0479
17137SOL    HW152379   7.768   0.456   0.430  0.3363 -0.0665 -0.0912
17137SOL    HW252380   7.927   0.475   0.399  0.3631  0.6367  0.4616
17138SOL     OW52381   5.904   5.730   0.566 -0.6363  0.5867  0.2496
17138SOL    HW152382   5.861   5.747   0.655  1.7808 -1.0430  1.7955
17138SOL    HW252383   5.856   5.656   0.519  0.7693 -1.6993  2.2663
17140SOL     OW52384   9.056   6.289   2.151 -0.0696 -0.2078  0.4122
17140SOL    HW152385   9.090   6.198   2.174  0.8648 -0.0947 -0.5418
17140SOL    HW252386   9.026   6.335   2.235 -0.7651 -1.4756  0.8710
17141SOL     OW52387   9.698   4.299   5.101 -0.0755  0.1550 -0.2827
17141SOL    HW152388   9.692   4.316   5.003 -0.1701  2.9914  0.1711
17141SOL    HW252389   9.748   4.374   5.145 -1.5350 -0.1843  2.0710
17142SOL     OW52390   4.653   5.163   3.099  0.2447  0.1659 -0.2448
17142SOL    HW152391   4.721   5.096   3.069  0.5356  0.3290  0.0518
17142SOL    HW252392   4.692   5.221   3.171 -0.0248  0.6151 -0.4571
17143SOL     OW52393   3.953   4.281   3.291 -0.5102  0.3315  0.6513
17143SOL    HW152394   3.948   4.252   3.387 -0.4625  1.0121  0.8647
17143SOL    HW252395   3.997   4.209   3.237  1.6823  0.9296  1.5737
17144SOL     OW52396   3.838   3.645   5.743  0.1592 -0.0624 -0.2939
17144SOL    HW152397   3.845   3.715   5.813  1.6074 -0.4537 -0.0347
17144SOL    HW252398   3.928   3.605   5.726 -0.8252 -2.7396  0.4733
17145SOL     OW52399   0.331   4.775   4.419 -0.4868  0.6065  0.6377
17145SOL    HW152400   0.368   4.865   4.442  0.9491  0.6928 -1.8006
17145SOL    HW252401   0.256   4.785   4.353 -2.0916  0.1540  2.3572
17146SOL     OW52402   7.457   6.630   5.281 -0.6466 -0.1233 -0.3054
17146SOL    HW152403   7.486   6.561   5.348 -0.4552 -0.2960 -0.5644
17146SOL    HW252404   7.403   6.700   5.327 -0.8206 -0.4312 -0.0344
17148SOL     OW52405   1.583   5.276   4.110  0.1765  0.1414 -0.3682
17148SOL    HW152406   1.618   5.310   4.023 -0.2983  0.1053 -0.5769
17148SOL    HW252407   1.589   5.176   4.112 -0.9049  0.0584 -0.8445
17150SOL     OW52408   7.995   4.501   6.258 -0.0544  0.7099 -0.2647
17150SOL    HW152409   7.972   4.557   6.178 -1.2319  1.3818  0.5220
17150SOL    HW252410   7.911   4.459   6.293  0.3908  0.7535  0.8572
17151SOL     OW52411   3.883   9.244   1.680  0.3444  0.2367  0.0535
17151SOL    HW152412   3.879   9.262   1.581  1.2985 -0.5646 -0.1470
17151SOL    HW252413   3.884   9.330   1.730  0.8142  0.6672 -0.6825
17152SOL     OW52414   8.984   3.151   0.216  0.5840 -0.0733 -0.0394
17152SOL    HW152415   8.946   3.243   0.205  0.4030 -0.2604 -1.0929
17152SOL    HW252416   8.927   3.098   0.278  0.7048  0.5302  0.5914
17153SOL     OW52417   5.567   5.143   1.439  0.3963 -0.0813  0.0586
17153SOL    HW152418   5.477   5.174   1.407  0.9418  0.0128 -1.4053
17153SOL    HW252419   5.562   5.125   1.537 -0.3920  3.0015  0.6286
17154SOL     OW52420   0.102   5.962   1.921  0.1815 -0.0706 -0.2525
17154SOL    HW152421   0.033   5.896   1.948  1.4922 -1.5079 -0.3137
17154SOL    HW252422   0.059   6.041   1.878 -1.4673 -0.4929  0.6045
17156SOL     OW52423   7.396   9.413   4.671  0.2992 -0.3331 -0.0005
17156SOL    HW152424   7.344   9.466   4.738  0.6997  0.4416 -0.3002
17156SOL    HW252425   7.336   9.344   4.630  0.3765 -1.6679  2.0697
17158SOL     OW52426   9.622   4.889   3.927 -0.9911  0.0621 -0.2913
17158SOL    HW152427   9.653   4.941   3.847 -1.3010 -2.1498 -1.8810
17158SOL    HW252428   9.686   4.815   3.946  0.3154  1.9182  2.9513
17159SOL     OW52429   9.264   7.176   1.089  0.1376 -0.1335 -0.1788
17159SOL    HW152430   9.340   7.241   1.096  1.0206 -1.0644 -0.9549
17159SOL    HW252431   9.234   7.151   1.181  1.2771 -0.3214  0.1600
17161SOL     OW52432   3.764   9.809   6.385 -0.0324  0.2086  0.2287
17161SOL    HW152433   3.766   9.789   6.287  1.5445 -0.6649  0.4269
17161SOL    HW252434   3.682   9.861   6.406  0.3436  1.7280 -1.8234
17163SOL     OW52435   8.452   2.637   6.365  0.4531 -0.2422 -0.8170
17163SOL    HW152436   8.529   2.687   6.326  1.7112 -0.7704  0.9027
17163SOL    HW252437   8.404   2.696   6.430  0.2784 -0.3659 -0.8367
17166SOL     OW52438   3.211   9.434   1.672  0.0451 -0.1140 -0.1959
17166SOL    HW152439   3.124   9.462   1.712 -0.5395 -1.8213 -0.2146
17166SOL    HW252440   3.222   9.335   1.682  1.3120 -0.1287 -1.5023
17167SOL     OW52441   7.425   9.548   3.888  0.1366 -0.0820  0.3319
17167SOL    HW152442   7.383   9.542   3.797 -0.6885  1.1927  0.6080
17167SOL    HW252443   7.491   9.474   3.900 -0.0387 -0.4889 -1.1602
17169SOL     OW52444   4.912   8.186   3.956  0.0067 -0.2242 -0.5691
17169SOL    HW152445   4.956   8.255   3.899  0.4842  0.7915  0.9961
17169SOL    HW252446   4.829   8.153   3.910 -0.5985  1.8766 -1.0437
17170SOL     OW52447   1.519   4.215   3.366  0.1713 -0.6888 -0.0133
17170SOL    HW152448   1.520   4.314   3.352 -1.3458 -0.4884  1.1913
17170SOL    HW252449   1.433   4.188   3.410  0.5592 -2.5494 -0.3444
17171SOL     OW52450   3.169   4.817   5.730 -0.2910  0.5779 -0.6275
17171SOL    HW152451   3.268   4.813   5.743 -0.3025  1.1533 -0.3665
17171SOL    HW252452   3.124   4.832   5.818 -0.6071  0.3805 -0.7542
17172SOL     OW52453   1.789   7.290   1.703  0.3366  0.2045  0.3849
17172SOL    HW152454   1.746   7.227   1.639  1.2201  0.1738 -0.1794
17172SOL    HW252455   1.888   7.274   1.705  0.5468  1.4595  0.3622
17173SOL     OW52456   4.165   8.007   3.062  0.0438 -0.0631  0.1614
17173SOL    HW152457   4.164   7.907   3.059 -0.6242 -0.0317 -0.7176
17173SOL    HW252458   4.168   8.043   2.969  1.6321  0.7297  0.5004
17174SOL     OW52459   5.774   7.869   5.913  0.1963  0.0078 -0.2052
17174SOL    HW152460   5.726   7.945   5.957 -0.4742 -0.0918 -0.7600
17174SOL    HW252461   5.861   7.901   5.876  0.0843  0.4211 -0.1088
17176SOL     OW52462   0.831   3.758   4.276 -0.6708 -0.2144  0.0416
17176SOL    HW152463   0.875   3.708   4.201 -0.7804  0.8859 -0.7722
17176SOL    HW252464   0.731   3.756   4.262 -0.6984 -0.1145  0.2332
17177SOL     OW52465   1.385   7.721   4.354 -0.0234 -0.9216 -0.1974
17177SOL    HW152466   1.377   7.788   4.428  1.7463 -0.5341 -0.3437
17177SOL    HW252467   1.341   7.757   4.272 -1.5322 -1.1307  0.5115
17178SOL     OW52468   8.018   2.296   4.146 -0.2327  0.0327  0.0531
17178SOL    HW152469   8.052   2.204   4.163 -1.0385  0.0428  1.8841
17178SOL    HW252470   7.922   2.302   4.175 -0.7762  0.9278 -1.8404
17179SOL     OW52471   6.553   9.754   3.192 -0.1381 -0.1255 -0.4725
17179SOL    HW152472   6.614   9.675   3.199 -1.5194 -1.3778 -2.0459
17179SOL    HW252473   6.602   9.830   3.150  0.8984 -0.4860  0.0556
17181SOL     OW52474   4.254   0.454   0.015 -0.3084  0.1579  0.1105
17181SOL    HW152475   4.350   0.443   0.041 -0.2956 -0.8008 -0.3110
17181SOL    HW252476   4.205   0.369   0.035 -0.6820  0.0239 -1.3635
17184SOL     OW52477   2.870   1.306   5.524 -0.1101 -0.3753  0.3835
17184SOL    HW152478   2.918   1.221   5.503 -2.4129 -1.4712 -0.6935
17184SOL    HW252479   2.892   1.335   5.617  3.3189 -0.3063 -0.4000
17185SOL     OW52480   8.425   3.729   5.606 -0.1824 -0.1628 -0.0408
17185SOL    HW152481   8.462   3.723   5.699  0.0647 -0.0527 -0.1315
17185SOL    HW252482   8.500   3.740   5.541 -0.4377  1.2220 -0.1213
17187SOL     OW52483   1.251   2.437   4.036 -0.9653  0.7181 -0.0540
17187SOL    HW152484   1.281   2.465   4.127 -0.9067 -0.0149  0.1494
17187SOL    HW252485   1.274   2.341   4.021 -0.7522  0.9002 -0.9335
17189SOL     OW52486   2.705   8.400   5.325  0.0815 -0.2078  0.2531
17189SOL    HW152487   2.759   8.316   5.336  0.7788 -0.0877 -2.1160
17189SOL    HW252488   2.762   8.479   5.346  0.4409 -0.1530 -0.9092
17190SOL     OW52489   4.056   0.890   1.516 -0.5254  0.4663  0.1721
17190SOL    HW152490   4.026   0.795   1.527 -1.4033  0.8434  1.2342
17190SOL    HW252491   4.132   0.908   1.579  0.6626  0.0500 -1.1284
17191SOL     OW52492   8.552   3.828   4.622  0.4754  0.0895  0.1487
17191SOL    HW152493   8.644   3.795   4.604  0.4912 -0.4309  1.0977
17191SOL    HW252494   8.553   3.884   4.705  0.1096  0.8985 -0.3882
17194SOL     OW52495   9.022   1.110   4.356  0.4424  0.3223  0.8959
17194SOL    HW152496   8.982   1.172   4.423  0.7424 -0.4503  1.8024
17194SOL    HW252497   8.958   1.035   4.336 -0.4242  1.5441 -1.1104
17195SOL     OW52498   2.539   4.676   0.044  0.1001 -0.0118  0.0548
17195SOL    HW152499   2.495   4.598   0.089  0.6348 -0.3697 -0.0471
17195SOL    HW252500   2.501   4.686  -0.048  1.3779 -1.3116 -0.6271
17196SOL     OW52501   3.420   8.840   4.409  0.0488  0.2140  0.0309
17196SOL    HW152502   3.338   8.894   4.390  0.1378  0.3442  0.0144
17196SOL    HW252503   3.435   8.835   4.508  0.2070  0.4709  0.0211
17197SOL     OW52504   0.542   6.672   3.065 -0.2163  0.6164 -0.3701
17197SOL    HW152505   0.535   6.662   2.965  1.1252 -1.6575 -0.2674
17197SOL    HW252506   0.516   6.586   3.108 -0.7169  1.5723  1.2635
17198SOL     OW52507   0.880   4.889   5.599  0.2425 -0.3430  0.4685
17198SOL    HW152508   0.814   4.901   5.525  0.1930  0.0759  0.5789
17198SOL    HW252509   0.843   4.927   5.683  1.3534  1.5236  0.1427
17199SOL     OW52510   4.405   5.410   0.242 -0.4850  0.4677  0.1402
17199SOL    HW152511   4.372   5.500   0.272  0.3170  1.2987 -1.3778
17199SOL    HW252512   4.497   5.420   0.203 -0.3548 -1.0264  0.0427
17200SOL     OW52513   2.441   7.581   2.690  0.1595  0.6792 -0.2306
17200SOL    HW152514   2.361   7.589   2.749  0.7676 -0.1342  0.7322
17200SOL    HW252515   2.512   7.644   2.721  0.8512 -0.4546  0.5511
17201SOL     OW52516   3.763   7.364   6.222 -0.0211 -0.1508 -0.3636
17201SOL    HW152517   3.850   7.411   6.208 -0.1585  0.0690 -0.4696
17201SOL    HW252518   3.726   7.336   6.133 -1.5844  2.4791 -0.5613
17202SOL     OW52519   1.488   1.528   3.352 -0.5437  0.4606  0.7957
17202SOL    HW152520   1.499   1.450   3.291  0.0282 -0.1329  1.6363
17202SOL    HW252521   1.518   1.612   3.306 -2.4982  0.4129 -0.6081
17203SOL     OW52522   1.067   5.380   4.651 -0.0806  0.4070 -0.0520
17203SOL    HW152523   1.130   5.456   4.666 -0.7233  0.4108  2.8397
17203SOL    HW252524   0.975   5.406   4.680 -1.0776 -0.2244 -2.5209
17205SOL     OW52525   4.487   9.909   4.798  0.1040  0.2663  0.1120
17205SOL    HW152526   4.557   9.910   4.869 -2.3701 -0.1401  2.6734
17205SOL    HW252527   4.471  10.002   4.765  1.4601  0.4204 -0.1297
17207SOL     OW52528   4.224   8.428   3.081  0.3145  0.1253  0.6934
17207SOL    HW152529   4.290   8.353   3.077  0.7263  0.4367  1.4672
17207SOL    HW252530   4.212   8.456   3.177 -1.5583 -0.4661  0.6462
17208SOL     OW52531   0.621   8.447   4.829  0.0496 -0.2667 -0.1907
17208SOL    HW152532   0.538   8.397   4.853  0.4698 -0.6566  0.4827
17208SOL    HW252533   0.597   8.538   4.797 -0.6377 -0.3461  0.0911
17210SOL     OW52534   2.589   5.826   4.603  0.2484 -0.9421 -0.2831
17210SOL    HW152535   2.617   5.794   4.512 -2.0673 -1.2073 -0.9267
17210SOL    HW252536   2.612   5.923   4.613 -0.1267 -0.7282 -1.4348
17211SOL     OW52537   7.089   2.512   1.517  0.4538 -0.2945 -0.2634
17211SOL    HW152538   7.038   2.586   1.473 -1.2019 -1.7174 -0.7990
17211SOL    HW252539   7.127   2.452   1.447 -0.1565 -1.2343  0.2055
17212SOL     OW52540   4.874   8.849   5.475 -0.1318  0.7143  0.3840
17212SOL    HW152541   4.791   8.848   5.530 -1.0879  1.8825 -1.0010
17212SOL    HW252542   4.926   8.932   5.495  0.0896  0.5813  0.3649
17214SOL     OW52543   8.301   5.580   2.107 -0.1541 -0.5993 -0.7027
17214SOL    HW152544   8.342   5.665   2.073 -1.6362  0.1305 -0.6824
17214SOL    HW252545   8.374   5.519   2.139  0.8628  1.2109  0.5523
17215SOL     OW52546   9.930   4.529   1.398  0.6337 -0.1498 -0.0146
17215SOL    HW152547   9.868   4.450   1.404  2.3394 -1.4194  1.3641
17215SOL    HW252548  10.002   4.510   1.332  1.0693  0.2509  0.3433
17218SOL     OW52549   8.235   0.520   3.247  0.4240 -0.0506  0.2677
17218SOL    HW152550   8.287   0.441   3.212  0.6640 -0.0745  0.6720
17218SOL    HW252551   8.294   0.575   3.305  0.4008  0.7113 -0.4171
17219SOL     OW52552   3.279   6.719   2.829 -0.8278 -0.8577  0.3205
17219SOL    HW152553   3.195   6.677   2.796 -1.8676  1.4973 -0.1199
17219SOL    HW252554   3.338   6.741   2.751 -0.2790 -1.4838  0.5499
17220SOL     OW52555   9.823   1.218   6.331 -0.7863 -0.1799  0.5304
17220SOL    HW152556   9.775   1.278   6.395 -1.2462 -0.8211  0.7878
17220SOL    HW252557   9.873   1.148   6.382 -0.0287  0.1460  0.2402
17221SOL     OW52558   3.341   3.302   1.122  0.0974  0.7418 -0.7491
17221SOL    HW152559   3.294   3.272   1.039  0.0648  0.0566 -0.4836
17221SOL    HW252560   3.424   3.353   1.097 -0.1184  0.8677 -1.2040
17222SOL     OW52561   6.879   8.083   4.557  0.1730 -0.0005  0.3557
17222SOL    HW152562   6.967   8.120   4.527 -0.2336 -1.0401 -2.2663
17222SOL    HW252563   6.874   8.086   4.657  2.2479  2.1517  0.4394
17224SOL     OW52564   1.709   9.567   0.086 -0.4260  0.0800  0.4338
17224SOL    HW152565   1.796   9.525   0.113  0.1891  0.6845 -0.5536
17224SOL    HW252566   1.724   9.664   0.066 -1.1894  0.0210 -0.4383
17225SOL     OW52567   2.815   2.158   5.750 -0.0049  0.2661 -0.1651
17225SOL    HW152568   2.833   2.070   5.794 -0.2224  0.5912  0.5697
17225SOL    HW252569   2.860   2.160   5.661 -0.2330 -0.6995 -0.3044
17226SOL     OW52570   0.090   9.202   6.016 -0.5447  0.6817  0.5370
17226SOL    HW152571   0.095   9.149   5.931 -0.1097 -0.5107  1.3045
17226SOL    HW252572   0.031   9.282   6.001 -0.3931  0.5404 -0.9121
17227SOL     OW52573   2.373   7.979   2.131 -0.2449  0.0221 -0.5770
17227SOL    HW152574   2.384   8.067   2.176  1.8479 -0.4848 -0.0390
17227SOL    HW252575   2.372   7.993   2.031 -0.6978  0.7121 -0.4841
17228SOL     OW52576   4.461   6.391   2.794 -0.1773 -0.4289 -0.3979
17228SOL    HW152577   4.488   6.301   2.758 -1.7354 -1.7179  1.5286
17228SOL    HW252578   4.527   6.420   2.863 -0.9557 -1.2637  0.7281
17230SOL     OW52579   2.524   0.669   4.296  0.6926  0.4705 -0.2194
17230SOL    HW152580   2.494   0.750   4.346 -2.0435  0.3557 -1.5892
17230SOL    HW252581   2.514   0.684   4.197 -1.1336 -1.9848 -0.4672
17231SOL     OW52582   8.991   5.126   5.841  0.4025 -0.0968 -0.1564
17231SOL    HW152583   9.008   5.207   5.785 -1.4818  0.4314 -0.0074
17231SOL    HW252584   9.055   5.123   5.917  1.0562  0.7773 -0.6722
17232SOL     OW52585   0.342   1.687   4.555 -0.1954  0.1539 -0.0829
17232SOL    HW152586   0.398   1.709   4.475  0.0122 -2.3633 -0.6735
17232SOL    HW252587   0.261   1.635   4.526 -0.8842  0.4954  1.1786
17233SOL     OW52588   8.166   5.385   3.246  0.3349  0.6494  0.3287
17233SOL    HW152589   8.150   5.359   3.151 -2.1599  2.0173  0.3508
17233SOL    HW252590   8.134   5.478   3.262 -1.6828 -0.4453  3.1200
17234SOL     OW52591   7.055   1.177   1.746  0.4589  0.3026  0.1989
17234SOL    HW152592   7.144   1.222   1.744  0.3299  0.6714  1.6986
17234SOL    HW252593   6.997   1.223   1.814 -0.5807 -0.4643 -0.1593
17235SOL     OW52594   7.699   5.907   5.008  0.3056 -0.0968  0.5907
17235SOL    HW152595   7.794   5.923   5.034  0.7798 -1.0752 -0.4733
17235SOL    HW252596   7.648   5.870   5.086  1.3481 -1.6389  0.5638
17236SOL     OW52597   1.950   9.620   3.765 -0.1089 -0.4082 -0.2622
17236SOL    HW152598   1.976   9.524   3.763 -1.9900 -1.0120  1.5857
17236SOL    HW252599   1.868   9.634   3.709  0.7717  0.3412 -1.3848
17237SOL     OW52600   4.626   2.463   5.075  0.1176  0.5369 -0.6143
17237SOL    HW152601   4.659   2.372   5.051  0.8217  0.9485 -1.2066
17237SOL    HW252602   4.606   2.514   4.991 -2.2707  0.2069 -0.2735
17238SOL     OW52603   3.826   7.952   0.136 -0.0086 -0.1996 -0.2539
17238SOL    HW152604   3.814   7.872   0.195 -0.1909 -0.0405 -0.0737
17238SOL    HW252605   3.834   8.034   0.193  0.8511 -0.1718 -0.4171
17239SOL     OW52606   4.326   7.910   2.118  0.1987  0.1149  0.0877
17239SOL    HW152607   4.285   7.821   2.139 -0.1117  0.3829  0.6171
17239SOL    HW252608   4.425   7.899   2.109 -0.1192 -0.8910 -3.0306
17241SOL     OW52609   4.286   4.510   3.752  0.3082  0.1812 -0.1095
17241SOL    HW152610   4.218   4.578   3.724  0.2257 -0.2695 -1.0174
17241SOL    HW252611   4.375   4.555   3.766 -0.1775  0.7798  1.1446
17243SOL     OW52612   4.640   2.653   0.959  0.4078 -0.2585  0.2665
17243SOL    HW152613   4.555   2.671   1.008  1.0138  1.6664  0.6751
17243SOL    HW252614   4.717   2.656   1.023  0.9515 -0.2018 -0.3818
17244SOL     OW52615   9.527   6.488   6.244 -0.5959  0.2584  0.1663
17244SOL    HW152616   9.559   6.566   6.297  3.4492 -0.7106 -0.6887
17244SOL    HW252617   9.531   6.405   6.300 -1.4021  0.0731 -0.0403
17245SOL     OW52618   3.882   8.783   2.662  0.2594  0.2211 -0.2817
17245SOL    HW152619   3.928   8.696   2.649  0.6937  0.4471 -0.2591
17245SOL    HW252620   3.937   8.842   2.721 -0.8061 -0.0961  1.0383
17246SOL     OW52621   7.791   1.587   6.223 -0.1760  0.2441 -0.6475
17246SOL    HW152622   7.758   1.525   6.295  0.3302  1.1511  0.3800
17246SOL    HW252623   7.868   1.640   6.257  0.0930  0.6678 -1.8808
17250SOL     OW52624   0.086   5.394   3.604  0.4963 -0.4442 -0.0695
17250SOL    HW152625   0.048   5.357   3.689  1.6696  1.8477  1.4986
17250SOL    HW252626   0.078   5.494   3.605  0.1881 -0.3942 -2.8458
17251SOL     OW52627   5.325   9.310   5.572  0.4257 -0.0260 -0.2928
17251SOL    HW152628   5.321   9.230   5.512 -1.6793  0.8309 -1.3311
17251SOL    HW252629   5.233   9.334   5.602  1.3662  0.0119  2.7434
17252SOL     OW52630   3.138   5.325   4.746 -0.3634  0.1918  0.0408
17252SOL    HW152631   3.065   5.331   4.677 -0.2015 -1.5399 -0.3150
17252SOL    HW252632   3.102   5.281   4.828  0.5417 -1.8083 -0.5793
17253SOL     OW52633   6.953   7.899   3.289 -0.0679 -0.1648 -0.1086
17253SOL    HW152634   7.041   7.944   3.304 -0.5552  0.0905  2.0863
17253SOL    HW252635   6.881   7.953   3.333 -1.1832 -0.9721 -0.9279
17255SOL     OW52636   8.831   8.738   2.520  0.5137 -0.3520  0.7793
17255SOL    HW152637   8.852   8.663   2.584 -1.6350 -0.9616  0.8071
17255SOL    HW252638   8.787   8.700   2.439  1.4356  0.6566 -0.1989
17256SOL     OW52639   7.860   3.531   3.772  0.3823 -0.0221  0.0956
17256SOL    HW152640   7.862   3.576   3.682 -0.1066  0.2623  0.2244
17256SOL    HW252641   7.831   3.436   3.761  2.4691 -0.6368 -0.3069
17257SOL     OW52642   0.854   0.757   0.551 -0.2209 -0.1435  0.4883
17257SOL    HW152643   0.945   0.716   0.559  0.1222  0.1565 -1.7194
17257SOL    HW252644   0.856   0.851   0.585  0.8363  0.6025 -1.5645
17258SOL     OW52645   7.444   0.036   0.223  0.4294  0.3464 -0.1931
17258SOL    HW152646   7.366   0.089   0.190 -0.7534  0.4210  2.5004
17258SOL    HW252647   7.414  -0.058   0.241  0.9083  0.4183  1.0077
17259SOL     OW52648   2.151   0.859   4.957 -0.1687 -0.2711 -0.3204
17259SOL    HW152649   2.202   0.781   4.920 -0.4137  0.0594 -1.3497
17259SOL    HW252650   2.189   0.944   4.923  0.7138  0.1218  1.5752
17260SOL     OW52651   3.428   9.464   0.275 -0.4121  0.4069  0.4739
17260SOL    HW152652   3.441   9.374   0.318 -0.1105 -0.4553 -1.3971
17260SOL    HW252653   3.330   9.478   0.258 -0.4451  0.3849  0.6371
17263SOL     OW52654   2.057   0.405   4.463 -0.2389 -0.4507  0.1054
17263SOL    HW152655   2.135   0.467   4.457  0.1280 -0.9763 -0.6842
17263SOL    HW252656   1.974   0.452   4.431 -0.2203  0.0632  0.8139
17264SOL     OW52657   8.058   6.569   6.428  0.4830 -0.2740 -0.0898
17264SOL    HW152658   8.107   6.576   6.341  0.3473  0.6600 -0.1001
17264SOL    HW252659   8.123   6.553   6.502  0.7159  0.0275 -0.2264
17265SOL     OW52660   0.073   5.641   4.591 -0.0347 -0.4424  0.1558
17265SOL    HW152661   0.061   5.670   4.685 -0.1875  1.4876 -0.4453
17265SOL    HW252662  -0.003   5.580   4.565 -1.3883  1.0791  0.4788
17267SOL     OW52663   6.661   9.868   4.673  0.0176  0.3662  0.3634
17267SOL    HW152664   6.740   9.922   4.701  1.3116 -1.2571 -0.0373
17267SOL    HW252665   6.669   9.776   4.711 -1.7515  0.2221  0.4173
17268SOL     OW52666   3.807   5.404   6.051 -0.7714 -0.2326 -0.4937
17268SOL    HW152667   3.783   5.312   6.018  0.6408  0.0182 -2.2918
17268SOL    HW252668   3.903   5.422   6.032 -1.3179  2.0721 -1.2399
17269SOL     OW52669   4.037   4.044   5.521  0.7270  0.3211  0.0965
17269SOL    HW152670   4.120   4.093   5.493  0.3584  0.7178 -0.3272
17269SOL    HW252671   4.012   3.978   5.450 -0.3443  1.4952 -0.6670
17272SOL     OW52672   1.296   4.404   1.637 -0.6975  0.1863  0.2641
17272SOL    HW152673   1.362   4.406   1.713 -1.3833 -0.2063  0.8779
17272SOL    HW252674   1.248   4.492   1.634 -0.0958  0.5001 -0.2303
17273SOL     OW52675   1.161   8.258   3.102  0.0214  0.3145  0.2999
17273SOL    HW152676   1.178   8.187   3.169  0.4177  0.0285 -0.0986
17273SOL    HW252677   1.155   8.347   3.148  1.5233  0.2780  0.5741
17274SOL     OW52678   4.411   4.946   6.205 -0.2921 -0.3365 -0.0102
17274SOL    HW152679   4.449   4.894   6.128 -1.6700 -0.3781 -0.6848
17274SOL    HW252680   4.311   4.946   6.198 -0.3556  1.1365  0.8290
17275SOL     OW52681   3.953   3.292   2.225  0.7661 -0.2186 -0.6886
17275SOL    HW152682   3.895   3.371   2.243  1.7357  0.1458  0.9329
17275SOL    HW252683   4.015   3.278   2.302  1.2450 -1.9983 -1.3692
17276SOL     OW52684   4.849   2.000   0.196  0.0588  0.3333  0.0118
17276SOL    HW152685   4.847   1.926   0.263  1.2273 -0.2082 -0.5430
17276SOL    HW252686   4.943   2.016   0.167 -0.4704  0.3208 -1.7557
17277SOL     OW52687   6.887   0.842   1.909 -0.3089 -0.1010  0.1599
17277SOL    HW152688   6.889   0.939   1.936 -0.7837  0.1492 -0.7007
17277SOL    HW252689   6.826   0.792   1.970 -1.0740  0.3922 -0.1951
17278SOL     OW52690   2.362   1.701   3.666 -0.2137  0.2507  0.1216
17278SOL    HW152691   2.333   1.627   3.727  0.0923 -0.1852 -0.2626
17278SOL    HW252692   2.416   1.663   3.591 -1.5304  0.6398 -1.0494
17280SOL     OW52693   5.667   8.281   6.143  0.1875 -0.1803 -0.1895
17280SOL    HW152694   5.571   8.284   6.116 -0.2606 -1.3633  1.1704
17280SOL    HW252695   5.675   8.299   6.241  1.3276 -0.3617 -0.2387
17281SOL     OW52696   4.403   3.701   2.209  0.0509 -0.0400  0.2200
17281SOL    HW152697   4.376   3.607   2.189 -0.1940 -0.0856  0.7671
17281SOL    HW252698   4.487   3.700   2.264 -0.3049  0.0433  0.7717
17282SOL     OW52699   8.672   3.103   2.596 -0.1269  0.5260 -0.6488
17282SOL    HW152700   8.594   3.076   2.539 -0.4158 -0.9585  0.4141
17282SOL    HW252701   8.721   3.022   2.626 -0.1645  1.2536  1.4813
17284SOL     OW52702   1.980   8.698   0.036 -0.0223 -0.5653  0.8726
17284SOL    HW152703   1.927   8.776   0.002 -0.3936 -0.1190  2.4206
17284SOL    HW252704   1.928   8.614   0.022  1.1968 -0.8169 -2.5755
17285SOL     OW52705   1.072   3.238   4.367 -0.3280 -0.1415  0.0703
17285SOL    HW152706   1.041   3.276   4.280  0.8962  0.5531 -0.0824
17285SOL    HW252707   1.071   3.138   4.362  0.0433 -0.1112 -0.8675
17286SOL     OW52708   7.602   3.331   5.736  0.1517 -0.1119 -0.1176
17286SOL    HW152709   7.560   3.416   5.768 -0.6527 -0.1745 -0.9992
17286SOL    HW252710   7.533   3.260   5.729  0.4838 -0.3468 -1.1271
17287SOL     OW52711   3.661   3.254   0.049  0.3940  0.2072 -0.5884
17287SOL    HW152712   3.701   3.345   0.066  1.6080 -0.4459  0.1158
17287SOL    HW252713   3.645   3.243  -0.049 -0.0602  1.2950 -0.6521
17288SOL     OW52714   0.217   8.406   2.474  0.5405  0.5740  0.0489
17288SOL    HW152715   0.168   8.321   2.458  2.5321 -0.7615  0.8491
17288SOL    HW252716   0.188   8.474   2.407 -0.0552 -1.1586 -1.4853
17290SOL     OW52717   4.760   4.333   1.245 -0.4991 -0.4461  0.4918
17290SOL    HW152718   4.824   4.410   1.243 -0.0175 -0.8581 -0.8703
17290SOL    HW252719   4.724   4.318   1.152 -2.0444 -0.6506  1.1093
17293SOL     OW52720   8.843   0.052   5.734  0.4065 -0.4673 -0.3542
17293SOL    HW152721   8.845  -0.047   5.748  0.5266 -0.1672  1.9178
17293SOL    HW252722   8.929   0.092   5.763 -0.7172  0.6327  1.5508
17294SOL     OW52723   8.957   7.339   3.702 -0.0457 -0.0759  0.0340
17294SOL    HW152724   8.907   7.277   3.762  0.1423 -0.9257 -0.6749
17294SOL    HW252725   8.973   7.426   3.749 -0.2783 -0.5789  1.0521
17295SOL     OW52726   7.549   2.224   3.540 -0.2475  0.1057  0.2713
17295SOL    HW152727   7.565   2.156   3.613 -1.9633 -1.8819 -1.1176
17295SOL    HW252728   7.619   2.215   3.470 -1.1764 -1.1741 -0.5334
17296SOL     OW52729   9.455   2.769   2.226 -0.1870 -0.4437  0.3840
17296SOL    HW152730   9.458   2.839   2.297 -1.0270  0.6567 -0.6406
17296SOL    HW252731   9.531   2.784   2.162 -1.9093  1.2036 -1.3459
17298SOL     OW52732   3.534   0.354   4.746  0.2067 -0.2750  0.2478
17298SOL    HW152733   3.481   0.343   4.662 -1.6411  0.5593  1.2839
17298SOL    HW252734   3.604   0.424   4.732  0.9000 -1.1959 -1.0478
17299SOL     OW52735   6.923   0.528   1.460 -0.2790  0.3445  0.0958
17299SOL    HW152736   6.828   0.507   1.487 -0.1153 -0.3313  0.1533
17299SOL    HW252737   6.970   0.443   1.437  0.4582  0.6380  0.5292
17300SOL     OW52738   6.153   7.617   5.631  0.0179 -0.3958 -0.7061
17300SOL    HW152739   6.146   7.657   5.722  1.9757  1.7108 -1.4064
17300SOL    HW252740   6.063   7.585   5.601 -0.6536 -1.0011  1.8925
17301SOL     OW52741   6.209   0.258   5.251  0.2376  0.1327 -0.5655
17301SOL    HW152742   6.207   0.192   5.177  1.0142  0.0989 -0.5559
17301SOL    HW252743   6.297   0.307   5.251 -0.3348  1.1826 -0.5952
17302SOL     OW52744   3.463   8.794   4.702  0.1562 -0.1181  0.4014
17302SOL    HW152745   3.374   8.760   4.733 -0.6581 -0.3476 -2.0974
17302SOL    HW252746   3.509   8.723   4.650  0.2124  1.2072 -1.4016
17303SOL     OW52747   1.786   0.522   0.030  0.3356  0.0065 -0.0109
17303SOL    HW152748   1.798   0.611   0.073 -0.2322  0.1544 -0.1552
17303SOL    HW252749   1.811   0.450   0.095 -2.2611  0.1737  1.2133
17304SOL     OW52750   2.155   2.119   3.913  0.4248 -0.0401 -0.0899
17304SOL    HW152751   2.084   2.180   3.949  0.6557  0.5220 -0.5749
17304SOL    HW252752   2.220   2.172   3.858  1.3106 -0.5195  0.4754
17305SOL     OW52753   3.474   4.847   5.049 -0.0833 -0.6568  0.3565
17305SOL    HW152754   3.390   4.828   4.996  0.1886 -0.3505 -0.1918
17305SOL    HW252755   3.493   4.945   5.047  0.0878 -0.6817  0.7954
17306SOL     OW52756   0.858   7.680   1.618 -0.1007  0.3024 -0.6266
17306SOL    HW152757   0.791   7.712   1.551  0.3112  0.0384 -1.1722
17306SOL    HW252758   0.868   7.581   1.611 -0.1759  0.2553 -0.0630
17307SOL     OW52759   2.032   7.866   1.435  0.6684 -0.0700  0.1420
17307SOL    HW152760   2.055   7.907   1.523  1.8912 -0.7943  0.1772
17307SOL    HW252761   1.990   7.934   1.376 -0.7354  0.2566  1.5117
17308SOL     OW52762   3.739   6.147   1.883 -0.1854  0.3077  0.3047
17308SOL    HW152763   3.779   6.078   1.822  0.5365  0.0799  1.0277
17308SOL    HW252764   3.689   6.102   1.957 -1.0284  0.5831 -0.0856
17309SOL     OW52765   3.203   0.396   0.140  0.0559  0.0042  0.2527
17309SOL    HW152766   3.288   0.426   0.098  0.0486  1.5643  1.2788
17309SOL    HW252767   3.222   0.331   0.213  0.2656 -0.6006 -0.3363
17312SOL     OW52768   4.311   6.810   3.738 -0.0365  0.3606 -0.1535
17312SOL    HW152769   4.333   6.729   3.792  0.9796  1.4101  1.0522
17312SOL    HW252770   4.251   6.785   3.662 -2.1339 -1.0199  1.9040
17313SOL     OW52771   0.089   4.525   2.858 -0.1452  0.2708 -0.3219
17313SOL    HW152772   0.104   4.560   2.950  2.1330  1.3254 -1.0414
17313SOL    HW252773  -0.006   4.497   2.847 -0.5494  0.6014  2.1786
17314SOL     OW52774   2.420   4.432   3.935  0.0212 -0.3200  0.9279
17314SOL    HW152775   2.395   4.525   3.908 -0.2456 -0.2607  1.3772
17314SOL    HW252776   2.367   4.366   3.882 -0.7703 -0.1997  1.5616
17315SOL     OW52777   0.795   1.302   1.108  0.8030 -0.6469 -0.0587
17315SOL    HW152778   0.821   1.252   1.025 -0.3318 -1.0887 -0.1596
17315SOL    HW252779   0.700   1.280   1.131  0.9044 -0.0026  0.9792
17316SOL     OW52780   1.935   3.320   2.398  0.4946  0.3398  0.1753
17316SOL    HW152781   1.968   3.226   2.410  0.1384  0.4158  1.9075
17316SOL    HW252782   1.994   3.383   2.448 -1.9211  0.5129  2.9764
17317SOL     OW52783   1.221   6.988   3.344  0.5131  0.2194  0.2184
17317SOL    HW152784   1.239   7.042   3.263 -2.5717  2.0427  0.6868
17317SOL    HW252785   1.126   6.956   3.343  0.7614 -0.7212  2.5239
17319SOL     OW52786   2.502   7.786   3.279 -0.4524 -0.4025  0.3024
17319SOL    HW152787   2.581   7.846   3.294 -0.5800  0.0162 -0.6471
17319SOL    HW252788   2.457   7.766   3.366  0.2749 -0.0528  0.7548
17320SOL     OW52789   1.860   8.825   0.459 -0.2150 -0.5838  0.6907
17320SOL    HW152790   1.868   8.922   0.480 -0.0347 -0.6304  0.8371
17320SOL    HW252791   1.765   8.804   0.435 -0.5345 -0.6019  1.9083
17321SOL     OW52792   0.486   2.834   0.146 -0.7163  0.0238 -0.0226
17321SOL    HW152793   0.438   2.918   0.123 -0.5052  0.4916  1.1694
17321SOL    HW252794   0.578   2.856   0.179 -0.7460 -0.6463  0.5353
17323SOL     OW52795   3.977   6.776   1.679  0.7319  0.1603  0.0065
17323SOL    HW152796   3.882   6.774   1.711  1.1636 -1.4960  1.2969
17323SOL    HW252797   4.030   6.839   1.735  0.3260  1.3113 -0.9086
17324SOL     OW52798   3.082   2.414   3.902 -0.5586 -0.0282  0.6193
17324SOL    HW152799   3.055   2.490   3.961 -0.2821 -0.2217  0.9976
17324SOL    HW252800   3.027   2.415   3.818 -0.0523  1.0164  0.2975
17325SOL     OW52801   0.423   5.452   5.971 -0.0294 -0.0134 -0.5620
17325SOL    HW152802   0.486   5.454   6.049 -0.5915 -0.1339 -0.1041
17325SOL    HW252803   0.438   5.368   5.919  2.0993  1.2495 -2.0459
17327SOL     OW52804   2.030   7.288   2.389 -0.0118 -0.3619 -0.0420
17327SOL    HW152805   1.993   7.206   2.345 -0.5222  0.1704 -0.6239
17327SOL    HW252806   2.060   7.266   2.481  0.8606 -1.4433 -0.5837
17328SOL     OW52807   2.135   4.097   4.228 -0.4105 -0.4289  0.4776
17328SOL    HW152808   2.180   4.187   4.227 -1.5105  0.1252 -0.3695
17328SOL    HW252809   2.048   4.103   4.275 -1.2604 -0.6508 -1.0187
17329SOL     OW52810   1.177   1.212   4.038 -0.6081  0.8099  0.0653
17329SOL    HW152811   1.159   1.167   4.125 -1.9330  0.2416 -0.4909
17329SOL    HW252812   1.124   1.296   4.032 -0.5558  0.8242 -0.2183
17331SOL     OW52813   3.259   2.354   3.694  0.0079  0.0519 -0.1090
17331SOL    HW152814   3.199   2.355   3.774 -1.8681 -0.1201 -1.4905
17331SOL    HW252815   3.288   2.261   3.675 -0.2805 -0.0275 -0.1637
17332SOL     OW52816   7.362   2.675   4.579  0.6113  0.3542 -0.2479
17332SOL    HW152817   7.381   2.708   4.486 -0.7363  1.4664 -0.1537
17332SOL    HW252818   7.356   2.575   4.578  1.9674  0.2633 -1.0847
17333SOL     OW52819   1.353   3.840   3.285 -0.0633  0.7161 -0.3229
17333SOL    HW152820   1.393   3.752   3.312 -0.9835 -0.4026 -2.4510
17333SOL    HW252821   1.365   3.853   3.187 -0.9349  2.4573 -0.2093
17334SOL     OW52822   5.389   8.012   5.199  0.6180  0.0003  0.3122
17334SOL    HW152823   5.331   7.941   5.158  1.4493 -0.4276 -0.1363
17334SOL    HW252824   5.371   8.016   5.298  0.4804 -0.7581  0.3228
17335SOL     OW52825   4.114   3.362   4.636 -0.0968  0.0115 -0.6315
17335SOL    HW152826   4.066   3.278   4.662 -0.8031  0.2179 -1.2348
17335SOL    HW252827   4.056   3.414   4.573 -0.2323  1.6012  0.7903
17336SOL     OW52828   2.841   6.501   3.510  0.3585 -0.1964  0.3095
17336SOL    HW152829   2.882   6.591   3.522  1.0248 -0.7076  1.9243
17336SOL    HW252830   2.890   6.434   3.565  0.4830 -1.7415 -1.6399
17337SOL     OW52831   8.069   1.647   5.271  0.2810 -0.0088 -0.3429
17337SOL    HW152832   8.006   1.721   5.247  0.9794  1.3983  2.0124
17337SOL    HW252833   8.027   1.588   5.339  0.3825 -0.8062 -0.9656
17338SOL     OW52834   8.454   2.890   0.889  0.2030 -0.0570  0.2511
17338SOL    HW152835   8.473   2.967   0.827 -1.6713 -0.2269 -0.5861
17338SOL    HW252836   8.534   2.831   0.895  0.4329 -0.0250 -2.0294
17339SOL     OW52837   0.207   0.032   3.067  0.2812 -0.0550 -0.1444
17339SOL    HW152838   0.250  -0.047   3.112 -0.8070 -0.3959  0.3089
17339SOL    HW252839   0.211   0.111   3.128 -1.7738 -0.6836  0.8416
17340SOL     OW52840   5.284   0.177   5.585  0.0130 -0.2444  0.4177
17340SOL    HW152841   5.302   0.259   5.640  1.9073 -0.1496 -0.3176
17340SOL    HW252842   5.365   0.154   5.532 -1.5194 -0.8386 -1.7175
17342SOL     OW52843   5.172   0.950   4.313 -0.2247  0.3855 -0.0005
17342SOL    HW152844   5.163   1.015   4.237  0.8240 -0.5015 -0.8896
17342SOL    HW252845   5.243   0.982   4.376  1.6665 -0.8820 -1.4619
17343SOL     OW52846   4.164   5.305   0.083 -0.3073  0.6030 -0.5193
17343SOL    HW152847   4.124   5.248   0.154 -1.5760 -0.0956 -1.7862
17343SOL    HW252848   4.230   5.369   0.124 -0.2881 -0.4766  1.1315
17345SOL     OW52849   4.990   9.548   4.521  0.0564 -0.3847  0.4514
17345SOL    HW152850   5.072   9.534   4.576  0.8227  1.3716 -0.2185
17345SOL    HW252851   4.939   9.628   4.555  0.3142  0.4564 -1.0996
17346SOL     OW52852   8.270   3.684   3.989  0.1860  1.0251 -0.4594
17346SOL    HW152853   8.177   3.685   4.025  0.7105 -0.1537  0.9728
17346SOL    HW252854   8.307   3.777   3.990 -0.8960  1.4682 -0.8517
17348SOL     OW52855   7.816   7.670   1.905  0.2439 -0.0897 -0.2179
17348SOL    HW152856   7.784   7.685   1.999 -0.5835  1.8870 -0.7905
17348SOL    HW252857   7.820   7.758   1.857  1.6781 -0.9520 -1.7188
17349SOL     OW52858   9.593   3.652   0.730 -0.3143  0.1135 -0.1806
17349SOL    HW152859   9.663   3.723   0.726  0.1031 -0.2869  0.0184
17349SOL    HW252860   9.508   3.691   0.765  0.3386  0.1705  1.3387
17350SOL     OW52861   8.356   1.918   3.064 -0.0080 -0.4797  0.0022
17350SOL    HW152862   8.446   1.961   3.061  0.7520 -1.8412  2.0691
17350SOL    HW252863   8.367   1.818   3.055 -1.4795 -0.5335 -1.5698
17351SOL     OW52864   6.448   1.156   4.248 -0.5559 -0.4220  0.1451
17351SOL    HW152865   6.483   1.102   4.171 -1.7798  0.3287 -0.9610
17351SOL    HW252866   6.437   1.251   4.219 -1.7988 -0.2969  1.0166
17352SOL     OW52867   1.333   2.459   0.013  0.1691  0.7213 -1.0334
17352SOL    HW152868   1.419   2.499   0.045  0.7007  0.5291 -2.1831
17352SOL    HW252869   1.271   2.532  -0.017 -0.4432  0.9240  0.6285
17353SOL     OW52870   2.197   3.391   4.245 -0.2575 -0.7073  0.7220
17353SOL    HW152871   2.181   3.472   4.189  0.7688 -2.4490 -2.1873
17353SOL    HW252872   2.110   3.344   4.263 -0.5529 -0.3433  0.2443
17354SOL     OW52873   1.864   3.786   2.929  0.4221 -0.2906  0.3641
17354SOL    HW152874   1.804   3.853   2.885  1.0957  0.8484  1.1515
17354SOL    HW252875   1.849   3.696   2.889 -1.0422  0.1925 -0.1832
17355SOL     OW52876   3.711   0.072   3.400 -0.5320  0.3536  0.0410
17355SOL    HW152877   3.619   0.034   3.409 -0.3353  0.0356  0.7957
17355SOL    HW252878   3.710   0.148   3.335 -1.8598  2.1011  2.0306
17356SOL     OW52879   2.500   9.828   5.634 -0.1336  0.5481  0.5903
17356SOL    HW152880   2.467   9.747   5.585  1.8402  0.3277 -0.4392
17356SOL    HW252881   2.440   9.847   5.712 -0.6831 -1.8276  0.7804
17357SOL     OW52882   2.692   6.671   6.361  0.0259  0.0579 -0.0075
17357SOL    HW152883   2.598   6.640   6.342 -0.2439  1.2849 -0.7604
17357SOL    HW252884   2.756   6.599   6.334 -0.6281 -0.2098 -0.9011
17358SOL     OW52885   8.217   7.915   4.099 -0.3101  0.1922  0.4786
17358SOL    HW152886   8.289   7.983   4.085  1.3017 -1.6551 -0.4170
17358SOL    HW252887   8.144   7.929   4.032  1.3935 -0.7292 -1.6271
17359SOL     OW52888   2.284   2.165   0.563 -0.1085 -0.1270 -0.1678
17359SOL    HW152889   2.313   2.069   0.568 -0.5995 -0.2597  0.1674
17359SOL    HW252890   2.357   2.220   0.524  0.0211 -0.7139 -0.7643
17360SOL     OW52891   9.933   9.631   1.480  0.6795 -0.3935  0.1167
17360SOL    HW152892   9.980   9.704   1.431  0.1865 -1.1359 -1.5179
17360SOL    HW252893   9.851   9.604   1.429  0.6026 -1.7648  0.9332
17361SOL     OW52894   1.900   8.619   6.108 -0.0528  0.2372  0.3625
17361SOL    HW152895   1.873   8.526   6.080 -1.2557  0.3384  1.1387
17361SOL    HW252896   1.846   8.646   6.188  0.3790  1.5642  0.2045
17363SOL     OW52897   2.995   1.857   6.329 -0.3075 -0.2736  0.0135
17363SOL    HW152898   2.951   1.768   6.312  2.5141 -1.8716  0.7376
17363SOL    HW252899   3.029   1.859   6.423 -0.4035  1.6238  0.0088
17364SOL     OW52900   5.570   8.864   3.700 -0.3874  0.0450  0.0479
17364SOL    HW152901   5.517   8.949   3.705 -0.2798  0.0653  0.9080
17364SOL    HW252902   5.525   8.800   3.639 -0.4435  0.7452 -0.6541
17366SOL     OW52903   7.772   5.770   2.782 -0.1135  0.5448 -0.0740
17366SOL    HW152904   7.864   5.796   2.750 -0.2892  1.5055  0.1846
17366SOL    HW252905   7.780   5.714   2.864  0.2605  0.3018 -0.2745
17367SOL     OW52906   7.228   1.008   2.948 -0.4210 -0.2741  0.1214
17367SOL    HW152907   7.193   1.043   2.861  0.4921 -0.7940 -0.4680
17367SOL    HW252908   7.295   1.073   2.985 -1.1120  0.1463  0.6530
17368SOL     OW52909   4.160   7.926   2.445 -0.3904 -0.5167  0.7967
17368SOL    HW152910   4.110   8.013   2.444 -2.0363 -1.4554 -0.7316
17368SOL    HW252911   4.148   7.880   2.357  1.7872 -1.5659  1.0244
17369SOL     OW52912   2.936   8.026   3.847 -0.1406 -0.4858 -0.1183
17369SOL    HW152913   2.874   8.064   3.777  1.2773  1.2816 -0.4566
17369SOL    HW252914   2.976   8.101   3.900  3.9274 -1.3389 -1.8087
17370SOL     OW52915   1.717   3.338   3.437 -0.0987  0.1267 -0.5496
17370SOL    HW152916   1.746   3.396   3.513  2.2175 -0.2433 -1.1257
17370SOL    HW252917   1.634   3.376   3.396 -0.6514  1.0238  1.3453
17371SOL     OW52918   1.299   9.958   4.185 -0.1799 -0.1373  0.3203
17371SOL    HW152919   1.393   9.927   4.170  0.1785  0.9434  0.2648
17371SOL    HW252920   1.276   9.950   4.282  0.4598  0.9045  0.5661
17372SOL     OW52921   3.296   0.872   4.853 -0.1390 -0.4120 -0.0148
17372SOL    HW152922   3.235   0.835   4.922 -1.4918  1.7291 -0.0085
17372SOL    HW252923   3.273   0.833   4.764 -0.1921 -1.1046  0.2985
17374SOL     OW52924   2.901   2.487   5.792  0.4782  0.2382 -1.2170
17374SOL    HW152925   2.980   2.488   5.853  0.3444  1.0839 -1.0474
17374SOL    HW252926   2.878   2.393   5.768  0.7109 -0.0821 -0.1928
17375SOL     OW52927   3.197   1.952   1.713 -0.3533 -0.3299 -0.3345
17375SOL    HW152928   3.282   1.900   1.703 -0.3412 -0.4210  0.2362
17375SOL    HW252929   3.144   1.946   1.628 -1.0542 -2.4890  0.2396
17377SOL     OW52930   2.707   2.256   1.935  0.0364  0.1882 -0.0640
17377SOL    HW152931   2.734   2.237   1.841  1.3003 -0.7994  0.4817
17377SOL    HW252932   2.644   2.333   1.937  1.1800  1.1892 -1.5817
17378SOL     OW52933   3.896   8.036   1.060  0.1279 -0.1552 -0.0644
17378SOL    HW152934   3.990   8.046   1.028 -0.4985 -1.2892 -2.3884
17378SOL    HW252935   3.859   7.948   1.029 -1.4947 -0.0194  1.3697
17379SOL     OW52936   3.645   0.304   0.895 -0.1965 -0.2321  0.6654
17379SOL    HW152937   3.667   0.351   0.810  0.5549  1.2161  1.6324
17379SOL    HW252938   3.597   0.366   0.957 -0.6045 -1.2181  1.3612
17380SOL     OW52939   0.529   6.252   4.094 -0.1469  0.2301 -0.1025
17380SOL    HW152940   0.447   6.292   4.134  0.2841  2.1305 -1.0601
17380SOL    HW252941   0.509   6.222   4.000 -0.2451 -1.0687  0.3241
17381SOL     OW52942   6.953   4.783   1.130  0.1300 -0.0612  0.3137
17381SOL    HW152943   6.960   4.766   1.031 -0.3589  1.3462  0.0250
17381SOL    HW252944   7.021   4.851   1.157 -0.6792  0.6117  0.6850
17383SOL     OW52945   8.021   9.818   2.739 -1.0091  0.3466 -0.0965
17383SOL    HW152946   8.099   9.855   2.791 -1.3487  0.2181  0.5129
17383SOL    HW252947   8.031   9.719   2.730 -0.9223  0.3750 -0.3187
17384SOL     OW52948   1.513   1.671   2.142 -0.0361  1.0277  0.2542
17384SOL    HW152949   1.592   1.617   2.172  0.9998  3.1048  1.4038
17384SOL    HW252950   1.442   1.610   2.108  1.7716 -0.9342 -0.1104
17385SOL     OW52951   8.219   9.754   0.922  0.4824  0.1151 -0.2230
17385SOL    HW152952   8.196   9.789   1.013  0.4290 -2.6390  0.8644
17385SOL    HW252953   8.315   9.771   0.903  0.7549 -0.2731  0.8065
17386SOL     OW52954   2.268   6.023   6.376  0.2248  0.1118 -0.0854
17386SOL    HW152955   2.335   6.091   6.407 -0.1291  1.0671 -1.3855
17386SOL    HW252956   2.307   5.932   6.386  1.4006  0.6096 -0.0239
17387SOL     OW52957   7.596   6.985   3.009 -0.3821 -0.0488 -0.3001
17387SOL    HW152958   7.611   6.935   3.095 -0.4036 -0.1010 -0.3264
17387SOL    HW252959   7.608   7.083   3.025  0.7668 -0.1442 -0.4853
17388SOL     OW52960   0.305   1.192   0.372  0.1736  0.3439  0.6046
17388SOL    HW152961   0.355   1.178   0.457 -0.9038 -0.4563  1.1159
17388SOL    HW252962   0.370   1.210   0.298  1.2035 -0.4919  1.2936
17389SOL     OW52963   6.503   8.364   4.485 -0.2769 -1.2150 -0.3801
17389SOL    HW152964   6.596   8.397   4.470  1.0182 -3.7197  1.6838
17389SOL    HW252965   6.477   8.376   4.581 -2.6436  0.7245 -1.2167
17390SOL     OW52966   3.008   6.094   1.962 -0.4106 -0.0123 -0.5378
17390SOL    HW152967   3.068   6.014   1.973  1.2563  1.2960 -0.0087
17390SOL    HW252968   3.059   6.168   1.918 -1.3145  1.4738  0.8834
17391SOL     OW52969   7.361   4.270   5.466  0.1846  0.2123  0.4254
17391SOL    HW152970   7.344   4.314   5.554  1.6370  1.8461 -0.0856
17391SOL    HW252971   7.367   4.340   5.395  1.1800 -0.9180 -0.6211
17392SOL     OW52972   8.196   5.083   2.123 -0.0608  0.1994  0.0640
17392SOL    HW152973   8.214   5.073   2.025 -0.2355 -1.3618  0.1772
17392SOL    HW252974   8.119   5.023   2.149 -1.8090  2.6225  0.6407
17393SOL     OW52975   8.676   7.382   0.054 -0.3656 -0.7963 -0.2888
17393SOL    HW152976   8.581   7.361   0.078 -0.4644  0.6494  0.6715
17393SOL    HW252977   8.718   7.434   0.128  1.6093 -2.5821 -0.1275
17394SOL     OW52978   4.067   9.706   1.583  0.5215  0.5454 -0.3440
17394SOL    HW152979   4.124   9.710   1.665  0.1813  0.2310 -0.0907
17394SOL    HW252980   3.984   9.759   1.597 -0.3911 -1.0044  0.1909
17395SOL     OW52981   9.958   9.356   5.545  0.2198  0.1864 -0.0736
17395SOL    HW152982   9.876   9.346   5.601  0.3340 -0.2538  0.0139
17395SOL    HW252983  10.009   9.437   5.574  0.8465 -0.6466  1.1943
17396SOL     OW52984   0.217   6.308   3.023  0.3398 -0.2593 -0.0934
17396SOL    HW152985   0.142   6.254   2.987  1.7347 -1.6717 -0.9586
17396SOL    HW252986   0.269   6.253   3.088  1.6787  0.0620 -0.8665
17397SOL     OW52987   8.497   1.763   3.368 -0.2784 -0.2767 -0.6696
17397SOL    HW152988   8.494   1.859   3.340  1.3064 -0.2125 -0.6391
17397SOL    HW252989   8.576   1.718   3.327  0.6055 -0.8379  1.5804
17398SOL     OW52990   7.508   4.216   1.619 -0.9419  0.1023  0.3461
17398SOL    HW152991   7.538   4.123   1.598  0.2329  0.5816 -0.1726
17398SOL    HW252992   7.570   4.257   1.686  1.0622  1.9455 -2.5073
17399SOL     OW52993   9.935   1.656   2.220 -0.4054 -0.0035  0.7972
17399SOL    HW152994   9.883   1.571   2.228  0.2445 -0.3985  0.7763
17399SOL    HW252995  10.033   1.637   2.227 -0.1534  0.4888 -1.3101
17400SOL     OW52996   0.629   3.724   0.764 -0.4259  0.0570  0.1961
17400SOL    HW152997   0.617   3.625   0.756  0.0388 -0.0050  0.2467
17400SOL    HW252998   0.719   3.744   0.802  0.3916  0.5500 -1.8935
17401SOL     OW52999   4.616   2.484   3.524  0.1691 -0.3799  0.3398
17401SOL    HW153000   4.539   2.456   3.583 -0.2385  0.4158  0.1909
17401SOL    HW253001   4.584   2.553   3.459  0.7926 -0.7384 -0.3469
17402SOL     OW53002   1.405   5.889   1.441 -0.0806 -0.5492  0.1458
17402SOL    HW153003   1.348   5.809   1.421 -0.0517 -0.5101 -0.0987
17402SOL    HW253004   1.374   5.931   1.526  0.3118 -1.1833  0.5992
17403SOL     OW53005   1.422   9.192   3.144  0.4889 -0.0651 -0.4181
17403SOL    HW153006   1.337   9.140   3.154  0.6205 -0.1708  0.1494
17403SOL    HW253007   1.464   9.205   3.234 -0.5058  2.6637 -0.3093
17405SOL     OW53008   0.398   0.337   2.114 -0.0125  0.7549  0.3169
17405SOL    HW153009   0.378   0.281   2.195  0.1385 -0.3660 -0.4163
17405SOL    HW253010   0.488   0.379   2.124  0.4133 -0.1388  0.3265
17406SOL     OW53011   5.913   1.478   4.625  0.5458 -0.8484 -0.5440
17406SOL    HW153012   5.874   1.530   4.549  1.6087 -0.0005 -0.5199
17406SOL    HW253013   5.853   1.487   4.705  0.6921  0.2995 -0.5512
17407SOL     OW53014   2.453   6.519   0.681 -0.0067  0.6025  0.4012
17407SOL    HW153015   2.452   6.423   0.656  1.8773  1.1008 -1.7368
17407SOL    HW253016   2.366   6.561   0.656 -0.7079 -0.4600  1.0427
17408SOL     OW53017   1.929   1.352   3.621 -0.0175  0.3633  0.1658
17408SOL    HW153018   1.974   1.294   3.688  1.5007 -0.5647 -1.6290
17408SOL    HW253019   1.862   1.299   3.570  0.7255  0.4052 -0.8619
17409SOL     OW53020   8.794   2.376   4.929  0.3294 -0.9324  0.0089
17409SOL    HW153021   8.793   2.340   5.022 -0.6710 -0.2202  0.2871
17409SOL    HW253022   8.877   2.347   4.882  0.7628 -1.4221  1.0777
17410SOL     OW53023   0.990   4.488   4.093  0.1519  0.1988 -0.6406
17410SOL    HW153024   0.916   4.508   4.156 -0.1026 -0.5881 -0.6754
17410SOL    HW253025   1.000   4.388   4.085  2.7633  0.2483  1.2272
17411SOL     OW53026   0.201   9.391   1.816  0.2312 -0.2301  0.0073
17411SOL    HW153027   0.186   9.340   1.900 -2.6393  0.3662 -0.1025
17411SOL    HW253028   0.259   9.470   1.836  2.0858 -1.7465  0.7856
17412SOL     OW53029   1.287   5.665   5.435 -0.2037 -0.1342  0.1371
17412SOL    HW153030   1.310   5.729   5.508 -1.5217  0.8395 -0.2850
17412SOL    HW253031   1.301   5.708   5.346 -1.8303 -0.1488 -0.1424
17413SOL     OW53032   7.899   3.507   4.525  0.1654 -0.1069  0.2427
17413SOL    HW153033   7.959   3.518   4.446 -1.4726 -1.1725 -1.1971
17413SOL    HW253034   7.901   3.412   4.556  0.4191  0.1991  1.1816
17414SOL     OW53035   6.755   4.151   1.542  0.1416  0.3934 -0.2030
17414SOL    HW153036   6.745   4.243   1.580  2.5224  0.6856 -0.2320
17414SOL    HW253037   6.829   4.150   1.475 -0.3164 -1.3898 -0.7033
17416SOL     OW53038   0.535   7.716   5.811  0.5847  0.3285  0.7195
17416SOL    HW153039   0.462   7.785   5.814 -2.4948 -2.7470  0.3869
17416SOL    HW253040   0.571   7.710   5.718 -0.0796  0.5634  0.4445
17417SOL     OW53041   2.430   6.084   4.600 -0.3069  0.3209 -0.7337
17417SOL    HW153042   2.419   5.989   4.571  0.6889 -0.1381  0.3398
17417SOL    HW253043   2.436   6.088   4.700  0.4148  1.4252 -0.8081
17418SOL     OW53044   1.136   0.483   2.060 -0.1027  0.6666  0.0667
17418SOL    HW153045   1.042   0.451   2.063  0.0740  0.2383  1.3119
17418SOL    HW253046   1.149   0.555   2.129  1.1617 -1.2155  1.8732
17419SOL     OW53047   0.488   0.612   0.381  0.4015 -0.5314 -0.0332
17419SOL    HW153048   0.530   0.701   0.401  0.0859 -0.4999  0.5072
17419SOL    HW253049   0.394   0.611   0.415 -0.2439 -0.3945 -1.7604
17420SOL     OW53050   4.153   4.924   6.219  0.5297 -0.2210  0.0546
17420SOL    HW153051   4.157   4.847   6.283 -0.3091 -1.2624 -1.1097
17420SOL    HW253052   4.067   4.973   6.229  0.3211 -0.4912 -0.3768
17421SOL     OW53053   4.775   7.911   1.526 -0.5145 -0.5953 -0.0758
17421SOL    HW153054   4.682   7.945   1.512  0.2938  0.5840 -3.0036
17421SOL    HW253055   4.786   7.824   1.479  0.6682  0.7073 -2.2839
17422SOL     OW53056   9.737   6.737   3.957  0.1300 -0.2661 -0.1804
17422SOL    HW153057   9.656   6.721   3.900 -0.8269 -0.2014  1.1518
17422SOL    HW253058   9.773   6.650   3.989  0.6300 -0.2989 -0.8377
17423SOL     OW53059   5.840   0.863   5.388 -0.0542 -0.0912 -0.1717
17423SOL    HW153060   5.837   0.882   5.290  0.2171  1.3420  0.0863
17423SOL    HW253061   5.894   0.933   5.434 -0.6976 -0.4055  1.0923
17424SOL     OW53062   2.812   6.172   5.504 -0.3296  0.1917  0.1558
17424SOL    HW153063   2.832   6.200   5.410 -0.1227  0.6652  0.3410
17424SOL    HW253064   2.886   6.202   5.564 -1.0166  0.9094  0.6576
17426SOL     OW53065   4.749   8.493   4.280  0.1443  0.3165  0.1754
17426SOL    HW153066   4.801   8.550   4.343 -0.3747 -0.1003  0.9908
17426SOL    HW253067   4.796   8.406   4.266  1.1558  1.0889 -1.4039
17428SOL     OW53068   3.153   3.249   4.432  0.1079  0.6193  0.0138
17428SOL    HW153069   3.090   3.184   4.390  0.6186 -1.3308  2.1168
17428SOL    HW253070   3.238   3.252   4.379 -0.4781  0.7052 -0.9314
17429SOL     OW53071   9.771   7.696   4.447 -0.4294 -0.1098 -0.1246
17429SOL    HW153072   9.780   7.650   4.535 -0.4929  0.0514 -0.0338
17429SOL    HW253073   9.849   7.756   4.432 -0.0872 -0.6410 -0.4769
17430SOL     OW53074   8.251   8.633   2.303  0.2590 -0.1154  0.4807
17430SOL    HW153075   8.346   8.605   2.317  0.3160 -0.0556  0.2109
17430SOL    HW253076   8.230   8.712   2.361  0.0942 -0.7167  1.2576
17431SOL     OW53077   4.580   1.841   5.007  0.1455 -0.0603  0.4519
17431SOL    HW153078   4.553   1.860   4.913  2.7432  2.0189  0.0532
17431SOL    HW253079   4.665   1.787   5.007  0.3977  0.3261  1.5767
17432SOL     OW53080   8.421   8.974   4.891  0.3757 -0.6103  0.2412
17432SOL    HW153081   8.390   8.879   4.890 -2.5426  0.2668  2.0761
17432SOL    HW253082   8.364   9.028   4.829  0.6258  0.3763  0.8700
17433SOL     OW53083   5.802   5.330   2.320  0.2131  0.3961 -0.5349
17433SOL    HW153084   5.706   5.309   2.342  0.8046  0.0992  1.9610
17433SOL    HW253085   5.829   5.278   2.239 -0.8877 -1.8725  0.4765
17435SOL     OW53086   9.056   8.555   0.989  0.1146  0.1355  0.1087
17435SOL    HW153087   8.985   8.602   0.937 -0.0163 -0.9124 -0.6899
17435SOL    HW253088   9.039   8.568   1.087 -2.3580 -1.7166 -0.0034
17436SOL     OW53089   8.402   0.903   4.037 -0.3764 -0.2859 -0.2098
17436SOL    HW153090   8.353   0.984   4.071 -1.1744 -1.1462  0.7193
17436SOL    HW253091   8.369   0.879   3.946  0.2101  0.7263 -0.6963
17437SOL     OW53092   8.433   4.023   1.542 -0.1455 -0.2194 -0.2334
17437SOL    HW153093   8.387   4.052   1.459 -0.0619 -0.4053 -0.3469
17437SOL    HW253094   8.528   4.053   1.540 -0.7142  1.7082  0.8098
17438SOL     OW53095   2.935   2.161   3.245 -0.4018 -0.3946  0.1481
17438SOL    HW153096   3.022   2.185   3.202  0.2348  1.0169  2.1269
17438SOL    HW253097   2.859   2.192   3.188  0.4258  1.2022 -0.1085
17439SOL     OW53098   2.895   7.835   6.210  0.6209 -0.2326  0.0067
17439SOL    HW153099   2.883   7.927   6.172  0.2626 -0.0209  0.6305
17439SOL    HW253100   2.893   7.768   6.135  2.2936  0.3779 -0.6003
17440SOL     OW53101   9.972   0.149   0.756 -0.2006  0.4422  0.2607
17440SOL    HW153102  10.005   0.073   0.812  0.9997  0.5827 -0.2314
17440SOL    HW253103   9.999   0.134   0.661  1.2047  2.1180  0.3692
17441SOL     OW53104   3.562   4.701   5.309  0.2504 -0.2834  0.1371
17441SOL    HW153105   3.586   4.795   5.334 -1.0041  0.3559 -0.9843
17441SOL    HW253106   3.497   4.702   5.233 -0.2378 -2.0572  0.4987
17442SOL     OW53107   2.602   3.995   0.368 -0.3889  1.3798  0.2794
17442SOL    HW153108   2.698   3.981   0.343 -0.4269 -1.4431  1.5226
17442SOL    HW253109   2.544   3.956   0.296 -0.5701  1.2452  0.4993
17443SOL     OW53110   1.879   0.574   4.343 -0.0031 -0.1855  0.0154
17443SOL    HW153111   1.899   0.635   4.419  0.0455 -0.5453  0.2965
17443SOL    HW253112   1.884   0.624   4.257  1.4144 -0.0956  0.1311
17444SOL     OW53113   0.612   2.453   3.394  0.7942 -0.1378 -0.1130
17444SOL    HW153114   0.573   2.522   3.455  0.4534  0.1994 -0.7066
17444SOL    HW253115   0.583   2.472   3.300  0.6996 -1.0964 -0.2785
17445SOL     OW53116   7.676   5.567   0.892  0.2764 -0.0902 -0.0663
17445SOL    HW153117   7.580   5.569   0.920  0.5517  0.0025  0.8915
17445SOL    HW253118   7.682   5.583   0.794 -0.7107 -0.4114 -0.1920
17446SOL     OW53119   4.191   1.198   4.805 -0.1673  0.1281 -0.4443
17446SOL    HW153120   4.261   1.248   4.857  0.0821  1.1206 -1.6981
17446SOL    HW253121   4.101   1.224   4.837  0.0221 -0.4268  0.5341
17447SOL     OW53122   9.360   4.004   0.648 -0.4169  0.5972 -0.0113
17447SOL    HW153123   9.395   4.090   0.684  0.1997  0.1413  0.5106
17447SOL    HW253124   9.411   3.978   0.566  0.6959 -0.2217  0.9251
17448SOL     OW53125   7.198   3.120   1.364  0.6502 -0.2020  0.0654
17448SOL    HW153126   7.165   3.194   1.305 -0.1451  0.2082  1.0101
17448SOL    HW253127   7.152   3.034   1.340 -1.8618  0.5316  1.9464
17449SOL     OW53128   6.502   2.358   1.645  0.9661 -0.2858 -0.7354
17449SOL    HW153129   6.530   2.334   1.737  0.2133  1.3541 -0.0573
17449SOL    HW253130   6.520   2.456   1.629 -0.6087 -0.1333 -1.6776
17450SOL     OW53131   9.401   9.414   2.647  0.2698  0.0096  0.0540
17450SOL    HW153132   9.434   9.329   2.688  2.9007  0.9917  0.0646
17450SOL    HW253133   9.301   9.410   2.638  0.3853 -3.3295 -0.5258
17451SOL     OW53134   7.922   1.507   3.518  0.8684  0.0042  0.2299
17451SOL    HW153135   7.964   1.450   3.448  1.1686  1.3587 -0.7137
17451SOL    HW253136   7.825   1.520   3.496  1.6655  3.0521 -1.7201
17452SOL     OW53137   7.425   8.987   4.481  0.5884  0.1396 -0.0174
17452SOL    HW153138   7.516   8.995   4.522  0.8046  1.8140 -0.7680
17452SOL    HW253139   7.392   9.078   4.457 -0.9510 -0.5348 -0.4934
17453SOL     OW53140   0.504   6.064   5.077 -0.5352 -0.0726  0.3048
17453SOL    HW153141   0.537   5.971   5.062 -1.4441 -0.5140  0.9823
17453SOL    HW253142   0.525   6.120   4.997 -0.1092 -0.8912 -0.1687
17454SOL     OW53143   2.772   3.023   0.109  0.0150 -0.4987 -0.1398
17454SOL    HW153144   2.819   3.033   0.196 -1.3338  0.4776  0.5043
17454SOL    HW253145   2.829   2.972   0.045  1.8460  0.4775  0.6754
17455SOL     OW53146   4.375  -0.003   3.290 -0.1083  0.1109  0.2419
17455SOL    HW153147   4.431   0.072   3.324  2.3553 -1.6282  0.2203
17455SOL    HW253148   4.352   0.014   3.194 -0.8530  1.5440  0.6665
17456SOL     OW53149   1.402   7.886   3.869 -0.2379  0.2667  0.2503
17456SOL    HW153150   1.469   7.813   3.874 -2.5659 -1.9558 -0.0578
17456SOL    HW253151   1.396   7.919   3.774  0.7476  0.8318  0.3733
17457SOL     OW53152   1.308   3.232   4.118 -0.4198  0.0600  0.1936
17457SOL    HW153153   1.367   3.288   4.060  0.3470 -0.7874  0.1554
17457SOL    HW253154   1.354   3.215   4.205 -0.7021 -0.4195  0.2509
17459SOL     OW53155   7.082   2.557   4.837 -0.3917  0.2443 -0.6807
17459SOL    HW153156   7.109   2.631   4.775  1.6956  0.3122  0.2814
17459SOL    HW253157   7.162   2.523   4.886 -1.9913  0.1367  1.9462
17460SOL     OW53158   5.496   0.998   6.231 -0.5377  0.6849  0.3515
17460SOL    HW153159   5.522   0.968   6.140  1.3233 -0.6847  1.3057
17460SOL    HW253160   5.398   0.986   6.244 -0.2991 -2.2560 -0.3308
17461SOL     OW53161   0.412   2.789   1.982  0.4048 -0.2001 -0.5999
17461SOL    HW153162   0.367   2.878   1.979  0.7837  0.1294  2.0690
17461SOL    HW253163   0.343   2.717   1.975 -0.1220  0.3169 -0.7533
17462SOL     OW53164   0.478   8.640   0.659 -0.5373  0.8527  0.2119
17462SOL    HW153165   0.550   8.699   0.624 -0.9190  1.3088  0.1892
17462SOL    HW253166   0.397   8.649   0.600 -0.0895 -0.8344 -0.6900
17463SOL     OW53167   0.180   6.575   6.027  0.3028  0.2204 -0.0111
17463SOL    HW153168   0.172   6.487   6.073  2.8559  0.1250  0.2814
17463SOL    HW253169   0.169   6.649   6.093 -0.7267  0.1318 -0.0722
17464SOL     OW53170   9.181   1.224   0.541 -0.0158 -0.0069 -0.6330
17464SOL    HW153171   9.083   1.213   0.526 -0.1390  1.6165 -1.1437
17464SOL    HW253172   9.197   1.301   0.603  0.9840  0.5997 -1.6339
17465SOL     OW53173   8.082   1.203   2.855 -0.2834 -0.0327  0.2827
17465SOL    HW153174   8.058   1.204   2.758 -0.3044  2.2062  0.2808
17465SOL    HW253175   8.121   1.114   2.879 -0.0868 -0.5406 -1.8219
17466SOL     OW53176   2.451   9.033   0.428  0.6892 -0.7362  0.1750
17466SOL    HW153177   2.384   9.021   0.355 -0.5500  1.3953  0.9002
17466SOL    HW253178   2.458   8.949   0.481 -0.2203 -1.5033 -0.9028
17467SOL     OW53179   9.058   0.962   0.328 -0.6044  0.3731 -0.1666
17467SOL    HW153180   9.100   1.044   0.290  0.8813 -0.5948 -0.6550
17467SOL    HW253181   8.990   0.927   0.264  0.6596 -0.2715 -1.1813
17468SOL     OW53182   2.220   8.903   3.001  0.4780  0.0212  0.0904
17468SOL    HW153183   2.246   8.998   3.021  0.8198 -0.5067  2.3410
17468SOL    HW253184   2.299   8.843   3.017  0.1156 -0.6946 -0.8205
17469SOL     OW53185   9.209   9.477   1.667 -0.5800 -0.0360  0.4102
17469SOL    HW153186   9.202   9.544   1.741 -0.1053  0.7138 -0.2138
17469SOL    HW253187   9.292   9.423   1.678 -0.2118  0.4700  0.0978
17470SOL     OW53188   9.428   0.310   1.595  0.2016  0.2772 -0.1798
17470SOL    HW153189   9.521   0.345   1.606  0.7383 -1.8854  2.8031
17470SOL    HW253190   9.370   0.347   1.668 -0.1530 -1.9357  0.6799
17471SOL     OW53191   9.461   3.478   5.107  0.0792  0.0438  0.4113
17471SOL    HW153192   9.497   3.492   5.015 -1.6889  0.7189 -0.1990
17471SOL    HW253193   9.474   3.383   5.134  0.3979 -0.2126 -0.6275
17472SOL     OW53194   9.433   1.360   1.737 -0.2569  0.2022 -0.4657
17472SOL    HW153195   9.522   1.315   1.745  1.0544  2.4655 -1.7762
17472SOL    HW253196   9.417   1.417   1.817 -1.0476 -1.0539  0.2862
17473SOL     OW53197   8.376   6.173   0.717  0.3828 -0.3749 -0.0201
17473SOL    HW153198   8.443   6.246   0.731  1.4510 -1.5869  1.2875
17473SOL    HW253199   8.348   6.136   0.805 -2.2586  0.3109 -0.5287
17474SOL     OW53200   0.615   0.253   4.720  0.1988 -0.1142  0.3618
17474SOL    HW153201   0.555   0.185   4.763 -2.3089  0.0390 -2.7441
17474SOL    HW253202   0.692   0.206   4.676 -0.9340 -0.8916 -0.8325
17475SOL     OW53203   0.535   7.481   3.552  0.9268 -0.4209 -0.1658
17475SOL    HW153204   0.570   7.537   3.476  1.6438  0.6383  0.9360
17475SOL    HW253205   0.594   7.491   3.631 -0.4655 -0.6047  0.9255
17477SOL     OW53206   2.834   3.792   5.150  0.1962 -0.0662  0.0054
17477SOL    HW153207   2.765   3.864   5.141  0.8875  0.4841 -1.0182
17477SOL    HW253208   2.829   3.732   5.070 -0.6052 -1.3787  1.0108
17478SOL     OW53209   1.910   5.692   4.633 -0.1543 -0.0707 -0.7868
17478SOL    HW153210   1.880   5.606   4.675  1.3288 -0.3727 -0.3142
17478SOL    HW253211   2.002   5.680   4.595  0.5576  1.6494  0.3587
17480SOL     OW53212   1.762   7.291   1.991 -0.1797 -0.8820  0.8490
17480SOL    HW153213   1.789   7.315   1.898  2.2056  1.4486  2.0569
17480SOL    HW253214   1.742   7.193   1.996 -0.8297 -0.9550 -2.1874
17482SOL     OW53215   6.658   9.083   3.842  0.0475 -0.1345  0.3280
17482SOL    HW153216   6.580   9.123   3.889  0.0674  0.1974  0.0762
17482SOL    HW253217   6.705   9.153   3.789  1.0716 -0.1240  1.2228
17484SOL     OW53218   7.390   9.880   0.904 -0.4255 -0.5257 -0.3650
17484SOL    HW153219   7.331   9.904   0.981  0.6832  2.6478 -0.4400
17484SOL    HW253220   7.334   9.873   0.821 -1.0177  0.3338 -0.0519
17485SOL     OW53221   6.385   1.612   3.602  0.4304  0.0780  0.5366
17485SOL    HW153222   6.414   1.591   3.508  0.3939 -0.2070  0.5882
17485SOL    HW253223   6.440   1.688   3.637 -0.9379  1.5278 -0.4341
17486SOL     OW53224   1.570   2.327   4.678  0.0487 -0.1071 -0.7072
17486SOL    HW153225   1.542   2.294   4.768 -1.5377 -0.7010 -1.3977
17486SOL    HW253226   1.513   2.405   4.652  1.2967  0.8242 -0.6955
17487SOL     OW53227   5.831   6.201   1.586  0.3826 -0.0779  0.2234
17487SOL    HW153228   5.847   6.132   1.656 -0.3243  0.7303  1.1970
17487SOL    HW253229   5.919   6.236   1.552  0.7459  0.7987  1.9847
17488SOL     OW53230   8.170   7.352   4.495 -0.6686 -0.1010  0.4740
17488SOL    HW153231   8.117   7.410   4.433 -0.0392  0.0307  0.0521
17488SOL    HW253232   8.233   7.409   4.547 -2.1065 -0.0501  2.1808
17490SOL     OW53233   0.729   6.754   1.425 -0.1337  0.1432 -0.1371
17490SOL    HW153234   0.685   6.715   1.506  0.4494 -2.1144 -0.8491
17490SOL    HW253235   0.662   6.761   1.351 -0.1660  0.1665 -0.1053
17491SOL     OW53236   4.155   2.996   4.328  0.7845  0.3633 -0.0661
17491SOL    HW153237   4.151   3.075   4.266  0.9657  0.3822 -0.0544
17491SOL    HW253238   4.201   2.920   4.282  2.9411  1.0942  0.8246
17492SOL     OW53239   5.211   9.784   5.539 -0.0171  0.5084 -0.0448
17492SOL    HW153240   5.233   9.804   5.444 -0.9594  1.1910 -0.1346
17492SOL    HW253241   5.112   9.768   5.547  0.2629 -1.0397  0.5683
17493SOL     OW53242   9.563   3.823   5.665 -0.5657 -0.0207 -0.2238
17493SOL    HW153243   9.492   3.877   5.620  0.9377  2.8757  0.7376
17493SOL    HW253244   9.652   3.846   5.626  0.6935  2.0681  3.6275
17495SOL     OW53245   1.764   1.318   1.241 -0.2170  0.2243 -0.1183
17495SOL    HW153246   1.765   1.352   1.147 -2.5628  4.5422  1.2704
17495SOL    HW253247   1.853   1.279   1.264  1.2761  1.6154 -3.2656
17496SOL     OW53248   9.719   2.810   4.850  0.0250 -0.3868 -0.5233
17496SOL    HW153249   9.781   2.803   4.771 -0.1604 -2.1797 -0.5113
17496SOL    HW253250   9.721   2.725   4.902 -0.7889  0.3530  0.7285
17497SOL     OW53251   7.016   1.200   2.482 -0.0721 -0.4433 -0.1745
17497SOL    HW153252   7.045   1.148   2.402 -1.1635 -1.0549 -0.1882
17497SOL    HW253253   6.967   1.282   2.452  1.2547  0.3669 -0.1477
17498SOL     OW53254   1.922   8.218   5.134  0.2822 -0.0533 -0.5304
17498SOL    HW153255   1.982   8.296   5.148 -1.0566  0.8099  0.4884
17498SOL    HW253256   1.940   8.149   5.204  0.0613  0.2197 -0.2047
17499SOL     OW53257   2.579   7.713   4.255  0.0027 -0.2195 -0.0701
17499SOL    HW153258   2.519   7.729   4.334  1.9812 -0.8068  1.5756
17499SOL    HW253259   2.523   7.686   4.177 -1.9373 -0.4143  1.3358
17500SOL     OW53260   3.032   2.333   0.740 -0.5039 -0.2923 -0.4717
17500SOL    HW153261   2.937   2.323   0.770 -0.1882 -0.1757  0.6028
17500SOL    HW253262   3.051   2.429   0.721 -0.1977 -0.0969  0.7502
17501SOL     OW53263   0.503   7.842   5.398 -0.2884 -0.5599 -0.4262
17501SOL    HW153264   0.522   7.870   5.304  1.0010  0.6476  0.1665
17501SOL    HW253265   0.452   7.914   5.445  0.3894 -0.4904  0.2227
17503SOL     OW53266   3.212   2.386   2.421 -0.2505  0.4931  0.0903
17503SOL    HW153267   3.264   2.303   2.401 -1.4621 -0.4748  0.8899
17503SOL    HW253268   3.253   2.463   2.373  1.0399 -0.5216 -0.4653
17504SOL     OW53269   7.955   1.458   5.426 -0.3512  0.0974  0.1433
17504SOL    HW153270   7.952   1.360   5.407  3.5301 -0.2758  0.9322
17504SOL    HW253271   7.938   1.474   5.523  1.7838 -0.1343  0.5945
17507SOL     OW53272   9.050   1.436   0.762 -0.5085  0.0952 -0.3261
17507SOL    HW153273   9.023   1.527   0.792 -2.9231 -0.4133 -0.8448
17507SOL    HW253274   9.149   1.430   0.756 -0.3263  2.5565  0.1266
17509SOL     OW53275   2.277   9.151   5.122  0.2171 -0.2966  0.2516
17509SOL    HW153276   2.356   9.095   5.097 -0.1642 -0.6937 -0.0747
17509SOL    HW253277   2.247   9.127   5.214 -0.0788 -0.7868  0.0291
17510SOL     OW53278   9.442   3.392   1.013  0.3673  0.2960 -0.6793
17510SOL    HW153279   9.442   3.350   1.104 -0.0280  0.9488 -0.3676
17510SOL    HW253280   9.354   3.373   0.968  1.2112 -1.4814 -1.6269
17511SOL     OW53281   4.916   1.001   0.213 -0.0989 -0.4395  0.4346
17511SOL    HW153282   4.976   0.935   0.168 -1.0263  0.6522 -2.5257
17511SOL    HW253283   4.931   1.092   0.173 -1.3690  0.4874  1.9749
17512SOL     OW53284   1.687   2.696   2.608  0.4698 -0.3837  0.1146
17512SOL    HW153285   1.686   2.777   2.667 -1.5257 -1.4577  1.6543
17512SOL    HW253286   1.711   2.616   2.663 -3.5439 -1.7524  0.0640
17513SOL     OW53287   2.252   6.058   2.777  0.0095  0.6000 -0.6889
17513SOL    HW153288   2.213   6.148   2.760  0.2420  1.0701  1.1903
17513SOL    HW253289   2.348   6.067   2.806  0.1798 -0.2849 -0.9281
17514SOL     OW53290   0.884   7.521   3.419 -0.4017 -0.2995 -0.2032
17514SOL    HW153291   0.886   7.441   3.359 -0.8114 -0.2353 -0.3054
17514SOL    HW253292   0.910   7.493   3.512 -0.1309 -0.4709 -0.3306
17515SOL     OW53293   4.264   8.359   4.807 -0.0548 -0.2357  0.1926
17515SOL    HW153294   4.311   8.368   4.720  1.2176  1.4361  1.0330
17515SOL    HW253295   4.182   8.417   4.808 -0.4227 -0.7419 -0.1076
17518SOL     OW53296   2.342   5.049   3.452 -0.5766  0.7767  0.0818
17518SOL    HW153297   2.300   5.076   3.539 -0.3746  1.5969 -0.0709
17518SOL    HW253298   2.413   4.980   3.470 -0.6045  0.8669  0.5539
17519SOL     OW53299   0.559   9.719   5.417 -0.1853 -0.2467  0.3199
17519SOL    HW153300   0.568   9.764   5.506 -0.0127 -0.2210  0.2903
17519SOL    HW253301   0.503   9.775   5.356  0.0419 -0.0653  0.2781
17521SOL     OW53302   5.413   7.495   5.601  0.1276  0.2732  0.6630
17521SOL    HW153303   5.318   7.499   5.633  0.0354  0.0610  0.4220
17521SOL    HW253304   5.470   7.452   5.670  0.0906  0.6140  0.9047
17522SOL     OW53305   8.795   9.712   3.279 -0.1877  0.0340  0.2422
17522SOL    HW153306   8.769   9.804   3.308 -1.1377 -0.1788  0.0622
17522SOL    HW253307   8.880   9.717   3.225  0.6411  0.6206  1.5747
17523SOL     OW53308   8.341   0.814   0.588 -0.3343 -0.3966  0.8292
17523SOL    HW153309   8.371   0.864   0.668 -0.1604  1.4432 -0.3660
17523SOL    HW253310   8.267   0.864   0.542  0.5200 -0.6985 -0.9329
17524SOL     OW53311   1.128   2.282   2.438  0.6665 -0.2800  0.2795
17524SOL    HW153312   1.189   2.345   2.487  0.8713 -0.7892  0.6896
17524SOL    HW253313   1.114   2.200   2.493  1.2406 -1.0473 -0.6921
17525SOL     OW53314   9.417   0.818   0.446  0.2872  0.5641  0.8293
17525SOL    HW153315   9.352   0.850   0.515  0.6320 -0.7832  1.8108
17525SOL    HW253316   9.435   0.720   0.460 -0.5156 -0.0135 -1.8875
17526SOL     OW53317   0.187   5.309   2.450  0.3277  0.0223  0.2627
17526SOL    HW153318   0.088   5.317   2.443  0.3378  0.0605  0.1615
17526SOL    HW253319   0.228   5.400   2.451  0.4298 -0.0062 -0.7115
17527SOL     OW53320   2.228   7.065   5.993 -0.2218  0.6906 -0.3494
17527SOL    HW153321   2.168   7.140   6.020 -1.4251 -0.1498 -0.6410
17527SOL    HW253322   2.291   7.097   5.922  0.0196  1.7142  0.3181
17528SOL     OW53323   4.972   9.309   4.366  0.8053  0.1158 -0.0435
17528SOL    HW153324   4.972   9.385   4.430  2.2107  0.8338 -0.8936
17528SOL    HW253325   4.897   9.320   4.301  0.3180  0.1791  0.5256
17530SOL     OW53326   9.088   5.831   6.344 -0.2028 -0.2887  0.1689
17530SOL    HW153327   8.990   5.823   6.360  0.2706 -2.7365  2.1460
17530SOL    HW253328   9.111   5.789   6.257 -0.9577  0.6672 -0.4967
17531SOL     OW53329   4.981   3.271   4.761  0.1974 -0.2216 -0.2600
17531SOL    HW153330   4.881   3.269   4.768  0.2985  0.8494  1.7699
17531SOL    HW253331   5.008   3.318   4.677 -0.9994 -1.1756 -1.1967
17532SOL     OW53332   4.126   6.424   0.400  0.2023  0.0549 -0.5688
17532SOL    HW153333   4.114   6.424   0.500  0.4474  0.2660 -0.5396
17532SOL    HW253334   4.047   6.469   0.358  0.3653  0.4675 -0.4363
17533SOL     OW53335   5.022   1.891   2.924 -0.4320  0.2868 -0.3978
17533SOL    HW153336   4.974   1.888   3.012  4.0074 -3.9745  2.1603
17533SOL    HW253337   5.079   1.974   2.921  0.6566 -0.3374  1.5766
17534SOL     OW53338   8.045   1.154   2.591 -0.0574  0.2554 -0.5458
17534SOL    HW153339   7.972   1.193   2.536  0.7273  0.1139 -1.6944
17534SOL    HW253340   8.133   1.190   2.561  0.2687  1.2584  1.5407
17535SOL     OW53341   7.067   5.877   1.452 -0.1101 -0.4022  0.1076
17535SOL    HW153342   7.039   5.792   1.407 -0.7718 -0.4850  0.6668
17535SOL    HW253343   7.036   5.955   1.397  0.1840 -0.5168 -0.2231
17536SOL     OW53344   6.722   2.602   3.235 -0.2350 -0.1517  0.4252
17536SOL    HW153345   6.788   2.564   3.301 -0.1713 -1.2261 -0.2528
17536SOL    HW253346   6.725   2.702   3.240  1.4892 -0.1779  0.3751
17538SOL     OW53347   4.145   6.474   2.277 -0.0769 -0.0220  0.0961
17538SOL    HW153348   4.064   6.532   2.269 -0.9577 -1.2892 -0.4041
17538SOL    HW253349   4.122   6.392   2.328  0.9063 -0.3747 -0.0211
17539SOL     OW53350   9.320   7.944   1.147  0.2097  0.1054 -0.7716
17539SOL    HW153351   9.302   7.848   1.126  1.4928  0.1001 -1.9070
17539SOL    HW253352   9.266   7.971   1.227  0.2978 -1.7201 -0.0688
17543SOL     OW53353   0.221   6.873   3.401 -0.3948  0.2467  0.4764
17543SOL    HW153354   0.202   6.966   3.432  0.4174  0.2130  1.1012
17543SOL    HW253355   0.252   6.875   3.306 -0.7630  0.5745  0.3657
17544SOL     OW53356   4.281   4.766   1.744  0.0322  0.4303  0.1896
17544SOL    HW153357   4.364   4.726   1.703  0.0599  0.6822 -0.0063
17544SOL    HW253358   4.259   4.718   1.828  0.3653  0.3442  0.2294
17545SOL     OW53359   2.678   3.599   1.080  0.1579 -0.5399 -0.4844
17545SOL    HW153360   2.725   3.603   1.168 -1.4310 -0.6779  0.3830
17545SOL    HW253361   2.700   3.513   1.034 -0.6000 -1.3549  0.6736
17546SOL     OW53362   6.933   0.753   1.294  0.2153  0.2051  0.0108
17546SOL    HW153363   6.869   0.824   1.322 -1.2374 -1.7166  1.7939
17546SOL    HW253364   6.932   0.679   1.362  2.4531 -1.0431 -1.2463
17547SOL     OW53365   3.357   9.811   1.312 -0.4894  0.2878 -0.0104
17547SOL    HW153366   3.354   9.712   1.302 -0.9107  0.2723  0.2474
17547SOL    HW253367   3.290   9.854   1.252  0.2332  0.4663 -0.7004
17548SOL     OW53368   9.820   0.984   2.613  0.0031  0.0264 -0.9649
17548SOL    HW153369   9.910   0.956   2.580  0.2730  0.4019 -0.5426
17548SOL    HW253370   9.809   0.955   2.708  1.0210  2.9883  0.1004
17549SOL     OW53371   0.470   1.909   1.967  0.3761 -0.6499  0.2801
17549SOL    HW153372   0.411   1.876   1.894  0.1362  0.0653  0.1450
17549SOL    HW253373   0.508   1.998   1.942 -0.7757  0.2221  1.5769
17550SOL     OW53374   1.199   7.776   1.430  0.0274  0.6257  0.1106
17550SOL    HW153375   1.187   7.679   1.413  1.3444  0.6800 -1.2968
17550SOL    HW253376   1.111   7.823   1.421 -0.3667 -0.2363 -0.6182
17551SOL     OW53377   4.463   7.108   1.682  0.7685 -0.4873 -0.1754
17551SOL    HW153378   4.473   7.106   1.782 -0.7866  0.2842  0.0100
17551SOL    HW253379   4.410   7.028   1.653  1.7339 -1.0291 -0.4473
17552SOL     OW53380   4.810   0.569   1.801  0.0259 -0.1844 -0.1165
17552SOL    HW153381   4.890   0.614   1.761  0.0504  0.9875  1.2021
17552SOL    HW253382   4.726   0.607   1.761 -0.0596  3.0174  2.8323
17553SOL     OW53383   8.203   4.342   1.872  0.2521 -0.3188 -0.3002
17553SOL    HW153384   8.147   4.413   1.915  2.1155  0.8816  0.2307
17553SOL    HW253385   8.146   4.264   1.848 -1.2819 -0.0273  2.1699
17554SOL     OW53386   3.412   2.155   6.039  0.3137  0.6463 -0.7079
17554SOL    HW153387   3.477   2.187   6.108 -0.8929 -1.9086  1.7276
17554SOL    HW253388   3.319   2.176   6.069 -0.2534 -1.0913 -1.1794
17556SOL     OW53389   0.406   6.494   1.676  0.3926 -0.2124 -0.4438
17556SOL    HW153390   0.433   6.500   1.580  0.8813  2.1584 -0.1959
17556SOL    HW253391   0.435   6.406   1.714  2.2501 -0.2382 -1.8514
17557SOL     OW53392   1.305   9.919   0.952  0.0291 -0.0724 -0.6415
17557SOL    HW153393   1.379   9.860   0.917  0.3766  0.4860 -0.8538
17557SOL    HW253394   1.328  10.015   0.934  0.8694  0.3409  2.3269
17558SOL     OW53395   5.600   9.624   3.724 -0.5130  0.0189 -0.0337
17558SOL    HW153396   5.696   9.620   3.750 -0.4170 -0.9343 -0.5278
17558SOL    HW253397   5.587   9.580   3.635 -1.3620  0.3918 -0.1071
17559SOL     OW53398   0.156   1.663   5.634  0.5496 -0.1533  0.2624
17559SOL    HW153399   0.228   1.732   5.638 -1.3202  1.8083  1.7323
17559SOL    HW253400   0.084   1.692   5.571  1.8780 -3.0138 -2.7234
17560SOL     OW53401   4.379   4.304   1.405  0.2088  0.1222 -0.1227
17560SOL    HW153402   4.443   4.243   1.452 -0.7820 -0.7447  0.1115
17560SOL    HW253403   4.367   4.388   1.458 -1.3260 -1.0777  1.4831
17561SOL     OW53404   1.449   1.451   2.869  0.0527  0.3426  0.0469
17561SOL    HW153405   1.511   1.526   2.895  0.1361  0.1375  0.4412
17561SOL    HW253406   1.377   1.442   2.937  0.3300 -0.2620  0.2658
17562SOL     OW53407   6.832   9.801   3.068 -0.1440  0.3100  0.2014
17562SOL    HW153408   6.921   9.778   3.029 -0.4754 -0.7489  0.0298
17562SOL    HW253409   6.824   9.899   3.081  1.5476  0.2968  1.4217
17564SOL     OW53410   1.994   8.285   1.625  0.3783  0.2579 -0.0489
17564SOL    HW153411   2.015   8.371   1.671 -1.0439  1.0444 -0.8669
17564SOL    HW253412   2.052   8.274   1.545 -0.2605  1.0080 -0.6091
17565SOL     OW53413   2.925   5.285   4.566 -0.2097  0.7917 -0.2338
17565SOL    HW153414   2.930   5.205   4.506  1.6638 -0.3811  1.4150
17565SOL    HW253415   2.831   5.298   4.596 -0.8413  0.2837 -1.9459
17566SOL     OW53416   1.005   4.867   4.866 -0.4231  0.2402  1.0564
17566SOL    HW153417   0.984   4.906   4.956 -0.1020 -2.8777  2.5230
17566SOL    HW253418   1.065   4.788   4.877  0.1575  0.1918 -1.9818
17568SOL     OW53419   5.890   0.525   2.229 -0.4110  0.3676 -0.6738
17568SOL    HW153420   5.934   0.601   2.276  1.5532  0.1098 -2.0155
17568SOL    HW253421   5.930   0.439   2.261 -0.6310  0.0716 -1.1913
17569SOL     OW53422   3.368   4.836   0.980  0.1106  0.2562  0.8675
17569SOL    HW153423   3.407   4.746   0.961  2.5405  1.3117  0.6881
17569SOL    HW253424   3.420   4.880   1.052 -0.3392  1.9922  0.1513
17570SOL     OW53425   3.312   9.934   3.842  0.1549 -0.5687  0.0595
17570SOL    HW153426   3.239   9.934   3.910  0.3117  0.2820  0.2344
17570SOL    HW253427   3.401   9.939   3.888  0.3194 -1.5176 -0.1554
17571SOL     OW53428   8.735   6.101   6.411  0.4264 -0.2351  0.0931
17571SOL    HW153429   8.670   6.079   6.483 -0.9742  1.2122 -0.7205
17571SOL    HW253430   8.792   6.179   6.439 -0.2115  0.4154 -0.4172
17572SOL     OW53431   3.081   6.548   5.538 -0.3770 -0.1458 -0.1200
17572SOL    HW153432   3.146   6.486   5.493  0.6644  1.0984 -0.3440
17572SOL    HW253433   3.120   6.581   5.624 -0.7845  0.4847 -0.1736
17573SOL     OW53434   9.958   0.345   1.298 -0.0230 -0.4588  0.0369
17573SOL    HW153435   9.912   0.257   1.295  0.8937 -0.9190 -0.5201
17573SOL    HW253436  10.004   0.356   1.386 -0.6971 -0.2420  0.3687
17574SOL     OW53437   4.628   7.153   2.166 -0.1442 -0.4203 -0.1734
17574SOL    HW153438   4.580   7.188   2.247 -0.4615  0.9549 -0.9291
17574SOL    HW253439   4.677   7.229   2.122 -0.8698 -0.9348 -1.8875
17575SOL     OW53440   6.814   4.394   0.102  0.0480 -0.4517 -0.3922
17575SOL    HW153441   6.743   4.324   0.118 -0.0220 -0.9640 -2.6968
17575SOL    HW253442   6.888   4.353   0.048  0.3728  1.0526 -1.0949
17576SOL     OW53443   6.316   8.110   3.693 -0.2175  0.5284 -0.1687
17576SOL    HW153444   6.308   8.114   3.593  1.6628 -1.4283 -0.4305
17576SOL    HW253445   6.285   8.020   3.725  1.8216  0.1232  0.7075
17578SOL     OW53446   9.362   3.799   4.379  0.1758 -0.4334  0.4278
17578SOL    HW153447   9.285   3.861   4.364  0.6976 -0.0284 -0.5459
17578SOL    HW253448   9.372   3.739   4.300  1.3114 -0.0025  0.2395
17579SOL     OW53449   2.162   6.447   4.745  0.1272 -0.5709 -0.1534
17579SOL    HW153450   2.155   6.362   4.694 -0.8934 -1.0132  0.6860
17579SOL    HW253451   2.155   6.427   4.843  0.5707  0.4084  0.0805
17580SOL     OW53452   2.080   2.077   1.462  0.0429 -0.0146  0.2663
17580SOL    HW153453   2.163   2.116   1.502 -1.2377  2.4294  0.6067
17580SOL    HW253454   2.089   1.977   1.458  2.1875  0.0660  2.1025
17582SOL     OW53455   2.814   3.088   5.222  0.9108  0.5576  0.2446
17582SOL    HW153456   2.768   3.043   5.299 -0.1304 -0.7282 -1.0908
17582SOL    HW253457   2.771   3.176   5.204 -0.2812 -0.1064 -0.2310
17583SOL     OW53458   4.401   2.655   4.451  0.6726  0.6160 -0.4760
17583SOL    HW153459   4.318   2.639   4.504  1.4416 -1.4865  0.1157
17583SOL    HW253460   4.469   2.700   4.509  0.6570  0.5242 -0.3868
17584SOL     OW53461   8.526   9.523   3.479  0.1277  0.0524 -0.1787
17584SOL    HW153462   8.434   9.548   3.508  0.8880  1.5075  1.0337
17584SOL    HW253463   8.522   9.441   3.421 -1.7235 -0.9170  1.2948
17585SOL     OW53464   5.154   0.917   5.032 -0.9537 -0.0714 -0.1245
17585SOL    HW153465   5.101   0.975   5.094  1.6773  0.4441  1.6906
17585SOL    HW253466   5.156   0.823   5.066  1.7035  0.5075  1.3947
17589SOL     OW53467   3.168   8.574   0.389  0.4147 -0.0590 -0.3252
17589SOL    HW153468   3.072   8.575   0.358 -0.1701  1.3063  1.4728
17589SOL    HW253469   3.219   8.506   0.336 -2.0645 -2.4149  0.2113
17590SOL     OW53470   9.806   8.709   0.717 -0.0668 -0.0027 -0.3669
17590SOL    HW153471   9.815   8.709   0.617  0.7032 -0.5206 -0.3017
17590SOL    HW253472   9.714   8.679   0.742 -0.5554  0.9965 -0.9441
17591SOL     OW53473   4.985   5.732   0.566 -0.0579 -0.3493  0.0500
17591SOL    HW153474   5.024   5.672   0.636  1.0377 -0.3983 -0.5904
17591SOL    HW253475   5.004   5.827   0.589 -2.8653 -0.1495  1.7127
17592SOL     OW53476   4.276   8.657   3.991 -0.2468 -0.3202  0.5883
17592SOL    HW153477   4.324   8.729   3.942  0.3927 -0.8613  0.4223
17592SOL    HW253478   4.261   8.685   4.086 -0.6125  0.3120  0.3434
17593SOL     OW53479   4.268   7.573   2.064 -0.0440  0.3626  0.0257
17593SOL    HW153480   4.338   7.637   2.032  0.1417 -0.4568 -1.2299
17593SOL    HW253481   4.191   7.573   2.001 -0.2076 -0.3678  0.2147
17594SOL     OW53482   3.853   7.643   2.150 -0.1382  0.1021  0.1734
17594SOL    HW153483   3.900   7.555   2.159  1.8218  1.2047  1.1348
17594SOL    HW253484   3.904   7.713   2.200 -3.1300  1.2612  1.7782
17595SOL     OW53485   8.751   1.521   6.160 -0.2822 -0.0022  0.3918
17595SOL    HW153486   8.791   1.602   6.202  0.1771 -0.7511  1.4112
17595SOL    HW253487   8.654   1.514   6.185 -0.4374  0.4667 -0.0642
17597SOL     OW53488   0.055   5.765   3.113  0.3075  0.6372  0.1741
17597SOL    HW153489   0.143   5.743   3.154  0.4037  0.7584  0.0345
17597SOL    HW253490   0.002   5.681   3.099  0.6903  0.4880 -0.4045
17598SOL     OW53491   8.443   8.331   3.223  0.1958 -0.7819 -0.2675
17598SOL    HW153492   8.392   8.412   3.252  0.1311 -0.2658 -1.8051
17598SOL    HW253493   8.385   8.273   3.166  0.8769 -0.9009 -0.8413
17599SOL     OW53494   1.700   0.681   0.808 -0.3077 -0.0264  0.4034
17599SOL    HW153495   1.714   0.616   0.883  0.0325 -0.7238 -0.2665
17599SOL    HW253496   1.773   0.749   0.808  0.0651 -0.4314  0.2782
17600SOL     OW53497   4.163   9.628   4.104 -0.1766  0.1628  0.2775
17600SOL    HW153498   4.260   9.619   4.129  0.0913 -0.6425 -0.9915
17600SOL    HW253499   4.144   9.722   4.076  0.7841 -0.1818 -1.6144
17601SOL     OW53500   1.573   1.764   3.209  0.0499  0.5736  0.1620
17601SOL    HW153501   1.563   1.726   3.117  0.5703  0.7290  0.0365
17601SOL    HW253502   1.549   1.861   3.208  2.2122  1.1310 -0.3006
17603SOL     OW53503   0.064   3.693   0.313 -0.2316  0.3654  0.0333
17603SOL    HW153504   0.082   3.786   0.279  0.2718  0.6528  1.0488
17603SOL    HW253505   0.146   3.637   0.302 -0.3184  0.2366  0.0420
17604SOL     OW53506   0.389   4.894   5.589 -0.4342 -0.2823  0.4816
17604SOL    HW153507   0.407   4.798   5.611  0.0564 -0.3071 -0.0211
17604SOL    HW253508   0.471   4.935   5.551 -1.1806 -0.1787 -1.0769
17606SOL     OW53509   5.251   7.485   5.973 -0.4339  0.4423  0.1921
17606SOL    HW153510   5.189   7.521   6.043 -1.0925  1.1926 -0.7548
17606SOL    HW253511   5.197   7.455   5.894  0.4282  1.3355 -0.7511
17607SOL     OW53512   3.115   3.628   6.355  0.0924  0.1672 -0.1576
17607SOL    HW153513   3.109   3.640   6.454 -1.1724  0.3466 -0.2439
17607SOL    HW253514   3.099   3.717   6.310  0.3146  0.0196 -0.5311
17608SOL     OW53515   9.006   1.682   4.401 -0.0233  0.3821 -0.0852
17608SOL    HW153516   8.952   1.606   4.364  0.5342 -0.2715  0.4312
17608SOL    HW253517   8.951   1.765   4.400 -1.5008 -0.5458  1.6391
17609SOL     OW53518   1.298   6.349   1.986 -0.6746  0.4088  0.1831
17609SOL    HW153519   1.327   6.263   2.028 -0.5851 -0.0926 -0.9060
17609SOL    HW253520   1.345   6.425   2.032 -0.5380 -0.1350  0.9555
17610SOL     OW53521   9.725   8.993   0.566  0.1329  0.3522 -0.7965
17610SOL    HW153522   9.774   8.945   0.639 -0.3819 -0.1453 -0.7683
17610SOL    HW253523   9.787   9.056   0.520  2.0369 -3.3256 -3.5693
17611SOL     OW53524   6.188   3.650   0.213  0.8455  0.5739 -0.1683
17611SOL    HW153525   6.094   3.615   0.220  0.9359  0.4096  0.2196
17611SOL    HW253526   6.189   3.727   0.149  0.1677  1.5435  0.9774
17612SOL     OW53527   9.769   8.991   2.681  0.2772  0.4636  0.3459
17612SOL    HW153528   9.733   8.930   2.610 -0.7185  1.4012  0.0252
17612SOL    HW253529   9.751   8.953   2.771  1.0502 -0.4642  0.1166
17613SOL     OW53530   8.264   9.511   3.565 -0.1777 -0.0154 -0.4605
17613SOL    HW153531   8.242   9.413   3.561 -1.4612  0.2867 -0.9005
17613SOL    HW253532   8.273   9.539   3.661  0.2914 -0.5821 -0.3351
17614SOL     OW53533   3.702   3.150   5.869  0.0215  0.0522 -0.1124
17614SOL    HW153534   3.615   3.143   5.820 -0.4253 -3.2082  0.9911
17614SOL    HW253535   3.755   3.067   5.853  2.8789  1.9095 -0.5850
17615SOL     OW53536   6.880   0.966   3.770  0.0115 -0.2250  0.3765
17615SOL    HW153537   6.964   0.976   3.824 -0.2876 -0.2113  0.8335
17615SOL    HW253538   6.870   0.871   3.741  0.0881 -0.2637  0.4766
17616SOL     OW53539   6.796   0.912   4.865 -0.3191 -0.8116 -0.1287
17616SOL    HW153540   6.787   0.999   4.913  0.0928 -0.0926 -1.3415
17616SOL    HW253541   6.709   0.889   4.821  0.1667  0.0140 -1.5313
17618SOL     OW53542   2.170   6.573   1.030 -0.4968 -0.4100 -0.1281
17618SOL    HW153543   2.159   6.667   0.999  2.5788  0.6033  1.6060
17618SOL    HW253544   2.177   6.572   1.130  0.6181 -2.3253 -0.2003
17619SOL     OW53545   0.437   3.119   1.624  0.2543 -0.3880 -0.6142
17619SOL    HW153546   0.366   3.049   1.637 -0.4308  0.7743  2.3418
17619SOL    HW253547   0.438   3.180   1.704  1.7390  2.1769 -2.5380
17621SOL     OW53548   8.922   2.777   2.920  0.3649 -0.1982 -0.4386
17621SOL    HW153549   8.853   2.844   2.948  0.7006  0.4800 -1.2259
17621SOL    HW253550   8.967   2.808   2.836 -0.4102 -2.0503 -1.5802
17623SOL     OW53551   7.953   1.785   4.771  0.3529 -0.1148 -0.4079
17623SOL    HW153552   7.878   1.849   4.786  0.1713 -0.2579 -0.7059
17623SOL    HW253553   8.012   1.819   4.697  0.1398 -0.3962 -0.7057
17624SOL     OW53554   5.815   1.298   0.228 -0.0958 -0.2679 -0.4378
17624SOL    HW153555   5.850   1.391   0.239  0.2956 -0.2374 -1.8832
17624SOL    HW253556   5.876   1.234   0.275 -0.9540  0.3045  1.4778
17625SOL     OW53557   2.617   7.493   2.310  0.5993 -0.0729 -0.6945
17625SOL    HW153558   2.682   7.567   2.290  0.7610 -0.3835 -1.3054
17625SOL    HW253559   2.524   7.524   2.291  0.7703 -0.4478 -2.1688
17628SOL     OW53560   2.698   7.548   5.051 -0.2941  0.2872  0.4967
17628SOL    HW153561   2.793   7.524   5.030 -0.1367  0.6414  0.8041
17628SOL    HW253562   2.693   7.644   5.079 -0.7484  0.2804  0.4395
17629SOL     OW53563   3.217   0.152   3.657  0.4804  0.3613 -0.5095
17629SOL    HW153564   3.263   0.072   3.697  0.8706  0.7221 -0.2434
17629SOL    HW253565   3.222   0.147   3.557  3.1705  1.6113 -0.4689
17630SOL     OW53566   5.372   9.059   5.851 -0.1286 -0.5439 -0.3694
17630SOL    HW153567   5.349   9.019   5.940  0.1802 -0.9064 -0.4533
17630SOL    HW253568   5.471   9.062   5.840 -0.1273  0.9280 -0.0518
17632SOL     OW53569   9.427   6.143   4.727 -0.1628  0.3916  0.2664
17632SOL    HW153570   9.419   6.111   4.822 -2.0825  0.5415  0.1825
17632SOL    HW253571   9.336   6.148   4.686  0.8520 -2.2494 -2.4633
17633SOL     OW53572   4.169   3.533   4.869  0.2292 -0.0726  0.1801
17633SOL    HW153573   4.127   3.473   4.937 -2.1965  1.9779  0.5330
17633SOL    HW253574   4.135   3.510   4.778 -0.7787  0.8107  0.3273
17634SOL     OW53575   5.167   6.071   0.628 -0.6009 -0.5380  0.1453
17634SOL    HW153576   5.067   6.062   0.622 -0.8920  2.8228 -0.7203
17634SOL    HW253577   5.203   6.096   0.539  0.5442  2.3659  1.3972
17636SOL     OW53578   0.741   3.686   5.023  0.2008 -0.2859  0.0595
17636SOL    HW153579   0.728   3.633   5.107  0.5246 -0.6863 -0.1368
17636SOL    HW253580   0.769   3.624   4.949 -3.1118 -0.4436 -1.1522
17637SOL     OW53581   9.575   8.036   1.701 -0.0422  0.3403 -0.2170
17637SOL    HW153582   9.504   8.052   1.632  1.5278 -0.0918 -1.9845
17637SOL    HW253583   9.609   8.124   1.736 -0.3698  0.5837 -0.5084
17638SOL     OW53584   2.427   4.599   2.913  0.1255 -0.0407  0.2841
17638SOL    HW153585   2.361   4.569   2.845 -0.0013 -0.1272  0.4437
17638SOL    HW253586   2.408   4.554   3.000 -0.2999  0.7904  0.6269
17639SOL     OW53587   5.519   9.850   2.056 -0.2651 -0.1399  0.4416
17639SOL    HW153588   5.589   9.919   2.073  0.0926 -0.4887  0.3884
17639SOL    HW253589   5.465   9.836   2.140  0.7236 -0.9830  0.9536
17640SOL     OW53590   1.583   8.490   4.915  0.1942  0.4190  0.8234
17640SOL    HW153591   1.564   8.501   5.012 -1.5420 -0.1823  0.5668
17640SOL    HW253592   1.506   8.446   4.870  1.8566 -1.2871 -0.4467
17642SOL     OW53593   3.561   6.163   3.812  0.4373 -0.2135 -0.1266
17642SOL    HW153594   3.555   6.067   3.783 -1.8116  0.1159 -0.8346
17642SOL    HW253595   3.531   6.171   3.907 -1.2472  0.0253 -0.6513
17644SOL     OW53596   0.766   3.285   3.589 -0.0529 -0.4156 -0.1932
17644SOL    HW153597   0.727   3.378   3.590 -1.3326 -0.9365 -0.9175
17644SOL    HW253598   0.866   3.291   3.580 -0.0907  0.9027  0.1638
17645SOL     OW53599   3.117   4.861   0.952 -0.2714 -0.0289 -0.1993
17645SOL    HW153600   3.215   4.841   0.956 -0.1512  0.3180 -1.2864
17645SOL    HW253601   3.100   4.934   0.886 -1.2791 -0.1812 -0.1212
17646SOL     OW53602   3.940   3.774   6.272 -0.1205  0.0674 -0.4339
17646SOL    HW153603   4.025   3.773   6.324 -0.7419  0.8466  0.5949
17646SOL    HW253604   3.917   3.680   6.245  0.6973 -0.2244 -0.1256
17647SOL     OW53605   4.436   8.964   4.802  0.0858 -0.3009  0.3422
17647SOL    HW153606   4.407   8.975   4.897 -0.0661 -0.6961  0.3407
17647SOL    HW253607   4.436   8.867   4.778 -0.5535 -0.1508 -0.2790
17648SOL     OW53608   9.956   2.262   6.238  0.4808  0.0855 -0.0378
17648SOL    HW153609   9.863   2.290   6.265  0.1837  0.7423 -1.7071
17648SOL    HW253610  10.016   2.342   6.236  1.4492 -0.5528  2.4294
17649SOL     OW53611   9.119   6.831   5.291  0.1352  0.0586 -0.0029
17649SOL    HW153612   9.059   6.899   5.249 -0.0662  0.4317  0.8792
17649SOL    HW253613   9.204   6.826   5.239  0.5408  1.6829  0.4686
17651SOL     OW53614   0.509   3.945   6.015 -0.0616  0.5382  0.2814
17651SOL    HW153615   0.575   3.921   5.944 -0.8023  0.5467 -0.4272
17651SOL    HW253616   0.471   3.861   6.054  0.1133  0.5355  0.4449
17652SOL     OW53617   8.876   0.919   0.122  0.5650 -0.4422 -0.2608
17652SOL    HW153618   8.865   1.018   0.122 -0.7547 -0.5614  0.9966
17652SOL    HW253619   8.925   0.890   0.040  1.8073  1.3304 -0.1605
17654SOL     OW53620   1.146   7.107   2.837 -0.4303  0.2022  0.3736
17654SOL    HW153621   1.143   7.012   2.806 -0.2039  0.4581 -0.4496
17654SOL    HW253622   1.150   7.168   2.758 -0.0580  0.8827  0.9057
17655SOL     OW53623   8.771   8.329   0.943  0.4719 -0.3696  0.1977
17655SOL    HW153624   8.738   8.312   0.850 -1.5296 -0.4205  0.8748
17655SOL    HW253625   8.819   8.416   0.946 -0.7384  0.3479 -0.6047
17657SOL     OW53626   0.923   8.370   1.855  0.0519 -0.4120 -0.5458
17657SOL    HW153627   0.962   8.451   1.812 -4.7049  1.8621 -0.9059
17657SOL    HW253628   0.926   8.293   1.791  1.9423  0.2499 -1.2732
17658SOL     OW53629   1.724   4.340   0.262  0.2155 -0.0739 -0.3562
17658SOL    HW153630   1.731   4.241   0.274 -1.4543 -0.0928  0.5362
17658SOL    HW253631   1.785   4.386   0.326  0.4178 -0.5020 -0.2440
17659SOL     OW53632   3.064   3.386   2.611 -0.0619 -0.4035 -0.1869
17659SOL    HW153633   3.060   3.473   2.561 -0.2967  0.0522  0.5986
17659SOL    HW253634   3.159   3.356   2.619  0.0622  0.0056 -0.1049
17660SOL     OW53635   3.845   4.521   2.665  0.2823  0.6321 -0.5132
17660SOL    HW153636   3.760   4.506   2.615 -0.7634 -0.2022  1.4984
17660SOL    HW253637   3.880   4.613   2.644 -1.0193  0.9110 -1.4752
17661SOL     OW53638   9.501   6.139   4.196  0.2930  0.4488  0.7026
17661SOL    HW153639   9.572   6.166   4.131  0.4596  0.7794  1.0201
17661SOL    HW253640   9.532   6.160   4.289 -0.3989  1.0089  0.8112
17662SOL     OW53641   0.698   3.365   4.275 -0.3615 -0.8239 -0.2473
17662SOL    HW153642   0.618   3.412   4.237 -0.4723 -0.1108  0.8099
17662SOL    HW253643   0.668   3.287   4.329 -0.2377 -1.5297 -1.1960
17663SOL     OW53644   3.187   7.518   1.333  0.0519 -0.3919  0.2876
17663SOL    HW153645   3.283   7.492   1.347 -0.2125 -0.4823  2.0693
17663SOL    HW253646   3.138   7.441   1.292  0.1398 -1.3994  1.9817
17664SOL     OW53647   8.697   5.597   2.269 -0.4597  0.6118  0.3871
17664SOL    HW153648   8.696   5.632   2.362  0.5574 -1.2252  1.1241
17664SOL    HW253649   8.633   5.520   2.261 -1.2403  1.3494 -0.6898
17665SOL     OW53650   7.296   3.582   2.645  0.3400 -0.0744  0.1049
17665SOL    HW153651   7.236   3.548   2.717 -0.3919  2.0347  0.5426
17665SOL    HW253652   7.240   3.615   2.568  1.0850 -1.7115 -1.1613
17666SOL     OW53653   8.251   0.438   4.170  0.1688 -0.5265  0.0769
17666SOL    HW153654   8.219   0.528   4.141  1.0011 -0.7904 -1.7510
17666SOL    HW253655   8.255   0.434   4.270 -0.9682  1.0705  0.1930
17667SOL     OW53656   9.129   4.168   0.107  0.0333  0.4059 -0.5021
17667SOL    HW153657   9.072   4.129   0.035 -1.4371  0.8772  0.4002
17667SOL    HW253658   9.115   4.266   0.112  0.9832  0.5381 -0.3192
17668SOL     OW53659   0.262   9.307   0.911 -0.1249 -0.1633  0.6457
17668SOL    HW153660   0.254   9.403   0.937  1.8032  0.2071 -0.0243
17668SOL    HW253661   0.318   9.258   0.978 -2.1143 -1.1117  1.6406
17669SOL     OW53662   6.658   3.214   0.542 -0.3286  0.3477  0.7394
17669SOL    HW153663   6.704   3.182   0.624 -0.7691 -1.1901  0.4060
17669SOL    HW253664   6.717   3.279   0.494  0.1412  0.8647  1.9887
17670SOL     OW53665   7.793   3.070   1.648  0.1195  0.2218 -0.2825
17670SOL    HW153666   7.700   3.061   1.683  0.1144  0.4315 -0.2380
17670SOL    HW253667   7.795   3.139   1.575  0.3467  0.6602  0.1304
17671SOL     OW53668   3.781   4.918   2.055  0.2430  0.5642  0.2547
17671SOL    HW153669   3.871   4.953   2.029 -1.3474  2.7011 -2.5894
17671SOL    HW253670   3.734   4.984   2.112 -1.3942  1.6221 -2.2547
17672SOL     OW53671   4.838   7.685   1.869  0.6212  0.1006  0.1877
17672SOL    HW153672   4.913   7.735   1.826  2.1106 -0.6993  1.8319
17672SOL    HW253673   4.769   7.663   1.800  2.9063 -1.0505 -1.7888
17673SOL     OW53674   3.909   5.024   6.207  0.6038  0.0394  0.0575
17673SOL    HW153675   3.860   5.078   6.140  1.0036  0.1511 -0.1496
17673SOL    HW253676   3.861   5.026   6.295  0.8800  1.1300  0.1842
17674SOL     OW53677   2.052   0.356   0.958  0.0786 -0.1275  0.1915
17674SOL    HW153678   1.966   0.335   0.912  0.2561 -0.3027 -0.0662
17674SOL    HW253679   2.078   0.280   1.018  0.7282 -0.6654 -0.7520
17676SOL     OW53680   7.710   3.942   2.784  0.3851 -0.0659 -0.1804
17676SOL    HW153681   7.686   3.846   2.771 -1.2909  0.2634  0.3284
17676SOL    HW253682   7.701   3.991   2.697  2.8836 -0.6856 -0.8240
17677SOL     OW53683   2.564   4.040   3.906 -0.2122 -0.1087  0.3711
17677SOL    HW153684   2.502   3.966   3.878 -1.2567  0.4627  1.1178
17677SOL    HW253685   2.658   4.017   3.882 -0.7508 -0.8949 -0.9891
17678SOL     OW53686   2.729   0.278   4.373 -0.4587 -0.1666 -0.3672
17678SOL    HW153687   2.777   0.250   4.289 -1.7576  1.4480 -1.6712
17678SOL    HW253688   2.792   0.331   4.431  0.5240 -1.5138 -0.1713
17679SOL     OW53689   0.723   3.224   0.121 -0.1887  0.3764  0.1612
17679SOL    HW153690   0.804   3.269   0.084 -0.2449  1.1474  0.9637
17679SOL    HW253691   0.672   3.288   0.178 -0.6226 -0.5089  0.7832
17680SOL     OW53692   1.675   1.491   6.307 -0.3853 -0.1180  1.0102
17680SOL    HW153693   1.619   1.566   6.342 -1.7471 -0.3629 -0.6313
17680SOL    HW253694   1.631   1.404   6.327 -0.5878 -0.3122 -0.2588
17681SOL     OW53695   4.082   8.218   1.162  0.4110 -0.4391 -0.3192
17681SOL    HW153696   4.170   8.265   1.173  0.8363 -1.1712 -0.5059
17681SOL    HW253697   4.088   8.128   1.204 -1.1790  0.5896  2.2113
17682SOL     OW53698   9.720   2.785   2.131 -0.1835  0.0728 -0.1045
17682SOL    HW153699   9.720   2.868   2.074  1.1654  0.3911  0.3509
17682SOL    HW253700   9.800   2.730   2.109  1.2257  0.9650  2.5729
17683SOL     OW53701   2.138   5.052   3.177  0.2913 -0.3943 -0.6692
17683SOL    HW153702   2.192   5.057   3.261  1.9402  1.0631 -1.7772
17683SOL    HW253703   2.169   4.974   3.123  0.4151 -0.3098 -0.7204
17684SOL     OW53704   2.295   9.941   6.281 -0.1260 -0.0720 -0.1814
17684SOL    HW153705   2.228   9.989   6.224 -0.0710  1.2518  0.8391
17684SOL    HW253706   2.255   9.921   6.370  0.7571  0.5628  0.3733
17685SOL     OW53707   8.371   0.314   3.194  0.5156  0.2844  0.4326
17685SOL    HW153708   8.409   0.221   3.203  0.2183  0.2016  0.8232
17685SOL    HW253709   8.388   0.347   3.101  0.3635 -0.2743  0.2000
17688SOL     OW53710   3.459   0.969   4.472  0.0715 -0.4552  0.1531
17688SOL    HW153711   3.398   0.892   4.492 -0.3013 -0.1645  0.1416
17688SOL    HW253712   3.404   1.048   4.443  0.4186 -0.0102  0.7177
17689SOL     OW53713   3.511   9.633   4.845 -0.1363  0.1772 -0.1205
17689SOL    HW153714   3.500   9.600   4.939 -1.9872  0.2719 -0.2744
17689SOL    HW253715   3.431   9.688   4.820  0.2547 -0.0010 -1.8209
17690SOL     OW53716   2.621   1.335   5.206 -0.3501 -0.7069  0.1094
17690SOL    HW153717   2.570   1.419   5.190  1.3398  0.2973 -0.1259
17690SOL    HW253718   2.613   1.309   5.302 -0.1785  0.1884  0.3672
17691SOL     OW53719   1.340   2.222   3.731 -0.1203 -0.5594 -0.2376
17691SOL    HW153720   1.400   2.279   3.787 -0.5054  0.2757 -0.6614
17691SOL    HW253721   1.312   2.273   3.650 -1.5412 -0.8713  0.0381
17692SOL     OW53722   9.324   0.822   4.134  0.3200 -0.6958 -0.3359
17692SOL    HW153723   9.354   0.771   4.054 -1.5230  0.9516 -2.1197
17692SOL    HW253724   9.319   0.760   4.213  2.5096 -2.2452 -1.3677
17693SOL     OW53725   8.823   7.080   5.485 -1.4408  0.4978 -0.6435
17693SOL    HW153726   8.800   6.984   5.502  1.6734 -0.3931 -1.0916
17693SOL    HW253727   8.822   7.097   5.386  0.8827  0.0727 -0.7861
17694SOL     OW53728   2.066   2.122   0.065  0.1419  0.1887 -0.0675
17694SOL    HW153729   2.079   2.075  -0.022 -0.0516 -0.6422  0.3503
17694SOL    HW253730   1.970   2.147   0.076 -0.2417 -1.5956  0.8496
17695SOL     OW53731   8.767   1.818   3.904 -0.5035 -0.4291  0.2947
17695SOL    HW153732   8.862   1.809   3.934 -0.6573 -3.2861  0.0799
17695SOL    HW253733   8.757   1.780   3.812 -1.7653  0.2278  0.1525
17697SOL     OW53734   9.244   6.468   6.232  0.0095 -0.3415 -0.3015
17697SOL    HW153735   9.324   6.526   6.241 -0.7636  0.6757  0.0747
17697SOL    HW253736   9.264   6.392   6.169  0.7426  0.8109 -1.4691
17699SOL     OW53737   8.563   2.156   2.573  0.2726 -0.3898 -0.1315
17699SOL    HW153738   8.498   2.080   2.575  1.0771 -1.0970 -0.4386
17699SOL    HW253739   8.568   2.197   2.664  0.2612 -1.0832  0.1877
17700SOL     OW53740   2.282   9.227   8.189 -0.1848  0.3124  0.7568
17700SOL    HW153741   2.260   9.280   8.107  2.5881 -2.1455 -1.6941
17700SOL    HW253742   2.362   9.266   8.234  0.8634 -0.8051 -0.1215
17701SOL     OW53743   1.855   1.342   0.409  0.5920 -0.5776 -0.5324
17701SOL    HW153744   1.846   1.254   0.455  0.4807 -0.1821  0.2169
17701SOL    HW253745   1.876   1.413   0.477 -0.2881  0.1369 -0.9998
17703SOL     OW53746   2.546   1.460   2.960  0.1358  0.0990  0.0360
17703SOL    HW153747   2.540   1.500   2.869 -3.3824 -0.6313 -0.1109
17703SOL    HW253748   2.550   1.360   2.952  0.1889  0.0475  0.6874
17704SOL     OW53749   9.683   6.079   2.857 -0.1166 -0.4769 -0.4436
17704SOL    HW153750   9.609   6.115   2.914  0.4613  1.0471 -0.6444
17704SOL    HW253751   9.771   6.107   2.894  0.2959 -0.2361 -1.5743
17707SOL     OW53752   8.625   3.790   3.942  0.3743  0.0497  0.1761
17707SOL    HW153753   8.672   3.761   3.859  1.2200  0.9871  0.3168
17707SOL    HW253754   8.689   3.837   4.002 -0.0261 -1.3858  1.7682
17708SOL     OW53755   4.535   2.223   2.359 -0.4158  0.3324  0.2047
17708SOL    HW153756   4.588   2.141   2.335 -0.0674  0.5104  0.3657
17708SOL    HW253757   4.483   2.254   2.279 -0.9334 -0.3344  0.2791
17709SOL     OW53758   3.602   0.116   2.909 -0.4991  0.5349  1.2404
17709SOL    HW153759   3.571   0.209   2.930 -1.9727  0.2440  0.3727
17709SOL    HW253760   3.592   0.099   2.811 -0.1756 -0.5287  1.3869
17711SOL     OW53761   7.699   3.550   0.113 -0.1387 -0.3173 -0.6461
17711SOL    HW153762   7.648   3.582   0.193 -1.4167 -1.0882 -1.1438
17711SOL    HW253763   7.675   3.455   0.094  1.1733 -0.5523 -1.1443
17713SOL     OW53764   3.377   0.921   0.997  0.6976 -0.2858  0.1554
17713SOL    HW153765   3.316   0.888   1.069  0.0649  0.5201  0.0076
17713SOL    HW253766   3.456   0.861   0.989 -0.6029 -1.9635 -0.3709
17714SOL     OW53767   2.936   1.356   4.927 -0.3187 -0.0764 -0.0762
17714SOL    HW153768   2.992   1.279   4.955  1.3166  0.9026 -0.5356
17714SOL    HW253769   2.851   1.323   4.886  0.1018 -1.6082  0.2623
17715SOL     OW53770   6.052   1.400   5.221  0.0664 -0.5039 -0.2924
17715SOL    HW153771   6.145   1.392   5.183  0.3571  0.3673  0.2283
17715SOL    HW253772   6.057   1.435   5.315 -0.8229 -0.0168 -0.4220
17717SOL     OW53773   5.589   7.442   5.371 -0.1363 -0.2204  0.5956
17717SOL    HW153774   5.601   7.533   5.333  1.7662 -0.1869  1.2143
17717SOL    HW253775   5.529   7.446   5.451 -0.3682  0.4243  0.3868
17718SOL     OW53776   0.604   4.536   1.051  0.1506  0.0852 -0.0955
17718SOL    HW153777   0.613   4.624   1.098 -1.3248 -0.6461  1.6321
17718SOL    HW253778   0.522   4.488   1.085  1.6582 -2.5466  0.0007
17720SOL     OW53779   7.155   1.503   2.522  0.1984 -0.3352  0.2727
17720SOL    HW153780   7.084   1.504   2.593  0.5780  0.4580  0.6495
17720SOL    HW253781   7.129   1.565   2.448 -0.2033 -1.1735 -0.2976
17721SOL     OW53782   0.279   2.766   0.723  0.1296  0.0670 -0.0765
17721SOL    HW153783   0.274   2.846   0.783 -1.2818 -0.3029  0.3045
17721SOL    HW253784   0.227   2.784   0.640 -0.2324 -0.4794  0.0341
17722SOL     OW53785   1.807   0.218   5.901 -0.1859 -0.0009 -0.4247
17722SOL    HW153786   1.870   0.232   5.824 -0.7823 -2.1947 -1.3480
17722SOL    HW253787   1.841   0.142   5.957 -0.8424  0.2701  0.3404
17723SOL     OW53788   6.148   9.862   4.921 -0.0336  0.1540 -0.0268
17723SOL    HW153789   6.083   9.811   4.977 -2.3630  0.1809 -2.6321
17723SOL    HW253790   6.232   9.807   4.910 -0.0568 -0.4076  2.3084
17724SOL     OW53791   8.154   0.962   2.925  0.4090  0.3360 -0.1270
17724SOL    HW153792   8.158   0.889   2.993  1.6877 -0.0683 -0.6227
17724SOL    HW253793   8.132   0.923   2.836 -0.4958  0.7672 -0.0969
17725SOL     OW53794   3.156   7.756   1.195 -0.3028 -0.0912  0.5423
17725SOL    HW153795   3.201   7.833   1.240  1.1833 -0.1672 -0.8046
17725SOL    HW253796   3.168   7.674   1.251  0.2410  0.1276  0.7512
17727SOL     OW53797   5.040   1.448   5.148  0.4772  0.3638 -0.2656
17727SOL    HW153798   5.027   1.439   5.247 -0.6872  0.5840 -0.3937
17727SOL    HW253799   5.050   1.357   5.107  0.2296  0.2408 -0.0492
17728SOL     OW53800   7.633   3.645   3.594  0.1932 -0.2414 -0.4416
17728SOL    HW153801   7.583   3.646   3.681  0.3934  1.2150 -0.3316
17728SOL    HW253802   7.590   3.708   3.530  1.3926  0.3993 -0.6328
17729SOL     OW53803   2.530   5.441   0.686 -0.0296  0.3546  0.0198
17729SOL    HW153804   2.581   5.389   0.755 -0.2023  0.9539  0.6066
17729SOL    HW253805   2.594   5.490   0.627  0.0949  1.2656  0.8797
17730SOL     OW53806   8.427   3.255   3.300  0.5052 -0.1193  0.4880
17730SOL    HW153807   8.386   3.316   3.367  0.0752  0.7887 -0.5890
17730SOL    HW253808   8.518   3.289   3.275 -0.5714  1.2901 -1.6765
17731SOL     OW53809   7.446   6.256   5.177  0.4809 -0.1817  0.5038
17731SOL    HW153810   7.464   6.200   5.096 -0.2453  0.4701 -0.1207
17731SOL    HW253811   7.531   6.299   5.207  0.5554  0.4318 -0.5656
17732SOL     OW53812   2.322   4.725   4.674  0.0030  0.4355 -0.4393
17732SOL    HW153813   2.364   4.758   4.589  0.1970  0.2372 -0.4211
17732SOL    HW253814   2.389   4.729   4.748  0.7404 -2.1067 -0.9180
17734SOL     OW53815   0.147   6.718   0.134  0.2368  0.1414  0.0811
17734SOL    HW153816   0.147   6.790   0.065  0.7211 -0.7463 -0.8637
17734SOL    HW253817   0.229   6.725   0.190  1.7764 -1.4410 -1.9099
17736SOL     OW53818   6.782   6.687   5.902 -0.4274  0.0759  0.2274
17736SOL    HW153819   6.785   6.605   5.845 -0.4746 -1.1513  1.9516
17736SOL    HW253820   6.727   6.670   5.984  0.3979  1.4942  1.1235
17737SOL     OW53821   7.820   0.795   4.863 -1.1196 -0.6949 -0.2231
17737SOL    HW153822   7.830   0.757   4.771 -2.2047  0.6978 -0.9360
17737SOL    HW253823   7.723   0.804   4.885 -0.8580 -0.7685  0.9519
17738SOL     OW53824   8.810   8.018   1.219 -0.0173  0.4216  0.2717
17738SOL    HW153825   8.832   8.110   1.253 -1.2938  0.0924  2.0350
17738SOL    HW253826   8.789   8.023   1.122 -0.8283  2.1262  0.5176
17739SOL     OW53827   4.279   2.785   3.495  0.0334  0.2306  0.1609
17739SOL    HW153828   4.377   2.802   3.503  0.3336 -1.4411  0.2041
17739SOL    HW253829   4.241   2.766   3.586 -0.3406  0.9385  0.1529
17741SOL     OW53830   5.959   9.047   5.928 -0.3398  0.1252  0.3636
17741SOL    HW153831   5.960   9.053   5.828 -1.4275 -0.9114  0.2685
17741SOL    HW253832   5.871   9.079   5.962 -0.0067  0.3799  0.9855
17742SOL     OW53833   8.465   1.205   3.933 -0.1002  0.1118  0.1400
17742SOL    HW153834   8.545   1.152   3.961 -0.4378  0.4454  1.7402
17742SOL    HW253835   8.420   1.245   4.013 -1.1500  0.9727 -0.8466
17743SOL     OW53836   1.021   0.630   6.201 -0.0135 -0.0977 -0.3883
17743SOL    HW153837   1.072   0.704   6.244 -1.1378 -0.1043  0.9860
17743SOL    HW253838   1.083   0.553   6.181  0.5789  0.0235  0.9478
17744SOL     OW53839   4.579   1.408   5.721  0.1357 -0.3065 -0.1784
17744SOL    HW153840   4.575   1.332   5.657  0.5935 -0.5422  0.0694
17744SOL    HW253841   4.577   1.373   5.815 -0.9400  0.0593 -0.0664
17745SOL     OW53842   8.993   8.220   4.424 -0.3434  0.3170  0.2113
17745SOL    HW153843   8.904   8.261   4.445  0.2709  0.4924  2.6491
17745SOL    HW253844   9.063   8.291   4.420 -0.1467  0.0733 -0.7541
17746SOL     OW53845   8.450   2.075   4.604 -0.6461 -0.7661  0.1964
17746SOL    HW153846   8.485   2.099   4.694  0.2752 -1.2203 -0.0256
17746SOL    HW253847   8.438   1.975   4.598  0.7605 -0.9066 -0.6709
17747SOL     OW53848   7.991   4.639   0.255 -0.3109 -0.3383  0.5257
17747SOL    HW153849   8.004   4.723   0.307 -0.3683 -0.0334  0.0527
17747SOL    HW253850   8.024   4.561   0.308 -1.0932 -0.1206  1.3369
17748SOL     OW53851   1.583   9.848   5.790 -0.5793 -0.0040  0.0717
17748SOL    HW153852   1.581   9.921   5.721  0.6023 -0.6741 -0.6781
17748SOL    HW253853   1.535   9.879   5.872 -0.8276  1.3015 -0.5540
17750SOL     OW53854   5.813   1.087   4.196  0.3243 -0.6668 -0.9368
17750SOL    HW153855   5.876   1.030   4.249  0.5792 -0.2539 -0.7892
17750SOL    HW253856   5.721   1.050   4.201  0.5980 -1.3955 -1.3213
17751SOL     OW53857   9.828   8.922   5.666  0.0373  0.1600  0.1177
17751SOL    HW153858   9.755   8.957   5.724 -0.3650 -0.1481 -0.2018
17751SOL    HW253859   9.842   8.983   5.588  0.2985  0.3562  0.3161
17752SOL     OW53860   9.491   3.374   4.830  0.5191 -0.3814 -0.1146
17752SOL    HW153861   9.471   3.284   4.869 -0.1623  0.8181  2.4037
17752SOL    HW253862   9.428   3.392   4.755  0.5927 -1.9459 -0.5777
17753SOL     OW53863   3.830   8.320   4.452  0.3679  0.6062 -0.0917
17753SOL    HW153864   3.895   8.385   4.413  0.5417  0.9712  0.7815
17753SOL    HW253865   3.745   8.321   4.399  1.5753 -0.9350 -2.1287
17754SOL     OW53866   0.560   9.442   5.414  0.7201 -0.1539  0.3360
17754SOL    HW153867   0.553   9.541   5.402 -1.7602 -0.3595 -0.2622
17754SOL    HW253868   0.617   9.422   5.494 -0.5621  1.8547  1.8118
17755SOL     OW53869   1.959   7.801   2.303 -0.6611  0.9150 -0.1285
17755SOL    HW153870   1.960   7.832   2.398  0.1697 -1.6399  0.7459
17755SOL    HW253871   2.052   7.801   2.267 -0.5517 -1.0207  0.0880
17756SOL     OW53872   3.620   5.338   0.269  0.4858  0.0342  0.3107
17756SOL    HW153873   3.586   5.358   0.177  1.2979  1.3848  0.2774
17756SOL    HW253874   3.662   5.248   0.271  0.0473 -0.1889 -0.5276
17757SOL     OW53875   9.306   4.468   3.961  0.2211  0.0547 -0.0391
17757SOL    HW153876   9.250   4.391   3.992 -2.3237  0.9372 -2.2914
17757SOL    HW253877   9.353   4.442   3.876  1.8789 -0.0750  0.9023
17758SOL     OW53878   9.431   8.237   0.436 -0.0382 -0.5247 -0.2864
17758SOL    HW153879   9.347   8.288   0.418  0.0414  0.1445  1.1737
17758SOL    HW253880   9.504   8.271   0.377  0.3650  2.0055  1.5908
17759SOL     OW53881   8.091   5.645   3.255  0.1868  0.3619 -0.1145
17759SOL    HW153882   8.008   5.698   3.266 -0.4125 -0.5785  0.0074
17759SOL    HW253883   8.170   5.706   3.248 -0.5803  1.2857 -0.8604
17760SOL     OW53884   1.154   4.695   4.589  0.3068  0.5024 -0.0738
17760SOL    HW153885   1.116   4.618   4.638  0.8422 -0.4627 -1.1476
17760SOL    HW253886   1.088   4.728   4.521 -0.1532  1.3812  0.7793
17763SOL     OW53887   0.446   1.572   4.942 -0.2831  0.4351  0.6500
17763SOL    HW153888   0.414   1.660   4.976 -1.7806  0.6162 -1.1279
17763SOL    HW253889   0.485   1.584   4.850  1.2623 -0.4595  1.1629
17764SOL     OW53890   6.838   0.228   3.359 -0.2668  0.7669 -0.5206
17764SOL    HW153891   6.807   0.163   3.289  0.7099 -0.7631  0.4483
17764SOL    HW253892   6.760   0.255   3.416 -0.2559 -1.4482  0.5957
17765SOL     OW53893   4.064   8.510   4.598 -0.1442  0.5473  0.1003
17765SOL    HW153894   3.997   8.486   4.668 -0.5627  1.3204 -0.0306
17765SOL    HW253895   4.112   8.594   4.625  0.3188  0.3532 -0.1123
17767SOL     OW53896   4.895   2.851   3.833 -0.5141  0.0634  0.1866
17767SOL    HW153897   4.971   2.827   3.893 -0.6118 -1.1999 -0.1989
17767SOL    HW253898   4.808   2.835   3.880 -0.5693  0.3083  0.1719
17768SOL     OW53899   8.018   0.637   5.489  0.3974 -0.0346 -0.4241
17768SOL    HW153900   7.960   0.687   5.425  1.9822  1.1634 -0.9467
17768SOL    HW253901   8.076   0.574   5.438  0.3183 -0.4596  0.0077
17769SOL     OW53902   4.547   8.974   2.374  0.3699 -0.2923 -0.1012
17769SOL    HW153903   4.508   9.019   2.294  0.4962  0.4842  0.2692
17769SOL    HW253904   4.473   8.955   2.440  0.6268  1.3926  0.7031
17770SOL     OW53905   1.713   8.874   6.089  0.3847  0.2948 -0.6444
17770SOL    HW153906   1.787   8.827   6.042  0.2727 -0.4848 -0.0393
17770SOL    HW253907   1.694   8.829   6.176 -0.3013  0.9359 -0.4558
17773SOL     OW53908   2.029   2.440   3.598  0.1617  0.1378 -0.3772
17773SOL    HW153909   1.943   2.393   3.619  1.7507 -2.4064  0.5547
17773SOL    HW253910   2.074   2.394   3.521  2.0401 -0.2664  0.9477
17774SOL     OW53911   8.691   3.283   2.815 -0.4588  0.0486 -0.2701
17774SOL    HW153912   8.788   3.289   2.838 -0.4138 -0.4021 -0.3430
17774SOL    HW253913   8.679   3.225   2.735 -0.6781  1.1030 -1.0087
17775SOL     OW53914   9.012   6.496   5.412  0.1931 -0.2067  0.3578
17775SOL    HW153915   9.048   6.581   5.450  0.0464 -0.1238  0.3109
17775SOL    HW253916   8.981   6.437   5.486  0.7083 -0.4076  0.4187
17776SOL     OW53917   5.476   8.431   5.805  0.2013  0.1118 -0.3220
17776SOL    HW153918   5.546   8.361   5.793 -0.0480  0.1851 -2.4615
17776SOL    HW253919   5.399   8.413   5.744 -0.4500  1.5114  0.0491
17777SOL     OW53920   3.363   7.215   3.237  0.2246  0.3872 -0.4338
17777SOL    HW153921   3.446   7.246   3.191 -0.8238  0.3628 -2.3517
17777SOL    HW253922   3.370   7.116   3.255  0.7817  0.4641 -0.2136
17779SOL     OW53923   3.197   8.279   4.828  0.7223  0.0022 -0.6734
17779SOL    HW153924   3.269   8.223   4.869  0.8385  0.4395 -0.2684
17779SOL    HW253925   3.120   8.285   4.891  2.4568  3.9278  1.3224
17780SOL     OW53926   8.348   4.342   1.410 -0.3106  0.4015  0.3290
17780SOL    HW153927   8.269   4.398   1.385 -0.9990 -0.2955  0.9024
17780SOL    HW253928   8.375   4.362   1.504 -1.5629 -1.3355  1.0963
17781SOL     OW53929   7.905   0.229   6.116 -0.1746 -0.4992 -0.2366
17781SOL    HW153930   7.814   0.194   6.096 -0.6060  0.8925 -0.7721
17781SOL    HW253931   7.899   0.324   6.147  1.1016 -0.2744 -0.6007
17782SOL     OW53932   4.110   3.798   3.808  0.0935  0.2621  0.5441
17782SOL    HW153933   4.017   3.803   3.773  0.5857 -0.9453 -0.9901
17782SOL    HW253934   4.146   3.706   3.795  1.0365  0.3556  2.3601
17783SOL     OW53935   3.196   0.955   0.013  0.4289  0.2470  0.1722
17783SOL    HW153936   3.208   0.893   0.090 -0.5354  1.0645  0.9917
17783SOL    HW253937   3.188   1.049   0.046  2.2092  0.8661 -1.0841
17784SOL     OW53938   5.322   8.826   5.723 -0.2604  0.7992  0.2609
17784SOL    HW153939   5.346   8.920   5.750 -1.3210  1.8182 -2.1641
17784SOL    HW253940   5.252   8.829   5.652  0.8324 -1.8232 -0.9825
17785SOL     OW53941   1.610   6.003   2.593  0.1552  0.2305 -0.1307
17785SOL    HW153942   1.606   6.037   2.499 -3.5250 -1.4753 -0.6924
17785SOL    HW253943   1.667   5.921   2.597  0.7465  0.6062 -0.7644
17786SOL     OW53944   5.745   9.389   4.407  0.0017  0.2463 -0.7847
17786SOL    HW153945   5.728   9.364   4.503  0.5024 -0.2082 -0.8116
17786SOL    HW253946   5.836   9.429   4.399  1.7240 -3.6657 -1.7625
17787SOL     OW53947   9.558   9.205   3.454  0.2657 -0.4724 -0.0788
17787SOL    HW153948   9.636   9.173   3.399 -0.0428 -0.8515 -0.2910
17787SOL    HW253949   9.482   9.229   3.394  0.2192 -0.0900  0.1303
17788SOL     OW53950   1.854   0.613   1.897  0.3952  0.0240 -0.3508
17788SOL    HW153951   1.771   0.656   1.932 -0.3059 -0.3673 -1.5180
17788SOL    HW253952   1.934   0.652   1.944 -0.5659 -1.2734  2.4631
17789SOL     OW53953   8.806   7.503   2.911 -0.3979 -0.4263 -0.1310
17789SOL    HW153954   8.757   7.572   2.965 -0.9362 -0.9242  0.0254
17789SOL    HW253955   8.755   7.416   2.914  0.8486 -1.1420  0.6009
17791SOL     OW53956   2.139   9.983   3.631  0.1387  0.4369  0.1748
17791SOL    HW153957   2.049  10.025   3.644 -0.4184 -0.6511 -0.1600
17791SOL    HW253958   2.210  10.049   3.657 -0.7588  1.0705  1.0449
17792SOL     OW53959   4.317   1.507   0.586  0.2280 -0.6870  1.2316
17792SOL    HW153960   4.406   1.510   0.631  0.0740 -0.2525  1.5101
17792SOL    HW253961   4.275   1.417   0.601  0.2077 -0.5722  1.9024
17793SOL     OW53962   3.631   2.610   1.980 -0.2656 -0.4000 -0.1523
17793SOL    HW153963   3.721   2.604   1.938 -0.0198 -1.8693  0.5399
17793SOL    HW253964   3.575   2.677   1.931  0.7021 -0.5590 -1.4917
17795SOL     OW53965   0.688   5.809   2.288 -1.1227 -0.1338 -0.8983
17795SOL    HW153966   0.663   5.831   2.194 -0.7246 -2.8181 -1.6806
17795SOL    HW253967   0.656   5.881   2.349 -0.3796  2.2229 -3.1956
17796SOL     OW53968   1.392   0.671   2.479 -0.0181  0.8290 -0.0223
17796SOL    HW153969   1.298   0.647   2.457  0.1731 -1.0276  1.0504
17796SOL    HW253970   1.395   0.715   2.569  0.1029  1.0801 -0.1499
17797SOL     OW53971   2.525   9.934   4.863 -0.8698 -0.1130 -0.5039
17797SOL    HW153972   2.469  10.000   4.813 -1.1705 -0.9038 -1.2278
17797SOL    HW253973   2.534   9.851   4.809 -0.4146 -0.6321  0.3624
17798SOL     OW53974   8.488   4.523   0.108 -0.1714 -0.2354 -0.1709
17798SOL    HW153975   8.516   4.431   0.135  1.3433  0.3689  0.3738
17798SOL    HW253976   8.416   4.556   0.169 -2.2944 -1.8876 -1.7053
17799SOL     OW53977   6.184   7.316   5.379  0.7624 -0.3338 -0.6419
17799SOL    HW153978   6.196   7.384   5.307  1.8201  0.5433  0.3374
17799SOL    HW253979   6.243   7.339   5.456 -0.0869 -1.4630  0.3599
17800SOL     OW53980   0.375   6.711   0.874  0.4362 -0.4649  0.2844
17800SOL    HW153981   0.461   6.755   0.847  0.5209  0.3054  1.7608
17800SOL    HW253982   0.395   6.634   0.935  0.0521  0.0738  1.0974
17801SOL     OW53983   6.895   4.677   0.574 -0.0317  0.4625  0.1139
17801SOL    HW153984   6.967   4.608   0.573 -0.1849  0.3066 -0.0980
17801SOL    HW253985   6.819   4.648   0.516 -0.8310  0.0355  1.3608
17802SOL     OW53986   9.434   2.430   3.652  0.4964 -0.1174  0.2962
17802SOL    HW153987   9.515   2.472   3.611  0.2268 -0.2987 -0.4272
17802SOL    HW253988   9.386   2.497   3.709  0.3457  0.4090 -0.4528
17803SOL     OW53989   8.683   3.534   0.246  0.0422  0.6700  0.3843
17803SOL    HW153990   8.585   3.551   0.259 -0.5219 -1.4236 -0.8745
17803SOL    HW253991   8.726   3.517   0.335 -1.1383 -0.4008  0.7715
17804SOL     OW53992   8.039   6.284   2.275 -0.8662 -0.0657  0.6181
17804SOL    HW153993   8.024   6.273   2.177 -1.1123  2.9222  0.2929
17804SOL    HW253994   7.951   6.285   2.322 -0.9212  1.7001  0.4943
17805SOL     OW53995   8.040   5.315   2.480 -0.3809  0.2444  0.0093
17805SOL    HW153996   7.942   5.298   2.495 -0.0570 -0.1773  1.7605
17805SOL    HW253997   8.062   5.408   2.508  0.0691 -0.2749  1.4206
17807SOL     OW53998   0.270   4.864   1.330  0.0296 -0.2137  0.4189
17807SOL    HW153999   0.194   4.895   1.274 -1.8591 -0.1461  2.9438
17807SOL    HW254000   0.294   4.934   1.397 -0.0085 -1.5944  1.9207
17808SOL     OW54001   7.400   8.027   3.108 -0.0152  0.4570  0.1170
17808SOL    HW154002   7.431   8.111   3.064  1.7107 -1.7756 -3.1672
17808SOL    HW254003   7.479   7.971   3.133 -1.1725 -1.3087 -0.0404
17809SOL     OW54004   0.920   5.724   5.482  0.4889  0.1477  0.0318
17809SOL    HW154005   0.973   5.708   5.398  0.3013 -1.4480  0.2064
17809SOL    HW254006   0.979   5.770   5.550  1.1083  0.0089 -0.4041
17810SOL     OW54007   3.227   6.618   0.924 -0.0763 -0.2392 -0.0243
17810SOL    HW154008   3.288   6.598   0.848 -1.5530  1.1462 -1.6159
17810SOL    HW254009   3.191   6.710   0.915  1.4611  0.8075  3.5931
17811SOL     OW54010   9.663   0.390   5.526  0.1683  0.4054 -0.8007
17811SOL    HW154011   9.758   0.373   5.550  0.2249  0.7523 -0.7727
17811SOL    HW254012   9.604   0.365   5.603  0.3078  1.0219 -0.4898
17812SOL     OW54013   2.173   5.272   5.556 -0.0484 -0.5187  0.0419
17812SOL    HW154014   2.093   5.304   5.505 -0.7033 -0.2575  1.2214
17812SOL    HW254015   2.240   5.233   5.492  0.7571  3.1225 -1.4678
17813SOL     OW54016   3.969   4.487   1.660 -0.2053  0.1134  0.0212
17813SOL    HW154017   3.988   4.482   1.562  1.1791 -1.8211  0.3655
17813SOL    HW254018   4.026   4.559   1.701  0.5257 -0.2818 -0.2971
17815SOL     OW54019   2.492   4.738   0.489  0.3730  0.0737 -0.0076
17815SOL    HW154020   2.522   4.661   0.545 -1.2049 -1.1475 -0.7883
17815SOL    HW254021   2.524   4.727   0.395 -0.6481 -0.1473 -0.3458
17816SOL     OW54022   3.190   9.946   5.619  0.1255 -0.0374  0.1214
17816SOL    HW154023   3.155   9.852   5.622  0.7941 -0.2414  3.9654
17816SOL    HW254024   3.254   9.955   5.542  0.8556 -3.0180  0.3214
17817SOL     OW54025   7.910   6.740   2.660 -0.2038  0.2158  0.3058
17817SOL    HW154026   7.993   6.735   2.605 -0.4350 -0.3917  0.0112
17817SOL    HW254027   7.879   6.835   2.664  1.4280  0.7244  1.8058
17818SOL     OW54028   2.629   1.949   2.844 -0.0742  0.2846  0.0236
17818SOL    HW154029   2.543   1.900   2.852 -0.3715  0.7894 -0.0431
17818SOL    HW254030   2.618   2.028   2.783  0.2189  0.8084  0.6365
17820SOL     OW54031   9.060   7.350   1.329 -0.6085  0.4248  0.6015
17820SOL    HW154032   8.988   7.419   1.340 -0.1153  1.1780 -0.8527
17820SOL    HW254033   9.146   7.385   1.365 -0.8506 -0.3420  2.0044
17821SOL     OW54034   3.316   7.969   1.325 -0.1275  0.2654  0.3824
17821SOL    HW154035   3.327   8.064   1.353 -0.2651  0.5046 -0.3620
17821SOL    HW254036   3.306   7.911   1.406  0.2723  0.8420  0.8500
17822SOL     OW54037   6.411   7.819   3.477  0.2796  0.0326 -0.0606
17822SOL    HW154038   6.386   7.822   3.574  1.0685 -0.0225  0.1458
17822SOL    HW254039   6.510   7.808   3.468 -0.0160 -2.2480 -0.8694
17823SOL     OW54040   9.441   2.936   5.629 -0.2259 -0.3198 -0.2867
17823SOL    HW154041   9.376   2.968   5.560 -1.6172 -2.1094  0.1185
17823SOL    HW254042   9.426   2.838   5.645  0.7692 -0.1683  1.7890
17824SOL     OW54043   7.721   0.099   2.184  0.1755 -0.9764 -0.5697
17824SOL    HW154044   7.639   0.156   2.189  1.5657  1.0261 -0.2807
17824SOL    HW254045   7.798   0.146   2.227  1.4134 -2.9889 -0.5002
17825SOL     OW54046   4.101   6.226   0.830 -0.0807  0.8881  0.4871
17825SOL    HW154047   4.120   6.309   0.777  1.4297  0.5878  0.5416
17825SOL    HW254048   4.045   6.164   0.776  1.2423  0.6874 -0.6758
17826SOL     OW54049   3.540   2.886   6.248  0.1211  0.1124  0.1862
17826SOL    HW154050   3.446   2.893   6.212 -0.8961 -0.5381  2.6121
17826SOL    HW254051   3.579   2.978   6.257  0.1330  0.3266 -1.8311
17828SOL     OW54052   4.544   8.046   5.277  0.1332  0.2279  0.1733
17828SOL    HW154053   4.577   8.055   5.371  1.1062 -1.2129 -0.0095
17828SOL    HW254054   4.510   7.953   5.263 -0.5633  0.6114 -0.7371
17830SOL     OW54055   6.441   2.199   1.197  0.0329  0.2795  0.6502
17830SOL    HW154056   6.396   2.115   1.165 -1.1097  1.1448 -0.0377
17830SOL    HW254057   6.439   2.202   1.297  0.0469 -0.5009  0.6752
17832SOL     OW54058   7.964   7.932   3.376  0.1170  0.1774 -0.2840
17832SOL    HW154059   7.869   7.904   3.387 -0.1697  0.6542 -1.4082
17832SOL    HW254060   7.967   8.028   3.349  0.9960  0.6520  1.4750
17833SOL     OW54061   7.730   1.144   0.046 -0.1639  0.1284 -0.1525
17833SOL    HW154062   7.754   1.213   0.114 -1.1644  1.4698 -1.1177
17833SOL    HW254063   7.709   1.058   0.091 -1.2724  1.1230  1.2758
17834SOL     OW54064   4.924   9.343   5.065  0.2553 -0.0932  0.0056
17834SOL    HW154065   4.926   9.319   5.162  3.2484  0.0994  0.0470
17834SOL    HW254066   4.864   9.281   5.016  0.3735 -1.5384  1.6442
17835SOL     OW54067   0.382   4.504   3.715  0.1990 -0.1222  0.2786
17835SOL    HW154068   0.401   4.527   3.620 -0.1340 -0.6801  0.0721
17835SOL    HW254069   0.283   4.488   3.727  0.4609 -1.8900  0.2938
17836SOL     OW54070   9.043   9.805   0.125  0.3674  0.7105  0.5709
17836SOL    HW154071   9.048   9.895   0.082  1.3384  0.6993  0.6493
17836SOL    HW254072   9.028   9.735   0.055  1.7256  0.7152  0.2577
17839SOL     OW54073   7.757   7.862   3.736  0.1997  0.3038  0.0525
17839SOL    HW154074   7.820   7.808   3.679 -0.6726  1.2930 -1.8823
17839SOL    HW254075   7.810   7.926   3.791  1.1885 -1.8786  1.7174
17840SOL     OW54076   7.188   7.176   3.172  0.0719  0.0860  0.2551
17840SOL    HW154077   7.262   7.242   3.180  0.8490 -0.5214 -1.6403
17840SOL    HW254078   7.151   7.156   3.263  2.1410  0.4946  1.2224
17842SOL     OW54079   9.462   7.797   4.357  0.3617  0.3268 -0.7465
17842SOL    HW154080   9.454   7.717   4.298  0.8634  0.1422 -0.5660
17842SOL    HW254081   9.550   7.842   4.340 -0.1283  1.1347 -1.2194
17843SOL     OW54082   9.401   5.185   4.857  0.1046  0.1874  0.0389
17843SOL    HW154083   9.442   5.205   4.946 -1.0165  1.0420  0.3756
17843SOL    HW254084   9.349   5.100   4.862  0.9999 -0.3738 -0.1201
17844SOL     OW54085   3.716   9.629   2.407  0.4160  0.1342  0.4322
17844SOL    HW154086   3.736   9.544   2.358 -0.0547  0.3078 -0.0626
17844SOL    HW254087   3.617   9.636   2.422  0.5006  0.3616  0.9003
17845SOL     OW54088   6.995   4.946   0.495  0.1808  0.1188  0.6139
17845SOL    HW154089   6.946   4.986   0.573 -0.8170 -0.2702  0.2016
17845SOL    HW254090   6.960   4.853   0.479  0.5994  0.0890 -0.1079
17846SOL     OW54091   8.801   0.191   0.202  0.1031 -0.3901 -0.0328
17846SOL    HW154092   8.746   0.129   0.258 -0.6279 -0.9441 -1.3436
17846SOL    HW254093   8.891   0.203   0.244  0.4389 -2.7236  0.0075
17847SOL     OW54094   7.345   9.588   3.631 -0.2233  0.6734 -0.1600
17847SOL    HW154095   7.436   9.599   3.591  0.5541  3.1549  2.1190
17847SOL    HW254096   7.279   9.643   3.580 -0.4564 -0.9937 -1.7099
17848SOL     OW54097   8.075   7.919   5.785 -0.1955 -0.1891  0.0407
17848SOL    HW154098   7.978   7.930   5.763  0.0346  1.0259 -0.4006
17848SOL    HW254099   8.106   7.998   5.838  0.9989  0.2926 -1.3529
17849SOL     OW54100   8.826   4.527   0.339  0.3119 -0.3010  0.2946
17849SOL    HW154101   8.911   4.476   0.353  0.0733 -1.1974 -1.4387
17849SOL    HW254102   8.835   4.587   0.260 -0.5343 -0.0906  0.3509
17850SOL     OW54103   5.816   0.128   6.232  0.1696 -0.0506  0.0003
17850SOL    HW154104   5.883   0.141   6.159  0.3002 -0.9571 -0.0476
17850SOL    HW254105   5.735   0.084   6.194  0.4190 -0.9378  0.4920
17851SOL     OW54106   9.684   3.318   5.626 -0.1597  0.0551 -0.1476
17851SOL    HW154107   9.607   3.279   5.676 -0.0625  1.4011  1.0934
17851SOL    HW254108   9.769   3.274   5.655 -0.1055  0.8328  0.8794
17852SOL     OW54109   7.439   8.083   5.242  0.1057  0.6633  0.7355
17852SOL    HW154110   7.468   8.107   5.150  1.9629 -0.4982  0.9882
17852SOL    HW254111   7.340   8.071   5.245 -0.1164  1.9936 -0.7911
17854SOL     OW54112   1.772   8.690   4.842 -0.7647  0.0919 -1.3194
17854SOL    HW154113   1.867   8.662   4.849  0.1098  2.8529 -1.3259
17854SOL    HW254114   1.714   8.610   4.829  1.7357 -1.4716 -3.2799
17856SOL     OW54115   9.491   8.192   4.710  0.3006 -0.3740  0.3412
17856SOL    HW154116   9.507   8.278   4.757 -1.8732  0.1548  0.1412
17856SOL    HW254117   9.527   8.197   4.617  0.6661  0.1299  0.5106
17857SOL     OW54118   0.276   0.767   0.734 -0.0102  0.2577 -0.0559
17857SOL    HW154119   0.219   0.693   0.770 -0.2715  1.4431  2.0592
17857SOL    HW254120   0.254   0.782   0.638 -2.6702  0.1440  0.4889
17858SOL     OW54121   9.846   1.815   2.770 -0.7125  0.5358  0.7439
17858SOL    HW154122   9.847   1.726   2.816 -1.0753  1.6508  2.9983
17858SOL    HW254123   9.773   1.817   2.702 -0.1800 -1.1470  0.0733
17861SOL     OW54124   1.608   8.971   3.425  0.1104  0.2001 -0.1446
17861SOL    HW154125   1.686   9.033   3.435  1.3757 -1.1580 -1.3758
17861SOL    HW254126   1.636   8.878   3.445 -0.8792 -0.4867 -1.8637
17863SOL     OW54127   9.880   8.417   2.876 -0.8849 -0.4365 -0.1028
17863SOL    HW154128   9.871   8.434   2.974 -1.3112 -1.1094 -0.0209
17863SOL    HW254129   9.867   8.503   2.826  0.6868  0.1668  0.4945
17864SOL     OW54130   1.588   8.896   0.096  0.0974  0.0163  0.6370
17864SOL    HW154131   1.523   8.866   0.166 -1.7046  1.0429 -0.5655
17864SOL    HW254132   1.579   8.839   0.014 -2.6958  3.1094 -1.3110
17865SOL     OW54133   3.422   3.795   3.564  0.2503 -0.1337 -0.8720
17865SOL    HW154134   3.328   3.827   3.570  0.2378 -0.1126 -1.1719
17865SOL    HW254135   3.459   3.783   3.656 -0.4588 -1.3686 -0.7343
17866SOL     OW54136   8.415   5.025   3.430 -0.0247 -0.5106 -0.0621
17866SOL    HW154137   8.431   5.118   3.397  0.8752 -0.3666  0.7545
17866SOL    HW254138   8.395   5.028   3.528 -2.4440 -0.9404 -0.5172
17868SOL     OW54139   5.273   1.591   5.423  0.2747  0.4513 -0.0444
17868SOL    HW154140   5.224   1.660   5.476 -0.7651 -0.2122 -0.1255
17868SOL    HW254141   5.297   1.515   5.482 -0.6587 -0.1713 -0.4451
17869SOL     OW54142   2.061   6.206   0.238 -0.0651 -0.3336 -0.3141
17869SOL    HW154143   1.975   6.247   0.269 -0.1948 -1.4454  0.8345
17869SOL    HW254144   2.051   6.106   0.234  0.8952 -0.4046 -1.0397
17871SOL     OW54145   5.540   7.634   4.976 -0.2164  0.4258 -0.1212
17871SOL    HW154146   5.570   7.545   5.010  0.5432  0.1056 -1.5610
17871SOL    HW254147   5.601   7.705   5.010  0.8340  0.0480 -1.1637
17872SOL     OW54148   3.438   3.950   6.444 -0.0264 -0.1407  0.0261
17872SOL    HW154149   3.418   3.911   6.354 -1.6377  0.4966  0.0975
17872SOL    HW254150   3.360   3.934   6.505  0.7275  0.1456  1.0716
17873SOL     OW54151   9.252   1.124   1.874  0.5756  0.3085 -0.0197
17873SOL    HW154152   9.154   1.143   1.867  0.4044 -0.7823 -0.7950
17873SOL    HW254153   9.298   1.202   1.914 -0.7593  0.4351  1.3295
17874SOL     OW54154   7.728   5.742   0.373 -0.6120 -0.3766  0.4868
17874SOL    HW154155   7.787   5.679   0.323 -2.1358 -0.3824 -1.3497
17874SOL    HW254156   7.760   5.836   0.360 -0.8877 -0.3971 -0.3374
17875SOL     OW54157   8.941   9.820   3.582  0.1216 -0.1745 -0.0377
17875SOL    HW154158   8.873   9.862   3.642 -2.0116 -3.0085 -0.3710
17875SOL    HW254159   8.986   9.891   3.529 -2.1425  1.8505  0.6413
17876SOL     OW54160   9.893   6.568   6.415 -0.0460 -0.2426 -0.2351
17876SOL    HW154161   9.931   6.504   6.482  0.4683  0.8184  0.4903
17876SOL    HW254162   9.856   6.516   6.337 -0.3244 -1.4590  0.6905
17877SOL     OW54163   9.985   3.807   2.560 -0.1073 -0.2371  0.7339
17877SOL    HW154164  10.064   3.836   2.506  1.6319 -1.8028  2.3842
17877SOL    HW254165   9.936   3.889   2.593  0.5216  0.7377 -0.7124
17878SOL     OW54166   3.019   1.449   1.689 -0.0947 -0.0045  0.2526
17878SOL    HW154167   2.991   1.452   1.785  1.2404  0.0720  0.6576
17878SOL    HW254168   3.013   1.355   1.655 -0.1185 -0.1110  0.5501
17879SOL     OW54169   3.641   1.501   6.395 -0.1575 -0.4996 -0.1077
17879SOL    HW154170   3.656   1.597   6.417 -1.9159 -0.3243  0.4633
17879SOL    HW254171   3.721   1.447   6.422  0.3706  0.6419  0.6462
17880SOL     OW54172   7.035   6.158   5.991 -0.3269 -0.2338 -0.2135
17880SOL    HW154173   7.007   6.070   5.954  0.2333 -1.1739  1.5486
17880SOL    HW254174   7.110   6.145   6.056  0.1975  1.6145 -0.4149
17882SOL     OW54175   1.605   7.755   5.685  0.5408  0.2180 -0.1188
17882SOL    HW154176   1.630   7.706   5.769  1.5078 -0.6494 -0.9040
17882SOL    HW254177   1.508   7.740   5.665  1.2997 -3.1124 -1.4892
17883SOL     OW54178   0.254   7.797   3.223 -0.2024  0.2610 -0.0197
17883SOL    HW154179   0.232   7.874   3.163 -0.2799  0.8516  0.7658
17883SOL    HW254180   0.202   7.716   3.195 -0.0362  0.4607 -0.9129
17884SOL     OW54181   5.286   5.912   0.845 -0.3717 -0.4505 -0.2498
17884SOL    HW154182   5.268   5.989   0.784  1.3546  0.8046  0.7788
17884SOL    HW254183   5.268   5.940   0.940  0.5457 -1.2129  0.1542
17885SOL     OW54184   9.180   8.222   4.675  0.3948  0.0718 -0.3571
17885SOL    HW154185   9.139   8.211   4.585  1.3333  0.3756 -0.8224
17885SOL    HW254186   9.231   8.140   4.700  0.3746  0.0988 -0.2273
17886SOL     OW54187   1.231   7.288   2.628 -0.1312  0.6513 -0.0658
17886SOL    HW154188   1.149   7.272   2.573  0.3214  0.7419 -0.7704
17886SOL    HW254189   1.251   7.386   2.628 -0.9491  0.8288  1.4419
17887SOL     OW54190   9.527   5.813   0.029  0.1851  0.1755  0.6426
17887SOL    HW154191   9.601   5.825   0.095  0.7261  0.8583 -0.0822
17887SOL    HW254192   9.451   5.875   0.052 -0.3945 -0.8942  1.6912
17888SOL     OW54193   3.210   8.439   4.593  0.5448 -0.0357 -0.2354
17888SOL    HW154194   3.219   8.366   4.661  0.2748 -0.1150 -0.2815
17888SOL    HW254195   3.300   8.465   4.559  0.5503 -1.2783 -1.1940
17890SOL     OW54196   9.255   2.227   4.631  0.4260  0.5785  0.5079
17890SOL    HW154197   9.343   2.254   4.591  0.0406 -0.4081 -1.0527
17890SOL    HW254198   9.260   2.132   4.661 -1.0338 -0.5111 -2.4776
17891SOL     OW54199   6.562   2.524   3.862 -0.3914  0.5330  0.6097
17891SOL    HW154200   6.537   2.446   3.804 -0.3472 -1.1279  2.7237
17891SOL    HW254201   6.480   2.578   3.883 -0.9012 -0.4795  1.2725
17893SOL     OW54202   7.050   2.409   2.763  0.4723 -0.4464  0.1184
17893SOL    HW154203   7.116   2.459   2.707  1.3801 -2.1406 -0.3714
17893SOL    HW254204   6.967   2.393   2.709  1.6112 -2.6809 -1.0512
17894SOL     OW54205   7.315   8.996   2.637 -0.1908 -0.6855  0.0640
17894SOL    HW154206   7.296   9.026   2.544  1.2400  1.3765  0.4016
17894SOL    HW254207   7.232   8.956   2.677 -1.4852  0.6082 -1.2757
17895SOL     OW54208   3.468   6.626   1.930  0.8860  0.2498 -0.1587
17895SOL    HW154209   3.400   6.692   1.961 -0.1511 -0.3406 -1.1529
17895SOL    HW254210   3.555   6.644   1.975  0.6349  2.3387 -0.4821
17896SOL     OW54211   9.671   5.663   3.155  0.0243  0.3429 -0.1058
17896SOL    HW154212   9.741   5.593   3.171 -0.9976 -0.2768  1.7511
17896SOL    HW254213   9.691   5.710   3.069  1.4897 -1.3081 -0.7123
17898SOL     OW54214   8.257   6.104   4.933  0.5121 -0.3412 -0.7154
17898SOL    HW154215   8.327   6.074   4.997 -0.0387 -0.1758 -0.0303
17898SOL    HW254216   8.200   6.174   4.976 -0.0028 -0.3948 -1.3042
17899SOL     OW54217   7.228   7.878   5.230  0.1246  0.3206 -0.1352
17899SOL    HW154218   7.167   7.912   5.301 -0.4638 -0.7232 -0.1265
17899SOL    HW254219   7.191   7.792   5.194  1.0404  0.2356 -0.8674
17900SOL     OW54220   6.644   0.393   4.820 -0.1272  0.3691  0.0678
17900SOL    HW154221   6.606   0.484   4.834  0.5122  1.0126 -2.1744
17900SOL    HW254222   6.574   0.333   4.783 -0.3661  0.1367  0.8986
17902SOL     OW54223   1.516   1.718   6.406  0.8316  0.0349  0.1172
17902SOL    HW154224   1.453   1.778   6.357 -1.7685  0.6367  3.9854
17902SOL    HW254225   1.598   1.770   6.433  0.5455  0.6931 -0.2737
17903SOL     OW54226   2.680   0.415   5.390  0.2876  0.1690 -0.4577
17903SOL    HW154227   2.628   0.361   5.456  0.3493  1.4768  0.6749
17903SOL    HW254228   2.722   0.354   5.322 -2.2376 -0.9440 -1.0586
17905SOL     OW54229   4.931   6.835   1.464 -0.3836 -0.4040 -0.4831
17905SOL    HW154230   4.927   6.753   1.407  0.7022 -0.0632 -1.0721
17905SOL    HW254231   4.974   6.813   1.552  0.0680 -0.4448 -0.7078
17906SOL     OW54232   8.560   4.097   4.290  0.2376  0.1193 -0.1474
17906SOL    HW154233   8.527   4.111   4.196 -0.0233 -0.7954 -0.1966
17906SOL    HW254234   8.549   4.001   4.315  1.6367  0.0724  0.3196
17907SOL     OW54235   6.858   0.937   2.950 -0.5661 -0.0271  0.9833
17907SOL    HW154236   6.905   1.002   2.891 -0.6289 -1.4040 -0.6202
17907SOL    HW254237   6.800   0.987   3.015 -1.2561  1.5076 -0.7630
17908SOL     OW54238   0.583   9.680   1.971  0.8198  0.1406  0.2105
17908SOL    HW154239   0.600   9.746   2.044  2.5149 -1.8882  1.6951
17908SOL    HW254240   0.512   9.616   2.000 -0.0303  0.6217 -0.7853
17909SOL     OW54241   7.117   1.391   0.687 -0.2625  0.2480 -0.2777
17909SOL    HW154242   7.213   1.401   0.713 -0.2066 -1.4344  0.2387
17909SOL    HW254243   7.105   1.305   0.637 -1.6391  0.0546  0.3610
17910SOL     OW54244   2.384   1.507   0.296 -0.3341 -0.2322 -0.5592
17910SOL    HW154245   2.462   1.526   0.355 -1.3269 -0.9942  1.0291
17910SOL    HW254246   2.366   1.409   0.294 -1.2515 -0.0690 -0.9207
17911SOL     OW54247   3.323   7.384   5.302 -0.4297  0.6921  0.0702
17911SOL    HW154248   3.269   7.380   5.217  0.1380 -0.4867 -0.2403
17911SOL    HW254249   3.265   7.359   5.379 -1.0860  2.2573  0.1106
17912SOL     OW54250   0.797   0.001   3.387 -0.4395 -0.0333  0.1658
17912SOL    HW154251   0.733   0.069   3.423  1.2529  0.2692  2.7515
17912SOL    HW254252   0.879   0.048   3.353 -0.3763 -0.6287 -0.5165
17913SOL     OW54253   6.539   0.154   5.481  0.0554  0.1820 -0.0175
17913SOL    HW154254   6.558   0.062   5.448 -0.7788  0.5080 -1.4333
17913SOL    HW254255   6.623   0.209   5.478 -0.2023  0.4819 -2.5117
17914SOL     OW54256   9.530   5.568   0.603  0.0287 -0.3716  0.3039
17914SOL    HW154257   9.572   5.502   0.665 -1.2819 -0.9118  0.6120
17914SOL    HW254258   9.464   5.521   0.544 -2.2658  0.9508  1.7577
17915SOL     OW54259   4.856   1.290   6.101 -0.2411  0.0071  0.4293
17915SOL    HW154260   4.906   1.376   6.112 -0.6488  0.1207  1.3797
17915SOL    HW254261   4.919   1.219   6.069  0.1904  0.5422  0.0731
17916SOL     OW54262   3.165   7.771   3.051  0.0438  0.0609  0.5650
17916SOL    HW154263   3.194   7.740   3.141  0.5503  1.1806  0.7907
17916SOL    HW254264   3.200   7.709   2.981  0.1038 -0.5030  1.0947
17917SOL     OW54265   2.674   5.214   0.060  0.2287 -0.3351  0.7567
17917SOL    HW154266   2.577   5.190   0.063  0.3548 -0.8007  1.1326
17917SOL    HW254267   2.720   5.160  -0.011  0.2861 -0.3959  0.8390
17920SOL     OW54268   9.194   5.311   4.557 -0.5105  0.2266 -0.0317
17920SOL    HW154269   9.281   5.261   4.564 -1.3613 -1.2369  0.2126
17920SOL    HW254270   9.182   5.368   4.638  0.7452  1.3073 -0.5837
17921SOL     OW54271   0.582   8.247   0.775 -0.0225  0.0402  0.1385
17921SOL    HW154272   0.526   8.214   0.699 -0.7223 -2.0066  1.4929
17921SOL    HW254273   0.544   8.333   0.808 -1.4702 -0.5418  0.0371
17923SOL     OW54274   8.540   7.958   2.848  0.1233  0.3108 -0.0418
17923SOL    HW154275   8.553   7.940   2.945 -0.9924  1.8893  0.4301
17923SOL    HW254276   8.616   7.919   2.796 -0.4122 -2.5019  1.2115
17924SOL     OW54277   1.133   0.425   3.119 -0.1372  0.0430 -0.5486
17924SOL    HW154278   1.043   0.383   3.111 -1.0076  1.1706  2.4917
17924SOL    HW254279   1.203   0.356   3.104 -1.5069 -1.3247 -0.8008
17927SOL     OW54280   0.965   7.074   3.735  0.2271 -0.3575  0.1871
17927SOL    HW154281   1.034   7.144   3.754 -0.8142  0.9722 -0.8270
17927SOL    HW254282   0.874   7.111   3.755 -0.1954 -2.2981  2.1374
17928SOL     OW54283   8.338   4.974   5.296 -0.1857 -0.2636 -0.1054
17928SOL    HW154284   8.386   4.931   5.220 -0.5921  0.5681 -0.8359
17928SOL    HW254285   8.249   4.929   5.309  0.7676 -1.8226  1.2671
17929SOL     OW54286   8.421   0.737   3.730  0.0197  0.5033  0.0478
17929SOL    HW154287   8.398   0.832   3.712  0.4461  0.6814  0.4198
17929SOL    HW254288   8.521   0.726   3.732 -0.0236 -0.0052 -0.2793
17930SOL     OW54289   2.861   4.856   1.850 -0.3412  0.0601  0.6541
17930SOL    HW154290   2.830   4.932   1.793 -0.4473 -0.2741  0.2630
17930SOL    HW254291   2.959   4.864   1.867 -0.2628  0.0266  0.2193
17931SOL     OW54292   2.923   6.481   1.862 -0.7493 -0.6742 -0.7419
17931SOL    HW154293   2.844   6.430   1.897 -1.2097  1.0617  0.8089
17931SOL    HW254294   3.006   6.427   1.878 -1.3799 -1.5833 -0.4487
17932SOL     OW54295   1.864   5.013   0.374 -0.1411 -0.2453 -0.2965
17932SOL    HW154296   1.771   5.007   0.337 -1.3125  0.9394  2.3413
17932SOL    HW254297   1.873   4.951   0.452 -0.1733  2.9254  2.3077
17934SOL     OW54298   3.618   8.069   2.160 -0.0841  0.2929 -0.1748
17934SOL    HW154299   3.626   8.105   2.067 -0.8242 -0.5524 -0.5642
17934SOL    HW254300   3.695   8.009   2.179 -0.7856 -0.8147 -0.8122
17935SOL     OW54301   9.975   9.046   1.439 -0.1486 -0.1337 -0.1001
17935SOL    HW154302   9.891   9.017   1.393  0.6604 -0.8522 -1.1359
17935SOL    HW254303   9.959   9.050   1.538 -0.7940 -2.3456 -0.0842
17937SOL     OW54304   5.933   1.121   1.873  0.1069 -0.5906 -0.3176
17937SOL    HW154305   5.896   1.104   1.781  0.2639 -2.3130 -0.0643
17937SOL    HW254306   5.960   1.217   1.880  2.0636 -0.9013 -2.8080
17938SOL     OW54307   1.129   6.507   5.819 -0.0793 -0.6962  0.1544
17938SOL    HW154308   1.163   6.477   5.730  0.4221 -0.5047  0.2853
17938SOL    HW254309   1.205   6.535   5.877 -0.6341  2.1367 -0.4310
17939SOL     OW54310   5.749   6.191   1.042 -0.1712 -0.7906  0.2100
17939SOL    HW154311   5.659   6.209   1.082 -0.5929 -0.5605 -0.8252
17939SOL    HW254312   5.740   6.125   0.968  0.2584  0.4481 -0.9777
17940SOL     OW54313   7.582   3.415   3.462  0.4255  0.0014  0.2044
17940SOL    HW154314   7.658   3.354   3.442  1.2972  0.8260  0.9114
17940SOL    HW254315   7.613   3.486   3.526 -1.3520 -0.6082  1.8089
17942SOL     OW54316   3.608   9.508   5.749  0.0765 -0.1468  0.0932
17942SOL    HW154317   3.564   9.506   5.659  1.6568  2.7977 -0.7950
17942SOL    HW254318   3.683   9.442   5.752  0.3482  0.1149 -0.9352
17943SOL     OW54319   1.066   9.992   1.444 -0.3046  0.0040  0.4349
17943SOL    HW154320   1.124  10.059   1.492 -0.9820  0.0795  1.1621
17943SOL    HW254321   1.082   9.999   1.346 -0.2659  1.1439  0.5092
17944SOL     OW54322   8.992   2.271   5.596 -0.0276 -0.4326  0.6804
17944SOL    HW154323   9.063   2.310   5.655  0.9056  0.7227 -1.1735
17944SOL    HW254324   9.035   2.225   5.518 -1.3014  0.0641 -0.3333
17946SOL     OW54325   9.869   3.182   3.269  0.5138 -0.1424  0.1502
17946SOL    HW154326   9.844   3.140   3.357  0.9782 -0.9103 -0.0747
17946SOL    HW254327   9.892   3.278   3.283 -0.2353 -0.0438  0.7361
17947SOL     OW54328   6.939   9.011   5.629 -0.3427 -0.6905 -0.2322
17947SOL    HW154329   6.856   8.971   5.669 -0.0211 -0.7471  0.3877
17947SOL    HW254330   7.011   8.942   5.627 -0.5787 -0.9209 -1.6346
17948SOL     OW54331   8.095   2.537   5.056 -0.5588  0.0164  0.0422
17948SOL    HW154332   8.188   2.510   5.031 -0.1817 -0.0615  1.4802
17948SOL    HW254333   8.040   2.455   5.073 -0.2649  0.1022  1.4032
17949SOL     OW54334   3.738   1.669   6.136 -0.1430  0.3161  0.0848
17949SOL    HW154335   3.742   1.763   6.101 -1.0846  0.4161  0.2300
17949SOL    HW254336   3.692   1.668   6.225  0.2438 -0.2288  0.2801
17950SOL     OW54337   4.854   2.589   1.667  0.2050  0.0465  0.1385
17950SOL    HW154338   4.761   2.557   1.646  0.1950  0.5840 -0.6611
17950SOL    HW254339   4.850   2.680   1.708  0.3628 -0.0419  0.3508
17951SOL     OW54340   4.180   5.605   0.680 -0.7870 -0.0155 -0.1441
17951SOL    HW154341   4.234   5.651   0.750 -0.4695 -2.8678  1.5883
17951SOL    HW254342   4.094   5.572   0.720 -0.4842 -1.9200 -0.9762
17952SOL     OW54343   2.787   6.408   1.203  0.1314 -0.3917 -0.2954
17952SOL    HW154344   2.857   6.421   1.134 -0.4868 -2.7858 -1.4306
17952SOL    HW254345   2.817   6.338   1.268 -0.3194  0.0738  0.4165
17953SOL     OW54346   1.887   8.071   1.278 -0.0742 -0.0427 -0.1651
17953SOL    HW154347   1.891   8.069   1.178  0.1267 -0.2998 -0.1521
17953SOL    HW254348   1.844   8.156   1.308 -0.3089 -0.0492 -0.4746
17954SOL     OW54349   1.228   3.784   4.716  0.2901  0.0397 -0.4040
17954SOL    HW154350   1.187   3.731   4.790 -1.6406  1.9107 -0.0985
17954SOL    HW254351   1.325   3.800   4.737  0.1734 -0.8731  0.8882
17955SOL     OW54352   2.594   5.429   6.355 -0.0944  0.0483 -0.3391
17955SOL    HW154353   2.572   5.486   6.434  1.1690 -0.5945  0.4924
17955SOL    HW254354   2.557   5.337   6.369  0.2237 -0.0954 -0.4399
17956SOL     OW54355   5.016   1.036   6.117 -0.2617  0.3178 -0.3088
17956SOL    HW154356   4.931   0.985   6.107  0.3930 -0.7511 -0.5143
17956SOL    HW254357   5.060   1.045   6.028  0.1443  0.3492 -0.1048
17957SOL     OW54358   4.703   9.744   1.612 -0.7899  0.1986 -0.1057
17957SOL    HW154359   4.758   9.672   1.654 -2.8317 -1.1182  0.4076
17957SOL    HW254360   4.738   9.833   1.640 -0.2379 -0.6222  1.9262
17958SOL     OW54361   5.675   7.924   3.515  0.4185  0.5063  0.2416
17958SOL    HW154362   5.722   8.011   3.501  1.0758  0.3117  1.2087
17958SOL    HW254363   5.733   7.849   3.482 -0.7435  0.5343 -1.8992
17959SOL     OW54364   4.563   6.151   2.705 -0.5067  0.2961 -0.4360
17959SOL    HW154365   4.551   6.177   2.609 -0.1386  1.6989 -0.1178
17959SOL    HW254366   4.532   6.057   2.719 -0.9922  0.2444 -1.8307
17962SOL     OW54367   4.725   2.544   4.619  0.0019 -0.4505 -0.5275
17962SOL    HW154368   4.681   2.634   4.618  0.7238 -0.0948 -0.3985
17962SOL    HW254369   4.804   2.545   4.558 -0.6122 -1.3181 -1.3558
17963SOL     OW54370   2.423   0.493   5.829  0.2902  0.2145  0.0855
17963SOL    HW154371   2.511   0.448   5.819  0.5997  1.0325 -0.9082
17963SOL    HW254372   2.359   0.457   5.761 -0.1878 -0.4615  0.8795
17966SOL     OW54373   7.393   4.295   3.101 -0.4609 -0.1405  0.5171
17966SOL    HW154374   7.313   4.354   3.091 -0.2215  0.1646  0.3916
17966SOL    HW254375   7.386   4.218   3.038 -2.0002 -1.6370  2.4282
17967SOL     OW54376   6.681   4.717   2.367 -0.6222 -0.1523  0.1699
17967SOL    HW154377   6.686   4.623   2.400 -1.1158 -0.2692 -0.0933
17967SOL    HW254378   6.774   4.755   2.360 -0.4181 -0.6550  0.1610
17969SOL     OW54379   8.907   3.991   5.898 -0.0564  0.4777  0.1790
17969SOL    HW154380   8.935   3.894   5.901  0.1544  0.5753  1.9530
17969SOL    HW254381   8.893   4.018   5.803 -0.6020 -1.4380 -0.3174
17970SOL     OW54382   1.734   7.133   4.250 -0.2307 -0.3352  0.6256
17970SOL    HW154383   1.795   7.071   4.200 -0.9266 -0.4703 -0.0698
17970SOL    HW254384   1.753   7.127   4.347  2.8946  1.8432  0.2113
17971SOL     OW54385   0.300   6.207   0.325 -0.2908  0.0434 -0.3283
17971SOL    HW154386   0.315   6.156   0.241  1.2219  0.3076 -0.2238
17971SOL    HW254387   0.287   6.304   0.304  2.1622  0.4545 -0.1307
17972SOL     OW54388   8.685   8.937   2.073 -0.0548 -0.0218 -0.0238
17972SOL    HW154389   8.730   8.848   2.068  0.1859  0.0845  0.2736
17972SOL    HW254390   8.600   8.929   2.125  0.1749  0.0137  0.3513
17974SOL     OW54391   5.228   0.361   3.787 -0.1454 -0.6232  0.2967
17974SOL    HW154392   5.201   0.428   3.856  0.0791  0.0570 -0.2682
17974SOL    HW254393   5.327   0.365   3.773 -0.0131 -1.6456  0.8443
17975SOL     OW54394   6.991   2.149   0.364  0.0272  0.4415  0.3022
17975SOL    HW154395   6.898   2.182   0.349 -0.0916 -0.0058  0.0486
17975SOL    HW254396   6.996   2.100   0.452 -0.3501 -0.9005 -0.4123
17976SOL     OW54397   9.148   9.094   1.621 -0.4953  0.3024 -0.6557
17976SOL    HW154398   9.060   9.047   1.628 -0.3818 -0.0277 -1.4461
17976SOL    HW254399   9.159   9.155   1.700 -0.0212 -2.0165  1.0917
17977SOL     OW54400   0.022   3.360   3.635 -0.2565  0.0955  0.2425
17977SOL    HW154401  -0.018   3.421   3.567  1.0896 -0.3944 -0.9978
17977SOL    HW254402   0.076   3.414   3.700  0.7150  0.2576 -0.6985
17978SOL     OW54403   4.001   7.628   5.417 -0.6504 -0.4003  0.0894
17978SOL    HW154404   4.050   7.625   5.330 -1.3144 -1.0181 -0.2638
17978SOL    HW254405   3.960   7.719   5.429  1.3860  0.4436  0.8452
17979SOL     OW54406   1.945   8.885   2.973  0.5634 -0.1266  0.0806
17979SOL    HW154407   2.045   8.892   2.972  0.5765  0.1338 -3.1963
17979SOL    HW254408   1.906   8.977   2.971  0.3444 -0.2369 -2.5565
17980SOL     OW54409   0.273   9.358   6.395  0.0102 -0.4325 -0.1452
17980SOL    HW154410   0.355   9.363   6.453 -0.6528 -0.4605  0.8008
17980SOL    HW254411   0.250   9.450   6.362  0.3744 -0.4127 -0.3515
17983SOL     OW54412   1.586   7.198   4.831  0.0204  0.2935  0.7966
17983SOL    HW154413   1.529   7.195   4.749 -0.6276  1.7766  1.1717
17983SOL    HW254414   1.590   7.292   4.866  2.8725  0.2497  0.6874
17984SOL     OW54415   3.210   0.176   3.341 -0.2541 -0.2611 -0.0443
17984SOL    HW154416   3.159   0.157   3.257  1.6361 -2.1195 -0.8047
17984SOL    HW254417   3.164   0.249   3.392 -2.4007 -0.3302 -1.8090
17986SOL     OW54418   4.842   1.238   2.219 -0.3889 -0.2854  0.5336
17986SOL    HW154419   4.927   1.287   2.197 -0.6488 -0.6980 -1.4821
17986SOL    HW254420   4.809   1.268   2.308  1.4566  0.4609  0.9972
17987SOL     OW54421   1.836   5.994   2.390 -0.4378 -0.2376  0.1081
17987SOL    HW154422   1.905   5.968   2.458 -1.3764 -1.5916  0.5594
17987SOL    HW254423   1.852   6.089   2.361  0.7583 -0.0758  1.2387
17988SOL     OW54424   2.069   7.898   0.778  0.2593  0.4543  0.1960
17988SOL    HW154425   2.135   7.830   0.748 -0.4417 -0.6899  1.2141
17988SOL    HW254426   1.997   7.854   0.832  0.6202  2.1764  2.1855
17990SOL     OW54427   7.775   4.516   3.173 -0.2685  0.5122 -0.1566
17990SOL    HW154428   7.783   4.488   3.077  2.5956 -0.2141  0.2762
17990SOL    HW254429   7.681   4.546   3.190 -0.8229  0.6777 -3.1868
17991SOL     OW54430   9.620   3.551   3.073 -0.4549 -0.0205 -0.2563
17991SOL    HW154431   9.586   3.612   3.002  0.5727  0.5254 -0.2929
17991SOL    HW254432   9.657   3.606   3.148 -0.6344 -0.5997  0.2592
17992SOL     OW54433   8.311   4.808   1.307 -0.5163 -0.2778 -0.1167
17992SOL    HW154434   8.362   4.786   1.224  1.2713 -0.7648  1.0753
17992SOL    HW254435   8.324   4.735   1.374 -3.1100 -0.5891  0.1027
17993SOL     OW54436   9.899   5.437   4.528  0.4784 -0.1574  0.2066
17993SOL    HW154437   9.864   5.447   4.435  0.3549  0.3964  0.3153
17993SOL    HW254438   9.868   5.350   4.566 -0.9357  0.4152  0.3744
17994SOL     OW54439   5.021   0.567   6.435  0.5414  0.1528  0.3780
17994SOL    HW154440   4.949   0.592   6.500  1.5229 -0.0343  1.5465
17994SOL    HW254441   5.073   0.649   6.409  0.0670  0.2495 -0.2875
17995SOL     OW54442   8.863   8.606   4.175 -0.3108 -0.6423 -0.1758
17995SOL    HW154443   8.797   8.620   4.101 -1.0442  2.4086  0.9984
17995SOL    HW254444   8.815   8.581   4.259 -0.0702  2.1543  0.8317
17996SOL     OW54445   1.452   6.490   0.715  0.1263  0.8020  0.4037
17996SOL    HW154446   1.372   6.546   0.696  0.1933  0.5970 -0.4951
17996SOL    HW254447   1.423   6.402   0.752  0.0179  1.3792  1.7201
17998SOL     OW54448   4.942   1.080   3.782 -0.5034 -0.1529  0.2572
17998SOL    HW154449   4.999   1.033   3.715  0.2631 -1.0118  1.4910
17998SOL    HW254450   4.996   1.150   3.828 -0.2439 -1.3454  1.8270
18000SOL     OW54451   1.854   0.962   2.323 -0.1752 -0.7485  0.0196
18000SOL    HW154452   1.899   0.880   2.286  2.1066  0.9803 -1.1448
18000SOL    HW254453   1.773   0.983   2.269  0.7885 -0.6544 -1.4042
18001SOL     OW54454   1.100   9.046   5.997  0.1649  0.7295  0.1916
18001SOL    HW154455   1.112   9.134   5.951  1.4407  1.1935  1.3741
18001SOL    HW254456   1.014   9.046   6.047  0.4417  1.5554  0.6905
18002SOL     OW54457   1.924   6.433   3.555 -0.8475 -0.4797  0.1235
18002SOL    HW154458   1.954   6.395   3.643  4.2771 -0.0399 -1.2810
18002SOL    HW254459   1.912   6.359   3.489  3.1500 -0.3305 -0.9081
18003SOL     OW54460   4.740   4.669   1.913 -0.1652  0.1538  0.0765
18003SOL    HW154461   4.800   4.710   1.982  0.3583 -2.1789  1.0464
18003SOL    HW254462   4.784   4.677   1.823  1.6463 -1.4741  0.7651
18004SOL     OW54463   8.798   0.467   0.633  0.5232 -0.5705 -0.2854
18004SOL    HW154464   8.787   0.420   0.721 -0.2219  0.1180 -0.0060
18004SOL    HW254465   8.744   0.419   0.563  2.6378 -2.2541 -0.8075
18005SOL     OW54466   3.719   8.929   2.883  0.3109 -0.3289 -0.3600
18005SOL    HW154467   3.628   8.937   2.923  0.8870 -0.3684  0.9961
18005SOL    HW254468   3.716   8.870   2.802 -0.7860 -0.7005 -0.0483
18006SOL     OW54469   8.153   8.136   1.759 -0.3786 -0.1052  0.3262
18006SOL    HW154470   8.096   8.212   1.789  2.5808  1.4874  2.2158
18006SOL    HW254471   8.227   8.171   1.701  0.8542 -1.5692  0.9784
18009SOL     OW54472   3.682   7.719   2.435  0.4297 -0.3664  0.1492
18009SOL    HW154473   3.682   7.780   2.514 -0.0785  0.7965 -0.7455
18009SOL    HW254474   3.632   7.635   2.458  0.6887 -0.2474  1.2075
18010SOL     OW54475   3.034   3.246   1.515 -0.2975  0.4456 -0.2652
18010SOL    HW154476   3.060   3.226   1.610 -0.8623  0.8732 -0.0148
18010SOL    HW254477   3.115   3.242   1.457  0.0359  0.0769  0.2204
18012SOL     OW54478   7.197   3.373   2.877  0.3185  0.2314 -0.0393
18012SOL    HW154479   7.201   3.455   2.935  1.3371  0.1210  0.0695
18012SOL    HW254480   7.157   3.298   2.929 -0.9509  0.7430 -0.2525
18013SOL     OW54481   7.447   2.109   3.192 -0.1035  0.3452  0.7065
18013SOL    HW154482   7.542   2.081   3.211 -0.4592 -1.1294  0.3915
18013SOL    HW254483   7.386   2.032   3.212 -0.9046  0.1174 -2.3958
18014SOL     OW54484   2.037   7.938   1.674  0.3881  0.6793 -0.3810
18014SOL    HW154485   2.079   7.952   1.764  1.3102 -0.2718 -0.6515
18014SOL    HW254486   1.943   7.908   1.686  0.4521  0.7172  0.2666
18015SOL     OW54487   9.829   5.830   6.187  0.0224  0.5319 -0.1375
18015SOL    HW154488   9.894   5.760   6.218  0.8439  1.6131  0.6516
18015SOL    HW254489   9.807   5.815   6.091 -2.4462 -2.8296  0.8312
18016SOL     OW54490   3.629   8.876   0.785  0.0827 -0.0677  0.0855
18016SOL    HW154491   3.538   8.840   0.768  0.5486 -1.0952 -0.2929
18016SOL    HW254492   3.650   8.870   0.882 -0.9136  1.8047  0.4525
18017SOL     OW54493   9.900   4.365   3.791  0.4352  0.3673 -0.2867
18017SOL    HW154494   9.918   4.374   3.889  2.1160  1.1731 -0.6518
18017SOL    HW254495   9.830   4.432   3.765  1.1033  1.2390  0.0909
18018SOL     OW54496   0.715   4.724   0.216 -0.2315 -0.3583  0.1779
18018SOL    HW154497   0.732   4.652   0.283 -2.0123  0.0494  1.1171
18018SOL    HW254498   0.768   4.805   0.240 -0.6316 -0.3170  0.9411
18019SOL     OW54499   8.585   4.330   2.376 -0.8132  0.0129  0.4656
18019SOL    HW154500   8.520   4.399   2.344 -0.2313  0.4929  0.3060
18019SOL    HW254501   8.539   4.241   2.381 -1.0005 -0.0252 -1.4379
18020SOL     OW54502   7.904   2.701   1.238  0.1415  0.5941  0.4449
18020SOL    HW154503   7.898   2.654   1.149  0.6839  2.2039 -0.4720
18020SOL    HW254504   7.816   2.744   1.259  0.6021  1.9466 -0.3214
18021SOL     OW54505   9.143   0.614   5.108  0.1558  0.0477 -0.4969
18021SOL    HW154506   9.044   0.622   5.118  0.3142  1.0714  0.3778
18021SOL    HW254507   9.179   0.695   5.060  0.3883 -1.0497 -2.2169
18023SOL     OW54508   2.437   5.500   3.719 -0.3628 -0.3358 -0.6505
18023SOL    HW154509   2.353   5.462   3.682 -0.8218  0.9440 -0.9377
18023SOL    HW254510   2.453   5.590   3.680  0.1387  0.2370  0.8423
18024SOL     OW54511   0.447   3.533   2.758 -0.1308  0.2189 -0.0497
18024SOL    HW154512   0.436   3.433   2.753 -1.2200  0.3679 -1.0417
18024SOL    HW254513   0.544   3.556   2.759  0.1461 -0.8115 -1.0785
18025SOL     OW54514   6.106   0.851   2.926 -0.6173  0.1087  0.1326
18025SOL    HW154515   6.141   0.855   3.020  2.5900  1.0213 -1.0652
18025SOL    HW254516   6.148   0.774   2.878 -0.8899  0.7066 -1.0885
18026SOL     OW54517   2.171   5.543   2.077  0.2840  0.2523  0.6029
18026SOL    HW154518   2.227   5.625   2.067  1.4111 -0.5917 -0.3302
18026SOL    HW254519   2.183   5.485   1.996  0.9810 -1.6922  2.0578
18027SOL     OW54520   3.528   1.837   3.162  0.0892  0.2241  0.3231
18027SOL    HW154521   3.527   1.766   3.233 -1.6787  1.1869  1.2853
18027SOL    HW254522   3.436   1.848   3.125  0.1832  2.5097  0.6942
18028SOL     OW54523   9.869   7.959   3.704  0.8653 -0.1032  0.5039
18028SOL    HW154524   9.872   7.915   3.614 -1.3782 -0.8396  0.7500
18028SOL    HW254525   9.779   7.944   3.745  2.1310 -0.4748  3.2364
18031SOL     OW54526   2.834   0.795   0.868 -0.4681  0.6113 -0.6041
18031SOL    HW154527   2.792   0.885   0.859 -0.1402  1.0879  2.3244
18031SOL    HW254528   2.919   0.791   0.815 -1.6990  1.1874 -2.6946
18033SOL     OW54529   2.965   9.745   0.295  0.4586 -0.7242  0.5099
18033SOL    HW154530   2.922   9.822   0.341  1.8628 -0.0251  0.6709
18033SOL    HW254531   2.905   9.711   0.222  1.6516  3.3914 -2.5640
18034SOL     OW54532   2.446   3.326   3.355  0.0158 -0.6060 -0.0569
18034SOL    HW154533   2.435   3.324   3.256 -0.6539  0.2203 -0.0092
18034SOL    HW254534   2.522   3.266   3.382  1.2970  0.4791 -1.2037
18035SOL     OW54535   4.509   4.370   3.190  0.3705  0.0967  0.0505
18035SOL    HW154536   4.608   4.360   3.176  0.4546 -1.4529  1.5573
18035SOL    HW254537   4.492   4.419   3.275 -0.1464 -0.5214  0.3092
18036SOL     OW54538   9.918   5.848   1.498  0.1406 -0.4171 -0.2147
18036SOL    HW154539   9.932   5.885   1.406  0.8548 -0.6656 -0.2088
18036SOL    HW254540   9.999   5.867   1.554  0.1050 -1.1093  0.0771
18037SOL     OW54541   2.873   5.827   1.480  0.0760 -0.5067  0.2390
18037SOL    HW154542   2.909   5.877   1.559  1.0232 -0.1508 -0.4016
18037SOL    HW254543   2.948   5.807   1.417 -0.5887 -1.2411 -0.3239
18040SOL     OW54544   2.841   0.915   5.618  0.6237 -0.0927 -0.1896
18040SOL    HW154545   2.868   0.943   5.526 -0.5813 -2.6372 -1.3596
18040SOL    HW254546   2.919   0.873   5.665  0.3769 -1.8766 -1.3257
18041SOL     OW54547   8.047   9.976   6.178 -0.0908 -0.2359  0.2289
18041SOL    HW154548   7.993  10.035   6.238  0.3520  0.2354  0.1626
18041SOL    HW254549   8.010   9.981   6.085  0.5397  0.6746  0.0267
18042SOL     OW54550   3.067   3.997   3.830  0.4687  0.9231 -0.0887
18042SOL    HW154551   3.078   3.943   3.913 -0.1517  1.0289  0.0690
18042SOL    HW254552   3.090   4.092   3.847  1.2229  0.7762 -0.2758
18043SOL     OW54553   1.492   5.983   4.550  0.1939 -0.0135 -0.5284
18043SOL    HW154554   1.566   5.917   4.560  0.3901  0.4800  1.5827
18043SOL    HW254555   1.406   5.941   4.578  0.0192  0.0549 -0.9664
18044SOL     OW54556   4.919   9.426   3.272  0.4793 -0.6360  0.3027
18044SOL    HW154557   4.829   9.467   3.286  0.7159  0.0633 -0.2049
18044SOL    HW254558   4.989   9.496   3.282  0.7995 -0.5584 -2.1817
18045SOL     OW54559   3.676   3.808   6.185  0.2470  0.7673  0.8638
18045SOL    HW154560   3.771   3.791   6.212  0.2936  0.8164  0.7266
18045SOL    HW254561   3.670   3.821   6.087  0.1746  1.3013  0.9371
18047SOL     OW54562   9.125   7.481   2.615  0.0285 -0.2193  0.6477
18047SOL    HW154563   9.029   7.456   2.628 -0.4826  1.2675 -0.1505
18047SOL    HW254564   9.131   7.578   2.591  1.7771 -0.1572  1.2985
18048SOL     OW54565   5.561   0.044   2.326 -0.2864 -0.2398 -0.7441
18048SOL    HW154566   5.604   0.086   2.247 -0.2819 -2.2796 -1.8504
18048SOL    HW254567   5.464   0.029   2.307 -0.0002 -1.9475 -0.8633
18053SOL     OW54568   0.250   9.413   4.437 -0.9343  0.3704  0.4616
18053SOL    HW154569   0.226   9.501   4.479 -1.3302  0.5244 -0.0717
18053SOL    HW254570   0.339   9.383   4.470 -1.2240  0.5019  1.3843
18055SOL     OW54571   7.129   8.860   5.739  0.6120  0.1095  0.2586
18055SOL    HW154572   7.079   8.885   5.822  0.5693  0.7490  0.0468
18055SOL    HW254573   7.203   8.926   5.724  0.8699 -0.2372  0.0100
18056SOL     OW54574   8.143   0.643   6.344  0.1525  0.2647  0.1840
18056SOL    HW154575   8.159   0.565   6.284  2.8332  1.7505 -1.1239
18056SOL    HW254576   8.190   0.629   6.431  0.3081  0.2288  0.0947
18057SOL     OW54577   8.452   4.272   4.700  0.1729 -0.3561 -0.6045
18057SOL    HW154578   8.404   4.346   4.747 -0.7223 -1.5946  0.4853
18057SOL    HW254579   8.477   4.301   4.608  0.0198  1.3647 -0.1249
18058SOL     OW54580   2.875   5.301   0.481 -0.0283 -0.7344 -0.0889
18058SOL    HW154581   2.855   5.385   0.531 -0.5315 -2.2961  2.3744
18058SOL    HW254582   2.851   5.313   0.384 -0.9918  1.6117  0.4283
18059SOL     OW54583   6.341   1.412   3.394 -0.7500 -0.2284 -0.3864
18059SOL    HW154584   6.289   1.485   3.351 -0.0971  0.3558 -0.2038
18059SOL    HW254585   6.279   1.346   3.436 -1.4432 -1.3125 -2.9979
18061SOL     OW54586   8.284   5.153   2.833  0.1965  0.3851 -0.0745
18061SOL    HW154587   8.244   5.220   2.896  1.9012  1.8027 -0.4696
18061SOL    HW254588   8.368   5.116   2.872 -0.2620 -0.8683 -0.2596
18062SOL     OW54589   6.463   9.671   4.980 -0.2603  0.0918 -0.3820
18062SOL    HW154590   6.539   9.609   4.999 -1.0495 -0.3743  1.3505
18062SOL    HW254591   6.453   9.736   5.055 -1.3131  0.3917 -0.7704
18064SOL     OW54592   8.656   1.532   0.837 -0.6497  0.1084  0.2721
18064SOL    HW154593   8.718   1.460   0.808 -1.6022 -0.7725  0.4198
18064SOL    HW254594   8.655   1.537   0.937 -0.2518  0.6273  0.2548
18065SOL     OW54595   4.707   4.214   1.830  0.1806 -0.3986  0.3208
18065SOL    HW154596   4.695   4.302   1.876 -1.3368 -0.9771  1.0584
18065SOL    HW254597   4.644   4.208   1.753  1.1843 -0.3313 -0.5199
18066SOL     OW54598   1.362   0.181   0.947  0.0311  0.1364 -0.2385
18066SOL    HW154599   1.268   0.213   0.958 -0.3038 -0.8553 -0.1292
18066SOL    HW254600   1.411   0.239   0.883 -0.3966  1.1883  0.3801
18068SOL     OW54601   8.464   3.390   1.621  0.3364 -0.1033 -0.4376
18068SOL    HW154602   8.383   3.355   1.574 -0.5138  0.2674  0.7087
18068SOL    HW254603   8.526   3.432   1.555  0.9267 -2.8645 -1.6900
18069SOL     OW54604   3.436   0.298   5.462  0.4671 -0.2137 -0.3841
18069SOL    HW154605   3.512   0.293   5.397  0.1700  0.8455 -0.8267
18069SOL    HW254606   3.354   0.329   5.416  0.1753  0.2479  0.4292
18071SOL     OW54607   0.344   2.933   3.351  0.7813 -0.1624  0.2256
18071SOL    HW154608   0.338   3.032   3.362  0.3397  0.0892 -2.0141
18071SOL    HW254609   0.254   2.893   3.363  0.7728 -0.1775  0.1123
18072SOL     OW54610   3.310   9.882   3.574  0.4190  0.1693 -0.7760
18072SOL    HW154611   3.301   9.793   3.527  2.6324 -0.4517 -0.0716
18072SOL    HW254612   3.286   9.871   3.670 -1.8278  0.9414 -1.2011
18073SOL     OW54613   8.099   4.628   5.825  0.2495 -0.0091 -0.2145
18073SOL    HW154614   8.183   4.665   5.864  0.3316 -1.3632  0.9210
18073SOL    HW254615   8.091   4.530   5.847 -1.7140  0.1360 -0.1224
18074SOL     OW54616   3.844   8.479   6.024  0.5041  0.4678  0.2714
18074SOL    HW154617   3.768   8.525   5.979 -0.0289 -1.6105 -1.0318
18074SOL    HW254618   3.921   8.472   5.961  1.3465  1.4695  1.1731
18075SOL     OW54619   4.396   5.055   3.274 -0.2517 -0.1992  0.2586
18075SOL    HW154620   4.336   5.050   3.354  0.3219  2.1167  0.8585
18075SOL    HW254621   4.461   4.979   3.277  0.3662  0.3888  2.4959
18076SOL     OW54622   8.147   5.033   3.292  0.1803  0.1246  0.3051
18076SOL    HW154623   8.139   5.113   3.233 -1.4366  0.1021  0.4728
18076SOL    HW254624   8.244   5.013   3.309  0.6529  0.7171 -1.5406
18077SOL     OW54625   1.315   6.329   5.635  0.5655 -0.0958  0.5196
18077SOL    HW154626   1.329   6.254   5.699 -1.4234 -0.0305  1.0328
18077SOL    HW254627   1.303   6.292   5.543 -0.5533 -0.4266  0.7930
18078SOL     OW54628   2.694   3.966   4.794  0.0763 -0.0685  0.0775
18078SOL    HW154629   2.767   4.015   4.744  1.3972  0.4168  2.3946
18078SOL    HW254630   2.731   3.881   4.832 -0.1915  0.8011  2.3584
18079SOL     OW54631   2.886   0.438   4.544 -0.0732  0.0036 -0.0372
18079SOL    HW154632   2.852   0.378   4.616  1.0177 -0.8051 -0.1859
18079SOL    HW254633   2.882   0.533   4.574 -0.6399 -0.2434  0.6682
18080SOL     OW54634   5.003   8.068   3.423 -0.6951  0.0305 -0.2005
18080SOL    HW154635   4.978   8.163   3.442  0.0706  0.0951  0.4623
18080SOL    HW254636   5.099   8.063   3.395 -1.3071 -0.2855 -2.3103
18082SOL     OW54637   9.909   5.825   2.809  0.1830  0.1226  0.3471
18082SOL    HW154638   9.819   5.828   2.766  0.7680  2.1823 -0.8130
18082SOL    HW254639   9.940   5.730   2.816 -0.8923 -0.4008 -1.6979
18083SOL     OW54640   4.093   9.452   3.700  0.0341  0.1565  0.2787
18083SOL    HW154641   4.006   9.434   3.655  0.3426  0.9408 -0.6529
18083SOL    HW254642   4.093   9.411   3.792 -0.7753 -1.0563 -0.2509
18084SOL     OW54643   0.223   8.324   6.382 -0.2875  0.3262  0.8805
18084SOL    HW154644   0.206   8.231   6.352  0.1877  0.3833  0.4163
18084SOL    HW254645   0.185   8.388   6.315 -1.7267  0.4776  1.8276
18085SOL     OW54646   0.884   5.871   5.038  0.3289 -0.6307  0.0618
18085SOL    HW154647   0.905   5.967   5.018  0.0979 -0.5184  0.3560
18085SOL    HW254648   0.789   5.852   5.010 -0.2204 -0.2974  1.6494
18086SOL     OW54649   0.530   9.792   4.685  0.4442 -0.3484  0.7903
18086SOL    HW154650   0.512   9.834   4.596 -1.0771 -1.1185  0.7085
18086SOL    HW254651   0.497   9.853   4.757  3.4891  1.2048  0.9669
18087SOL     OW54652   7.776   2.306   4.328  0.5055 -0.2194  0.4760
18087SOL    HW154653   7.858   2.261   4.364  0.0749 -0.7215  0.8580
18087SOL    HW254654   7.698   2.244   4.338  0.1949  0.0145 -0.4519
18088SOL     OW54655   5.577   8.651   5.204 -0.1971 -0.4820 -0.4274
18088SOL    HW154656   5.611   8.725   5.145  2.1528 -0.4740  0.8749
18088SOL    HW254657   5.569   8.567   5.150 -1.0570  0.2470 -1.4633
18089SOL     OW54658   0.490   4.273   5.004 -0.2898 -0.5766  0.7313
18089SOL    HW154659   0.513   4.282   4.907 -0.5483  0.9284  0.7853
18089SOL    HW254660   0.420   4.203   5.016  1.5264 -2.5295  0.1404
18091SOL     OW54661   8.082   1.164   0.684  0.0485 -0.1821  0.9351
18091SOL    HW154662   7.997   1.202   0.649  1.6097  1.5995 -0.9883
18091SOL    HW254663   8.125   1.108   0.614  1.8747  1.2370  0.8891
18092SOL     OW54664   1.093   1.130   6.432 -0.0026 -0.1766 -0.0172
18092SOL    HW154665   1.108   1.223   6.398  0.2078 -0.2897 -0.2330
18092SOL    HW254666   1.177   1.096   6.472 -0.0468 -0.3197 -0.0470
18093SOL     OW54667   9.441   0.185   0.390  0.2880 -0.0334  0.4027
18093SOL    HW154668   9.428   0.087   0.406 -0.8182 -0.2084 -1.3444
18093SOL    HW254669   9.397   0.237   0.463  1.7660 -0.8496  1.8821
18094SOL     OW54670   4.855   0.812   6.348  0.3423 -0.1126 -0.1749
18094SOL    HW154671   4.897   0.803   6.438  0.8814 -1.2077 -0.5307
18094SOL    HW254672   4.761   0.844   6.358  0.5002  0.0760  0.7527
18095SOL     OW54673   2.322   6.179   0.871  0.0611 -0.6319 -0.0073
18095SOL    HW154674   2.365   6.252   0.925 -0.4729  0.1078 -0.5720
18095SOL    HW254675   2.368   6.172   0.783  0.2275 -1.1034  0.1170
18096SOL     OW54676   3.341   1.106   3.803  0.8192 -0.3725  0.5181
18096SOL    HW154677   3.313   1.036   3.738 -0.9259  1.0719 -0.3431
18096SOL    HW254678   3.441   1.113   3.804  1.0468 -3.0642  0.8823
18097SOL     OW54679   0.872   4.145   5.049 -0.4292 -0.3151 -0.0863
18097SOL    HW154680   0.872   4.113   5.144 -2.7748  0.3055  0.1646
18097SOL    HW254681   0.837   4.072   4.990  1.7558 -0.9750 -0.6036
18098SOL     OW54682   0.116   3.586   1.554 -0.0651  0.2629 -0.6713
18098SOL    HW154683   0.173   3.666   1.569  0.3596 -0.0763 -0.4651
18098SOL    HW254684   0.140   3.543   1.467  2.1406 -1.6442  0.8077
18099SOL     OW54685   0.512   7.188   4.088  0.1404  0.5384 -0.4295
18099SOL    HW154686   0.529   7.103   4.038  0.0243 -0.1300  0.6360
18099SOL    HW254687   0.487   7.166   4.183 -2.0025  1.6646 -0.7039
18101SOL     OW54688   9.204   8.568   3.158 -0.1183 -0.5084  0.3397
18101SOL    HW154689   9.185   8.470   3.169  0.4284 -0.5938  0.5370
18101SOL    HW254690   9.261   8.582   3.078 -0.2367 -0.3421  0.2833
18102SOL     OW54691   8.778   6.852   1.632  0.3687 -0.4039 -0.6136
18102SOL    HW154692   8.688   6.877   1.596  0.4928 -0.6132 -1.0733
18102SOL    HW254693   8.785   6.880   1.728 -0.3280 -0.7487 -0.4639
18103SOL     OW54694   7.029   0.450   2.654  0.2023  0.6822  0.1583
18103SOL    HW154695   6.935   0.476   2.631 -0.0300 -2.1069 -2.5649
18103SOL    HW254696   7.027   0.375   2.720  0.4099 -0.0731 -0.6685
18104SOL     OW54697   1.737   7.010   2.015  0.2547 -0.2560 -0.4329
18104SOL    HW154698   1.683   6.927   2.001  0.2679 -0.3295 -0.0625
18104SOL    HW254699   1.754   7.022   2.113  3.5053 -1.8821 -0.7440
18105SOL     OW54700   2.892   1.998   0.326 -0.3359 -0.1940 -0.2657
18105SOL    HW154701   2.795   2.001   0.350  0.0780  0.1200  1.4268
18105SOL    HW254702   2.939   1.932   0.385  0.7086  0.6120 -0.1793
18106SOL     OW54703   6.259   0.322   4.152  0.3164  0.0144  0.2394
18106SOL    HW154704   6.209   0.275   4.224 -0.3942 -0.1307 -0.3345
18106SOL    HW254705   6.206   0.402   4.122  1.0147  0.5712  0.4792
18107SOL     OW54706   8.100   3.274   5.035  0.0162  0.7429  0.0197
18107SOL    HW154707   8.126   3.329   4.956 -2.4307 -0.6400 -1.8091
18107SOL    HW254708   8.019   3.313   5.078 -0.3519 -0.1198  0.1190
18108SOL     OW54709   7.844   4.741   1.471  0.2697  0.5118 -0.8796
18108SOL    HW154710   7.787   4.660   1.455  0.9449 -0.3126  0.8051
18108SOL    HW254711   7.790   4.813   1.515  0.8730 -0.8489  2.2059
18110SOL     OW54712   2.672   8.933   3.618 -0.0465 -0.3480 -0.1222
18110SOL    HW154713   2.680   9.028   3.647 -0.2937 -0.5609  0.6363
18110SOL    HW254714   2.723   8.874   3.681 -1.9545 -0.9842  0.8675
18112SOL     OW54715   8.630   6.769   6.170 -0.0025 -0.0516 -0.3210
18112SOL    HW154716   8.635   6.787   6.268 -1.0130  0.1167 -0.2873
18112SOL    HW254717   8.706   6.814   6.123  1.4254 -1.4988  0.5618
18113SOL     OW54718   3.131   6.382   2.438  0.3259 -0.2179 -0.5099
18113SOL    HW154719   3.118   6.338   2.349  0.1514 -1.4534  0.1317
18113SOL    HW254720   3.053   6.441   2.457 -0.6804 -1.6376 -0.1871
18114SOL     OW54721   1.085   0.458   6.435 -0.0818 -0.0506 -0.3196
18114SOL    HW154722   1.143   0.376   6.432  1.7907  1.2387  0.0630
18114SOL    HW254723   1.009   0.447   6.371 -0.4696 -2.5337  0.5039
18115SOL     OW54724   9.850   2.247   3.144 -0.2788 -0.0362  0.1349
18115SOL    HW154725   9.909   2.229   3.222 -1.3070 -2.1164  0.4805
18115SOL    HW254726   9.847   2.165   3.086 -1.9536  0.4166 -0.4404
18117SOL     OW54727   5.221   2.146   5.049  0.1190 -0.1786 -0.1291
18117SOL    HW154728   5.153   2.128   5.119  1.2510  0.5594  1.2007
18117SOL    HW254729   5.186   2.215   4.985  0.3266  1.6249  1.6553
18120SOL     OW54730   0.551   5.116   4.283 -0.0612  0.1056 -0.3059
18120SOL    HW154731   0.650   5.110   4.273  0.1047  0.4954  0.9865
18120SOL    HW254732   0.510   5.146   4.197  0.8578 -0.9375 -1.1123
18121SOL     OW54733   7.142   2.138   3.524 -0.0120  0.5352 -0.4036
18121SOL    HW154734   7.204   2.065   3.550 -1.5352 -0.1198  1.5272
18121SOL    HW254735   7.187   2.226   3.537  0.3175  0.0928  1.6045
18122SOL     OW54736   2.003   3.142   2.844 -0.7079 -0.6282  0.8471
18122SOL    HW154737   1.965   3.133   2.753 -1.5389 -0.5936  1.1836
18122SOL    HW254738   1.974   3.065   2.901  0.0280 -0.7942  1.0042
18123SOL     OW54739   7.636   3.927   3.141 -0.6274 -0.2393  0.0504
18123SOL    HW154740   7.665   3.995   3.074 -1.3400 -0.5913 -0.6179
18123SOL    HW254741   7.706   3.918   3.212 -0.5546  1.2422  0.1825
18124SOL     OW54742   0.725   2.105   0.142  0.5358 -0.2095 -0.2185
18124SOL    HW154743   0.626   2.107   0.157  0.8547 -1.3931  2.3135
18124SOL    HW254744   0.750   2.019   0.097  0.6827 -1.0380  1.4224
18127SOL     OW54745   1.468   3.997   1.605 -0.5010  0.7622 -0.6449
18127SOL    HW154746   1.537   3.929   1.581  0.1432  1.7073 -1.5235
18127SOL    HW254747   1.484   4.028   1.699  3.3465  4.5275 -2.3935
18128SOL     OW54748   4.474   5.316   3.861  0.1277  0.3073 -0.2179
18128SOL    HW154749   4.483   5.381   3.937 -1.0297  0.6697 -0.3697
18128SOL    HW254750   4.475   5.223   3.897  1.2157  0.4308  0.0672
18131SOL     OW54751   2.865   5.367   1.107 -0.6445 -0.0943 -0.1941
18131SOL    HW154752   2.885   5.276   1.144  0.0542 -0.0731 -0.5196
18131SOL    HW254753   2.854   5.431   1.183 -2.7154 -0.7594  0.0981
18132SOL     OW54754   3.749   7.403   4.741  0.1775 -0.1306  0.4642
18132SOL    HW154755   3.848   7.399   4.758  0.1423  0.6828  0.8985
18132SOL    HW254756   3.729   7.482   4.683 -0.0696 -1.0703 -0.7531
18133SOL     OW54757   8.487   0.138   2.916  0.1092 -0.0667 -0.4762
18133SOL    HW154758   8.481   0.238   2.915  0.3335 -0.0068  2.0994
18133SOL    HW254759   8.562   0.110   2.975  0.2835 -1.7759 -1.4818
18134SOL     OW54760   9.995   6.123   4.260 -0.0020 -0.1234 -0.3376
18134SOL    HW154761   9.900   6.097   4.276 -0.3126  0.3709 -1.3588
18134SOL    HW254762  10.018   6.108   4.164  0.6892  0.6142 -0.2892
18135SOL     OW54763   7.776   2.349   1.514  0.5563 -0.3480 -0.4187
18135SOL    HW154764   7.832   2.282   1.563  1.9850  0.0266 -1.5215
18135SOL    HW254765   7.831   2.429   1.493 -1.1881  1.3222  1.1115
18137SOL     OW54766   7.247   2.596   5.484 -0.3568  0.0445  0.2133
18137SOL    HW154767   7.329   2.594   5.425  0.5946 -0.1202  1.5270
18137SOL    HW254768   7.166   2.579   5.428  0.5334 -0.1034 -1.0630
18140SOL     OW54769   0.910   9.497   2.526 -0.0226  0.1557  0.5564
18140SOL    HW154770   1.008   9.515   2.537 -0.3188  1.5458  1.0787
18140SOL    HW254771   0.890   9.477   2.430  1.0157 -1.8110  0.7184
18141SOL     OW54772   6.350   7.839   4.003 -0.0698  0.5868  0.0680
18141SOL    HW154773   6.350   7.936   4.028 -1.7588  0.5254  0.3559
18141SOL    HW254774   6.413   7.789   4.064 -0.4798  1.2284  1.0242
18142SOL     OW54775   2.079   1.415   5.759  0.0420 -0.1225  0.4455
18142SOL    HW154776   2.100   1.318   5.773 -0.2937  0.0419  2.1624
18142SOL    HW254777   2.128   1.448   5.678  0.5266 -1.6024  0.1152
18143SOL     OW54778   1.751   7.589   2.355 -0.1049 -0.0566  0.2099
18143SOL    HW154779   1.829   7.637   2.315 -1.1477  1.5685  0.1145
18143SOL    HW254780   1.783   7.503   2.396  1.8088  0.8230  0.6117
18144SOL     OW54781   0.877   2.307   1.876 -0.4177  0.0697  0.2318
18144SOL    HW154782   0.904   2.404   1.877  0.9329 -0.2933 -0.2713
18144SOL    HW254783   0.825   2.287   1.959 -0.0243  1.0377  0.7267
18145SOL     OW54784   1.113   6.674   3.469  1.0263  0.4197 -0.7215
18145SOL    HW154785   1.056   6.753   3.446 -0.5224 -0.7202 -0.8477
18145SOL    HW254786   1.160   6.641   3.387 -0.2265 -0.2828 -1.1605
18146SOL     OW54787   0.614   8.497   4.349 -0.1135 -0.4006  0.7859
18146SOL    HW154788   0.571   8.423   4.402  1.2929 -0.3889  1.9761
18146SOL    HW254789   0.679   8.457   4.284 -1.4380 -0.3777 -0.5774
18147SOL     OW54790   0.068   6.984   4.733  0.0657 -0.6124  0.4254
18147SOL    HW154791   0.150   7.036   4.709 -0.3154 -0.2007  0.0231
18147SOL    HW254792   0.088   6.886   4.727  0.7695 -0.5183  1.1403
18148SOL     OW54793   6.431   2.178   4.884  0.5963 -0.1505 -0.2287
18148SOL    HW154794   6.463   2.273   4.887  1.8687 -0.5750  0.0524
18148SOL    HW254795   6.364   2.162   4.956 -1.6736  1.2464 -1.9663
18150SOL     OW54796   0.953   4.646   5.604 -0.5700  0.2959  0.3279
18150SOL    HW154797   0.932   4.743   5.610  0.5300  0.6021 -0.5677
18150SOL    HW254798   0.877   4.598   5.559 -0.7741  0.8680  0.0545
18151SOL     OW54799   8.609   2.845   0.458  0.2658 -0.0896  0.6100
18151SOL    HW154800   8.685   2.781   0.466 -1.0630 -1.7030  0.4355
18151SOL    HW254801   8.526   2.805   0.497 -0.9011  0.9814 -0.6775
18153SOL     OW54802   2.667   3.774   4.449  0.2129 -0.7205 -0.0176
18153SOL    HW154803   2.670   3.682   4.488  0.0734  0.0893  1.9363
18153SOL    HW254804   2.753   3.821   4.468 -0.2498  0.0403  0.2110
18154SOL     OW54805   2.241   3.029   2.175 -0.0181  0.1289  0.1036
18154SOL    HW154806   2.238   3.067   2.267  4.1269  1.6712 -0.3061
18154SOL    HW254807   2.195   3.091   2.112  0.8199  1.1504  0.4858
18155SOL     OW54808   2.966   7.178   2.614 -0.1792  0.0979 -0.5300
18155SOL    HW154809   3.026   7.110   2.571 -0.3321  0.3199 -1.1009
18155SOL    HW254810   2.947   7.252   2.549 -2.8416 -1.0435 -1.1369
18157SOL     OW54811   8.039   9.933   4.389 -0.6844 -0.3875  0.4524
18157SOL    HW154812   8.086   9.965   4.307 -0.4780 -0.1785  0.6539
18157SOL    HW254813   7.961   9.876   4.363 -0.0156 -1.1581  0.1291
18159SOL     OW54814   0.395   2.038   0.894  0.0093 -0.4480 -0.1083
18159SOL    HW154815   0.296   2.049   0.901 -0.0908 -0.9519 -0.6796
18159SOL    HW254816   0.416   1.946   0.859  0.6446  0.0787 -1.1098
18160SOL     OW54817   2.312   5.233   2.587  0.3936 -0.5717 -0.4448
18160SOL    HW154818   2.246   5.294   2.631  1.9106 -0.0426  1.1462
18160SOL    HW254819   2.292   5.227   2.489 -1.4966  0.2213 -0.1243
18161SOL     OW54820   2.036   6.969   2.025  0.0379  0.1974  0.0250
18161SOL    HW154821   2.040   6.869   2.017 -1.5524  0.0107  1.2147
18161SOL    HW254822   1.942   6.999   2.012  0.3370  1.4450  0.7092
18162SOL     OW54823   3.359   2.237   3.977 -0.9413  0.3184  0.3847
18162SOL    HW154824   3.319   2.324   4.004 -1.3237  0.6257 -1.1309
18162SOL    HW254825   3.457   2.250   3.961 -0.7847  0.2170  1.2250
18163SOL     OW54826   8.707   6.999   0.283 -0.6431 -0.2027 -0.3134
18163SOL    HW154827   8.730   7.001   0.186  0.1075  0.0745 -0.1287
18163SOL    HW254828   8.690   6.904   0.311 -1.1076 -0.2566 -0.7704
18164SOL     OW54829   3.024   0.325   3.722  0.3359 -0.0797 -0.2377
18164SOL    HW154830   3.015   0.369   3.812  1.7071  2.0408 -1.1120
18164SOL    HW254831   3.101   0.261   3.725  0.0406 -0.4204  0.2496
18165SOL     OW54832   3.698   2.999   2.455 -0.2901  0.0538  0.0965
18165SOL    HW154833   3.793   3.029   2.454 -0.5506  0.9223  0.6305
18165SOL    HW254834   3.681   2.938   2.378  0.9557 -0.8922  0.5541
18168SOL     OW54835   8.596   6.017   1.817  0.1057 -0.1649 -0.2673
18168SOL    HW154836   8.671   6.058   1.764 -0.7020  1.6498 -0.0220
18168SOL    HW254837   8.546   5.952   1.758  1.2596 -0.6647 -0.7186
18169SOL     OW54838   4.992   1.078   0.913  0.3533  0.4198 -0.0152
18169SOL    HW154839   4.915   1.018   0.935 -1.1653  2.2931 -0.0311
18169SOL    HW254840   5.022   1.061   0.820  1.0581 -1.4678  0.5321
18170SOL     OW54841   0.525   1.338   1.608  0.0296 -0.0826 -0.5597
18170SOL    HW154842   0.617   1.324   1.647  0.1889  1.4155 -0.3966
18170SOL    HW254843   0.529   1.322   1.509  1.0077  2.3315 -0.9413
18171SOL     OW54844   7.237   2.813   5.066  0.8020 -0.0793  0.2181
18171SOL    HW154845   7.268   2.820   4.971  0.6947 -3.8686 -0.2055
18171SOL    HW254846   7.137   2.817   5.069  0.7121 -1.5324 -0.0837
18172SOL     OW54847   1.045   3.896   3.014 -0.1367 -0.4553 -0.4318
18172SOL    HW154848   1.061   3.940   2.926  1.0063  1.1964  0.5690
18172SOL    HW254849   0.975   3.947   3.064  1.9063  0.8503  1.1475
18173SOL     OW54850   4.206   2.228   5.623  0.0856  0.2966 -0.5685
18173SOL    HW154851   4.217   2.304   5.688 -1.9186  0.9425 -0.9469
18173SOL    HW254852   4.258   2.149   5.655  0.3713  1.1118  1.0251
18175SOL     OW54853   3.344   8.087   4.509  0.4189  0.3983 -0.3369
18175SOL    HW154854   3.385   7.999   4.485 -1.8365 -1.8288  3.4852
18175SOL    HW254855   3.261   8.101   4.455 -1.7554 -2.0857  2.2455
18176SOL     OW54856   2.487   0.610   4.622 -0.2861 -0.1546  0.1072
18176SOL    HW154857   2.538   0.696   4.626 -1.7903  0.7924 -0.8749
18176SOL    HW254858   2.455   0.593   4.529  0.2051 -1.9146  0.2341
18177SOL     OW54859   0.174   2.563   1.167  0.4831  0.0925 -0.1804
18177SOL    HW154860   0.227   2.626   1.224 -0.0579  0.5185 -0.1407
18177SOL    HW254861   0.206   2.470   1.181  0.6355  0.2462  0.5006
18179SOL     OW54862   3.260   2.636   6.074 -0.2587 -0.0529  0.2242
18179SOL    HW154863   3.258   2.735   6.085  2.6169  0.6880 -4.7471
18179SOL    HW254864   3.341   2.598   6.119  1.6579  0.6283 -2.5650
18180SOL     OW54865   5.630   9.529   3.474  0.2722  0.0696  0.1518
18180SOL    HW154866   5.705   9.551   3.411 -0.1581 -1.4098 -0.9003
18180SOL    HW254867   5.642   9.435   3.507 -1.2924 -0.2824 -0.2711
18182SOL     OW54868   8.465   7.473   3.050 -0.6935 -0.3522 -0.0231
18182SOL    HW154869   8.494   7.561   3.010 -1.7822 -0.1194 -0.3230
18182SOL    HW254870   8.520   7.399   3.010  0.0072  0.1535 -0.0163
18184SOL     OW54871   3.234   0.595   2.996 -0.3942 -0.7053 -0.0607
18184SOL    HW154872   3.164   0.635   3.054  2.1545  1.5188  1.6164
18184SOL    HW254873   3.229   0.634   2.904  1.7236  3.3394  1.3991
18185SOL     OW54874   0.727   6.961   5.861  0.3035  0.1975  0.5258
18185SOL    HW154875   0.630   6.978   5.876  0.5683  2.2955 -0.0183
18185SOL    HW254876   0.739   6.902   5.781 -0.5173 -0.4075  0.8361
18186SOL     OW54877   8.736   5.538   5.848  0.2749  0.1787  0.1207
18186SOL    HW154878   8.738   5.439   5.830  0.1050  0.2523 -0.3151
18186SOL    HW254879   8.818   5.580   5.809  0.0493  0.2958 -0.2327
18189SOL     OW54880   2.414   1.998   0.140 -0.1375  0.7979  0.6345
18189SOL    HW154881   2.429   1.905   0.104 -0.0709  0.0057  2.6176
18189SOL    HW254882   2.345   1.995   0.212 -0.1356  2.3018  0.7117
18190SOL     OW54883   7.006   4.449   1.707 -0.0092 -0.0176 -0.4255
18190SOL    HW154884   7.093   4.497   1.717  0.8161 -1.9265  2.4313
18190SOL    HW254885   7.023   4.355   1.680 -1.0332 -0.8697  1.7762
18191SOL     OW54886   7.080   0.450   1.744 -0.0353 -0.3992  0.2340
18191SOL    HW154887   7.121   0.506   1.816 -0.2706  1.7138 -1.2028
18191SOL    HW254888   6.982   0.441   1.760 -0.2187  0.7191 -0.2055
18192SOL     OW54889   2.386   9.962   1.469 -0.1762  0.1264  0.6020
18192SOL    HW154890   2.324   9.884   1.458 -2.4684  1.9552  0.2617
18192SOL    HW254891   2.333  10.046   1.482  2.2213  1.8400 -0.2652
18193SOL     OW54892   7.665   6.658   1.912  0.3260 -0.0863  0.2300
18193SOL    HW154893   7.670   6.670   1.813  0.6216 -0.8395  0.1498
18193SOL    HW254894   7.626   6.740   1.954 -1.2409 -0.3751 -0.6426
18194SOL     OW54895   2.648   0.363   2.861  0.2934  0.6771  0.4747
18194SOL    HW154896   2.586   0.441   2.871  0.9480  1.0913  1.2839
18194SOL    HW254897   2.721   0.386   2.796 -0.0641  0.3905 -0.0354
18195SOL     OW54898   0.609   9.929   3.186 -0.2461  0.0320 -0.4229
18195SOL    HW154899   0.524   9.886   3.216  0.8713 -1.8345  0.1613
18195SOL    HW254900   0.675   9.930   3.262  1.3260 -1.3647 -1.7208
18196SOL     OW54901   3.033   7.670   1.698 -0.0866 -0.5150 -0.4655
18196SOL    HW154902   3.051   7.572   1.688  0.8601 -0.5907  1.7867
18196SOL    HW254903   2.938   7.689   1.673 -0.2472 -1.9900 -1.0113
18197SOL     OW54904   3.986   7.386   1.643 -0.5200 -0.3194  0.4210
18197SOL    HW154905   3.912   7.418   1.702 -0.7651  0.0072 -0.0534
18197SOL    HW254906   3.948   7.359   1.554 -0.1949 -1.0817  0.5131
18198SOL     OW54907   6.788   2.595   2.945  0.1387  0.4289  0.0890
18198SOL    HW154908   6.768   2.574   3.041  1.9629 -0.7836  0.2241
18198SOL    HW254909   6.887   2.589   2.929  0.1039  2.8655 -1.3482
18199SOL     OW54910   1.386   8.387   0.800 -0.4008 -0.2480  0.4810
18199SOL    HW154911   1.312   8.328   0.832 -1.2671  0.4692 -0.1768
18199SOL    HW254912   1.348   8.465   0.751  0.8267 -0.2586 -0.5124
18200SOL     OW54913   1.321   4.887   2.302 -0.0987  0.1627 -0.1948
18200SOL    HW154914   1.306   4.954   2.231  0.6751  0.3663 -0.1650
18200SOL    HW254915   1.368   4.930   2.380  0.2055 -0.3507 -0.0898
18201SOL     OW54916   8.201   1.762   1.310 -0.6438  0.4400 -0.8846
18201SOL    HW154917   8.278   1.763   1.374  0.1630 -0.8458 -1.8028
18201SOL    HW254918   8.120   1.727   1.356  0.0240 -0.8398 -0.6605
18202SOL     OW54919   8.509   1.458   0.081 -0.2527 -0.3244 -0.3233
18202SOL    HW154920   8.434   1.438   0.144 -0.1785 -0.9225 -0.4252
18202SOL    HW254921   8.482   1.533   0.020 -0.8341 -0.6522 -0.4739
18203SOL     OW54922   1.785   4.612   3.142 -0.3524 -0.4205 -0.6316
18203SOL    HW154923   1.695   4.654   3.134 -0.8417 -0.9606  1.6298
18203SOL    HW254924   1.782   4.518   3.106 -0.8010 -0.5684 -0.2104
18205SOL     OW54925   9.459   1.826   1.431 -0.1090 -0.3619  0.1162
18205SOL    HW154926   9.411   1.760   1.373  0.2912  0.9081 -1.7212
18205SOL    HW254927   9.477   1.910   1.378  0.6333  0.6815  1.9661
18206SOL     OW54928   2.616   8.701   4.604 -0.6037 -0.3826 -0.1355
18206SOL    HW154929   2.709   8.734   4.591 -1.1017 -0.0495 -3.1963
18206SOL    HW254930   2.551   8.774   4.582 -1.6316 -0.4296  2.5073
18207SOL     OW54931   3.008   7.527   4.125  0.2677  0.5707  0.4764
18207SOL    HW154932   2.946   7.568   4.192 -1.3985  0.2557 -0.8419
18207SOL    HW254933   3.055   7.449   4.166 -2.3494 -0.9663  0.6803
18208SOL     OW54934   3.844   5.697   1.212  0.3736 -0.1761  0.0191
18208SOL    HW154935   3.800   5.654   1.133 -1.6933  1.4348  0.2217
18208SOL    HW254936   3.905   5.769   1.181 -2.3332  2.1686 -0.1358
18211SOL     OW54937   4.253   5.382   2.601 -0.0929 -0.0591 -0.1179
18211SOL    HW154938   4.164   5.386   2.645  0.1433 -0.0703  0.3688
18211SOL    HW254939   4.317   5.332   2.660 -0.2201 -1.5887 -1.2412
18212SOL     OW54940   8.197   5.445   1.194 -0.0039  0.1453 -0.3017
18212SOL    HW154941   8.291   5.425   1.222  0.2403  1.5674 -0.1013
18212SOL    HW254942   8.149   5.359   1.174  0.4310 -0.7994  2.4679
18213SOL     OW54943   9.154   7.165   0.831  0.0766 -0.3829  0.4607
18213SOL    HW154944   9.113   7.074   0.825 -0.4908 -0.2011  1.5531
18213SOL    HW254945   9.190   7.180   0.922 -1.3341  1.1091  0.8019
18214SOL     OW54946   1.572   5.098   2.182  0.0794 -0.1667 -0.2062
18214SOL    HW154947   1.561   5.118   2.085  1.9197 -0.3540 -0.4717
18214SOL    HW254948   1.526   5.168   2.236  1.1999  1.3706 -1.1928
18215SOL     OW54949   8.280   7.285   1.039 -0.1448 -0.2344 -0.3902
18215SOL    HW154950   8.280   7.381   1.069 -1.6116 -0.5592  0.7312
18215SOL    HW254951   8.290   7.281   0.940 -2.6472  1.2330 -0.7644
18218SOL     OW54952   3.195   4.827   5.005  0.7973  0.0788 -0.3118
18218SOL    HW154953   3.155   4.751   4.953  0.0200  1.7481 -2.2504
18218SOL    HW254954   3.164   4.914   4.965  1.4027  1.4236  2.0594
18219SOL     OW54955   1.944   9.500   5.543  0.5846 -0.6002 -0.1043
18219SOL    HW154956   2.033   9.460   5.564  0.7715 -0.2643 -0.2474
18219SOL    HW254957   1.871   9.441   5.579  0.8081 -1.7720 -1.5090
18220SOL     OW54958   8.769   8.573   2.312 -0.4968 -0.0707 -0.0422
18220SOL    HW154959   8.849   8.512   2.317 -0.8445 -0.4008  1.8011
18220SOL    HW254960   8.705   8.539   2.243 -0.2900 -1.3196  0.3681
18221SOL     OW54961   9.581   3.883   0.464 -0.5262  0.0796  0.2046
18221SOL    HW154962   9.499   3.826   0.458 -0.0346 -0.6339  0.2372
18221SOL    HW254963   9.627   3.866   0.550 -0.3157  0.4525  0.1671
18222SOL     OW54964   4.362   5.442   0.912  0.4624  0.8911 -0.4273
18222SOL    HW154965   4.429   5.478   0.846  0.3636  4.3511  1.2711
18222SOL    HW254966   4.384   5.476   1.003 -1.0916 -1.5219  0.8827
18223SOL     OW54967   2.826   9.903   4.276  0.2439 -0.5815 -0.4868
18223SOL    HW154968   2.788   9.812   4.293 -0.5443 -0.5051 -1.7419
18223SOL    HW254969   2.773   9.948   4.204  0.3635  1.0416  0.4140
18224SOL     OW54970   8.412   1.704   4.929 -0.0387 -0.5619  0.3797
18224SOL    HW154971   8.432   1.713   5.026  1.6087 -2.3364  0.2271
18224SOL    HW254972   8.324   1.660   4.916  0.0261 -0.8910  1.0710
18225SOL     OW54973   0.818   7.236   3.984  0.0999 -0.6001 -0.1878
18225SOL    HW154974   0.791   7.153   4.032 -2.6486  0.7333  0.6560
18225SOL    HW254975   0.778   7.236   3.892 -1.4549  0.5668  0.4492
18226SOL     OW54976   0.746   1.250   0.281  0.0661  0.3392 -0.0747
18226SOL    HW154977   0.775   1.301   0.200 -0.4587 -0.6204 -0.8798
18226SOL    HW254978   0.684   1.176   0.253 -1.5423  1.1070  1.4024
18229SOL     OW54979   8.336   6.774   5.263  0.3419  0.2760 -0.0647
18229SOL    HW154980   8.435   6.783   5.277 -0.0426  1.1833  2.3702
18229SOL    HW254981   8.293   6.864   5.276 -1.1646 -0.7528  2.4107
18230SOL     OW54982   0.301   6.251   3.700 -0.3968 -0.2487  0.0747
18230SOL    HW154983   0.341   6.342   3.687  0.8895 -1.0586 -1.7532
18230SOL    HW254984   0.212   6.248   3.656  0.3039 -0.3824 -1.3634
18231SOL     OW54985   9.474   7.622   4.148  0.2510  0.1608  0.2508
18231SOL    HW154986   9.452   7.631   4.050  1.0707  2.4981  0.2517
18231SOL    HW254987   9.568   7.592   4.158 -0.4205 -1.9577  0.3180
18232SOL     OW54988   8.290   8.198   5.195  0.0581  0.2380  0.5028
18232SOL    HW154989   8.252   8.136   5.127  0.9040 -0.6986  0.8801
18232SOL    HW254990   8.261   8.170   5.286 -0.7831  1.2828  0.5622
18233SOL     OW54991   7.211   9.684   5.355  0.4447 -0.1613  0.4447
18233SOL    HW154992   7.299   9.728   5.373 -0.3678  1.6074  0.1800
18233SOL    HW254993   7.187   9.624   5.432  2.0532 -0.9685  0.3318
18234SOL     OW54994   5.723   3.167   0.159 -0.2677  0.5651  0.2617
18234SOL    HW154995   5.752   3.086   0.108 -0.2340  0.7726 -0.0480
18234SOL    HW254996   5.649   3.142   0.222 -0.3284  0.3191  0.0899
18235SOL     OW54997   7.351   7.976   4.913 -0.2725  0.3104  0.1089
18235SOL    HW154998   7.384   7.886   4.943  0.3864  0.2942 -0.6306
18235SOL    HW254999   7.400   8.003   4.830 -0.7953  1.1500  0.0672
18236SOL     OW55000   7.993   0.248   6.421 -0.0160  0.4271  0.6002
18236SOL    HW155001   8.020   0.282   6.331  1.4817  1.6874  1.4954
18236SOL    HW255002   8.074   0.215   6.469 -0.9366 -1.0623  1.1511
18237SOL     OW55003   5.288   2.848   4.780  0.2539 -0.6987 -0.1421
18237SOL    HW155004   5.386   2.857   4.763 -0.0264  1.0990 -0.9426
18237SOL    HW255005   5.255   2.931   4.826 -1.0258 -0.9683 -0.5576
18238SOL     OW55006   1.107   4.307   3.102  0.7496 -0.1536 -0.2505
18238SOL    HW155007   1.028   4.291   3.042  0.3811 -0.1140  0.2177
18238SOL    HW255008   1.090   4.389   3.157 -0.0187 -1.5966  1.7080
18239SOL     OW55009   2.334   1.837   5.876 -0.1671 -0.4313 -0.3778
18239SOL    HW155010   2.431   1.857   5.890  0.0219 -0.9036 -0.9569
18239SOL    HW255011   2.325   1.764   5.808 -0.9558  0.0843 -0.8351
18241SOL     OW55012   3.512   1.640   5.083  0.0389  0.4150 -0.3768
18241SOL    HW155013   3.592   1.701   5.078  0.0930  0.2918 -1.1707
18241SOL    HW255014   3.481   1.633   5.177  0.0683  1.6328 -0.2727
18242SOL     OW55015   7.788   6.447   5.828  0.4311  0.1056 -0.4289
18242SOL    HW155016   7.863   6.389   5.795  0.9099  0.3504  0.2275
18242SOL    HW255017   7.820   6.540   5.840 -0.1668  0.3623 -0.8265
18243SOL     OW55018   7.548   7.474   4.476  0.9320  0.4004  0.3878
18243SOL    HW155019   7.472   7.532   4.444  1.4712  0.7444 -0.2798
18243SOL    HW255020   7.522   7.378   4.466  0.9198  0.5009 -0.7067
18244SOL     OW55021   0.644   3.644   6.066  0.3131 -0.4782 -0.1851
18244SOL    HW155022   0.643   3.698   5.981 -1.4445  0.2239  0.2512
18244SOL    HW255023   0.697   3.693   6.135  0.7789 -0.4891 -0.5339
18245SOL     OW55024   5.875   4.837   1.109 -0.6076  0.0416  0.1140
18245SOL    HW155025   5.783   4.877   1.106 -0.4892  0.3710  0.6582
18245SOL    HW255026   5.919   4.847   1.020 -1.6058 -1.3376 -0.5415
18246SOL     OW55027   0.547   9.450   1.221  0.0008  0.2212  0.0854
18246SOL    HW155028   0.568   9.493   1.309  0.7431  0.7574 -0.3474
18246SOL    HW255029   0.632   9.428   1.174 -0.3619 -2.0413  0.4452
18247SOL     OW55030   7.772   6.285   2.495  0.9385 -0.0621  0.3878
18247SOL    HW155031   7.800   6.380   2.503 -2.5429  1.0775 -0.2171
18247SOL    HW255032   7.731   6.269   2.405 -1.1991 -1.3228  1.5238
18248SOL     OW55033   9.195   1.873   0.573 -0.3331 -0.2827  0.5586
18248SOL    HW155034   9.168   1.962   0.610  0.5449  0.1262  0.2269
18248SOL    HW255035   9.226   1.814   0.648  0.6120  0.2422  0.5804
18249SOL     OW55036   9.856   6.130   4.695 -0.1331  0.5067  0.2448
18249SOL    HW155037   9.874   6.227   4.711 -0.9669  0.1562  3.8732
18249SOL    HW255038   9.940   6.077   4.708 -0.0717  0.5796  0.1367
18250SOL     OW55039   1.384   2.251   1.928 -0.2209  0.5001  0.1731
18250SOL    HW155040   1.301   2.230   1.980  1.3086  0.1711  2.5586
18250SOL    HW255041   1.428   2.165   1.900  0.9199  0.5903  1.6004
18251SOL     OW55042   1.687   2.695   0.101 -0.3860 -0.0054  0.0139
18251SOL    HW155043   1.682   2.790   0.133  0.3583  0.6812 -1.8909
18251SOL    HW255044   1.606   2.645   0.134 -1.3937  1.5917  0.0043
18252SOL     OW55045   3.958   3.224   0.746  0.2645 -0.3638 -0.0560
18252SOL    HW155046   3.916   3.238   0.656 -0.7217 -2.5183  0.0611
18252SOL    HW255047   3.887   3.202   0.813  1.0141  1.0684  1.2491
18253SOL     OW55048   6.788   2.922   0.279 -0.2465  0.0219 -0.2949
18253SOL    HW155049   6.825   2.830   0.297  0.2866  0.1392 -0.7827
18253SOL    HW255050   6.862   2.982   0.247 -0.9076  0.1919 -1.5274
18255SOL     OW55051   1.463   8.677   3.823  0.3435 -0.2979 -0.5269
18255SOL    HW155052   1.560   8.685   3.797  0.3206  0.8260 -0.2668
18255SOL    HW255053   1.454   8.606   3.893  1.3465  1.2280  1.2119
18257SOL     OW55054   0.972   6.232   5.435 -0.1388 -0.3954 -0.1241
18257SOL    HW155055   0.905   6.167   5.400 -0.9921  0.8004 -0.7720
18257SOL    HW255056   1.001   6.293   5.361  0.8236 -0.1802  0.4192
18258SOL     OW55057   9.051   7.361   5.730 -0.4021 -0.8050 -0.1531
18258SOL    HW155058   9.106   7.392   5.808  0.3251 -1.7874 -0.2553
18258SOL    HW255059   8.995   7.436   5.696  1.6271  0.5334 -0.6727
18260SOL     OW55060   7.650   4.734   1.727 -0.3388 -0.3877  0.1612
18260SOL    HW155061   7.616   4.680   1.651 -2.3130  0.5856  0.3142
18260SOL    HW255062   7.745   4.709   1.747  0.6288  0.2503 -3.4150
18261SOL     OW55063   5.575   9.277   4.611  0.7072  0.3587  0.3544
18261SOL    HW155064   5.653   9.268   4.673  0.0504 -0.4479  1.0700
18261SOL    HW255065   5.541   9.187   4.586  1.7367  0.6363 -2.1979
18263SOL     OW55066   2.690   9.114   2.760  0.3049 -0.3916 -0.2326
18263SOL    HW155067   2.701   9.068   2.849  1.8224 -0.6483 -0.5444
18263SOL    HW255068   2.627   9.191   2.771  0.8795 -0.1018  1.1855
18264SOL     OW55069   0.848   3.450   4.892 -0.0709 -0.4337 -0.0455
18264SOL    HW155070   0.861   3.381   4.963 -0.9160 -1.2749 -0.6903
18264SOL    HW255071   0.891   3.418   4.807 -1.0049 -0.4526 -0.5148
18265SOL     OW55072   0.954   0.701   5.118  0.8581 -0.1831 -0.5002
18265SOL    HW155073   0.864   0.696   5.161  0.7480  1.0017 -0.5736
18265SOL    HW255074   0.996   0.610   5.117 -0.3908 -0.7668 -0.5811
18266SOL     OW55075   0.271   6.206   5.475 -0.3881  0.2793 -0.8044
18266SOL    HW155076   0.227   6.279   5.528 -2.2209  0.5536 -2.6282
18266SOL    HW255077   0.368   6.202   5.498 -0.5780  2.2578  0.4618
18269SOL     OW55078   9.762   4.107   1.160 -0.4009 -0.2556  0.8579
18269SOL    HW155079   9.861   4.105   1.167 -0.4505 -1.5477  1.4278
18269SOL    HW255080   9.727   4.013   1.158 -1.4749  0.1445 -1.2965
18270SOL     OW55081   6.221   9.115   4.653 -0.2125  0.3697 -0.2690
18270SOL    HW155082   6.146   9.167   4.695 -0.4786  0.2424 -0.5818
18270SOL    HW255083   6.203   9.017   4.663 -1.2889  0.3233 -2.4517
18271SOL     OW55084   0.733   0.939   2.238  0.2631  0.4294 -0.4374
18271SOL    HW155085   0.706   0.898   2.325 -1.2410  0.3411 -0.9324
18271SOL    HW255086   0.677   0.901   2.164  1.1112  0.9459 -1.3643
18272SOL     OW55087   3.247   0.829   5.435 -0.3400  0.0832 -0.1596
18272SOL    HW155088   3.281   0.803   5.526 -0.0401  1.0726  0.0152
18272SOL    HW255089   3.179   0.762   5.405 -0.6778 -0.0725  0.9329
18273SOL     OW55090   0.200   5.401   4.199  0.8324 -0.4310 -0.0973
18273SOL    HW155091   0.144   5.480   4.175 -0.1121 -1.3771 -1.0784
18273SOL    HW255092   0.233   5.356   4.116  3.8346  0.6276  0.4520
18274SOL     OW55093   2.429   2.764   5.746  0.0558  0.0842 -0.7132
18274SOL    HW155094   2.424   2.679   5.799 -0.3242  1.4738  1.5619
18274SOL    HW255095   2.507   2.761   5.684  2.4896 -0.3524  2.2533
18276SOL     OW55096   4.514   9.511   3.879  0.4228  0.0913  0.1719
18276SOL    HW155097   4.519   9.421   3.837  3.4126  0.5046 -0.5085
18276SOL    HW255098   4.474   9.576   3.814  0.0400 -0.3672 -0.0503
18277SOL     OW55099   4.446   3.888   4.348 -0.1138  0.2875  0.8130
18277SOL    HW155100   4.389   3.807   4.363  0.1562  0.2421  1.6235
18277SOL    HW255101   4.441   3.915   4.251  1.1546 -1.7282  0.1538
18278SOL     OW55102   4.600   5.358   2.736  0.5072 -0.1031  0.4673
18278SOL    HW155103   4.599   5.458   2.744 -0.5192 -0.0066 -0.7289
18278SOL    HW255104   4.683   5.322   2.779 -0.2921  1.0654  3.1137
18279SOL     OW55105   7.786   0.837   1.014  0.7851  0.3689 -0.2386
18279SOL    HW155106   7.845   0.853   1.093 -0.0122  0.4892  0.3400
18279SOL    HW255107   7.829   0.875   0.932  1.0091  1.4139  0.3587
18280SOL     OW55108   9.576   3.575   4.329  0.2351  0.0928  0.0335
18280SOL    HW155109   9.561   3.586   4.231  0.6432 -0.3356 -0.0800
18280SOL    HW255110   9.570   3.478   4.353  1.3840  0.0586  0.2239
18281SOL     OW55111   7.540   4.083   2.031 -0.3469 -0.5314 -0.0759
18281SOL    HW155112   7.624   4.031   2.043  0.5881  0.6699 -1.3420
18281SOL    HW255113   7.554   4.178   2.057 -0.9812 -0.0686 -1.3450
18282SOL     OW55114   0.026   3.679   5.344 -0.1826 -0.1551  0.1810
18282SOL    HW155115   0.009   3.689   5.442 -0.0656 -0.0775  0.1939
18282SOL    HW255116   0.078   3.758   5.311 -2.5236  1.1640 -0.4688
18284SOL     OW55117   2.364   1.816   1.961 -0.4628  0.2878  0.4521
18284SOL    HW155118   2.354   1.879   2.038  0.1526  3.5939 -2.0096
18284SOL    HW255119   2.274   1.798   1.921 -0.5977 -0.0062  0.8943
18285SOL     OW55120   5.205   5.625   1.375  0.2202  0.1710  0.1745
18285SOL    HW155121   5.113   5.657   1.352 -0.2169 -0.0320  1.5676
18285SOL    HW255122   5.265   5.703   1.392  0.2710  0.3000 -0.5726
18286SOL     OW55123   1.055   8.567   1.683 -0.6198  0.0171  0.6660
18286SOL    HW155124   1.037   8.513   1.601  0.0479  0.4783  0.2070
18286SOL    HW255125   1.138   8.622   1.669  0.6142 -1.3748  2.3999
18287SOL     OW55126   5.394   8.370   6.347  0.0693  0.2679  0.2569
18287SOL    HW155127   5.395   8.364   6.247  1.1525  1.1946  0.2019
18287SOL    HW255128   5.488   8.375   6.381 -0.1666 -2.7362  1.5179
18288SOL     OW55129   7.818   6.836   4.301  0.7873 -0.1533 -0.5069
18288SOL    HW155130   7.866   6.917   4.268  1.5992  0.4772  2.1066
18288SOL    HW255131   7.839   6.822   4.398 -1.6195 -1.8462 -0.1878
18291SOL     OW55132   8.717   6.669   1.363  0.6703 -0.0093  0.3589
18291SOL    HW155133   8.662   6.750   1.385  0.7796  0.2799 -0.3950
18291SOL    HW255134   8.723   6.610   1.443  1.5699  1.2958  1.2646
18293SOL     OW55135   5.827   9.735   1.656  0.4292 -0.3023 -0.2908
18293SOL    HW155136   5.844   9.833   1.665  0.1429  0.1548 -3.9604
18293SOL    HW255137   5.762   9.719   1.582  0.3603 -3.2661  0.3549
18294SOL     OW55138   0.738   8.894   0.779 -0.3037 -0.3739  0.0435
18294SOL    HW155139   0.789   8.816   0.813  1.1168  1.0006  1.1572
18294SOL    HW255140   0.678   8.929   0.851 -2.8477 -1.9429 -1.2317
18295SOL     OW55141   4.663   2.019   6.439  0.4558 -0.0927 -0.5104
18295SOL    HW155142   4.611   1.986   6.360  1.1217  0.6987 -1.2987
18295SOL    HW255143   4.759   1.994   6.428 -0.1505 -3.9754  2.2676
18296SOL     OW55144   0.362   0.009   3.953 -0.0404 -1.0881  0.1749
18296SOL    HW155145   0.356   0.045   4.046 -1.1204 -0.1322 -0.2492
18296SOL    HW255146   0.457  -0.005   3.928  0.2844 -0.6736  1.1630
18297SOL     OW55147   1.642   8.933   6.380 -0.0577  0.0481  0.0599
18297SOL    HW155148   1.551   8.956   6.413 -0.3321 -1.4621  0.3500
18297SOL    HW255149   1.682   9.013   6.335 -0.8554  1.2148  1.3997
18298SOL     OW55150   0.700   0.379   3.619 -0.4935 -0.0192 -0.8120
18298SOL    HW155151   0.615   0.407   3.663 -0.3336  0.7154 -0.9683
18298SOL    HW255152   0.770   0.449   3.634  0.0704 -0.6017 -0.7207
18301SOL     OW55153   7.670   2.843   1.380 -0.1811 -0.3177  0.1039
18301SOL    HW155154   7.727   2.816   1.458  1.3589 -0.6963 -1.1265
18301SOL    HW255155   7.616   2.924   1.405  2.2371  1.1616  0.7290
18302SOL     OW55156   1.069   9.696   0.114 -0.1213 -0.2489 -0.6903
18302SOL    HW155157   1.144   9.660   0.058 -0.5556  1.2008 -2.2295
18302SOL    HW255158   1.098   9.699   0.210  1.5260 -0.4305 -1.1630
18303SOL     OW55159   4.560   1.177   1.039 -0.0135  0.5655 -0.0781
18303SOL    HW155160   4.657   1.194   1.052 -0.0012  0.2214  0.2884
18303SOL    HW255161   4.540   1.171   0.941 -0.0937  3.0957 -0.2454
18306SOL     OW55162   2.895   8.534   4.948 -0.0282 -0.0206  0.1800
18306SOL    HW155163   2.806   8.532   4.902  1.4858 -0.7218 -2.8847
18306SOL    HW255164   2.913   8.626   4.983 -0.3639  1.1531 -2.5627
18307SOL     OW55165   9.254   6.281   3.707 -0.2520 -0.1461 -0.2720
18307SOL    HW155166   9.268   6.345   3.782 -0.2944  0.9528 -1.1859
18307SOL    HW255167   9.334   6.282   3.647 -0.8936  0.1837 -1.1258
18308SOL     OW55168   4.183   2.909   3.807  0.0996  0.1591 -0.1179
18308SOL    HW155169   4.245   2.980   3.840  0.6297 -0.6010  0.5506
18308SOL    HW255170   4.089   2.941   3.813  0.4274  1.3580 -1.2377
18309SOL     OW55171   9.339   7.640   1.276 -0.1308 -0.2595  0.2791
18309SOL    HW155172   9.273   7.690   1.332 -0.1815  0.2990 -0.2779
18309SOL    HW255173   9.328   7.665   1.180  0.1714 -0.9750  0.0529
18310SOL     OW55174   0.046   7.260   0.476 -0.0268  0.0053  0.3960
18310SOL    HW155175  -0.001   7.324   0.537  0.9353  0.0355  1.1224
18310SOL    HW255176   0.134   7.235   0.516  0.6749  0.1196 -1.0456
18311SOL     OW55177   7.453   0.886   0.013  0.0647 -0.0106  0.3237
18311SOL    HW155178   7.508   0.860   0.092 -0.4361  1.2307  1.0932
18311SOL    HW255179   7.385   0.955   0.040  0.1371  0.7172 -1.2586
18312SOL     OW55180   9.100   2.214   3.925 -0.9171  0.5012 -0.1695
18312SOL    HW155181   9.081   2.132   3.871 -1.4362 -0.9997  2.2154
18312SOL    HW255182   9.199   2.224   3.938 -0.8643  0.1760 -0.3231
18313SOL     OW55183   5.942   1.112   3.663  0.2248 -0.4281  0.8512
18313SOL    HW155184   5.946   1.089   3.761 -0.7666 -0.9591  0.7785
18313SOL    HW255185   5.949   1.028   3.609  0.4646 -0.1665  0.4731
18314SOL     OW55186   7.052   2.082   2.697 -0.0302  0.2671  0.1261
18314SOL    HW155187   7.110   2.051   2.773  0.0117  0.2411  0.0831
18314SOL    HW255188   6.971   2.126   2.735  1.0807  2.2997  0.1760
18315SOL     OW55189   4.136   1.191   4.540  0.4968  0.2017  0.6797
18315SOL    HW155190   4.159   1.179   4.637 -0.7062 -1.7885  0.7492
18315SOL    HW255191   4.207   1.149   4.484  0.0705 -0.6727  0.7733
18317SOL     OW55192   7.158   6.422   5.166  0.3415 -0.0005 -0.1994
18317SOL    HW155193   7.254   6.427   5.194  0.6520 -0.2742 -1.1842
18317SOL    HW255194   7.137   6.330   5.134 -0.2955  0.0219  0.1447
18321SOL     OW55195   8.582   1.079   3.063 -0.3631  0.0577 -0.0307
18321SOL    HW155196   8.526   1.092   2.981 -0.9459  2.4801  0.7241
18321SOL    HW255197   8.552   1.142   3.135  2.0456  0.0097  1.0636
18322SOL     OW55198   6.053   2.373   3.758  0.4181  0.1858  0.1017
18322SOL    HW155199   5.976   2.349   3.699  0.2018  1.0604  0.0180
18322SOL    HW255200   6.018   2.416   3.841  0.6302 -2.2187  1.4939
18324SOL     OW55201   2.568   5.793   6.180 -0.3854 -0.0675  0.3924
18324SOL    HW155202   2.501   5.867   6.172 -0.2550  0.0418  0.2955
18324SOL    HW255203   2.643   5.823   6.240 -0.4774 -0.2281  0.5857
18325SOL     OW55204   5.470   8.642   4.567 -0.2480  0.1288  0.0929
18325SOL    HW155205   5.484   8.637   4.666 -0.0449  0.3700  0.0782
18325SOL    HW255206   5.375   8.663   4.547 -0.7872 -2.1897  0.1893
18326SOL     OW55207   7.585   5.108   0.230  0.0897  0.1747 -0.2312
18326SOL    HW155208   7.495   5.152   0.235  0.4680  0.9642 -0.3768
18326SOL    HW255209   7.573   5.009   0.226 -0.7031  0.1665  1.8100
18329SOL     OW55210   0.640   6.815   4.634  0.4551 -0.2758  0.8884
18329SOL    HW155211   0.693   6.759   4.572  0.1931 -1.5343  1.7849
18329SOL    HW255212   0.689   6.901   4.652  1.4725 -0.7758  0.5352
18330SOL     OW55213   8.087   1.196   1.571 -0.1121  0.5942 -0.2676
18330SOL    HW155214   8.069   1.231   1.479  1.1912  1.6961 -0.1258
18330SOL    HW255215   8.044   1.107   1.582  0.1403  0.2171 -2.1198
18331SOL     OW55216   9.364   8.591   2.936  0.6516  0.7587  0.3487
18331SOL    HW155217   9.300   8.625   2.866  2.2079  0.1234 -1.4233
18331SOL    HW255218   9.420   8.518   2.896  0.4909 -0.7138  2.7470
18332SOL     OW55219   8.987   4.248   0.356 -0.0972  0.4283 -0.4345
18332SOL    HW155220   9.024   4.324   0.410  0.4156  1.2315 -1.9008
18332SOL    HW255221   9.058   4.211   0.297 -0.4305 -1.0128  0.0437
18335SOL     OW55222   5.627   4.933   1.060  0.2215 -0.7743 -0.2074
18335SOL    HW155223   5.612   5.031   1.066 -0.2410 -0.9194  1.1326
18335SOL    HW255224   5.574   4.896   0.983 -1.2461 -0.2958  0.5504
18336SOL     OW55225   0.782   2.497   1.208 -0.1133  0.7680  0.0577
18336SOL    HW155226   0.684   2.481   1.207  0.0663 -0.4825  0.5283
18336SOL    HW255227   0.810   2.548   1.127 -0.5516 -2.6213 -2.2959
18337SOL     OW55228   4.636   0.180   3.128  0.4471  0.0921  0.5348
18337SOL    HW155229   4.571   0.200   3.055  1.2492  1.6908  0.2344
18337SOL    HW255230   4.593   0.197   3.217  0.4571  1.2130  0.3361
18338SOL     OW55231   8.726   3.944   5.320  0.1267 -0.5582  0.1050
18338SOL    HW155232   8.684   3.888   5.249  2.2378 -2.8277  0.5621
18338SOL    HW255233   8.750   4.033   5.282 -0.6775 -0.9853 -1.4561
18339SOL     OW55234   9.378   1.496   1.030  0.7182 -0.5698  0.3037
18339SOL    HW155235   9.445   1.514   0.958  0.3432 -0.1675  0.0545
18339SOL    HW255236   9.423   1.451   1.107  1.2817 -0.2642  0.1514
18340SOL     OW55237   4.431   0.966   1.176 -0.1772 -0.2209  0.0221
18340SOL    HW155238   4.470   1.046   1.130  1.6183 -1.7775 -1.1898
18340SOL    HW255239   4.502   0.920   1.230 -0.9761 -1.5319 -0.0199
18341SOL     OW55240   1.861   6.467   2.546  0.0116  0.2653 -0.6186
18341SOL    HW155241   1.879   6.393   2.610  1.1755  0.3122 -0.8855
18341SOL    HW255242   1.774   6.511   2.569 -1.1506 -1.7602 -1.0009
18342SOL     OW55243   4.319   8.427   1.209  0.1323  0.4791  0.0171
18342SOL    HW155244   4.408   8.446   1.250  0.5940  1.8019 -1.5344
18342SOL    HW255245   4.260   8.507   1.217 -1.4164 -0.8343  2.2215
18343SOL     OW55246   6.109   7.758   3.596 -0.2394 -0.2481 -0.1015
18343SOL    HW155247   6.133   7.717   3.508 -0.2842 -0.6977  0.0916
18343SOL    HW255248   6.084   7.853   3.583  1.2097  0.1126 -0.3720
18344SOL     OW55249   0.109   9.986   2.048 -0.4404 -0.2529 -0.3834
18344SOL    HW155250   0.176  10.027   2.109 -1.7689  1.5425 -0.0922
18344SOL    HW255251   0.045   9.930   2.101 -1.1370  0.6914 -0.2210
18345SOL     OW55252   2.152   9.612   5.049 -0.3841  0.3563 -0.0529
18345SOL    HW155253   2.166   9.645   4.955 -0.3417 -0.6240 -0.4061
18345SOL    HW255254   2.093   9.530   5.046 -1.5659  1.1608  0.9083
18346SOL     OW55255   1.425   9.394   4.134  0.1927  0.2495 -0.0642
18346SOL    HW155256   1.362   9.472   4.129  2.3700  2.0240 -0.2218
18346SOL    HW255257   1.422   9.355   4.226 -1.3928  0.0579 -0.1699
18347SOL     OW55258   2.552   6.256   0.145  0.0315 -0.3746 -0.0888
18347SOL    HW155259   2.543   6.183   0.212 -1.8791  0.5603  0.6879
18347SOL    HW255260   2.590   6.338   0.189 -0.0684 -0.1420 -0.4327
18348SOL     OW55261   7.190   0.093   5.003 -0.7361  0.1363 -0.0260
18348SOL    HW155262   7.125   0.017   5.001  1.3193 -1.6420 -0.7360
18348SOL    HW255263   7.230   0.107   4.912  1.5940 -0.3390  0.8814
18349SOL     OW55264   3.193   8.060   3.075 -0.1654  0.0227  0.3771
18349SOL    HW155265   3.225   8.056   3.170 -1.2546  0.6503  0.7767
18349SOL    HW255266   3.175   7.968   3.042 -0.3674 -0.1546  0.9733
18350SOL     OW55267   9.931   8.465   3.623  0.3306  0.7485  0.5099
18350SOL    HW155268  10.029   8.452   3.608  0.5762  1.0428  1.7911
18350SOL    HW255269   9.913   8.559   3.650 -0.0561  0.2425  2.1019
18351SOL     OW55270   7.975   8.502   2.255 -0.1419 -0.1542 -0.2125
18351SOL    HW155271   7.911   8.485   2.329  1.5096 -1.8231  0.8936
18351SOL    HW255272   8.049   8.561   2.288  0.7698 -1.1659 -0.4138
18352SOL     OW55273   9.871   0.887   6.208  0.0145  0.2136  0.4022
18352SOL    HW155274   9.880   0.893   6.108 -0.1259 -0.3979  0.3512
18352SOL    HW255275   9.912   0.802   6.240  0.5051  0.6470  0.9280
18355SOL     OW55276   0.079   1.895   1.328 -0.8149  0.0572  0.3444
18355SOL    HW155277   0.006   1.829   1.314 -1.5875  1.3110 -1.8529
18355SOL    HW255278   0.071   1.968   1.260 -1.2593  3.5656  3.9808
18356SOL     OW55279   3.708   0.347   3.290  0.1787 -0.0071 -0.2825
18356SOL    HW155280   3.679   0.334   3.195 -2.3145 -0.1588  0.4713
18356SOL    HW255281   3.718   0.444   3.309  0.5159  0.0302 -0.6482
18357SOL     OW55282   1.767   8.496   4.013 -0.9887  0.1740 -0.1747
18357SOL    HW155283   1.762   8.530   3.919  0.9801 -1.1179 -0.7764
18357SOL    HW255284   1.744   8.399   4.015  0.5393 -0.1894  0.4284
18361SOL     OW55285   9.471   0.196   1.078  0.3725 -0.0927 -0.2123
18361SOL    HW155286   9.566   0.185   1.047  0.9595  2.3454  0.5547
18361SOL    HW255287   9.469   0.200   1.178 -0.4438  0.4348 -0.2440
18362SOL     OW55288   2.829   1.911   4.262  0.0880  0.2517  0.6708
18362SOL    HW155289   2.836   1.888   4.165 -1.9291 -2.0275  1.0419
18362SOL    HW255290   2.743   1.960   4.279  0.8324  1.4078  1.1833
18363SOL     OW55291   3.246   2.698   5.811 -0.4308 -0.2717  0.3487
18363SOL    HW155292   3.246   2.663   5.905 -0.8224 -1.6291 -0.1419
18363SOL    HW255293   3.189   2.639   5.753 -0.4627  0.7428 -0.6775
18366SOL     OW55294   4.629   7.015   0.579 -0.0880  0.0405 -0.0629
18366SOL    HW155295   4.544   7.062   0.602  1.1761  0.4699  4.1592
18366SOL    HW255296   4.705   7.080   0.581  0.7078 -0.8337 -1.2422
18367SOL     OW55297   4.703   8.205   3.738 -0.1707 -0.2999 -0.3441
18367SOL    HW155298   4.763   8.126   3.722  0.0422 -0.2936  0.3948
18367SOL    HW255299   4.713   8.270   3.663  1.6033  0.2288  0.2997
18368SOL     OW55300   2.734   8.069   1.198  0.4145  0.4138  0.3855
18368SOL    HW155301   2.641   8.074   1.163 -0.1536 -1.5061  1.5888
18368SOL    HW255302   2.733   8.072   1.298  1.6037 -0.2288  0.4289
18369SOL     OW55303   9.920   9.423   4.280 -0.8911  0.3296  0.3659
18369SOL    HW155304   9.986   9.481   4.232  0.3193 -1.5565 -0.3177
18369SOL    HW255305   9.905   9.339   4.228 -3.8775  0.7073  0.5178
18371SOL     OW55306   3.248   8.183   1.056 -0.8803  0.1972  0.2689
18371SOL    HW155307   3.159   8.139   1.071 -1.3633  0.4613 -1.6827
18371SOL    HW255308   3.317   8.141   1.115 -2.4813  0.6352  2.5310
18373SOL     OW55309   3.841   0.944   0.697  0.1045 -0.6948  0.0066
18373SOL    HW155310   3.938   0.932   0.718 -0.2113  0.7776  2.4194
18373SOL    HW255311   3.831   0.971   0.601  2.3277  2.4428  0.5942
18375SOL     OW55312   9.101   0.923   5.917  0.1012 -0.7696  0.4525
18375SOL    HW155313   9.051   0.942   6.002  0.1745  0.6279  0.1940
18375SOL    HW255314   9.179   0.864   5.937 -0.4969 -1.3190  1.1853
18377SOL     OW55315   3.787   1.507   3.115  0.1654 -0.1189 -0.2579
18377SOL    HW155316   3.725   1.456   3.056 -0.0557  0.7124 -0.7568
18377SOL    HW255317   3.735   1.551   3.188  0.2628  0.0018 -0.2616
18380SOL     OW55318   4.954   0.862   5.292  0.5837 -0.3463  0.5766
18380SOL    HW155319   4.940   0.769   5.258 -0.1499  0.2601 -0.8388
18380SOL    HW255320   4.866   0.909   5.299  0.8781  0.0127  1.9731
18381SOL     OW55321   4.708   4.499   5.814 -0.3229 -0.1127 -0.0078
18381SOL    HW155322   4.801   4.469   5.830  0.0513  1.3572  0.7075
18381SOL    HW255323   4.656   4.427   5.768  1.5781 -0.3696 -1.7779
18383SOL     OW55324   8.961   5.552   5.678  0.2428  0.0891 -0.0522
18383SOL    HW155325   9.044   5.504   5.650  0.1089 -0.2338  0.0930
18383SOL    HW255326   8.908   5.578   5.597  0.0459 -0.4958 -0.1171
18384SOL     OW55327   5.694   8.873   4.268 -0.0816  0.4668 -0.2272
18384SOL    HW155328   5.647   8.897   4.352 -0.8478  1.3660 -0.9028
18384SOL    HW255329   5.758   8.798   4.285  1.8326  2.4815  1.7423
18385SOL     OW55330   0.552   5.304   6.403  0.0928 -0.6590 -0.6318
18385SOL    HW155331   0.565   5.225   6.343  0.8455 -1.0954  0.0976
18385SOL    HW255332   0.505   5.275   6.486 -0.7401 -0.1002 -0.9070
18386SOL     OW55333   8.551   0.228   2.136 -0.5537  0.5737  0.1212
18386SOL    HW155334   8.600   0.316   2.141 -1.5799  1.1350  0.5927
18386SOL    HW255335   8.459   0.244   2.100 -0.5663 -0.3957 -0.2816
18387SOL     OW55336   0.990   3.615   2.975 -0.8241 -0.1094 -0.3931
18387SOL    HW155337   1.003   3.714   2.977 -1.1233 -0.0528 -1.0133
18387SOL    HW255338   0.915   3.590   3.036 -0.1057 -0.0623  0.5168
18389SOL     OW55339   9.306   0.820   4.516  0.4615  0.5072  0.6419
18389SOL    HW155340   9.397   0.818   4.557  0.5165 -1.3980  0.4502
18389SOL    HW255341   9.302   0.755   4.440 -1.7200 -1.1059  2.0801
18390SOL     OW55342   3.488   8.301   4.551  0.6556 -0.1696  0.0562
18390SOL    HW155343   3.557   8.275   4.619 -0.5360  1.3630  1.8981
18390SOL    HW255344   3.427   8.224   4.534  1.0428 -0.6049  0.6267
18391SOL     OW55345   1.116   9.879   0.343 -0.0529  0.1188  0.0767
18391SOL    HW155346   1.052   9.896   0.418 -0.6608  0.7175 -0.5739
18391SOL    HW255347   1.091   9.935   0.264  0.3892 -0.7521 -0.6911
18393SOL     OW55348   2.760   3.840   0.979  0.6390  0.1464  0.1787
18393SOL    HW155349   2.685   3.905   0.992  0.6048  0.3981 -1.1805
18393SOL    HW255350   2.744   3.758   1.033  0.5132  1.1330  1.6579
18394SOL     OW55351   9.940   5.495   3.122  0.1660  0.0222 -0.2565
18394SOL    HW155352   9.940   5.407   3.169  3.0884 -0.1266 -0.4627
18394SOL    HW255353  10.001   5.491   3.043  0.9013  2.4255  0.1295
18395SOL     OW55354   4.277   1.918   4.643  0.4275  0.5850  0.4133
18395SOL    HW155355   4.250   1.978   4.568  1.5814  0.7859  0.1527
18395SOL    HW255356   4.350   1.960   4.696  1.2577 -0.5899  0.2180
18396SOL     OW55357   0.666   3.821   2.761  0.9599  0.1427  0.1647
18396SOL    HW155358   0.667   3.771   2.675 -0.2055 -0.7914  0.6824
18396SOL    HW255359   0.671   3.757   2.838  2.2117  0.9735  0.8048
18397SOL     OW55360   2.879   5.077   2.936 -0.1093  0.1869  0.4918
18397SOL    HW155361   2.861   5.002   3.001  1.5934  0.2025  1.0101
18397SOL    HW255362   2.793   5.124   2.915 -1.0445 -1.2781  0.9441
18399SOL     OW55363   3.321   1.517   3.390 -0.5861  0.4055  0.2765
18399SOL    HW155364   3.246   1.531   3.325 -1.2767  0.6647  1.1142
18399SOL    HW255365   3.286   1.467   3.470  0.3323 -0.2246  0.2829
18401SOL     OW55366   3.615   1.242   5.970  0.6356 -0.2033 -0.0315
18401SOL    HW155367   3.592   1.159   5.920  1.7057  0.7168 -2.1135
18401SOL    HW255368   3.704   1.231   6.015 -0.6677 -1.3014  2.3452
18402SOL     OW55369   5.693   0.191   2.966  0.0462 -0.0642  0.1367
18402SOL    HW155370   5.666   0.179   3.062 -1.0045 -0.7966 -0.2432
18402SOL    HW255371   5.612   0.209   2.911  0.6580  0.4167 -0.6032
18404SOL     OW55372   2.934   9.213   2.870  0.0920  0.0511 -0.2360
18404SOL    HW155373   2.870   9.255   2.934  0.4110 -0.7933  0.6546
18404SOL    HW255374   2.900   9.122   2.844 -0.1312  0.4624 -1.4208
18405SOL     OW55375   3.308   2.101   2.002 -0.5372 -0.3823 -0.3150
18405SOL    HW155376   3.215   2.137   2.017 -1.0901 -2.2376  0.7897
18405SOL    HW255377   3.303   2.016   1.949  0.6447  0.1457 -1.3074
18406SOL     OW55378   3.781   1.263   2.950 -0.0159  0.3823  0.4720
18406SOL    HW155379   3.707   1.221   3.002 -0.4012  1.1624  0.5601
18406SOL    HW255380   3.771   1.242   2.853  1.1683 -1.7766  0.7902
18407SOL     OW55381   5.449   1.792   5.048 -0.4767  0.2642  0.1639
18407SOL    HW155382   5.477   1.763   4.957 -0.4126  0.8672 -0.0132
18407SOL    HW255383   5.368   1.740   5.077  0.4979 -1.1135  0.4582
18408SOL     OW55384   2.744   0.375   0.079 -0.1948  0.2328 -0.1155
18408SOL    HW155385   2.701   0.384  -0.010  0.3081 -1.2735 -0.5246
18408SOL    HW255386   2.831   0.326   0.070  0.0414  0.3865  1.1452
18409SOL     OW55387   8.743   3.001   2.983 -0.3216  0.1224  0.1272
18409SOL    HW155388   8.713   3.082   2.931  1.2307  0.4986 -0.1904
18409SOL    HW255389   8.680   2.987   3.060 -0.0367  2.2450  0.7928
18412SOL     OW55390   5.853   1.372   3.653  0.0004  0.0706 -0.0730
18412SOL    HW155391   5.935   1.430   3.653  0.3014 -0.3550  0.2264
18412SOL    HW255392   5.880   1.276   3.648 -0.4896 -0.0610 -0.1838
18413SOL     OW55393   8.244   3.894   4.625 -0.0965  0.4359 -0.4257
18413SOL    HW155394   8.205   3.936   4.706  0.5471  0.4867 -0.1375
18413SOL    HW255395   8.337   3.928   4.611 -0.1269  0.2660 -1.0613
18414SOL     OW55396   9.282   6.535   0.011 -0.0983 -0.1388  0.0616
18414SOL    HW155397   9.368   6.485   0.015  0.1402  0.1957 -0.6590
18414SOL    HW255398   9.273   6.593   0.092  0.0091 -0.7162  0.4918
18416SOL     OW55399   9.179   5.180   6.051 -0.5018 -0.2073  0.7437
18416SOL    HW155400   9.245   5.247   6.016  0.2589 -1.1463  0.3586
18416SOL    HW255401   9.130   5.219   6.129 -0.2785  0.9072  0.3300
18417SOL     OW55402   8.080   8.638   2.974  0.4756 -0.9890 -0.3909
18417SOL    HW155403   8.041   8.722   2.935  0.6459 -0.0032  1.5015
18417SOL    HW255404   8.174   8.627   2.943  1.6924  1.5017  2.1641
18418SOL     OW55405   3.963   5.762   2.751  0.4485  0.3786 -0.2010
18418SOL    HW155406   3.895   5.699   2.713 -1.0168  1.0345  1.2724
18418SOL    HW255407   3.968   5.750   2.850  0.6457  2.1013  0.0076
18419SOL     OW55408   6.365   9.613   2.118 -0.5487  0.1178  0.5673
18419SOL    HW155409   6.286   9.560   2.150  0.6076  0.2325  3.8616
18419SOL    HW255410   6.369   9.700   2.167  2.2974 -0.4238  1.4310
18420SOL     OW55411   9.208   6.687   4.363  0.0178 -0.4525 -0.1679
18420SOL    HW155412   9.125   6.743   4.353 -0.6958 -1.5868 -0.6919
18420SOL    HW255413   9.257   6.714   4.446  0.5449  2.0709 -1.2367
18421SOL     OW55414   2.682   3.297   3.819 -0.6202 -0.2319 -0.2176
18421SOL    HW155415   2.596   3.342   3.797 -0.9089 -0.6571  0.0285
18421SOL    HW255416   2.664   3.206   3.857 -0.1267  0.2004  1.1220
18422SOL     OW55417   8.119   0.415   1.221  0.4432 -0.0797 -0.0236
18422SOL    HW155418   8.164   0.439   1.135 -0.2550  0.7283 -0.1711
18422SOL    HW255419   8.059   0.336   1.206  0.5144 -0.0996 -0.2127
18423SOL     OW55420   8.502   6.177   4.226 -0.1196 -0.1064  0.5130
18423SOL    HW155421   8.551   6.095   4.256  0.2014  0.3801  1.3288
18423SOL    HW255422   8.409   6.153   4.200  0.4336 -0.9841 -0.7030
18426SOL     OW55423   1.454   6.080   4.918 -0.2054  0.2100  0.3137
18426SOL    HW155424   1.548   6.049   4.932 -0.7192 -1.1145  0.9744
18426SOL    HW255425   1.449   6.139   4.838  1.0501 -0.3490 -0.1791
18428SOL     OW55426   1.569   9.472   2.191  0.2099  0.4008  0.0091
18428SOL    HW155427   1.651   9.509   2.233  0.4210  0.2654 -0.2813
18428SOL    HW255428   1.561   9.375   2.214  1.0283 -0.0032 -1.3252
18429SOL     OW55429   0.997   6.492   2.603  0.1559 -0.0109  0.4174
18429SOL    HW155430   0.928   6.422   2.580  0.1478 -0.5447  2.0089
18429SOL    HW255431   1.070   6.450   2.657  1.1459  0.8149 -0.2615
18430SOL     OW55432   6.774   1.598   0.484 -0.1457 -0.0779 -0.6581
18430SOL    HW155433   6.689   1.647   0.502  0.6965  1.1265  0.1039
18430SOL    HW255434   6.833   1.602   0.564  0.2078 -1.8102 -0.8115
18431SOL     OW55435   4.517   9.660   1.922  0.3933  0.2151 -0.0890
18431SOL    HW155436   4.553   9.593   1.987  2.1869  0.4482 -0.8177
18431SOL    HW255437   4.475   9.613   1.845  1.1701 -0.0711 -0.3397
18432SOL     OW55438   3.300   1.036   1.890 -0.1645  0.3342  0.1074
18432SOL    HW155439   3.279   1.111   1.827 -0.9802 -0.3539 -0.4652
18432SOL    HW255440   3.241   0.958   1.868  1.5993 -0.9434 -0.1826
18435SOL     OW55441   1.131   9.662   1.928 -0.2730  0.2802  0.0084
18435SOL    HW155442   1.149   9.737   1.865  1.3319 -0.6662 -0.6929
18435SOL    HW255443   1.211   9.648   1.987 -1.3438  0.4421  1.5134
18436SOL     OW55444   6.153   4.767   2.123 -0.3890  0.4970  0.2558
18436SOL    HW155445   6.180   4.862   2.109 -0.4365  0.1833 -2.1596
18436SOL    HW255446   6.231   4.715   2.156  0.8774  0.4970 -2.5708
18437SOL     OW55447   7.797   6.080   1.713 -0.2348 -0.0081  0.0971
18437SOL    HW155448   7.734   6.146   1.754 -0.4492 -0.4003  0.4082
18437SOL    HW255449   7.818   6.107   1.619 -1.1311 -0.0552 -0.1209
18438SOL     OW55450   0.017   4.263   1.541 -0.4841  0.9224 -0.6718
18438SOL    HW155451   0.080   4.322   1.592  0.7658 -0.1311 -0.9673
18438SOL    HW255452  -0.075   4.301   1.545 -0.1190  1.6627  1.0781
18439SOL     OW55453   9.265   6.830   2.996 -0.1918  0.4624 -0.9402
18439SOL    HW155454   9.273   6.928   2.981 -1.5066  0.3436 -2.5036
18439SOL    HW255455   9.312   6.781   2.923 -0.8801 -0.0873 -1.0222
18440SOL     OW55456   1.501   2.012   3.257 -0.6337 -0.2791  0.1619
18440SOL    HW155457   1.485   2.041   3.351  1.0985  0.8134  0.1334
18440SOL    HW255458   1.539   2.088   3.204  2.5387 -2.0912 -0.2927
18441SOL     OW55459   1.845   2.556   5.339 -0.2877 -0.1387 -0.2268
18441SOL    HW155460   1.895   2.478   5.377 -1.1530 -0.4697  0.2590
18441SOL    HW255461   1.776   2.523   5.275 -0.6666  0.2263 -0.0105
18442SOL     OW55462   0.222   9.101   2.299  0.0386 -0.1687  0.0060
18442SOL    HW155463   0.202   9.110   2.201 -1.2426 -2.0153  0.0620
18442SOL    HW255464   0.263   9.011   2.316  1.1241  0.5161  1.0313
18444SOL     OW55465   4.817   2.181   1.307  0.1256 -0.2830  0.1729
18444SOL    HW155466   4.845   2.131   1.226  0.7877  0.2233  0.0775
18444SOL    HW255467   4.722   2.210   1.298  0.1991 -0.2235 -0.4282
18446SOL     OW55468   3.574   2.441   5.504 -0.5453 -0.2662 -0.1163
18446SOL    HW155469   3.585   2.532   5.546 -1.3974 -1.0637  1.8860
18446SOL    HW255470   3.652   2.384   5.529 -1.8885 -1.2892  1.9025
18447SOL     OW55471   8.266   3.179   4.499  0.8809  0.7076 -0.1433
18447SOL    HW155472   8.209   3.106   4.537  0.1607  1.4101  0.1196
18447SOL    HW255473   8.340   3.138   4.445  0.4641 -0.2198 -0.0223
18449SOL     OW55474   3.349   2.868   3.264  0.1648  0.1559 -0.1608
18449SOL    HW155475   3.386   2.838   3.352  2.6798  0.6737 -1.0093
18449SOL    HW255476   3.312   2.961   3.274 -2.0115 -0.7857  0.9557
18450SOL     OW55477   4.359   2.853   1.953  0.1160  0.0574  0.5594
18450SOL    HW155478   4.371   2.841   2.052  0.9858  1.7232  0.6666
18450SOL    HW255479   4.298   2.930   1.936  2.8396  2.0737 -0.2476
18451SOL     OW55480   7.581   2.016   5.322  0.1637  0.0740  0.2108
18451SOL    HW155481   7.605   2.077   5.397 -0.9285  1.9372 -0.9167
18451SOL    HW255482   7.513   1.949   5.353  0.6823  0.0148  1.2152
18452SOL     OW55483   4.379   9.023   6.046 -0.0959  0.4957  0.0565
18452SOL    HW155484   4.403   9.114   6.080  2.1463  0.0329 -0.2112
18452SOL    HW255485   4.397   9.019   5.948 -2.0837  0.3639 -0.3224
18453SOL     OW55486   3.222   9.050   0.146  0.5947 -0.2250  0.0434
18453SOL    HW155487   3.189   9.144   0.133 -2.4378 -1.1956  0.2864
18453SOL    HW255488   3.144   8.989   0.156  2.5190 -2.8614 -0.5232
18454SOL     OW55489   6.602   9.910   1.356  0.5759  0.5053  0.1609
18454SOL    HW155490   6.675   9.944   1.415  2.3029 -0.9465 -1.0994
18454SOL    HW255491   6.641   9.871   1.273 -1.6770  0.1732 -0.7865
18455SOL     OW55492   9.616   1.556   0.854 -0.0888 -0.1765 -0.0069
18455SOL    HW155493   9.643   1.652   0.857 -1.2260  0.1181  0.9750
18455SOL    HW255494   9.694   1.501   0.826  0.9496  0.8848  0.7561
18456SOL     OW55495   1.690   1.768   5.484 -0.3047 -0.1996 -0.2172
18456SOL    HW155496   1.689   1.796   5.580 -2.5857  0.3495 -0.3825
18456SOL    HW255497   1.766   1.705   5.469  0.0116 -0.3866  1.9721
18457SOL     OW55498   1.086   7.561   0.050 -0.0947 -0.1195  0.7660
18457SOL    HW155499   1.145   7.480   0.042 -0.4675 -0.3310  0.1300
18457SOL    HW255500   1.024   7.550   0.127  0.1013 -0.2774  0.9021
18458SOL     OW55501   2.548   2.376   5.690 -0.0404  0.6964  0.1742
18458SOL    HW155502   2.474   2.350   5.627 -0.1493 -0.0343  0.6007
18458SOL    HW255503   2.611   2.300   5.701 -0.6350  0.4107  1.8162
18459SOL     OW55504   1.529   0.311   5.850 -0.2531 -0.0021 -0.2651
18459SOL    HW155505   1.623   0.280   5.868 -0.4474 -0.5926 -0.2498
18459SOL    HW255506   1.527   0.364   5.765 -0.0567 -0.7347 -0.7307
18460SOL     OW55507   3.659   9.042   5.070  0.0588  0.1731  0.1027
18460SOL    HW155508   3.678   9.024   4.973 -0.8599  1.1066 -0.2555
18460SOL    HW255509   3.573   9.092   5.078 -2.0277 -3.5528  1.6792
18461SOL     OW55510   0.630   7.488   6.295 -0.2418 -0.9743  0.3368
18461SOL    HW155511   0.553   7.430   6.270 -0.0658 -1.6633  1.3463
18461SOL    HW255512   0.716   7.437   6.285  0.1475 -0.0398 -1.3154
18462SOL     OW55513   0.624   0.200   2.482 -0.3731 -0.0058 -0.5144
18462SOL    HW155514   0.678   0.123   2.447  0.4999  0.5693 -0.4420
18462SOL    HW255515   0.666   0.286   2.454 -0.8614  0.4499  0.1354
18463SOL     OW55516   2.036   0.125   4.120 -0.0829 -0.4871  0.1464
18463SOL    HW155517   2.090   0.208   4.134 -2.4365  0.8486  1.6816
18463SOL    HW255518   1.999   0.125   4.027 -1.8802  1.3427  0.8190
18464SOL     OW55519   9.075   3.973   3.888 -0.3358  0.2766  0.3065
18464SOL    HW155520   9.060   3.964   3.790 -1.1188 -1.6650  0.5945
18464SOL    HW255521   8.989   3.961   3.936  0.3902 -0.8552  1.3535
18465SOL     OW55522   8.333   0.073   8.190 -0.3638 -0.1389  0.0931
18465SOL    HW155523   8.326  -0.023   8.160 -0.1764 -0.2300  0.3503
18465SOL    HW255524   8.386   0.125   8.123 -0.0541 -0.3181  0.1987
18466SOL     OW55525   3.546   4.676   1.671 -0.7021  0.1537 -0.5469
18466SOL    HW155526   3.590   4.700   1.585  0.0149 -0.4835 -0.3653
18466SOL    HW255527   3.615   4.645   1.736 -1.1683  1.0983  0.4250
18468SOL     OW55528   0.805   0.890   1.728 -0.0170 -0.4639  0.6476
18468SOL    HW155529   0.842   0.851   1.644 -1.0747 -0.7844  0.3256
18468SOL    HW255530   0.793   0.989   1.717 -0.5141 -0.5625  0.2827
18470SOL     OW55531   2.587   4.983   1.818  0.6086  0.1667  0.2650
18470SOL    HW155532   2.648   4.929   1.761  1.5874  0.3669  1.1125
18470SOL    HW255533   2.497   4.990   1.774  1.0627 -0.4939 -0.7723
18471SOL     OW55534   4.463   5.848   2.783  0.0775  0.7114 -0.0879
18471SOL    HW155535   4.478   5.751   2.763 -0.0129  0.1078  2.5906
18471SOL    HW255536   4.376   5.877   2.744 -0.3691 -0.5428 -0.0429
18472SOL     OW55537   2.790   5.180   4.069  0.4541 -0.1743 -0.0307
18472SOL    HW155538   2.835   5.091   4.080  1.3691  0.1069 -1.3840
18472SOL    HW255539   2.772   5.219   4.159  0.3672 -1.5614  0.5742
18475SOL     OW55540   2.446   0.902   1.999  0.1387 -0.2940  0.8931
18475SOL    HW155541   2.521   0.961   1.971 -1.7085  2.4083  1.4574
18475SOL    HW255542   2.481   0.810   2.017  3.0943  0.6165  0.0805
18476SOL     OW55543   2.628   2.199   5.452  0.1293 -0.2009  0.0483
18476SOL    HW155544   2.560   2.261   5.412  0.4735 -0.1298 -0.4207
18476SOL    HW255545   2.708   2.194   5.394 -0.5025 -2.2604 -0.7093
18477SOL     OW55546   0.546   2.666   2.519 -0.2588  0.4467  0.0932
18477SOL    HW155547   0.479   2.735   2.547  0.5769  1.6838 -0.8993
18477SOL    HW255548   0.537   2.649   2.421 -1.7901 -2.3432  0.6792
18478SOL     OW55549   4.650   9.616   5.696 -0.1286 -0.5299 -0.3975
18478SOL    HW155550   4.630   9.548   5.626  1.2433  0.1119 -1.4218
18478SOL    HW255551   4.726   9.585   5.753 -0.8442 -0.7730  0.4452
18479SOL     OW55552   0.056   8.035   2.714 -0.0997  0.3772 -0.0050
18479SOL    HW155553   0.117   8.027   2.636 -0.0775  2.0289 -0.1616
18479SOL    HW255554   0.028   7.943   2.744  1.0416 -0.3135 -1.0243
18480SOL     OW55555   6.042   3.047   0.210  0.3775  0.1640  0.0191
18480SOL    HW155556   6.034   3.043   0.310 -1.5407 -1.2994 -0.1668
18480SOL    HW255557   6.139   3.051   0.184  1.0552 -2.8645  1.8340
18482SOL     OW55558   2.639   4.245   4.345 -0.2215 -0.1324 -0.3756
18482SOL    HW155559   2.628   4.222   4.248 -1.3846 -0.5669 -0.1527
18482SOL    HW255560   2.597   4.173   4.401  2.9091 -1.3453  0.5384
18483SOL     OW55561   8.238   0.462   5.312  0.4630  0.0146  0.3238
18483SOL    HW155562   8.242   0.398   5.235 -0.6011 -0.4261  0.6361
18483SOL    HW255563   8.294   0.542   5.291 -0.0360  0.0224 -1.0303
18484SOL     OW55564   4.544   4.706   5.329 -0.7135 -0.8842  0.4343
18484SOL    HW155565   4.535   4.659   5.241 -0.6249  0.1396 -0.1309
18484SOL    HW255566   4.631   4.681   5.372  0.6950  1.0181 -1.2349
18485SOL     OW55567   8.403   3.297   0.291 -0.1555 -0.1976  0.1258
18485SOL    HW155568   8.487   3.315   0.239 -0.3213 -1.2596 -0.5242
18485SOL    HW255569   8.326   3.343   0.246  0.1586  1.2116  1.0158
18487SOL     OW55570   6.521   8.612   3.778  0.7067  0.1424 -0.2144
18487SOL    HW155571   6.544   8.618   3.876  1.0781  0.8487 -0.3371
18487SOL    HW255572   6.538   8.701   3.735 -1.4417  0.4205 -0.5102
18488SOL     OW55573   1.426   9.683   0.652 -0.1282 -0.7267  0.2141
18488SOL    HW155574   1.401   9.691   0.749  1.2164  0.0797  0.5027
18488SOL    HW255575   1.487   9.605   0.640  0.3918 -0.3099  0.1521
18490SOL     OW55576   5.901   9.176   4.215  0.4728 -0.1226 -0.3822
18490SOL    HW155577   5.848   9.249   4.257 -1.0926 -1.3618 -0.1706
18490SOL    HW255578   5.853   9.142   4.134  0.5254 -1.8374  0.2896
18491SOL     OW55579   3.761   4.236   5.840 -0.0989 -0.3523  0.2400
18491SOL    HW155580   3.806   4.325   5.826  2.0431 -1.2804  0.9892
18491SOL    HW255581   3.774   4.207   5.935 -0.7778 -1.4842 -0.0044
18492SOL     OW55582   9.852   6.456   4.079 -0.5681  0.4268  0.4910
18492SOL    HW155583   9.779   6.389   4.092 -0.5535  0.6205  1.6637
18492SOL    HW255584   9.895   6.442   3.990 -2.1905  0.4665 -0.3217
18493SOL     OW55585   5.153   8.774   2.190 -0.1345  0.3463 -0.0047
18493SOL    HW155586   5.075   8.733   2.144  1.2922 -0.6533 -1.5611
18493SOL    HW255587   5.235   8.763   2.134  1.4493 -0.0383  2.3287
18495SOL     OW55588   9.755   1.572   3.350  0.1625 -0.3097 -0.0778
18495SOL    HW155589   9.667   1.531   3.373  0.2555 -0.6421 -0.3142
18495SOL    HW255590   9.753   1.602   3.254 -1.4572  4.1812  1.2121
18496SOL     OW55591   0.564   4.904   4.999  0.2019 -0.1911  0.0892
18496SOL    HW155592   0.567   4.816   5.047  0.3504 -0.3273 -0.1680
18496SOL    HW255593   0.490   4.960   5.037  0.1470 -0.4020  0.2966
18497SOL     OW55594   0.670   3.663   2.976  0.3448  0.4896  0.4936
18497SOL    HW155595   0.712   3.596   2.915 -0.2557  0.8071 -0.2882
18497SOL    HW255596   0.613   3.617   3.043 -0.6049  0.2396 -0.4655
18498SOL     OW55597   4.083   7.581   5.664 -0.0034  0.6929  0.0977
18498SOL    HW155598   4.148   7.506   5.676 -1.9921 -1.1860 -0.6127
18498SOL    HW255599   4.068   7.598   5.567 -2.4529 -0.6106  0.2081
18499SOL     OW55600   0.006   0.320   1.773 -0.4461 -0.2508 -0.5894
18499SOL    HW155601  -0.025   0.244   1.830 -0.0612 -0.3749 -0.5463
18499SOL    HW255602  -0.065   0.341   1.706 -0.4573 -0.8084 -0.7600
18501SOL     OW55603   3.842   2.541   1.707  0.1743 -0.3204  0.9670
18501SOL    HW155604   3.873   2.566   1.615 -1.2792 -0.8914  0.2926
18501SOL    HW255605   3.884   2.455   1.735  0.4518 -0.2577  0.7364
18502SOL     OW55606   9.673   4.077   4.547 -0.3774 -0.6679 -0.3492
18502SOL    HW155607   9.635   4.071   4.639 -0.3207 -0.2443 -0.2950
18502SOL    HW255608   9.673   3.987   4.505  0.8633 -1.1169  0.5721
18503SOL     OW55609   0.890   1.798   5.706 -0.3890 -0.4097 -0.0689
18503SOL    HW155610   0.892   1.699   5.715  1.0650 -0.1236  3.3574
18503SOL    HW255611   0.797   1.831   5.724 -0.2568 -0.9410  1.6409
18504SOL     OW55612   3.723   1.698   3.921  0.0459 -0.5216 -0.0436
18504SOL    HW155613   3.703   1.600   3.928 -1.5916 -0.3686 -2.1261
18504SOL    HW255614   3.778   1.716   3.840 -0.9384  0.4581 -0.5038
18506SOL     OW55615   2.155   0.503   2.710  0.3243 -0.6305 -0.5473
18506SOL    HW155616   2.147   0.602   2.715 -0.6287 -0.7126 -0.2804
18506SOL    HW255617   2.248   0.478   2.682  0.8510  0.3060  0.3192
18508SOL     OW55618   8.114   2.812   2.643 -0.2036  0.2358 -0.7127
18508SOL    HW155619   8.125   2.903   2.604  1.3877 -0.3024 -1.5690
18508SOL    HW255620   8.201   2.762   2.636 -1.1625 -1.4803 -0.5937
18509SOL     OW55621   0.165   3.283   1.619 -0.1179  0.1946 -0.3520
18509SOL    HW155622   0.137   3.379   1.630  2.1706  0.7447  0.8721
18509SOL    HW255623   0.197   3.268   1.526  0.1439  0.7834 -0.3573
18510SOL     OW55624   2.670   8.191   0.019 -0.1458 -0.3488 -0.3995
18510SOL    HW155625   2.752   8.233  -0.018 -0.1950  0.6150  0.5605
18510SOL    HW255626   2.687   8.160   0.113 -1.0411  0.3699  0.0088
18511SOL     OW55627   4.762   9.779   4.016  0.0104 -0.2653  0.0374
18511SOL    HW155628   4.766   9.773   4.116 -1.1683  0.0722  0.1113
18511SOL    HW255629   4.833   9.721   3.976  0.5245 -0.3555  1.0714
18512SOL     OW55630   3.955   1.682   2.614 -0.4597 -0.1288 -0.3536
18512SOL    HW155631   4.035   1.732   2.582 -0.4702  0.7519  0.9469
18512SOL    HW255632   3.983   1.596   2.656 -0.2555 -0.1077 -0.4485
18513SOL     OW55633   7.679   3.686   4.433 -0.1490 -0.5031 -0.0710
18513SOL    HW155634   7.701   3.593   4.464 -1.4835 -0.4119  1.1465
18513SOL    HW255635   7.711   3.752   4.500 -0.0408 -0.1251 -0.4951
18514SOL     OW55636   2.797   6.897   3.108  0.1387 -0.4698  0.4477
18514SOL    HW155637   2.875   6.860   3.159 -0.0947 -0.8182  0.5537
18514SOL    HW255638   2.810   6.878   3.011 -1.1256 -2.9461  0.7391
18515SOL     OW55639   3.246   1.792   2.819 -0.1689  0.3864  0.0000
18515SOL    HW155640   3.170   1.767   2.758 -0.1584  1.9654 -0.6927
18515SOL    HW255641   3.304   1.859   2.773  0.8664  0.2237  1.0656
18516SOL     OW55642   0.926   5.775   2.418  0.4008 -0.2404 -0.1492
18516SOL    HW155643   0.851   5.779   2.352  0.6379  4.3555 -0.3294
18516SOL    HW255644   1.008   5.737   2.374  0.0440  1.0524 -2.0087
18517SOL     OW55645   9.770   6.985   4.769  0.0997  0.5442  0.1815
18517SOL    HW155646   9.870   6.972   4.766  0.4753  3.0374  0.8377
18517SOL    HW255647   9.735   6.989   4.676  0.5357 -0.7477 -0.0575
18518SOL     OW55648   9.417   4.566   0.883 -0.0311 -0.2739  0.2843
18518SOL    HW155649   9.318   4.560   0.901 -0.1827 -0.3906 -0.5715
18518SOL    HW255650   9.464   4.590   0.968 -0.9920  1.6162  0.3347
18519SOL     OW55651   1.191   7.166   4.603 -0.1792 -0.5514  0.2781
18519SOL    HW155652   1.100   7.208   4.598  0.2023  0.3326  0.6846
18519SOL    HW255653   1.181   7.066   4.605 -1.2202 -0.4452  1.6303
18520SOL     OW55654   2.253   3.883   1.101  0.6576 -0.2084  0.0164
18520SOL    HW155655   2.268   3.793   1.058  3.8566 -0.2544  1.1011
18520SOL    HW255656   2.229   3.870   1.197  0.0020  0.0850 -0.1047
18521SOL     OW55657   0.456   7.001   1.693  0.2162  0.0195  0.4795
18521SOL    HW155658   0.496   6.909   1.702  1.2183  0.2958 -0.9620
18521SOL    HW255659   0.528   7.065   1.665 -1.1271  0.6657 -1.5042
18523SOL     OW55660   5.588   8.739   3.954  0.3951 -0.3803  0.6481
18523SOL    HW155661   5.580   8.784   3.866 -0.6248 -0.8100  0.5128
18523SOL    HW255662   5.583   8.640   3.941  1.0475 -0.4773  1.1059
18524SOL     OW55663   1.574   5.652   3.574 -0.0485  0.6819  0.5289
18524SOL    HW155664   1.481   5.623   3.554  0.0814  0.4866  0.2177
18524SOL    HW255665   1.598   5.730   3.516 -0.2129  1.0835  0.9964
18526SOL     OW55666   0.111   9.477   1.245  0.3648 -0.5587  0.2307
18526SOL    HW155667   0.104   9.400   1.308  1.1748 -0.1953  0.7800
18526SOL    HW255668   0.128   9.561   1.296 -0.9925  0.0731 -0.3285
18528SOL     OW55669   9.393   6.612   2.858  0.0656 -0.4756 -0.4835
18528SOL    HW155670   9.434   6.617   2.766  0.2324 -0.1898 -0.3969
18528SOL    HW255671   9.428   6.531   2.906  2.3459  0.9986  0.4397
18529SOL     OW55672   8.676   3.758   5.505 -0.0985 -0.3912  0.0857
18529SOL    HW155673   8.713   3.829   5.445  0.3362 -0.4286  0.3085
18529SOL    HW255674   8.705   3.668   5.473 -1.2988 -0.5227 -0.6505
18530SOL     OW55675   3.425   5.671   2.722  0.0779  0.1486 -0.2947
18530SOL    HW155676   3.370   5.641   2.799 -0.2366  0.5324 -0.3665
18530SOL    HW255677   3.365   5.709   2.651  0.6505  3.7536  1.0541
18531SOL     OW55678   9.975   6.295   1.132 -0.2560 -0.8810  0.1013
18531SOL    HW155679  10.064   6.310   1.176 -0.9426  0.7906  0.9646
18531SOL    HW255680   9.907   6.273   1.202 -1.1736  0.9517 -0.1820
18533SOL     OW55681   4.771   8.859   6.165  0.2545 -0.8418 -0.3227
18533SOL    HW155682   4.736   8.904   6.247 -0.7455 -2.1140 -0.0397
18533SOL    HW255683   4.694   8.826   6.110  0.9647 -1.8664 -0.7065
18534SOL     OW55684   0.021   9.360   0.069 -0.1071 -0.7661 -0.2099
18534SOL    HW155685   0.078   9.318   0.139 -0.4830 -0.4443  0.2920
18534SOL    HW255686   0.058   9.339  -0.022  0.3425 -1.2330  0.0813
18535SOL     OW55687   9.538   7.253   3.393  0.1544  0.2983  0.1280
18535SOL    HW155688   9.509   7.241   3.488 -0.4285  1.3757  0.0879
18535SOL    HW255689   9.632   7.286   3.390  0.7005 -1.2073  0.2964
18536SOL     OW55690   9.305   7.313   5.482  0.1455 -0.1476 -0.1228
18536SOL    HW155691   9.282   7.217   5.493  0.9695 -0.3904 -0.4891
18536SOL    HW255692   9.349   7.328   5.394 -0.7907  0.7274 -0.4617
18537SOL     OW55693   6.478   0.049   3.310 -0.1043 -0.3440 -0.1507
18537SOL    HW155694   6.475  -0.005   3.395  0.5563  1.3224  0.9590
18537SOL    HW255695   6.407   0.120   3.314 -0.9909 -1.1411 -1.6150
18538SOL     OW55696   7.273   6.062   6.124  0.3204  0.2625 -0.1964
18538SOL    HW155697   7.327   6.128   6.071 -2.2930  2.0553 -0.7218
18538SOL    HW255698   7.257   6.098   6.215  0.1274 -0.3257  0.0020
18539SOL     OW55699   9.425   2.453   0.491  0.5360 -0.4127  0.1586
18539SOL    HW155700   9.386   2.372   0.447 -1.3242  0.7912 -0.4875
18539SOL    HW255701   9.416   2.446   0.590 -0.8317 -0.4008  0.0356
18540SOL     OW55702   0.537   0.876   1.017 -0.3685  0.2330 -0.0938
18540SOL    HW155703   0.551   0.844   0.924 -2.5788 -1.6219  0.1837
18540SOL    HW255704   0.527   0.797   1.078 -2.9675  1.4244  1.0719
18542SOL     OW55705   7.593   1.275   0.553 -0.2887 -0.3143 -0.2020
18542SOL    HW155706   7.677   1.324   0.574 -1.4209  1.2902  0.6326
18542SOL    HW255707   7.605   1.178   0.574  1.5794 -0.2218 -0.7813
18543SOL     OW55708   6.940   9.099   2.340 -0.6028  0.2741 -0.0340
18543SOL    HW155709   6.928   9.048   2.254 -1.2568 -0.6141  0.5749
18543SOL    HW255710   6.893   9.186   2.334 -1.7626 -0.3497 -0.0953
18544SOL     OW55711   7.033   4.180   1.959  0.2201 -0.1334  0.2516
18544SOL    HW155712   7.020   4.109   1.890 -0.0856 -0.6471  0.8444
18544SOL    HW255713   7.122   4.223   1.946  0.1621 -0.2274 -0.4691
18545SOL     OW55714   7.304   1.495   1.524 -0.3894 -0.3790 -0.4147
18545SOL    HW155715   7.225   1.482   1.584 -1.4012  1.4709 -1.2962
18545SOL    HW255716   7.312   1.592   1.500  2.7521 -0.3697  0.4586
18547SOL     OW55717   6.941   4.795   2.397 -0.4717  1.0265  0.0914
18547SOL    HW155718   6.991   4.733   2.457  0.0631 -0.3094 -1.6974
18547SOL    HW255719   6.984   4.886   2.400  1.9528 -0.0383 -1.2377
18548SOL     OW55720   9.927   4.210   2.968  0.4137  0.1443  0.0195
18548SOL    HW155721   9.858   4.138   2.957  1.4179 -0.7108 -0.6903
18548SOL    HW255722   9.892   4.295   2.928 -0.7125  0.0317  0.7248
18551SOL     OW55723   6.251   8.600   5.340 -0.7610 -0.1767  0.6583
18551SOL    HW155724   6.266   8.506   5.307 -0.9649  0.4917 -1.3521
18551SOL    HW255725   6.198   8.597   5.425 -3.1393 -1.7646 -0.8235
18552SOL     OW55726   9.756   7.250   5.186 -0.3716 -0.3030 -0.2278
18552SOL    HW155727   9.825   7.298   5.133 -0.5151 -0.6849 -0.7613
18552SOL    HW255728   9.744   7.158   5.150 -0.7816 -0.4201  0.1939
18553SOL     OW55729   9.441   7.222   3.643 -0.3027  0.0851 -0.2797
18553SOL    HW155730   9.388   7.277   3.708  0.2234  0.1001  0.1481
18553SOL    HW255731   9.478   7.142   3.689  1.4736  0.9638 -0.1176
18555SOL     OW55732   9.931   6.830   6.337 -0.1760 -0.7557 -0.2408
18555SOL    HW155733   9.914   6.741   6.380 -0.3412 -1.0691 -0.9511
18555SOL    HW255734   9.890   6.831   6.246 -0.6670  0.2566 -0.0133
18556SOL     OW55735   1.356   5.912   3.773 -0.0739  0.1983  0.5154
18556SOL    HW155736   1.265   5.942   3.799 -0.6973 -0.5058 -0.7972
18556SOL    HW255737   1.424   5.963   3.825 -1.1619  2.1333  0.1006
18557SOL     OW55738   4.667   3.345   3.585  0.5520 -0.0212 -0.3847
18557SOL    HW155739   4.745   3.403   3.606  0.1616  0.2832  0.2069
18557SOL    HW255740   4.644   3.355   3.488  1.3536 -0.2454 -0.6037
18559SOL     OW55741   6.684   2.384   1.874  0.3954  0.1131 -0.3673
18559SOL    HW155742   6.671   2.466   1.930  1.2936 -0.4560  0.7165
18559SOL    HW255743   6.752   2.402   1.803  1.0773  0.1232  0.2813
18560SOL     OW55744   1.988   9.044   3.634 -0.2719 -0.4156 -0.9231
18560SOL    HW155745   2.002   9.142   3.644 -1.8085 -0.2991  0.2016
18560SOL    HW255746   2.012   9.017   3.541  0.2640  1.0057 -1.2119
18561SOL     OW55747   9.527   5.439   5.366  0.0157 -0.4372  0.4107
18561SOL    HW155748   9.578   5.360   5.333 -1.1784 -0.8385 -0.4526
18561SOL    HW255749   9.439   5.445   5.320  0.8310  2.4317 -0.8704
18562SOL     OW55750   9.206   0.066   1.050  0.8432  0.1312 -0.0968
18562SOL    HW155751   9.293   0.113   1.066 -0.4088  2.0778  1.2282
18562SOL    HW255752   9.148   0.123   0.992  0.2279 -0.9026 -0.4990
18563SOL     OW55753   4.303   1.610   1.660 -0.3165 -0.1754  0.0350
18563SOL    HW155754   4.314   1.531   1.721  2.1613  1.0739  1.2659
18563SOL    HW255755   4.384   1.619   1.603 -1.7231 -0.0557 -1.9915
18564SOL     OW55756   9.751   1.471   5.970  0.1825  0.4403 -0.2773
18564SOL    HW155757   9.729   1.399   6.036  0.3719  1.1886  0.6088
18564SOL    HW255758   9.667   1.499   5.924 -0.2104  0.9934  0.7552
18565SOL     OW55759   5.387   9.795   3.782  0.2145 -0.6552  0.0020
18565SOL    HW155760   5.470   9.756   3.743 -0.7914 -0.8304 -2.0609
18565SOL    HW255761   5.410   9.852   3.860  2.2086 -1.1572 -0.2009
18567SOL     OW55762   1.229   3.802   4.063 -0.0012  0.0683  0.4741
18567SOL    HW155763   1.158   3.732   4.065 -0.1975  0.1948 -0.9800
18567SOL    HW255764   1.191   3.888   4.029  0.2992  0.8155  2.0033
18568SOL     OW55765   4.988   3.856   4.942  0.5000 -0.1212 -0.6254
18568SOL    HW155766   4.909   3.827   4.888 -0.0962  1.7218 -0.7919
18568SOL    HW255767   5.019   3.946   4.910  3.0996 -1.0945 -1.0128
18569SOL     OW55768   2.688   5.006   1.259  0.2537  0.0607 -0.5770
18569SOL    HW155769   2.615   4.969   1.202 -1.0368 -1.3869  1.9527
18569SOL    HW255770   2.649   5.072   1.324  1.6885  1.6104 -1.2550
18570SOL     OW55771   3.166   4.630   0.778  0.4008 -0.6053  0.4163
18570SOL    HW155772   3.154   4.715   0.830  0.6743 -0.2818 -0.0393
18570SOL    HW255773   3.083   4.574   0.786  0.3947 -0.5040  1.0915
18571SOL     OW55774   3.775   8.641   5.383 -0.0046 -0.1464  0.4104
18571SOL    HW155775   3.753   8.610   5.290 -2.3839 -2.7453  1.7802
18571SOL    HW255776   3.874   8.637   5.397  0.4039  0.5087 -2.0699
18572SOL     OW55777   1.504   9.435   3.042  0.2924  0.4552 -0.2571
18572SOL    HW155778   1.434   9.503   3.060 -1.4032 -0.3482 -3.5371
18572SOL    HW255779   1.475   9.347   3.080 -0.6645  0.0439 -1.9157
18573SOL     OW55780   4.066   7.542   6.173  0.4958  0.0429  0.0945
18573SOL    HW155781   4.029   7.619   6.224  2.5293  0.8152  0.4519
18573SOL    HW255782   4.074   7.566   6.076 -1.2435 -0.6301 -0.2329
18574SOL     OW55783   8.847   8.820   4.489  0.1122 -0.2526 -0.5797
18574SOL    HW155784   8.869   8.837   4.585 -0.9194  0.5158 -0.4770
18574SOL    HW255785   8.783   8.889   4.456  0.3614 -0.5825 -1.7912
18575SOL     OW55786   3.928   3.244   3.309 -0.0023 -0.1642  0.2173
18575SOL    HW155787   3.922   3.303   3.228 -0.7553  1.6202  1.5520
18575SOL    HW255788   4.013   3.191   3.306  0.0769  0.0367 -1.6204
18576SOL     OW55789   8.368   0.893   2.253 -0.0839 -0.2427 -0.0360
18576SOL    HW155790   8.279   0.875   2.295 -1.0735  0.2350 -1.8782
18576SOL    HW255791   8.410   0.806   2.226 -0.5614 -0.3842 -0.3211
18577SOL     OW55792   4.745   0.890   4.106  0.2321 -0.2062 -0.7881
18577SOL    HW155793   4.667   0.841   4.144 -0.1982  1.7342  0.9202
18577SOL    HW255794   4.807   0.917   4.179  1.6088 -0.1552 -1.9431
18578SOL     OW55795   5.239   1.017   6.290 -0.3566 -0.1210  0.8625
18578SOL    HW155796   5.149   1.035   6.250 -0.7474 -0.2484  1.6772
18578SOL    HW255797   5.255   1.082   6.365 -0.5539 -1.2965  1.9278
18579SOL     OW55798   9.095   8.786   5.236  0.0069 -0.4242  0.6639
18579SOL    HW155799   9.008   8.736   5.229 -0.3760  0.2160  0.7873
18579SOL    HW255800   9.090   8.849   5.313  0.8305 -0.8621  1.0831
18580SOL     OW55801   1.144   8.903   5.578 -0.1128 -0.0227  0.4347
18580SOL    HW155802   1.062   8.942   5.536  0.1111 -1.1583 -1.0931
18580SOL    HW255803   1.127   8.886   5.675 -2.6794 -2.8843 -0.4390
18581SOL     OW55804   8.389   9.457   1.840  0.0134 -0.2188  0.2440
18581SOL    HW155805   8.442   9.447   1.755 -0.0431  1.3922 -0.0034
18581SOL    HW255806   8.451   9.451   1.918  0.4054  0.4886 -0.0032
18582SOL     OW55807   1.718   7.924   2.284  0.6214 -0.1116 -0.0740
18582SOL    HW155808   1.637   7.905   2.228 -0.0490  1.6948  0.2513
18582SOL    HW255809   1.793   7.863   2.256 -0.6292 -1.3459 -0.8268
18583SOL     OW55810   9.485   2.352   5.376 -0.1434  0.1409  0.3723
18583SOL    HW155811   9.423   2.418   5.419 -0.8016  1.8920 -3.1229
18583SOL    HW255812   9.569   2.398   5.349 -1.2697 -0.0027 -3.5807
18584SOL     OW55813   6.803   2.636   1.018 -0.2709 -0.1453 -0.2018
18584SOL    HW155814   6.712   2.613   0.983 -1.2052  2.1675  0.6054
18584SOL    HW255815   6.834   2.565   1.081 -1.7846 -0.6359 -0.0017
18585SOL     OW55816   2.833   7.248   2.834  0.1143 -0.0961 -0.2236
18585SOL    HW155817   2.882   7.295   2.908 -1.6581  0.4787  0.6146
18585SOL    HW255818   2.896   7.230   2.758  1.6371  0.5126  0.8697
18587SOL     OW55819   4.116   7.855   3.772  0.6240 -0.2098 -0.0288
18587SOL    HW155820   4.131   7.950   3.744  1.6542 -0.2433  0.4018
18587SOL    HW255821   4.092   7.852   3.869 -2.3260 -0.1531 -0.6965
18589SOL     OW55822   0.777   8.421   4.126 -0.1052  0.5458  0.0767
18589SOL    HW155823   0.810   8.338   4.170  0.4982 -0.1692 -1.6681
18589SOL    HW255824   0.845   8.454   4.060 -1.1280  1.3616 -0.6038
18590SOL     OW55825   8.604   1.107   0.573  0.9424 -0.3643 -0.2964
18590SOL    HW155826   8.553   1.086   0.657 -0.5425 -1.4125 -1.4448
18590SOL    HW255827   8.642   1.023   0.535  0.4868 -0.0688 -1.4060
18591SOL     OW55828   0.587   9.493   0.860  0.1682  0.3011  0.4355
18591SOL    HW155829   0.634   9.572   0.897  0.3840 -0.1539  1.1439
18591SOL    HW255830   0.495   9.519   0.832  0.2972  0.8408  0.5210
18592SOL     OW55831   3.361   9.633   1.804  0.2827  0.5409 -0.5703
18592SOL    HW155832   3.412   9.567   1.858  1.2545  1.3054 -0.5494
18592SOL    HW255833   3.313   9.586   1.730  2.4732  0.0382 -1.6840
18593SOL     OW55834   3.059   1.655   2.639  0.3001 -0.2471 -0.1821
18593SOL    HW155835   3.030   1.571   2.685 -0.8488  0.0744 -0.3074
18593SOL    HW255836   2.993   1.679   2.569  0.2812  1.1346  0.3027
18594SOL     OW55837   9.609   4.615   3.058  0.1450 -0.3975  0.4906
18594SOL    HW155838   9.560   4.626   3.144  1.7677 -2.4623  1.7265
18594SOL    HW255839   9.578   4.533   3.011  1.7112 -1.2022  0.8307
18595SOL     OW55840   4.333   5.908   3.299 -0.2397 -0.3614 -0.2973
18595SOL    HW155841   4.414   5.955   3.334  0.3618 -0.7550 -1.1426
18595SOL    HW255842   4.262   5.908   3.369  0.2486  0.5831  0.2130
18596SOL     OW55843   9.628   6.404   2.427  0.1068 -0.1835 -0.7747
18596SOL    HW155844   9.714   6.440   2.391  0.2661  0.5603  0.3352
18596SOL    HW255845   9.644   6.355   2.512 -0.0315 -3.4873 -2.5638
18597SOL     OW55846   0.914   3.493   1.378 -0.1582  0.2085 -0.1345
18597SOL    HW155847   0.934   3.424   1.309  2.7953 -0.3743  1.2244
18597SOL    HW255848   0.954   3.581   1.350  0.7173  0.0617  0.6413
18598SOL     OW55849   3.460   6.140   3.535  0.1125  0.4364 -0.5131
18598SOL    HW155850   3.514   6.175   3.611 -1.4996 -1.1658  1.4410
18598SOL    HW255851   3.509   6.155   3.449  1.6068  3.0287  0.7139
18599SOL     OW55852   3.379   6.590   5.630  0.1122 -0.1794  0.5997
18599SOL    HW155853   3.411   6.666   5.573 -1.4192  0.4837  0.5897
18599SOL    HW255854   3.373   6.507   5.576  1.7795 -0.3097  0.5987
18600SOL     OW55855   1.146   5.584   5.724 -0.3568  0.4366  0.3878
18600SOL    HW155856   1.132   5.673   5.768 -0.3785  0.5632  0.1272
18600SOL    HW255857   1.107   5.587   5.632  1.4165  0.7953 -0.3602
18601SOL     OW55858   3.835   6.400   0.853 -0.4246 -0.3569  0.1754
18601SOL    HW155859   3.852   6.475   0.789 -0.7230 -1.7821 -1.6339
18601SOL    HW255860   3.897   6.407   0.931 -0.1739  1.5208 -0.1804
18602SOL     OW55861   2.436   9.729   0.797  0.3758 -0.4109  0.0312
18602SOL    HW155862   2.466   9.635   0.778  0.7359 -0.2055 -0.4360
18602SOL    HW255863   2.446   9.784   0.714  2.6137  0.6879  0.9933
18603SOL     OW55864   4.727   2.469   0.683 -0.2417 -0.2340 -0.3847
18603SOL    HW155865   4.734   2.569   0.682 -3.0528 -0.0007  0.1076
18603SOL    HW255866   4.695   2.436   0.595  0.8577 -0.7214 -0.6049
18605SOL     OW55867   1.886   3.509   4.785 -0.1177  0.3186  0.1933
18605SOL    HW155868   1.845   3.596   4.757  0.3702  0.8192  1.0251
18605SOL    HW255869   1.969   3.527   4.838  0.3269 -0.6679 -0.1688
18606SOL     OW55870   7.481   5.293   6.284  0.3350 -0.2843 -0.0564
18606SOL    HW155871   7.427   5.341   6.353  0.2356 -0.8686  0.2709
18606SOL    HW255872   7.576   5.285   6.314  0.7190  1.1686 -0.8448
18607SOL     OW55873   1.638   5.576   6.315 -0.1267 -0.6630 -0.1532
18607SOL    HW155874   1.724   5.556   6.361 -0.3177  0.7323  0.8705
18607SOL    HW255875   1.567   5.513   6.347  0.2359 -1.0480 -0.1091
18608SOL     OW55876   9.287   3.547   2.957  0.5088  0.4185  0.2299
18608SOL    HW155877   9.277   3.495   3.042 -2.5260 -0.6751 -0.7261
18608SOL    HW255878   9.327   3.636   2.978 -0.6088  0.3612  2.8969
18609SOL     OW55879   9.999   1.790   6.346  0.3778  0.1035 -0.0456
18609SOL    HW155880   9.930   1.859   6.325 -0.0475 -0.2135  0.2837
18609SOL    HW255881  10.066   1.786   6.272  1.2090  1.8512  0.5999
18611SOL     OW55882   0.311   6.892   3.805 -0.7729 -0.2076 -0.2123
18611SOL    HW155883   0.289   6.861   3.712 -0.8984  0.0758 -0.2756
18611SOL    HW255884   0.296   6.816   3.869 -0.3901 -0.4969 -0.4616
18612SOL     OW55885   1.738   3.130   6.201 -0.6747 -0.0911 -0.0429
18612SOL    HW155886   1.745   3.170   6.110 -1.8138  0.6628  0.1923
18612SOL    HW255887   1.762   3.199   6.270 -2.1881  0.0659  0.3430
18614SOL     OW55888   1.140   0.753   0.125 -0.2543  0.2751  0.4034
18614SOL    HW155889   1.236   0.726   0.133 -0.1585  0.2848 -0.6695
18614SOL    HW255890   1.124   0.835   0.180 -0.0259 -0.6521  1.8609
18615SOL     OW55891   4.306   8.036   4.421  0.8442  0.0406 -0.0030
18615SOL    HW155892   4.367   8.064   4.346 -1.4042  1.3438 -1.4198
18615SOL    HW255893   4.250   8.114   4.449 -2.0434 -1.7641 -0.5842
18617SOL     OW55894   0.409   2.107   5.306  0.6922  0.3098  0.3423
18617SOL    HW155895   0.337   2.169   5.275  0.8532 -0.0841 -0.8336
18617SOL    HW255896   0.423   2.119   5.404 -0.6743  0.6967  0.4979
18618SOL     OW55897   3.110   5.814   5.721 -0.2038 -0.2064  0.4785
18618SOL    HW155898   3.016   5.795   5.692 -0.6711  1.1630  1.0242
18618SOL    HW255899   3.166   5.733   5.707 -1.4142 -0.9724 -0.0767
18619SOL     OW55900   7.898   4.093   6.167 -0.3690  0.3081  0.5639
18619SOL    HW155901   7.884   3.996   6.190 -0.7427 -0.0699 -1.1698
18619SOL    HW255902   7.917   4.145   6.251  2.0536 -1.6273  1.2770
18620SOL     OW55903   2.708   9.043   4.603 -0.0714 -0.4899 -0.0019
18620SOL    HW155904   2.761   8.960   4.587 -0.3849 -0.9366  1.3114
18620SOL    HW255905   2.611   9.022   4.607 -0.1035 -0.1505  0.9985
18621SOL     OW55906   0.766   0.122   5.461  0.1287  0.2316 -0.0001
18621SOL    HW155907   0.802   0.199   5.513  0.0103 -0.6034  1.3232
18621SOL    HW255908   0.820   0.040   5.480 -1.4716 -0.6613  0.7813
18622SOL     OW55909   7.926   4.671   1.778  0.6729 -0.3437 -0.0850
18622SOL    HW155910   7.943   4.608   1.702 -0.5153  0.2860 -0.8913
18622SOL    HW255911   7.987   4.750   1.771  0.6490 -0.3472 -0.3226
18623SOL     OW55912   9.371   3.784   0.087  0.0483  0.5512  0.2258
18623SOL    HW155913   9.419   3.697   0.100  0.0713  0.5531  0.1523
18623SOL    HW255914   9.407   3.830   0.006 -1.5517 -0.4669 -1.1202
18624SOL     OW55915   0.681   9.052   2.415  0.1511 -0.3316  0.7096
18624SOL    HW155916   0.661   9.143   2.377 -0.3265 -0.5155  0.5138
18624SOL    HW255917   0.605   8.991   2.394  0.1205 -0.5669  1.5328
18625SOL     OW55918   5.852   9.551   2.833  0.8627  0.3499 -0.3828
18625SOL    HW155919   5.925   9.560   2.900  0.0370 -0.7025  0.6762
18625SOL    HW255920   5.869   9.471   2.775  0.1415 -0.3916  0.4088
18626SOL     OW55921   0.525   2.451   1.100  0.1064  0.3610  0.5950
18626SOL    HW155922   0.445   2.429   1.156 -0.1351  0.5678  0.3335
18626SOL    HW255923   0.538   2.380   1.032 -0.1720  0.5955  0.2949
18627SOL     OW55924   8.740   1.661   1.844  0.0068 -0.8217  0.1106
18627SOL    HW155925   8.729   1.734   1.777  2.7045 -0.0005  0.5219
18627SOL    HW255926   8.756   1.574   1.796 -2.2212 -1.0225 -0.3485
18628SOL     OW55927   4.708   6.022   2.324  0.5152 -0.1655  0.9113
18628SOL    HW155928   4.722   6.000   2.228 -0.9796 -0.1707  0.6769
18628SOL    HW255929   4.795   6.019   2.373  1.3749  0.4196 -0.5596
18629SOL     OW55930   0.084   9.900   0.727  0.1675 -0.5307  0.0219
18629SOL    HW155931   0.165   9.897   0.786 -0.5891 -1.9382  1.0238
18629SOL    HW255932   0.113   9.901   0.631  1.4174  2.1526  0.3749
18630SOL     OW55933   9.102   5.025   3.989  0.3912 -0.1063 -0.6761
18630SOL    HW155934   9.013   4.981   3.979  0.0768  0.3570  0.0036
18630SOL    HW255935   9.161   4.998   3.913 -0.8114  0.7775 -1.9535
18631SOL     OW55936   4.672   5.932   2.964  0.2172  0.1468  0.4740
18631SOL    HW155937   4.622   5.980   3.036 -0.4701 -0.7365  0.5937
18631SOL    HW255938   4.607   5.890   2.901  0.8175  0.4014 -0.3117
18632SOL     OW55939   7.534   8.291   5.840  0.0101  0.3419  0.3630
18632SOL    HW155940   7.588   8.295   5.756 -0.4023 -0.5372  0.0460
18632SOL    HW255941   7.543   8.377   5.890  1.0018  0.5209 -0.1182
18633SOL     OW55942   9.959   9.972   3.656  0.5607 -1.1044 -0.2970
18633SOL    HW155943   9.957   9.931   3.747 -0.5469 -1.1225 -0.3261
18633SOL    HW255944   9.941   9.901   3.587 -3.1001 -0.2994 -0.2445
18634SOL     OW55945   1.733   3.786   1.304  0.2405 -0.5714  0.2201
18634SOL    HW155946   1.655   3.724   1.291  0.0225 -0.2500 -0.0031
18634SOL    HW255947   1.798   3.774   1.228 -0.3475  0.2850 -0.4221
18635SOL     OW55948   0.710   4.419   5.809 -0.1462 -0.2130  0.1453
18635SOL    HW155949   0.804   4.432   5.840  0.3422  0.7932 -1.6452
18635SOL    HW255950   0.678   4.329   5.836  0.9425 -0.1516  1.7357
18636SOL     OW55951   7.750   6.971   5.208 -0.4991  0.8211  0.4769
18636SOL    HW155952   7.754   7.016   5.297  1.5158  2.2175 -0.2849
18636SOL    HW255953   7.765   7.038   5.136  2.4923 -0.9775 -0.7057
18638SOL     OW55954   8.002   1.740   2.027  0.1957 -0.7926  0.1881
18638SOL    HW155955   8.005   1.835   1.996  1.0174 -0.3357  1.6174
18638SOL    HW255956   7.931   1.691   1.976 -1.3341  0.9867  0.5325
18639SOL     OW55957   1.191   9.089   1.913 -0.0154 -0.2031  0.1180
18639SOL    HW155958   1.108   9.049   1.876  1.2339 -2.1404 -0.6524
18639SOL    HW255959   1.223   9.162   1.853  0.1776 -1.1093 -0.8895
18640SOL     OW55960   6.703   7.710   3.203 -0.3002 -0.0163 -0.0732
18640SOL    HW155961   6.718   7.625   3.152 -0.1501 -0.3182  0.4768
18640SOL    HW255962   6.791   7.745   3.235 -0.3705  0.3031 -0.2265
18641SOL     OW55963   1.986   3.375   0.048 -0.1864  0.3600  0.0219
18641SOL    HW155964   2.035   3.380  -0.039  0.0732 -2.4679 -0.0450
18641SOL    HW255965   2.052   3.363   0.123 -0.6654 -2.6718  0.0133
18642SOL     OW55966   3.139   6.735   5.247 -0.1077 -0.5682 -0.5177
18642SOL    HW155967   3.046   6.709   5.221 -0.9780  3.0015 -1.2037
18642SOL    HW255968   3.136   6.811   5.312  2.3313  1.1582 -2.3420
18643SOL     OW55969   0.542   6.100   5.689 -0.2238  0.0791 -0.0419
18643SOL    HW155970   0.546   6.139   5.598  0.0618  1.3666  0.5095
18643SOL    HW255971   0.608   6.025   5.697  0.0181  0.2175 -0.7527
18645SOL     OW55972   7.926   9.283   5.699 -0.1660  0.4414  0.4245
18645SOL    HW155973   7.895   9.353   5.764 -2.4213  0.8832 -1.0925
18645SOL    HW255974   8.026   9.286   5.694 -0.0865  2.0914  1.9904
18646SOL     OW55975   0.935   1.320   3.117  0.1374 -0.2330 -0.1592
18646SOL    HW155976   0.997   1.392   3.150  0.6253 -0.0256 -1.5223
18646SOL    HW255977   0.841   1.356   3.116  0.3173  0.2352 -0.4076
18648SOL     OW55978   9.835   4.913   1.422 -0.2818 -0.3676  0.3311
18648SOL    HW155979   9.756   4.890   1.365 -0.9938  0.7205  0.8540
18648SOL    HW255980   9.834   5.011   1.442 -0.0577 -0.7353  2.2104
18649SOL     OW55981   7.505   5.679   6.362  0.0078 -0.1853  0.2163
18649SOL    HW155982   7.569   5.609   6.394 -0.7100 -0.9846 -0.0666
18649SOL    HW255983   7.510   5.685   6.262 -1.4747 -1.3894  0.0352
18650SOL     OW55984   3.884   9.834   1.178 -0.4073 -0.0826  0.6257
18650SOL    HW155985   3.786   9.819   1.167 -0.0620 -1.0065 -1.3360
18650SOL    HW255986   3.899   9.923   1.221 -2.0678  0.7606 -0.4808
18651SOL     OW55987   2.817   9.589   0.710  0.6444  0.0743  0.2253
18651SOL    HW155988   2.880   9.654   0.751  0.0593  1.0047 -0.3357
18651SOL    HW255989   2.865   9.539   0.637  1.6885 -1.6089  2.0185
18652SOL     OW55990   7.832   7.608   2.189 -0.4870 -0.1585  0.6847
18652SOL    HW155991   7.880   7.524   2.166  0.2467  0.4913 -0.1634
18652SOL    HW255992   7.884   7.658   2.259 -1.1661 -0.6328  1.5443
18653SOL     OW55993   5.241   0.830   5.824 -0.1928 -0.2343  0.2891
18653SOL    HW155994   5.155   0.782   5.843  0.6181 -1.1085  1.7316
18653SOL    HW255995   5.300   0.772   5.769 -0.4729  0.3392 -0.6375
18654SOL     OW55996   9.233   7.572   5.007  0.4235  0.1288  0.6254
18654SOL    HW155997   9.151   7.627   4.992  0.2261  0.3354  2.3276
18654SOL    HW255998   9.306   7.604   4.947 -0.7972 -0.2131 -1.0728
18655SOL     OW55999   7.234   1.072   4.847  0.6376  0.3263  0.4195
18655SOL    HW156000   7.215   1.073   4.945 -1.1745  2.6163  0.0592
18655SOL    HW256001   7.302   1.142   4.825  2.0794 -1.0944  0.1979
18656SOL     OW56002   0.852   9.625   4.529  0.9672  0.5055 -0.1180
18656SOL    HW156003   0.790   9.555   4.563  1.2134  1.0395  1.4820
18656SOL    HW256004   0.800   9.698   4.484  0.5768  0.1597 -0.2220
18657SOL     OW56005   6.007   4.746   1.359  0.5814  0.6196  0.2497
18657SOL    HW156006   6.095   4.793   1.356  0.3124  1.2472  1.7061
18657SOL    HW256007   5.946   4.784   1.290  0.8707  1.3767  0.4116
18659SOL     OW56008   0.319   4.104   1.804 -0.1782 -0.4590 -0.2451
18659SOL    HW156009   0.248   4.076   1.868  0.7159 -2.1070  0.0557
18659SOL    HW256010   0.310   4.202   1.785 -1.6508 -0.3604  0.8689
18660SOL     OW56011   9.042   3.473   3.666  0.1492  0.1372  0.3765
18660SOL    HW156012   9.018   3.505   3.758  0.1781 -0.1479  0.4868
18660SOL    HW256013   9.114   3.403   3.674 -0.8636 -0.9335  0.2514
18661SOL     OW56014   2.376   1.244   0.274  0.4716  0.2803  0.3067
18661SOL    HW156015   2.292   1.202   0.308  0.0705  1.0994  0.3297
18661SOL    HW256016   2.422   1.180   0.212  0.5398 -0.7102  1.3509
18662SOL     OW56017   8.586   6.581   4.615 -0.5206 -0.4770 -0.0295
18662SOL    HW156018   8.601   6.520   4.693  3.0542  1.9303  1.3037
18662SOL    HW256019   8.646   6.553   4.540  0.9677  1.2018  0.5086
18663SOL     OW56020   9.956   0.309   2.776  0.0028  0.2153  0.2348
18663SOL    HW156021   9.943   0.214   2.803  1.4364 -0.5629 -1.6932
18663SOL    HW256022  10.048   0.321   2.739 -0.6637  2.0036 -0.9371
18664SOL     OW56023   4.931   9.434   2.999  0.7271  0.3368  0.3149
18664SOL    HW156024   4.953   9.422   3.095  1.5015 -1.4176 -0.0613
18664SOL    HW256025   4.967   9.357   2.946  0.6442  1.4571 -1.4305
18665SOL     OW56026   1.494   0.735   1.422  0.6673 -0.1332  0.3846
18665SOL    HW156027   1.406   0.764   1.460  0.7105 -1.1755  1.2922
18665SOL    HW256028   1.535   0.812   1.372 -1.3598  0.0000 -1.1811
18666SOL     OW56029   4.957   2.204   4.170 -0.1025 -0.1195 -0.0807
18666SOL    HW156030   5.053   2.215   4.146 -0.5745  2.3238 -1.0295
18666SOL    HW256031   4.948   2.191   4.268  1.1737 -0.2754  0.0222
18667SOL     OW56032   1.271   9.949   6.172  0.6572  0.0829  0.1121
18667SOL    HW156033   1.300   9.856   6.195 -0.5451 -0.1437  0.7382
18667SOL    HW256034   1.258   9.956   6.073 -2.0298 -1.2442  0.3252
18669SOL     OW56035   0.960   6.329   0.062  0.2673  0.5477 -0.7499
18669SOL    HW156036   0.971   6.426   0.080 -1.3444  0.2479  2.0931
18669SOL    HW256037   0.889   6.315  -0.006 -0.0215  1.3253 -0.6070
18671SOL     OW56038   8.093   1.746   6.342 -0.7236  0.4002  0.5783
18671SOL    HW156039   8.055   1.785   6.426  1.9604  0.1849  1.9386
18671SOL    HW256040   8.162   1.808   6.305 -0.1011 -0.6796 -0.0794
18672SOL     OW56041   8.959   2.712   1.370  0.1156 -0.3615 -0.0970
18672SOL    HW156042   8.935   2.617   1.352  0.5882 -0.8663  1.8572
18672SOL    HW256043   8.901   2.748   1.443  0.8960  0.4388  0.1344
18673SOL     OW56044   7.277   6.785   5.428 -0.6246  0.3057 -0.4042
18673SOL    HW156045   7.272   6.867   5.372  0.9882  0.5377 -0.2154
18673SOL    HW256046   7.233   6.802   5.516 -3.3395 -0.1163 -1.6043
18674SOL     OW56047   0.146   9.931   0.049 -0.2629 -0.4996 -0.0714
18674SOL    HW156048   0.212   9.856   0.050  0.1080 -0.1612  1.2884
18674SOL    HW256049   0.185  10.008  -0.002 -0.5615 -1.1300 -1.2872
18675SOL     OW56050   6.819   9.729   5.499 -0.0388  0.3006  0.1581
18675SOL    HW156051   6.849   9.656   5.438 -1.5103 -0.1560 -0.0275
18675SOL    HW256052   6.748   9.694   5.561 -0.9741  1.6514 -0.1323
18676SOL     OW56053   7.122   3.152   5.467 -0.0272  0.7375  0.3397
18676SOL    HW156054   7.196   3.219   5.458  0.5267  0.0646 -0.1073
18676SOL    HW256055   7.131   3.083   5.396 -1.6227  1.1559 -0.2907
18677SOL     OW56056   9.068   9.196   0.706  0.3446  0.2747 -0.0818
18677SOL    HW156057   9.054   9.110   0.755  1.5408 -0.3108 -0.7394
18677SOL    HW256058   8.981   9.227   0.667 -0.4775  0.3890  1.7981
18678SOL     OW56059   8.828   8.408   0.303 -0.2768  0.4954 -0.2467
18678SOL    HW156060   8.871   8.356   0.229  1.2638 -0.2101  1.1083
18678SOL    HW256061   8.892   8.476   0.338 -1.4746  1.7582 -0.4474
18679SOL     OW56062   8.972   0.637   3.455 -0.9561  0.1629  0.2189
18679SOL    HW156063   9.034   0.714   3.439 -2.4685  1.2920 -0.3099
18679SOL    HW256064   8.883   0.657   3.415 -1.5855 -1.5746  0.7038
18681SOL     OW56065   8.755   6.826   4.865 -0.0470  0.5024 -0.5097
18681SOL    HW156066   8.696   6.776   4.928 -1.0810  0.8319 -1.2209
18681SOL    HW256067   8.820   6.763   4.823  0.6892  0.2838  0.9136
18682SOL     OW56068   2.725   4.673   1.719  0.8622 -0.1829  0.5004
18682SOL    HW156069   2.792   4.744   1.740  0.6322  0.3229 -0.4589
18682SOL    HW256070   2.673   4.699   1.637 -0.2667 -0.7385  1.0302
18683SOL     OW56071   9.520   5.611   6.374 -0.2897  0.4035  0.5037
18683SOL    HW156072   9.458   5.689   6.381 -2.2494 -1.0529 -0.2192
18683SOL    HW256073   9.551   5.602   6.279  0.0272  0.3713  0.6110
18684SOL     OW56074   9.039   9.361   1.297  0.2062  0.4498 -0.6434
18684SOL    HW156075   9.081   9.302   1.228  0.0966 -1.7707  1.1414
18684SOL    HW256076   8.944   9.380   1.271 -0.6102 -2.3804  0.0421
18685SOL     OW56077   3.458   8.690   1.666  0.1289  0.3633  0.1469
18685SOL    HW156078   3.483   8.762   1.731 -0.6357  0.4275  0.3702
18685SOL    HW256079   3.513   8.608   1.683 -1.1222 -0.1298  1.8244
18686SOL     OW56080   3.266   1.020   5.241  1.1005  0.6919 -0.4056
18686SOL    HW156081   3.357   1.061   5.238  0.5311  2.0011 -0.0416
18686SOL    HW256082   3.267   0.942   5.304  1.2401  2.5462  1.9622
18687SOL     OW56083   9.907   9.431   5.865  0.0801  0.1781  0.2107
18687SOL    HW156084   9.843   9.384   5.804  1.4019  0.7554 -1.6423
18687SOL    HW256085   9.876   9.420   5.960 -2.4846  0.0141 -0.5967
18689SOL     OW56086   8.325   9.910   2.844 -0.1213 -0.6883 -0.5642
18689SOL    HW156087   8.259   9.985   2.855  0.0958 -0.3858 -1.3450
18689SOL    HW256088   8.418   9.945   2.857 -0.2199 -1.6741  3.5832
18690SOL     OW56089   0.792   2.191   2.109  0.4351  0.3637  0.3965
18690SOL    HW156090   0.760   2.133   2.184 -1.1565 -2.1876 -2.1611
18690SOL    HW256091   0.889   2.172   2.090  0.2673 -0.5204  0.4263
18691SOL     OW56092   7.277   3.550   6.183 -0.1772  0.1526  0.3262
18691SOL    HW156093   7.356   3.508   6.137 -1.1153 -1.6182  0.2670
18691SOL    HW256094   7.271   3.646   6.159  0.8943 -0.1341 -1.1463
18692SOL     OW56095   0.012   9.905   4.037  0.2193 -0.4204  0.0581
18692SOL    HW156096   0.055   9.960   3.966  0.2285 -0.4013  0.0779
18692SOL    HW256097  -0.081   9.938   4.053  0.6376  0.3682  0.9110
18693SOL     OW56098   5.581   3.138   0.872  0.0334 -0.5067 -0.4322
18693SOL    HW156099   5.643   3.160   0.797  0.4627 -1.0673 -0.2413
18693SOL    HW256100   5.631   3.087   0.942 -0.6371 -0.9318 -0.2662
18694SOL     OW56101   1.344   4.656   5.695  0.0480  0.2613  0.0520
18694SOL    HW156102   1.354   4.597   5.775  1.5514 -0.0758 -0.3666
18694SOL    HW256103   1.435   4.680   5.660 -0.5906  1.0392 -1.0888
18695SOL     OW56104   6.974   9.347   3.233 -0.4803  0.1597 -0.3828
18695SOL    HW156105   7.073   9.336   3.248 -0.5007  1.3543  0.6635
18695SOL    HW256106   6.931   9.257   3.233  0.4545 -0.2983  0.1890
18697SOL     OW56107   9.189   1.342   2.980 -0.1504  0.2324  0.8331
18697SOL    HW156108   9.231   1.433   2.973 -0.8887  0.4460 -1.4656
18697SOL    HW256109   9.124   1.331   2.905  2.4015 -3.5105 -0.9147
18698SOL     OW56110   2.204   7.154   2.549 -0.8889  0.2598  0.6979
18698SOL    HW156111   2.279   7.103   2.507 -1.1567  0.4048  0.0337
18698SOL    HW256112   2.229   7.178   2.643  0.2421  1.0029  0.2231
18700SOL     OW56113   9.335   8.923   1.782 -0.3326  0.1178 -0.7357
18700SOL    HW156114   9.392   8.842   1.788 -3.0608 -1.8134  0.1277
18700SOL    HW256115   9.300   8.933   1.689  0.5939  0.7307 -1.0205
18702SOL     OW56116   8.525   8.819   2.779  0.3654  0.1670  0.5398
18702SOL    HW156117   8.602   8.761   2.805 -0.7002 -1.0475  1.0751
18702SOL    HW256118   8.511   8.814   2.680  1.5021  1.0808  0.3218
18703SOL     OW56119   4.956   3.027   1.139  1.0518 -0.1124  0.3388
18703SOL    HW156120   4.892   2.966   1.187 -0.2290  0.8640 -0.0750
18703SOL    HW256121   4.998   3.089   1.205  0.4275  0.2322  0.4200
18704SOL     OW56122   3.007   2.678   0.147 -0.0876 -0.0683  0.0740
18704SOL    HW156123   2.969   2.764   0.181 -0.3140  0.0426 -0.4428
18704SOL    HW256124   3.011   2.612   0.221  0.4434  0.5059  0.5638
18706SOL     OW56125   7.728   1.191   5.241 -0.1823 -0.3665  0.0882
18706SOL    HW156126   7.710   1.102   5.200  1.3311 -0.3792 -0.5627
18706SOL    HW256127   7.779   1.179   5.326 -0.7272 -0.1663  0.4463
18707SOL     OW56128   7.895   4.810   3.704  0.1957  0.1738 -0.1374
18707SOL    HW156129   7.959   4.875   3.663 -0.2878  0.2974 -0.7012
18707SOL    HW256130   7.898   4.723   3.654  0.9603 -0.3031  0.7134
18708SOL     OW56131   9.371   2.047   6.385  0.0288  0.2005 -0.2672
18708SOL    HW156132   9.358   2.040   6.484  2.8550 -0.7070  0.0806
18708SOL    HW256133   9.368   1.956   6.344 -1.1915  0.5789 -1.0560
18710SOL     OW56134   3.353   8.583   4.331 -0.2353  0.7070  0.0141
18710SOL    HW156135   3.415   8.559   4.256 -1.1750  0.6231 -0.7483
18710SOL    HW256136   3.357   8.682   4.347 -0.2548  0.7716 -0.3639
18711SOL     OW56137   2.616   4.287   3.659  0.0342  0.1954  0.5003
18711SOL    HW156138   2.607   4.195   3.697 -2.0556 -0.3623 -1.2464
18711SOL    HW256139   2.670   4.283   3.576  1.2813  0.8103  1.2682
18712SOL     OW56140   5.542   4.270   0.518 -0.0335 -0.4528 -0.0424
18712SOL    HW156141   5.539   4.364   0.484  1.2567  0.0213  1.1042
18712SOL    HW256142   5.637   4.242   0.528 -0.4084 -1.2726  1.2717
18713SOL     OW56143   3.516   8.289   3.864  0.2964 -0.0034  0.0145
18713SOL    HW156144   3.494   8.191   3.870 -1.8694  0.4386 -0.3342
18713SOL    HW256145   3.464   8.338   3.934  0.7170  1.0071 -0.3850
18715SOL     OW56146   3.595   4.480   5.492  0.6465  0.0790 -0.2406
18715SOL    HW156147   3.608   4.548   5.419 -0.7420  0.9143  0.2811
18715SOL    HW256148   3.628   4.391   5.460  1.2105  0.6992 -1.4364
18716SOL     OW56149   8.601   0.854   4.809  0.5267  0.4230  0.1978
18716SOL    HW156150   8.561   0.904   4.886  1.1429  0.3623  0.5644
18716SOL    HW256151   8.638   0.919   4.743 -0.4013  0.4826 -0.2631
18717SOL     OW56152   0.387   3.791   2.816 -0.5848  0.5511 -0.0959
18717SOL    HW156153   0.397   3.709   2.759  1.9599  0.2318  0.7634
18717SOL    HW256154   0.464   3.852   2.800  0.1342  0.4771  2.9425
18718SOL     OW56155   3.904   3.797   0.911 -0.4171  0.3670 -0.0534
18718SOL    HW156156   3.950   3.879   0.879  0.0223 -0.1435 -0.7261
18718SOL    HW256157   3.913   3.724   0.843  1.8054 -1.1964  1.8510
18719SOL     OW56158   7.918   4.403   3.374  0.2199 -0.1301  0.0580
18719SOL    HW156159   7.844   4.368   3.432 -0.2531  0.2206 -0.3300
18719SOL    HW256160   7.879   4.445   3.292  0.9107 -1.0984 -0.7808
18720SOL     OW56161   5.139   8.472   2.162 -0.1547 -0.0124 -0.3418
18720SOL    HW156162   5.141   8.381   2.120  0.2982 -0.0938 -0.1588
18720SOL    HW256163   5.197   8.471   2.244 -0.4574  0.3351 -0.1245
18721SOL     OW56164   6.753   2.761   0.525  0.5420 -0.1329 -0.1757
18721SOL    HW156165   6.763   2.853   0.487 -1.1594 -0.5932 -1.8173
18721SOL    HW256166   6.688   2.764   0.601  1.1840  0.1657  0.3682
18722SOL     OW56167   8.823   3.266   1.790 -0.1646  0.4656  0.1853
18722SOL    HW156168   8.859   3.193   1.848 -1.4654 -0.5506 -0.2771
18722SOL    HW256169   8.746   3.310   1.837  0.1653  1.0678  0.1605
18723SOL     OW56170   4.101   2.623   1.894  0.1343 -0.2238 -0.4105
18723SOL    HW156171   4.038   2.620   1.817  1.1301 -0.1376 -1.2328
18723SOL    HW256172   4.147   2.535   1.904  0.2419 -0.1352 -0.1144
18724SOL     OW56173   1.778   2.550   2.830 -0.2579 -0.0550  0.1019
18724SOL    HW156174   1.862   2.603   2.817 -1.1398  1.6348  1.1459
18724SOL    HW256175   1.796   2.476   2.894  0.9537 -0.9918 -1.2726
18725SOL     OW56176   0.404   2.519   6.375 -0.3137 -0.6014  0.6201
18725SOL    HW156177   0.359   2.436   6.407  0.0877 -0.6432  1.0806
18725SOL    HW256178   0.368   2.597   6.426  0.1330 -0.6352  0.9915
18726SOL     OW56179   2.765   7.262   2.290  0.1416  0.4272  0.0390
18726SOL    HW156180   2.732   7.183   2.342 -0.1660  0.6052  0.1191
18726SOL    HW256181   2.702   7.339   2.304  0.2286  0.5693 -0.3448
18728SOL     OW56182   6.868   1.586   3.502  0.3836  0.5952  0.5643
18728SOL    HW156183   6.927   1.506   3.490 -0.8086 -0.2596  0.2848
18728SOL    HW256184   6.919   1.669   3.478  1.0735 -0.2308 -0.8944
18729SOL     OW56185   2.685   2.906   0.474  0.2070 -0.0448  0.8133
18729SOL    HW156186   2.740   2.929   0.554 -0.4900  1.1737  0.9681
18729SOL    HW256187   2.710   2.816   0.440  1.2942 -0.0954  1.7315
18730SOL     OW56188   1.774   1.607   3.298 -0.2204  0.0413  0.3507
18730SOL    HW156189   1.711   1.677   3.265  1.4341  0.9517 -0.9530
18730SOL    HW256190   1.818   1.638   3.382  1.6070  1.2445 -1.0136
18731SOL     OW56191   6.675   5.487   1.277 -0.5792  0.1607 -0.3140
18731SOL    HW156192   6.584   5.493   1.238 -0.6763 -1.5451 -0.4087
18731SOL    HW256193   6.671   5.432   1.361  0.3554  0.1009 -0.3042
18732SOL     OW56194   0.273   5.260   3.925  1.1552  0.4250  0.2765
18732SOL    HW156195   0.236   5.172   3.954  0.7942  0.9920  1.5796
18732SOL    HW256196   0.205   5.308   3.870  1.4261 -0.1848 -0.6016
18733SOL     OW56197   1.688   1.566   2.657  0.4154 -0.2352  0.9811
18733SOL    HW156198   1.705   1.471   2.631  0.3366 -0.1881  0.7552
18733SOL    HW256199   1.714   1.627   2.582 -2.5195 -0.2719 -0.1672
18734SOL     OW56200   5.190   2.300   3.838  0.4147 -0.1513 -0.1963
18734SOL    HW156201   5.095   2.295   3.867  0.3424  0.4514 -0.3185
18734SOL    HW256202   5.226   2.392   3.857  0.5053  0.1134 -1.5820
18735SOL     OW56203   1.981   3.233   3.889 -0.0133 -0.1478  0.0304
18735SOL    HW156204   2.053   3.272   3.831  0.5714  0.7311  1.3348
18735SOL    HW256205   2.022   3.169   3.954 -0.7265 -1.4748 -0.7848
18736SOL     OW56206   1.344   2.351   5.031 -0.1500 -0.1420  0.2247
18736SOL    HW156207   1.285   2.362   4.951  1.6526  0.5751 -1.0249
18736SOL    HW256208   1.351   2.254   5.055 -1.4639 -0.2679  0.1152
18737SOL     OW56209   8.242   5.904   4.734  0.5154  0.0058 -0.2728
18737SOL    HW156210   8.275   5.953   4.815  1.2340 -0.8294 -0.0461
18737SOL    HW256211   8.183   5.964   4.680 -0.9561  0.2106  1.4970
18738SOL     OW56212   2.911   9.125   3.207  0.6835 -0.2697  0.0804
18738SOL    HW156213   2.874   9.051   3.263  1.0225 -0.7388 -0.3051
18738SOL    HW256214   2.837   9.183   3.174  0.5225  0.3222  1.4383
18739SOL     OW56215   4.176   3.764   4.083  0.2574 -0.0136  0.0756
18739SOL    HW156216   4.090   3.740   4.038  0.5911 -0.6318 -0.2356
18739SOL    HW256217   4.253   3.730   4.029  0.7415  1.7609 -0.3771
18740SOL     OW56218   6.065   2.062   4.104 -0.0346 -0.3244  0.3048
18740SOL    HW156219   6.164   2.055   4.114 -0.1545 -0.3189  1.5228
18740SOL    HW256220   6.032   1.984   4.050  0.5481 -0.6654  0.4374
18741SOL     OW56221   0.334   0.268   2.664  0.0481 -0.4110 -0.0221
18741SOL    HW156222   0.287   0.193   2.619  1.0766 -0.9397 -0.2428
18741SOL    HW256223   0.274   0.348   2.668 -0.8088 -1.0279 -0.3948
18743SOL     OW56224   6.346   0.631   1.624  0.6679 -0.3732  0.2525
18743SOL    HW156225   6.386   0.558   1.568  0.6733 -0.1537 -0.0276
18743SOL    HW256226   6.320   0.593   1.713  1.2423 -0.5840  0.3389
18744SOL     OW56227   3.308   6.389   5.451 -0.8436  0.2414  0.2922
18744SOL    HW156228   3.338   6.428   5.364 -1.6867 -1.1470 -0.6450
18744SOL    HW256229   3.376   6.323   5.483 -0.8989  0.1851  0.2936
18745SOL     OW56230   0.545   7.727   2.166  0.0503  0.0502 -0.2996
18745SOL    HW156231   0.613   7.783   2.119  0.4344 -0.5026 -0.4082
18745SOL    HW256232   0.523   7.646   2.111 -0.1366 -0.1575  0.0754
18746SOL     OW56233   1.894   9.722   2.005  0.4044  0.4730 -0.3243
18746SOL    HW156234   1.896   9.670   2.091  2.8429  2.0794  0.6470
18746SOL    HW256235   1.949   9.805   2.015  2.0430 -0.0798 -3.9812
18747SOL     OW56236   7.733   1.827   4.526  0.2183  0.0188  0.3938
18747SOL    HW156237   7.716   1.732   4.552  1.2659 -0.6724 -1.3673
18747SOL    HW256238   7.651   1.865   4.484 -1.7476  1.3811  5.1748
18748SOL     OW56239   1.588   8.254   2.227 -0.1536 -0.7315 -0.2284
18748SOL    HW156240   1.600   8.327   2.159 -1.9604 -0.2913 -0.1121
18748SOL    HW256241   1.677   8.224   2.260  0.6093  1.8302  0.1583
18749SOL     OW56242   3.489   3.119   2.883  0.0087 -0.1710  0.3302
18749SOL    HW156243   3.396   3.140   2.913  0.3088 -0.4336  1.4805
18749SOL    HW256244   3.486   3.067   2.798 -0.9147 -0.5013  0.5626
18750SOL     OW56245   8.174   0.714   6.030 -0.1000 -0.1447 -0.1012
18750SOL    HW156246   8.251   0.735   6.090 -0.9398  0.8158  0.6689
18750SOL    HW256247   8.206   0.662   5.950  1.0997 -0.9939  0.9237
18751SOL     OW56248   0.332   0.657   4.886  0.4886  0.2695 -0.2545
18751SOL    HW156249   0.335   0.695   4.794 -0.4596 -0.2209 -0.4976
18751SOL    HW256250   0.412   0.598   4.901 -0.2413 -1.0394 -1.3940
18753SOL     OW56251   1.080   8.504   2.732  0.3608 -0.0780  0.1269
18753SOL    HW156252   1.008   8.436   2.722  1.3111 -0.8232 -1.7373
18753SOL    HW256253   1.049   8.591   2.695 -0.3695  0.1812  1.3183
18754SOL     OW56254   9.092   7.618   2.966  0.6614  0.0455  0.1054
18754SOL    HW156255   9.003   7.578   2.945  1.4847 -1.5419 -0.4654
18754SOL    HW256256   9.082   7.716   2.984 -1.1427 -0.0634 -0.2499
18755SOL     OW56257   0.165   5.404   2.925  0.4147 -0.2415  0.1692
18755SOL    HW156258   0.163   5.338   2.850 -0.0222  0.1895 -0.1995
18755SOL    HW256259   0.205   5.361   3.006 -2.2620 -1.7897  0.7245
18756SOL     OW56260   3.099   0.543   0.602  0.2258  0.1035  0.2726
18756SOL    HW156261   3.190   0.521   0.637  0.1216  0.6622  0.9038
18756SOL    HW256262   3.107   0.600   0.521  0.4452 -0.1932  0.0846
18757SOL     OW56263   9.283   1.294   2.287 -0.2315 -0.4873 -0.3869
18757SOL    HW156264   9.370   1.279   2.334 -0.6289  1.1970  0.9362
18757SOL    HW256265   9.258   1.390   2.292 -2.2626 -0.9780 -0.5920
18758SOL     OW56266   1.104   4.421   3.817 -0.1780  0.1431  0.1476
18758SOL    HW156267   1.035   4.365   3.772  0.9280 -0.9993 -0.1718
18758SOL    HW256268   1.064   4.465   3.898 -0.4050 -3.3245  2.0474
18759SOL     OW56269   0.311   6.384   4.173  0.0905 -0.3414  0.0670
18759SOL    HW156270   0.306   6.475   4.215  0.5958 -0.5281  0.5332
18759SOL    HW256271   0.256   6.384   4.089 -0.4258  0.2111  0.3945
18760SOL     OW56272   3.994   0.916   3.046  0.3889  0.0350  0.1975
18760SOL    HW156273   4.020   0.936   2.951 -1.0416  1.5516  0.1164
18760SOL    HW256274   4.052   0.969   3.108 -1.5742  2.4289  0.0455
18761SOL     OW56275   0.622   5.709   1.389 -0.0572  0.1321 -0.0661
18761SOL    HW156276   0.604   5.624   1.339 -0.3741  0.2295 -0.1190
18761SOL    HW256277   0.639   5.783   1.325 -0.6808  0.3045 -0.0321
18762SOL     OW56278   6.041   9.307   6.223 -0.5321  0.0013 -0.2450
18762SOL    HW156279   6.074   9.400   6.240 -0.1941  0.1784 -1.8054
18762SOL    HW256280   5.986   9.277   6.300  1.9974  0.2829  1.7502
18763SOL     OW56281   1.866   7.727   4.209  0.6861 -0.2887  0.1209
18763SOL    HW156282   1.878   7.805   4.148 -1.4594  0.5538  0.7136
18763SOL    HW256283   1.818   7.757   4.292 -1.0889 -2.4200 -0.0946
18764SOL     OW56284   9.399   8.359   3.419  0.1713 -0.5773 -0.3880
18764SOL    HW156285   9.308   8.345   3.459  0.1091  1.0662  0.0871
18764SOL    HW256286   9.421   8.457   3.419  1.0011 -0.7273 -2.5771
18765SOL     OW56287   2.424   8.282   1.281  0.4083 -0.6539  0.0537
18765SOL    HW156288   2.413   8.377   1.253  1.2128 -0.3917  0.6057
18765SOL    HW256289   2.441   8.225   1.201  2.5290  0.0611 -0.0270
18766SOL     OW56290   1.586   5.847   2.937 -0.2429  0.0194  0.3529
18766SOL    HW156291   1.507   5.908   2.942 -0.2349 -0.0801  2.0512
18766SOL    HW256292   1.569   5.777   2.868 -1.8128 -0.2376  0.9685
18767SOL     OW56293   9.835   4.778   3.096  0.2334 -0.0863  0.2918
18767SOL    HW156294   9.903   4.769   3.024 -1.0676 -1.0792 -0.8445
18767SOL    HW256295   9.765   4.706   3.085  0.0388 -0.2595  2.5505
18768SOL     OW56296   2.481   3.476   5.389  1.1889 -0.2504 -0.2074
18768SOL    HW156297   2.482   3.563   5.438 -0.8320 -1.2006  1.5685
18768SOL    HW256298   2.406   3.476   5.323  0.0148 -1.3175  1.1008
18769SOL     OW56299   0.571   6.013   2.442  0.1426  0.7793  0.0941
18769SOL    HW156300   0.482   6.050   2.417  0.1923  0.1857 -1.0379
18769SOL    HW256301   0.588   6.028   2.539 -0.9564  1.3703  0.2046
18770SOL     OW56302   9.117   9.953   5.482  0.0874 -0.1522 -0.0569
18770SOL    HW156303   9.204   9.912   5.457  0.5202  1.2550 -0.8825
18770SOL    HW256304   9.058   9.883   5.524  0.8051 -1.6043 -1.4312
18771SOL     OW56305   1.425   3.336   2.200 -0.7542 -0.6871  0.0130
18771SOL    HW156306   1.504   3.318   2.258  0.3809 -1.8618 -1.8424
18771SOL    HW256307   1.359   3.392   2.250  1.2286  0.2968  1.5901
18772SOL     OW56308   4.607   4.353   5.583 -0.0234 -0.6132  0.1080
18772SOL    HW156309   4.624   4.258   5.557  0.8786 -0.7724  1.2556
18772SOL    HW256310   4.576   4.404   5.503 -1.0630 -1.9997 -0.3843
18773SOL     OW56311   5.382   1.852   3.905 -0.0683  0.4300  0.3670
18773SOL    HW156312   5.427   1.930   3.948  0.9510  1.3215 -2.2449
18773SOL    HW256313   5.303   1.884   3.852  1.9405  0.1383 -2.9833
18776SOL     OW56314   3.369   3.458   2.429  0.2303  0.1042 -0.0816
18776SOL    HW156315   3.363   3.542   2.374 -0.8930  0.0566 -0.0414
18776SOL    HW256316   3.348   3.480   2.524  1.9890  0.1513  0.3246
18777SOL     OW56317   3.015   9.026   0.794  0.5453  0.6790  0.1596
18777SOL    HW156318   3.097   9.004   0.847 -0.7259 -1.6063  1.2441
18777SOL    HW256319   2.993   8.949   0.733 -1.7355  0.5033  1.1340
18778SOL     OW56320   3.292   1.157   4.375 -0.2709 -0.5204  0.3957
18778SOL    HW156321   3.203   1.113   4.387  0.2172 -1.5585  0.1678
18778SOL    HW256322   3.313   1.163   4.277  1.2896 -3.0255  0.5512
18779SOL     OW56323   6.521   3.297   1.235  0.1444 -0.0238 -0.3022
18779SOL    HW156324   6.597   3.348   1.275 -0.0795  1.4991 -1.7502
18779SOL    HW256325   6.460   3.360   1.188 -0.1970 -1.6145 -2.0657
18781SOL     OW56326   5.843   8.686   6.131  0.4444 -0.5400  0.4718
18781SOL    HW156327   5.901   8.672   6.210  1.0950 -0.4258  0.0216
18781SOL    HW256328   5.896   8.729   6.058 -0.3328  0.0410  0.2327
18782SOL     OW56329   7.830   6.502   2.310 -0.1830 -0.1724 -0.0945
18782SOL    HW156330   7.775   6.541   2.384 -1.7106 -0.1338 -1.2280
18782SOL    HW256331   7.895   6.571   2.277 -1.0775  0.5537 -0.3363
18783SOL     OW56332   1.885   1.780   0.005  0.1847  0.0379 -0.2899
18783SOL    HW156333   1.860   1.691   0.043 -0.2699 -0.2924 -1.3428
18783SOL    HW256334   1.980   1.802   0.030 -0.5068  0.4455  2.1378
18785SOL     OW56335   2.830   6.288   4.306 -0.0123  0.6836 -0.2301
18785SOL    HW156336   2.833   6.197   4.265 -0.3528  0.1591  0.8902
18785SOL    HW256337   2.914   6.305   4.356 -0.0649  0.8743 -0.2067
18787SOL     OW56338   8.253   5.768   6.117 -0.4020 -0.2682  0.1056
18787SOL    HW156339   8.204   5.853   6.134 -0.5571 -0.1487 -0.9098
18787SOL    HW256340   8.240   5.740   6.022 -1.3165 -2.0497  0.7235
18788SOL     OW56341   9.389   1.720   0.425 -0.2237  0.0746 -0.2632
18788SOL    HW156342   9.421   1.756   0.338 -0.1980  0.8873  0.0860
18788SOL    HW256343   9.289   1.728   0.431 -0.0089  2.2079  0.7689
18789SOL     OW56344   0.030   1.512   0.044 -0.4373 -0.6041  0.7586
18789SOL    HW156345   0.121   1.543   0.072 -0.8919  1.7819 -0.2864
18789SOL    HW256346   0.035   1.416   0.015  1.4392 -0.9272  2.0910
18790SOL     OW56347   3.138   5.332   3.970 -0.5735 -0.0300  0.2225
18790SOL    HW156348   3.155   5.297   3.878 -2.1901  0.2082 -0.1931
18790SOL    HW256349   3.093   5.262   4.025  0.5528 -0.2343  0.8950
18791SOL     OW56350   0.378   5.873   5.881  0.1829  0.4862  0.2226
18791SOL    HW156351   0.375   5.890   5.979  0.2578 -0.0760  0.3276
18791SOL    HW256352   0.394   5.958   5.832 -0.8465  0.9256  0.6425
18793SOL     OW56353   7.005   7.574   3.330  0.9191 -0.3297  0.3171
18793SOL    HW156354   7.043   7.664   3.350  1.0252 -0.7794  2.2847
18793SOL    HW256355   7.065   7.503   3.367 -0.7735 -1.0982  1.7358
18794SOL     OW56356   0.953   9.023   1.814  0.3110 -0.6505  0.2000
18794SOL    HW156357   0.985   9.054   1.725  0.3295  1.4141  0.8945
18794SOL    HW256358   0.905   8.936   1.804  0.6234 -0.6175 -1.7585
18795SOL     OW56359   8.935   6.619   4.798 -0.3473  0.3717 -0.1839
18795SOL    HW156360   8.944   6.530   4.843  0.2317 -0.0991 -1.2094
18795SOL    HW256361   8.942   6.606   4.699  0.3645  1.6448 -0.2987
18796SOL     OW56362   6.654   3.786   0.994 -0.1414  0.7063  0.8534
18796SOL    HW156363   6.701   3.861   1.041 -1.2466  0.7865  1.8650
18796SOL    HW256364   6.673   3.700   1.042  1.4255  0.2605 -0.5209
18797SOL     OW56365   7.234   6.856   4.714  0.3136 -0.1707 -0.0785
18797SOL    HW156366   7.281   6.767   4.709 -1.6416 -1.3980  2.1790
18797SOL    HW256367   7.271   6.908   4.791  2.1243  1.4462 -1.9722
18799SOL     OW56368   5.855   1.740   3.153 -0.4141 -0.4813 -0.1930
18799SOL    HW156369   5.897   1.654   3.184 -0.1472 -0.0562  0.6364
18799SOL    HW256370   5.875   1.812   3.219  0.0720  0.4251 -1.3071
18800SOL     OW56371   9.773   2.482   3.787 -0.6661  0.2712 -0.1331
18800SOL    HW156372   9.776   2.448   3.693  0.0719  0.4003 -0.1606
18800SOL    HW256373   9.824   2.568   3.792  0.3980 -0.3976  0.6558
18801SOL     OW56374   0.669   0.971   2.846  0.1276  0.3059 -0.7881
18801SOL    HW156375   0.683   1.049   2.785 -0.2414  1.6439  0.8294
18801SOL    HW256376   0.571   0.961   2.866  0.5120  1.8097  2.0732
18802SOL     OW56377   9.723   2.094   4.796  0.4819 -0.2263  0.0846
18802SOL    HW156378   9.641   2.084   4.852 -0.7287  1.6685 -1.2949
18802SOL    HW256379   9.804   2.088   4.854 -0.7204  1.2638  1.9786
18803SOL     OW56380   0.743   4.519   4.787  0.2745  0.2148 -0.4646
18803SOL    HW156381   0.825   4.526   4.844 -0.4666  0.0578  0.6290
18803SOL    HW256382   0.715   4.423   4.780 -1.1553  0.5126  1.0787
18804SOL     OW56383   0.919   3.054   1.581 -0.0367  0.3985 -0.1743
18804SOL    HW156384   0.897   3.151   1.582 -2.5354 -0.1436  1.9135
18804SOL    HW256385   1.012   3.040   1.616 -0.1849  1.9127  0.8582
18806SOL     OW56386   7.638   4.236   5.489 -0.0843 -0.1287  0.3786
18806SOL    HW156387   7.647   4.181   5.406 -0.2459  0.8837 -0.3299
18806SOL    HW256388   7.542   4.259   5.504 -0.0926 -0.5872  1.0344
18807SOL     OW56389   4.940   6.045   2.511  0.3527  0.0475  0.1029
18807SOL    HW156390   4.982   6.125   2.468  1.4234 -0.4526  0.1937
18807SOL    HW256391   4.897   6.072   2.597  2.4470  0.1960  1.1509
18808SOL     OW56392   3.129   4.112   4.858  0.0824 -0.4913 -0.0078
18808SOL    HW156393   3.146   4.208   4.881  0.6178 -0.2733 -1.2892
18808SOL    HW256394   3.165   4.054   4.931 -1.4257  0.3076  1.4361
18809SOL     OW56395   9.374   5.386   3.605  0.1510 -0.2476  0.0466
18809SOL    HW156396   9.427   5.303   3.619  1.0202  0.3229  0.2155
18809SOL    HW256397   9.403   5.455   3.672 -1.4801 -0.2417  0.7812
18810SOL     OW56398   1.479   4.747   1.337 -0.2103  0.3438  0.4224
18810SOL    HW156399   1.520   4.697   1.260  0.3016 -0.3915  1.1670
18810SOL    HW256400   1.394   4.790   1.307  0.0826  0.2255 -0.6115
18811SOL     OW56401   3.053   4.516   3.922  0.0248 -0.3968  0.6198
18811SOL    HW156402   2.955   4.516   3.900  0.3485  0.1703 -0.8901
18811SOL    HW256403   3.105   4.498   3.839  1.2437  0.1181  1.2681
18812SOL     OW56404   2.972   4.828   2.560  0.3580 -0.2463 -0.2462
18812SOL    HW156405   2.885   4.842   2.512  0.8482 -0.3354 -1.1882
18812SOL    HW256406   2.956   4.818   2.658 -0.6445  0.1947 -0.3653
18813SOL     OW56407   2.437   6.963   1.135 -0.3770 -0.1680 -0.0172
18813SOL    HW156408   2.487   6.878   1.152 -2.0905 -0.8521  1.7333
18813SOL    HW256409   2.492   7.040   1.167 -0.7541 -0.9747  2.6848
18814SOL     OW56410   9.408   9.398   6.393 -0.2898  0.0589  0.1331
18814SOL    HW156411   9.454   9.470   6.445 -1.4166  0.6646  0.3218
18814SOL    HW256412   9.459   9.313   6.400 -0.0090  0.3385  1.5707
18816SOL     OW56413   8.262   0.344   2.285 -0.1178  0.1988 -0.1904
18816SOL    HW156414   8.254   0.339   2.186 -0.1427  2.0507 -0.2965
18816SOL    HW256415   8.352   0.381   2.310 -0.3022  0.2107  0.4727
18817SOL     OW56416   2.479   8.917   6.013  0.1387 -0.4389 -0.7630
18817SOL    HW156417   2.481   8.838   5.953  0.7183 -1.7513  0.9310
18817SOL    HW256418   2.517   8.892   6.102  1.4736  2.0735 -0.5778
18818SOL     OW56419   8.987   7.143   4.608  0.3647 -0.7219  0.4886
18818SOL    HW156420   8.966   7.183   4.697 -0.1697 -0.2381  0.1491
18818SOL    HW256421   8.940   7.195   4.536 -0.7664 -2.2775  0.0786
18819SOL     OW56422   7.902   1.202   4.189 -0.2970  0.4206  0.0350
18819SOL    HW156423   7.804   1.206   4.167 -0.4165 -0.4431  0.3955
18819SOL    HW256424   7.917   1.238   4.281 -0.4822 -0.9109  0.5922
18820SOL     OW56425   8.901   2.857   4.859 -0.2733 -0.6841  0.3755
18820SOL    HW156426   8.908   2.773   4.913 -0.6588 -1.1121 -0.2306
18820SOL    HW256427   8.874   2.834   4.766  2.1837 -0.1160 -0.5033
18821SOL     OW56428   1.071   0.265   0.880  0.6173 -0.0664 -0.3330
18821SOL    HW156429   1.110   0.330   0.946 -0.1795 -0.1055  0.1828
18821SOL    HW256430   1.001   0.209   0.925 -0.2128  0.1697 -1.3088
18822SOL     OW56431   4.638   2.805   5.248 -0.6056 -0.5041 -0.4175
18822SOL    HW156432   4.666   2.778   5.156 -1.7192 -2.7215 -0.1359
18822SOL    HW256433   4.696   2.760   5.316  1.5158  2.6454  0.0129
18823SOL     OW56434   0.761   3.164   6.032  0.3703  0.1167 -0.1166
18823SOL    HW156435   0.770   3.262   6.050 -1.8445  0.6268 -1.6285
18823SOL    HW256436   0.852   3.121   6.035  1.4170  2.2952  0.0395
18824SOL     OW56437   9.021   8.171   5.845 -0.0307  0.4736  0.1697
18824SOL    HW156438   8.955   8.101   5.874 -1.1353  1.9081  1.1816
18824SOL    HW256439   9.042   8.158   5.748 -3.5378  1.2800 -0.7966
18825SOL     OW56440   6.834   3.294   0.257 -0.0954 -0.3219  0.4413
18825SOL    HW156441   6.778   3.356   0.311  0.6159  1.8778 -1.2523
18825SOL    HW256442   6.777   3.248   0.188 -0.3804 -0.5308  0.8163
18826SOL     OW56443   0.201   3.887   1.944 -0.0195  0.0614  0.1929
18826SOL    HW156444   0.214   3.824   1.867  0.3397  0.6338 -0.2111
18826SOL    HW256445   0.180   3.834   2.027  1.3190 -0.6638  0.0830
18828SOL     OW56446   3.401   1.764   0.367  0.4098  0.3255 -0.4236
18828SOL    HW156447   3.435   1.773   0.274  0.6821  1.2737 -0.2359
18828SOL    HW256448   3.462   1.813   0.430  0.8401 -1.2137  0.3857
18830SOL     OW56449   7.301   1.865   2.376 -0.1386  0.3499  0.2874
18830SOL    HW156450   7.252   1.936   2.325 -0.4435 -0.7498 -0.9598
18830SOL    HW256451   7.340   1.906   2.459  0.3874  2.1685 -0.8045
18831SOL     OW56452   0.882   6.150   5.001  0.4579 -0.1480  0.1221
18831SOL    HW156453   0.852   6.229   5.054 -1.7640 -0.6408 -0.3385
18831SOL    HW256454   0.817   6.132   4.928  0.4156 -2.9632  0.7793
18832SOL     OW56455   0.023   1.831   2.455 -0.0278 -0.6752  0.1621
18832SOL    HW156456  -0.066   1.861   2.420  0.3120 -0.9991 -1.0014
18832SOL    HW256457   0.077   1.791   2.381  1.8195  1.1772  0.4665
18833SOL     OW56458   3.840   5.514   1.572 -0.7036 -0.2742  0.2441
18833SOL    HW156459   3.917   5.531   1.510 -0.7955  1.8302  0.6796
18833SOL    HW256460   3.791   5.600   1.589 -3.2960 -1.6223 -0.1966
18834SOL     OW56461   2.687   8.193   2.683  0.4399 -0.2219  0.5145
18834SOL    HW156462   2.609   8.179   2.744 -1.4146  0.7715 -1.5910
18834SOL    HW256463   2.690   8.119   2.616  0.6849  0.3065 -0.0593
18835SOL     OW56464   6.640   1.865   4.187 -0.0354  0.1184  0.3481
18835SOL    HW156465   6.549   1.831   4.212  0.8869 -1.2759  1.9283
18835SOL    HW256466   6.651   1.959   4.221 -0.9855  0.3889 -0.0907
18836SOL     OW56467   6.368   1.490   0.631 -0.3281  0.2872 -0.0842
18836SOL    HW156468   6.287   1.441   0.598 -1.0800  0.0970  1.9399
18836SOL    HW256469   6.339   1.576   0.673  0.5205  0.2508  0.5907
18838SOL     OW56470   8.403   7.492   4.705 -0.0190 -0.0054 -0.0834
18838SOL    HW156471   8.377   7.496   4.802 -0.0701  1.2204 -0.1401
18838SOL    HW256472   8.499   7.464   4.698  0.5181  1.6155  0.4221
18839SOL     OW56473   2.984   2.056   5.526  0.0267  0.3552 -0.3288
18839SOL    HW156474   2.988   1.959   5.503  1.1629  0.5326 -0.9286
18839SOL    HW256475   3.035   2.073   5.611  0.0298  0.4559 -0.3498
18840SOL     OW56476   0.938   4.876   2.492  0.0038 -0.1868 -0.0733
18840SOL    HW156477   0.842   4.853   2.510  0.6734 -1.1891  2.3721
18840SOL    HW256478   0.973   4.933   2.567  1.5101 -0.3799 -0.6168
18841SOL     OW56479   0.658   9.272   1.425  0.2421 -0.6787  0.2826
18841SOL    HW156480   0.676   9.327   1.343 -0.0087 -2.1491 -0.7903
18841SOL    HW256481   0.710   9.186   1.419  1.0213 -0.3613  2.1626
18842SOL     OW56482   6.403   8.905   3.447  0.7426  0.0404  0.9207
18842SOL    HW156483   6.392   8.827   3.508 -0.0702  0.0716  0.8233
18842SOL    HW256484   6.330   8.904   3.379  0.3782  1.2059  1.2787
18843SOL     OW56485   2.747   2.181   2.213  0.4305  0.2202  0.0855
18843SOL    HW156486   2.812   2.237   2.264  0.2839  1.2519 -0.8271
18843SOL    HW256487   2.737   2.219   2.121 -1.1233 -0.2029  0.0748
18844SOL     OW56488   1.796   5.223   1.921  0.4433  0.7674 -0.1203
18844SOL    HW156489   1.752   5.283   1.855  1.8657  0.1054 -1.6980
18844SOL    HW256490   1.767   5.129   1.905 -0.3091  0.7861  1.1171
18845SOL     OW56491   3.776   5.900   6.074  0.2324  0.2842  0.2911
18845SOL    HW156492   3.681   5.914   6.046  1.4780 -0.9921 -5.1009
18845SOL    HW256493   3.820   5.989   6.086 -0.6294  0.8988 -0.9994
18846SOL     OW56494   3.804   2.917   3.243  0.1728  0.0119  0.0770
18846SOL    HW156495   3.752   2.976   3.181 -1.6186 -0.9579  0.6480
18846SOL    HW256496   3.897   2.906   3.206 -0.0590  1.5674 -1.0615
18847SOL     OW56497   0.766   4.147   3.410  0.6256  0.0453  0.5563
18847SOL    HW156498   0.805   4.208   3.341 -0.3123 -0.6232 -0.5821
18847SOL    HW256499   0.837   4.086   3.445  0.9861  0.0149 -0.2191
18848SOL     OW56500   8.706   3.048   3.396  0.0322 -0.2209 -0.0508
18848SOL    HW156501   8.801   3.075   3.379 -0.7050  0.8444 -2.7083
18848SOL    HW256502   8.657   3.125   3.437  0.0814 -0.4538  0.4452
18849SOL     OW56503   6.838   7.132   6.344  0.0626  0.0083  0.0111
18849SOL    HW156504   6.770   7.074   6.300 -1.0839  1.0130  0.4267
18849SOL    HW256505   6.800   7.223   6.358  1.2311  0.3674  0.9505
18850SOL     OW56506   8.239   3.528   2.027 -0.1967 -0.4790 -0.3180
18850SOL    HW156507   8.176   3.540   2.104 -0.0169 -0.9943 -0.0862
18850SOL    HW256508   8.315   3.468   2.055  0.7705  0.6985 -0.3827
18852SOL     OW56509   1.160   1.401   4.533  0.3001 -0.4320  0.5052
18852SOL    HW156510   1.064   1.376   4.525  0.0672 -0.1106  2.1156
18852SOL    HW256511   1.214   1.347   4.468 -0.9994 -0.3736 -0.6326
18853SOL     OW56512   0.890   5.204   5.266  0.4792 -0.3607  0.0371
18853SOL    HW156513   0.989   5.206   5.278  0.3078  0.6228  1.4177
18853SOL    HW256514   0.845   5.221   5.354 -0.9360 -1.9215 -0.3467
18854SOL     OW56515   4.242   0.385   4.280  0.6027  0.1938  0.2268
18854SOL    HW156516   4.282   0.454   4.220  0.8534  0.0863  0.2685
18854SOL    HW256517   4.154   0.354   4.242  1.9290 -1.6804 -1.4112
18855SOL     OW56518   1.770   5.784   2.624  0.7297  0.4296  0.5706
18855SOL    HW156519   1.867   5.782   2.648  1.4146 -0.7047 -2.1316
18855SOL    HW256520   1.723   5.710   2.671  2.1935 -2.2386 -1.9588
18856SOL     OW56521   2.944   2.352   6.212 -0.3109 -0.5383  0.0882
18856SOL    HW156522   2.956   2.449   6.190  1.7351 -0.6879  0.4126
18856SOL    HW256523   2.868   2.315   6.160 -2.6237  1.7930  1.6675
18857SOL     OW56524   4.366   9.894   2.257  0.3232  0.3709  0.6050
18857SOL    HW156525   4.310   9.822   2.216 -0.9131  1.7399 -0.1676
18857SOL    HW256526   4.454   9.900   2.210 -0.4139  0.7779 -0.7433
18858SOL     OW56527   6.553   2.434   4.920 -0.3523  0.4889  0.1976
18858SOL    HW156528   6.536   2.475   4.831  0.6682  2.6889  0.9800
18858SOL    HW256529   6.643   2.390   4.920 -0.2254  0.7499  0.2402
18859SOL     OW56530   7.657   6.043   0.055 -0.1456 -0.2523 -0.0122
18859SOL    HW156531   7.605   6.127   0.073  0.8905  0.3007  0.4477
18859SOL    HW256532   7.605   5.964   0.084 -0.1516  0.3847  1.7534
18860SOL     OW56533   9.981   7.405   4.024 -0.5181 -0.2671 -0.4127
18860SOL    HW156534  10.054   7.393   4.091 -0.7009  0.6587 -0.0525
18860SOL    HW256535   9.912   7.467   4.060 -1.5022 -1.1569 -0.7426
18861SOL     OW56536   4.857   6.649   0.748  1.2474  0.1772  0.3527
18861SOL    HW156537   4.799   6.664   0.668 -0.1645  1.3495  1.5701
18861SOL    HW256538   4.844   6.724   0.813  0.9653 -1.7135  2.5270
18862SOL     OW56539   2.022   7.910   0.281 -0.1453 -0.0629  0.5932
18862SOL    HW156540   2.063   7.842   0.220  0.1442  0.0653  0.6457
18862SOL    HW256541   1.944   7.952   0.235 -0.2840 -0.3811  0.5347
18863SOL     OW56542   9.569   1.108   1.396 -0.4791 -0.0023  0.5045
18863SOL    HW156543   9.539   1.025   1.443 -2.1319  1.0478  1.3655
18863SOL    HW256544   9.523   1.187   1.437  0.9520  1.3169 -0.4049
18865SOL     OW56545   9.422   6.858   1.477  0.4082  0.1325  0.1019
18865SOL    HW156546   9.414   6.956   1.496 -3.3209 -0.1085  0.2287
18865SOL    HW256547   9.411   6.807   1.563 -2.3648 -0.4853 -0.5544
18867SOL     OW56548   2.380   3.844   3.812 -0.1288 -0.1093 -0.1213
18867SOL    HW156549   2.296   3.860   3.863  0.0139  0.6530 -0.1043
18867SOL    HW256550   2.425   3.761   3.844  0.7533  1.1786  2.0736
18868SOL     OW56551   1.794   2.823   5.365  0.2207  0.0446 -0.1658
18868SOL    HW156552   1.875   2.835   5.307  1.3150 -0.0869  1.2996
18868SOL    HW256553   1.788   2.728   5.395 -0.5535  0.0254 -0.3766
18869SOL     OW56554   5.631   3.992   0.118  0.0118  0.1537 -0.5029
18869SOL    HW156555   5.572   3.968   0.041 -1.5822 -0.6230  0.9446
18869SOL    HW256556   5.608   3.935   0.197  0.8079  1.7852  0.9260
18871SOL     OW56557   3.482   4.254   2.340 -0.6599 -0.1255  0.2301
18871SOL    HW156558   3.450   4.345   2.315 -1.4326 -0.8709 -1.5616
18871SOL    HW256559   3.497   4.200   2.258  2.8407 -0.6211  1.1209
18872SOL     OW56560   3.281   4.141   3.420 -0.6804  0.4869  0.0767
18872SOL    HW156561   3.267   4.120   3.323  0.4161  2.3156 -0.5030
18872SOL    HW256562   3.369   4.105   3.450  0.5947  2.8859 -0.5744
18873SOL     OW56563   5.741   9.245   3.648 -0.5412 -0.0467  0.3312
18873SOL    HW156564   5.776   9.173   3.589 -2.0833 -0.8188  0.3212
18873SOL    HW256565   5.642   9.253   3.636 -0.2910  2.6452 -0.2762
18874SOL     OW56566   3.345   8.134   6.289 -0.2178 -0.4656 -0.0467
18874SOL    HW156567   3.331   8.232   6.277 -2.3419 -0.6319  0.8378
18874SOL    HW256568   3.258   8.086   6.276  0.6169 -2.1514  0.4129
18875SOL     OW56569   9.406  10.004   6.138  0.4247 -0.4162 -0.2721
18875SOL    HW156570   9.397  10.020   6.237 -1.4890 -0.5370 -0.4223
18875SOL    HW256571   9.434   9.909   6.123  1.0134 -0.3175  0.1585
18877SOL     OW56572   0.813   9.309   5.000 -0.3411 -0.2651  0.0063
18877SOL    HW156573   0.840   9.350   5.088  1.2971 -0.6348 -0.3031
18877SOL    HW256574   0.819   9.210   5.007  3.1941 -0.2212 -1.5307
18878SOL     OW56575   4.279   2.980   0.022  0.8302  1.0415 -0.4497
18878SOL    HW156576   4.188   2.961  -0.014 -0.0193 -1.2062  2.7785
18878SOL    HW256577   4.282   3.074   0.057 -0.1830  1.1709 -0.6972
18879SOL     OW56578   4.637   3.638   6.204  0.0520  0.0398  0.6206
18879SOL    HW156579   4.541   3.621   6.181  0.5849  0.9721 -2.5440
18879SOL    HW256580   4.674   3.560   6.256 -2.4400 -0.2092  2.0986
18880SOL     OW56581   0.115   4.620   5.612  0.1028 -0.6836 -0.4791
18880SOL    HW156582   0.205   4.663   5.615  0.2615 -0.9751 -1.0179
18880SOL    HW256583   0.047   4.688   5.584  0.3347 -0.7466 -1.2158
18881SOL     OW56584   2.314   2.487   0.994 -0.0794 -0.3341  0.0817
18881SOL    HW156585   2.254   2.553   0.949 -1.0349 -1.1052  0.1912
18881SOL    HW256586   2.391   2.466   0.934 -0.3710  0.0232 -0.4212
18882SOL     OW56587   3.448   0.236   2.183 -0.1541 -0.1041  0.6715
18882SOL    HW156588   3.542   0.259   2.210  0.2544 -0.4214 -0.4583
18882SOL    HW256589   3.429   0.273   2.092 -1.2856  0.3540  1.0846
18883SOL     OW56590   3.690   6.460   4.401  0.1666  0.1922 -0.2593
18883SOL    HW156591   3.688   6.378   4.343 -0.5954 -0.7764  1.0808
18883SOL    HW256592   3.612   6.457   4.464  0.6109  1.5411  0.3586
18884SOL     OW56593   8.271   3.635   3.169 -0.1689  0.2609 -0.5012
18884SOL    HW156594   8.277   3.722   3.218  0.1640  0.8979 -1.6460
18884SOL    HW256595   8.363   3.597   3.159 -0.0953  0.7195 -1.6492
18885SOL     OW56596   0.231   4.807   5.307 -0.3312  0.0714  0.6166
18885SOL    HW156597   0.230   4.862   5.223 -0.8453 -0.6004  0.1741
18885SOL    HW256598   0.239   4.868   5.386  1.5547  0.6321  0.0272
18886SOL     OW56599   9.645   1.410   6.438  0.2246 -0.4057 -0.0132
18886SOL    HW156600   9.626   1.500   6.397 -0.3285 -0.0336  1.0661
18886SOL    HW256601   9.620   1.411   6.534  1.5494 -1.2861  0.3555
18887SOL     OW56602   8.397   8.929   2.125 -0.1927 -0.2453 -0.1149
18887SOL    HW156603   8.400   8.847   2.183 -0.9603  0.2173  0.5770
18887SOL    HW256604   8.314   8.981   2.145  0.6259  1.0475 -0.0959
18888SOL     OW56605   4.640   0.504   3.848  0.7235 -0.5413 -0.0749
18888SOL    HW156606   4.568   0.572   3.864 -0.6016 -2.2528  1.4443
18888SOL    HW256607   4.716   0.547   3.798  0.2361  2.2400  1.4313
18890SOL     OW56608   8.140   3.773   5.129  0.2113  0.2273 -0.2504
18890SOL    HW156609   8.043   3.761   5.146  0.4775 -1.0832  0.4030
18890SOL    HW256610   8.180   3.825   5.205  0.1848 -0.0176 -0.0670
18893SOL     OW56611   6.581   0.378   1.965  0.5512  0.4776 -0.4879
18893SOL    HW156612   6.544   0.373   2.058  0.6951 -0.6160 -0.4802
18893SOL    HW256613   6.573   0.288   1.922 -0.4508  1.2281 -1.9013
18894SOL     OW56614   1.594   8.551   5.846  0.6441  0.6483  0.1567
18894SOL    HW156615   1.594   8.508   5.756  0.5041  1.9771 -0.4943
18894SOL    HW256616   1.598   8.651   5.835 -0.6640  0.8757  1.5994
18895SOL     OW56617   2.022   4.309   0.049  0.5191 -0.9595 -0.3783
18895SOL    HW156618   2.095   4.377   0.049  0.2322 -0.6209  1.2342
18895SOL    HW256619   2.019   4.264   0.138 -1.7259 -0.4105 -0.1411
18896SOL     OW56620   8.515   1.870   0.643  0.0479 -0.2572 -0.1587
18896SOL    HW156621   8.417   1.878   0.625 -0.0910 -1.1986  0.1468
18896SOL    HW256622   8.564   1.861   0.556  0.0157  1.5714 -0.4011
18897SOL     OW56623   1.545   7.434   3.644  0.0998 -0.5575  0.3989
18897SOL    HW156624   1.467   7.467   3.696 -1.9047 -1.9020 -1.6739
18897SOL    HW256625   1.551   7.334   3.652  0.5011 -0.6540 -0.9506
18898SOL     OW56626   2.264   2.094   2.524  0.1476 -0.1836  0.1863
18898SOL    HW156627   2.175   2.094   2.479 -1.3040  0.1919  2.9230
18898SOL    HW256628   2.299   2.188   2.531  1.1710 -0.4090 -1.5979
18899SOL     OW56629   2.317   5.719   1.848 -0.5067 -0.0067 -0.5339
18899SOL    HW156630   2.367   5.762   1.773 -1.9876 -0.2219 -1.6538
18899SOL    HW256631   2.257   5.647   1.813  0.7912 -1.9867  1.1517
18900SOL     OW56632   3.694   4.480   0.527 -0.1009  0.0560  0.0532
18900SOL    HW156633   3.702   4.570   0.570 -0.8854 -0.5079  1.4359
18900SOL    HW256634   3.690   4.490   0.428 -0.6484  1.5787  0.2097
18901SOL     OW56635   1.031   3.107   1.274 -0.6394  0.4075 -0.0620
18901SOL    HW156636   1.055   3.039   1.204  0.0377  1.5000 -0.9145
18901SOL    HW256637   1.041   3.066   1.364  2.2144  0.0710 -0.4591
18902SOL     OW56638   3.581   1.972   1.831  0.0337  0.2332  0.0297
18902SOL    HW156639   3.547   1.922   1.911 -1.8421 -0.0769 -0.9444
18902SOL    HW256640   3.553   1.925   1.747  2.5287  0.2051 -0.8425
18905SOL     OW56641   8.329   9.263   4.355  0.3777  0.1267  0.5043
18905SOL    HW156642   8.330   9.350   4.404 -0.8752  1.3135 -1.4907
18905SOL    HW256643   8.335   9.187   4.420  1.2717  1.6908  2.2819
18907SOL     OW56644   9.421   4.071   1.783 -0.2979 -0.2119  0.0064
18907SOL    HW156645   9.452   4.158   1.821 -0.2541 -0.3633  0.3252
18907SOL    HW256646   9.485   4.040   1.713 -0.4138  0.1025 -0.2393
18908SOL     OW56647   1.716   5.744   4.919  0.2798  1.2049  0.0766
18908SOL    HW156648   1.638   5.743   4.857  1.5929  1.5417 -1.6154
18908SOL    HW256649   1.736   5.839   4.946  0.6776  1.2160 -0.2462
18909SOL     OW56650   1.151   2.255   5.986  0.0744 -0.6791 -0.3950
18909SOL    HW156651   1.103   2.340   6.004  2.1566  0.5579 -0.4614
18909SOL    HW256652   1.236   2.253   6.038  0.4186 -2.3829 -0.9806
18910SOL     OW56653   2.306   6.156   4.866  0.1742  0.1612 -0.9791
18910SOL    HW156654   2.317   6.129   4.962  2.3196  0.8875 -0.9930
18910SOL    HW256655   2.369   6.230   4.845  1.1198 -1.2823 -3.4702
18911SOL     OW56656   4.681   4.288   2.259 -0.6293  0.1845 -0.0890
18911SOL    HW156657   4.627   4.209   2.230 -2.0099  0.8777  0.5226
18911SOL    HW256658   4.681   4.357   2.187 -0.6479  0.2207 -0.0539
18912SOL     OW56659   8.951   3.283   2.821 -0.0390 -0.7203  0.2929
18912SOL    HW156660   8.985   3.195   2.786  2.1306 -0.1200  0.8184
18912SOL    HW256661   8.951   3.350   2.747 -0.5261 -0.8321  0.1883
18913SOL     OW56662   0.552   6.416   2.879  0.0819 -0.6866 -0.0985
18913SOL    HW156663   0.608   6.343   2.918 -0.7250 -2.5038 -2.3030
18913SOL    HW256664   0.466   6.379   2.846 -1.0663  1.5637  0.2718
18914SOL     OW56665   6.636   5.873   0.688 -0.2461 -0.5931 -0.1149
18914SOL    HW156666   6.623   5.911   0.779  1.3413  0.0196 -0.1133
18914SOL    HW256667   6.588   5.786   0.680 -1.7192  0.1146  0.7702
18916SOL     OW56668   9.127   6.885   5.730  0.5713 -0.3374  0.0618
18916SOL    HW156669   9.083   6.967   5.694 -0.2999 -1.2683 -1.0696
18916SOL    HW256670   9.096   6.868   5.823 -1.3802 -0.8830 -0.6588
18918SOL     OW56671   9.518   7.084   5.585  0.3938 -0.3402  0.3450
18918SOL    HW156672   9.420   7.069   5.596  0.3284 -0.0030  0.2211
18918SOL    HW256673   9.542   7.078   5.488 -0.1141  3.1606 -0.0741
18919SOL     OW56674   7.905   1.948   4.361  0.0136  0.6073 -0.1033
18919SOL    HW156675   7.908   1.899   4.274 -0.2355 -0.1870  0.3376
18919SOL    HW256676   7.840   1.905   4.422  1.1620  0.3547  0.9650
18920SOL     OW56677   3.835   0.224   2.510  0.2813  0.3568  0.3616
18920SOL    HW156678   3.900   0.212   2.435  0.0447  0.8347  0.0761
18920SOL    HW256679   3.882   0.213   2.597  0.3060 -1.4772  0.1257
18921SOL     OW56680   2.729   2.561   2.581  0.2338 -0.1032 -0.1192
18921SOL    HW156681   2.670   2.569   2.500  0.2027  0.4201 -0.0498
18921SOL    HW256682   2.776   2.648   2.596  0.4842 -0.2998  0.2404
18922SOL     OW56683   1.344   7.931   5.883  0.2956  0.0526 -0.0184
18922SOL    HW156684   1.397   7.911   5.966  1.6216  2.4838 -0.2444
18922SOL    HW256685   1.267   7.990   5.906  0.3740  0.3204 -0.4497
18923SOL     OW56686   3.261   2.918   6.126  0.7575  0.2849  0.0245
18923SOL    HW156687   3.176   2.912   6.177  0.7340  0.3965 -0.0026
18923SOL    HW256688   3.276   3.012   6.097  0.3788  0.0863 -0.8385
18925SOL     OW56689   0.150   8.701   5.292  0.1835 -0.1354 -0.1973
18925SOL    HW156690   0.064   8.715   5.243  0.7126 -0.5167 -1.2680
18925SOL    HW256691   0.151   8.755   5.376 -0.4655  1.0815 -0.9666
18926SOL     OW56692   0.833   5.572   3.698 -0.5661  0.0463  1.2138
18926SOL    HW156693   0.854   5.517   3.779  0.2233  0.7189  1.4689
18926SOL    HW256694   0.862   5.666   3.713  1.2145 -0.2063 -0.5321
18928SOL     OW56695   1.497   8.100   1.894 -0.1108  0.2332 -0.6655
18928SOL    HW156696   1.585   8.130   1.931  0.4558 -2.6365  0.4872
18928SOL    HW256697   1.432   8.176   1.896  1.4428  1.5674  1.3791
18929SOL     OW56698   1.816   0.802   0.155  0.4242 -0.2459 -0.3420
18929SOL    HW156699   1.762   0.881   0.184  0.3528 -0.4101 -0.0136
18929SOL    HW256700   1.832   0.805   0.057 -0.4931 -0.3830 -0.4966
18930SOL     OW56701   5.556   9.794   3.394 -0.3438  0.2016 -0.2339
18930SOL    HW156702   5.559   9.705   3.439  1.4650  0.5383  0.3932
18930SOL    HW256703   5.491   9.853   3.441  1.4477  0.5127  1.9380
18931SOL     OW56704   0.530   1.796   4.349 -0.1008  0.7181 -0.4723
18931SOL    HW156705   0.561   1.804   4.254 -0.5695  3.2474 -0.4607
18931SOL    HW256706   0.577   1.864   4.405 -0.3958 -0.2449  0.9684
18932SOL     OW56707   9.371   7.281   4.077  0.5538  0.4222 -0.0179
18932SOL    HW156708   9.349   7.341   4.000  1.8219  0.9847  0.0369
18932SOL    HW256709   9.317   7.308   4.157 -0.7226 -0.1266 -0.6918
18933SOL     OW56710   0.128   8.741   1.639 -0.1352  0.2540 -0.3166
18933SOL    HW156711   0.194   8.675   1.674 -0.1609  0.9219  1.0351
18933SOL    HW256712   0.158   8.774   1.550 -0.3629 -1.9207 -1.2397
18934SOL     OW56713   2.697   1.497   3.794 -0.0344  0.3710  0.4502
18934SOL    HW156714   2.684   1.430   3.867 -1.2729  0.5919  0.4536
18934SOL    HW256715   2.719   1.586   3.834 -0.1037  0.3533  0.5281
18935SOL     OW56716   1.598   1.756   0.500  0.2085  0.0841  0.1529
18935SOL    HW156717   1.583   1.843   0.453  0.8730 -0.0303 -0.2892
18935SOL    HW256718   1.513   1.705   0.505  0.0613  0.2388 -0.6548
18936SOL     OW56719   7.191   0.984   4.496  0.4125  0.4755  0.0739
18936SOL    HW156720   7.279   0.968   4.540 -0.1539  0.6407  1.2902
18936SOL    HW256721   7.124   1.010   4.565 -0.8434 -0.6326 -0.7187
18937SOL     OW56722   3.345   5.658   5.696 -0.1432  0.0118  0.3450
18937SOL    HW156723   3.408   5.683   5.769  1.3958  0.9266 -1.2532
18937SOL    HW256724   3.322   5.561   5.704  0.2451  0.0354  1.8594
18938SOL     OW56725   9.099   7.259   6.307 -0.5255 -0.0992  0.0382
18938SOL    HW156726   9.068   7.239   6.400  0.4540 -1.1033  0.1656
18938SOL    HW256727   9.197   7.278   6.309 -0.8937  2.0341 -0.4915
18939SOL     OW56728   8.347   8.238   1.614 -0.6964  0.9383 -0.5548
18939SOL    HW156729   8.443   8.232   1.587 -0.2160  0.1784  1.2543
18939SOL    HW256730   8.300   8.305   1.557  1.1313  2.0074 -0.8368
18942SOL     OW56731   1.677   5.437   3.373 -0.1679  0.1275 -0.2567
18942SOL    HW156732   1.639   5.524   3.405 -1.5626 -0.5069 -0.1492
18942SOL    HW256733   1.606   5.366   3.377  1.1297 -1.1712  0.2693
18943SOL     OW56734   4.489   2.292   4.877 -1.0244  0.3808 -0.0628
18943SOL    HW156735   4.491   2.390   4.858  0.3962  0.7696  1.9636
18943SOL    HW256736   4.404   2.269   4.925 -1.9834  0.3644 -1.7282
18946SOL     OW56737   0.903   9.610   5.739 -0.3301 -0.1428  0.7676
18946SOL    HW156738   0.871   9.704   5.729  0.1044  0.0877  1.4765
18946SOL    HW256739   0.891   9.581   5.835 -0.0570 -0.6600  0.6472
18947SOL     OW56740   7.467   9.273   6.228 -0.3814  0.2169  0.3828
18947SOL    HW156741   7.409   9.237   6.155  2.1350  0.3583 -1.7562
18947SOL    HW256742   7.418   9.347   6.275 -2.8484 -1.2692  0.2627
18948SOL     OW56743   5.232   8.084   4.107 -0.1404 -0.5198 -0.0945
18948SOL    HW156744   5.195   8.177   4.113  0.9378 -0.2089  2.5268
18948SOL    HW256745   5.329   8.089   4.086 -0.0172 -1.0186  0.3480
18949SOL     OW56746   0.253   3.997   5.914  0.3215 -0.2167 -0.3299
18949SOL    HW156747   0.195   4.070   5.951  1.5928  0.4000  0.4591
18949SOL    HW256748   0.346   4.007   5.948  1.3345 -0.1425 -3.0242
18951SOL     OW56749   2.401   0.416   2.642  0.5810 -0.3981  0.2227
18951SOL    HW156750   2.407   0.333   2.587  1.0492 -1.0992  1.2968
18951SOL    HW256751   2.475   0.479   2.616 -0.6526  0.3334 -1.6087
18952SOL     OW56752   1.294   8.984   1.625 -0.1494 -0.0218  0.5390
18952SOL    HW156753   1.302   9.080   1.653  0.1097 -0.0666  0.6181
18952SOL    HW256754   1.272   8.928   1.705  0.9830 -0.2073  0.7260
18953SOL     OW56755   9.777   7.416   3.522  0.2742  0.0458 -0.0567
18953SOL    HW156756   9.802   7.429   3.618  1.8390 -0.9442 -0.3099
18953SOL    HW256757   9.858   7.388   3.470 -0.9125 -1.0817 -1.3462
18954SOL     OW56758   8.694   8.238   3.880  0.7545  0.3079 -0.2585
18954SOL    HW156759   8.747   8.312   3.837 -0.2829  0.4230 -1.3710
18954SOL    HW256760   8.691   8.160   3.818  1.2218 -0.4096  0.6127
18955SOL     OW56761   9.591   9.228   1.132  0.5850  0.0069  0.2940
18955SOL    HW156762   9.688   9.250   1.148  1.3919 -3.4156  0.5126
18955SOL    HW256763   9.552   9.188   1.215 -0.1197 -1.5130 -0.7429
18957SOL     OW56764   0.351   6.465   5.847  0.7606  0.8316  0.4865
18957SOL    HW156765   0.317   6.508   5.931 -0.6987 -0.3001  0.4858
18957SOL    HW256766   0.391   6.377   5.869 -0.5830  0.0525 -0.1169
18958SOL     OW56767   6.246   9.215   2.794 -0.1664  0.1817 -0.2293
18958SOL    HW156768   6.273   9.164   2.713 -0.2721 -0.4001  0.1023
18958SOL    HW256769   6.324   9.268   2.828  0.8010 -2.0937  1.1798
18959SOL     OW56770   3.399   8.126   4.975 -0.3775 -1.2738 -0.3814
18959SOL    HW156771   3.493   8.092   4.973  0.2391  0.2984  0.6289
18959SOL    HW256772   3.380   8.164   5.065 -1.3782  0.0381 -1.1240
18960SOL     OW56773   2.890   6.175   1.692  0.1208 -0.7103  0.0638
18960SOL    HW156774   2.884   6.086   1.737 -0.3787 -0.9675 -0.5116
18960SOL    HW256775   2.799   6.214   1.682  0.2342 -0.6471 -0.7137
18961SOL     OW56776   1.854   2.965   4.713 -0.1988 -0.3667  0.2241
18961SOL    HW156777   1.918   2.898   4.751 -0.7048 -0.6629  0.5484
18961SOL    HW256778   1.787   2.991   4.782 -0.0372  0.4473  0.0913
18962SOL     OW56779   4.726   3.049   4.961  0.2432 -0.3993 -0.0306
18962SOL    HW156780   4.743   3.046   5.059 -2.6758  1.8052  0.5843
18962SOL    HW256781   4.718   3.144   4.931  1.1420 -1.0423 -2.4463
18963SOL     OW56782   9.682   7.959   4.294 -0.7192  0.2272  0.4084
18963SOL    HW156783   9.646   8.027   4.357 -0.8976  0.7318 -0.2317
18963SOL    HW256784   9.774   7.932   4.322 -0.7070  0.6236  0.7452
18964SOL     OW56785   4.006   6.044   3.171 -0.0371 -0.2181 -0.4333
18964SOL    HW156786   4.000   5.950   3.203 -1.1252 -0.7758 -2.2204
18964SOL    HW256787   3.927   6.065   3.113  0.5179  1.5931 -0.5719
18965SOL     OW56788   4.243   4.930   2.049  0.1512  0.1476 -0.0708
18965SOL    HW156789   4.227   4.832   2.034 -3.0211  0.3972  1.2365
18965SOL    HW256790   4.276   4.944   2.142  0.1107  0.3559 -0.0884
18970SOL     OW56791   2.168   4.996   0.347  0.0298 -0.1565 -0.1223
18970SOL    HW156792   2.193   4.900   0.336  1.7781  0.4938 -2.1378
18970SOL    HW256793   2.114   5.027   0.269  0.3138  0.7549  0.0282
18971SOL     OW56794   5.233   0.077   3.856 -0.0338  0.0275 -0.5234
18971SOL    HW156795   5.155   0.025   3.819 -1.3064  1.5860 -0.1039
18971SOL    HW256796   5.221   0.174   3.833  1.3516  0.3995  0.3150
18973SOL     OW56797   8.701   1.632   3.248  0.2072 -0.0191  0.3433
18973SOL    HW156798   8.690   1.667   3.155 -1.0486  1.6467  1.0956
18973SOL    HW256799   8.686   1.533   3.248 -1.3860  0.1905 -0.9816
18974SOL     OW56800   4.960   3.139   0.877 -0.2521  0.7039  0.0092
18974SOL    HW156801   5.038   3.085   0.846  0.0599  0.6311  0.8955
18974SOL    HW256802   4.936   3.112   0.970 -0.2030  1.9702  0.4029
18975SOL     OW56803   0.539   5.616   3.012 -0.1659 -0.2889  0.0913
18975SOL    HW156804   0.495   5.573   2.933  0.5074 -1.8715  0.5538
18975SOL    HW256805   0.470   5.639   3.081 -0.5247 -0.6486 -0.1502
18976SOL     OW56806   7.836   3.461   0.943  0.4378 -0.7476  0.6793
18976SOL    HW156807   7.890   3.495   0.866  1.7051 -1.1634  1.3699
18976SOL    HW256808   7.897   3.425   1.013 -0.6150  1.1856  2.6447
18977SOL     OW56809   0.605   1.422   1.988 -0.8385 -0.3244 -0.3649
18977SOL    HW156810   0.598   1.396   2.084  1.2869 -2.2319 -0.6771
18977SOL    HW256811   0.513   1.431   1.949 -1.6971 -1.0941  1.4179
18978SOL     OW56812   6.956   3.140   3.467 -0.5211 -0.3112  0.2590
18978SOL    HW156813   6.967   3.220   3.527  1.4170 -0.1407 -0.2696
18978SOL    HW256814   7.027   3.073   3.489  0.2346 -0.2447 -1.8073
18980SOL     OW56815   1.197   1.195   3.285  0.1663  0.0882 -0.3173
18980SOL    HW156816   1.106   1.172   3.251  0.0135  0.3691 -0.1007
18980SOL    HW256817   1.194   1.208   3.384  0.4859 -0.1093 -0.2779
18981SOL     OW56818   0.215   0.653   1.220  0.5861  0.0930  0.4842
18981SOL    HW156819   0.247   0.560   1.200  2.1690  0.3645  1.6410
18981SOL    HW256820   0.127   0.649   1.267 -0.3441 -0.7367 -1.2903
18982SOL     OW56821   2.228   7.623   5.957 -0.5445 -0.2441 -0.0308
18982SOL    HW156822   2.268   7.706   5.917  1.1433 -0.6338  0.8099
18982SOL    HW256823   2.246   7.545   5.896 -1.0098 -0.2269 -0.1932
18983SOL     OW56824   2.952   8.542   3.839  0.0037 -0.6568 -0.4001
18983SOL    HW156825   2.954   8.474   3.766 -2.2118 -0.7059 -0.4517
18983SOL    HW256826   2.945   8.633   3.798  0.6282 -0.5575 -0.2842
18984SOL     OW56827   9.399   9.374   5.874 -0.1754  0.1346 -0.2155
18984SOL    HW156828   9.341   9.368   5.956  2.0941  1.0087  1.5257
18984SOL    HW256829   9.404   9.285   5.830 -0.0356 -0.7802  1.6084
18985SOL     OW56830   9.799   2.499   4.505 -0.2779  0.0173  0.0352
18985SOL    HW156831   9.709   2.540   4.516 -0.4184 -0.1497 -0.4860
18985SOL    HW256832   9.797   2.405   4.537 -0.4805 -0.2210 -0.6861
18986SOL     OW56833   4.029   4.776   0.575  0.7843  0.2620  0.0777
18986SOL    HW156834   4.084   4.859   0.580  0.8992  0.4307 -2.7875
18986SOL    HW256835   4.087   4.700   0.544 -0.3289  0.2200 -2.0154
18987SOL     OW56836   2.116   7.615   4.272  0.1446  0.0846  0.3328
18987SOL    HW156837   2.024   7.649   4.252 -0.7019 -1.0689  2.0919
18987SOL    HW256838   2.128   7.525   4.231  0.4878  0.2300  0.1122
18988SOL     OW56839   8.631   3.948   5.699 -0.0476 -0.5870  0.4943
18988SOL    HW156840   8.626   3.865   5.644 -0.9891  0.9363 -1.8140
18988SOL    HW256841   8.713   3.999   5.674 -0.6295  0.2537  0.2726
18989SOL     OW56842   2.247   7.898   0.479 -0.2298  0.3117  0.0374
18989SOL    HW156843   2.171   7.905   0.414 -2.0275  0.7661  2.1312
18989SOL    HW256844   2.218   7.845   0.559  1.0327  2.0848  1.7250
18990SOL     OW56845   8.033   8.269   4.144  0.3763 -0.0320 -0.3391
18990SOL    HW156846   8.057   8.267   4.241  0.6001  1.8016 -0.3500
18990SOL    HW256847   7.940   8.234   4.132  0.0193  0.5639  0.6425
18991SOL     OW56848   2.859   8.863   3.335  0.1063  0.0453  0.3434
18991SOL    HW156849   2.875   8.780   3.282  0.3433 -1.1563  2.2423
18991SOL    HW256850   2.921   8.865   3.413  0.0354  1.9779  0.3874
18992SOL     OW56851   8.351   0.987   3.643  0.9081 -0.3634  0.1285
18992SOL    HW156852   8.395   1.077   3.641 -1.4977  0.8627  0.9818
18992SOL    HW256853   8.349   0.949   3.551  1.1740  0.8313 -0.3742
18994SOL     OW56854   2.808   4.161   3.461  0.3723 -0.7099 -0.5537
18994SOL    HW156855   2.854   4.157   3.372 -0.6265 -0.5515 -1.0844
18994SOL    HW256856   2.768   4.072   3.482 -0.0287 -0.5455 -0.6102
18995SOL     OW56857   7.843   4.533   0.717  0.2352  0.6541  0.1572
18995SOL    HW156858   7.782   4.506   0.643  0.1978 -0.5438  0.6025
18995SOL    HW256859   7.792   4.531   0.804  1.0460 -0.9769  0.6172
18996SOL     OW56860   4.835   0.248   0.010  0.7404  0.0713 -0.3214
18996SOL    HW156861   4.868   0.160   0.044 -0.5165 -0.8302 -1.3973
18996SOL    HW256862   4.853   0.319   0.079 -2.2377 -1.7897  2.5045
18997SOL     OW56863   0.162   8.059   6.321  0.2171  0.2111 -0.3973
18997SOL    HW156864   0.212   7.981   6.359  0.1517  0.8623  1.0437
18997SOL    HW256865   0.064   8.041   6.323  0.2563 -0.1245 -1.1224
18998SOL     OW56866   4.831   5.059   2.234 -0.2321 -0.9692 -0.1428
18998SOL    HW156867   4.873   5.034   2.147  0.4812 -0.7068  0.1262
18998SOL    HW256868   4.845   4.987   2.301 -1.1404 -1.3571 -0.3547
18999SOL     OW56869   0.034   4.080   5.470  0.1209  0.2631  0.6981
18999SOL    HW156870   0.121   4.032   5.480 -0.7730 -1.3842  0.8771
18999SOL    HW256871   0.007   4.082   5.374  0.6895  1.3764  0.5640
19000SOL     OW56872   3.918   3.516   6.213 -0.4214 -0.3649  0.0645
19000SOL    HW156873   3.992   3.464   6.170  0.1010  0.6971 -0.3429
19000SOL    HW256874   3.878   3.462   6.287  0.9976 -0.8164  0.5231
19001SOL     OW56875   9.122   0.717   0.439  0.3716 -0.6552  0.2801
19001SOL    HW156876   9.104   0.726   0.537  0.5378 -1.3314  0.3759
19001SOL    HW256877   9.100   0.803   0.393  2.2036  0.3603  1.2133
19002SOL     OW56878   0.218   7.106   3.940 -0.2595 -0.1138  0.3163
19002SOL    HW156879   0.263   7.169   3.876 -1.7296  0.7892  0.1674
19002SOL    HW256880   0.224   7.013   3.903 -0.5412  0.3120 -0.8259
19003SOL     OW56881   8.024   3.660   3.089 -0.1564  0.1100  0.1777
19003SOL    HW156882   8.113   3.635   3.129  0.1974  0.7933 -0.1872
19003SOL    HW256883   8.010   3.608   3.005  0.7425  1.3991 -0.7759
19004SOL     OW56884   7.298   3.775   1.960 -0.1792 -0.1280  0.3931
19004SOL    HW156885   7.336   3.825   2.037 -1.7669  1.4371  0.2029
19004SOL    HW256886   7.323   3.821   1.875 -0.9350 -0.1423  0.1582
19005SOL     OW56887   8.795   7.880   2.456  0.8244 -0.0608 -0.7127
19005SOL    HW156888   8.828   7.875   2.361  1.9873 -0.7250 -0.2775
19005SOL    HW256889   8.741   7.799   2.476 -1.3047  1.1233 -1.4897
19006SOL     OW56890   0.206   2.548   3.515 -0.0120  0.0400  0.2303
19006SOL    HW156891   0.207   2.472   3.450  0.5183 -0.8814  1.2944
19006SOL    HW256892   0.284   2.608   3.498  1.1486 -1.1885  1.1581
19007SOL     OW56893   8.434   6.811   4.559 -0.3304 -0.0687  0.4162
19007SOL    HW156894   8.473   6.871   4.490 -0.7836  0.3741  0.5427
19007SOL    HW256895   8.499   6.737   4.580 -0.5163 -0.6502 -1.0307
19008SOL     OW56896   4.798   4.942   2.612 -0.7552 -0.2212  0.2161
19008SOL    HW156897   4.738   4.862   2.612 -0.6356 -0.3115  0.2563
19008SOL    HW256898   4.892   4.913   2.594 -1.0039  0.1240 -1.7173
19011SOL     OW56899   0.443   9.098   4.336  0.1264  0.0586 -0.9453
19011SOL    HW156900   0.348   9.104   4.305 -0.7629 -1.1873  1.4000
19011SOL    HW256901   0.461   9.168   4.405  0.4917 -0.5608 -0.3947
19012SOL     OW56902   5.641   7.727   4.540 -0.0438 -0.0059  0.1613
19012SOL    HW156903   5.631   7.677   4.454  0.0934 -1.0679  0.7690
19012SOL    HW256904   5.621   7.667   4.617 -0.0702  0.9181  0.8880
19013SOL     OW56905   5.246   9.811   3.190  0.1433 -0.0712  0.4000
19013SOL    HW156906   5.322   9.750   3.166 -0.5033 -2.0059  3.0415
19013SOL    HW256907   5.223   9.868   3.111  2.5762 -1.3220 -1.2815
19014SOL     OW56908   8.143   8.378   2.074  0.4964  0.2060 -0.0982
19014SOL    HW156909   8.219   8.441   2.057 -1.3390  2.1521 -1.3278
19014SOL    HW256910   8.080   8.419   2.140 -0.3404 -0.6729 -0.3402
19015SOL     OW56911   3.732   0.876   0.069  0.2548 -0.1917  0.5578
19015SOL    HW156912   3.782   0.851  -0.014 -1.1566 -1.4382  0.0642
19015SOL    HW256913   3.649   0.820   0.076 -1.0886  1.8672  1.3584
19016SOL     OW56914   8.542   7.339   3.435  0.0384 -0.2455 -0.3771
19016SOL    HW156915   8.555   7.431   3.398 -0.2034 -0.0787 -0.0549
19016SOL    HW256916   8.461   7.338   3.494 -0.3282 -0.8161 -0.8811
19017SOL     OW56917   0.068   6.293   5.768  0.2670 -0.1060  0.4298
19017SOL    HW156918   0.112   6.350   5.698 -0.6138 -0.3960 -0.3757
19017SOL    HW256919   0.117   6.303   5.854  2.2982 -0.9211 -0.6058
19018SOL     OW56920   0.007   4.995   5.816  0.8672 -0.5565 -0.0945
19018SOL    HW156921  -0.086   5.034   5.814  0.3214 -1.8725 -2.0972
19018SOL    HW256922   0.020   4.945   5.902  1.2883  3.2103  2.1663
19019SOL     OW56923   5.893   1.021   2.952 -0.0267 -0.1456 -0.4728
19019SOL    HW156924   5.975   0.968   2.933  0.7529  0.3941  1.3552
19019SOL    HW256925   5.814   0.959   2.954  1.0347 -1.4912  2.8853
19020SOL     OW56926   3.797   9.598   4.106 -1.3019 -0.1119  0.2234
19020SOL    HW156927   3.845   9.549   4.178 -0.3539 -0.9829 -0.9718
19020SOL    HW256928   3.762   9.685   4.141 -0.0171 -0.0897  1.4613
19021SOL     OW56929   2.538   0.484   0.195  0.0756  0.1729  0.1029
19021SOL    HW156930   2.623   0.439   0.169 -0.7779 -0.3331 -1.9613
19021SOL    HW256931   2.533   0.573   0.150 -1.5427 -0.8175 -1.7814
19022SOL     OW56932   9.288   9.316   3.761  0.2230 -0.1718 -0.2181
19022SOL    HW156933   9.288   9.238   3.699  0.9483  1.5189 -2.4278
19022SOL    HW256934   9.206   9.315   3.817 -0.0697 -2.1683 -0.6647
19023SOL     OW56935   4.674   9.156   5.050  0.0920 -0.4125  0.3808
19023SOL    HW156936   4.655   9.253   5.035  0.4100 -0.1293  1.7205
19023SOL    HW256937   4.648   9.131   5.143  0.0978 -1.5935  0.0699
19024SOL     OW56938   1.633   1.223   6.325 -0.2121  0.2710 -0.2203
19024SOL    HW156939   1.617   1.208   6.423 -0.1805  0.1477 -0.2336
19024SOL    HW256940   1.720   1.181   6.299 -0.7361 -0.6509 -0.5310
19025SOL     OW56941   3.185   8.907   3.844 -0.0141 -0.4230  0.6931
19025SOL    HW156942   3.254   8.837   3.860 -0.6506 -1.3257 -0.4057
19025SOL    HW256943   3.221   8.997   3.870  1.0654 -1.0651  1.4290
19026SOL     OW56944   4.757   2.088   1.890  0.3496 -0.1351 -0.1653
19026SOL    HW156945   4.789   2.162   1.830  0.8025  0.5122  0.8467
19026SOL    HW256946   4.685   2.036   1.844  1.4561 -0.3405 -1.6941
19027SOL     OW56947   0.500   4.027   4.826  0.6797  0.2710 -0.0075
19027SOL    HW156948   0.431   4.033   4.898 -0.2331 -3.2126 -0.4775
19027SOL    HW256949   0.584   3.990   4.865  1.4567  2.0127  0.0133
19028SOL     OW56950   2.131   5.405   3.319  0.6450 -0.0920 -0.1083
19028SOL    HW156951   2.085   5.446   3.240 -2.8169  1.8773  2.7856
19028SOL    HW256952   2.064   5.363   3.380  3.0316 -0.2077  2.5729
19029SOL     OW56953   1.749   0.750   5.140 -0.4819 -0.2282 -0.4022
19029SOL    HW156954   1.813   0.788   5.207  0.0449 -0.3837 -0.8069
19029SOL    HW256955   1.786   0.764   5.048  0.1233 -2.4315 -0.5195
19031SOL     OW56956   7.462   0.037   5.922  0.3605  0.4453 -0.1659
19031SOL    HW156957   7.465   0.041   5.822  1.5840 -0.2821 -0.1820
19031SOL    HW256958   7.545   0.078   5.959  0.2422  0.0762  0.5174
19032SOL     OW56959   3.929   0.029   6.383  0.5332  0.3460 -0.2299
19032SOL    HW156960   3.878  -0.056   6.399  1.8916 -0.3483  0.5372
19032SOL    HW256961   3.920   0.088   6.463  0.1090  0.6597 -0.5072
19034SOL     OW56962   9.468   2.603   5.186  0.2499  0.1019 -0.0536
19034SOL    HW156963   9.479   2.519   5.132 -0.6001  0.8718 -1.4313
19034SOL    HW256964   9.391   2.592   5.249 -0.1463  0.0252 -0.5548
19036SOL     OW56965   3.775   1.587   1.014 -0.3484  0.4491 -0.2499
19036SOL    HW156966   3.746   1.531   1.092  1.9655  0.5806  0.7485
19036SOL    HW256967   3.805   1.677   1.047  0.2876  0.6342 -1.3267
19038SOL     OW56968   4.631   5.613   1.008 -0.2212  0.1104 -0.8738
19038SOL    HW156969   4.715   5.658   1.039 -0.3966 -0.4471  0.4715
19038SOL    HW256970   4.565   5.612   1.083 -1.4352  0.5318 -1.9150
19039SOL     OW56971   7.808   3.102   2.939  1.2106 -0.5840 -0.4329
19039SOL    HW156972   7.776   3.116   2.845  1.3194 -2.0325 -0.7053
19039SOL    HW256973   7.734   3.063   2.994  1.3077 -0.2404 -0.0587
19040SOL     OW56974   4.633   2.123   3.842  0.1650 -0.3545 -0.1338
19040SOL    HW156975   4.535   2.129   3.828  0.0799  1.8100  1.0924
19040SOL    HW256976   4.652   2.108   3.940  1.0703  0.2080 -0.2149
19043SOL     OW56977   2.004   2.762   4.522 -0.1802  0.3320 -0.2284
19043SOL    HW156978   2.067   2.817   4.467 -0.4359  0.4001 -0.4526
19043SOL    HW256979   1.913   2.802   4.519 -0.4913 -0.4196 -0.8629
19044SOL     OW56980   2.796   8.154   2.335  0.1805  0.1485  0.4616
19044SOL    HW156981   2.891   8.156   2.303  0.2933  0.3675  0.8081
19044SOL    HW256982   2.762   8.060   2.331  0.9426 -0.2025  1.8767
19045SOL     OW56983   4.759   4.031   2.693  0.5938  0.8696 -0.0643
19045SOL    HW156984   4.802   4.060   2.608 -1.4207  0.8009 -1.1436
19045SOL    HW256985   4.735   4.111   2.747  0.9161  0.9520 -0.0435
19046SOL     OW56986   4.790   1.005   1.920 -0.0220  0.1459 -0.0488
19046SOL    HW156987   4.857   1.006   1.846  0.8729 -1.8151  0.7038
19046SOL    HW256988   4.837   1.013   2.008 -0.7500 -1.3492  0.4932
19048SOL     OW56989   1.359   3.117   2.055 -0.0293 -0.4874  0.0559
19048SOL    HW156990   1.399   3.190   2.110  2.0535 -2.4611  1.2304
19048SOL    HW256991   1.372   3.137   1.958  2.2563 -0.2023  0.3949
19050SOL     OW56992   1.047   6.928   4.627  0.4450 -0.0805 -0.4919
19050SOL    HW156993   0.951   6.949   4.608  0.5699  0.7198 -0.2544
19050SOL    HW256994   1.059   6.829   4.633 -0.5278 -0.1585  0.3031
19051SOL     OW56995   8.268   3.506   5.625  0.0671  0.2529 -0.0346
19051SOL    HW156996   8.332   3.583   5.631 -1.1167  1.1725  1.1505
19051SOL    HW256997   8.319   3.420   5.627  1.2721  0.9734  0.9711
19052SOL     OW56998   8.796   9.603   2.146 -0.2519 -0.3872  0.2703
19052SOL    HW156999   8.763   9.636   2.058  0.2224 -0.3805  0.0953
19052SOL    HW257000   8.718   9.587   2.207 -0.5169  0.5884  0.1982
19054SOL     OW57001   8.271   6.255   3.801 -0.2731  0.1323  0.0369
19054SOL    HW157002   8.210   6.317   3.850  0.6634  1.1863 -0.1191
19054SOL    HW257003   8.235   6.162   3.807 -0.3316  0.2717  2.5092
19055SOL     OW57004   8.386   7.418   6.233  0.1764  0.2463  0.1454
19055SOL    HW157005   8.413   7.359   6.309  0.2827  0.3049  0.1539
19055SOL    HW257006   8.389   7.514   6.263 -3.5193  0.0916  1.2617
19056SOL     OW57007   1.906   6.465   5.062  0.2750 -0.0265 -0.6324
19056SOL    HW157008   1.943   6.544   5.111 -0.6546  0.9025 -1.3738
19056SOL    HW257009   1.980   6.403   5.036  0.9856  0.4673  0.1977
19057SOL     OW57010   1.187   7.512   3.485 -0.2776 -0.3257 -0.7221
19057SOL    HW157011   1.234   7.548   3.405 -0.4333 -0.9441 -1.0979
19057SOL    HW257012   1.184   7.412   3.480  0.1336 -0.3995  0.2958
19058SOL     OW57013   1.517   7.700   0.220 -0.6453 -0.2833  0.1284
19058SOL    HW157014   1.524   7.601   0.229 -1.2076 -0.2395  1.0588
19058SOL    HW257015   1.534   7.743   0.308 -1.3631  0.3995 -0.0580
19059SOL     OW57016   0.780   4.891   1.806  0.0098  0.2509 -0.0818
19059SOL    HW157017   0.878   4.876   1.801 -0.1590  0.0226 -3.1563
19059SOL    HW257018   0.734   4.807   1.836  0.6025 -0.0674 -0.0661
19060SOL     OW57019   1.596   3.918   6.360 -0.0753 -0.4541  0.3566
19060SOL    HW157020   1.566   4.013   6.372 -2.5781 -1.0128 -0.9788
19060SOL    HW257021   1.696   3.913   6.362  0.0595  2.0874  1.1829
19061SOL     OW57022   6.026   7.862   4.727  0.8612 -0.0936  0.0303
19061SOL    HW157023   6.013   7.912   4.641  1.8047 -1.3572 -0.8692
19061SOL    HW257024   6.009   7.923   4.804 -3.8320  0.1126 -0.9945
19063SOL     OW57025   2.269   1.087   1.458  0.3029  0.5942  0.4379
19063SOL    HW157026   2.283   1.176   1.500  0.4427  1.4513 -1.4156
19063SOL    HW257027   2.205   1.034   1.515  2.3241  0.8070  2.9868
19066SOL     OW57028   9.655   0.960   0.227  0.3835  0.0546 -0.3997
19066SOL    HW157029   9.650   0.860   0.228 -0.1550  0.0023 -3.4572
19066SOL    HW257030   9.746   0.989   0.256  0.6787 -1.3200  0.0946
19067SOL     OW57031   0.456   6.099   3.865  0.4739 -0.7554 -0.5141
19067SOL    HW157032   0.515   6.032   3.820 -0.6643 -1.5231 -0.8913
19067SOL    HW257033   0.411   6.156   3.796  0.5144 -0.3968 -0.2470
19068SOL     OW57034   1.368   1.585   6.119  0.0381 -0.2606 -0.0500
19068SOL    HW157035   1.282   1.579   6.070  0.0200  0.9031 -0.1659
19068SOL    HW257036   1.361   1.654   6.191  0.4999 -0.9879  0.7089
19069SOL     OW57037   0.870   8.093   6.060  0.1647  0.1404  0.0428
19069SOL    HW157038   0.804   8.021   6.039  0.7512  0.6816 -4.1074
19069SOL    HW257039   0.953   8.078   6.006  0.1872  4.0402 -1.1662
19070SOL     OW57040   6.475   9.375   2.933 -0.0234  0.3295  0.1565
19070SOL    HW157041   6.471   9.475   2.944  1.3259  0.4742 -0.6124
19070SOL    HW257042   6.417   9.332   3.002  1.9702  1.5168  2.6338
19071SOL     OW57043   9.907   5.312   5.865 -0.3192 -0.3277 -0.0395
19071SOL    HW157044   9.939   5.296   5.958  1.2125  0.6773 -0.3859
19071SOL    HW257045   9.983   5.302   5.801 -0.7126  1.8540 -0.8920
19072SOL     OW57046   8.126   0.016   2.585  0.0092 -0.6665  0.8964
19072SOL    HW157047   8.068  -0.035   2.648 -1.0141 -0.0973  0.4253
19072SOL    HW257048   8.190  -0.046   2.541 -1.0560 -1.5136  0.5087
19075SOL     OW57049   4.519   8.166   4.556 -0.1607 -0.2273  0.4098
19075SOL    HW157050   4.447   8.098   4.540 -0.8429 -0.1619  3.0620
19075SOL    HW257051   4.602   8.140   4.506 -1.3354 -1.4078 -0.9849
19076SOL     OW57052   9.744   6.659   5.768  0.3462 -0.8318  0.0135
19076SOL    HW157053   9.763   6.562   5.783  3.2258 -0.4752 -0.8680
19076SOL    HW257054   9.826   6.712   5.789 -0.0737  1.0600 -2.7988
19079SOL     OW57055   6.985   0.697   2.888 -0.2640 -0.4133 -0.0139
19079SOL    HW157056   7.079   0.691   2.923 -0.5785 -1.7103  0.6580
19079SOL    HW257057   6.945   0.785   2.915  0.4149 -0.2849  0.5934
19080SOL     OW57058   1.855   5.040   5.239  0.2071 -1.1894 -0.2881
19080SOL    HW157059   1.943   5.080   5.213  0.6485 -2.2836 -0.4983
19080SOL    HW257060   1.860   5.004   5.332 -0.6122  0.4574  0.4197
19081SOL     OW57061   3.661   2.970   0.137 -0.0930 -0.5681  0.1034
19081SOL    HW157062   3.673   3.068   0.120  0.9351 -0.6806  0.1456
19081SOL    HW257063   3.661   2.953   0.236  0.5579 -0.7056  0.0822
19083SOL     OW57064   8.535   4.449   4.168 -0.3750  0.2721  0.2112
19083SOL    HW157065   8.580   4.534   4.143  0.5199 -0.6043 -1.1910
19083SOL    HW257066   8.441   4.450   4.135 -0.2333  0.5404 -0.1845
19084SOL     OW57067   6.923   5.469   1.447 -0.2398 -0.2915 -0.2859
19084SOL    HW157068   6.862   5.471   1.527  0.4016 -0.2184  0.2078
19084SOL    HW257069   7.010   5.427   1.473  0.1920  0.2775 -0.7967
19085SOL     OW57070   3.483   5.138   3.824 -0.2272  0.0739  0.3737
19085SOL    HW157071   3.442   5.049   3.803 -0.5767  0.6109 -1.3475
19085SOL    HW257072   3.510   5.141   3.920 -1.2799 -1.4602  0.7350
19086SOL     OW57073   3.700   9.982   1.463  0.4297 -0.5336 -0.7770
19086SOL    HW157074   3.715   9.900   1.518  0.9024 -1.1519 -1.8142
19086SOL    HW257075   3.602   9.992   1.443  0.0123  0.7092  1.7026
19087SOL     OW57076   3.717   6.739   1.741 -0.3404  0.5100 -0.0223
19087SOL    HW157077   3.673   6.675   1.803 -1.9250  2.1441  0.5556
19087SOL    HW257078   3.651   6.773   1.674 -0.0257  3.0642  0.9185
19088SOL     OW57079   0.345   8.605   3.092 -0.5468  0.0075 -0.0714
19088SOL    HW157080   0.314   8.685   3.144  0.2447 -0.7658  1.6112
19088SOL    HW257081   0.315   8.521   3.137 -0.7419 -0.6760 -1.4266
19089SOL     OW57082   3.559   2.270   6.255  0.4431  0.1297 -0.1992
19089SOL    HW157083   3.570   2.174   6.282 -1.1269  0.8045  3.0772
19089SOL    HW257084   3.605   2.329   6.322 -0.7296  1.7689 -0.8098
19091SOL     OW57085   9.663   7.741   0.615 -0.0447 -0.3353 -0.2467
19091SOL    HW157086   9.683   7.684   0.535  0.4268 -0.5791  0.0475
19091SOL    HW257087   9.663   7.684   0.697 -1.0463 -0.1825 -0.1314
19092SOL     OW57088   4.529   9.890   2.502  0.1798 -0.0970 -0.0385
19092SOL    HW157089   4.510   9.860   2.409  1.1106  1.4816 -0.7616
19092SOL    HW257090   4.620   9.931   2.506  0.5267 -0.9435  1.7700
19093SOL     OW57091   0.427   4.221   1.493 -0.3062 -0.2844  0.3138
19093SOL    HW157092   0.448   4.295   1.429  1.1164 -0.2392  0.8036
19093SOL    HW257093   0.456   4.134   1.454 -2.4334 -0.6643 -0.4712
19095SOL     OW57094   5.063   3.390   0.947  0.8387  0.2793  0.3525
19095SOL    HW157095   5.123   3.435   0.880 -0.1202  1.6111  0.3610
19095SOL    HW257096   5.021   3.309   0.906  1.3485  0.2949 -0.1998
19096SOL     OW57097   2.509   5.296   2.270 -0.9294  0.1076  0.3309
19096SOL    HW157098   2.549   5.301   2.362 -0.0240  1.2314 -0.1137
19096SOL    HW257099   2.573   5.334   2.204 -2.2524  0.8231 -0.5529
19098SOL     OW57100   8.914   9.758   5.561 -0.1742  0.3703 -0.3529
19098SOL    HW157101   8.825   9.779   5.523 -0.2128  0.4410 -0.2250
19098SOL    HW257102   8.912   9.668   5.604 -0.7399  1.2004  1.3970
19099SOL     OW57103   9.057   3.783   5.027  0.1081 -0.1792 -0.1111
19099SOL    HW157104   9.085   3.734   4.944  0.7727  1.7199 -1.0445
19099SOL    HW257105   9.137   3.804   5.083 -0.1128  0.1421  0.0904
19100SOL     OW57106   4.025   4.382   2.815  0.2688  0.3925 -0.1868
19100SOL    HW157107   3.972   4.431   2.745  0.8867  1.4371  0.0540
19100SOL    HW257108   4.097   4.328   2.770  1.6096  2.2156 -0.3244
19101SOL     OW57109   4.595   8.021   4.795  0.0107 -0.0077 -0.0636
19101SOL    HW157110   4.667   7.965   4.754  2.8861  2.1745  1.8202
19101SOL    HW257111   4.581   8.103   4.740  0.8235  0.8223  0.9476
19102SOL     OW57112   0.079   2.978   2.338 -0.0398  0.1557 -0.3195
19102SOL    HW157113   0.171   2.995   2.374  0.2104 -3.0088  0.7138
19102SOL    HW257114   0.011   3.024   2.395  0.8711  2.4854 -1.0736
19103SOL     OW57115   7.684   4.014   3.856 -0.5921 -0.3783 -0.0836
19103SOL    HW157116   7.757   3.955   3.821  0.6228 -0.3314  2.2712
19103SOL    HW257117   7.708   4.109   3.841 -0.2597 -0.3682  0.5139
19104SOL     OW57118   2.990   4.633   0.458 -0.3052  0.1897  0.4118
19104SOL    HW157119   2.918   4.641   0.527 -1.1202  0.0120 -0.4079
19104SOL    HW257120   3.069   4.687   0.485 -0.4988 -0.1370  1.6399
19105SOL     OW57121   8.148   3.049   1.021 -0.0865 -0.3842 -0.3833
19105SOL    HW157122   8.248   3.039   1.023 -0.0305 -0.4219 -2.4431
19105SOL    HW257123   8.106   2.958   1.021 -0.1995 -0.3764  1.8782
19106SOL     OW57124   3.472   5.897   4.132 -0.2419 -0.1668  0.4809
19106SOL    HW157125   3.523   5.875   4.215  0.7240 -1.9192 -0.5540
19106SOL    HW257126   3.450   5.813   4.083  1.1764  0.9654 -2.2172
19108SOL     OW57127   7.381   8.564   5.644 -0.5868 -0.1085  0.0413
19108SOL    HW157128   7.294   8.516   5.648 -0.1323 -1.1972 -2.0277
19108SOL    HW257129   7.404   8.583   5.548  2.3147 -1.4984  0.3947
19109SOL     OW57130   3.237   2.934   5.420  0.7819 -0.1488 -0.0331
19109SOL    HW157131   3.227   2.933   5.321  0.7405 -0.9297 -0.0237
19109SOL    HW257132   3.321   2.885   5.446  0.5090 -0.4242  0.3454
19111SOL     OW57133   8.961   1.500   2.478 -0.6059  0.3238  0.3640
19111SOL    HW157134   8.929   1.531   2.388  0.7602 -1.7325 -0.8690
19111SOL    HW257135   9.012   1.574   2.522  1.3353  0.3832 -1.8749
19112SOL     OW57136   7.958   7.205   5.005 -0.3155  0.2059 -0.4137
19112SOL    HW157137   8.020   7.134   5.037 -2.5983 -1.5269  0.2934
19112SOL    HW257138   7.972   7.220   4.907  0.4508 -0.9300 -0.4871
19113SOL     OW57139   3.445   2.935   4.044  0.0567  0.2074 -0.5652
19113SOL    HW157140   3.510   2.904   4.113  0.7543  1.0744 -0.8119
19113SOL    HW257141   3.358   2.887   4.055  0.4634 -0.3360  0.3173
19114SOL     OW57142   9.494   3.300   3.134  0.5171  0.3969  0.0505
19114SOL    HW157143   9.557   3.374   3.110 -0.8424  1.9377  1.2217
19114SOL    HW257144   9.402   3.336   3.144 -0.3612 -1.6553 -0.4562
19116SOL     OW57145   5.491   9.460   4.317 -0.1364  0.2462  0.1686
19116SOL    HW157146   5.461   9.367   4.299 -0.8850  0.8898 -1.9900
19116SOL    HW257147   5.591   9.463   4.319 -0.0526 -0.1573 -2.3196
19117SOL     OW57148   0.988   4.113   1.594 -0.4678  0.0796 -0.2782
19117SOL    HW157149   0.988   4.162   1.681  1.8956 -1.2189  0.5016
19117SOL    HW257150   1.072   4.135   1.543 -0.9420 -0.6108 -1.3906
19118SOL     OW57151   3.965   1.861   3.305  0.2681  0.4578  0.1584
19118SOL    HW157152   3.944   1.778   3.356  2.5152  0.5780  1.3231
19118SOL    HW257153   3.880   1.913   3.291 -0.9098 -1.2315  0.7916
19119SOL     OW57154   9.551   5.037   4.141 -0.1986 -1.2481  0.3036
19119SOL    HW157155   9.582   4.975   4.069 -0.3133 -0.5923 -0.3292
19119SOL    HW257156   9.630   5.081   4.183 -0.1681 -0.9678 -0.0371
19120SOL     OW57157   8.287   1.997   0.946 -0.1509  0.1442 -0.5179
19120SOL    HW157158   8.350   2.057   0.896  0.4446  1.0888  1.3542
19120SOL    HW257159   8.317   1.902   0.935  0.1520  0.3570 -1.6823
19121SOL     OW57160   0.819   0.397   1.579 -0.2656  0.1322 -0.2806
19121SOL    HW157161   0.763   0.475   1.607 -0.2579 -0.1874  0.6595
19121SOL    HW257162   0.907   0.430   1.546  0.5607  0.4448  2.1114
19122SOL     OW57163   9.441   3.251   5.473  0.0555 -0.0021  0.3441
19122SOL    HW157164   9.521   3.309   5.458 -0.1708  0.1120 -0.4195
19122SOL    HW257165   9.437   3.225   5.570  0.2887  1.0633  0.6491
19123SOL     OW57166   8.592   1.928   2.810 -0.2315 -0.2565  0.8034
19123SOL    HW157167   8.673   1.893   2.762 -0.8825 -0.4255 -0.1842
19123SOL    HW257168   8.580   2.025   2.787  0.3202  0.0641  1.8261
19125SOL     OW57169   8.955   2.016   2.811  0.3280 -0.0572  0.6128
19125SOL    HW157170   8.943   1.957   2.731  1.0770  1.1392 -0.3824
19125SOL    HW257171   8.886   1.992   2.880 -0.5366 -0.8616 -0.5157
19126SOL     OW57172   7.083   1.363   0.959  0.2882 -0.3612  0.5201
19126SOL    HW157173   7.081   1.358   0.859  0.1319  1.3580  0.4209
19126SOL    HW257174   7.172   1.332   0.992  1.2988  1.4620 -0.3397
19127SOL     OW57175   6.049   6.010   0.955  0.1791  0.2477  0.4524
19127SOL    HW157176   6.027   6.107   0.945  1.5792  0.5864  0.5888
19127SOL    HW257177   6.048   5.985   1.052  0.0275  0.1758  0.4323
19129SOL     OW57178   0.869   4.789   1.475  0.4590  0.0582 -0.1122
19129SOL    HW157179   0.867   4.888   1.462  1.6493  0.3896  1.9263
19129SOL    HW257180   0.953   4.752   1.436  0.1116 -0.1165 -0.6927
19130SOL     OW57181   1.098   5.817   1.593  0.2254 -0.1895  0.4703
19130SOL    HW157182   1.078   5.724   1.560  0.2789 -0.7591  2.0153
19130SOL    HW257183   1.106   5.816   1.693 -1.0953  1.7129  0.6284
19131SOL     OW57184   0.536   4.423   5.574 -0.6440 -0.6497 -0.2463
19131SOL    HW157185   0.583   4.399   5.659 -0.3685 -1.6032 -0.6472
19131SOL    HW257186   0.602   4.459   5.509 -0.9782  0.7475  0.1858
19132SOL     OW57187   1.107   7.652   4.561 -0.0563 -0.0260 -0.3085
19132SOL    HW157188   1.199   7.613   4.560  0.0847  0.2376  1.1242
19132SOL    HW257189   1.054   7.610   4.635 -0.9812  0.0563 -0.9229
19134SOL     OW57190   0.667   5.810   5.472 -0.0682 -0.6038  0.1706
19134SOL    HW157191   0.741   5.745   5.455 -0.0021 -0.7569  1.0201
19134SOL    HW257192   0.672   5.841   5.567 -0.7961 -0.2356  0.0877
19135SOL     OW57193   3.119   1.074   2.793 -0.6634 -1.1973  0.2223
19135SOL    HW157194   3.058   1.153   2.792  0.3479 -0.4123 -0.9313
19135SOL    HW257195   3.203   1.098   2.841 -0.2618 -1.4915 -0.3328
19136SOL     OW57196   6.718   1.212   3.928 -0.3370 -0.8126  0.2247
19136SOL    HW157197   6.638   1.268   3.948 -0.6356 -1.7039  1.5904
19136SOL    HW257198   6.695   1.115   3.941  0.9505 -1.0814  0.6141
19137SOL     OW57199   3.171   7.337   0.102  0.2170  0.3545 -0.3955
19137SOL    HW157200   3.168   7.312   0.198  0.5817 -0.4225 -0.5835
19137SOL    HW257201   3.262   7.320   0.065 -0.2230 -0.4290 -1.1599
19138SOL     OW57202   0.777   3.762   3.771  0.1596  0.1166 -0.3055
19138SOL    HW157203   0.684   3.729   3.789  0.4683 -0.5346  0.1244
19138SOL    HW257204   0.818   3.707   3.698  1.4206 -1.8512  1.8232
19139SOL     OW57205   9.097   7.181   3.236  0.2373  0.2149  0.5721
19139SOL    HW157206   9.042   7.098   3.238  0.8277 -0.1728  1.3356
19139SOL    HW257207   9.103   7.218   3.329  1.0872  0.3579  0.4636
19140SOL     OW57208   9.549   7.571   5.897  0.1225  0.2397 -0.1394
19140SOL    HW157209   9.632   7.523   5.927  0.1667  1.2488  1.3867
19140SOL    HW257210   9.502   7.516   5.828  0.3680 -1.8198  1.3034
19141SOL     OW57211   0.292   7.219   0.582 -0.0795 -0.2961  0.0085
19141SOL    HW157212   0.331   7.295   0.634  0.1212 -0.7385  0.5063
19141SOL    HW257213   0.334   7.133   0.611 -1.0267 -0.7123  0.1735
19142SOL     OW57214   1.252   5.896   4.617 -0.2842  0.2967 -0.1800
19142SOL    HW157215   1.176   5.940   4.665  1.7956  2.1049  1.5208
19142SOL    HW257216   1.231   5.800   4.602 -2.7548  0.6978  0.5649
19143SOL     OW57217   7.695   3.524   2.021  0.3277 -0.2128 -0.6331
19143SOL    HW157218   7.741   3.579   2.091 -1.0396  2.2655 -1.6167
19143SOL    HW257219   7.606   3.496   2.054  1.1534 -2.1695 -0.0102
19144SOL     OW57220   7.862   2.084   2.470 -0.5896  0.1762  0.0083
19144SOL    HW157221   7.823   2.168   2.509  0.2280  0.1728  0.8462
19144SOL    HW257222   7.918   2.038   2.539 -0.4647 -0.6977 -0.6679
19145SOL     OW57223   9.091   4.443   0.112  0.0413  0.3928  0.1386
19145SOL    HW157224   9.053   4.512   0.052  0.5218  0.7015  0.1882
19145SOL    HW257225   9.174   4.478   0.156 -0.4752  0.2923  1.2285
19146SOL     OW57226   4.489   8.514   2.032  0.1685  0.6030 -0.7346
19146SOL    HW157227   4.535   8.601   2.017 -0.7558  1.2133 -0.0477
19146SOL    HW257228   4.472   8.470   1.944 -0.7397  1.8391 -1.1909
19147SOL     OW57229   8.832   7.405   3.470  0.7131 -0.1878 -0.2283
19147SOL    HW157230   8.875   7.384   3.557  0.9645 -0.5213 -0.4343
19147SOL    HW257231   8.814   7.320   3.419 -1.7664 -0.1993  0.6006
19148SOL     OW57232   2.060   1.650   6.051  0.0071 -0.1214  0.2523
19148SOL    HW157233   2.039   1.620   6.144  0.2829 -0.1822  0.2933
19148SOL    HW257234   2.158   1.668   6.042  0.0394 -0.4774 -0.1300
19150SOL     OW57235   3.160   9.968   1.134  0.8030  0.7881  0.2766
19150SOL    HW157236   3.104   9.887   1.152  2.5424 -0.6040 -0.5092
19150SOL    HW257237   3.200   9.962   1.043  6.2197 -0.6835  2.5391
19151SOL     OW57238   3.490   8.004   3.838 -0.4261 -0.3161  0.5032
19151SOL    HW157239   3.440   7.956   3.766  1.9386 -0.1397 -1.3105
19151SOL    HW257240   3.533   7.938   3.899  2.4884 -0.5534 -1.7547
19152SOL     OW57241   5.090   7.442   3.111  0.8505  0.2005 -0.0467
19152SOL    HW157242   5.177   7.491   3.110  0.9229  0.1110  1.3114
19152SOL    HW257243   5.015   7.509   3.106  0.9920  0.1949 -2.9533
19153SOL     OW57244   1.161   5.172   0.613  0.9991  0.0356  0.0900
19153SOL    HW157245   1.193   5.263   0.639 -0.1558  0.7419 -0.9669
19153SOL    HW257246   1.164   5.113   0.694  3.7866  0.3942  0.3133
19154SOL     OW57247   8.323   1.486   3.328  0.0266  0.1115  0.4067
19154SOL    HW157248   8.336   1.584   3.345 -0.4263  0.0077  1.3556
19154SOL    HW257249   8.226   1.463   3.338 -0.2602  0.0334 -2.2492
19155SOL     OW57250   1.761   4.119   6.007  0.3361 -0.2389  0.0344
19155SOL    HW157251   1.675   4.168   5.991  1.2430  1.2219 -0.4470
19155SOL    HW257252   1.748   4.022   5.985 -0.4346  0.4402 -2.7957
19156SOL     OW57253   4.279   2.142   2.738  0.4060 -0.3858 -0.4410
19156SOL    HW157254   4.271   2.221   2.677  1.4807  1.0667  1.2659
19156SOL    HW257255   4.327   2.068   2.690  1.6832  0.9040 -1.2064
19157SOL     OW57256   3.147   0.802   5.074 -0.1404 -0.7378 -0.2172
19157SOL    HW157257   3.057   0.778   5.111 -0.4778  0.6997 -0.0741
19157SOL    HW257258   3.188   0.874   5.131  0.2184  0.0465 -1.4581
19159SOL     OW57259   4.467   2.690   1.761 -0.0990  0.3754 -0.4405
19159SOL    HW157260   4.401   2.695   1.687 -0.5590 -2.6102 -0.3027
19159SOL    HW257261   4.437   2.747   1.837 -1.0754  1.2324 -1.4566
19160SOL     OW57262   3.057   8.333   3.253 -0.0937 -0.0784  0.5768
19160SOL    HW157263   3.038   8.253   3.311  0.2078  0.4475  1.4137
19160SOL    HW257264   3.142   8.377   3.284  0.5317 -0.2891 -0.8187
19161SOL     OW57265   1.484   3.682   1.830  0.4803 -0.1364 -0.8004
19161SOL    HW157266   1.442   3.763   1.871 -1.4820 -0.9432 -1.1580
19161SOL    HW257267   1.471   3.604   1.890  0.3257 -0.6649 -1.5154
19162SOL     OW57268   8.281   9.041   5.349  0.5276 -0.2684  0.1351
19162SOL    HW157269   8.196   8.989   5.341 -0.6498  1.8701 -1.6476
19162SOL    HW257270   8.328   9.043   5.261  1.6911 -0.1545  0.7405
19163SOL     OW57271   9.244   5.979   3.735  0.0197  0.5199 -0.4305
19163SOL    HW157272   9.245   6.076   3.763 -0.6304  0.5528 -0.5117
19163SOL    HW257273   9.337   5.943   3.738  0.2745  1.1619 -0.4458
19164SOL     OW57274   4.380   4.367   4.763  0.0943  0.1413 -0.1151
19164SOL    HW157275   4.460   4.381   4.821 -0.0310  0.0553  0.0751
19164SOL    HW257276   4.323   4.295   4.801  0.4708 -0.5469 -0.8192
19165SOL     OW57277   1.195   4.233   4.474 -0.0142 -0.0282  0.0463
19165SOL    HW157278   1.183   4.136   4.495  1.5712 -0.3947 -0.7053
19165SOL    HW257279   1.217   4.243   4.377  1.4460  0.9580  0.4717
19166SOL     OW57280   4.778   1.720   1.278  0.4129  0.0681  0.3299
19166SOL    HW157281   4.748   1.735   1.184  0.6465 -1.6257 -0.0389
19166SOL    HW257282   4.742   1.793   1.336  0.8881  1.5388 -1.1871
19169SOL     OW57283   8.159   3.930   3.634  0.1913 -0.1446  0.3730
19169SOL    HW157284   8.206   4.018   3.641 -1.2065  0.5967  0.6719
19169SOL    HW257285   8.185   3.885   3.549 -1.1851  1.8435 -1.1557
19170SOL     OW57286   7.964   0.626   2.366  0.4745  0.3071 -0.5140
19170SOL    HW157287   7.942   0.592   2.458 -0.2700  1.9498 -0.0745
19170SOL    HW257288   7.887   0.608   2.305  1.6202 -2.2978 -1.2571
19171SOL     OW57289   9.098   8.714   4.434 -0.3497 -0.3011  0.5629
19171SOL    HW157290   9.006   8.751   4.445 -0.8801 -0.9993 -1.2865
19171SOL    HW257291   9.126   8.722   4.338  1.5505 -0.0373  1.1202
19172SOL     OW57292   8.242   4.221   3.876  0.4491  0.0448  0.4970
19172SOL    HW157293   8.211   4.132   3.907  0.0483  0.2400  0.6543
19172SOL    HW257294   8.297   4.210   3.793 -0.7169 -0.2267 -0.2425
19173SOL     OW57295   2.597   1.559   0.472 -0.1355 -0.9517  0.5183
19173SOL    HW157296   2.603   1.623   0.549 -0.3723  0.2090 -0.4182
19173SOL    HW257297   2.689   1.538   0.439 -0.1040 -0.2833  0.1709
19174SOL     OW57298   8.361   3.929   3.927 -0.6979  0.2706 -0.3550
19174SOL    HW157299   8.378   4.018   3.968 -2.1390  0.8504 -0.9778
19174SOL    HW257300   8.447   3.892   3.892  0.1592  0.7471  1.2061
19175SOL     OW57301   8.916   9.704   1.377  0.0428  0.4328  0.0591
19175SOL    HW157302   8.930   9.756   1.293 -0.0468  1.5102  0.6978
19175SOL    HW257303   8.820   9.709   1.404 -0.1244 -0.7461 -0.3078
19177SOL     OW57304   1.151   0.906   2.637  0.8182  0.4733  0.0703
19177SOL    HW157305   1.135   1.004   2.621 -0.0033 -0.0925 -3.0037
19177SOL    HW257306   1.245   0.892   2.666  0.5624  2.2947  1.8709
19179SOL     OW57307   1.243   8.112   3.839 -0.3968 -0.7455 -0.2052
19179SOL    HW157308   1.298   8.036   3.873  1.0929  0.2509 -0.3443
19179SOL    HW257309   1.303   8.187   3.813 -1.6899 -0.4792 -2.5105
19180SOL     OW57310   9.328   6.897   1.020  0.4670  0.4041 -0.2150
19180SOL    HW157311   9.286   6.988   1.018  0.8298  0.6221  1.3221
19180SOL    HW257312   9.399   6.894   1.091 -1.3111 -1.8362  1.5411
19181SOL     OW57313   0.273   9.582   1.005 -0.4307  0.4963 -0.0456
19181SOL    HW157314   0.330   9.663   1.022 -1.0491  0.9053  0.0774
19181SOL    HW257315   0.224   9.558   1.089 -0.8076  0.4297 -0.2848
19182SOL     OW57316   2.037   7.984   4.598 -0.2801 -0.1017 -0.0578
19182SOL    HW157317   1.958   8.005   4.542 -0.4371 -0.7951 -0.1064
19182SOL    HW257318   2.071   7.892   4.575  0.9107  0.4359 -0.4724
19183SOL     OW57319   9.328   0.628   4.339  0.5298  0.1344  0.2225
19183SOL    HW157320   9.285   0.572   4.268  0.7929 -2.3659  1.9598
19183SOL    HW257321   9.421   0.594   4.357  1.0860  1.7924  0.6093
19185SOL     OW57322   3.416   2.611   0.075  0.4441 -0.3056  0.1748
19185SOL    HW157323   3.508   2.635   0.045  0.2544 -0.1743 -0.3075
19185SOL    HW257324   3.349   2.654   0.015  0.0690 -0.4406  0.4941
19186SOL     OW57325   9.781   7.300   0.024  0.0002  0.1253  0.4048
19186SOL    HW157326   9.843   7.322   0.100 -0.0550 -1.3426  0.8766
19186SOL    HW257327   9.703   7.247   0.058 -0.1239 -0.3795 -0.6426
19187SOL     OW57328   8.833   8.725   0.253  0.1640  0.5032  0.3891
19187SOL    HW157329   8.759   8.771   0.303 -1.4608 -2.8280  1.2166
19187SOL    HW257330   8.889   8.674   0.318 -1.3328 -3.0214 -0.9379
19189SOL     OW57331   3.827   0.353   0.577  0.0974 -0.6318  0.8055
19189SOL    HW157332   3.881   0.335   0.495 -1.3299  0.7257 -0.4683
19189SOL    HW257333   3.761   0.280   0.590  0.4568 -0.9491  0.8701
19190SOL     OW57334   2.196   4.574   0.063 -0.1361  0.4409  0.2576
19190SOL    HW157335   2.266   4.509   0.092  0.5545  0.4332 -1.3598
19190SOL    HW257336   2.210   4.661   0.111  0.3300  0.1041  0.7344
19191SOL     OW57337   0.091   8.977   0.675 -0.4813  0.8048 -0.1562
19191SOL    HW157338   0.174   8.922   0.677 -1.1849 -0.3145 -0.9896
19191SOL    HW257339   0.077   9.020   0.764 -1.2837 -2.4597  1.3722
19192SOL     OW57340   0.387   6.570   6.388  0.0611  0.0636 -0.0426
19192SOL    HW157341   0.487   6.570   6.394  0.0640 -1.3380 -0.0428
19192SOL    HW257342   0.351   6.636   6.454  0.9902  0.7310 -0.1823
19193SOL     OW57343   9.807   6.533   4.485 -0.4767 -0.1021 -0.3094
19193SOL    HW157344   9.793   6.470   4.562  1.5320 -0.9401 -0.6025
19193SOL    HW257345   9.880   6.498   4.426  0.1710  2.1512 -0.8851
19195SOL     OW57346   0.689   8.404   0.446  0.6000  0.3482 -0.1971
19195SOL    HW157347   0.623   8.479   0.448 -1.8713 -1.7779 -0.0082
19195SOL    HW257348   0.760   8.420   0.514 -0.9133  1.5936  1.1104
19196SOL     OW57349   9.993   3.636   0.738 -0.4360  0.3683 -0.1165
19196SOL    HW157350   9.970   3.607   0.830 -0.9468 -0.3326 -0.4641
19196SOL    HW257351  10.092   3.653   0.732 -0.1458 -1.2024  0.1090
19197SOL     OW57352   0.755   8.438   2.465  0.2922  0.1379  0.1260
19197SOL    HW157353   0.765   8.382   2.383 -0.8465 -1.5158  1.0745
19197SOL    HW257354   0.806   8.522   2.455  1.6174 -0.8475 -1.5599
19198SOL     OW57355   5.924   1.231   3.974 -0.0259  0.2828 -0.1711
19198SOL    HW157356   5.846   1.272   3.925  0.8768 -0.4792 -2.2767
19198SOL    HW257357   5.895   1.208   4.067 -2.2806  0.1480 -0.8618
19199SOL     OW57358   3.451   0.092   4.849  0.5833 -0.2797 -0.1182
19199SOL    HW157359   3.441   0.188   4.878 -0.1863  0.2020 -1.9050
19199SOL    HW257360   3.437   0.032   4.928 -0.7135  1.0211  0.6802
19200SOL     OW57361   6.126   2.023   0.162  0.5547 -0.6819 -0.0042
19200SOL    HW157362   6.111   2.121   0.176  0.1954 -0.7580  0.1350
19200SOL    HW257363   6.214   2.010   0.116  0.9682 -0.3457  0.6863
19202SOL     OW57364   8.018   5.433   5.676  0.0607 -0.0683  0.1854
19202SOL    HW157365   7.934   5.461   5.630  1.5786  0.3395 -2.4627
19202SOL    HW257366   7.997   5.403   5.769 -2.8721  0.8397 -0.1344
19203SOL     OW57367   6.292   2.758   5.228 -0.3081  0.0838 -0.5873
19203SOL    HW157368   6.221   2.772   5.296  0.4879 -0.0833  0.2874
19203SOL    HW257369   6.345   2.676   5.251 -1.7396 -1.5493 -2.8954
19206SOL     OW57370   3.373   8.380   0.886 -0.5352 -0.1777  0.9339
19206SOL    HW157371   3.450   8.362   0.824 -1.0681 -0.3646  0.3286
19206SOL    HW257372   3.358   8.301   0.945 -0.0629 -0.0195  1.2716
19207SOL     OW57373   3.990   4.264   2.279 -0.1289 -0.0725  0.4889
19207SOL    HW157374   3.953   4.219   2.198  2.0348 -0.9668 -0.0124
19207SOL    HW257375   4.025   4.196   2.343 -1.4242  0.6452  2.0249
19208SOL     OW57376   1.960   7.049   1.130  0.2521  0.1929  0.2436
19208SOL    HW157377   1.915   7.040   1.040  0.5540 -0.1519  0.1221
19208SOL    HW257378   1.891   7.061   1.201 -0.0651 -0.6740  0.0990
19209SOL     OW57379   3.581   3.344   2.226  0.6770 -0.4514  0.3255
19209SOL    HW157380   3.486   3.363   2.248  0.0814 -0.2065 -2.2670
19209SOL    HW257381   3.616   3.272   2.287 -2.1060 -2.7432 -0.6672
19210SOL     OW57382   9.945   3.263   5.452 -0.3872  0.2565 -0.1893
19210SOL    HW157383   9.868   3.215   5.410 -0.5697  2.2365 -2.1969
19210SOL    HW257384  10.029   3.243   5.401 -0.4851  2.1263 -1.1165
19211SOL     OW57385   3.575   5.052   1.027 -0.4024 -0.1666  0.3715
19211SOL    HW157386   3.515   5.121   0.986 -0.5349  0.0698  0.9572
19211SOL    HW257387   3.657   5.096   1.064  0.5180 -0.5875 -1.1423
19212SOL     OW57388   3.972   1.115   1.021 -0.1840 -0.1968 -0.2933
19212SOL    HW157389   3.994   1.136   0.926  1.0732 -0.1795  0.0050
19212SOL    HW257390   4.051   1.074   1.066 -1.4319 -2.2107  0.1479
19213SOL     OW57391   4.788   8.696   4.969 -0.1169 -0.1129 -0.3572
19213SOL    HW157392   4.796   8.736   5.060  2.0588  1.2221 -1.0904
19213SOL    HW257393   4.697   8.716   4.932 -0.4970  0.6335  0.9307
19214SOL     OW57394   2.485   3.224   6.048 -0.5944  0.3266  0.1937
19214SOL    HW157395   2.490   3.180   5.959  0.3797  0.2716  0.2776
19214SOL    HW257396   2.510   3.320   6.039 -3.2518  1.0520 -0.0936
19216SOL     OW57397   8.524   4.661   5.548  0.3853  0.1878  0.2851
19216SOL    HW157398   8.552   4.565   5.553  1.6963  0.5244 -0.3097
19216SOL    HW257399   8.577   4.707   5.477 -0.2471  1.3528  0.5589
19217SOL     OW57400   4.567   6.407   1.639  0.3748  0.0999 -0.0539
19217SOL    HW157401   4.503   6.426   1.565 -0.5086  1.6835  1.0808
19217SOL    HW257402   4.532   6.446   1.724  2.8215  0.9534  0.6059
19218SOL     OW57403   4.015   2.048   1.794 -0.0214  0.3076  0.1947
19218SOL    HW157404   4.084   1.991   1.749 -0.8697 -0.8899  0.3630
19218SOL    HW257405   4.057   2.131   1.829  1.9269 -1.6744  2.7508
19219SOL     OW57406   1.937   8.888   5.849  0.4151 -0.4502  0.4048
19219SOL    HW157407   1.853   8.895   5.795  0.8893 -1.2991 -0.4830
19219SOL    HW257408   1.953   8.972   5.899 -0.4761  0.0574 -0.1663
19220SOL     OW57409   7.677   9.313   2.651 -0.2295 -0.2298  0.3933
19220SOL    HW157410   7.751   9.276   2.708 -0.7195  0.0986  1.2562
19220SOL    HW257411   7.713   9.337   2.561  0.9082  0.7258  1.0816
19222SOL     OW57412   7.150   0.439   5.141 -0.5502 -0.5485 -0.2725
19222SOL    HW157413   7.194   0.373   5.201  0.0781 -0.7708 -0.9777
19222SOL    HW257414   7.050   0.429   5.147 -0.5464  0.3123  1.7222
19223SOL     OW57415   7.602   8.055   5.706  0.0024  0.1540  0.4954
19223SOL    HW157416   7.545   8.110   5.767 -0.3035  1.2563 -0.7834
19223SOL    HW257417   7.544   8.002   5.644  0.3163 -0.9287  1.0996
19224SOL     OW57418   3.589   8.657   2.652 -0.0908  0.3812  0.0705
19224SOL    HW157419   3.575   8.575   2.597  0.8486  0.7411 -0.7057
19224SOL    HW257420   3.646   8.634   2.731  1.0748  0.5014 -0.7199
19225SOL     OW57421   3.692   9.890   0.210 -0.2066 -0.3495  0.4636
19225SOL    HW157422   3.695   9.794   0.241 -0.6594  0.2121  2.3082
19225SOL    HW257423   3.786   9.922   0.196 -0.0137 -0.8294  0.6281
19226SOL     OW57424   2.094   3.728   0.163  0.2697  0.5934 -0.2487
19226SOL    HW157425   2.098   3.794   0.088 -0.8654  0.0199 -0.8328
19226SOL    HW257426   2.157   3.653   0.144  1.7923  1.6617  0.5692
19227SOL     OW57427   3.173   5.027   2.142 -0.3555 -0.6058  0.5027
19227SOL    HW157428   3.249   4.965   2.124  0.1408  0.4006 -0.8679
19227SOL    HW257429   3.151   5.079   2.060 -0.6658  1.1742  1.6757
19228SOL     OW57430   7.101   0.731   1.566 -0.4035  0.1157  0.3420
19228SOL    HW157431   7.034   0.806   1.570 -1.3382 -0.5819 -1.9002
19228SOL    HW257432   7.053   0.644   1.574  0.2736 -0.3680 -0.8526
19229SOL     OW57433   6.690   6.711   6.159 -0.1037 -0.0991 -0.9533
19229SOL    HW157434   6.772   6.710   6.217  0.8838 -0.6352 -2.3534
19229SOL    HW257435   6.662   6.806   6.144 -0.1266  0.0644  0.0373
19232SOL     OW57436   9.641   9.075   3.831 -0.8309 -0.4953  0.2682
19232SOL    HW157437   9.556   9.025   3.821 -0.6653 -0.5005 -1.3163
19232SOL    HW257438   9.633   9.163   3.784  0.6606 -1.2934 -1.5437
19233SOL     OW57439   4.396   9.658   2.533 -0.3122  0.2220 -0.3598
19233SOL    HW157440   4.470   9.592   2.548 -0.7307  0.0386  0.9496
19233SOL    HW257441   4.433   9.751   2.536 -0.3025  0.1885  1.5545
19235SOL     OW57442   9.350   3.771   0.780 -0.7008 -0.1029 -0.2819
19235SOL    HW157443   9.370   3.858   0.736  0.0127 -0.4130 -0.5809
19235SOL    HW257444   9.306   3.787   0.868 -0.3347  0.5649 -0.2203
19236SOL     OW57445   1.593   6.531   4.486 -0.0084  0.4579 -0.1682
19236SOL    HW157446   1.549   6.576   4.564 -1.1157  1.6718 -1.4664
19236SOL    HW257447   1.642   6.600   4.432  0.8597 -0.3955 -0.4860
19237SOL     OW57448   2.391   5.123   4.849 -0.0131 -0.3711  0.1568
19237SOL    HW157449   2.389   5.142   4.947 -0.7734 -3.1687  0.7118
19237SOL    HW257450   2.424   5.030   4.834 -0.1265 -0.0441 -2.2490
19238SOL     OW57451   1.533   2.380   2.808 -0.3622 -0.3511  0.4664
19238SOL    HW157452   1.509   2.405   2.714  0.2919 -1.6561 -0.0511
19238SOL    HW257453   1.632   2.379   2.818 -0.4348  0.0794  1.2674
19239SOL     OW57454   9.043   0.203   0.904  0.1320 -0.2519  0.0291
19239SOL    HW157455   9.021   0.208   0.807  1.1837  2.9657 -0.1036
19239SOL    HW257456   8.967   0.238   0.958 -0.5144 -2.1839  0.4035
19241SOL     OW57457   5.913   1.690   3.531  0.0584 -0.3319  0.1623
19241SOL    HW157458   5.834   1.750   3.528  0.3191  0.0026 -0.0452
19241SOL    HW257459   5.897   1.610   3.473 -0.3304 -0.5155  0.5217
19244SOL     OW57460   7.246   9.832   4.411 -0.2882 -0.2901 -0.6419
19244SOL    HW157461   7.170   9.896   4.420  0.3602  0.6183 -1.5555
19244SOL    HW257462   7.287   9.841   4.321 -1.5344 -3.5034 -1.6191
19245SOL     OW57463   1.589   9.036   0.621 -0.3787 -0.1968  0.2427
19245SOL    HW157464   1.680   9.071   0.601 -0.5132  1.3194  2.1140
19245SOL    HW257465   1.575   8.950   0.573  1.6882  0.0148 -0.8010
19246SOL     OW57466   0.652   9.951   2.681 -0.4019 -0.1159 -0.0786
19246SOL    HW157467   0.642  10.043   2.719 -1.3496 -0.9250  1.6868
19246SOL    HW257468   0.696   9.891   2.748 -1.8177 -1.5004 -0.3488
19247SOL     OW57469   9.931   3.947   0.492  0.4320 -0.0760 -0.3761
19247SOL    HW157470   9.952   3.857   0.529  1.2414 -0.2065 -1.1612
19247SOL    HW257471  10.016   3.995   0.470  0.0430  1.2298  0.8641
19250SOL     OW57472   5.059   0.587   3.358  0.3355 -0.0578 -0.3153
19250SOL    HW157473   4.979   0.617   3.306  0.3608 -0.0422 -0.3454
19250SOL    HW257474   5.085   0.495   3.330 -0.6444 -0.7107  0.8237
19251SOL     OW57475   6.862   0.212   2.432 -0.0774  0.0141 -0.3477
19251SOL    HW157476   6.793   0.183   2.366 -0.2986  0.2169 -0.2046
19251SOL    HW257477   6.820   0.224   2.522  0.7553 -3.1215  0.5301
19252SOL     OW57478   8.953   6.779   0.549 -0.1886 -0.7189  0.5009
19252SOL    HW157479   9.009   6.696   0.557  0.0946 -0.7890 -1.8601
19252SOL    HW257480   8.856   6.754   0.557 -0.1227 -1.3592 -0.5359
19253SOL     OW57481   4.701   8.078   5.043  0.1933  0.3776  0.1047
19253SOL    HW157482   4.647   8.060   5.125  0.5363 -0.2325  0.1975
19253SOL    HW257483   4.662   8.028   4.965  1.7432 -1.6373  0.5755
19254SOL     OW57484   8.480   3.217   4.124 -0.2016  0.4692  0.2664
19254SOL    HW157485   8.413   3.287   4.101 -1.0912 -0.3052  0.4607
19254SOL    HW257486   8.546   3.253   4.191 -0.0450  1.4255 -0.3984
19257SOL     OW57487   8.512   1.534   3.864  0.5510  0.7880 -0.2721
19257SOL    HW157488   8.596   1.496   3.902 -0.0394  0.2572  0.5171
19257SOL    HW257489   8.500   1.504   3.770  0.9915  0.4706 -0.2244
19258SOL     OW57490   6.923   2.334   3.187 -0.0498 -0.3246 -0.4667
19258SOL    HW157491   6.929   2.390   3.270  2.4521 -1.8663  0.4660
19258SOL    HW257492   6.869   2.252   3.206  0.1709 -0.4738 -0.4841
19259SOL     OW57493   3.924   7.140   3.031 -0.0483 -0.1758 -0.7642
19259SOL    HW157494   3.872   7.103   3.108 -0.9502  0.3083 -1.1385
19259SOL    HW257495   4.014   7.097   3.029 -1.3223 -2.8879 -1.6059
19260SOL     OW57496   2.672   2.988   5.458 -0.4913 -0.0889 -0.2610
19260SOL    HW157497   2.668   3.084   5.485 -2.6141 -0.4568  0.8521
19260SOL    HW257498   2.715   2.934   5.530  1.3936  0.0942 -1.2023
19263SOL     OW57499   7.117   1.116   2.207  0.1460  0.0984  0.0693
19263SOL    HW157500   7.133   1.043   2.141  0.0039 -0.4233  0.6093
19263SOL    HW257501   7.162   1.200   2.175  1.8354 -0.6807  0.3014
19264SOL     OW57502   2.402   0.475   1.093  0.8955 -0.0826  0.1068
19264SOL    HW157503   2.443   0.551   1.142  1.0871 -0.3894  0.4294
19264SOL    HW257504   2.325   0.507   1.039  0.3090  0.1559  1.0862
19265SOL     OW57505   8.751   7.920   4.899 -0.3673 -0.0189 -0.3906
19265SOL    HW157506   8.672   7.972   4.931 -0.8108 -0.1242 -1.2909
19265SOL    HW257507   8.827   7.933   4.962 -1.7759 -1.7191  1.7473
19266SOL     OW57508   0.166   3.111   3.973  0.2279 -0.4532  0.6155
19266SOL    HW157509   0.260   3.144   3.968  0.1171  0.2125  2.4833
19266SOL    HW257510   0.134   3.115   4.068 -2.3667  1.2470 -0.2609
19269SOL     OW57511   0.398   2.405   3.768  0.2365  0.7105  0.1072
19269SOL    HW157512   0.495   2.428   3.772  0.3503  0.0988  0.9520
19269SOL    HW257513   0.347   2.465   3.829  0.4407 -0.7648  1.7627
19270SOL     OW57514   8.714   8.985   1.291 -0.3975 -0.3173 -0.8052
19270SOL    HW157515   8.795   9.037   1.319  0.1500 -1.1830 -0.7750
19270SOL    HW257516   8.653   9.044   1.239  0.5550  0.1629 -1.3827
19271SOL     OW57517   6.437   1.637   0.232 -0.2354 -0.5099 -0.1150
19271SOL    HW157518   6.480   1.569   0.173  3.4386  0.4373  1.2791
19271SOL    HW257519   6.440   1.726   0.187  0.4818 -0.2014  0.5388
19273SOL     OW57520   2.865   2.448   1.373  0.7139 -0.6790  0.3776
19273SOL    HW157521   2.822   2.415   1.456 -1.4570  1.6264  0.2505
19273SOL    HW257522   2.932   2.519   1.395 -0.0402  0.1087  0.1633
19274SOL     OW57523   0.144   7.055   2.653  0.1892 -0.2577 -0.0331
19274SOL    HW157524   0.114   6.960   2.660  0.5025 -0.5343 -2.0489
19274SOL    HW257525   0.073   7.109   2.607  0.6698  0.1261 -0.3322
19275SOL     OW57526   1.880   2.934   4.128 -0.2071  0.6342  0.1753
19275SOL    HW157527   1.835   2.925   4.218 -0.3486 -1.5439 -0.0973
19275SOL    HW257528   1.944   3.011   4.131 -1.0447  1.3068  1.7936
19276SOL     OW57529   0.047   2.946   3.098  0.2040 -0.5485 -0.0753
19276SOL    HW157530   0.049   3.024   3.161  1.6161 -1.5280  1.1061
19276SOL    HW257531  -0.017   2.877   3.131 -1.4490  0.3073 -1.3996
19277SOL     OW57532   3.158   9.960   0.796 -0.2492 -0.3367  0.2868
19277SOL    HW157533   3.164  10.040   0.736 -1.7199 -0.2338  0.2522
19277SOL    HW257534   3.201   9.881   0.752  0.3740  0.2047 -0.0822
19278SOL     OW57535   8.437   7.063   1.123 -0.0699 -0.3639 -0.0315
19278SOL    HW157536   8.529   7.093   1.151 -0.6250  0.6067  0.7834
19278SOL    HW257537   8.388   7.141   1.085  0.2644 -1.4113 -2.6836
19279SOL     OW57538   4.430   4.554   1.525  0.4084 -0.4708 -0.0903
19279SOL    HW157539   4.527   4.539   1.504  0.4326  0.8838 -1.0015
19279SOL    HW257540   4.410   4.517   1.616  1.7969 -0.6655  0.1523
19280SOL     OW57541   7.500   5.363   1.388 -0.0107 -0.1637 -0.0109
19280SOL    HW157542   7.585   5.380   1.438 -0.0610  0.0078  0.0174
19280SOL    HW257543   7.520   5.351   1.291 -0.0827  1.1054 -0.1880
19281SOL     OW57544   5.496   1.461   3.913 -0.8122 -0.6139 -0.1965
19281SOL    HW157545   5.569   1.461   3.981 -0.7757 -2.2588 -0.2104
19281SOL    HW257546   5.490   1.551   3.870  0.4293 -0.1268  0.6239
19282SOL     OW57547   2.678   5.953   3.427 -0.1894 -0.0606  0.0088
19282SOL    HW157548   2.710   5.859   3.414  0.1465 -0.0189  0.4978
19282SOL    HW257549   2.751   6.007   3.469 -0.2703  0.5007 -0.5764
19283SOL     OW57550   3.494   2.819   5.395  0.6477  1.0051 -0.4917
19283SOL    HW157551   3.543   2.766   5.464  0.5433  0.1768 -1.0473
19283SOL    HW257552   3.514   2.782   5.304 -1.9139 -0.1144 -0.6542
19284SOL     OW57553   0.028   3.977   3.552 -0.1687 -0.0069  0.2495
19284SOL    HW157554   0.092   3.990   3.477 -1.2563  0.0915 -0.6789
19284SOL    HW257555  -0.027   4.060   3.562 -0.7162 -0.4012  0.4862
19285SOL     OW57556   4.119   7.963   4.916  0.2069  0.1014  0.1175
19285SOL    HW157557   4.065   8.022   4.976 -0.6706 -1.1241  0.5588
19285SOL    HW257558   4.209   7.948   4.956  0.4838  1.2607 -0.0718
19286SOL     OW57559   1.730   7.475   2.875 -0.4681  0.1037  0.1747
19286SOL    HW157560   1.769   7.449   2.964 -1.1845  0.3261  0.5563
19286SOL    HW257561   1.674   7.557   2.886 -0.0716  0.4879 -0.6006
19287SOL     OW57562   5.247   7.404   5.173  0.6046 -0.0936 -0.5347
19287SOL    HW157563   5.318   7.342   5.139  0.1305 -0.5191 -0.7457
19287SOL    HW257564   5.278   7.447   5.258  0.3522 -1.6692  0.3638
19288SOL     OW57565   3.036   7.691   0.728  0.0549  0.8366 -0.3266
19288SOL    HW157566   3.068   7.720   0.818 -0.9439 -0.5221  0.5010
19288SOL    HW257567   3.109   7.641   0.681 -1.1384 -3.5536  2.1554
19289SOL     OW57568   0.288   1.407   5.404  0.1156 -0.0778 -0.2715
19289SOL    HW157569   0.373   1.448   5.371 -0.6397  0.9351 -1.0099
19289SOL    HW257570   0.296   1.387   5.502  1.2087 -0.0383 -0.3411
19292SOL     OW57571   3.476   9.152   0.836  0.1110 -0.0624  0.4997
19292SOL    HW157572   3.457   9.154   0.934  1.1426  2.1803  0.6759
19292SOL    HW257573   3.503   9.060   0.809  2.1704 -0.1516  2.7629
19294SOL     OW57574   0.617   4.712   2.998 -0.0490 -0.1883  0.0690
19294SOL    HW157575   0.522   4.738   2.986  0.2415  0.8256 -0.0781
19294SOL    HW257576   0.622   4.616   3.025 -1.0965 -0.3002 -0.1106
19296SOL     OW57577   9.314   8.674   1.085 -0.2944  0.4410  0.5031
19296SOL    HW157578   9.342   8.764   1.051 -3.3306  1.6940  1.1529
19296SOL    HW257579   9.223   8.652   1.050  0.3616 -2.3749  0.4303
19297SOL     OW57580   2.629   3.573   0.562  0.0177 -0.0539 -0.1653
19297SOL    HW157581   2.590   3.503   0.621  0.2939 -0.1129 -0.0529
19297SOL    HW257582   2.606   3.664   0.598 -1.1919 -0.0741 -0.8632
19298SOL     OW57583   4.652   0.803   4.514 -0.6632  0.1475 -0.6503
19298SOL    HW157584   4.724   0.859   4.555 -0.0326 -0.4014 -1.0047
19298SOL    HW257585   4.669   0.792   4.416 -2.6679  2.2302 -1.2704
19299SOL     OW57586   2.167   5.580   4.548 -0.5035  0.1991  0.1127
19299SOL    HW157587   2.220   5.626   4.619 -0.7361  0.6616 -0.0083
19299SOL    HW257588   2.229   5.548   4.476  0.0232 -2.5322  1.7302
19300SOL     OW57589   6.961   1.693   2.348  0.8114  0.0879 -0.0720
19300SOL    HW157590   6.879   1.736   2.308  1.8510  2.0650 -0.1212
19300SOL    HW257591   6.998   1.752   2.420  0.9905 -1.8081  1.4217
19301SOL     OW57592   4.708   7.979   3.161 -0.4011  0.0163  0.1690
19301SOL    HW157593   4.673   8.057   3.213  0.3834  0.5219 -0.0526
19301SOL    HW257594   4.668   7.895   3.196 -0.5977  0.4377  0.9655
19302SOL     OW57595   3.092   5.408   2.818 -0.6150  0.9880 -0.3959
19302SOL    HW157596   2.996   5.438   2.817 -0.3634  1.7704 -1.2123
19302SOL    HW257597   3.151   5.485   2.841 -0.1419  0.6103 -0.3301
19303SOL     OW57598   0.317   5.715   1.981  0.4107  0.5727 -0.0921
19303SOL    HW157599   0.338   5.809   1.956  1.5481  0.0093 -1.3495
19303SOL    HW257600   0.370   5.653   1.923 -0.6647 -0.8435  0.4108
19305SOL     OW57601   9.971   2.470   2.651  0.3407  0.0659 -0.1727
19305SOL    HW157602  10.055   2.442   2.697 -0.3080  2.0424  2.3659
19305SOL    HW257603   9.981   2.562   2.615  0.2409 -0.8138 -2.5537
19306SOL     OW57604   2.019   8.591   4.900 -0.0607  0.0191  0.1654
19306SOL    HW157605   2.088   8.664   4.907  0.4343 -0.3282 -1.0174
19306SOL    HW257606   2.031   8.527   4.976  2.5937 -1.4477 -1.4060
19307SOL     OW57607   1.254   3.850   5.535 -0.1149  0.0051 -0.0564
19307SOL    HW157608   1.295   3.941   5.530 -0.9867  0.3014 -2.2695
19307SOL    HW257609   1.320   3.782   5.505 -0.0815  0.1193 -0.2440
19309SOL     OW57610   4.059   7.412   2.179 -0.1108 -0.0725 -0.4555
19309SOL    HW157611   4.152   7.415   2.142 -0.4771  1.6404 -1.2727
19309SOL    HW257612   4.044   7.324   2.223  1.4676 -0.8631 -1.4517
19310SOL     OW57613   4.372   7.759   1.393 -0.0002  0.1639 -0.5333
19310SOL    HW157614   4.342   7.691   1.327 -0.1910  0.8960 -1.2178
19310SOL    HW257615   4.295   7.788   1.449  0.2406 -0.7320  0.2653
19312SOL     OW57616   0.290   3.026   3.034  1.0541  0.1237  0.1899
19312SOL    HW157617   0.348   2.986   2.963  0.5737  0.0956 -0.1873
19312SOL    HW257618   0.206   2.972   3.042  2.6309 -2.0154  3.2333
19313SOL     OW57619   7.948   8.526   4.124  0.0352  0.0618  0.0534
19313SOL    HW157620   7.985   8.434   4.111 -0.8059 -0.5523  1.8768
19313SOL    HW257621   8.005   8.576   4.190  0.0310  0.5787 -0.3263
19314SOL     OW57622   4.673   9.860   4.984  0.0583 -0.0090  0.1500
19314SOL    HW157623   4.758   9.806   4.982  1.0958  1.6344 -0.8991
19314SOL    HW257624   4.660   9.898   5.076  0.1679 -0.6919  0.4544
19315SOL     OW57625   0.586   1.175   2.369  0.8429  0.0541 -0.3399
19315SOL    HW157626   0.573   1.099   2.305 -0.0360 -1.0661  1.1325
19315SOL    HW257627   0.546   1.151   2.457 -0.0993  2.5348 -0.0582
19316SOL     OW57628   2.548   9.834   1.293 -0.2725  0.1863  0.2166
19316SOL    HW157629   2.535   9.887   1.208 -0.5844 -0.4173 -0.1116
19316SOL    HW257630   2.495   9.876   1.366  1.1526  1.5792  0.4865
19317SOL     OW57631   0.540   3.017   2.824 -0.0520 -0.0804 -0.1431
19317SOL    HW157632   0.528   2.918   2.820  0.6534 -0.1608 -0.2925
19317SOL    HW257633   0.623   3.043   2.775 -0.3433  0.6074 -0.2858
19318SOL     OW57634   8.697   5.099   0.201  0.8784  0.5613  0.0745
19318SOL    HW157635   8.763   5.128   0.132  1.1824 -0.5978 -0.1356
19318SOL    HW257636   8.728   5.130   0.292  1.4168  0.5267 -0.0920
19319SOL     OW57637   1.996   4.817   0.742 -0.0991  0.1163  0.0583
19319SOL    HW157638   1.945   4.835   0.826 -1.0581  1.2110 -0.7469
19319SOL    HW257639   2.051   4.897   0.718  0.7820 -0.4753  0.0483
19321SOL     OW57640   1.436   8.012   2.215 -0.3231 -0.1963  0.2446
19321SOL    HW157641   1.467   8.107   2.212 -0.3855 -0.2066 -0.9521
19321SOL    HW257642   1.430   7.976   2.122  2.6051 -2.3040  0.7898
19322SOL     OW57643   7.967   2.986   4.552  0.9424 -0.5106  0.1765
19322SOL    HW157644   7.982   2.966   4.455 -0.0951 -0.2005 -0.0621
19322SOL    HW257645   7.886   2.936   4.583  2.1169 -1.7647  1.2711
19323SOL     OW57646   2.844   5.615   1.828  0.2767  0.5370  0.0542
19323SOL    HW157647   2.850   5.515   1.835  0.9868  0.5046 -0.9577
19323SOL    HW257648   2.758   5.646   1.869  0.2654 -0.4484  0.7854
19324SOL     OW57649   4.710   9.389   4.535 -0.6882  0.2444  0.4215
19324SOL    HW157650   4.633   9.427   4.484 -1.5804 -2.8972 -0.7059
19324SOL    HW257651   4.675   9.345   4.618 -0.0660 -0.6971  0.1915
19325SOL     OW57652   6.596   2.667   1.637  0.0042 -0.0789  0.9287
19325SOL    HW157653   6.617   2.673   1.539  2.6514 -2.6516  1.3026
19325SOL    HW257654   6.616   2.755   1.680  1.6645  0.1867 -0.3255
19326SOL     OW57655   5.522   1.188   3.586 -0.2450 -0.1461  0.3680
19326SOL    HW157656   5.562   1.118   3.528 -0.3051  1.2831 -1.4420
19326SOL    HW257657   5.580   1.270   3.586 -1.5838  0.8298  0.1613
19327SOL     OW57658   2.294   7.301   2.793  0.4742  0.1105 -0.2411
19327SOL    HW157659   2.302   7.207   2.829  0.2199 -0.0273 -0.5507
19327SOL    HW257660   2.385   7.344   2.794  0.4614  0.1370  0.6521
19329SOL     OW57661   9.365   4.361   3.350 -0.5325 -0.3764  0.5547
19329SOL    HW157662   9.398   4.276   3.392  0.7784  0.4696  1.2920
19329SOL    HW257663   9.309   4.411   3.415  0.5354  0.3771  0.9136
19330SOL     OW57664   9.322   5.033   3.360 -0.1279  0.0011  0.4506
19330SOL    HW157665   9.368   5.068   3.279  0.3175 -0.9143  0.3024
19330SOL    HW257666   9.294   4.938   3.344 -1.0606  0.1970  0.9483
19331SOL     OW57667   2.118   8.924   4.018 -0.0191  0.1569 -0.3435
19331SOL    HW157668   2.199   8.885   4.061  0.4473 -0.0946 -1.4281
19331SOL    HW257669   2.077   8.992   4.078  0.2950 -0.5934  0.7283
19333SOL     OW57670   3.219   0.809   1.194 -0.0178 -0.5202 -0.6740
19333SOL    HW157671   3.170   0.866   1.260 -0.2117 -3.4190  1.8228
19333SOL    HW257672   3.159   0.786   1.118 -0.7253  0.5299 -0.4360
19334SOL     OW57673   8.558   5.706   5.964 -0.0112  0.0520 -1.0029
19334SOL    HW157674   8.616   5.646   5.908 -0.3628 -0.7242 -0.5437
19334SOL    HW257675   8.488   5.748   5.907 -0.5932 -1.0208 -1.0857
19335SOL     OW57676   1.009   0.716   2.843  0.4812 -0.5935  0.1461
19335SOL    HW157677   1.032   0.768   2.761 -2.1478  0.1008 -0.2040
19335SOL    HW257678   1.051   0.625   2.838  0.0626 -0.6902 -2.1631
19336SOL     OW57679   4.288   6.130   2.331  0.3324  0.4070 -0.2014
19336SOL    HW157680   4.256   6.054   2.275 -0.0949  0.5102 -0.0966
19336SOL    HW257681   4.210   6.186   2.359  0.4575 -0.1485  1.2536
19338SOL     OW57682   6.809   0.069   5.880  0.2128 -0.1276 -0.0172
19338SOL    HW157683   6.771  -0.005   5.935  1.5034  0.4820  1.7163
19338SOL    HW257684   6.826   0.036   5.787  1.1743 -2.1289  0.8505
19339SOL     OW57685   0.818   1.691   3.606 -0.3872 -0.0940 -0.0639
19339SOL    HW157686   0.871   1.674   3.523 -3.0578 -0.0155 -1.8246
19339SOL    HW257687   0.803   1.605   3.654  1.2518 -0.1249  0.4146
19340SOL     OW57688   9.661   2.403   4.024  0.0041 -0.6387  0.1579
19340SOL    HW157689   9.677   2.314   4.065 -1.6003 -1.4234 -0.8648
19340SOL    HW257690   9.708   2.409   3.936 -0.2162 -0.6323  0.0394
19341SOL     OW57691   7.545   7.213   5.142  0.2970 -0.0608 -0.0445
19341SOL    HW157692   7.605   7.252   5.072  0.3822  0.7485  0.4697
19341SOL    HW257693   7.592   7.210   5.230 -1.0660  2.5696  0.8520
19342SOL     OW57694   2.191   8.952   0.832 -0.9753  0.2889 -0.2487
19342SOL    HW157695   2.212   9.006   0.750 -0.9177  0.0750 -0.3750
19342SOL    HW257696   2.193   9.012   0.912 -0.7919  0.4526 -0.3734
19343SOL     OW57697   9.008   9.277   2.856  0.0008 -0.0389  0.4768
19343SOL    HW157698   8.942   9.310   2.924 -0.5911 -0.5702  0.1657
19343SOL    HW257699   8.963   9.213   2.794  0.7737 -0.2969  0.1688
19344SOL     OW57700   0.926   7.402   1.580 -0.0970  0.3505  0.3334
19344SOL    HW157701   0.939   7.323   1.520  0.6676 -0.7032  1.8716
19344SOL    HW257702   1.004   7.410   1.643 -0.6101  1.7903  0.8113
19345SOL     OW57703   8.947   4.714   5.020 -0.1014  0.4342 -0.7068
19345SOL    HW157704   9.031   4.675   4.980  0.0443 -0.3619  0.3572
19345SOL    HW257705   8.945   4.696   5.118 -0.8710  1.6479 -0.4911
19346SOL     OW57706   5.395   9.098   4.810  0.6085  0.2441 -0.0080
19346SOL    HW157707   5.445   9.046   4.741  0.8242  0.0930  0.2592
19346SOL    HW257708   5.361   9.183   4.770  1.6491  0.6688 -0.0245
19347SOL     OW57709   2.252   3.857   4.276  0.0893 -0.3800 -0.5994
19347SOL    HW157710   2.192   3.936   4.262 -0.6935 -0.6572  1.0861
19347SOL    HW257711   2.272   3.847   4.373  1.4247 -1.3731 -0.9566
19350SOL     OW57712   8.925   8.530   6.448  0.4060 -0.4161 -0.3264
19350SOL    HW157713   8.976   8.615   6.438  0.0585 -0.3221 -1.3508
19350SOL    HW257714   8.980   8.453   6.416  0.7494 -0.6019  0.6682
19351SOL     OW57715   2.829   9.701   5.048 -0.5040  0.1904  0.1494
19351SOL    HW157716   2.858   9.672   5.139  1.3097 -0.8963 -0.7337
19351SOL    HW257717   2.747   9.757   5.055 -0.9390 -0.6660  2.3719
19352SOL     OW57718   4.860   8.005   3.670  0.5512  0.3343 -0.4321
19352SOL    HW157719   4.828   7.911   3.677  1.8801 -0.0772  0.2754
19352SOL    HW257720   4.900   8.020   3.579 -1.1024  0.6915 -1.1210
19353SOL     OW57721   0.862   8.028   4.878 -0.4777 -0.3254 -0.3549
19353SOL    HW157722   0.805   8.052   4.800  1.9226  0.1012 -2.0236
19353SOL    HW257723   0.930   7.961   4.850 -0.5468 -1.3437  1.7760
19354SOL     OW57724   1.518   6.932   4.622  0.5909 -0.3658  0.4827
19354SOL    HW157725   1.490   7.020   4.585  0.4486 -0.1093  1.2080
19354SOL    HW257726   1.445   6.894   4.679  1.1736 -0.3322  1.2598
19355SOL     OW57727   6.225   9.424   3.272 -0.2363  0.5432  0.3466
19355SOL    HW157728   6.207   9.388   3.364 -1.9788  0.3693 -0.0296
19355SOL    HW257729   6.250   9.521   3.278  0.7757  0.2421  1.0835
19356SOL     OW57730   2.669   6.701   4.001 -0.1907 -0.2455 -0.4676
19356SOL    HW157731   2.582   6.703   3.952 -1.0519  1.6690  1.0119
19356SOL    HW257732   2.727   6.775   3.967  0.2138 -0.5273 -0.3770
19357SOL     OW57733   3.411   5.479   0.671 -0.1978  0.0778 -0.1207
19357SOL    HW157734   3.489   5.435   0.716  0.8337  0.6308 -1.3425
19357SOL    HW257735   3.436   5.572   0.645 -1.5301  0.5257  0.1615
19358SOL     OW57736   8.704   6.791   4.380  0.5380  0.2753 -0.0917
19358SOL    HW157737   8.642   6.864   4.351 -0.5609 -0.1591  1.1102
19358SOL    HW257738   8.688   6.710   4.325  0.9711  0.5896 -0.6775
19359SOL     OW57739   9.206   1.876   6.166  0.0392 -0.0251 -0.4655
19359SOL    HW157740   9.255   1.805   6.216 -1.0989 -1.3964 -1.2330
19359SOL    HW257741   9.250   1.891   6.077  2.3340  2.7345  1.0451
19361SOL     OW57742   3.789   3.990   3.503 -0.1541  0.0906 -0.7980
19361SOL    HW157743   3.851   4.068   3.514 -0.7315  0.3396  0.9394
19361SOL    HW257744   3.841   3.905   3.517  0.2169  0.2042 -1.4480
19362SOL     OW57745   0.816   2.514   0.753 -0.4092 -0.2503 -0.1940
19362SOL    HW157746   0.819   2.567   0.838  1.0261 -1.9898  0.8785
19362SOL    HW257747   0.748   2.553   0.691 -0.5735  1.8004  1.2480
19363SOL     OW57748   2.873   0.118   2.700 -0.3357  0.0732  0.1369
19363SOL    HW157749   2.904   0.078   2.614 -0.7646 -0.3165  0.1624
19363SOL    HW257750   2.845   0.213   2.685 -2.3833 -0.6189 -0.5796
19364SOL     OW57751   1.901   4.417   0.454  0.3336 -0.5239  0.2100
19364SOL    HW157752   2.000   4.433   0.455  0.7273 -2.8758 -0.1586
19364SOL    HW257753   1.874   4.375   0.540 -0.2360 -0.5851  0.0004
19365SOL     OW57754   1.567   4.202   0.906  0.1942  0.1730 -0.4052
19365SOL    HW157755   1.575   4.102   0.897  1.0760  0.1094  0.9592
19365SOL    HW257756   1.514   4.224   0.987  2.1797  0.8381  0.7349
19366SOL     OW57757   4.569   4.847   3.268 -0.6954  0.3182  0.2023
19366SOL    HW157758   4.528   4.836   3.358 -0.8760  2.3149  0.3742
19366SOL    HW257759   4.635   4.922   3.270  1.5124 -1.5147 -0.5854
19367SOL     OW57760   4.466   3.533   3.668 -0.1431 -0.0702  0.3772
19367SOL    HW157761   4.548   3.477   3.677 -0.4884 -0.6356 -0.0013
19367SOL    HW257762   4.397   3.483   3.616 -0.4206  0.7353 -0.0420
19368SOL     OW57763   3.276   8.696   1.420  0.0484  0.0241 -0.0547
19368SOL    HW157764   3.198   8.758   1.423 -0.5128 -0.5936 -1.3060
19368SOL    HW257765   3.336   8.713   1.498 -2.2413 -0.7098  1.9075
19372SOL     OW57766   5.060   9.005   4.236 -1.0410  0.3572  0.0840
19372SOL    HW157767   5.020   8.991   4.326 -1.1672  0.7076  0.0825
19372SOL    HW257768   4.988   9.024   4.169 -0.8166  1.8669  0.2490
19373SOL     OW57769   9.108   2.335   5.032  0.4898  0.6136 -0.3552
19373SOL    HW157770   9.170   2.274   5.081 -0.7459 -2.7202 -2.7649
19373SOL    HW257771   9.038   2.370   5.095  0.7396 -1.1142  0.9230
19374SOL     OW57772   3.785   7.879   5.566 -0.4455 -0.0007  0.0541
19374SOL    HW157773   3.739   7.886   5.655  1.1730  0.1246  0.9011
19374SOL    HW257774   3.725   7.915   5.495 -1.8074 -0.1932  1.0827
19376SOL     OW57775   5.675   9.161   6.152  0.0499 -0.8312 -0.4635
19376SOL    HW157776   5.591   9.157   6.099  0.6956 -1.4952 -1.4575
19376SOL    HW257777   5.718   9.251   6.141  0.7097 -1.3050 -1.9214
19377SOL     OW57778   7.964   7.386   0.273 -0.2487  0.1797  0.6178
19377SOL    HW157779   7.877   7.382   0.223 -0.0480 -0.2599  0.2978
19377SOL    HW257780   7.993   7.482   0.281  0.1274  0.2035 -0.8374
19378SOL     OW57781   2.200   3.600   2.383  0.1497 -1.2070  0.8870
19378SOL    HW157782   2.233   3.679   2.435 -0.6056  1.4212 -2.4223
19378SOL    HW257783   2.114   3.568   2.423 -0.1658  0.4249  1.5884
19379SOL     OW57784   2.094   5.130   1.063 -0.3418  0.0061 -0.5786
19379SOL    HW157785   2.044   5.104   0.981 -1.1332 -1.5576  0.3889
19379SOL    HW257786   2.114   5.049   1.117 -1.0298  1.1680  1.4640
19381SOL     OW57787   3.163   2.612   1.982  0.4406 -0.1041  0.0067
19381SOL    HW157788   3.099   2.613   2.059  1.9526  1.5455  1.2688
19381SOL    HW257789   3.232   2.542   1.997  1.0337  0.5621  0.4130
19384SOL     OW57790   4.144   5.711   1.105  0.0737 -0.3497  0.8679
19384SOL    HW157791   4.120   5.620   1.073 -0.0849 -0.4888  1.3825
19384SOL    HW257792   4.192   5.760   1.032  0.9867 -1.1753  0.9031
19385SOL     OW57793   4.121   0.075   5.728 -0.0480  0.3620 -0.0294
19385SOL    HW157794   4.210   0.120   5.730 -0.5578  1.3980 -0.2090
19385SOL    HW257795   4.083   0.073   5.820 -0.9422  2.2129 -0.3148
19386SOL     OW57796   7.692   0.407   1.931  0.0076 -0.1839  0.0522
19386SOL    HW157797   7.695   0.309   1.951 -0.9120 -0.1350  0.4732
19386SOL    HW257798   7.628   0.424   1.856  0.9292 -0.0067 -0.7084
19387SOL     OW57799   4.327   4.756   5.506 -0.7372 -0.8858 -0.8115
19387SOL    HW157800   4.380   4.752   5.591 -0.7168 -1.0670 -0.8338
19387SOL    HW257801   4.387   4.743   5.428 -0.5241  0.7637 -0.9308
19388SOL     OW57802   8.311   9.295   2.711  0.4517 -0.8524 -0.1859
19388SOL    HW157803   8.304   9.394   2.724  1.0625 -0.5269 -2.1206
19388SOL    HW257804   8.403   9.265   2.733  1.0735 -0.5221 -2.1623
19389SOL     OW57805   2.386   9.034   2.603  0.8038  0.2510 -0.5986
19389SOL    HW157806   2.351   9.111   2.549 -0.1760 -0.6171 -1.2108
19389SOL    HW257807   2.486   9.038   2.607  0.7481  1.7215 -0.3794
19390SOL     OW57808   4.912   5.455   2.255  0.0617 -0.3309  0.7838
19390SOL    HW157809   4.831   5.405   2.287  0.1694 -0.8066  0.3264
19390SOL    HW257810   4.926   5.436   2.158  0.8018 -0.3491  0.8927
19391SOL     OW57811   8.697   2.526   4.081 -0.8425  0.0077 -0.3533
19391SOL    HW157812   8.602   2.547   4.056 -0.9863 -1.4676 -1.1395
19391SOL    HW257813   8.698   2.448   4.144 -0.1554 -0.0880 -0.4796
19393SOL     OW57814   8.004   2.219   4.462 -0.3212 -0.0070  0.8851
19393SOL    HW157815   8.027   2.227   4.559 -1.2609 -0.7704  1.1775
19393SOL    HW257816   7.980   2.124   4.441  0.8856 -0.0527 -0.3289
19394SOL     OW57817   4.565   5.181   0.865 -0.0355 -0.2457 -0.2492
19394SOL    HW157818   4.643   5.228   0.906  0.0740  2.3041 -3.2537
19394SOL    HW257819   4.567   5.085   0.893  0.9306  0.9568  4.3020
19395SOL     OW57820   0.577   4.162   5.753  0.3282 -0.0554 -0.0790
19395SOL    HW157821   0.607   4.155   5.658  1.2713 -1.1269  0.2913
19395SOL    HW257822   0.647   4.123   5.813  0.2583  1.6472  1.1547
19396SOL     OW57823   7.362   4.963   1.537  0.4364 -0.3689  0.0961
19396SOL    HW157824   7.305   4.887   1.570 -0.2450  0.0125 -0.2129
19396SOL    HW257825   7.332   5.048   1.579  1.9738 -0.4228  1.3861
19397SOL     OW57826   4.818   3.933   4.061 -0.8156 -0.5357  0.0789
19397SOL    HW157827   4.863   3.967   3.978 -1.7085  1.0317  0.2251
19397SOL    HW257828   4.862   3.848   4.090  1.6750  0.6375 -0.1411
19398SOL     OW57829   8.631   3.289   4.351  0.6226  0.1420  0.7846
19398SOL    HW157830   8.565   3.351   4.392  1.2344  1.1225  0.3021
19398SOL    HW257831   8.722   3.332   4.351  0.8222 -0.2643 -0.6444
19400SOL     OW57832   4.667   1.391   2.068 -0.3571 -0.1407 -0.5369
19400SOL    HW157833   4.734   1.339   2.120 -0.9195  0.3876  0.7509
19400SOL    HW257834   4.607   1.328   2.019 -0.1528 -0.6688 -0.1207
19402SOL     OW57835   8.833   6.918   1.881  0.3863 -0.4068  0.1089
19402SOL    HW157836   8.917   6.903   1.934  0.4463  0.0274  0.1370
19402SOL    HW257837   8.783   6.995   1.920  1.3530  1.1033 -1.6130
19403SOL     OW57838   5.163   0.407   3.505 -0.1520  0.4515 -0.4178
19403SOL    HW157839   5.183   0.386   3.600 -0.4258 -0.0382 -0.4714
19403SOL    HW257840   5.137   0.503   3.497 -0.2151  0.4705  0.0116
19405SOL     OW57841   9.471   9.592   1.407  0.3503  0.0732  0.1923
19405SOL    HW157842   9.452   9.495   1.388  0.6312  0.1177 -0.3549
19405SOL    HW257843   9.386   9.644   1.406  0.1595 -0.2230  0.8302
19406SOL     OW57844   0.213   9.602   6.329  0.3480  0.5805  0.3677
19406SOL    HW157845   0.118   9.618   6.357  0.3484  0.1962  0.5852
19406SOL    HW257846   0.242   9.675   6.267 -0.6442 -0.2460 -1.0793
19407SOL     OW57847   1.438   6.651   0.278 -0.6136  0.5438 -0.4705
19407SOL    HW157848   1.433   6.744   0.316 -1.6101  0.2111  0.2496
19407SOL    HW257849   1.442   6.656   0.179  0.1037  1.3862 -0.3993
19408SOL     OW57850   8.138   1.268   6.410  0.1398 -0.4169 -0.0944
19408SOL    HW157851   8.203   1.202   6.447  0.7048 -0.7590 -1.6701
19408SOL    HW257852   8.100   1.233   6.325 -0.6609  0.6459 -0.1825
19410SOL     OW57853   1.248   0.108   3.353 -0.2826  0.7703  0.2943
19410SOL    HW157854   1.329   0.050   3.359 -0.2561  0.8447  0.6724
19410SOL    HW257855   1.166   0.053   3.370 -0.4896  0.2476 -2.1781
19411SOL     OW57856   2.413   6.398   4.843 -0.1222 -0.5353  0.3589
19411SOL    HW157857   2.350   6.452   4.788  0.0449  0.1429  0.8164
19411SOL    HW257858   2.413   6.433   4.937 -0.6280 -1.8669  0.8642
19412SOL     OW57859   2.170   6.871   1.065  0.1276 -0.6966 -0.3487
19412SOL    HW157860   2.106   6.913   1.129  0.1993  0.8141 -1.2240
19412SOL    HW257861   2.261   6.869   1.105 -0.0221 -0.7019 -0.0080
19413SOL     OW57862   7.250   6.838   5.748 -0.3010  0.1249  0.2356
19413SOL    HW157863   7.280   6.923   5.790 -0.7473  0.1564  0.4872
19413SOL    HW257864   7.151   6.840   5.733 -0.2283 -0.1147 -0.2880
19414SOL     OW57865   3.462   6.441   0.085 -0.4696 -0.1947 -0.0682
19414SOL    HW157866   3.435   6.432  -0.010  1.8375  1.4394 -0.9306
19414SOL    HW257867   3.438   6.532   0.119  0.6537 -0.0101  0.2475
19415SOL     OW57868   7.949   4.156   0.869  0.3049 -0.2991 -0.3997
19415SOL    HW157869   7.887   4.184   0.796 -0.7265  0.5972  0.7852
19415SOL    HW257870   7.929   4.062   0.896  1.1304 -0.8645 -1.6974
19416SOL     OW57871   3.995   7.134   4.372  0.3531 -0.5910 -0.0021
19416SOL    HW157872   4.090   7.128   4.339 -0.9671  2.7981 -4.9793
19416SOL    HW257873   3.970   7.230   4.382 -3.0263 -1.4225 -0.1045
19418SOL     OW57874   8.608   4.864   3.925  0.1067 -0.1785  0.2653
19418SOL    HW157875   8.618   4.953   3.880 -0.3321 -0.0266  0.4653
19418SOL    HW257876   8.546   4.873   4.003 -0.0562 -0.6914  0.1986
19419SOL     OW57877   2.573   8.468   6.187  0.1835  0.1846 -0.5902
19419SOL    HW157878   2.566   8.511   6.097  1.4120  0.8996 -0.3493
19419SOL    HW257879   2.502   8.398   6.195  0.4842 -0.3566 -2.3694
19420SOL     OW57880   2.450   3.905   0.167  0.0932  0.0413 -0.0492
19420SOL    HW157881   2.390   3.826   0.179 -0.0484  0.1889  0.2241
19420SOL    HW257882   2.395   3.988   0.163  0.3102  0.2181  0.6180
19421SOL     OW57883   3.798   0.210   4.797 -0.5273 -0.3783 -0.0556
19421SOL    HW157884   3.828   0.166   4.712 -0.8850 -1.7846  0.5280
19421SOL    HW257885   3.707   0.249   4.784  0.0446  0.7530 -0.7630
19423SOL     OW57886   3.873   5.967   0.910 -0.1112  0.7025 -0.0758
19423SOL    HW157887   3.803   5.896   0.916  0.2289  0.1660 -2.1191
19423SOL    HW257888   3.928   5.953   0.828  1.0991  2.3052  0.4299
19424SOL     OW57889   6.687   6.954   5.913  0.4971 -0.1716 -0.4038
19424SOL    HW157890   6.620   6.971   5.840 -0.6856 -0.7155  0.5358
19424SOL    HW257891   6.727   6.863   5.901  0.6403 -0.0783 -0.6337
19425SOL     OW57892   3.382   8.590   2.228  0.7310  0.3322  0.2330
19425SOL    HW157893   3.410   8.528   2.302 -0.1088  0.4520  0.6635
19425SOL    HW257894   3.306   8.550   2.178  0.2102  0.9961  0.4862
19426SOL     OW57895   7.620   6.937   3.579  0.2785 -0.3198  0.5348
19426SOL    HW157896   7.699   6.949   3.519  0.7898 -2.8751  0.6598
19426SOL    HW257897   7.607   7.020   3.633  2.5110  0.3618  0.0756
19427SOL     OW57898   2.850   9.979   0.371 -0.1766  0.2699  0.3922
19427SOL    HW157899   2.785  10.037   0.322 -1.4903 -1.0823  0.5114
19427SOL    HW257900   2.851  10.006   0.468 -1.9141 -0.8885  0.7462
19431SOL     OW57901   7.354   9.166   3.064 -0.3306 -0.3914  0.0567
19431SOL    HW157902   7.333   9.088   3.122  1.3736 -0.0400  1.2022
19431SOL    HW257903   7.398   9.135   2.980 -0.6835 -0.7417  0.0022
19432SOL     OW57904   4.043   2.614   3.115 -0.5648 -0.3863 -0.4146
19432SOL    HW157905   4.103   2.589   3.190 -0.6427  1.5658  0.3247
19432SOL    HW257906   4.089   2.597   3.028  1.0073  0.9849  0.1399
19433SOL     OW57907   3.357   6.765   5.404  0.5463  0.7062  0.7054
19433SOL    HW157908   3.439   6.790   5.353 -0.3443  0.5697 -0.8351
19433SOL    HW257909   3.286   6.734   5.340 -0.6028  0.5299  2.0338
19434SOL     OW57910   1.501   1.726   1.813  0.0293 -0.3464  0.0565
19434SOL    HW157911   1.444   1.662   1.863 -0.4707 -0.5181 -0.7115
19434SOL    HW257912   1.576   1.758   1.871 -1.8051  1.1886  1.6595
19435SOL     OW57913   1.851   8.426   3.617  0.2945 -0.6709 -0.2364
19435SOL    HW157914   1.806   8.382   3.539 -0.0944  1.5892 -1.3511
19435SOL    HW257915   1.924   8.368   3.651  0.5799 -1.6408 -2.4219
19436SOL     OW57916   0.101   4.351   1.099 -0.5223  0.4298 -0.3138
19436SOL    HW157917   0.038   4.387   1.030 -1.1338 -0.6926 -0.3568
19436SOL    HW257918   0.048   4.305   1.170  0.3011 -1.8230 -1.1064
19437SOL     OW57919   2.167   8.800   4.975  0.4992 -0.7505  0.6850
19437SOL    HW157920   2.182   8.888   4.930  0.8573 -0.7372  0.8269
19437SOL    HW257921   2.199   8.806   5.070 -0.0981 -0.8285  0.8918
19438SOL     OW57922   9.122   5.327   3.642 -0.0538 -0.1092 -0.0297
19438SOL    HW157923   9.222   5.335   3.650 -0.0617  0.4672 -0.4586
19438SOL    HW257924   9.099   5.261   3.571  0.0246 -0.1776  0.0083
19441SOL     OW57925   9.729   7.534   4.664 -0.0409 -0.0212  0.4101
19441SOL    HW157926   9.718   7.462   4.596  0.7326  0.2428 -0.0065
19441SOL    HW257927   9.737   7.494   4.755  0.1032 -0.4431  0.2110
19442SOL     OW57928   0.128   0.604   0.909  0.3709  0.0104 -0.8251
19442SOL    HW157929   0.129   0.662   0.991  3.6193  0.7089 -1.2616
19442SOL    HW257930   0.116   0.508   0.935  1.5447  0.2127  0.5122
19443SOL     OW57931   7.935   8.837   2.850 -0.0763 -0.1675 -0.7806
19443SOL    HW157932   7.869   8.912   2.843 -0.8378 -0.6942  0.6514
19443SOL    HW257933   7.886   8.750   2.861  0.8455 -0.5782  0.1712
19445SOL     OW57934   2.012   0.525   4.890  0.6647  0.9485  0.2818
19445SOL    HW157935   2.037   0.488   4.979  0.7256  1.0316  0.3007
19445SOL    HW257936   2.022   0.455   4.820  1.5072  1.1387  0.2041
19446SOL     OW57937   7.147   4.934   1.834 -0.0101  0.0407 -0.1458
19446SOL    HW157938   7.184   5.021   1.801  0.8236  0.6086  2.1337
19446SOL    HW257939   7.220   4.866   1.836 -0.5709 -0.6055 -1.5570
19447SOL     OW57940   9.432   6.082   5.669  0.6842  0.0313  0.0088
19447SOL    HW157941   9.393   6.045   5.753 -0.0318  1.4029  0.2873
19447SOL    HW257942   9.422   6.015   5.595  1.2633 -1.1535  0.9888
19448SOL     OW57943   8.053   4.442   4.206  0.1963  0.2257  0.1494
19448SOL    HW157944   8.089   4.534   4.218  0.0550  0.2085  0.7362
19448SOL    HW257945   8.007   4.413   4.290 -0.5678 -0.0233 -0.3508
19449SOL     OW57946   9.781   9.743   5.368 -0.0318  0.2789 -0.0013
19449SOL    HW157947   9.726   9.826   5.367 -0.9518 -0.3038  1.0668
19449SOL    HW257948   9.878   9.767   5.358 -0.2494  1.5210  0.7217
19450SOL     OW57949   1.057   5.377   1.864  0.1664 -0.4073  0.2179
19450SOL    HW157950   1.126   5.319   1.908 -1.2754 -2.6309 -0.3620
19450SOL    HW257951   0.968   5.331   1.868 -1.6195  3.0481  2.2372
19451SOL     OW57952   9.603   9.195   2.383 -0.0784 -0.2306  0.3378
19451SOL    HW157953   9.605   9.106   2.430 -1.6645 -0.3666  0.1569
19451SOL    HW257954   9.582   9.181   2.287 -0.0464  0.3294  0.2520
19452SOL     OW57955   7.192   8.034   5.619  0.3304 -0.0837  0.0770
19452SOL    HW157956   7.121   7.989   5.673  1.3595 -0.4711  1.1385
19452SOL    HW257957   7.226   8.114   5.669  1.1428 -0.3219 -0.0896
19454SOL     OW57958   9.037   1.721   5.102 -0.0695  0.0244 -0.0216
19454SOL    HW157959   9.126   1.713   5.057 -0.3335  1.0722 -0.7440
19454SOL    HW257960   8.976   1.775   5.045 -0.4498  1.2768  1.5257
19455SOL     OW57961   0.663   3.496   4.631 -0.4105  0.2936  0.2289
19455SOL    HW157962   0.744   3.455   4.589 -0.2942  0.8209 -0.0689
19455SOL    HW257963   0.639   3.446   4.714 -0.2127 -0.3155 -0.0807
19456SOL     OW57964   6.206   0.468   1.241  0.2183 -0.1852  0.2759
19456SOL    HW157965   6.197   0.516   1.328  0.2356  1.5184 -0.6355
19456SOL    HW257966   6.300   0.476   1.208  0.3414 -1.2740  0.3418
19457SOL     OW57967   9.813   4.881   1.983 -0.2304 -0.2990 -0.3911
19457SOL    HW157968   9.713   4.875   1.990 -0.1520  1.0638  2.3460
19457SOL    HW257969   9.838   4.971   1.947  0.0663 -0.0812  0.3638
19458SOL     OW57970   9.987   4.720   4.378  0.3224 -0.0392 -0.2428
19458SOL    HW157971  10.035   4.728   4.465  1.6676  1.7827 -1.1281
19458SOL    HW257972   9.909   4.781   4.377  0.1903 -0.2071 -0.2420
19459SOL     OW57973   7.602   0.143   0.006  0.0105  0.1164  0.3152
19459SOL    HW157974   7.538   0.171  -0.065 -1.5506  2.2390  2.4479
19459SOL    HW257975   7.552   0.104   0.083  1.2970  1.1090  1.7006
19460SOL     OW57976   9.171   3.329   1.448 -0.3797  0.0541 -0.0365
19460SOL    HW157977   9.242   3.294   1.388 -0.4367 -2.3230  1.1998
19460SOL    HW257978   9.181   3.288   1.539 -1.6985  1.7680  0.9147
19463SOL     OW57979   4.155   6.814   3.075 -0.2212  0.1192 -0.4761
19463SOL    HW157980   4.252   6.790   3.082 -0.3187  0.0073  0.5299
19463SOL    HW257981   4.101   6.731   3.057 -0.1274  0.1932 -1.1184
19464SOL     OW57982   9.665   5.465   3.791 -0.1674 -0.7849  0.1494
19464SOL    HW157983   9.707   5.410   3.719  1.1258  0.2493  0.1075
19464SOL    HW257984   9.609   5.537   3.749  0.5729 -0.1921  0.1722
19465SOL     OW57985   8.752   0.113   1.149  0.1637  0.8022 -0.0695
19465SOL    HW157986   8.699   0.095   1.232  1.5630 -1.3158  0.4008
19465SOL    HW257987   8.837   0.160   1.173 -0.4236  2.1765 -0.5821
19466SOL     OW57988   7.277   9.175   3.965 -0.2147  0.6052 -0.0648
19466SOL    HW157989   7.295   9.082   3.996 -2.1497 -0.0098 -0.7332
19466SOL    HW257990   7.211   9.218   4.025  0.9666  1.7052  0.4704
19467SOL     OW57991   4.467   2.690   4.012  0.0510  0.0052  0.3987
19467SOL    HW157992   4.516   2.610   3.979 -0.3901 -0.0279 -0.1729
19467SOL    HW257993   4.531   2.765   4.026  0.3640 -0.2444  0.3067
19468SOL     OW57994   9.896   0.684   1.471 -0.4606 -0.3438 -0.0624
19468SOL    HW157995   9.906   0.702   1.373 -2.1605 -1.1509 -0.4144
19468SOL    HW257996   9.854   0.594   1.484  0.4756 -0.5849  1.4405
19469SOL     OW57997   2.574   3.034   4.222 -0.2773 -0.5156  0.3066
19469SOL    HW157998   2.584   3.105   4.293  1.3162 -0.5461  0.1166
19469SOL    HW257999   2.579   3.077   4.132 -0.5934 -0.7120  0.1952
19470SOL     OW58000   0.260   0.369   3.688  0.0048  0.0321  0.1734
19470SOL    HW158001   0.199   0.419   3.750  2.0048 -0.3845  2.5851
19470SOL    HW258002   0.338   0.426   3.665 -0.5021  0.0144 -1.6429
19472SOL     OW58003   9.267   1.129   4.548  0.5150 -0.3479  0.3872
19472SOL    HW158004   9.168   1.137   4.547  0.5807  0.4891 -0.9045
19472SOL    HW258005   9.294   1.037   4.519  0.0934 -1.1724  2.5017
19474SOL     OW58006   3.329   6.323   0.990 -0.4744 -0.1236  0.0873
19474SOL    HW158007   3.289   6.232   0.977 -1.3172 -0.0172  1.7598
19474SOL    HW258008   3.344   6.366   0.901 -1.2873 -1.3682 -0.6675
19475SOL     OW58009   2.061   4.509   0.676  0.6132 -0.1191  0.3080
19475SOL    HW158010   2.027   4.603   0.673 -1.5611 -0.9199 -1.6211
19475SOL    HW258011   2.049   4.472   0.768 -1.5504  0.4198  0.2556
19476SOL     OW58012   9.651   0.262   5.264 -0.0529  0.0713 -0.6356
19476SOL    HW158013   9.744   0.251   5.229  0.6833  0.7665  1.0657
19476SOL    HW258014   9.649   0.335   5.332 -2.0753  0.8245 -1.4517
19478SOL     OW58015   2.490   0.680   4.013 -0.6486  0.2844 -0.1692
19478SOL    HW158016   2.444   0.722   3.935 -1.9944 -0.7044  0.0838
19478SOL    HW258017   2.503   0.582   3.997 -1.6198 -0.0774  1.1485
19479SOL     OW58018   4.722   1.206   0.608  0.4180 -0.1508  0.2984
19479SOL    HW158019   4.806   1.253   0.584  0.2138  0.2900  0.4484
19479SOL    HW258020   4.737   1.107   0.605  0.9707 -0.0719  0.4357
19480SOL     OW58021   9.700   8.553   3.903 -0.2538 -0.2538  0.0550
19480SOL    HW158022   9.720   8.546   4.001 -0.9542 -0.7572  0.1651
19480SOL    HW258023   9.688   8.462   3.865 -0.7827 -0.0213 -0.3336
19481SOL     OW58024   9.077   7.429   0.864  0.2417 -0.0942  0.1581
19481SOL    HW158025   8.992   7.451   0.911  0.1117  1.5767 -0.8025
19481SOL    HW258026   9.073   7.335   0.830 -0.7003 -0.4485  1.1973
19482SOL     OW58027   5.253   8.211   5.027 -0.1656 -0.1171  0.0500
19482SOL    HW158028   5.281   8.237   5.119 -1.9085 -1.1036  0.8873
19482SOL    HW258029   5.231   8.113   5.025 -3.5427  0.5926 -0.5250
19484SOL     OW58030   9.070   2.339   3.266  0.6679  0.0035 -0.3971
19484SOL    HW158031   9.084   2.438   3.277 -1.1173  0.1450  0.9397
19484SOL    HW258032   9.064   2.317   3.169 -2.0204  1.7199 -0.6973
19485SOL     OW58033   5.395   8.204   4.388 -0.6906 -0.1553 -0.1174
19485SOL    HW158034   5.433   8.277   4.332 -0.1561  0.0522  0.5058
19485SOL    HW258035   5.441   8.118   4.367  1.7178  0.4909  2.1683
19486SOL     OW58036   3.034   5.259   1.655 -0.0646  0.4434  0.0612
19486SOL    HW158037   2.980   5.274   1.572 -0.8680  0.7099  0.6349
19486SOL    HW258038   3.127   5.233   1.629  0.0927  1.9501 -0.9465
19487SOL     OW58039   1.354   3.629   6.038 -0.4904  0.0260 -0.3628
19487SOL    HW158040   1.348   3.690   6.118  4.0220  1.4550 -0.9626
19487SOL    HW258041   1.346   3.684   5.955 -0.4198 -0.7946 -0.9083
19488SOL     OW58042   1.614   3.843   5.721 -0.1429  0.4458  0.0418
19488SOL    HW158043   1.651   3.935   5.704 -0.5805  0.4563 -0.9087
19488SOL    HW258044   1.516   3.849   5.739 -0.2388  0.1399 -0.3582
19489SOL     OW58045   7.905   3.636   4.786  0.7015 -0.0392  0.1565
19489SOL    HW158046   7.878   3.558   4.731 -0.4455  0.0807  0.5288
19489SOL    HW258047   7.919   3.716   4.727 -0.1468 -0.0100 -0.0136
19490SOL     OW58048   1.258   1.730   2.833  0.4841 -0.2449  0.3663
19490SOL    HW158049   1.282   1.807   2.892 -0.3890  0.1847  0.1609
19490SOL    HW258050   1.309   1.736   2.747 -0.0260  0.4208  0.1113
19491SOL     OW58051   9.328   5.345   6.351  0.1039 -0.2264  0.4683
19491SOL    HW158052   9.235   5.336   6.316  0.2957  1.9176 -0.6422
19491SOL    HW258053   9.354   5.442   6.353  2.5363 -0.8424  0.1538
19492SOL     OW58054   7.667   0.883   6.280 -0.0123 -0.6221  0.3348
19492SOL    HW158055   7.636   0.800   6.235 -0.2198 -0.7546  0.7199
19492SOL    HW258056   7.767   0.889   6.273  0.1363 -1.5836  1.4504
19493SOL     OW58057   4.107   3.729   0.116 -0.5809 -0.2703  0.1423
19493SOL    HW158058   4.083   3.810   0.063 -0.9109  0.2892  1.1234
19493SOL    HW258059   4.024   3.676   0.135 -0.4163 -0.6543 -0.1923
19495SOL     OW58060   3.881   3.431   1.420 -0.2323 -0.0553 -0.4872
19495SOL    HW158061   3.879   3.522   1.380 -2.9552  0.0334 -0.2623
19495SOL    HW258062   3.787   3.400   1.436  0.6928 -2.1971  1.0183
19496SOL     OW58063   0.787   2.856   1.485 -0.3552 -0.1302  0.5897
19496SOL    HW158064   0.852   2.816   1.420 -0.8366 -0.8158  0.5281
19496SOL    HW258065   0.828   2.935   1.529  0.1767  0.0092 -0.1552
19497SOL     OW58066   1.542   4.157   4.484 -0.4116 -0.3486  0.2239
19497SOL    HW158067   1.472   4.103   4.437  0.3416 -1.8900  0.8237
19497SOL    HW258068   1.532   4.253   4.459 -2.3445 -0.6212 -0.1868
19499SOL     OW58069   8.223   8.242   4.354 -0.8402 -0.0371 -0.3577
19499SOL    HW158070   8.190   8.165   4.409  0.6659  0.9277  1.9533
19499SOL    HW258071   8.269   8.208   4.273 -2.6248 -1.4960 -0.8048
19500SOL     OW58072   3.241   5.660   2.932 -0.0275 -0.3228 -0.1105
19500SOL    HW158073   3.165   5.683   2.993 -0.5998  0.8377 -1.2461
19500SOL    HW258074   3.328   5.671   2.981 -0.5058 -0.0175  0.6757
19501SOL     OW58075   9.623   8.953   5.848 -0.1089  0.1357 -0.2762
19501SOL    HW158076   9.594   8.871   5.798  0.6587  0.6927 -1.6446
19501SOL    HW258077   9.641   8.928   5.943  0.5082 -1.3763 -0.7614
19502SOL     OW58078   1.366   6.142   1.311  0.6126  0.4465 -0.1482
19502SOL    HW158079   1.376   6.049   1.346  2.0665  0.7571  0.3119
19502SOL    HW258080   1.270   6.170   1.317  0.1485 -1.0517 -0.3822
19503SOL     OW58081   8.197   9.203   6.430 -0.0417 -0.5994 -0.8555
19503SOL    HW158082   8.108   9.186   6.388 -0.8752  1.2108  0.1095
19503SOL    HW258083   8.197   9.169   6.524 -0.8028  2.1220  0.1798
19504SOL     OW58084   9.697   9.304   1.480 -0.5896  0.0850 -0.0499
19504SOL    HW158085   9.653   9.322   1.568  1.0625 -0.6571  0.9456
19504SOL    HW258086   9.647   9.232   1.432  0.6895 -2.2310  2.0054
19505SOL     OW58087   9.072   5.174   3.438  0.4687  0.2081 -0.6610
19505SOL    HW158088   9.152   5.132   3.394  0.2713  0.1145 -0.9348
19505SOL    HW258089   8.989   5.128   3.406  0.4049 -0.6619  0.7310
19506SOL     OW58090   5.071   2.372   5.758  0.2573  0.4704 -0.6183
19506SOL    HW158091   5.063   2.274   5.779  0.0206  0.8803  1.2878
19506SOL    HW258092   5.087   2.423   5.843  1.7642  1.9535 -1.7526
19508SOL     OW58093   8.894   2.885   5.368 -0.7542 -0.2599  0.2829
19508SOL    HW158094   8.831   2.959   5.394 -0.4557  0.2584 -0.4335
19508SOL    HW258095   8.980   2.896   5.417 -1.1732 -0.8953  1.1674
19509SOL     OW58096   4.284   5.756   0.887 -0.5991 -0.0970  0.1898
19509SOL    HW158097   4.373   5.716   0.864 -0.5752  0.6338 -0.9880
19509SOL    HW258098   4.291   5.855   0.885 -1.0894 -0.0274  1.4852
19510SOL     OW58099   0.523   7.735   6.247  0.1763 -0.0996 -0.0726
19510SOL    HW158100   0.562   7.647   6.272 -2.1765 -1.1202  0.0711
19510SOL    HW258101   0.537   7.800   6.322 -1.3286 -1.3940  1.3621
19511SOL     OW58102   5.717   7.847   5.498  0.3231  0.0155  0.8172
19511SOL    HW158103   5.770   7.764   5.485  1.3789  0.7668  0.2159
19511SOL    HW258104   5.656   7.860   5.419  1.1313  0.5066  0.2640
19513SOL     OW58105   3.443   3.206   0.514  0.1678 -0.1756  0.5040
19513SOL    HW158106   3.512   3.225   0.444 -1.8665 -1.6018 -1.9432
19513SOL    HW258107   3.439   3.108   0.530 -1.4846 -0.1219  0.4302
19514SOL     OW58108   9.762   9.535   3.561  0.2239 -0.9598 -0.1699
19514SOL    HW158109   9.673   9.580   3.562  1.0601  0.6923  0.9644
19514SOL    HW258110   9.772   9.480   3.645  0.7708 -0.1500  0.2973
19516SOL     OW58111   8.574   9.603   1.330  0.0117  0.7567 -0.3228
19516SOL    HW158112   8.498   9.607   1.265 -0.0348 -1.6955 -0.4877
19516SOL    HW258113   8.594   9.507   1.351  1.2356  1.4523  1.8654
19517SOL     OW58114   3.251   7.604   2.831 -0.4613  0.0423  0.3264
19517SOL    HW158115   3.268   7.506   2.824 -0.6601 -0.0438  0.9832
19517SOL    HW258116   3.238   7.643   2.740  1.0900 -0.2754 -0.0420
19518SOL     OW58117   0.644   9.790   6.345 -0.4952 -0.2549 -0.0051
19518SOL    HW158118   0.738   9.823   6.334 -0.6339  0.4072  0.7804
19518SOL    HW258119   0.587   9.863   6.381 -0.9509 -1.1309  1.0751
19519SOL     OW58120   2.304   6.817   5.716  0.5179  0.5732  0.0932
19519SOL    HW158121   2.236   6.858   5.655 -0.1989 -0.3951  0.2220
19519SOL    HW258122   2.382   6.878   5.725 -0.4297  1.8083  0.1093
19520SOL     OW58123   2.962   5.999   5.932  0.5934  0.3057 -0.3474
19520SOL    HW158124   3.018   5.919   5.909  0.4516  0.8811 -2.7469
19520SOL    HW258125   2.871   5.989   5.890  0.6521  1.8295 -0.8589
19521SOL     OW58126   3.833   5.036   3.194  0.3068  0.6817 -0.0344
19521SOL    HW158127   3.774   5.011   3.117  0.6104 -1.4053  0.3612
19521SOL    HW258128   3.926   5.054   3.161 -0.1030  2.0644 -0.4281
19522SOL     OW58129   8.612   6.233   0.022 -0.1927 -0.1378  0.5150
19522SOL    HW158130   8.619   6.177   0.104 -0.7108  0.9786  1.3347
19522SOL    HW258131   8.653   6.323   0.039 -1.0478  0.3949 -0.1634
19523SOL     OW58132   9.627   4.146   0.904 -0.3410 -0.3106  0.5976
19523SOL    HW158133   9.600   4.162   0.999 -0.4040 -0.1001  0.5461
19523SOL    HW258134   9.718   4.107   0.900  0.5114  1.6152  0.6688
19525SOL     OW58135   7.506   2.076   2.914 -0.4317 -0.2807 -0.4884
19525SOL    HW158136   7.584   2.119   2.867  0.6737 -0.4193  1.1944
19525SOL    HW258137   7.484   2.127   2.997 -2.3082 -0.1059 -1.0581
19527SOL     OW58138   9.023   1.645   2.035 -0.2811 -0.1713  0.1331
19527SOL    HW158139   9.102   1.650   1.975  0.1831  1.8643  0.8775
19527SOL    HW258140   8.982   1.735   2.045 -2.9084 -1.2510 -0.4883
19528SOL     OW58141   7.089   9.721   2.678 -0.5212  0.4236  0.0362
19528SOL    HW158142   7.180   9.747   2.709  1.0177 -1.8974 -2.3266
19528SOL    HW258143   7.051   9.794   2.620  0.9999  0.2648 -1.1872
19529SOL     OW58144   3.270   3.883   0.068  0.5922  0.0744  0.2470
19529SOL    HW158145   3.308   3.808   0.123  0.8593  0.1649  0.1840
19529SOL    HW258146   3.280   3.861  -0.029  0.1649 -0.0624  0.2333
19530SOL     OW58147   9.838   7.616   5.133  0.3053  0.3118 -0.3380
19530SOL    HW158148   9.922   7.563   5.133  0.1104 -0.0020  0.3612
19530SOL    HW258149   9.760   7.556   5.118 -0.0171  0.2143  1.5719
19531SOL     OW58150   4.863   9.530   1.673 -0.1012  0.1725  0.0431
19531SOL    HW158151   4.904   9.481   1.596 -0.2992  0.3030 -0.1477
19531SOL    HW258152   4.800   9.469   1.721 -0.6271  0.3536 -0.4175
19532SOL     OW58153   2.356   9.113   4.699  0.3492  0.0362  0.2488
19532SOL    HW158154   2.263   9.088   4.728  0.6058  1.6091  2.5511
19532SOL    HW258155   2.353   9.148   4.606 -1.4488  0.4025  0.4137
19533SOL     OW58156   4.347   6.520   0.268 -0.0522  0.0353  0.3393
19533SOL    HW158157   4.286   6.482   0.338 -0.2521  0.2924  0.3041
19533SOL    HW258158   4.348   6.459   0.188 -2.3514  1.3690 -0.7469
19534SOL     OW58159   8.346   3.308   2.186  0.1292 -0.4865 -0.0490
19534SOL    HW158160   8.249   3.293   2.205  0.3631 -0.7916  0.9094
19534SOL    HW258161   8.395   3.322   2.272  0.5088  2.2784 -0.6850
19535SOL     OW58162   8.586   6.943   1.394  0.0502  0.3915 -0.0342
19535SOL    HW158163   8.510   6.956   1.330 -0.7786  0.6774  0.9960
19535SOL    HW258164   8.551   6.946   1.488  1.3642  0.6597  0.4476
19536SOL     OW58165   5.721   0.968   4.550  0.1850  0.0153 -0.4851
19536SOL    HW158166   5.740   1.053   4.600 -1.9804  1.3903 -1.9239
19536SOL    HW258167   5.774   0.894   4.591 -2.7534  0.6791  4.9995
19537SOL     OW58168   0.692   5.247   5.479 -0.6900  0.6327 -0.2204
19537SOL    HW158169   0.732   5.195   5.554  0.8464 -1.0177 -2.1211
19537SOL    HW258170   0.728   5.341   5.480  2.1675 -0.4073 -1.0066
19538SOL     OW58171   9.050   0.015   4.477  0.5208  0.0534 -0.0441
19538SOL    HW158172   9.015   0.057   4.393 -0.5752 -0.3560  0.2009
19538SOL    HW258173   9.048   0.082   4.551 -1.6296 -0.5324  0.4520
19539SOL     OW58174   0.253   3.334   4.153  0.5337  0.2679  0.1496
19539SOL    HW158175   0.164   3.365   4.120 -0.4103 -1.8167  0.6398
19539SOL    HW258176   0.263   3.357   4.250  1.6020  2.7500 -0.5272
19541SOL     OW58177   1.584   5.621   0.595 -0.2262  0.5214  0.2126
19541SOL    HW158178   1.521   5.633   0.673 -1.5000  0.7292 -0.8250
19541SOL    HW258179   1.580   5.527   0.563 -0.3024  0.6305 -0.0990
19542SOL     OW58180   1.116   9.612   4.428 -0.1401  0.1217 -0.2854
19542SOL    HW158181   1.029   9.613   4.477 -0.5987 -0.6184 -1.0812
19542SOL    HW258182   1.167   9.696   4.449 -0.5794  0.0814  1.0022
19543SOL     OW58183   0.488   8.456   1.262 -0.5234  0.4204  0.2139
19543SOL    HW158184   0.494   8.554   1.244 -0.3304  0.1334 -1.3374
19543SOL    HW258185   0.392   8.429   1.270 -0.5579  0.8314  1.1931
19544SOL     OW58186   4.407   2.454   3.691  0.6713 -0.4898  0.0877
19544SOL    HW158187   4.339   2.518   3.726  1.2681  0.9922 -1.3724
19544SOL    HW258188   4.379   2.360   3.710 -1.2647  0.1402  0.3784
19545SOL     OW58189   9.498   7.300   5.223 -0.9801 -0.4673 -0.1962
19545SOL    HW158190   9.590   7.266   5.239 -0.7371  0.0118 -0.5453
19545SOL    HW258191   9.503   7.390   5.178 -1.6179 -1.0057 -1.3772
19546SOL     OW58192   7.360   7.375   3.920  0.5601  0.3831 -0.0200
19546SOL    HW158193   7.299   7.449   3.891  0.4460 -0.2960 -1.5445
19546SOL    HW258194   7.431   7.412   3.980  0.6888  1.7728 -1.0106
19547SOL     OW58195   8.624   1.739   3.012  0.2015  0.1827 -0.2084
19547SOL    HW158196   8.536   1.723   3.059  0.6571 -1.6292  0.0762
19547SOL    HW258197   8.607   1.760   2.916 -0.7460  3.8947  0.6851
19548SOL     OW58198   4.513   9.463   4.339  0.1130 -0.1026 -0.1375
19548SOL    HW158199   4.441   9.420   4.392  1.4242  1.1614  2.7804
19548SOL    HW258200   4.473   9.528   4.275 -1.3761  0.0567  0.9304
19552SOL     OW58201   7.518   2.094   0.800  0.0062  0.0731  0.0096
19552SOL    HW158202   7.519   2.110   0.899 -0.5854 -0.9227  0.1802
19552SOL    HW258203   7.612   2.089   0.766  0.2097  1.4162  0.3500
19553SOL     OW58204   8.017   8.196   3.330 -0.4980  0.1971  0.0879
19553SOL    HW158205   7.960   8.275   3.352  0.3465  0.6561  0.6497
19553SOL    HW258206   8.096   8.194   3.391  1.0736  0.6191 -1.8801
19555SOL     OW58207   2.545   0.618   2.874 -0.2825  0.3533  0.2216
19555SOL    HW158208   2.460   0.656   2.911 -0.9948  1.0729 -2.0197
19555SOL    HW258209   2.611   0.692   2.860 -0.3711  0.2587 -0.7729
19557SOL     OW58210   7.565   8.927   6.426 -0.0542  0.6278  0.4101
19557SOL    HW158211   7.599   8.847   6.377 -0.2512  0.5939  0.3274
19557SOL    HW258212   7.590   9.010   6.376 -0.1340  0.6003  0.3251
19559SOL     OW58213   2.644   5.877   1.898  0.6880 -0.2681  0.3945
19559SOL    HW158214   2.693   5.934   1.964  1.5794 -1.8521  1.1329
19559SOL    HW258215   2.675   5.899   1.805  2.1805 -0.6535  0.7956
19560SOL     OW58216   7.605   8.412   5.589  0.3162 -0.0672  0.4564
19560SOL    HW158217   7.527   8.469   5.613 -0.9334 -1.4878 -0.1135
19560SOL    HW258218   7.584   8.362   5.505  1.6588 -0.8209  0.5614
19561SOL     OW58219   1.436   0.854   3.054  0.0541  0.2396  0.3195
19561SOL    HW158220   1.417   0.950   3.033  1.4960 -0.0288 -2.4808
19561SOL    HW258221   1.524   0.847   3.101  1.1283  0.1443 -1.6361
19562SOL     OW58222   0.885   1.208   0.875 -0.7373  0.2215 -0.0629
19562SOL    HW158223   0.928   1.282   0.824  3.1469 -1.2270  0.8773
19562SOL    HW258224   0.866   1.132   0.813  1.4377 -0.4811  0.0817
19563SOL     OW58225   9.122   3.575   4.313 -0.2558 -0.7178 -0.5611
19563SOL    HW158226   9.125   3.561   4.412  0.3375 -1.0566 -0.6271
19563SOL    HW258227   9.110   3.487   4.267 -0.8121 -0.5301 -0.7793
19564SOL     OW58228   5.529   1.813   4.516  0.3942  0.3495 -0.4555
19564SOL    HW158229   5.463   1.792   4.445  1.5402 -0.2806 -1.3418
19564SOL    HW258230   5.483   1.815   4.605 -0.9674  0.7879 -1.1615
19565SOL     OW58231   3.519   2.792   5.807  0.0087  0.2501 -0.2639
19565SOL    HW158232   3.548   2.887   5.808  0.5624  0.0788  0.2638
19565SOL    HW258233   3.421   2.787   5.785  0.3304  0.8420 -1.8865
19566SOL     OW58234   3.590   6.954   2.849  0.2878  0.4283  0.0598
19566SOL    HW158235   3.491   6.959   2.866 -0.0740 -2.2970 -1.0049
19566SOL    HW258236   3.625   6.866   2.882  1.7888  0.0814 -2.3579
19567SOL     OW58237   9.622   3.435   5.379 -0.0463 -0.1102  0.2375
19567SOL    HW158238   9.677   3.508   5.336  0.0522  0.7469  1.7851
19567SOL    HW258239   9.674   3.394   5.454 -0.0028 -1.9798 -0.7824
19568SOL     OW58240   8.299   9.273   6.069  0.2065  0.4525  0.5415
19568SOL    HW158241   8.361   9.264   5.991 -1.7646 -0.2054 -0.9931
19568SOL    HW258242   8.322   9.205   6.138  0.3032 -0.7085 -0.6200
19569SOL     OW58243   7.950   4.722   0.992  0.6059  0.5265  0.0164
19569SOL    HW158244   7.867   4.670   1.008  0.6985  0.6180  0.8262
19569SOL    HW258245   7.995   4.742   1.080  0.4737  2.1190 -0.2593
19570SOL     OW58246   9.448   4.251   5.183 -0.1091  0.4573 -0.6727
19570SOL    HW158247   9.539   4.273   5.146  1.1747 -1.6761  1.0661
19570SOL    HW258248   9.407   4.179   5.127  0.9706 -1.3394  0.8015
19572SOL     OW58249   3.179   1.492   0.228  0.6265  0.1278 -1.0121
19572SOL    HW158250   3.166   1.444   0.315 -0.9511  1.9372 -0.2246
19572SOL    HW258251   3.195   1.589   0.245  2.8658  0.0793 -2.6411
19573SOL     OW58252   8.956   1.346   3.497 -0.3892 -0.2707  0.1268
19573SOL    HW158253   8.989   1.341   3.403 -2.0665 -2.7785 -0.3799
19573SOL    HW258254   8.957   1.441   3.528  0.3951  0.5556 -2.3369
19575SOL     OW58255   2.014   2.130   2.289 -0.6607  0.1999  0.4087
19575SOL    HW158256   2.007   2.123   2.190 -1.2143  2.0814  0.3078
19575SOL    HW258257   1.985   2.221   2.319 -0.0281 -0.1764  2.2480
19576SOL     OW58258   3.174   3.228   0.920  0.3521 -0.1338 -0.3729
19576SOL    HW158259   3.184   3.178   0.834 -0.9050 -2.1638  0.6099
19576SOL    HW258260   3.091   3.196   0.967  2.1804 -0.6369  2.6034
19577SOL     OW58261   8.929   8.517   3.044  0.1410  0.1206 -0.3368
19577SOL    HW158262   9.004   8.540   3.106  0.0815 -0.5827  0.0073
19577SOL    HW258263   8.845   8.503   3.097  0.0488 -0.3076 -0.5892
19578SOL     OW58264   3.403   6.681   3.068 -0.4934  0.4204  0.0518
19578SOL    HW158265   3.482   6.619   3.067 -1.4707 -0.8517  0.0878
19578SOL    HW258266   3.370   6.694   2.975 -1.5202 -0.7404  0.2388
19579SOL     OW58267   0.453   5.677   0.412 -0.7170 -0.4266  0.3201
19579SOL    HW158268   0.538   5.638   0.450 -0.5697 -0.8838 -0.4590
19579SOL    HW258269   0.461   5.682   0.312 -1.1953  0.5335  0.3314
19580SOL     OW58270   2.949   0.081   1.361 -0.1656 -0.2160 -0.0513
19580SOL    HW158271   2.919   0.130   1.279  0.5417  0.2805 -0.0147
19580SOL    HW258272   3.044   0.053   1.350 -0.1913 -0.4898  0.4357
19581SOL     OW58273   4.628   3.936   1.629 -0.1927  0.0929 -0.4704
19581SOL    HW158274   4.596   3.901   1.541  1.2711 -1.0991 -0.5372
19581SOL    HW258275   4.712   3.989   1.615  0.5357 -0.8319  0.3026
19582SOL     OW58276   1.321   6.246   5.360 -0.0139  0.0685 -0.2806
19582SOL    HW158277   1.298   6.155   5.324  1.4898 -0.3977 -0.1137
19582SOL    HW258278   1.419   6.262   5.349  0.0408  0.9426  1.3178
19583SOL     OW58279   7.836   4.698   5.015  0.1343  0.3225 -0.0006
19583SOL    HW158280   7.857   4.777   4.957 -1.8552  1.5922  0.9616
19583SOL    HW258281   7.738   4.679   5.013  0.4213 -1.3509  0.7787
19584SOL     OW58282   4.316   7.304   1.936 -0.6422  0.0857 -0.3984
19584SOL    HW158283   4.351   7.220   1.976  0.1893  0.4209 -0.3937
19584SOL    HW258284   4.224   7.289   1.900 -0.3898 -0.8968 -0.6453
19586SOL     OW58285   3.012   0.897   2.976  0.4651  0.3208  0.4076
19586SOL    HW158286   2.917   0.929   2.982  0.5146  0.1870  2.1449
19586SOL    HW258287   3.061   0.951   2.908 -0.6320  0.9762  0.1303
19587SOL     OW58288   8.124   2.821   5.141  0.7260  0.4278  0.3212
19587SOL    HW158289   8.222   2.825   5.158  0.8033  0.0817 -0.0312
19587SOL    HW258290   8.097   2.727   5.124  0.3022  0.4999  0.5831
19588SOL     OW58291   8.945   9.093   1.386 -0.0790 -0.0155 -0.3986
19588SOL    HW158292   9.004   9.173   1.387 -1.0842  0.7315 -0.6982
19588SOL    HW258293   8.902   9.082   1.475 -1.2669  0.7776 -0.8596
19589SOL     OW58294   9.511   9.902   4.564  0.3640 -0.4835  0.3037
19589SOL    HW158295   9.467   9.869   4.647 -0.8431  1.8462  0.6341
19589SOL    HW258296   9.572   9.831   4.527  0.0107 -1.9580  2.5049
19591SOL     OW58297   5.490   1.986   3.506 -0.1934  0.6872  0.4205
19591SOL    HW158298   5.450   2.047   3.575  3.2127  1.0196  2.2068
19591SOL    HW258299   5.521   2.041   3.428  0.0785  0.8629  0.6519
19592SOL     OW58300   7.516   0.095   0.466  0.6364 -0.4953 -0.3676
19592SOL    HW158301   7.478   0.071   0.377 -0.4684 -0.2181  0.0246
19592SOL    HW258302   7.443   0.128   0.526  1.6134  0.7569  0.1527
19593SOL     OW58303   8.200   7.223   3.265 -0.1523  0.0088 -0.4443
19593SOL    HW158304   8.284   7.198   3.312 -0.4679 -0.9095 -0.3610
19593SOL    HW258305   8.122   7.202   3.323 -0.4911 -0.1318 -0.9412
19594SOL     OW58306   0.687   1.796   1.826 -0.2511 -0.8654  0.7268
19594SOL    HW158307   0.642   1.726   1.771  0.5493 -0.3491 -0.6109
19594SOL    HW258308   0.627   1.822   1.903 -2.1423 -0.3727 -0.8658
19595SOL     OW58309   1.219   9.855   0.594  0.6117 -0.2183 -0.1095
19595SOL    HW158310   1.192   9.842   0.498  1.1407 -0.3406 -0.2476
19595SOL    HW258311   1.318   9.840   0.602  0.5175 -0.5132  0.5107
19596SOL     OW58312   7.089   1.152   0.575  0.3698  0.6565  0.7182
19596SOL    HW158313   7.055   1.165   0.482 -0.2685  2.0029  1.1223
19596SOL    HW258314   7.042   1.075   0.618  0.4892  0.1893  0.0168
19597SOL     OW58315   3.653   5.324   0.796 -0.3451 -0.2042  0.1741
19597SOL    HW158316   3.742   5.351   0.762 -1.8463 -0.5351 -4.3488
19597SOL    HW258317   3.651   5.225   0.810  0.1985 -0.1044  0.9593
19598SOL     OW58318   9.477   2.685   6.007 -0.1864 -0.1240  0.4684
19598SOL    HW158319   9.557   2.745   6.014  0.0796 -0.3897 -0.2846
19598SOL    HW258320   9.469   2.632   6.091 -0.1699  0.6503  0.9636
19599SOL     OW58321   1.012   1.950   0.936 -0.4881  0.2304 -0.4736
19599SOL    HW158322   0.914   1.968   0.943 -0.6120 -0.4588 -0.4081
19599SOL    HW258323   1.058   1.986   1.017 -0.8496 -0.5258  0.0745
19600SOL     OW58324   9.442   0.021   2.655 -0.1739 -0.4604  0.3517
19600SOL    HW158325   9.507   0.074   2.709 -2.5734  1.0192  1.8742
19600SOL    HW258326   9.373  -0.020   2.715 -1.2347 -1.2047 -1.3096
19601SOL     OW58327   3.859   3.938   1.767 -0.4311  0.4850  0.5348
19601SOL    HW158328   3.861   4.001   1.689 -0.8174  2.6107  2.2110
19601SOL    HW258329   3.941   3.950   1.822 -0.4238 -0.6261  0.7727
19605SOL     OW58330   3.822   9.388   2.656  0.0003 -0.5029  0.4571
19605SOL    HW158331   3.821   9.354   2.750 -0.1331  2.6400  1.6257
19605SOL    HW258332   3.731   9.379   2.616 -0.2332 -0.7227  1.0321
19606SOL     OW58333   3.103   1.275   1.069 -0.1629  0.3831 -0.3671
19606SOL    HW158334   3.195   1.243   1.045 -0.4471  0.2215 -1.2652
19606SOL    HW258335   3.043   1.196   1.083  0.0304  0.4744  1.0260
19607SOL     OW58336   8.723   6.594   0.677 -0.5612 -0.4427  0.1728
19607SOL    HW158337   8.778   6.595   0.760  1.8373 -0.0735 -1.3781
19607SOL    HW258338   8.663   6.673   0.676  3.2309  2.5874 -0.8819
19610SOL     OW58339   5.719   0.359   5.699  0.0531  0.8771  0.2230
19610SOL    HW158340   5.797   0.329   5.755 -2.0776 -0.2463  2.7061
19610SOL    HW258341   5.666   0.279   5.670 -1.5014  1.7375  0.6135
19611SOL     OW58342   6.987   9.452   1.768 -0.1836 -0.2027 -0.1717
19611SOL    HW158343   7.085   9.463   1.748 -0.2203 -0.8362 -0.7064
19611SOL    HW258344   6.940   9.539   1.751  0.5000  0.4774  1.3570
19612SOL     OW58345   4.140   0.482   5.701 -0.1684  0.4036  0.3530
19612SOL    HW158346   4.106   0.515   5.789 -1.2795 -0.0047  0.0827
19612SOL    HW258347   4.071   0.425   5.658  0.0438  1.2568 -1.1621
19613SOL     OW58348   0.391   0.203   5.293 -0.3958  0.2294  0.4711
19613SOL    HW158349   0.393   0.303   5.295 -0.7938  0.2516 -0.4001
19613SOL    HW258350   0.432   0.170   5.209 -1.8992 -0.2916 -0.0674
19614SOL     OW58351   0.719   8.146   3.828 -0.6322 -0.0661  0.3687
19614SOL    HW158352   0.736   8.181   3.736 -0.9245 -2.3767 -0.5963
19614SOL    HW258353   0.645   8.079   3.824 -0.5762 -0.2526  2.2922
19616SOL     OW58354   9.391   1.501   4.198 -0.1737  0.2104 -0.9329
19616SOL    HW158355   9.385   1.403   4.220  2.2227  0.1678 -0.3184
19616SOL    HW258356   9.348   1.554   4.270  0.4409 -0.3106 -0.1672
19617SOL     OW58357   1.681   3.499   5.440 -0.3499 -0.0451 -0.2781
19617SOL    HW158358   1.744   3.568   5.476  0.0935 -0.4798 -0.2150
19617SOL    HW258359   1.686   3.416   5.497 -0.2030 -0.4626 -0.8911
19618SOL     OW58360   7.507   8.536   3.643 -0.3064 -0.4871  0.5339
19618SOL    HW158361   7.485   8.439   3.650 -2.2150 -0.1013  0.3126
19618SOL    HW258362   7.524   8.573   3.734 -0.1723 -0.9053  0.6777
19619SOL     OW58363   8.454   8.608   0.779 -0.0791 -0.0873  0.3293
19619SOL    HW158364   8.472   8.668   0.701 -0.5550 -0.2587  0.0829
19619SOL    HW258365   8.410   8.524   0.747  1.2842 -0.9038  0.5851
19620SOL     OW58366   8.512   3.067   4.417  0.0574  0.1526  0.3118
19620SOL    HW158367   8.576   3.143   4.401 -0.1468  0.3125  0.2476
19620SOL    HW258368   8.536   3.022   4.503 -0.6932  1.1868  1.0774
19621SOL     OW58369   9.877   1.813   0.385 -0.3622  0.1320 -0.1873
19621SOL    HW158370   9.973   1.785   0.392 -0.7308 -1.1018 -0.0277
19621SOL    HW258371   9.871   1.893   0.326  0.7154 -0.0830 -0.6067
19622SOL     OW58372   7.361   0.415   3.625  0.2735 -0.4676 -0.8016
19622SOL    HW158373   7.388   0.384   3.533  1.3263 -0.1800 -0.5968
19622SOL    HW258374   7.267   0.447   3.623 -0.1494 -1.7298 -1.4898
19623SOL     OW58375   4.851   8.257   4.654  0.2182 -0.0255  0.3928
19623SOL    HW158376   4.840   8.179   4.593 -1.3130 -0.4838  1.2209
19623SOL    HW258377   4.903   8.230   4.735  0.1471 -0.0527  0.4295
19624SOL     OW58378   6.498   8.395   4.774 -0.0529 -0.6035  0.1286
19624SOL    HW158379   6.575   8.443   4.817  0.7395 -1.6651 -0.0917
19624SOL    HW258380   6.495   8.301   4.807 -2.2348 -0.1502  1.3474
19626SOL     OW58381   2.064   9.291   4.519  0.5939  0.2262  0.4177
19626SOL    HW158382   2.026   9.224   4.583 -0.9751  0.2793 -0.4330
19626SOL    HW258383   2.157   9.265   4.495  0.2728 -1.2218  0.6851
19628SOL     OW58384   3.784   1.176   1.306 -0.8389 -0.2531  0.0188
19628SOL    HW158385   3.811   1.103   1.243  2.2465 -0.7422  1.7626
19628SOL    HW258386   3.792   1.143   1.400 -2.5150  1.3721  0.7585
19629SOL     OW58387   6.900   9.427   5.056  0.2373  0.3906  0.0256
19629SOL    HW158388   6.950   9.508   5.087 -0.3442  1.0390 -0.7132
19629SOL    HW258389   6.950   9.345   5.083  1.3715  1.0110 -0.1523
19630SOL     OW58390   4.285   6.701   1.657 -0.0122  0.6818  0.8690
19630SOL    HW158391   4.239   6.636   1.717 -1.9272  2.7040  1.6477
19630SOL    HW258392   4.216   6.751   1.604  1.6016 -0.5472 -2.4999
19632SOL     OW58393   1.601   8.667   2.356 -0.3863 -0.2894 -0.2527
19632SOL    HW158394   1.630   8.604   2.284  0.9061  0.4705 -0.4172
19632SOL    HW258395   1.563   8.615   2.433 -1.8594 -1.1045 -1.5062
19633SOL     OW58396   9.361   1.980   1.634 -0.1974 -1.0186 -0.7496
19633SOL    HW158397   9.416   1.947   1.557 -0.0357 -0.0180 -1.0611
19633SOL    HW258398   9.264   1.978   1.608 -0.1258 -0.4769 -1.0518
19634SOL     OW58399   0.018   9.538   0.395 -0.7763 -0.1889  0.1010
19634SOL    HW158400  -0.077   9.561   0.373 -0.6357  0.1042 -0.2059
19634SOL    HW258401   0.027   9.439   0.403 -0.3675 -0.5473 -3.5469
19635SOL     OW58402   3.411   3.609   5.083  0.0639 -0.0420 -0.1452
19635SOL    HW158403   3.448   3.646   5.168 -1.0471  0.2512  0.2200
19635SOL    HW258404   3.357   3.527   5.103 -0.4629  0.2095 -0.5307
19636SOL     OW58405   9.348   5.417   5.980  0.6328 -0.7551 -0.1401
19636SOL    HW158406   9.287   5.481   5.932 -0.1441 -0.7015  0.8986
19636SOL    HW258407   9.406   5.370   5.913  0.0101 -0.2237 -1.0721
19637SOL     OW58408   9.683   0.953   0.529 -0.4264 -0.2728  0.0887
19637SOL    HW158409   9.597   0.923   0.488 -0.4971 -2.2407  1.6130
19637SOL    HW258410   9.755   0.887   0.507  0.5788  1.0245 -0.6300
19638SOL     OW58411   6.951   3.732   0.679  0.5648  0.5908  0.2872
19638SOL    HW158412   7.018   3.726   0.606 -0.9477  0.7264 -1.1520
19638SOL    HW258413   6.895   3.815   0.667 -0.8038 -0.2589  0.6115
19639SOL     OW58414   6.382   0.779   5.567  0.1151  0.3492 -0.3866
19639SOL    HW158415   6.455   0.711   5.553 -0.7677 -0.3995 -1.3932
19639SOL    HW258416   6.396   0.855   5.504  0.5229  0.6153  0.0262
19640SOL     OW58417   3.490   1.759   4.064 -0.5638  0.1100 -0.3150
19640SOL    HW158418   3.482   1.675   4.118 -3.5346  1.2664  1.1079
19640SOL    HW258419   3.573   1.753   4.008  0.2935 -2.9643  1.1134
19642SOL     OW58420   3.089   1.553   6.408 -0.5013 -0.1949 -0.2040
19642SOL    HW158421   3.175   1.503   6.404 -0.3894  0.1038 -1.6683
19642SOL    HW258422   3.074   1.588   6.501  1.8926  1.4164 -0.3936
19643SOL     OW58423   7.467   0.413   4.232 -0.0950 -0.1874  0.2357
19643SOL    HW158424   7.450   0.504   4.194  0.0006  0.5664  1.9507
19643SOL    HW258425   7.562   0.386   4.212  0.3048  0.6877  0.9244
19644SOL     OW58426   8.996   3.719   5.923  0.3460 -0.2189 -0.8144
19644SOL    HW158427   9.093   3.725   5.899 -0.0040  0.8579 -2.0021
19644SOL    HW258428   8.972   3.624   5.940  0.5637 -1.1358 -5.0705
19645SOL     OW58429   8.002   8.016   5.303 -0.1984 -0.6067 -0.2189
19645SOL    HW158430   7.994   7.918   5.319  1.3189 -0.8177 -0.7031
19645SOL    HW258431   7.991   8.035   5.206 -0.1792 -0.3358 -0.1693
19646SOL     OW58432   9.884   6.681   0.597  0.4635  0.1096 -0.3888
19646SOL    HW158433   9.819   6.619   0.641  1.3149  0.0644  0.8452
19646SOL    HW258434   9.971   6.678   0.647  1.2202  0.6234 -1.6520
19647SOL     OW58435   9.760   2.002   2.066 -0.2346 -0.7865 -0.1414
19647SOL    HW158436   9.797   2.061   2.138 -0.3847  0.2111 -0.8796
19647SOL    HW258437   9.835   1.961   2.014 -0.1397 -0.3564 -0.3462
19648SOL     OW58438   6.856   2.746   2.187  0.7146 -0.2793  0.1021
19648SOL    HW158439   6.853   2.717   2.283 -0.3691 -1.1483 -0.1878
19648SOL    HW258440   6.943   2.717   2.146  0.3861 -1.5727  0.3067
19649SOL     OW58441   8.187   2.948   1.554  0.2412  0.7815 -0.0722
19649SOL    HW158442   8.151   2.982   1.641 -0.3495  0.0691 -0.0323
19649SOL    HW258443   8.251   2.873   1.570  2.0008  2.2567 -0.1302
19650SOL     OW58444   1.816   3.933   2.661 -0.1202  0.2407  0.2225
19650SOL    HW158445   1.786   3.972   2.748 -0.1592 -0.2419  0.4290
19650SOL    HW258446   1.786   3.991   2.586  1.4453  1.6017  0.6282
19651SOL     OW58447   3.495   4.418   4.699  0.0792 -0.1926  0.2514
19651SOL    HW158448   3.466   4.331   4.659 -0.6565  0.4399 -0.6033
19651SOL    HW258449   3.594   4.426   4.691 -0.0609  0.0029 -1.6557
19653SOL     OW58450   3.061   9.505   5.208  0.0065 -0.0042  0.2338
19653SOL    HW158451   3.106   9.563   5.275 -0.8367  0.8667  0.0619
19653SOL    HW258452   3.114   9.422   5.195  1.2655  0.7540  0.4399
19655SOL     OW58453   9.487   2.630   1.767 -0.0926  0.7958  0.1716
19655SOL    HW158454   9.394   2.666   1.773  0.0105  0.9139  1.2038
19655SOL    HW258455   9.484   2.535   1.735 -0.4807  1.1651 -0.9205
19656SOL     OW58456   2.484   4.213   0.058  0.0306  0.0171 -0.0646
19656SOL    HW158457   2.399   4.194   0.107  0.9791 -0.5581  1.3821
19656SOL    HW258458   2.495   4.148  -0.018  0.3134 -1.3994  1.1754
19657SOL     OW58459   0.073   9.559   3.168 -0.1771 -0.3604  0.0871
19657SOL    HW158460   0.139   9.631   3.148 -0.8463  0.5043  0.9534
19657SOL    HW258461   0.090   9.522   3.259  2.1279 -3.4899 -1.5197
19658SOL     OW58462   9.892   7.462   1.572  0.3608  0.4115 -0.2935
19658SOL    HW158463   9.941   7.505   1.647  1.4323 -0.5083 -0.4504
19658SOL    HW258464   9.887   7.363   1.588  1.3536  0.0993 -1.8576
19660SOL     OW58465   8.197   6.437   0.466 -0.2748  0.0543  0.0798
19660SOL    HW158466   8.123   6.443   0.533  0.4836 -2.1929  1.1690
19660SOL    HW258467   8.273   6.495   0.494 -1.2753  1.7494 -0.6282
19661SOL     OW58468   0.794   1.219   2.110  0.2456  0.2309  0.2902
19661SOL    HW158469   0.755   1.275   2.037 -0.4868  0.6075  0.9695
19661SOL    HW258470   0.731   1.145   2.133  0.7572 -0.2718  0.1115
19662SOL     OW58471   2.661   3.255   2.803  0.1099 -0.2096  0.6113
19662SOL    HW158472   2.686   3.193   2.877 -1.0227 -0.2150  1.0062
19662SOL    HW258473   2.680   3.212   2.715  2.0734  0.0545  0.8996
19664SOL     OW58474   3.815   4.477   0.925 -0.3515  0.6580  0.7205
19664SOL    HW158475   3.726   4.522   0.939 -1.5582 -0.8242 -1.8609
19664SOL    HW258476   3.875   4.538   0.873 -0.9328  0.5119 -0.1417
19665SOL     OW58477   3.066   5.867   4.784  0.2210 -0.0368 -0.4567
19665SOL    HW158478   2.985   5.872   4.843  0.3247  1.3028 -0.4111
19665SOL    HW258479   3.038   5.878   4.688  0.5423  2.3798 -0.2959
19667SOL     OW58480   3.527   9.540   5.084  0.2442  0.0730  0.5526
19667SOL    HW158481   3.494   9.482   5.159  0.9886  0.0625  0.8843
19667SOL    HW258482   3.586   9.612   5.121  0.7866 -0.0553 -0.0399
19668SOL     OW58483   4.925   7.908   4.727 -0.0760  0.7673 -0.5369
19668SOL    HW158484   5.005   7.913   4.667  1.4311 -0.6277  1.2795
19668SOL    HW258485   4.925   7.988   4.788  0.7768  0.0454  0.4365
19669SOL     OW58486   2.242   4.465   0.449 -0.0020  0.5997  0.4509
19669SOL    HW158487   2.179   4.485   0.525 -0.6591  0.6974 -0.1082
19669SOL    HW258488   2.332   4.503   0.470 -0.1324  0.4684  1.2620
19670SOL     OW58489   7.950   0.169   1.219  0.8370  0.2119 -0.6621
19670SOL    HW158490   7.883   0.096   1.213  0.8587  0.1610 -0.2762
19670SOL    HW258491   8.019   0.157   1.147  0.3214  0.3798 -1.1868
19671SOL     OW58492   4.084   2.184   4.687 -0.2282  0.3108  0.1093
19671SOL    HW158493   4.111   2.162   4.593  1.6638 -1.4601  1.0175
19671SOL    HW258494   4.105   2.280   4.705 -0.9329  0.7679 -1.3641
19672SOL     OW58495   1.398   3.208   5.555  0.3886  0.7578 -0.2616
19672SOL    HW158496   1.494   3.193   5.579  0.8121  1.9786 -1.1735
19672SOL    HW258497   1.379   3.170   5.464 -0.0357  0.3991 -0.0293
19673SOL     OW58498   1.415   6.922   3.517  0.4151  0.0917 -0.2803
19673SOL    HW158499   1.414   6.822   3.513 -0.5324 -0.0988  2.8189
19673SOL    HW258500   1.339   6.957   3.462 -0.4198 -1.0044  0.1334
19676SOL     OW58501   7.845   3.372   2.336  0.0794  0.2021  0.0255
19676SOL    HW158502   7.899   3.446   2.375 -2.4671  1.2210  1.8143
19676SOL    HW258503   7.842   3.295   2.400 -0.4289  0.0895 -0.1264
19678SOL     OW58504   2.193   7.684   0.666 -0.5280  0.3415 -0.0714
19678SOL    HW158505   2.268   7.632   0.625  0.0805  0.9584  0.2380
19678SOL    HW258506   2.108   7.631   0.661 -0.0447 -0.4156 -0.3147
19679SOL     OW58507   0.616   2.514   3.087  0.0381  0.1027  0.2425
19679SOL    HW158508   0.582   2.608   3.083 -2.7372 -0.9028 -0.5541
19679SOL    HW258509   0.583   2.463   3.008  2.6050 -1.2410 -0.0351
19680SOL     OW58510   3.429   7.325   2.070  0.2284  0.2290  0.5727
19680SOL    HW158511   3.514   7.281   2.042 -1.1541 -2.7831  0.8435
19680SOL    HW258512   3.383   7.363   1.990 -0.3093 -2.1175 -0.2685
19684SOL     OW58513   0.233   6.902   1.835  0.2697 -0.5778  0.4279
19684SOL    HW158514   0.241   6.803   1.840  0.0201 -0.6548 -0.5426
19684SOL    HW258515   0.321   6.941   1.807  0.1532 -0.5983  0.0207
19685SOL     OW58516   4.639   0.399   5.373  0.4462  0.8080 -0.0410
19685SOL    HW158517   4.631   0.435   5.280  0.9182  1.5805  0.2167
19685SOL    HW258518   4.684   0.466   5.432  1.1352 -0.1094  0.4946
19687SOL     OW58519   1.998   4.550   1.853 -0.1420 -0.0305 -0.1460
19687SOL    HW158520   2.016   4.647   1.839 -0.2257 -0.0439 -0.3648
19687SOL    HW258521   2.057   4.496   1.794  0.4799 -0.1423  0.5774
19688SOL     OW58522   3.719   8.027   5.033 -0.3479  0.0943  0.2106
19688SOL    HW158523   3.704   7.971   4.952 -0.8647  1.6884 -0.8253
19688SOL    HW258524   3.816   8.049   5.040 -0.3985  0.5108 -0.3618
19689SOL     OW58525   7.932   9.107   5.000  0.4658  0.4850 -0.7859
19689SOL    HW158526   7.957   9.170   4.926  0.5733 -1.5411 -2.5253
19689SOL    HW258527   7.955   9.014   4.973 -1.8735 -0.5770  0.7459
19690SOL     OW58528   2.000   3.038   2.423 -0.1230 -0.3289 -0.4759
19690SOL    HW158529   1.966   3.005   2.335 -0.0858  0.7505 -0.8993
19690SOL    HW258530   1.925   3.041   2.489 -0.1006 -1.3769 -0.3883
19692SOL     OW58531   7.229   1.049   0.054 -0.0191 -0.2610 -0.1113
19692SOL    HW158532   7.247   1.120  -0.014  2.5550  1.5514  2.3373
19692SOL    HW258533   7.191   0.968   0.009  0.0853  1.4465 -3.4270
19693SOL     OW58534   3.923   0.251   3.577 -0.4749 -0.0984 -0.0610
19693SOL    HW158535   3.882   0.243   3.486 -1.2300 -2.6648  0.4652
19693SOL    HW258536   3.852   0.240   3.647 -0.0119  2.4662  0.8837
19694SOL     OW58537   5.385   7.755   2.575  0.3821 -0.0491 -0.0154
19694SOL    HW158538   5.375   7.685   2.645  1.1412 -1.7544 -1.5757
19694SOL    HW258539   5.313   7.745   2.506 -0.2166  1.4605  0.3732
19695SOL     OW58540   3.369   4.788   2.187  0.6405  0.2038 -0.0985
19695SOL    HW158541   3.447   4.788   2.248  1.1366  1.5435 -0.7058
19695SOL    HW258542   3.289   4.749   2.234  1.4656 -0.4311  0.7785
19696SOL     OW58543   7.353   1.911   4.539  0.1806 -0.1537 -0.1770
19696SOL    HW158544   7.379   1.938   4.632 -0.3865 -1.2431  0.3111
19696SOL    HW258545   7.435   1.892   4.486  0.4551 -1.6613  0.7660
19698SOL     OW58546   6.354   4.569   1.036  0.0066  0.3382  0.5807
19698SOL    HW158547   6.267   4.589   1.081 -0.6633 -0.3735 -0.3957
19698SOL    HW258548   6.411   4.515   1.098 -1.1871 -1.2230  0.3559
19702SOL     OW58549   1.887   5.834   3.540  0.0363  0.2099 -0.3177
19702SOL    HW158550   1.948   5.805   3.614  0.6886  0.4812 -0.7372
19702SOL    HW258551   1.873   5.757   3.477  0.6695  0.4049 -0.7004
19703SOL     OW58552   3.264   8.394   3.063  0.4564 -0.4181  0.2369
19703SOL    HW158553   3.315   8.437   3.138 -2.3190  0.9107  1.4071
19703SOL    HW258554   3.246   8.299   3.086 -0.0213 -0.1289  1.0605
19704SOL     OW58555   1.611   0.330   0.579  0.5966 -0.1433 -0.1926
19704SOL    HW158556   1.567   0.257   0.527  1.6260 -0.9203  0.0151
19704SOL    HW258557   1.580   0.327   0.674 -2.9956  2.6502 -1.1630
19705SOL     OW58558   5.424   5.825   0.443 -0.6256  0.0429  0.2010
19705SOL    HW158559   5.437   5.727   0.431  0.3585  0.3756 -1.5557
19705SOL    HW258560   5.486   5.859   0.513  0.6000 -0.2088 -0.7567
19707SOL     OW58561   1.938   5.847   5.148 -0.3576  0.5943 -0.2241
19707SOL    HW158562   1.865   5.782   5.168 -0.5541  0.4808 -1.3035
19707SOL    HW258563   1.975   5.829   5.057  1.4893  0.2126  0.5842
19708SOL     OW58564   0.717   3.740   0.498 -0.4193 -0.3187  0.3284
19708SOL    HW158565   0.672   3.749   0.587 -2.0415 -1.1052 -0.3820
19708SOL    HW258566   0.785   3.667   0.502 -0.3756 -0.2469  0.9520
19710SOL     OW58567   8.057   3.772   1.905 -0.1146 -0.0952 -0.5399
19710SOL    HW158568   8.147   3.800   1.871 -0.1190 -0.9857 -1.3065
19710SOL    HW258569   8.062   3.677   1.938 -1.3706 -1.0329 -2.9556
19711SOL     OW58570   6.546   2.560   0.894  0.6537  0.6339 -0.7289
19711SOL    HW158571   6.557   2.600   0.802  0.7091 -1.2832 -1.5738
19711SOL    HW258572   6.556   2.461   0.888 -3.8346 -0.0017  0.6264
19712SOL     OW58573   1.985   9.419   0.869 -0.0467 -0.0817  0.3946
19712SOL    HW158574   1.949   9.510   0.849 -1.6948 -0.9141 -0.5491
19712SOL    HW258575   2.076   9.410   0.829 -1.0432  0.1877 -2.0357
19717SOL     OW58576   9.586   0.065   0.808  0.3657  0.0708 -0.0198
19717SOL    HW158577   9.494   0.042   0.774 -0.1527  0.8138  0.8563
19717SOL    HW258578   9.590   0.046   0.906  0.6457  1.5576  0.2572
19718SOL     OW58579   8.239   5.359   3.833  0.2808 -0.0543 -0.7765
19718SOL    HW158580   8.228   5.453   3.801 -2.4523 -0.3899 -0.8976
19718SOL    HW258581   8.212   5.296   3.761 -1.2878 -0.8838  0.5099
19720SOL     OW58582   1.307   8.399   1.628  0.2779  1.0519 -0.1820
19720SOL    HW158583   1.348   8.414   1.718 -0.5678  2.0541  0.0446
19720SOL    HW258584   1.221   8.349   1.638  0.9378 -0.1963 -0.5773
19721SOL     OW58585   4.072   0.629   2.660  0.3813 -0.1607  0.0186
19721SOL    HW158586   4.009   0.706   2.651  2.6753  1.8925  1.0233
19721SOL    HW258587   4.160   0.662   2.693  0.6453 -3.6157  2.9965
19722SOL     OW58588   7.779   1.627   1.920 -1.1400  0.2258  0.1147
19722SOL    HW158589   7.709   1.663   1.981 -0.5865  0.2365  0.7530
19722SOL    HW258590   7.739   1.609   1.830 -1.8107  0.8138  0.2910
19723SOL     OW58591   2.457   9.248   0.714 -0.0245 -0.4094  0.1059
19723SOL    HW158592   2.488   9.337   0.678  0.6033 -0.8678 -0.5137
19723SOL    HW258593   2.532   9.204   0.763 -0.5159 -0.3355  0.9236
19724SOL     OW58594   9.035   1.720   3.902  0.0817 -0.1055 -0.1895
19724SOL    HW158595   9.038   1.620   3.903 -0.7722 -0.1321  0.2131
19724SOL    HW258596   9.088   1.754   3.824  0.6301 -0.8557 -0.1525
19726SOL     OW58597   9.600   0.337   1.858 -0.3780  0.3727 -0.0492
19726SOL    HW158598   9.609   0.239   1.871 -1.6350  0.3636  0.7556
19726SOL    HW258599   9.658   0.385   1.924 -1.4769  0.2117  1.0320
19727SOL     OW58600   4.525   1.079   6.175 -0.8189  0.1103  0.2795
19727SOL    HW158601   4.616   1.105   6.206 -0.9391 -2.2028  2.8269
19727SOL    HW258602   4.529   1.054   6.078  1.5811 -1.3361  0.7042
19728SOL     OW58603   4.091   4.758   6.452  0.3925 -0.1134 -0.8437
19728SOL    HW158604   4.073   4.822   6.526  1.3322 -0.4061 -0.3497
19728SOL    HW258605   4.009   4.703   6.435  0.3284 -0.4020  0.3380
19729SOL     OW58606   2.563   5.920   3.725 -0.5738 -0.3473 -0.3750
19729SOL    HW158607   2.487   5.858   3.710 -0.8788  0.0233 -0.3807
19729SOL    HW258608   2.630   5.911   3.651  0.2113 -1.8742  0.4918
19730SOL     OW58609   6.564   1.622   5.203 -0.1243  0.6956 -0.1184
19730SOL    HW158610   6.559   1.540   5.146  0.4151  0.8179 -0.3415
19730SOL    HW258611   6.484   1.680   5.186 -0.4990  0.2241  0.0291
19732SOL     OW58612   6.147   2.789   0.400 -0.6402 -0.2646 -0.0772
19732SOL    HW158613   6.172   2.886   0.411 -1.0967 -0.0644 -0.7570
19732SOL    HW258614   6.204   2.733   0.460 -2.7557  0.7201  2.9761
19733SOL     OW58615   9.327   6.473   0.555 -0.5133  0.6799 -0.1580
19733SOL    HW158616   9.370   6.476   0.465  0.1756  2.2294  0.2095
19733SOL    HW258617   9.382   6.526   0.620  0.5084 -2.7360  1.8509
19734SOL     OW58618   2.616   1.829   5.824 -0.7999 -0.1126 -0.0735
19734SOL    HW158619   2.652   1.743   5.788 -3.3135 -1.9236  1.5551
19734SOL    HW258620   2.690   1.880   5.869  0.6162 -1.6550 -0.5926
19735SOL     OW58621   2.874   9.172   0.580  0.3100 -0.2321  0.1166
19735SOL    HW158622   2.895   9.150   0.676  1.9977  1.3419  0.1230
19735SOL    HW258623   2.867   9.087   0.528  1.3458 -1.0149  1.2225
19736SOL     OW58624   2.888   2.883   1.197 -0.2004 -0.4490  0.3025
19736SOL    HW158625   2.958   2.814   1.215 -1.0359 -0.7756  2.4441
19736SOL    HW258626   2.825   2.887   1.274 -2.0760  0.4103 -1.2378
19737SOL     OW58627   8.042   8.636   3.277  0.2416  0.1388  0.2158
19737SOL    HW158628   8.010   8.576   3.203 -1.4715  1.1289  0.1224
19737SOL    HW258629   8.026   8.731   3.251  0.3141  0.5181  1.5568
19738SOL     OW58630   2.314   6.667   3.078  0.3497  0.4943  0.1551
19738SOL    HW158631   2.256   6.589   3.101 -1.2458  1.3873 -0.7432
19738SOL    HW258632   2.314   6.732   3.154  1.2097 -0.0944  0.6670
19739SOL     OW58633   9.537   2.640   3.982 -0.0812  0.3160  0.0189
19739SOL    HW158634   9.472   2.642   3.906  0.8928  1.3646 -0.7932
19739SOL    HW258635   9.574   2.547   3.992  0.3110  0.3253 -1.2455
19740SOL     OW58636   8.294   5.593   5.807 -0.2462 -0.6886 -0.0039
19740SOL    HW158637   8.201   5.561   5.825  0.7501 -1.7637  3.5819
19740SOL    HW258638   8.339   5.530   5.743 -1.4283 -1.0689 -0.4847
19741SOL     OW58639   9.759   6.995   2.640 -0.1425 -0.1250 -0.5111
19741SOL    HW158640   9.742   6.933   2.563 -3.5015  0.1286 -0.0524
19741SOL    HW258641   9.684   6.987   2.706  1.5242  1.3524  1.6168
19743SOL     OW58642   3.047   9.704   4.551  0.9030 -0.7489 -0.1409
19743SOL    HW158643   3.091   9.757   4.480  0.4094 -0.8160 -0.5006
19743SOL    HW258644   2.951   9.732   4.559  0.6762 -1.4851 -0.2396
19745SOL     OW58645   9.444   3.701   2.245 -0.4525  0.4939  0.1994
19745SOL    HW158646   9.441   3.796   2.216 -0.6454  0.0122 -1.3638
19745SOL    HW258647   9.534   3.662   2.225 -0.0600  0.5825  1.6678
19746SOL     OW58648   2.780   7.057   1.092  0.0241  0.6114  0.5338
19746SOL    HW158649   2.703   7.119   1.109  1.5232  3.2303 -1.6534
19746SOL    HW258650   2.790   7.044   0.993  2.8774  0.9924  0.7336
19747SOL     OW58651   7.398   0.364   1.883 -0.5699 -0.4973 -0.0587
19747SOL    HW158652   7.371   0.459   1.902 -1.4810 -1.2369  2.4359
19747SOL    HW258653   7.471   0.364   1.814 -0.9625  1.9793 -0.5222
19748SOL     OW58654   9.637   7.585   0.386  0.2285 -0.1522 -0.5094
19748SOL    HW158655   9.655   7.489   0.408  2.9835 -0.0249 -1.9499
19748SOL    HW258656   9.626   7.595   0.287  1.0893  1.1630 -0.4906
19749SOL     OW58657   5.653   0.080   1.771 -0.1054 -0.3918 -0.6868
19749SOL    HW158658   5.580   0.014   1.760 -1.5592  1.3922 -1.9756
19749SOL    HW258659   5.715   0.075   1.693 -1.0976  0.8305 -1.5647
19750SOL     OW58660   9.010   8.255   0.611  0.7689 -0.1523  0.2659
19750SOL    HW158661   9.056   8.214   0.689  3.2061  0.1933 -0.9394
19750SOL    HW258662   9.078   8.283   0.543 -1.3630 -2.1160 -2.8236
19752SOL     OW58663   0.067   4.107   4.106  0.3893  0.2444 -0.3275
19752SOL    HW158664   0.055   4.098   4.007  1.2170 -0.2311 -0.3907
19752SOL    HW258665   0.060   4.203   4.132 -0.6209  0.2867 -0.7400
19753SOL     OW58666   2.550   0.989   5.915 -0.2631  0.0193  0.4055
19753SOL    HW158667   2.522   0.897   5.887  2.6818 -1.4330  2.0459
19753SOL    HW258668   2.478   1.030   5.972 -1.3502 -1.5094  0.1528
19754SOL     OW58669   9.742   4.793   0.341 -0.2855  0.0895  0.4340
19754SOL    HW158670   9.749   4.881   0.294 -1.9624  0.2554  0.4711
19754SOL    HW258671   9.833   4.750   0.345  0.4130  1.4689 -0.2273
19755SOL     OW58672   1.351   1.910   6.291 -0.6680  0.1655 -0.4377
19755SOL    HW158673   1.375   1.947   6.201 -0.4797  0.1513 -0.3940
19755SOL    HW258674   1.257   1.936   6.314 -0.1625  1.5760  0.0865
19756SOL     OW58675   8.173   7.211   2.194  0.1868  0.1524 -0.2598
19756SOL    HW158676   8.159   7.192   2.097 -0.6116  1.3296 -0.3930
19756SOL    HW258677   8.137   7.134   2.248 -1.2783  0.4043 -0.8377
19757SOL     OW58678   0.528   8.230   2.321  0.5236 -0.3008  0.1221
19757SOL    HW158679   0.500   8.292   2.393  0.7201 -0.7125  0.5554
19757SOL    HW258680   0.448   8.179   2.288  0.3872  0.0819 -0.1404
19758SOL     OW58681   0.688   3.468   1.763 -0.6035 -0.0133  0.3050
19758SOL    HW158682   0.745   3.504   1.836  0.6032 -1.0050 -0.1439
19758SOL    HW258683   0.653   3.544   1.708 -2.4072  0.8258  2.5221
19759SOL     OW58684   3.256   3.274   3.718  0.4026  0.6950  0.2112
19759SOL    HW158685   3.258   3.253   3.815 -1.4249  0.8887  0.3011
19759SOL    HW258686   3.272   3.190   3.665 -0.3189  0.2849  0.6495
19760SOL     OW58687   8.158   1.088   4.196 -0.0782 -0.0922 -0.0391
19760SOL    HW158688   8.137   0.994   4.225  0.2957 -0.5298 -1.1402
19760SOL    HW258689   8.072   1.138   4.182 -0.3139 -0.6193 -0.5254
19761SOL     OW58690   1.762   3.186   5.107  0.4955 -0.1928  0.6968
19761SOL    HW158691   1.720   3.111   5.158 -0.8810  0.2523  0.2433
19761SOL    HW258692   1.787   3.259   5.170  0.2895 -0.3297  0.9383
19762SOL     OW58693   1.846   0.324   0.214  0.6938 -0.0488  0.1461
19762SOL    HW158694   1.908   0.250   0.187  0.6182  0.3554 -1.1528
19762SOL    HW258695   1.854   0.339   0.312  1.3816 -1.1712  0.2729
19763SOL     OW58696   0.151   1.752   0.337  0.2262 -0.3030  0.2970
19763SOL    HW158697   0.154   1.668   0.392 -1.8176 -1.1517 -0.8658
19763SOL    HW258698   0.163   1.729   0.241  0.8619  0.8874  0.0837
19764SOL     OW58699   0.176   8.907   4.533 -0.4713 -0.5931 -0.3365
19764SOL    HW158700   0.088   8.901   4.485 -0.1085  0.3876 -1.1562
19764SOL    HW258701   0.249   8.878   4.472 -0.1865 -1.1240  0.2511
19765SOL     OW58702   2.449   0.177   2.473 -0.0536  0.3814 -0.1047
19765SOL    HW158703   2.533   0.124   2.467  0.3770  0.8324  1.5928
19765SOL    HW258704   2.372   0.116   2.492  0.1008  0.1302 -0.2835
19766SOL     OW58705   7.255   2.382   3.636 -0.0795 -0.2368  0.7431
19766SOL    HW158706   7.193   2.433   3.695 -2.7651 -0.5875 -1.6040
19766SOL    HW258707   7.304   2.445   3.576  0.1544 -0.0939  1.0877
19767SOL     OW58708   3.337   7.473   5.723 -0.1555 -0.4153  0.2130
19767SOL    HW158709   3.418   7.532   5.732 -0.4263  0.0758 -0.5357
19767SOL    HW258710   3.255   7.530   5.717 -0.4857 -0.8933  0.1613
19768SOL     OW58711   2.188   9.149   1.095 -0.0963 -0.2821  0.3481
19768SOL    HW158712   2.235   9.124   1.180 -1.5896  0.7688  1.5018
19768SOL    HW258713   2.090   9.133   1.105 -0.4554  1.1444 -0.6749
19769SOL     OW58714   4.873   6.227   1.635  0.0681  0.3553  0.1019
19769SOL    HW158715   4.896   6.310   1.686 -1.0717  1.3598 -0.9809
19769SOL    HW258716   4.816   6.168   1.692  1.2205  0.1068  1.0250
19770SOL     OW58717   9.954   4.829   2.864  0.3095  0.2732  0.2793
19770SOL    HW158718   9.881   4.897   2.869 -1.3236 -1.4529  0.3212
19770SOL    HW258719  10.014   4.849   2.786 -1.0425  0.8703 -0.6148
19771SOL     OW58720   7.799   6.980   1.839  0.1049 -0.4964  0.0516
19771SOL    HW158721   7.773   6.993   1.744 -1.0653  0.0346  0.4338
19771SOL    HW258722   7.896   6.957   1.844 -0.0903 -1.7003 -1.3421
19774SOL     OW58723   8.086   3.232   6.094  0.2094 -0.1032 -0.1318
19774SOL    HW158724   8.146   3.161   6.131  0.7289  0.2759 -0.2519
19774SOL    HW258725   8.055   3.206   6.003 -1.2827 -1.1646  0.6462
19775SOL     OW58726   9.110   8.986   5.054 -0.0543 -0.0460  0.1918
19775SOL    HW158727   9.185   8.974   4.990 -1.2792  0.3317 -1.3294
19775SOL    HW258728   9.097   8.901   5.106  0.0815 -0.8068 -0.9966
19776SOL     OW58729   1.776   5.076   5.698  0.0411 -0.1646 -0.7823
19776SOL    HW158730   1.689   5.037   5.727 -0.4860  0.3801 -1.6105
19776SOL    HW258731   1.835   5.088   5.777 -0.8324 -0.0591 -0.1381
19777SOL     OW58732   1.942   5.873   6.263  0.0861 -0.3275  0.1381
19777SOL    HW158733   1.952   5.972   6.269 -1.3112 -0.3011  2.5072
19777SOL    HW258734   2.000   5.829   6.333  0.0784 -1.1347 -0.3554
19778SOL     OW58735   9.397   5.597   4.515  0.5012 -0.3000 -0.5648
19778SOL    HW158736   9.404   5.547   4.429 -0.1732 -1.9359  0.3097
19778SOL    HW258737   9.398   5.533   4.591 -3.3609  0.7558  0.4710
19779SOL     OW58738   3.373   4.796   6.030  0.4012  0.6250  0.0274
19779SOL    HW158739   3.400   4.860   6.102 -0.1204  1.8196 -0.8177
19779SOL    HW258740   3.277   4.771   6.041  0.0519  1.5847 -0.8261
19780SOL     OW58741   4.483   3.474   5.276  0.1825 -0.1986  0.0963
19780SOL    HW158742   4.535   3.556   5.249 -0.1242  0.0162  0.1658
19780SOL    HW258743   4.392   3.477   5.236  0.1889 -0.5367  0.0499
19781SOL     OW58744   4.310   0.872   4.382  0.4375 -0.1123 -0.7477
19781SOL    HW158745   4.281   0.817   4.460  1.1905  0.9452  0.3076
19781SOL    HW258746   4.350   0.957   4.415  0.2974  0.5831 -2.3153
19783SOL     OW58747   8.698   7.053   3.064  0.1542 -0.0796  0.1258
19783SOL    HW158748   8.674   6.977   3.124 -1.5823  1.9623  2.1237
19783SOL    HW258749   8.797   7.054   3.048  0.3984 -1.7301  1.4382
19784SOL     OW58750   2.990   4.408   0.831  0.5163  0.1755  0.0508
19784SOL    HW158751   2.998   4.366   0.921  0.1130  1.8599  0.8971
19784SOL    HW258752   3.001   4.338   0.760  2.1782 -0.9522  1.3794
19785SOL     OW58753   7.573   2.733   4.081  0.2730  0.6474 -0.1625
19785SOL    HW158754   7.652   2.692   4.126  1.4503  2.7556 -0.2459
19785SOL    HW258755   7.603   2.808   4.022 -1.8132  1.5934 -0.0753
19786SOL     OW58756   8.398   9.720   5.782  0.9607 -0.2458 -0.4280
19786SOL    HW158757   8.421   9.657   5.708 -2.2077 -1.2139 -0.6655
19786SOL    HW258758   8.451   9.804   5.771  3.0109 -1.6685 -1.8463
19787SOL     OW58759   9.253   4.883   5.647  0.6639  0.3563  0.0683
19787SOL    HW158760   9.185   4.848   5.712 -1.0809  0.7477 -1.4949
19787SOL    HW258761   9.297   4.964   5.685 -1.0947  1.2003  0.3724
19788SOL     OW58762   9.614   0.179   6.147 -0.4056  0.0579 -0.5058
19788SOL    HW158763   9.673   0.147   6.221 -1.2774  0.4017  0.3455
19788SOL    HW258764   9.535   0.118   6.139  0.5265 -0.9771 -2.2857
19789SOL     OW58765   6.920   1.495   4.908 -0.1893  0.7239  0.1536
19789SOL    HW158766   6.954   1.443   4.829  0.1858  0.3392  0.5674
19789SOL    HW258767   6.978   1.476   4.987 -1.4575 -0.0678  0.9091
19790SOL     OW58768   9.165   3.182   5.789 -0.5154 -0.3964 -0.0026
19790SOL    HW158769   9.185   3.114   5.860 -1.6419 -0.8915 -0.1447
19790SOL    HW258770   9.135   3.267   5.833  2.3149  0.5343  0.2314
19791SOL     OW58771   2.874   0.212   1.134 -0.0767 -0.2694  0.1565
19791SOL    HW158772   2.785   0.255   1.153  1.0953  1.4839  1.8117
19791SOL    HW258773   2.861   0.140   1.066 -2.9453 -0.7406  1.1048
19792SOL     OW58774   5.218   0.891   2.628 -0.5379 -0.4866  0.4357
19792SOL    HW158775   5.306   0.847   2.611 -0.3387  0.7792 -2.1001
19792SOL    HW258776   5.229   0.990   2.621 -2.4621 -0.3861 -1.4498
19794SOL     OW58777   0.195   6.341   6.383  0.4458 -0.2196 -0.4063
19794SOL    HW158778   0.277   6.367   6.434 -0.1740 -1.0774  1.0415
19794SOL    HW258779   0.146   6.424   6.354  0.7733  0.2705  0.4306
19795SOL     OW58780   9.451   8.968   0.451  0.4787  0.1686  0.2464
19795SOL    HW158781   9.437   9.001   0.358 -0.2765  0.8960  0.6161
19795SOL    HW258782   9.521   9.022   0.496  1.5288 -0.7983 -0.2124
19796SOL     OW58783   8.580   7.395   5.841 -0.2392 -0.1904 -0.1083
19796SOL    HW158784   8.583   7.335   5.762 -0.0917  1.1208 -1.1167
19796SOL    HW258785   8.662   7.453   5.842 -0.2360 -0.1989  1.0050
19797SOL     OW58786   1.774   4.358   6.350 -0.1348 -0.1515 -0.0566
19797SOL    HW158787   1.828   4.400   6.423  0.2689  0.0210 -0.4511
19797SOL    HW258788   1.831   4.292   6.301 -0.5593 -0.6457  0.1159
19798SOL     OW58789   8.663   8.693   1.248 -0.4650  0.0571 -0.1100
19798SOL    HW158790   8.637   8.740   1.164 -0.7788 -1.7465 -1.0462
19798SOL    HW258791   8.716   8.755   1.306  1.4934  0.7167 -2.5184
19799SOL     OW58792   1.226   0.026   2.227  0.7742 -0.0599 -0.1183
19799SOL    HW158793   1.138  -0.020   2.218  1.9373 -1.9883 -2.0272
19799SOL    HW258794   1.283  -0.022   2.294  1.5685 -0.8018 -1.2935
19800SOL     OW58795   2.858   4.867   1.417  0.1872 -0.1450  0.2123
19800SOL    HW158796   2.796   4.890   1.341  1.9900  0.5261 -1.0902
19800SOL    HW258797   2.857   4.940   1.484 -0.5294 -0.2052  0.2777
19801SOL     OW58798   1.775   2.356   3.701  0.1176 -0.1805  0.1089
19801SOL    HW158799   1.771   2.259   3.723 -1.5740  0.2485  1.8413
19801SOL    HW258800   1.686   2.398   3.720  2.1408  2.6357  4.0563
19802SOL     OW58801   6.933   1.694   1.463  0.3261 -0.2238  0.0260
19802SOL    HW158802   6.837   1.706   1.486  0.2021 -0.0532 -0.5982
19802SOL    HW258803   6.976   1.635   1.532  0.0399  0.6030  0.9159
19803SOL     OW58804   6.124   8.335   5.871  0.3027 -0.5669 -0.2472
19803SOL    HW158805   6.177   8.300   5.949 -1.4133 -1.1823  0.6803
19803SOL    HW258806   6.031   8.356   5.902  0.7583  3.1121 -1.2068
19804SOL     OW58807   0.550   7.922   3.865  0.1158  0.4097 -0.4937
19804SOL    HW158808   0.490   7.868   3.806  0.2916 -0.2222 -0.0921
19804SOL    HW258809   0.530   7.902   3.961  0.1256  1.1210 -0.3383
19805SOL     OW58810   6.763   0.595   6.156 -0.4749  0.1013  0.4056
19805SOL    HW158811   6.758   0.633   6.063  2.5755 -0.6129 -0.1176
19805SOL    HW258812   6.781   0.497   6.150  1.1713  0.3066  1.7497
19807SOL     OW58813   0.701   7.027   2.920  0.3197  0.1173  0.0820
19807SOL    HW158814   0.739   7.031   2.828 -0.1521  0.7745 -0.0975
19807SOL    HW258815   0.773   7.008   2.986  0.3845 -2.0937 -0.5915
19808SOL     OW58816   8.574   5.922   0.796  0.4829  0.0306 -0.1988
19808SOL    HW158817   8.623   6.009   0.792 -1.1512  1.0604  1.4121
19808SOL    HW258818   8.481   5.934   0.760 -0.0903 -0.7897  0.9607
19809SOL     OW58819   0.771   7.084   3.484 -0.0699 -0.3886  0.5791
19809SOL    HW158820   0.678   7.078   3.448  0.2008 -0.0933 -0.1835
19809SOL    HW258821   0.829   7.130   3.418  0.5409 -0.2403  1.2118
19810SOL     OW58822   4.624   1.147   1.678 -0.3630  0.7630 -0.1211
19810SOL    HW158823   4.685   1.214   1.635 -0.7231  0.2501 -1.4735
19810SOL    HW258824   4.660   1.055   1.664 -0.7043  0.5609  0.3246
19812SOL     OW58825   3.921   2.694   5.560  0.3717 -0.1073  0.9314
19812SOL    HW158826   3.915   2.639   5.477  2.1089 -0.2327  0.8775
19812SOL    HW258827   4.008   2.676   5.606  1.5433  3.5106  0.2672
19813SOL     OW58828   8.706   5.060   0.652 -0.1936  0.5249  1.0374
19813SOL    HW158829   8.763   5.113   0.589 -0.0885 -0.0044  0.6861
19813SOL    HW258830   8.625   5.114   0.676 -0.1208  0.8189  0.6367
19814SOL     OW58831   2.759   1.351   0.820  0.0679  0.2745  0.5525
19814SOL    HW158832   2.814   1.355   0.737 -1.9475  0.1390 -0.8273
19814SOL    HW258833   2.713   1.262   0.825 -1.1097  0.8934  0.9510
19815SOL     OW58834   1.291   0.947   4.696  0.4146 -0.0734 -0.4498
19815SOL    HW158835   1.343   0.922   4.777  2.1874  0.2566 -1.4413
19815SOL    HW258836   1.275   0.865   4.640 -2.7465 -0.7025  1.2625
19816SOL     OW58837   6.744   1.128   3.579  0.6267 -0.0665  0.3410
19816SOL    HW158838   6.650   1.161   3.588  0.3692 -0.3338 -1.1748
19816SOL    HW258839   6.780   1.105   3.670  0.2637  2.8115  1.2500
19817SOL     OW58840   7.621   1.166   1.844  0.0657 -0.0080  0.1031
19817SOL    HW158841   7.692   1.210   1.899  1.3347  0.4962 -1.9003
19817SOL    HW258842   7.540   1.224   1.841 -0.2656 -0.3348  1.9367
19818SOL     OW58843   8.014   8.313   5.609 -0.2199 -0.0044 -0.1536
19818SOL    HW158844   7.948   8.242   5.633  0.0502  0.4421  1.9469
19818SOL    HW258845   8.064   8.342   5.690  0.4819  1.7927 -1.1931
19819SOL     OW58846   6.830   1.336   1.625 -0.0822  0.2574  0.3711
19819SOL    HW158847   6.856   1.332   1.528  0.0804  0.4717  0.4073
19819SOL    HW258848   6.838   1.244   1.665 -0.4132  0.1140  0.1133
19820SOL     OW58849   3.691   3.844   5.917 -0.1894 -0.1590  0.0666
19820SOL    HW158850   3.711   3.918   5.852  0.1755  0.7212  1.1827
19820SOL    HW258851   3.618   3.787   5.879 -0.2115  0.5349 -0.9776
19821SOL     OW58852   5.421   0.877   5.291  0.1708  0.2650  0.2614
19821SOL    HW158853   5.398   0.807   5.223 -0.0273  0.6426 -0.0655
19821SOL    HW258854   5.371   0.961   5.270  1.1980  0.8316  0.0430
19823SOL     OW58855   4.798   5.682   1.702  0.6534 -0.4078 -0.4315
19823SOL    HW158856   4.747   5.609   1.657 -0.2209 -0.2692  0.3286
19823SOL    HW258857   4.764   5.771   1.671  1.4163 -0.3201 -1.0220
19825SOL     OW58858   7.675   1.784   1.086 -0.3595  0.2736  0.3465
19825SOL    HW158859   7.759   1.835   1.065 -1.2542  1.7337  0.2250
19825SOL    HW258860   7.661   1.714   1.016 -1.2560  2.5410 -1.8293
19826SOL     OW58861   2.954   7.775   2.304  0.6067  0.3043  0.5946
19826SOL    HW158862   2.946   7.705   2.375  0.8737  0.2110  0.5330
19826SOL    HW258863   2.870   7.829   2.300  0.2725 -0.2233  0.4223
19827SOL     OW58864   3.419   8.365   3.604  0.0989  0.1496 -0.4871
19827SOL    HW158865   3.469   8.326   3.682 -0.1865  0.4600 -0.1428
19827SOL    HW258866   3.483   8.401   3.537  0.3315  1.2790  0.3268
19830SOL     OW58867   7.970   2.176   1.643 -0.0096  0.3039  0.1086
19830SOL    HW158868   8.015   2.163   1.555  1.5711  0.5035  0.8769
19830SOL    HW258869   7.899   2.106   1.654 -0.1457  0.2078 -1.2653
19831SOL     OW58870   0.160   9.958   1.133 -0.3615  1.1037 -0.3383
19831SOL    HW158871   0.208  10.010   1.204  0.5784  0.5160 -0.5382
19831SOL    HW258872   0.221   9.945   1.054 -0.6888 -0.0458 -0.4109
19832SOL     OW58873   9.453   0.068   3.286  0.8143  0.1713  0.6671
19832SOL    HW158874   9.393  -0.011   3.296 -0.1155  0.5217 -1.8275
19832SOL    HW258875   9.548   0.038   3.283  0.5529 -0.7060  1.1271
19834SOL     OW58876   8.660   0.409   3.291  0.6209  0.0903  0.1446
19834SOL    HW158877   8.694   0.493   3.331  0.4873 -0.5053  1.5230
19834SOL    HW258878   8.588   0.430   3.224  1.2278  1.1130 -0.1875
19835SOL     OW58879   3.475   1.692   2.246 -0.0984  0.0155  0.3206
19835SOL    HW158880   3.413   1.716   2.321 -0.8517 -0.1813 -0.2293
19835SOL    HW258881   3.528   1.611   2.271 -0.3458 -0.0477  0.6463
19836SOL     OW58882   2.639   4.283   4.051  0.0329 -0.0746 -0.2507
19836SOL    HW158883   2.598   4.371   4.026 -1.1173 -0.0902  1.4763
19836SOL    HW258884   2.608   4.212   3.987 -1.8693  0.1204  0.4162
19837SOL     OW58885   8.918   4.469   4.373 -0.6446  0.0870  0.0681
19837SOL    HW158886   8.841   4.416   4.339 -0.3364  0.5159 -1.3441
19837SOL    HW258887   8.965   4.419   4.446 -2.0889 -0.2884  0.7410
19838SOL     OW58888   1.877   0.724   4.772  0.0422 -0.6796 -0.1547
19838SOL    HW158889   1.945   0.661   4.809  0.3927 -0.5368 -0.5539
19838SOL    HW258890   1.872   0.805   4.830 -1.3403 -1.6310  1.1021
19839SOL     OW58891   3.878   0.133   4.544 -0.1750  0.1746 -0.0132
19839SOL    HW158892   3.867   0.209   4.480 -1.3901  0.3079  0.3404
19839SOL    HW258893   3.975   0.124   4.569 -0.1056  2.0396  0.4736
19840SOL     OW58894   8.669   4.285   2.974 -0.2045 -0.0843  0.3224
19840SOL    HW158895   8.639   4.343   2.898  0.0409  0.3873  0.5810
19840SOL    HW258896   8.600   4.215   2.992 -0.5083  0.1326  0.0086
19842SOL     OW58897   0.943   3.020   3.584  0.2212  0.2760 -0.1828
19842SOL    HW158898   0.986   3.110   3.582  1.7532 -0.4226  0.4262
19842SOL    HW258899   0.854   3.024   3.539 -0.5721  2.5304  1.5048
19845SOL     OW58900   8.602   3.643   3.565 -0.3040  0.1809 -0.1461
19845SOL    HW158901   8.534   3.604   3.627 -0.0191  0.3394  0.2641
19845SOL    HW258902   8.681   3.676   3.617 -1.5191  3.4010 -0.2228
19846SOL     OW58903   8.600   5.699   6.262  0.2423  0.7186 -0.2263
19846SOL    HW158904   8.572   5.684   6.167 -2.8986  0.0023  0.7345
19846SOL    HW258905   8.527   5.748   6.310  0.9552 -0.6292  2.2904
19847SOL     OW58906   0.421   9.857   1.317 -0.2630  0.0738 -0.4434
19847SOL    HW158907   0.361   9.934   1.292 -0.2726  0.6973  1.4268
19847SOL    HW258908   0.368   9.788   1.364  0.3288  0.2731  0.5237
19848SOL     OW58909   1.938   2.579   4.319 -0.0417 -0.4169  0.1371
19848SOL    HW158910   2.006   2.592   4.247  0.2558  1.4329  0.7451
19848SOL    HW258911   1.964   2.629   4.401 -0.1342 -2.9010  1.7461
19851SOL     OW58912   2.939   5.490   0.665 -0.0715 -0.3034  0.6098
19851SOL    HW158913   2.899   5.576   0.633 -2.1668 -0.9440  1.4740
19851SOL    HW258914   3.025   5.473   0.616  0.6299  2.5139  0.7701
19852SOL     OW58915   4.209   4.113   1.751 -0.2764 -0.0941 -0.0588
19852SOL    HW158916   4.166   4.060   1.824  0.7653  1.1438  1.4878
19852SOL    HW258917   4.170   4.086   1.663 -0.2879 -2.8684  0.7648
19853SOL     OW58918   7.711   9.243   4.315  0.0723  0.3680 -0.2628
19853SOL    HW158919   7.705   9.235   4.216 -1.9850 -1.1284 -0.0540
19853SOL    HW258920   7.738   9.155   4.354 -2.8221 -0.1459  0.7287
19854SOL     OW58921   8.394   6.431   4.070  0.0313  0.2745  0.3683
19854SOL    HW158922   8.370   6.416   3.974  1.6073 -0.0658  0.0191
19854SOL    HW258923   8.403   6.343   4.116 -0.7004  0.4368  0.8384
19855SOL     OW58924   8.172   8.688   0.237  0.5617  0.1414 -0.5737
19855SOL    HW158925   8.105   8.693   0.164  0.5465 -0.5880 -0.6154
19855SOL    HW258926   8.174   8.595   0.274 -0.5616  0.8771  1.4141
19856SOL     OW58927   2.284   5.344   0.614  0.3590 -0.5131  0.3278
19856SOL    HW158928   2.305   5.249   0.639 -0.9139 -1.2121 -1.1537
19856SOL    HW258929   2.369   5.396   0.608  1.2447 -2.0079 -0.5275
19857SOL     OW58930   8.792   9.832   5.195 -0.3937  0.2820 -0.4726
19857SOL    HW158931   8.817   9.786   5.280 -0.5022 -0.0904 -0.6406
19857SOL    HW258932   8.871   9.881   5.159 -0.7604  1.6970  0.6360
19859SOL     OW58933   4.071   2.397   4.363 -0.4532  0.5457 -0.0863
19859SOL    HW158934   4.169   2.380   4.353 -0.1315  1.7767  0.8484
19859SOL    HW258935   4.021   2.344   4.295  0.8095 -0.6763 -0.0880
19860SOL     OW58936   1.694   9.030   1.298 -0.0288  0.0406 -0.1575
19860SOL    HW158937   1.631   8.981   1.359 -0.0050 -2.0754 -1.7590
19860SOL    HW258938   1.643   9.070   1.222  0.3292 -0.1404 -0.4962
19861SOL     OW58939   7.075   9.231   4.615  0.8280 -0.0936 -0.0050
19861SOL    HW158940   6.985   9.187   4.612  0.5953  0.1572  2.4900
19861SOL    HW258941   7.123   9.204   4.698  3.1700 -0.3521 -1.3735
19862SOL     OW58942   8.446   9.679   2.745 -0.6173  0.2180  0.0036
19862SOL    HW158943   8.393   9.756   2.781  1.4180  1.1137  1.1789
19862SOL    HW258944   8.398   9.640   2.667 -2.9246  1.0825  0.9403
19864SOL     OW58945   9.980   7.535   2.784 -0.2312 -0.1256 -0.7946
19864SOL    HW158946   9.995   7.437   2.769  4.2015  0.4367 -0.7599
19864SOL    HW258947  10.004   7.559   2.878  0.6087  1.2561 -1.3336
19866SOL     OW58948   1.583   6.204   5.251 -0.0575  0.7281  0.2672
19866SOL    HW158949   1.681   6.192   5.230 -0.2748  0.0911 -0.4061
19866SOL    HW258950   1.531   6.130   5.209 -0.9072  1.4370  0.0517
19867SOL     OW58951   3.582   1.533   3.316 -0.4185  0.7901 -0.3054
19867SOL    HW158952   3.625   1.492   3.397 -1.3216  0.5014  0.0335
19867SOL    HW258953   3.484   1.540   3.331 -1.0189 -1.9768 -2.5126
19868SOL     OW58954   0.514   0.393   0.571 -0.1879 -0.2412  0.6172
19868SOL    HW158955   0.472   0.424   0.656  1.6367 -0.8492  1.7575
19868SOL    HW258956   0.524   0.471   0.508 -1.7567  0.1609  0.8384
19869SOL     OW58957   3.985   9.007   0.954 -0.1017 -0.6954 -0.0786
19869SOL    HW158958   3.945   8.980   0.866 -0.3883 -0.8804  0.1081
19869SOL    HW258959   3.926   9.075   0.997  1.2746  1.2383 -1.1514
19870SOL     OW58960   2.116   5.857   3.953 -0.0192  0.5046  0.1533
19870SOL    HW158961   2.186   5.927   3.937 -1.5846  1.7893 -1.2899
19870SOL    HW258962   2.140   5.804   4.034  2.1666  1.4829  0.1888
19871SOL     OW58963   3.777   4.080   5.243  0.3869 -0.5306 -0.1506
19871SOL    HW158964   3.719   4.082   5.162 -0.7469 -1.1620  0.6339
19871SOL    HW258965   3.873   4.087   5.216 -0.0289  0.0979 -1.4822
19872SOL     OW58966   8.764   9.330   2.956 -0.1098  0.2728  0.3478
19872SOL    HW158967   8.708   9.297   2.880  0.8561 -0.4436 -0.0619
19872SOL    HW258968   8.724   9.414   2.993 -0.3865  0.8286 -1.1785
19873SOL     OW58969   4.951   0.596   4.426  0.0480  0.2461  0.2178
19873SOL    HW158970   4.909   0.514   4.387  0.2748  0.3420 -0.2328
19873SOL    HW258971   4.986   0.575   4.517  0.4774 -0.2754 -0.0625
19874SOL     OW58972   6.192   3.342   0.180 -0.2112  1.0398  0.5724
19874SOL    HW158973   6.094   3.357   0.177 -0.2714  0.9746  2.0431
19874SOL    HW258974   6.236   3.413   0.235  0.3700  0.0928  1.3399
19875SOL     OW58975   0.051   0.455   6.205 -0.0397  0.3980  0.2621
19875SOL    HW158976  -0.011   0.529   6.180 -1.1173 -0.5072  0.2240
19875SOL    HW258977   0.036   0.430   6.300 -1.2396 -1.2397 -0.3251
19876SOL     OW58978   7.153   3.603   1.224  0.0750 -0.1475 -0.2167
19876SOL    HW158979   7.215   3.639   1.293 -0.5971 -0.2903  0.4608
19876SOL    HW258980   7.194   3.615   1.133  1.0618 -0.1749  0.2182
19877SOL     OW58981   7.257   8.195   2.473 -0.1516 -0.0914 -0.5289
19877SOL    HW158982   7.227   8.103   2.447  1.9288 -0.0365 -3.2656
19877SOL    HW258983   7.195   8.263   2.435  0.5151 -0.2089 -1.8493
19878SOL     OW58984   4.740   7.201   4.203  0.1159 -0.4059  0.4764
19878SOL    HW158985   4.744   7.102   4.213 -0.8148 -0.6124 -1.0190
19878SOL    HW258986   4.712   7.224   4.110  0.2910  1.2612  0.8205
19879SOL     OW58987   3.587   1.047   0.790  0.2398  0.2770  0.3291
19879SOL    HW158988   3.678   1.009   0.771  0.1695 -0.0183  0.5677
19879SOL    HW258989   3.517   0.984   0.755  0.1348  0.7538 -0.3084
19880SOL     OW58990   9.356   4.146   4.253 -0.1278  0.4400 -0.3694
19880SOL    HW158991   9.344   4.245   4.247  0.1601  0.5176  0.3224
19880SOL    HW258992   9.453   4.124   4.262 -0.3282  0.1985  1.2933
19882SOL     OW58993   8.002   7.556   6.094  0.1157  0.0078  0.6588
19882SOL    HW158994   8.066   7.633   6.098  0.0850  0.2707 -2.5353
19882SOL    HW258995   8.053   7.470   6.093  0.5406  0.2218 -2.0843
19883SOL     OW58996   1.219   7.495   4.005  0.1542 -0.9793 -0.4392
19883SOL    HW158997   1.199   7.572   4.067 -0.8740 -1.4626 -0.1510
19883SOL    HW258998   1.164   7.416   4.032 -1.1046 -0.8915 -2.6147
19884SOL     OW58999   3.953   9.824   0.011  0.0269 -0.3308  0.5155
19884SOL    HW159000   3.918   9.743  -0.036  0.6921 -0.3668  0.0668
19884SOL    HW259001   4.024   9.796   0.077  1.4462  0.0334 -0.8245
19885SOL     OW59002   0.356   1.558   1.115 -0.1251 -0.2916 -0.4336
19885SOL    HW159003   0.257   1.544   1.112 -0.3987  1.3124  0.4689
19885SOL    HW259004   0.398   1.516   1.035 -1.7890  0.9333 -2.0138
19886SOL     OW59005   9.437   0.202   1.344  0.1817 -0.2663 -0.2137
19886SOL    HW159006   9.372   0.253   1.402 -0.0664 -0.7810 -0.0391
19886SOL    HW259007   9.478   0.128   1.398  1.1362  0.2400 -0.2378
19888SOL     OW59008   8.648   1.735   5.693  0.4065  0.2947  0.0365
19888SOL    HW159009   8.667   1.756   5.789 -1.0759 -2.1091  0.8882
19888SOL    HW259010   8.705   1.659   5.663 -1.7189 -1.4039  0.1505
19889SOL     OW59011   0.263   3.486   2.428 -0.1634 -0.1297  0.3902
19889SOL    HW159012   0.321   3.561   2.396 -0.3996  0.9178  2.3067
19889SOL    HW259013   0.211   3.517   2.508 -0.3165 -2.3391  1.1658
19890SOL     OW59014  -0.002   3.222   1.034 -0.7214 -0.3355  0.0588
19890SOL    HW159015   0.093   3.247   1.014 -0.6521  1.5895  2.4794
19890SOL    HW259016  -0.061   3.246   0.957  0.4847  0.2730 -0.6863
19891SOL     OW59017   3.116   8.133   4.107  0.1109 -0.1599 -0.0458
19891SOL    HW159018   3.149   8.204   4.169  2.7037 -1.2114 -0.1563
19891SOL    HW259019   3.029   8.098   4.141  0.5622  0.5716  1.9734
19894SOL     OW59020   4.593   3.319   2.888  0.5793  0.2276  0.7764
19894SOL    HW159021   4.572   3.253   2.960  0.2041  1.2843  1.6563
19894SOL    HW259022   4.626   3.404   2.929  2.3196  0.1500 -0.4042
19895SOL     OW59023   4.337   1.235   5.675  0.0834 -0.1529 -0.3441
19895SOL    HW159024   4.378   1.168   5.738 -0.5277 -0.9747 -0.8116
19895SOL    HW259025   4.240   1.246   5.697  0.3946  1.2861  0.3304
19896SOL     OW59026   6.861   9.258   2.618  0.3466 -0.2634  0.1769
19896SOL    HW159027   6.821   9.313   2.692 -0.1876  0.5531 -0.7080
19896SOL    HW259028   6.840   9.300   2.530  0.0211 -1.8343 -0.5132
19897SOL     OW59029   4.618   9.908   5.259  1.1217 -0.0875 -0.3726
19897SOL    HW159030   4.655   9.836   5.318  0.1345  1.0752  1.7167
19897SOL    HW259031   4.609   9.993   5.312  1.3159  1.3062 -2.5295
19898SOL     OW59032   9.894   0.242   3.926 -0.4903  0.3370 -0.1269
19898SOL    HW159033   9.989   0.218   3.905 -0.0072  1.2523  0.9388
19898SOL    HW259034   9.870   0.328   3.880 -0.3243  0.8791  0.7919
19899SOL     OW59035   2.483   7.325   1.988  0.3693  0.1054 -0.1278
19899SOL    HW159036   2.429   7.313   1.905  0.2019 -0.1287  0.0123
19899SOL    HW259037   2.431   7.291   2.067  0.8402 -0.3954 -0.0327
19900SOL     OW59038   4.285   2.711   1.584 -0.1806 -0.8416 -0.3035
19900SOL    HW159039   4.204   2.752   1.626  1.2137  1.5881  0.1066
19900SOL    HW259040   4.313   2.764   1.505  0.7269 -1.9577 -0.7517
19901SOL     OW59041   3.381   6.135   3.215 -0.4116  0.1791  0.1146
19901SOL    HW159042   3.359   6.094   3.127 -0.8825 -0.1227  0.3685
19901SOL    HW259043   3.475   6.112   3.241  0.5739  2.2796 -1.4435
19902SOL     OW59044   4.618   4.910   4.012  0.0020  0.3750 -0.3152
19902SOL    HW159045   4.649   4.844   3.944  0.5675  2.6830 -2.3454
19902SOL    HW259046   4.649   4.881   4.103  1.7305 -1.2087 -1.3795
19903SOL     OW59047   2.764   9.747   4.572 -0.0816  0.1073  0.2262
19903SOL    HW159048   2.746   9.845   4.558 -1.4806  0.0834  1.6707
19903SOL    HW259049   2.697   9.710   4.636 -1.0931 -2.3571 -2.1383
19904SOL     OW59050   2.349   1.148   6.089 -0.2894  0.7276  0.8973
19904SOL    HW159051   2.273   1.132   6.153  0.2158  1.2024  1.6299
19904SOL    HW259052   2.434   1.160   6.141  0.2610  0.3387  0.0895
19906SOL     OW59053   7.969   3.327   5.675 -0.3319 -0.3900 -0.1291
19906SOL    HW159054   7.949   3.423   5.659  1.4597  0.0491  0.1309
19906SOL    HW259055   7.909   3.291   5.747 -1.0989  0.4900 -0.3313
19907SOL     OW59056   1.024   4.763   0.092 -0.3752  0.4281 -0.0428
19907SOL    HW159057   1.080   4.843   0.070  1.0018 -0.3246  0.6701
19907SOL    HW259058   0.939   4.767   0.039  0.0365  1.9296 -0.6372
19908SOL     OW59059   7.854   5.083   1.447 -0.5299 -0.4680  0.1953
19908SOL    HW159060   7.827   5.071   1.351 -1.1653  1.8964  0.0568
19908SOL    HW259061   7.775   5.064   1.506 -1.2064  1.6931  0.0338
19910SOL     OW59062   9.492   2.884   1.618 -0.1691 -0.4328  0.1156
19910SOL    HW159063   9.446   2.815   1.674  1.2309 -2.1260 -0.7684
19910SOL    HW259064   9.516   2.843   1.529  1.7068  0.8674  0.0157
19911SOL     OW59065   9.074   7.807   6.191  0.0598 -0.1568  0.2690
19911SOL    HW159066   9.135   7.788   6.114 -2.0555 -3.0555 -0.7724
19911SOL    HW259067   9.046   7.720   6.234 -1.5565  1.2321  2.1217
19914SOL     OW59068   8.260   3.690   1.232  0.4404  0.0480 -0.2964
19914SOL    HW159069   8.201   3.692   1.312  0.5138 -2.0188 -0.1813
19914SOL    HW259070   8.355   3.702   1.261  0.6304 -2.2751  0.1168
19915SOL     OW59071   6.615   9.551   3.658 -0.0176 -0.1110  0.0570
19915SOL    HW159072   6.521   9.559   3.626  0.0105 -0.1167 -0.0266
19915SOL    HW259073   6.615   9.527   3.756 -0.1178 -1.3710 -0.2443
19916SOL     OW59074   7.253   5.157   1.722  0.0920 -0.0585  0.1525
19916SOL    HW159075   7.349   5.184   1.718  0.1909 -0.3062  0.7040
19916SOL    HW259076   7.199   5.232   1.758  0.4017 -0.6541  1.9173
19919SOL     OW59077   3.862   2.992   4.275 -0.5974  0.0843 -0.7601
19919SOL    HW159078   3.879   3.032   4.186 -0.5462  0.7544 -0.4500
19919SOL    HW259079   3.946   2.951   4.310 -0.2534  1.1111 -0.3734
19921SOL     OW59080   2.996   1.153   1.339  0.0185  0.1669  0.6299
19921SOL    HW159081   3.020   1.250   1.336  2.3919 -0.4103 -0.1213
19921SOL    HW259082   2.950   1.127   1.253 -0.9726  0.6994  0.9942
19922SOL     OW59083   2.362   6.337   2.559 -0.1681 -0.0946 -0.3034
19922SOL    HW159084   2.440   6.345   2.621 -0.2235  2.6903 -0.5087
19922SOL    HW259085   2.394   6.324   2.466  0.0418  0.0567 -0.2543
19923SOL     OW59086   3.251   3.641   5.582  0.0107  0.4902 -0.1273
19923SOL    HW159087   3.295   3.684   5.660  1.1924  1.8481 -1.5039
19923SOL    HW259088   3.167   3.689   5.560 -0.1921  0.2631  0.1506
19924SOL     OW59089   7.743   3.335   6.167 -0.1853  0.0309  0.0499
19924SOL    HW159090   7.820   3.388   6.204 -0.5285  1.1947 -0.8882
19924SOL    HW259091   7.722   3.260   6.230  1.6013 -0.1979  0.4043
19925SOL     OW59092   5.560   9.174   5.038 -0.0890  0.2238 -0.0628
19925SOL    HW159093   5.556   9.238   5.116  0.6460 -1.8269  1.7008
19925SOL    HW259094   5.472   9.173   4.991 -0.0638  2.6705 -0.2472
19926SOL     OW59095   1.107   8.529   0.480 -0.0901  0.2405  0.0124
19926SOL    HW159096   1.173   8.559   0.549 -0.3303 -0.3118  0.4818
19926SOL    HW259097   1.147   8.454   0.427 -0.6819 -0.7167  0.9011
19927SOL     OW59098   4.119   2.581   2.822  0.3348  0.3040  0.0516
19927SOL    HW159099   4.208   2.539   2.838 -0.1733 -0.0841  1.9077
19927SOL    HW259100   4.082   2.548   2.735  0.7682 -1.6473  0.5864
19929SOL     OW59101   8.005   0.436   0.884  0.0279 -0.1476 -0.2628
19929SOL    HW159102   7.957   0.509   0.835 -1.3604  0.7752  2.3335
19929SOL    HW259103   7.939   0.382   0.936  1.4594 -0.7986  0.9257
19930SOL     OW59104   0.020   5.003   4.524  0.3045  0.4375  0.1140
19930SOL    HW159105   0.054   4.909   4.537 -1.3577 -0.0302  1.3037
19930SOL    HW259106   0.061   5.063   4.593 -0.1372  0.1737  0.6112
19931SOL     OW59107   8.446   0.616   1.465 -0.5301 -0.4853 -0.5362
19931SOL    HW159108   8.513   0.543   1.478  0.0143  0.0046 -0.5723
19931SOL    HW259109   8.423   0.656   1.554  0.5737  0.5362 -0.6935
19933SOL     OW59110   4.239   7.638   4.451  0.2121  0.2486  0.0066
19933SOL    HW159111   4.267   7.714   4.511 -0.6978  0.7223 -0.1607
19933SOL    HW259112   4.219   7.558   4.507 -0.3018  0.5874  0.3153
19934SOL     OW59113   2.180   6.423   3.109 -0.1932  0.0604  0.0586
19934SOL    HW159114   2.140   6.405   3.019 -0.3182 -2.0952  0.5182
19934SOL    HW259115   2.250   6.354   3.129  1.0991  1.5728  0.8738
19935SOL     OW59116   3.575   0.365   3.040  0.1212  0.2069  0.4492
19935SOL    HW159117   3.579   0.457   3.003  1.6067  0.0644  0.2505
19935SOL    HW259118   3.480   0.342   3.061 -0.5552  0.8834 -1.7283
19936SOL     OW59119   8.769   4.680   0.922  0.2056 -0.3157  0.8117
19936SOL    HW159120   8.677   4.712   0.902  1.0152  0.9913 -1.0860
19936SOL    HW259121   8.783   4.675   1.021 -1.3034  1.2653  1.1238
19937SOL     OW59122   2.804   3.529   5.805 -0.0309  0.4226  0.3972
19937SOL    HW159123   2.873   3.588   5.846 -0.0407  0.0220  0.9984
19937SOL    HW259124   2.768   3.572   5.722  0.1078  1.1609  0.7127
19939SOL     OW59125   7.109   4.219   0.621 -0.6394  0.8380 -0.5053
19939SOL    HW159126   7.127   4.131   0.578 -1.9058  0.4740 -0.3046
19939SOL    HW259127   7.020   4.216   0.668  0.3122  1.5223  1.3687
19940SOL     OW59128   9.494   0.852   5.002 -0.0927 -0.1425 -0.4071
19940SOL    HW159129   9.482   0.753   5.014 -2.8017  0.0573 -1.0003
19940SOL    HW259130   9.564   0.885   5.066 -0.5970 -2.1202  1.2494
19941SOL     OW59131   2.127   2.875   1.448 -0.3484 -0.1014  0.0532
19941SOL    HW159132   2.184   2.796   1.472 -1.0604 -0.8756 -0.7751
19941SOL    HW259133   2.071   2.853   1.369 -0.2408  1.3975 -0.4541
19942SOL     OW59134   8.506   5.172   4.113  0.3407  0.2334  0.5105
19942SOL    HW159135   8.473   5.234   4.043  0.9313  0.3345  0.3266
19942SOL    HW259136   8.605   5.173   4.116  0.3276  0.1570  1.2799
19943SOL     OW59137   9.498   3.259   1.662  0.2606 -0.2036 -0.2769
19943SOL    HW159138   9.523   3.256   1.565 -0.9885 -4.8973 -0.5787
19943SOL    HW259139   9.563   3.203   1.714 -1.0986 -0.5286  1.0898
19944SOL     OW59140   3.364   6.278   0.306  0.1331 -0.4811 -0.2720
19944SOL    HW159141   3.417   6.332   0.241 -0.2977  1.2134  0.7569
19944SOL    HW259142   3.377   6.181   0.287  3.1766 -0.0957 -0.3802
19946SOL     OW59143   2.499   7.235   3.136  0.1829  0.3701 -0.1205
19946SOL    HW159144   2.502   7.222   3.037  2.5990  0.8772 -0.1496
19946SOL    HW259145   2.456   7.323   3.156 -1.7137 -0.4315 -0.6381
19947SOL     OW59146   3.891   0.340   1.263 -0.5630  0.3147  0.1938
19947SOL    HW159147   3.925   0.430   1.238 -1.7403 -0.0432 -2.8531
19947SOL    HW259148   3.813   0.350   1.326 -0.3112  1.3727  0.3464
19948SOL     OW59149   9.924   7.770   1.174 -0.0607  0.0671 -0.3711
19948SOL    HW159150   9.874   7.699   1.225  0.8599 -0.2645  0.0849
19948SOL    HW259151   9.960   7.730   1.089  0.4667 -0.0210 -0.1081
19949SOL     OW59152   4.653   0.032   3.597  0.2844 -0.4625  0.2463
19949SOL    HW159153   4.750   0.009   3.589  0.4451 -0.3709  1.7328
19949SOL    HW259154   4.607  -0.038   3.651 -0.1574  0.2742  0.8437
19950SOL     OW59155   9.415   2.812   2.642  0.0008  0.1871 -0.1337
19950SOL    HW159156   9.388   2.869   2.720  2.4830  0.7233  0.3973
19950SOL    HW259157   9.502   2.846   2.605  0.4513 -1.9885 -1.1491
19951SOL     OW59158   2.755   9.732   2.998 -0.3036  0.0781 -0.0265
19951SOL    HW159159   2.815   9.776   2.930 -3.2385  2.4450 -1.1706
19951SOL    HW259160   2.750   9.634   2.979  1.7887  0.1215 -0.9708
19952SOL     OW59161   1.433   9.657   1.998 -0.1571 -0.5155 -0.5755
19952SOL    HW159162   1.505   9.606   2.044  1.3757  1.0605 -1.2048
19952SOL    HW259163   1.433   9.752   2.030 -0.0522  0.2257 -2.7001
19954SOL     OW59164   1.226   2.400   2.688  0.0321  0.0358  0.0919
19954SOL    HW159165   1.132   2.370   2.702 -0.1821  0.1179 -1.1058
19954SOL    HW259166   1.225   2.495   2.658  0.5204  0.1145  0.3272
19955SOL     OW59167   7.816   5.462   5.487 -0.8614  0.8655  0.2719
19955SOL    HW159168   7.790   5.383   5.431  0.1267  0.6234  0.1424
19955SOL    HW259169   7.764   5.542   5.458 -0.7247  0.6262 -0.6624
19956SOL     OW59170   2.173   9.304   4.904  0.8763  0.6597 -0.1954
19956SOL    HW159171   2.260   9.337   4.867  1.5286 -1.1662 -0.3177
19956SOL    HW259172   2.188   9.266   4.995  0.2907 -0.0965 -0.4102
19957SOL     OW59173   2.891   8.517   4.331  0.1514  0.4135  0.5568
19957SOL    HW159174   2.883   8.450   4.404 -1.2215 -0.0729 -0.0244
19957SOL    HW259175   2.922   8.472   4.247 -4.5651 -0.3763 -0.9532
19960SOL     OW59176   9.173   3.288   2.463  0.2391  0.3643  0.1156
19960SOL    HW159177   9.219   3.318   2.547 -1.9965 -0.4775  1.6989
19960SOL    HW259178   9.193   3.192   2.447  1.4032  0.7587 -0.8401
19961SOL     OW59179   3.173   9.531   4.346 -0.3590 -0.0685 -0.2766
19961SOL    HW159180   3.215   9.469   4.280  0.1191 -0.4220  0.3490
19961SOL    HW259181   3.238   9.551   4.419 -1.0464 -0.1012  0.3576
19962SOL     OW59182   0.599   8.917   1.057  0.1514  0.4080  0.2087
19962SOL    HW159183   0.678   8.879   1.105  0.5327  0.2627 -0.5256
19962SOL    HW259184   0.527   8.848   1.050  0.9161 -0.2589 -1.2915
19963SOL     OW59185   3.233   7.206   0.648  0.1927  0.1120 -0.1238
19963SOL    HW159186   3.300   7.170   0.713  1.4460 -0.0382 -1.4897
19963SOL    HW259187   3.160   7.139   0.634  0.0377  0.0422  0.9100
19965SOL     OW59188   9.269   0.239   4.290  0.2414  0.2400 -0.5771
19965SOL    HW159189   9.217   0.290   4.359  0.3208 -0.2722 -0.1368
19965SOL    HW259190   9.340   0.185   4.335  1.2580  1.0448 -1.1912
19966SOL     OW59191   1.797   9.328   3.900  0.1564 -0.3039  0.5956
19966SOL    HW159192   1.869   9.337   3.832  0.8388 -0.8606  1.2278
19966SOL    HW259193   1.816   9.249   3.959 -0.6669 -0.1185  1.1334
19967SOL     OW59194   7.271   9.549   4.870  0.3731 -0.3019  0.4925
19967SOL    HW159195   7.174   9.548   4.846  0.7283 -0.1970 -0.9591
19967SOL    HW259196   7.281   9.522   4.966 -1.1043 -0.0878  0.7229
19968SOL     OW59197   9.251   7.377   3.815  0.6203 -0.0382  0.4980
19968SOL    HW159198   9.206   7.414   3.734  0.6688  0.2371  0.5937
19968SOL    HW259199   9.220   7.427   3.896 -2.9596 -3.2865  1.2758
19969SOL     OW59200   4.574   9.432   2.461 -1.2724 -0.2071 -0.1907
19969SOL    HW159201   4.491   9.384   2.492 -1.0027  1.3146  3.0519
19969SOL    HW259202   4.654   9.381   2.490 -1.0306  0.1231 -0.2815
19970SOL     OW59203   3.788   0.873   3.863  0.0093  0.5503  0.1258
19970SOL    HW159204   3.831   0.888   3.952  1.9566 -0.6471 -0.5645
19970SOL    HW259205   3.840   0.921   3.793 -2.2943  2.5859 -0.2131
19971SOL     OW59206   6.951   8.019   5.077 -0.4270  0.0544 -0.3036
19971SOL    HW159207   7.010   7.951   5.032  0.5231  1.0357 -0.5500
19971SOL    HW259208   6.985   8.036   5.169 -0.3453  0.6019 -0.4362
19972SOL     OW59209   2.118   1.437   3.119  0.4126 -0.2625 -0.1750
19972SOL    HW159210   2.103   1.350   3.073 -1.1064  0.1188 -0.4423
19972SOL    HW259211   2.094   1.429   3.216 -0.4596  0.0575 -0.3627
19973SOL     OW59212   6.312   4.241   0.017  0.0607 -0.0049 -0.7705
19973SOL    HW159213   6.277   4.330  -0.012  0.0344 -0.1714 -1.2414
19973SOL    HW259214   6.322   4.181  -0.062  0.1173 -0.4106 -0.4580
19974SOL     OW59215   1.546   5.700   4.267  0.0955 -0.2526 -0.2987
19974SOL    HW159216   1.555   5.706   4.168  0.1913 -0.4869 -0.3044
19974SOL    HW259217   1.483   5.626   4.291 -0.4335  0.2138 -0.2039
19975SOL     OW59218   4.382   3.724   1.921 -0.1517  0.1024 -0.2396
19975SOL    HW159219   4.411   3.748   2.013  1.5628  0.1811 -0.7959
19975SOL    HW259220   4.339   3.633   1.922 -1.2255  0.6166  0.8280
19976SOL     OW59221   4.305   4.589   2.334  0.4260 -0.3997 -0.5220
19976SOL    HW159222   4.387   4.551   2.376  0.7941 -1.9133 -2.5605
19976SOL    HW259223   4.286   4.678   2.375  1.6600 -1.1200  1.7091
19977SOL     OW59224   4.951   3.883   5.422  0.1513 -0.5627 -0.1291
19977SOL    HW159225   4.879   3.950   5.437 -0.1717 -0.8164 -0.5189
19977SOL    HW259226   4.918   3.792   5.448  0.7398 -0.5116  0.8325
19979SOL     OW59227   8.243   8.483   4.222  0.6945 -0.0086 -0.5120
19979SOL    HW159228   8.231   8.408   4.286  0.7136 -0.8932 -1.5371
19979SOL    HW259229   8.341   8.495   4.203  0.7714  0.9446  0.4333
19980SOL     OW59230   2.091   1.575   2.439  0.6631 -0.3619  0.1240
19980SOL    HW159231   2.088   1.522   2.524 -1.8898  0.0772  0.3380
19980SOL    HW259232   2.174   1.552   2.389  0.8429 -2.7013  1.4168
19981SOL     OW59233   3.029   5.877   6.375  0.3581 -0.7372  0.0399
19981SOL    HW159234   3.065   5.792   6.336  0.8357  0.0835 -1.3313
19981SOL    HW259235   3.058   5.885   6.470  0.3065 -2.1050  0.1812
19982SOL     OW59236   9.367   0.434   2.038  0.2866  0.2669 -0.4262
19982SOL    HW159237   9.415   0.437   1.949  2.9891  0.2442  0.9720
19982SOL    HW259238   9.359   0.339   2.068 -1.5171  0.2007 -1.0926
19983SOL     OW59239   0.563   4.187   4.079  0.5842  0.5786 -0.4267
19983SOL    HW159240   0.492   4.229   4.135 -1.1088 -2.3279 -0.2763
19983SOL    HW259241   0.592   4.251   4.008  0.0121  2.9020  1.3849
19984SOL     OW59242   2.076   8.998   1.888 -0.4939  0.1473  0.1052
19984SOL    HW159243   1.992   8.965   1.931  1.0568 -0.9594  2.4412
19984SOL    HW259244   2.138   9.031   1.959  1.1959  0.5764 -1.5437
19986SOL     OW59245   7.763   6.543   3.841  0.1100  0.2169 -0.3891
19986SOL    HW159246   7.760   6.444   3.831 -0.8901  0.2253 -0.1975
19986SOL    HW259247   7.688   6.573   3.901 -1.1998  1.3354 -2.5245
19987SOL     OW59248   8.316   6.807   0.239 -0.4969 -1.0113 -1.5516
19987SOL    HW159249   8.359   6.811   0.329 -2.4315  1.7020 -0.6803
19987SOL    HW259250   8.293   6.712   0.217 -0.3959 -1.6623  1.0128
19989SOL     OW59251   0.635   2.610   0.551 -0.3915 -0.4196 -0.0001
19989SOL    HW159252   0.606   2.688   0.605  2.0609  2.1105 -2.1974
19989SOL    HW259253   0.590   2.612   0.462  0.8101 -0.6261 -0.6287
19990SOL     OW59254   2.195   7.400   0.500  0.0407 -0.2393  0.2669
19990SOL    HW159255   2.282   7.448   0.511 -0.2022  0.4789 -0.7973
19990SOL    HW259256   2.132   7.430   0.571  0.4539 -0.2775  0.6516
19991SOL     OW59257   4.951   8.083   1.632 -0.2215 -0.8822 -0.0241
19991SOL    HW159258   4.892   8.014   1.591  0.8829 -1.1976 -1.0973
19991SOL    HW259259   5.002   8.130   1.561  0.3157 -0.1366  0.8434
19992SOL     OW59260   5.859   1.518   1.556  0.1080  0.1763  0.0053
19992SOL    HW159261   5.759   1.508   1.552  0.1796 -0.9573  0.9118
19992SOL    HW259262   5.900   1.477   1.474  0.0882 -3.0700  1.5550
19993SOL     OW59263   3.422   4.906   1.241  0.3064  0.1726 -0.0975
19993SOL    HW159264   3.442   5.001   1.267 -1.6360  0.1035  1.7944
19993SOL    HW259265   3.501   4.848   1.262  1.6468  1.4051 -1.6080
19994SOL     OW59266   6.646   9.024   5.057  0.1203  0.5313  0.0131
19994SOL    HW159267   6.684   8.932   5.045  0.1665  0.3282  1.5122
19994SOL    HW259268   6.547   9.019   5.063  0.1768  0.4322  1.1003
19995SOL     OW59269   9.756   9.272   5.265 -0.2242 -0.4682  0.2643
19995SOL    HW159270   9.720   9.364   5.251  0.3047 -0.0975  1.2666
19995SOL    HW259271   9.845   9.263   5.219 -0.0176 -0.2913  0.6199
19996SOL     OW59272   6.273   0.443   4.909  0.2799 -0.3759  0.2813
19996SOL    HW159273   6.298   0.509   4.839 -1.4651  1.4145  1.3150
19996SOL    HW259274   6.319   0.465   4.994  1.6402 -1.9862 -0.0047
19997SOL     OW59275   3.893   2.707   3.501 -0.2722 -0.4493 -0.4769
19997SOL    HW159276   3.830   2.751   3.436 -2.1043 -2.0232  0.2207
19997SOL    HW259277   3.933   2.626   3.458  0.3283 -0.1771 -0.4457
19998SOL     OW59278   6.762   8.280   4.194  0.0125  0.1660 -0.0747
19998SOL    HW159279   6.689   8.216   4.219  1.7730 -1.6298  0.6860
19998SOL    HW259280   6.749   8.366   4.243 -2.6866  0.6250 -1.4956
19999SOL     OW59281   3.168   0.853   6.361  0.0491 -0.1464 -0.1253
19999SOL    HW159282   3.168   0.758   6.331  0.0695  0.0457 -0.7346
19999SOL    HW259283   3.263   0.882   6.377  0.0188 -0.3375  0.4164
20001SOL     OW59284   6.429   9.219   4.089 -0.4706  0.2541  0.1978
20001SOL    HW159285   6.385   9.298   4.133  0.5204  0.0680  1.5554
20001SOL    HW259286   6.371   9.138   4.099 -0.2509  0.2126  1.1642
20003SOL     OW59287   3.437   2.208   4.638  0.5541  0.3184 -0.5449
20003SOL    HW159288   3.425   2.148   4.717 -0.4869  2.3734  0.8899
20003SOL    HW259289   3.376   2.179   4.564 -0.9594  0.4430  0.6391
20005SOL     OW59290   9.923   0.250   0.472 -0.1315  0.4895 -0.2713
20005SOL    HW159291  10.006   0.306   0.477  0.9500 -0.9990 -0.9091
20005SOL    HW259292   9.900   0.233   0.377 -0.4048 -0.1891 -0.0863
20007SOL     OW59293   3.857   2.335   4.528  0.3452 -0.5187 -0.5667
20007SOL    HW159294   3.953   2.363   4.536  0.8744 -2.0453 -1.1736
20007SOL    HW259295   3.807   2.359   4.611  1.1726  0.5737 -0.3741
20009SOL     OW59296   7.828   7.260   4.442  0.0628 -0.1978 -0.0816
20009SOL    HW159297   7.736   7.221   4.450  1.0184 -2.3542  0.8457
20009SOL    HW259298   7.841   7.328   4.514 -0.2384 -1.0942  0.8360
20010SOL     OW59299   5.029   0.025   2.356  0.2500  0.3761 -0.2534
20010SOL    HW159300   5.022  -0.035   2.276  2.5706  1.0014 -0.9783
20010SOL    HW259301   5.126   0.039   2.378 -0.3599  0.3602  2.5736
20011SOL     OW59302   9.705   2.594   0.162  0.5236 -0.5239  0.1172
20011SOL    HW159303   9.664   2.545   0.239  0.8462  0.0432  0.6603
20011SOL    HW259304   9.755   2.674   0.197 -1.7279  1.3890 -0.9151
20012SOL     OW59305   2.452   8.169   4.696 -0.5553  0.0233  0.0434
20012SOL    HW159306   2.503   8.089   4.662  1.0221  0.8139  0.5054
20012SOL    HW259307   2.415   8.220   4.619  0.5073  0.1792 -0.3735
20013SOL     OW59308   7.958   7.380   2.142 -0.0146  0.3292  0.1332
20013SOL    HW159309   8.048   7.357   2.179 -0.9602 -0.7768  1.7928
20013SOL    HW259310   7.919   7.300   2.097 -0.8608  0.3157  0.8713
20014SOL     OW59311   9.885   0.465   5.937 -0.1791 -0.2004 -0.3358
20014SOL    HW159312   9.957   0.475   5.868 -1.1229  0.5046 -1.2193
20014SOL    HW259313   9.825   0.389   5.912 -0.3923 -0.0854 -0.1721
20016SOL     OW59314   3.595   5.766   1.333  0.1325 -0.7830 -0.2411
20016SOL    HW159315   3.694   5.758   1.322  0.2348  0.2257 -0.0844
20016SOL    HW259316   3.573   5.778   1.430 -0.1079 -0.6093 -0.3160
20017SOL     OW59317   5.460   8.579   4.815 -0.0641 -0.7600  0.0698
20017SOL    HW159318   5.369   8.538   4.805  0.3326 -1.7761  0.5786
20017SOL    HW259319   5.511   8.532   4.886  1.1612 -0.7196 -0.7555
20020SOL     OW59320   1.020   9.318   4.535 -0.4816  0.4383  0.4844
20020SOL    HW159321   0.987   9.348   4.446  0.8311  0.6268  0.0532
20020SOL    HW259322   1.118   9.334   4.542 -0.3440 -0.7441  1.4921
20021SOL     OW59323   3.612   0.159   3.981  0.2085  0.1845 -0.3029
20021SOL    HW159324   3.586   0.064   3.960 -1.1430  0.1288  1.4841
20021SOL    HW259325   3.534   0.219   3.963  0.8212  0.8652 -0.6992
20022SOL     OW59326   2.553   5.626   1.994 -0.2909  0.1610  0.0726
20022SOL    HW159327   2.576   5.719   2.020  0.3111  0.0396 -0.0308
20022SOL    HW259328   2.467   5.627   1.942 -0.5812  0.5891  0.5477
20023SOL     OW59329   8.842   4.428   1.210 -0.3057 -0.0838  1.1523
20023SOL    HW159330   8.815   4.347   1.262 -0.8624 -0.7106 -0.1088
20023SOL    HW259331   8.859   4.504   1.273 -2.5759 -0.3602  2.1401
20024SOL     OW59332   3.369   1.195   2.934  0.5130 -0.2839  0.0146
20024SOL    HW159333   3.436   1.188   3.007  1.5582  1.9258 -0.6660
20024SOL    HW259334   3.368   1.289   2.899 -0.4903 -1.1018 -2.2917
20025SOL     OW59335   0.213   3.661   5.994 -0.1543 -0.3664  0.2642
20025SOL    HW159336   0.209   3.562   5.981  0.9652 -0.1913 -1.7547
20025SOL    HW259337   0.124   3.701   5.972 -0.0517 -0.7420 -0.9048
20026SOL     OW59338   8.611   0.174   5.767  0.1122 -0.2352  0.2093
20026SOL    HW159339   8.618   0.227   5.852 -0.3859 -1.2532  0.9026
20026SOL    HW259340   8.703   0.149   5.736  0.2841 -0.2314  0.7007
20027SOL     OW59341   1.656   6.938   5.802  0.6579  0.2050 -0.4847
20027SOL    HW159342   1.680   6.842   5.818  0.2786  0.4543  1.8332
20027SOL    HW259343   1.630   6.980   5.889  2.4400  2.8642 -1.1689
20028SOL     OW59344   1.052   7.068   0.884 -0.1501 -0.2807  0.5951
20028SOL    HW159345   1.122   7.009   0.923 -0.0560 -1.9111 -1.8985
20028SOL    HW259346   0.975   7.013   0.852 -1.9053  1.3434  1.9060
20030SOL     OW59347   2.450   5.598   6.021  0.1027 -0.0753  0.2659
20030SOL    HW159348   2.398   5.557   6.096  0.3908 -0.1801  0.4095
20030SOL    HW259349   2.498   5.680   6.054 -0.0831  0.1038  0.0993
20031SOL     OW59350   1.181   8.157   5.716 -0.1884 -0.3256  0.2009
20031SOL    HW159351   1.161   8.067   5.676 -0.0218 -0.4230  0.3362
20031SOL    HW259352   1.197   8.222   5.642 -1.0838 -0.2246  0.0811
20032SOL     OW59353   5.141   8.932   3.803  0.1693 -0.1150  0.3986
20032SOL    HW159354   5.124   9.025   3.772  3.0067  0.2637 -0.1213
20032SOL    HW259355   5.094   8.868   3.742 -0.4650  0.9032 -0.2079
20034SOL     OW59356   4.681   9.098   3.057  0.3828 -0.1137 -0.1588
20034SOL    HW159357   4.742   9.046   2.997  2.0903  1.3223  0.2854
20034SOL    HW259358   4.709   9.194   3.059 -0.2544  0.0691  2.1206
20035SOL     OW59359   7.760   6.627   4.655 -0.3158  0.0972 -0.2233
20035SOL    HW159360   7.731   6.705   4.710  0.7687  0.1049  0.3457
20035SOL    HW259361   7.760   6.545   4.711  1.6903  0.2662  0.0534
20037SOL     OW59362   8.743   7.002   0.012 -0.6975 -0.2225 -0.0877
20037SOL    HW159363   8.795   7.054  -0.055 -1.1219  2.1986  1.3972
20037SOL    HW259364   8.652   6.981  -0.025 -1.0306  1.3310 -0.2014
20038SOL     OW59365   3.041   2.788   4.884 -0.3335 -0.0180 -0.2681
20038SOL    HW159366   2.947   2.763   4.862 -0.7346  0.0569  1.3672
20038SOL    HW259367   3.077   2.726   4.954  0.1422  1.2383  0.6204
20039SOL     OW59368   3.475   4.287   0.550  0.3770  0.3128 -0.9333
20039SOL    HW159369   3.563   4.335   0.558  0.9297 -0.9705  0.7408
20039SOL    HW259370   3.413   4.320   0.621  0.9893 -1.9034  0.6714
20041SOL     OW59371   1.466   3.656   3.474 -0.4102 -0.8131  0.5853
20041SOL    HW159372   1.526   3.582   3.504  0.8673  0.7110  1.8907
20041SOL    HW259373   1.504   3.743   3.503 -1.8172  0.3777 -1.0795
20042SOL     OW59374   0.022   1.573   0.836 -0.4406 -0.1306 -0.3680
20042SOL    HW159375  -0.050   1.643   0.833 -0.1886  0.3260  2.4837
20042SOL    HW259376  -0.015   1.486   0.801 -2.2615  0.2218  0.5904
20043SOL     OW59377   1.283   7.967   0.218 -0.2383 -0.1499 -1.0437
20043SOL    HW159378   1.231   8.038   0.170  1.4386  1.8635  0.0007
20043SOL    HW259379   1.327   8.008   0.298  0.3656 -2.5168 -0.1432
20044SOL     OW59380   1.009   4.111   6.275  0.3789 -0.1117 -0.0983
20044SOL    HW159381   0.920   4.067   6.261 -0.1440  0.6616  0.7103
20044SOL    HW259382   0.997   4.210   6.278  1.0941 -0.0572  1.2106
20046SOL     OW59383   8.718   1.023   4.984  0.3837 -0.0750  0.4161
20046SOL    HW159384   8.757   1.032   4.892  0.4927  0.0956  0.4798
20046SOL    HW259385   8.715   1.113   5.028  1.3705 -0.3265  1.0129
20047SOL     OW59386   7.969   5.992   1.342  0.5733 -0.1950 -0.1804
20047SOL    HW159387   7.949   6.058   1.414  1.2719 -0.0334 -0.1340
20047SOL    HW259388   8.067   5.991   1.323  0.7762 -2.2440  0.8163
20048SOL     OW59389   9.009   7.703   4.981  0.6057 -0.1940  0.4123
20048SOL    HW159390   8.945   7.695   4.905  1.4590 -0.2553 -0.3188
20048SOL    HW259391   8.972   7.766   5.050  0.4455  0.9877 -0.7162
20049SOL     OW59392   8.058   0.311   0.403 -0.3961  0.4297  0.4141
20049SOL    HW159393   8.046   0.242   0.332 -1.1972  0.9860 -0.0028
20049SOL    HW259394   8.032   0.273   0.492 -0.9288  0.2188  0.1730
20050SOL     OW59395   6.540   8.133   4.248  0.2740 -0.5644  0.4580
20050SOL    HW159396   6.499   8.175   4.329 -0.5680 -0.8656  0.1969
20050SOL    HW259397   6.469   8.122   4.177  1.1988  0.5506 -0.6586
20051SOL     OW59398   9.019   4.770   3.639  0.4991  0.3977  0.2464
20051SOL    HW159399   9.005   4.825   3.721  0.3457  1.8237 -0.7169
20051SOL    HW259400   9.116   4.744   3.632  0.3047 -0.6920  1.4579
20052SOL     OW59401   9.028   8.068   1.627 -0.0343  0.1834 -0.1448
20052SOL    HW159402   9.035   7.969   1.639  1.0309  0.0455 -1.7164
20052SOL    HW259403   9.112   8.112   1.662  0.0838  0.3999 -0.6911
20053SOL     OW59404   3.478   7.772   5.337  0.5695  0.5936  0.1817
20053SOL    HW159405   3.518   7.685   5.366 -0.6461  0.6506  2.1634
20053SOL    HW259406   3.400   7.753   5.277 -0.4542  0.2275  1.5820
20054SOL     OW59407   2.949   0.695   4.339 -0.3319  0.3216  0.0625
20054SOL    HW159408   2.908   0.686   4.430 -1.1983  0.6859 -0.2872
20054SOL    HW259409   2.892   0.649   4.272  0.5732 -0.3755 -0.2274
20055SOL     OW59410   3.275   9.773   2.375  0.0907 -0.3809 -0.2759
20055SOL    HW159411   3.307   9.846   2.434 -0.8892 -1.5047  1.6873
20055SOL    HW259412   3.246   9.812   2.287 -0.7599  1.6400  0.8560
20057SOL     OW59413   9.883   6.144   1.567 -0.3670 -0.4010 -0.2602
20057SOL    HW159414   9.955   6.198   1.524 -1.3447  0.0409 -1.3757
20057SOL    HW259415   9.923   6.063   1.611  1.0346  0.8741  0.8639
20058SOL     OW59416   1.813   8.615   4.428  0.4108  0.3521  0.3758
20058SOL    HW159417   1.874   8.650   4.498  0.5006 -1.8356  1.4490
20058SOL    HW259418   1.718   8.621   4.461  0.4730 -0.9053  0.8063
20060SOL     OW59419   4.635   7.139   3.827 -0.3475 -0.2454 -0.5860
20060SOL    HW159420   4.626   7.137   3.728  0.8074  0.5007 -0.7045
20060SOL    HW259421   4.709   7.201   3.854 -0.3262 -0.8064  0.7136
20062SOL     OW59422   8.099   9.079   3.012 -0.4504 -0.4096  0.6320
20062SOL    HW159423   8.085   9.082   2.913  1.5569 -0.9037  0.3053
20062SOL    HW259424   8.062   9.162   3.053 -1.0227 -0.0548 -0.5672
20063SOL     OW59425   4.035   6.938   1.935 -0.1156  0.3176  0.4326
20063SOL    HW159426   4.078   6.886   2.009  0.3213  2.1867  1.5195
20063SOL    HW259427   4.083   7.025   1.923 -0.8875  0.5273 -1.3095
20064SOL     OW59428   3.641   4.698   3.146  0.1187  0.4192  0.1446
20064SOL    HW159429   3.575   4.640   3.097 -0.8395 -0.3856  2.3335
20064SOL    HW259430   3.708   4.640   3.191  1.9738  1.2219 -1.5148
20065SOL     OW59431   8.909   6.866   0.987  0.6790  0.1875 -0.0252
20065SOL    HW159432   8.970   6.855   0.909  0.7422 -0.9827  0.1803
20065SOL    HW259433   8.909   6.961   1.017  1.6200  0.3875 -0.6612
20067SOL     OW59434   1.009   5.124   4.678 -0.0886 -0.1046 -0.2435
20067SOL    HW159435   0.977   5.111   4.771 -0.1040 -1.2548 -0.3950
20067SOL    HW259436   1.050   5.215   4.668  0.0367 -0.0321  0.9113
20068SOL     OW59437   4.586   2.079   6.125  0.4983 -0.0577 -0.4454
20068SOL    HW159438   4.596   2.163   6.178  2.5397 -1.3361  1.3060
20068SOL    HW259439   4.671   2.059   6.078  0.3174 -1.5814 -0.1500
20069SOL     OW59440   2.760   7.272   6.268  0.1248 -0.0932 -0.2900
20069SOL    HW159441   2.751   7.228   6.179 -1.8471  0.7103 -0.5287
20069SOL    HW259442   2.807   7.359   6.257 -0.9053  0.4240 -0.7138
20070SOL     OW59443   4.905   6.601   2.551  0.0250  0.1923  0.2548
20070SOL    HW159444   4.858   6.665   2.491 -1.0927 -0.7533  0.1035
20070SOL    HW259445   4.838   6.540   2.595  0.9274  0.0689  1.5119
20071SOL     OW59446   8.043   9.663   5.573  0.5170  0.0557  0.5334
20071SOL    HW159447   8.050   9.761   5.588 -0.3748 -0.1541  2.4860
20071SOL    HW259448   8.087   9.614   5.648  3.2702 -1.0594 -1.7349
20073SOL     OW59449   8.754   1.381   5.917  0.4258 -0.1188 -0.1635
20073SOL    HW159450   8.786   1.434   5.996 -0.5330  1.4244 -0.7793
20073SOL    HW259451   8.654   1.382   5.916  0.3072 -3.7924  1.0287
20074SOL     OW59452   4.851   9.326   1.441 -0.0247 -0.1113  0.4779
20074SOL    HW159453   4.751   9.326   1.438 -0.0076  0.6344 -0.5698
20074SOL    HW259454   4.884   9.232   1.444 -0.7494 -0.4022 -0.3081
20075SOL     OW59455   6.790   3.087   3.232 -0.1396  0.1895  0.3286
20075SOL    HW159456   6.835   3.154   3.173 -0.3194 -0.5453 -0.6439
20075SOL    HW259457   6.811   3.108   3.328  3.1783 -0.7888 -0.1400
20076SOL     OW59458   9.078   2.688   0.814 -0.3015  0.1827 -0.0324
20076SOL    HW159459   9.084   2.764   0.879  0.7922 -0.3123  0.4663
20076SOL    HW259460   9.020   2.714   0.737 -0.0322  1.4760  0.1904
20079SOL     OW59461   1.031   6.209   4.181 -0.4721  0.7367  0.5541
20079SOL    HW159462   1.067   6.134   4.237  1.4430 -0.0222 -1.6049
20079SOL    HW259463   0.986   6.171   4.100  0.8569  1.8867 -0.7483
20080SOL     OW59464   3.802   1.083   0.446 -0.2299  0.0967 -0.5088
20080SOL    HW159465   3.858   1.160   0.415 -0.0511  0.7339  1.2896
20080SOL    HW259466   3.707   1.114   0.456 -0.3181 -0.1436 -0.6197
20081SOL     OW59467   3.053   3.137   0.401 -0.8895  0.1286  0.1803
20081SOL    HW159468   2.955   3.158   0.395 -0.8346  1.4453  2.7778
20081SOL    HW259469   3.106   3.218   0.376 -0.4331 -0.6354 -1.3914
20082SOL     OW59470   8.869   9.127   5.077 -0.8014  0.2247  0.1253
20082SOL    HW159471   8.796   9.065   5.049 -1.4555  0.7693  0.6272
20082SOL    HW259472   8.954   9.075   5.088 -0.2251  0.1874 -3.9532
20083SOL     OW59473   9.673   8.279   1.828 -0.5713 -0.3400  0.3632
20083SOL    HW159474   9.690   8.336   1.747 -2.0387 -0.6919 -0.2132
20083SOL    HW259475   9.756   8.272   1.882 -0.1033  1.5283 -0.0851
20084SOL     OW59476   8.465   0.217   4.506 -0.4562  0.3348  0.0582
20084SOL    HW159477   8.371   0.225   4.475 -0.7230  3.0400  1.4341
20084SOL    HW259478   8.467   0.168   4.594 -0.3892 -1.1674 -0.7652
20085SOL     OW59479   0.114   2.988   0.023 -0.1687  0.0308 -0.3779
20085SOL    HW159480   0.210   3.009   0.041 -0.3185  1.5355 -1.3005
20085SOL    HW259481   0.084   2.914   0.084  1.3712  0.0356  0.3978
20087SOL     OW59482   0.785   5.027   4.536 -0.2702 -0.0826 -0.3107
20087SOL    HW159483   0.863   5.047   4.596  0.5877 -2.5908 -0.4926
20087SOL    HW259484   0.709   4.993   4.591 -0.1231 -0.6297 -0.4391
20088SOL     OW59485   1.088   1.489   5.633 -0.6652 -0.4717 -0.0371
20088SOL    HW159486   1.152   1.438   5.691 -0.4173 -0.4222 -0.2672
20088SOL    HW259487   0.996   1.484   5.672 -0.5642 -0.7462  0.1643
20089SOL     OW59488   1.366   4.447   4.235  0.5371  0.1535 -0.5115
20089SOL    HW159489   1.305   4.525   4.218  1.0922  0.4826 -1.0102
20089SOL    HW259490   1.314   4.362   4.230 -0.1630  0.5134  0.4549
20090SOL     OW59491   1.948   7.412   3.427 -0.3096 -0.0168 -0.3152
20090SOL    HW159492   1.899   7.450   3.348  0.3222  0.4606 -0.4745
20090SOL    HW259493   2.016   7.346   3.396 -1.6865 -1.6294 -0.0166
20091SOL     OW59494   9.589   8.984   0.104 -0.2318 -0.3902  0.0832
20091SOL    HW159495   9.664   9.022   0.158  0.0914  0.4130 -0.9262
20091SOL    HW259496   9.509   9.044   0.111 -1.3812 -2.1407  2.5843
20092SOL     OW59497   1.645   2.912   4.927  0.4569  0.3610  0.6469
20092SOL    HW159498   1.671   2.817   4.943  2.2409  0.6791 -0.3119
20092SOL    HW259499   1.643   2.962   5.014 -1.5003 -0.7802  1.2877
20093SOL     OW59500   0.832   3.083   0.937  0.0488  0.3037  0.4073
20093SOL    HW159501   0.923   3.062   0.903  0.2858  0.4860  0.9316
20093SOL    HW259502   0.836   3.104   1.035 -0.4749  0.8267  0.3231
20094SOL     OW59503   3.196   8.945   4.576 -0.2201  0.0921  0.3346
20094SOL    HW159504   3.110   8.909   4.613 -1.4707  2.9772  0.3860
20094SOL    HW259505   3.239   9.005   4.644  1.5030 -0.7930  0.0503
20095SOL     OW59506   7.184   1.328   6.415  0.0465  0.3937  0.4619
20095SOL    HW159507   7.282   1.311   6.406 -0.0860 -0.4569  0.5195
20095SOL    HW259508   7.138   1.243   6.441 -0.5033  1.1646  2.0721
20096SOL     OW59509   3.761   5.361   2.555  0.3690 -0.2040  0.5904
20096SOL    HW159510   3.744   5.458   2.572 -0.7183 -0.9399  4.0368
20096SOL    HW259511   3.675   5.314   2.539  0.8625 -0.7051 -0.6822
20097SOL     OW59512   8.446   6.137   2.027 -0.0836 -0.0577 -0.0345
20097SOL    HW159513   8.412   6.053   2.069 -2.2875  0.6686 -0.3334
20097SOL    HW259514   8.493   6.114   1.942 -1.1579 -0.9587 -0.4010
20098SOL     OW59515   1.319   1.440   4.958  0.6519  0.1928  0.2796
20098SOL    HW159516   1.245   1.479   4.903  0.3778 -0.8926 -0.1406
20098SOL    HW259517   1.283   1.414   5.048  0.9013  1.1623  0.6659
20099SOL     OW59518   2.661   4.565   0.325  0.5103  0.6407 -0.0262
20099SOL    HW159519   2.705   4.501   0.388 -0.1734 -1.6720 -1.8219
20099SOL    HW259520   2.682   4.539   0.231 -2.7883  0.8406 -0.8848
20100SOL     OW59521   6.543   5.629   0.659 -0.5106 -0.3416  0.0204
20100SOL    HW159522   6.565   5.539   0.623  2.1662  0.0372  0.5376
20100SOL    HW259523   6.521   5.622   0.756 -1.0915 -0.5502 -0.1302
20101SOL     OW59524   0.481   5.570   3.873  0.3480 -0.2382 -0.0871
20101SOL    HW159525   0.551   5.505   3.843 -0.5882 -1.0849 -0.4489
20101SOL    HW259526   0.509   5.611   3.959 -0.2416 -3.0655  1.5117
20102SOL     OW59527   0.372   1.569   2.691 -0.2896  0.3287 -0.0685
20102SOL    HW159528   0.280   1.600   2.665 -0.0165  0.3088 -1.0566
20102SOL    HW259529   0.424   1.645   2.728 -0.5495  0.4367  0.0767
20103SOL     OW59530   2.471   6.244   1.500  0.1125  0.3225 -0.3820
20103SOL    HW159531   2.487   6.294   1.415  1.1305  0.2251 -0.2518
20103SOL    HW259532   2.448   6.149   1.478  0.8167  0.1856 -0.5345
20105SOL     OW59533   5.603   1.500   6.235 -0.0845 -0.5286 -0.3008
20105SOL    HW159534   5.686   1.551   6.259 -0.4689 -0.4922  0.9784
20105SOL    HW259535   5.623   1.402   6.232  0.3095 -0.4288 -1.3269
20106SOL     OW59536   6.834   9.237   5.497  0.3248  0.6380  0.2127
20106SOL    HW159537   6.768   9.279   5.558 -0.0034 -0.1410  0.4044
20106SOL    HW259538   6.879   9.161   5.543  1.3259  1.1373  0.0687
20107SOL     OW59539   1.318   6.436   1.428 -0.0362 -0.2651  0.0447
20107SOL    HW159540   1.339   6.409   1.334 -0.9778 -0.9598  0.0324
20107SOL    HW259541   1.358   6.370   1.492  0.6538  0.2390  0.1400
20108SOL     OW59542   3.933   7.602   2.708 -0.3249 -0.0657  0.2657
20108SOL    HW159543   3.853   7.550   2.740  0.2770 -0.3482  1.3350
20108SOL    HW259544   3.914   7.639   2.617 -2.1009  0.8148  0.9609
20109SOL     OW59545   7.990   9.084   4.295 -0.2282  0.5079  0.1069
20109SOL    HW159546   8.062   9.153   4.301  1.9221 -1.7637  1.6848
20109SOL    HW259547   7.945   9.075   4.384  1.1587 -1.7426  0.6341
20110SOL     OW59548   3.756   9.941   5.001  0.4860 -0.6388  0.4396
20110SOL    HW159549   3.693   9.987   4.938 -0.3462 -1.6829  0.4973
20110SOL    HW259550   3.849   9.972   4.983 -0.1889  2.0748  1.3667
20111SOL     OW59551   9.377   4.343   3.067 -0.3247  0.5383 -0.1894
20111SOL    HW159552   9.343   4.360   3.160 -1.0665 -1.8024  0.0006
20111SOL    HW259553   9.329   4.403   3.003 -0.3656  1.6212  0.8302
20113SOL     OW59554   3.054   4.369   1.112  0.6587  0.2911  0.4596
20113SOL    HW159555   3.061   4.401   1.206  1.6844 -0.9112  0.8011
20113SOL    HW259556   3.039   4.270   1.111  0.1042  0.3669 -0.6353
20114SOL     OW59557   2.201   0.599   4.185 -0.2785  0.6144  0.4457
20114SOL    HW159558   2.209   0.500   4.198  2.7762  0.7265 -0.0413
20114SOL    HW259559   2.189   0.619   4.088 -0.1262  0.7478  0.4539
20115SOL     OW59560   2.072   2.547   3.869  0.5391 -0.2935 -0.3821
20115SOL    HW159561   2.000   2.610   3.895 -0.1330 -0.9730 -0.5705
20115SOL    HW259562   2.051   2.507   3.780  1.2584 -0.3338 -0.5390
20117SOL     OW59563   1.925   2.676   0.252 -0.5870  0.1106 -0.3345
20117SOL    HW159564   1.834   2.657   0.215 -0.4143  0.4675 -0.9427
20117SOL    HW259565   1.955   2.767   0.224 -1.4935  1.4325  2.7771
20121SOL     OW59566   8.029   0.223   3.728 -0.3691  0.7360 -0.0846
20121SOL    HW159567   8.079   0.138   3.742 -0.7982  0.1095 -2.0867
20121SOL    HW259568   8.073   0.277   3.656 -0.6944  1.7232  0.4378
20122SOL     OW59569   4.865   1.039   5.739 -0.2779 -0.2240  0.3579
20122SOL    HW159570   4.777   0.993   5.723 -1.2946  1.9172 -0.3384
20122SOL    HW259571   4.915   1.045   5.653 -0.8205  1.3355  0.1520
20124SOL     OW59572   1.748   4.745   1.667  0.5239  0.1436 -0.5735
20124SOL    HW159573   1.737   4.725   1.764  1.1480 -1.0662 -0.7478
20124SOL    HW259574   1.689   4.822   1.642  0.3931  0.4821  0.7666
20125SOL     OW59575   0.494   8.690   4.749  0.5396 -0.2452 -0.2137
20125SOL    HW159576   0.435   8.755   4.797  0.4325 -0.8084  0.4217
20125SOL    HW259577   0.560   8.740   4.693  1.3187  0.4524  1.2961
20130SOL     OW59578   1.384   3.734   4.257  0.0260  0.1476 -0.4223
20130SOL    HW159579   1.317   3.724   4.331 -0.2592 -1.7227 -0.9156
20130SOL    HW259580   1.337   3.745   4.170  0.3745  0.6639 -0.5520
20131SOL     OW59581   2.896   0.542   0.311 -0.0948  0.4193 -0.0253
20131SOL    HW159582   2.845   0.485   0.247  0.3359 -2.2114  1.8818
20131SOL    HW259583   2.992   0.543   0.285  0.3180 -1.7617  1.2740
20134SOL     OW59584   0.100   0.279   5.372 -0.1340 -0.3531  0.1621
20134SOL    HW159585   0.181   0.224   5.354 -1.4835 -2.0761 -0.8257
20134SOL    HW259586   0.127   0.368   5.409  2.0779 -1.8643  2.3791
20135SOL     OW59587   7.404   2.783   1.319 -0.1781  0.8021 -0.1437
20135SOL    HW159588   7.488   2.836   1.323 -0.0069  0.4891  0.4516
20135SOL    HW259589   7.375   2.758   1.412 -0.0225 -0.4940 -0.4250
20136SOL     OW59590   4.420   2.408   5.564 -0.0260 -0.0760 -0.0852
20136SOL    HW159591   4.390   2.334   5.505 -0.2665  0.0396 -0.1061
20136SOL    HW259592   4.484   2.467   5.514 -1.6338  1.0719 -0.8263
20138SOL     OW59593   2.466   2.905   2.864  0.8296  0.3181  0.2923
20138SOL    HW159594   2.467   2.806   2.847 -2.3873  0.1954  0.4656
20138SOL    HW259595   2.530   2.926   2.938  1.1049 -1.7104  0.6735
20139SOL     OW59596   1.268   8.682   4.893 -0.0171  0.1212 -0.2283
20139SOL    HW159597   1.210   8.726   4.825  0.2754  1.1274  0.1744
20139SOL    HW259598   1.225   8.689   4.983  0.0245 -0.4278 -0.1618
20140SOL     OW59599   6.281   4.359   1.530 -0.0941 -0.0354  0.0225
20140SOL    HW159600   6.204   4.406   1.573 -0.2135  0.0466 -0.2813
20140SOL    HW259601   6.315   4.288   1.592  0.3269  0.6981  0.6373
20141SOL     OW59602   8.825   4.638   3.432  0.0038  0.3432 -0.4863
20141SOL    HW159603   8.884   4.692   3.492  1.0742 -0.2125 -1.0157
20141SOL    HW259604   8.734   4.679   3.428 -0.7966 -0.8830  3.3363
20143SOL     OW59605   6.327   0.286   3.378  0.0844  0.0229  0.1611
20143SOL    HW159606   6.299   0.356   3.443  1.5434  1.8814 -1.1934
20143SOL    HW259607   6.252   0.221   3.366 -1.6946  1.9375  0.6102
20145SOL     OW59608   2.042   8.679   0.813 -0.1521 -0.0421 -0.0593
20145SOL    HW159609   2.064   8.777   0.809 -1.0631  0.2956  2.3911
20145SOL    HW259610   1.975   8.663   0.885 -1.4377 -2.2347 -1.6664
20146SOL     OW59611   8.560   0.374   0.483 -0.6903  0.2335  0.2316
20146SOL    HW159612   8.518   0.363   0.392  1.2457  0.4657 -0.7206
20146SOL    HW259613   8.514   0.449   0.531 -0.8414  1.0287 -1.0970
20147SOL     OW59614   2.792   1.870   2.457 -0.7274  0.3242  0.7800
20147SOL    HW159615   2.859   1.846   2.387 -0.8726 -0.1065  0.7864
20147SOL    HW259616   2.816   1.958   2.498 -0.6726  0.6066  0.1500
20148SOL     OW59617   0.677   2.678   2.791 -0.2621  1.0390 -0.5965
20148SOL    HW159618   0.670   2.595   2.735 -0.1604 -0.6772  1.8718
20148SOL    HW259619   0.585   2.711   2.812 -0.3817 -0.1995  0.9116
20149SOL     OW59620   3.458   9.686   4.483  0.1756  0.0245  0.8028
20149SOL    HW159621   3.436   9.593   4.514  0.9086 -0.2676  0.4569
20149SOL    HW259622   3.447   9.750   4.559  0.0828 -0.4089  1.1543
20150SOL     OW59623   2.476   3.004   3.599 -0.2018 -0.5801 -0.8699
20150SOL    HW159624   2.516   2.914   3.616  0.2382 -0.0919  0.6815
20150SOL    HW259625   2.532   3.054   3.532 -0.8060 -1.6852 -2.2406
20151SOL     OW59626   6.498   8.914   5.397 -0.5109 -0.1364 -0.2707
20151SOL    HW159627   6.450   8.971   5.464  0.2468  1.2882 -0.9299
20151SOL    HW259628   6.581   8.961   5.367  0.3967 -1.8150 -0.4359
20152SOL     OW59629   5.019   6.710   1.172 -0.0909 -0.3689  0.2036
20152SOL    HW159630   4.985   6.804   1.178  0.2455 -0.2534  0.3390
20152SOL    HW259631   5.050   6.691   1.079  2.5492  0.6160  0.8279
20153SOL     OW59632   2.690   1.101   2.524  0.4619  0.6978 -0.5049
20153SOL    HW159633   2.602   1.113   2.571  0.1847 -1.1987 -0.4936
20153SOL    HW259634   2.736   1.020   2.561  0.5557 -0.4240 -3.0032
20154SOL     OW59635   9.068   6.911   0.754  0.3449 -0.6077  0.0520
20154SOL    HW159636   9.013   6.858   0.690  0.0496 -0.3618  0.1020
20154SOL    HW259637   9.160   6.873   0.759  0.1456 -1.0927  0.0535
20156SOL     OW59638   0.559   2.274   0.537  0.0352 -0.2372  0.5517
20156SOL    HW159639   0.498   2.335   0.485  2.3644  2.1233  0.4710
20156SOL    HW259640   0.541   2.285   0.635 -0.6829 -0.6812  0.4743
20159SOL     OW59641   3.031   3.037   3.909  0.3989 -0.1203  0.0077
20159SOL    HW159642   3.030   2.939   3.930  2.7140 -0.4792 -1.4651
20159SOL    HW259643   2.978   3.055   3.826  2.0305 -0.4790 -1.1243
20161SOL     OW59644   1.645   2.865   6.281 -0.1214 -0.1466  0.5006
20161SOL    HW159645   1.642   2.799   6.206 -1.0098  0.9391 -0.4334
20161SOL    HW259646   1.696   2.946   6.252  0.7263 -0.2856  1.5493
20162SOL     OW59647   5.357   6.170   1.836 -0.8467  0.2368 -0.0686
20162SOL    HW159648   5.381   6.267   1.838  0.2443 -0.0033 -1.2221
20162SOL    HW259649   5.435   6.115   1.864 -1.3300 -0.3414  0.1745
20163SOL     OW59650   8.499   2.250   5.122  0.3517 -0.5082 -0.0140
20163SOL    HW159651   8.420   2.232   5.180  1.2010  1.0675  1.6969
20163SOL    HW259652   8.479   2.326   5.060  0.4854 -0.1761  0.3484
20164SOL     OW59653   7.068   9.540   2.151  0.0008  0.4442 -0.2592
20164SOL    HW159654   7.116   9.610   2.205  0.8910 -0.2673 -0.1028
20164SOL    HW259655   7.121   9.520   2.068 -0.0718 -0.2703 -0.1389
20166SOL     OW59656   5.846   0.457   4.676 -0.0737 -0.0594 -0.1654
20166SOL    HW159657   5.911   0.399   4.724  0.4686  1.4834  0.9971
20166SOL    HW259658   5.753   0.425   4.695  0.2307 -0.7196  0.2330
20167SOL     OW59659   9.263   4.423   1.339  0.7950 -0.3528  0.4478
20167SOL    HW159660   9.214   4.361   1.278  2.3717  0.0198 -1.2636
20167SOL    HW259661   9.269   4.383   1.430 -2.0023 -0.7226  0.5136
20169SOL     OW59662   6.616   1.250   5.121  0.0183  0.0772  0.3813
20169SOL    HW159663   6.605   1.307   5.040  3.8210 -0.1126 -0.3734
20169SOL    HW259664   6.602   1.154   5.096  1.6222 -0.0219 -0.1827
20170SOL     OW59665   1.294   9.543   2.233  0.2750 -0.3538  0.5843
20170SOL    HW159666   1.305   9.636   2.267 -1.8200 -0.9512  3.0232
20170SOL    HW259667   1.377   9.515   2.184  0.7264  2.9514 -0.6524
20172SOL     OW59668   3.173   5.644   4.628 -0.3089 -0.6724 -0.0582
20172SOL    HW159669   3.160   5.688   4.716  0.3599 -0.8800  0.1506
20172SOL    HW259670   3.218   5.708   4.565  0.5816 -1.0149  0.2183
20173SOL     OW59671   9.808   7.120   0.392  0.1767 -0.0012  0.3773
20173SOL    HW159672   9.723   7.173   0.396 -0.4061 -0.6170 -2.5856
20173SOL    HW259673   9.882   7.174   0.433 -0.9840  1.9133  0.0479
20175SOL     OW59674   6.431   9.947   4.556  0.0093  0.1535 -0.0840
20175SOL    HW159675   6.518   9.914   4.593 -0.0942  1.1615  1.0604
20175SOL    HW259676   6.379   9.869   4.520 -0.4262 -1.0508  2.9605
20176SOL     OW59677   5.444   1.092   4.141  0.4907  0.4120 -0.4729
20176SOL    HW159678   5.492   1.029   4.202 -0.2622 -0.3578 -0.6668
20176SOL    HW259679   5.483   1.087   4.049 -0.5603 -0.9091 -0.8587
20177SOL     OW59680   1.432   5.798   2.685  0.1417 -0.8317 -0.5735
20177SOL    HW159681   1.354   5.828   2.632 -0.3503  0.7736  1.0224
20177SOL    HW259682   1.509   5.860   2.670  0.2552 -0.8460 -0.0671
20178SOL     OW59683   2.042   7.256   5.508 -0.6738  0.1465 -0.4207
20178SOL    HW159684   1.999   7.251   5.598 -0.5895  0.6536 -0.3535
20178SOL    HW259685   1.981   7.303   5.445 -1.3112 -1.3677 -0.9704
20179SOL     OW59686   2.075   9.829   5.196 -0.5926  0.8345  0.7504
20179SOL    HW159687   2.077   9.748   5.138 -0.4175 -0.2551  2.2661
20179SOL    HW259688   2.071   9.911   5.138 -1.5264 -0.2650 -0.7795
20180SOL     OW59689   6.167   9.593   6.336 -0.0946 -0.3716  0.2695
20180SOL    HW159690   6.110   9.675   6.327  0.4620 -0.1978 -1.8651
20180SOL    HW259691   6.263   9.617   6.319  0.3016 -1.1524  1.3287
20182SOL     OW59692   5.161   7.945   4.592 -0.5243  0.0118  0.1485
20182SOL    HW159693   5.245   7.994   4.616 -0.9345  0.8910 -0.1739
20182SOL    HW259694   5.182   7.850   4.572  0.3060  0.0743  0.6866
20184SOL     OW59695   5.775   0.652   2.695 -0.7641  0.5265 -0.4115
20184SOL    HW159696   5.784   0.678   2.791 -2.6032  0.1208 -0.0965
20184SOL    HW259697   5.678   0.648   2.671 -0.4454 -2.5951 -1.3819
20185SOL     OW59698   7.571   9.601   4.594  0.0898 -1.0277 -0.7862
20185SOL    HW159699   7.612   9.574   4.507  1.1891 -1.2253 -0.2232
20185SOL    HW259700   7.509   9.530   4.627 -1.7150 -0.1785 -2.2698
20186SOL     OW59701   8.710   1.825   2.431 -0.1863  0.6099 -0.8432
20186SOL    HW159702   8.648   1.779   2.367  0.2187 -0.0871 -0.7354
20186SOL    HW259703   8.674   1.917   2.451 -0.9059  0.4118 -1.1907
20187SOL     OW59704   2.432   6.010   1.976 -0.1531  0.1899 -0.0743
20187SOL    HW159705   2.504   5.952   1.937  0.9553  1.5957 -0.1584
20187SOL    HW259706   2.379   6.051   1.902  0.0308  0.4882 -0.0388
20188SOL     OW59707   7.854   3.245   4.554  0.3690  0.4454 -0.4630
20188SOL    HW159708   7.918   3.172   4.573 -0.1985  0.0825  0.1051
20188SOL    HW259709   7.770   3.207   4.516 -0.7242  0.5388  1.7298
20189SOL     OW59710   6.090   1.402   4.867 -0.1999  0.3989 -0.3455
20189SOL    HW159711   6.040   1.368   4.947  1.7849 -0.0905  0.7326
20189SOL    HW259712   6.026   1.427   4.795 -1.9819 -0.0327  1.0648
20190SOL     OW59713   2.580   1.705   2.210  0.0043  0.0966 -0.2746
20190SOL    HW159714   2.567   1.647   2.289 -0.9830 -0.0166 -0.5168
20190SOL    HW259715   2.568   1.652   2.126 -1.6933  0.8033 -0.5006
20193SOL     OW59716   1.973   9.351   5.899 -0.7128 -0.1827 -0.0779
20193SOL    HW159717   2.040   9.425   5.899 -0.1042 -0.7433  0.5629
20193SOL    HW259718   1.890   9.381   5.946  0.7640 -1.0297  3.1551
20194SOL     OW59719   7.661   4.799   2.291  0.3319  0.1408 -0.2611
20194SOL    HW159720   7.731   4.844   2.346  2.0366 -0.4400 -1.8785
20194SOL    HW259721   7.578   4.786   2.345  1.2403  1.4637  1.4807
20196SOL     OW59722   8.545   0.153   2.485 -1.0264  0.6610  0.7603
20196SOL    HW159723   8.528   0.115   2.394 -0.6807  1.7468  0.2318
20196SOL    HW259724   8.458   0.166   2.533 -1.3546  1.8764 -0.1511
20197SOL     OW59725   3.748   0.198   4.240  0.1030  0.2417 -0.6497
20197SOL    HW159726   3.718   0.241   4.155  0.9758 -2.0583 -2.1664
20197SOL    HW259727   3.677   0.135   4.273  0.5679 -0.3175 -0.7160
20199SOL     OW59728   3.192   2.111   0.130 -0.3284  0.1172  0.4331
20199SOL    HW159729   3.183   2.209   0.111 -0.2983  0.2530  1.0751
20199SOL    HW259730   3.238   2.099   0.218 -0.6405 -0.4708  0.5202
20200SOL     OW59731   7.205   7.377   3.474 -0.2485  0.5336 -0.4626
20200SOL    HW159732   7.206   7.277   3.474 -1.1610  0.5227  0.0821
20200SOL    HW259733   7.167   7.410   3.560 -0.7307  1.3442 -0.9812
20201SOL     OW59734   8.107   6.111   5.319 -0.2222 -0.3479 -0.0667
20201SOL    HW159735   8.149   6.038   5.265  1.1835 -0.5636  1.2910
20201SOL    HW259736   8.136   6.200   5.283 -0.2817 -0.4772 -0.4374
20202SOL     OW59737   4.488   7.882   3.487  0.3987  0.0696  0.1384
20202SOL    HW159738   4.447   7.965   3.451  2.2006  1.2863  0.8227
20202SOL    HW259739   4.509   7.819   3.412 -0.3350  0.5149 -0.4440
20203SOL     OW59740   1.914   9.773   3.991 -0.1524 -0.3134  0.0406
20203SOL    HW159741   1.932   9.719   3.909 -1.0120 -0.1697 -0.2569
20203SOL    HW259742   2.000   9.795   4.037  0.3616 -0.1379 -0.9877
20205SOL     OW59743   6.006   0.984   4.717 -0.1343 -0.5465  0.3986
20205SOL    HW159744   6.019   0.886   4.733  0.8614 -0.5170 -0.1918
20205SOL    HW259745   5.969   1.027   4.800  1.6325 -1.0240  1.4642
20206SOL     OW59746   7.777   7.204   2.004  0.4578  0.1476  0.5431
20206SOL    HW159747   7.801   7.118   1.958  0.5455  0.5534 -0.1648
20206SOL    HW259748   7.689   7.236   1.971  0.3342  0.2343  0.9532
20207SOL     OW59749   0.702   0.950   6.444 -0.1745 -0.2846 -0.2429
20207SOL    HW159750   0.670   1.039   6.412  1.4646 -0.3486 -2.1923
20207SOL    HW259751   0.623   0.890   6.459 -1.2144  1.0373 -0.2838
20208SOL     OW59752   6.012   9.177   4.923  0.0697 -0.1723 -0.2711
20208SOL    HW159753   6.027   9.079   4.936 -2.6914 -0.6574 -0.4729
20208SOL    HW259754   6.074   9.228   4.982  0.0599 -2.0670  1.4531
20209SOL     OW59755   4.787   0.830   1.586 -0.2027  0.3245 -0.2070
20209SOL    HW159756   4.705   0.789   1.626  0.6812 -1.2656  0.0305
20209SOL    HW259757   4.868   0.790   1.629  0.7295  0.5165 -1.7667
20210SOL     OW59758   7.053   1.166   0.311 -0.6423  0.7628  0.3857
20210SOL    HW159759   6.979   1.136   0.251  0.4692 -0.1518 -0.5524
20210SOL    HW259760   7.100   1.244   0.270  0.1117  0.1441  0.0536
20212SOL     OW59761   2.619   0.876   4.643  0.3086  0.2729 -0.0014
20212SOL    HW159762   2.553   0.909   4.576  0.8330  2.1293  0.3659
20212SOL    HW259763   2.711   0.875   4.602  0.3501 -0.3988  0.1022
20213SOL     OW59764   9.061   6.308   1.244 -0.5944 -0.1333 -0.6856
20213SOL    HW159765   9.126   6.380   1.265  0.4928 -0.8690 -1.4577
20213SOL    HW259766   9.108   6.234   1.196 -2.5589  0.5629 -3.7829
20214SOL     OW59767   0.754   6.038   0.206  0.4029  0.3871 -0.2672
20214SOL    HW159768   0.683   6.082   0.151  0.3255 -0.2859 -0.7159
20214SOL    HW259769   0.832   6.100   0.216  0.5558  0.3861 -1.4209
20215SOL     OW59770   9.967   3.882   4.740  0.1040 -0.3371 -0.0001
20215SOL    HW159771   9.979   3.813   4.669  1.5206  0.4830 -0.5851
20215SOL    HW259772  10.001   3.971   4.707  1.3614 -0.0672  1.8785
20216SOL     OW59773   4.197   5.820   1.489  0.0115  0.2327  0.5076
20216SOL    HW159774   4.268   5.866   1.434  0.9188 -0.3658  1.1720
20216SOL    HW259775   4.200   5.856   1.582 -0.9693  0.6409  0.3820
20217SOL     OW59776   0.257   3.398   2.092  0.1125  0.3575  0.1777
20217SOL    HW159777   0.343   3.428   2.133  0.5815 -0.0746 -0.4671
20217SOL    HW259778   0.208   3.340   2.156  2.1205 -2.5827 -0.8111
20218SOL     OW59779   7.664   8.801   5.471  0.4851 -0.7108 -0.1473
20218SOL    HW159780   7.672   8.737   5.395  2.1925  0.0540 -0.6331
20218SOL    HW259781   7.717   8.768   5.549  0.9699 -0.1507 -0.2343
20219SOL     OW59782   2.199   7.598   3.441 -0.5834 -0.3617 -0.3109
20219SOL    HW159783   2.198   7.669   3.511 -1.0849 -1.0488  0.3864
20219SOL    HW259784   2.121   7.536   3.455 -1.0566 -0.1378 -1.8509
20220SOL     OW59785   1.291   4.370   1.306 -0.5626 -0.4702  0.0980
20220SOL    HW159786   1.282   4.407   1.398  0.1478 -0.6414  0.2432
20220SOL    HW259787   1.212   4.396   1.251 -0.5047  0.4907  0.4594
20221SOL     OW59788   7.942   1.666   1.355 -0.3037  0.3555 -0.0273
20221SOL    HW159789   7.968   1.692   1.448  0.1354 -0.0772 -0.0279
20221SOL    HW259790   7.847   1.695   1.338 -0.3968  0.4081  0.5615
20222SOL     OW59791   1.515   6.192   3.763  0.0895 -0.2374 -0.5451
20222SOL    HW159792   1.475   6.195   3.671 -1.0105 -1.6984 -0.1346
20222SOL    HW259793   1.526   6.285   3.798 -1.3599  0.2541 -1.3688
20223SOL     OW59794   2.277   7.481   3.983 -0.0489  0.2582 -0.3603
20223SOL    HW159795   2.352   7.419   3.962  0.0186  0.5736 -1.0539
20223SOL    HW259796   2.220   7.441   4.055 -0.0458 -0.6332 -0.8474
20225SOL     OW59797   6.946   2.990   4.634 -0.3902 -0.1911  0.1616
20225SOL    HW159798   6.968   3.088   4.639  2.7369 -0.9000  1.4842
20225SOL    HW259799   6.931   2.964   4.538 -0.2675  1.3767 -0.2958
20227SOL     OW59800   0.612   5.810   4.995 -0.1492 -0.1035  0.2897
20227SOL    HW159801   0.637   5.820   4.898 -1.2960  0.5203  0.0531
20227SOL    HW259802   0.615   5.714   5.020 -0.3275 -0.3174 -0.4978
20228SOL     OW59803   3.474   1.498   0.419 -0.2641 -0.3637 -0.0261
20228SOL    HW159804   3.527   1.446   0.352  0.4851 -1.3961  1.3439
20228SOL    HW259805   3.438   1.581   0.376  0.1687 -1.0278 -1.7096
20229SOL     OW59806   3.420   7.730   3.797  0.5717 -0.1698 -0.6578
20229SOL    HW159807   3.452   7.736   3.892  0.6833  1.6300 -0.7802
20229SOL    HW259808   3.320   7.720   3.796  0.7093 -1.7100 -0.3425
20230SOL     OW59809   6.126   9.721   2.899  0.4916 -0.4158 -0.4724
20230SOL    HW159810   6.089   9.709   2.806  0.5554 -0.6157 -0.4721
20230SOL    HW259811   6.172   9.809   2.904  0.3488 -0.3347 -0.5847
20231SOL     OW59812   4.654   7.826   4.505  0.2354  0.7599  0.2698
20231SOL    HW159813   4.593   7.766   4.453 -1.3316  2.2945  0.2775
20231SOL    HW259814   4.670   7.787   4.596 -2.0517  1.0780  0.8519
20232SOL     OW59815   7.894   4.580   2.444 -0.5544 -0.0552  0.0110
20232SOL    HW159816   7.959   4.528   2.499 -1.8226 -1.4536  0.1880
20232SOL    HW259817   7.914   4.678   2.454  1.1067 -0.4334  0.5707
20233SOL     OW59818   1.367   4.366   2.521  0.1535  0.4776  0.1094
20233SOL    HW159819   1.432   4.340   2.593  1.1142  0.9461 -0.5676
20233SOL    HW259820   1.298   4.427   2.559  1.2454  1.5333  0.4303
20234SOL     OW59821   4.170   3.471   5.623 -0.2987 -0.1569 -0.0476
20234SOL    HW159822   4.174   3.371   5.613 -0.6205 -0.0867 -0.9254
20234SOL    HW259823   4.159   3.513   5.533  1.2447  0.7604  0.1768
20236SOL     OW59824   2.959   3.615   4.376 -0.4367 -0.2128  0.2761
20236SOL    HW159825   2.991   3.568   4.294 -1.5909 -0.8422  0.1855
20236SOL    HW259826   2.927   3.706   4.352 -0.8259 -0.4181  0.0254
20238SOL     OW59827   1.444   1.481   0.750 -0.7263 -0.0287 -0.0327
20238SOL    HW159828   1.532   1.440   0.726 -0.4787 -0.2350  1.1699
20238SOL    HW259829   1.399   1.517   0.668 -0.4048 -1.6611 -0.9356
20239SOL     OW59830   4.330   0.143   5.173 -0.2763  0.2336  0.3250
20239SOL    HW159831   4.351   0.200   5.094 -0.3368  1.4823  1.2038
20239SOL    HW259832   4.237   0.162   5.205 -0.3581 -0.4747  0.5128
20240SOL     OW59833   8.935   3.473   2.364  0.3811 -0.2092  0.7568
20240SOL    HW159834   8.883   3.558   2.369  0.4390 -0.1599  0.5176
20240SOL    HW259835   8.954   3.451   2.268 -1.4445 -1.5947  0.6830
20241SOL     OW59836   5.059   6.246   2.317 -0.0195  0.7955  0.0760
20241SOL    HW159837   5.131   6.248   2.387 -0.7208 -0.7849  0.8785
20241SOL    HW259838   5.098   6.269   2.228  1.2022  1.3255  0.7370
20242SOL     OW59839   2.634   2.094   0.888 -0.4306 -0.4655  0.4997
20242SOL    HW159840   2.571   2.028   0.928  1.3796 -1.5264  1.6963
20242SOL    HW259841   2.728   2.070   0.914  0.5441  0.6220 -1.8446
20243SOL     OW59842   3.710   4.199   4.502 -0.0943  0.1131  0.0667
20243SOL    HW159843   3.768   4.129   4.463 -0.4384 -1.5939  2.4922
20243SOL    HW259844   3.765   4.280   4.524  0.7220 -0.2400 -0.6605
20244SOL     OW59845   2.815   2.151   2.907  0.0171  0.1860  0.1079
20244SOL    HW159846   2.766   2.071   2.943 -0.7661  0.0242 -1.2978
20244SOL    HW259847   2.911   2.127   2.893  0.1711  0.0176  1.3283
20245SOL     OW59848   2.908   5.880   4.540  0.2033  0.0545  0.2099
20245SOL    HW159849   2.853   5.963   4.540  1.1325  0.6912 -0.6765
20245SOL    HW259850   2.854   5.804   4.503  0.8163  1.3390 -3.5793
20246SOL     OW59851   5.021   0.079   1.560  0.4841  0.2025  0.1130
20246SOL    HW159852   5.104   0.095   1.506 -0.7469  0.2767 -1.8099
20246SOL    HW259853   4.964   0.162   1.558 -0.1755 -0.2379  0.4473
20247SOL     OW59854   0.402   7.268   0.321 -0.1707  0.3215 -0.5478
20247SOL    HW159855   0.359   7.193   0.271  0.3295  0.2909 -0.9408
20247SOL    HW259856   0.360   7.278   0.411 -0.5919 -0.0898 -0.7033
20249SOL     OW59857   9.519   6.535   4.471  0.2830 -0.3897  0.0124
20249SOL    HW159858   9.613   6.547   4.502  0.0058 -1.6401  1.4007
20249SOL    HW259859   9.477   6.624   4.457  2.0585  0.1853 -1.8761
20251SOL     OW59860   1.614   5.696   1.380 -0.0808  0.5879  0.2015
20251SOL    HW159861   1.535   5.685   1.320  0.2445 -0.3539 -0.0545
20251SOL    HW259862   1.583   5.708   1.474 -0.6484  3.4400 -0.3021
20253SOL     OW59863   9.716   8.329   5.209  0.4643 -0.0396  0.4729
20253SOL    HW159864   9.622   8.315   5.179  1.4551  1.1874 -3.4602
20253SOL    HW259865   9.717   8.392   5.287 -1.9126  0.4838  0.1086
20254SOL     OW59866   2.935   2.895   0.874  0.1737 -0.3437  0.9069
20254SOL    HW159867   2.888   2.855   0.952  0.3619 -1.9879  0.2023
20254SOL    HW259868   3.005   2.831   0.842  0.6840  0.6945 -0.0534
20255SOL     OW59869   2.916   0.813   5.247 -0.0657  0.0025 -0.5258
20255SOL    HW159870   2.888   0.909   5.254  0.9420  0.2213  0.7261
20255SOL    HW259871   2.869   0.759   5.317  1.4299  0.0953  0.5759
20257SOL     OW59872   4.932   0.153   3.766 -0.2686  0.3106 -0.5459
20257SOL    HW159873   4.974   0.068   3.734 -1.4565 -0.3994 -0.2482
20257SOL    HW259874   4.919   0.148   3.865 -0.1682  0.9201 -0.4986
20258SOL     OW59875   6.707   1.233   1.270 -0.2611  0.2471 -0.7449
20258SOL    HW159876   6.621   1.275   1.296 -1.7537 -1.7772 -2.2362
20258SOL    HW259877   6.758   1.294   1.210 -1.3207  0.8973 -0.9928
20259SOL     OW59878   6.785   9.571   3.246  0.5608  0.3241  0.0093
20259SOL    HW159879   6.835   9.491   3.211  1.2822  0.1998  1.2887
20259SOL    HW259880   6.830   9.655   3.216  1.5636  0.2138  1.1451
20260SOL     OW59881   4.228   9.420   4.934 -0.3987  0.2460  0.7016
20260SOL    HW159882   4.309   9.375   4.896 -0.4278  1.3018 -0.6369
20260SOL    HW259883   4.209   9.383   5.025  0.9978 -0.7184  0.6125
20261SOL     OW59884   5.976   7.792   2.912 -0.3543 -0.1561 -0.4512
20261SOL    HW159885   5.893   7.740   2.892 -0.0917 -0.5768 -0.4399
20261SOL    HW259886   5.951   7.878   2.956 -0.8759  0.3241 -1.6608
20262SOL     OW59887   2.304   1.820   1.174 -0.1481 -0.3919  0.0420
20262SOL    HW159888   2.227   1.876   1.145  0.4526 -0.0310 -0.8657
20262SOL    HW259889   2.369   1.875   1.227 -0.7929 -0.8325  1.3010
20263SOL     OW59890   2.311   7.041   1.683  0.3895  0.1942  0.1156
20263SOL    HW159891   2.382   6.992   1.734 -1.0204 -2.6555 -0.5377
20263SOL    HW259892   2.311   7.009   1.588 -1.0743  0.9084 -0.1364
20265SOL     OW59893   8.143   4.333   2.890  0.5535 -0.3514  0.0220
20265SOL    HW159894   8.082   4.257   2.912  0.9339 -0.2738  1.3617
20265SOL    HW259895   8.156   4.390   2.971  3.0449 -0.8112 -0.0167
20266SOL     OW59896   8.512   9.197   2.476  0.1953 -0.0214 -0.0044
20266SOL    HW159897   8.438   9.131   2.465  0.8119 -0.6059 -0.6914
20266SOL    HW259898   8.474   9.290   2.477 -0.5943 -0.3400  0.1850
20267SOL     OW59899   8.966   2.927   2.328 -0.5849 -0.3884 -0.1005
20267SOL    HW159900   8.966   2.844   2.272  0.3867 -0.5557  0.1346
20267SOL    HW259901   8.916   2.999   2.280 -2.0807 -1.3308  0.0300
20268SOL     OW59902   8.342   5.575   0.753 -0.4024  0.4683 -0.2376
20268SOL    HW159903   8.344   5.570   0.653 -0.7867  0.4446 -0.2452
20268SOL    HW259904   8.257   5.535   0.787 -0.3280  0.5868  0.0928
20269SOL     OW59905   4.603   6.750   1.454 -0.4423 -0.4682  0.6214
20269SOL    HW159906   4.655   6.669   1.425 -0.9970 -0.9753  1.0483
20269SOL    HW259907   4.634   6.778   1.545  2.6765  2.2792 -1.1552
20274SOL     OW59908   0.942   2.601   1.782  0.0347 -0.2119 -0.0966
20274SOL    HW159909   1.030   2.610   1.828 -0.4676  0.4576  0.7635
20274SOL    HW259910   0.894   2.689   1.786 -0.0105 -0.1455 -1.9303
20275SOL     OW59911   5.019   4.046   2.302  0.2370  0.9896 -0.3378
20275SOL    HW159912   5.026   3.970   2.237 -0.0962  1.5257 -1.0115
20275SOL    HW259913   5.099   4.106   2.290  1.1389  0.1040  1.0397
20277SOL     OW59914   0.325   9.015   5.268 -0.1047  0.1095 -0.0090
20277SOL    HW159915   0.416   8.987   5.238  0.3955  2.3187 -0.6404
20277SOL    HW259916   0.327   9.037   5.366  0.0484  0.2533 -0.0454
20278SOL     OW59917   9.360   7.314   2.615 -0.3171  0.2822  0.6430
20278SOL    HW159918   9.269   7.355   2.616 -0.1123  0.8236 -1.2961
20278SOL    HW259919   9.353   7.217   2.596 -0.5657  0.0679  1.7909
20279SOL     OW59920   3.514   7.504   2.549  0.0396  0.0610 -0.1735
20279SOL    HW159921   3.423   7.530   2.519 -0.9759 -0.6635  2.1613
20279SOL    HW259922   3.547   7.427   2.494 -1.7014 -1.1411  0.4251
20280SOL     OW59923   2.181   0.097   5.581  0.7669  0.1917  0.2811
20280SOL    HW159924   2.182   0.005   5.620 -3.0446 -1.2211 -2.6286
20280SOL    HW259925   2.233   0.098   5.495  0.3797  0.6306  0.0508
20281SOL     OW59926   5.000   7.719   3.240 -0.3986 -0.2107  0.2412
20281SOL    HW159927   4.957   7.786   3.301 -0.2688 -0.8904  1.0927
20281SOL    HW259928   4.970   7.735   3.146 -0.1062  1.2562  0.3854
20282SOL     OW59929   3.812   2.872   2.691 -0.5464  0.8293  0.5296
20282SOL    HW159930   3.749   2.898   2.618 -1.7187 -0.4432  1.0795
20282SOL    HW259931   3.771   2.800   2.747  1.4640 -0.1539  0.7832
20283SOL     OW59932   7.104   2.495   3.815 -0.2781  0.2011 -0.1186
20283SOL    HW159933   7.121   2.591   3.837 -0.2528 -0.1041  1.2287
20283SOL    HW259934   7.006   2.475   3.825 -0.2325  0.0046 -0.0602
20284SOL     OW59935   1.709   9.332   5.429 -0.0271  0.0888 -0.0563
20284SOL    HW159936   1.639   9.338   5.358 -0.8556 -1.1262  0.6295
20284SOL    HW259937   1.685   9.394   5.504  0.4698  0.8428 -0.5200
20287SOL     OW59938   9.059   2.146   5.348  0.2900  0.3145  0.3078
20287SOL    HW159939   9.147   2.167   5.306  0.4597  0.5419  0.7740
20287SOL    HW259940   9.062   2.053   5.385  1.6790  1.6455  3.7402
20289SOL     OW59941   6.906   2.158   2.025 -0.1213  0.9914 -0.2391
20289SOL    HW159942   6.914   2.073   1.974  0.0897  1.3128 -0.7500
20289SOL    HW259943   6.810   2.189   2.024 -0.5509 -0.2041  1.5410
20291SOL     OW59944   2.681   8.312   4.101  0.1801  0.5001 -0.1695
20291SOL    HW159945   2.678   8.245   4.174  0.1068  1.5743  0.8245
20291SOL    HW259946   2.769   8.360   4.102 -0.3469  1.4838  0.1101
20292SOL     OW59947   2.051   6.134   0.821 -0.1533 -0.3197 -0.0177
20292SOL    HW159948   2.143   6.139   0.858 -0.7423  1.3967  1.2975
20292SOL    HW259949   1.987   6.179   0.884 -1.6464 -0.0491 -1.6761
20293SOL     OW59950   3.382   3.487   1.478 -0.4990 -0.0774 -0.0127
20293SOL    HW159951   3.464   3.518   1.429 -0.7154 -0.6483 -0.7446
20293SOL    HW259952   3.373   3.539   1.563 -0.7168  1.7168 -1.0883
20294SOL     OW59953   3.103   3.496   3.756  0.7684  0.2315 -0.1051
20294SOL    HW159954   3.032   3.453   3.811 -1.7148  0.6145 -2.8358
20294SOL    HW259955   3.164   3.426   3.719 -2.0042 -0.8406 -2.8431
20295SOL     OW59956   8.891   0.472   5.771 -0.5241  0.0690  0.4338
20295SOL    HW159957   8.893   0.457   5.672 -0.5011  1.4397  0.2138
20295SOL    HW259958   8.952   0.407   5.816 -1.0900 -1.0539 -0.3780
20296SOL     OW59959   7.659   4.386   3.529  0.1844 -0.6588  0.1056
20296SOL    HW159960   7.626   4.364   3.437  1.2709  0.5935 -0.5984
20296SOL    HW259961   7.655   4.485   3.543  2.1663 -0.6341  0.5720
20298SOL     OW59962   7.125   4.215   1.009  0.7567  0.0179 -0.1693
20298SOL    HW159963   7.066   4.155   0.954  0.9614 -0.5735  0.2491
20298SOL    HW259964   7.171   4.280   0.948  0.3851 -0.1220 -0.6069
20301SOL     OW59965   9.597   5.669   5.531  0.2752  0.2622 -0.9767
20301SOL    HW159966   9.695   5.675   5.550 -0.1333 -1.3099  1.8591
20301SOL    HW259967   9.569   5.573   5.523 -1.6434  0.5123  1.9432
20302SOL     OW59968   2.767   0.291   2.185  1.1375 -0.0420 -0.0130
20302SOL    HW159969   2.773   0.195   2.212  1.3967 -0.2169 -0.6757
20302SOL    HW259970   2.678   0.328   2.213  0.3237 -0.9680 -1.3083
20303SOL     OW59971   9.864   8.975   3.951  0.4792  0.3663  0.5831
20303SOL    HW159972   9.897   8.892   3.906  1.2338  1.3756 -0.7707
20303SOL    HW259973   9.768   8.991   3.925  1.2573  1.5947 -1.7087
20304SOL     OW59974   9.293   9.327   0.731 -0.2059 -0.6103 -0.5826
20304SOL    HW159975   9.376   9.281   0.763 -0.4581 -0.3583  0.4164
20304SOL    HW259976   9.219   9.261   0.724 -0.7166 -0.2779  1.3775
20305SOL     OW59977   2.211   7.889   3.919  0.1409 -0.2984 -0.1508
20305SOL    HW159978   2.168   7.889   3.829 -0.4703  3.4055  0.0617
20305SOL    HW259979   2.300   7.935   3.914  0.3129 -0.4820  1.0507
20307SOL     OW59980   6.895   2.425   1.733  0.4665  0.4389 -0.3993
20307SOL    HW159981   6.913   2.403   1.638 -1.6817  1.5341 -1.0903
20307SOL    HW259982   6.901   2.524   1.746  0.4116  0.3285  0.5404
20309SOL     OW59983   9.715   4.020   2.997  0.4131  0.2785  0.4892
20309SOL    HW159984   9.752   3.934   2.962 -0.9200 -0.5771  1.1302
20309SOL    HW259985   9.708   4.014   3.097  1.3388  1.5527  0.6416
20310SOL     OW59986   2.850   5.934   4.993 -0.1486 -0.1993 -0.0217
20310SOL    HW159987   2.763   5.984   4.998 -0.1373 -0.3552  2.0962
20310SOL    HW259988   2.842   5.849   5.045  0.6602 -1.1759 -1.4719
20311SOL     OW59989   2.887   5.289   3.574  0.4995  0.2054 -0.3434
20311SOL    HW159990   2.840   5.289   3.486  0.4201 -1.3012 -0.3157
20311SOL    HW259991   2.974   5.241   3.565  0.8601  0.7543  0.2096
20312SOL     OW59992   0.378   8.725   1.003 -0.5997  0.2200 -0.2307
20312SOL    HW159993   0.370   8.761   0.910 -0.6681 -3.1156 -1.5765
20312SOL    HW259994   0.306   8.765   1.060  0.0561  3.0754 -1.2772
20313SOL     OW59995   0.886   8.462   0.614 -0.2431  0.3859 -0.4147
20313SOL    HW159996   0.951   8.492   0.545 -1.3787  1.4129 -1.0546
20313SOL    HW259997   0.908   8.369   0.643  0.9806  0.4119 -1.2422
20314SOL     OW59998   4.375   1.160   1.550 -0.0095 -0.6769  0.1288
20314SOL    HW159999   4.385   1.197   1.458  1.4481 -4.3309 -1.2855
20314SOL    HW260000   4.458   1.180   1.603 -0.1373 -0.0330  0.0831
20316SOL     OW60001   1.954   0.199   2.313 -0.1981  0.3186  0.4974
20316SOL    HW160002   1.943   0.237   2.405 -1.1883 -0.6040  0.7710
20316SOL    HW260003   1.866   0.165   2.280  0.1016  0.8983 -0.9102
20317SOL     OW60004   1.529   6.840   4.157  0.1226  0.1558 -0.4216
20317SOL    HW160005   1.476   6.756   4.154 -1.6945  1.2248  1.0903
20317SOL    HW260006   1.579   6.845   4.244  0.9764  0.1933 -0.9093
20318SOL     OW60007   9.740   7.388   2.840  0.5870 -0.0328 -0.3578
20318SOL    HW160008   9.711   7.347   2.927  1.5524  0.2069  0.0868
20318SOL    HW260009   9.831   7.428   2.851  0.0417  1.4289 -1.0395
20321SOL     OW60010   7.323   3.710   5.398  0.3979  0.0084  0.0390
20321SOL    HW160011   7.392   3.770   5.360  1.4205 -1.8932 -1.2203
20321SOL    HW260012   7.363   3.653   5.470  0.1765 -1.0815 -0.6778
20323SOL     OW60013   5.464   5.237   0.246 -0.0219 -0.5250  0.3372
20323SOL    HW160014   5.397   5.236   0.321 -0.7955 -2.3445 -0.3658
20323SOL    HW260015   5.422   5.277   0.165  0.7803  1.3312  0.8037
20324SOL     OW60016   0.818   2.086   3.645 -0.2453 -0.5224  0.5236
20324SOL    HW160017   0.839   2.013   3.580  1.4923  2.7679 -2.7796
20324SOL    HW260018   0.733   2.132   3.617  1.6966  2.3474 -0.8123
20325SOL     OW60019   0.846   2.644   3.613  0.7256  0.1696 -0.0038
20325SOL    HW160020   0.830   2.652   3.515  0.1619  0.3454  0.0992
20325SOL    HW260021   0.913   2.713   3.642  2.4666 -1.2213 -0.6134
20326SOL     OW60022   1.162   9.636   2.585  0.1476 -0.3797 -0.0757
20326SOL    HW160023   1.224   9.584   2.526  0.5288  0.2121 -0.1958
20326SOL    HW260024   1.185   9.619   2.681  0.9993  0.4464 -0.1296
20327SOL     OW60025   8.519   2.188   1.550 -0.2251  0.2972 -0.0238
20327SOL    HW160026   8.528   2.091   1.573 -1.2933  0.1668 -0.1299
20327SOL    HW260027   8.507   2.241   1.634 -0.4784  0.2372 -0.0208
20328SOL     OW60028   0.575   7.031   4.369  0.2449 -0.1877 -0.2116
20328SOL    HW160029   0.607   6.947   4.326 -0.7190 -1.2052  1.0452
20328SOL    HW260030   0.641   7.060   4.439 -0.6522 -1.2581  1.0780
20329SOL     OW60031   9.531   8.966   0.945  0.6910 -0.1601 -0.2706
20329SOL    HW160032   9.575   9.025   1.013  0.1198  0.9440 -0.8434
20329SOL    HW260033   9.435   8.955   0.967  0.6454 -0.3182 -0.5481
20330SOL     OW60034   9.781   2.710   1.180  0.7279  0.3825 -0.2800
20330SOL    HW160035   9.726   2.732   1.100 -0.4533 -0.3598  0.3184
20330SOL    HW260036   9.834   2.627   1.163 -0.6687 -0.6355  0.2298
20331SOL     OW60037   6.367   4.086   1.370  0.1607 -0.3744 -0.4572
20331SOL    HW160038   6.325   4.170   1.401 -2.2291 -1.9958  0.8032
20331SOL    HW260039   6.446   4.064   1.427  1.6980  1.7331 -1.7110
20333SOL     OW60040   2.958   1.499   6.179 -0.1625  0.0278  0.3100
20333SOL    HW160041   2.901   1.574   6.144  0.2194  0.5679  0.8263
20333SOL    HW260042   3.006   1.530   6.261 -1.8269 -1.5332  1.8969
20334SOL     OW60043   9.022   1.394   4.029 -0.0509 -0.3069  0.3047
20334SOL    HW160044   8.985   1.429   4.115 -1.2539 -0.5175 -0.1151
20334SOL    HW260045   9.119   1.416   4.023  0.2590 -1.0850  2.1293
20335SOL     OW60046   8.702   5.757   0.950  0.1898  0.4391  0.0249
20335SOL    HW160047   8.697   5.660   0.928 -1.7397  0.2208  1.3067
20335SOL    HW260048   8.663   5.810   0.875 -1.7556  0.0116  0.7185
20336SOL     OW60049   9.050   0.234   5.556 -0.1620 -0.3367  0.6705
20336SOL    HW160050   9.093   0.277   5.635  0.5176 -1.8626  1.1412
20336SOL    HW260051   9.079   0.138   5.549  0.6571  0.0444 -2.0417
20337SOL     OW60052   0.935   1.618   2.650  0.0012 -0.2828  0.1853
20337SOL    HW160053   0.865   1.555   2.617  0.5983 -0.0075 -1.6845
20337SOL    HW260054   1.012   1.566   2.688  0.8228 -0.7593 -2.0302
20340SOL     OW60055   9.766   7.436   5.944 -0.3534 -0.2259  0.2593
20340SOL    HW160056   9.707   7.365   5.906 -0.6794 -0.1422  0.6029
20340SOL    HW260057   9.860   7.403   5.946  0.0591  0.5760 -2.7034
20341SOL     OW60058   7.543   2.593   2.031 -0.1139  0.2241 -0.5525
20341SOL    HW160059   7.530   2.681   1.985 -0.7796 -0.1074 -1.0084
20341SOL    HW260060   7.477   2.527   1.995 -0.2036 -0.2142  0.4225
20343SOL     OW60061   9.191   9.274   4.867 -0.1843 -0.1140  0.0901
20343SOL    HW160062   9.118   9.244   4.806  1.1086 -1.6096 -0.7517
20343SOL    HW260063   9.222   9.196   4.923  1.0560  0.4012  0.1329
20344SOL     OW60064   1.899   3.681   3.759  0.9148  0.0126 -0.5084
20344SOL    HW160065   1.978   3.630   3.793  0.1491 -0.1941  1.0098
20344SOL    HW260066   1.896   3.771   3.803 -0.9464 -0.8351  1.2018
20345SOL     OW60067   8.365   2.484   5.368  0.4471  0.2326  0.1093
20345SOL    HW160068   8.371   2.583   5.385  1.6523  0.1458  0.1880
20345SOL    HW260069   8.444   2.438   5.408 -0.1096 -0.7689  0.0719
20346SOL     OW60070   8.038   7.755   6.420 -0.5993 -0.2952  0.4502
20346SOL    HW160071   8.054   7.773   6.323 -1.9941 -2.1074 -0.1449
20346SOL    HW260072   8.122   7.719   6.462 -0.2581 -0.3505 -0.2800
20348SOL     OW60073   7.546   9.325   3.577 -0.2618  0.4605  0.4180
20348SOL    HW160074   7.563   9.417   3.541 -0.6729  0.6393  0.6749
20348SOL    HW260075   7.448   9.308   3.577 -0.0582 -1.0537 -2.2877
20350SOL     OW60076   4.138   9.698   2.592  0.6767  0.2924  0.1016
20350SOL    HW160077   4.236   9.684   2.579  1.0238  2.6906 -0.1391
20350SOL    HW260078   4.087   9.627   2.542  2.2668 -0.6437 -0.2220
20351SOL     OW60079   5.121   4.279   1.278 -0.2403  0.2913 -0.2083
20351SOL    HW160080   5.107   4.371   1.313 -2.1215  0.0921 -0.4308
20351SOL    HW260081   5.084   4.212   1.343  1.9847 -0.3850  0.4317
20352SOL     OW60082   1.843   7.799   3.442 -0.2416 -0.0826 -0.6378
20352SOL    HW160083   1.798   7.719   3.484  2.8505 -1.6686 -0.2387
20352SOL    HW260084   1.905   7.769   3.371  1.1098  1.9653 -0.3566
20353SOL     OW60085   3.985   9.862   5.364 -0.2946 -0.2132 -0.4394
20353SOL    HW160086   4.083   9.859   5.342 -0.2544  0.3115 -0.3439
20353SOL    HW260087   3.947   9.770   5.360 -0.1395 -0.2234 -2.0312
20354SOL     OW60088   2.433   3.267   2.295  0.1362 -0.4882 -0.7079
20354SOL    HW160089   2.357   3.218   2.338  0.5903 -1.0780 -0.5727
20354SOL    HW260090   2.398   3.348   2.248 -0.4561 -0.2686  0.1166
20355SOL     OW60091   6.906   4.048   0.897 -0.0627 -0.2881 -0.5255
20355SOL    HW160092   6.882   4.136   0.857 -2.3609 -0.3135  0.7220
20355SOL    HW260093   6.913   3.979   0.825  0.6553  0.6700 -1.3810
20356SOL     OW60094   7.485   1.632   0.895  0.1364 -0.7575 -0.4015
20356SOL    HW160095   7.551   1.571   0.939 -1.3888 -2.3613 -0.2974
20356SOL    HW260096   7.439   1.687   0.964  0.3138 -0.7051 -0.3258
20357SOL     OW60097   8.503   0.338   4.036 -0.2948 -0.5901 -0.0626
20357SOL    HW160098   8.451   0.310   3.956 -1.3223 -0.3552  0.5090
20357SOL    HW260099   8.447   0.400   4.092  0.5938 -0.3484  0.5675
20359SOL     OW60100   9.771   1.354   4.661 -0.1661 -0.1325 -0.3700
20359SOL    HW160101   9.712   1.275   4.641 -2.3289  1.7794 -1.8547
20359SOL    HW260102   9.811   1.389   4.576  0.2174  0.7860  0.1762
20361SOL     OW60103   8.654   4.803   0.524 -0.4757 -0.2134  0.0086
20361SOL    HW160104   8.693   4.879   0.577  0.2599 -1.0141  0.6321
20361SOL    HW260105   8.673   4.817   0.427 -0.3851  0.4303  0.1161
20362SOL     OW60106   2.819   2.191   3.677 -0.6301  0.0306  0.5196
20362SOL    HW160107   2.903   2.187   3.623 -1.1938  1.5269 -0.4860
20362SOL    HW260108   2.750   2.133   3.634 -0.2293 -0.9206  1.1497
20364SOL     OW60109   2.376   5.670   4.700 -0.0110 -0.1589 -0.4666
20364SOL    HW160110   2.385   5.571   4.712  3.1431 -0.0966 -2.0053
20364SOL    HW260111   2.458   5.707   4.657 -1.9736  2.8528 -1.8375
20365SOL     OW60112   7.421   4.432   1.024  0.3614 -0.1190 -0.5137
20365SOL    HW160113   7.364   4.380   0.960  1.6331  0.2842 -2.0123
20365SOL    HW260114   7.489   4.484   0.972  0.2078  1.6944  1.0631
20366SOL     OW60115   7.763   2.542   4.178 -0.2491 -0.1312  0.3516
20366SOL    HW160116   7.764   2.503   4.270 -3.2806  0.9662  0.9017
20366SOL    HW260117   7.720   2.478   4.115 -2.8453  1.1510  0.7457
20368SOL     OW60118   9.049   3.793   3.260 -0.0463  0.2228  0.2742
20368SOL    HW160119   9.144   3.780   3.289  0.9553  0.7531 -2.6649
20368SOL    HW260120   9.025   3.725   3.191 -1.5966  0.5304  0.4900
20369SOL     OW60121   2.198   0.665   1.613  0.2211  0.2419 -0.1277
20369SOL    HW160122   2.261   0.615   1.554  0.1807  0.3048 -0.2248
20369SOL    HW260123   2.110   0.618   1.615 -0.3734  1.2528 -1.6255
20370SOL     OW60124   3.958   8.400   1.337 -0.0142  0.2010 -0.5121
20370SOL    HW160125   3.960   8.303   1.312  0.6682  0.1427 -0.2235
20370SOL    HW260126   3.963   8.456   1.254 -1.1932 -0.0081 -0.7362
20371SOL     OW60127   9.775   8.699   0.160  0.3492  0.8992 -0.5524
20371SOL    HW160128   9.734   8.609   0.142 -0.6858  1.3365 -0.4223
20371SOL    HW260129   9.857   8.710   0.104  0.5445 -0.1672 -0.4963
20372SOL     OW60130   2.968   8.224   4.403 -0.4415  0.7657 -0.5541
20372SOL    HW160131   2.877   8.198   4.373 -0.4295  0.6272 -0.4730
20372SOL    HW260132   2.974   8.217   4.503 -0.6540  1.7761 -0.4665
20373SOL     OW60133   4.547   2.699   0.177  0.2604  0.0661 -0.2267
20373SOL    HW160134   4.572   2.676   0.271  1.0113 -1.2619 -0.7399
20373SOL    HW260135   4.472   2.766   0.178 -1.2120 -1.5371  1.3238
20374SOL     OW60136   0.343   1.217   2.133 -0.5329 -0.3642  0.4302
20374SOL    HW160137   0.344   1.196   2.231  0.9014  0.3983  0.5798
20374SOL    HW260138   0.273   1.286   2.114 -1.4124 -1.1380  0.7626
20375SOL     OW60139   6.788   5.153   1.802  0.0708 -0.5964  0.2986
20375SOL    HW160140   6.818   5.086   1.734  0.5880 -0.0204 -0.0447
20375SOL    HW260141   6.786   5.244   1.760 -2.4730 -0.6535  0.2013
20376SOL     OW60142   6.793   5.408   1.728  0.6855  0.4813  0.2549
20376SOL    HW160143   6.850   5.471   1.780  0.4533  2.7954 -2.2143
20376SOL    HW260144   6.707   5.453   1.703 -0.8628 -1.8771  1.1043
20378SOL     OW60145   7.400   5.471   0.942 -0.5191  0.2239  0.2359
20378SOL    HW160146   7.302   5.483   0.958 -0.6305 -0.3425 -0.0024
20378SOL    HW260147   7.417   5.378   0.910  0.2875 -0.1414  1.7197
20379SOL     OW60148   4.804   9.964   1.733  0.5553 -0.3287  0.1797
20379SOL    HW160149   4.753  10.036   1.780 -1.2460 -1.0527 -0.6081
20379SOL    HW260150   4.892  10.001   1.702  0.0607  1.2738  0.6152
20380SOL     OW60151   9.734   3.112   5.378 -0.3282  0.0290  0.3138
20380SOL    HW160152   9.762   3.042   5.443  2.2809  0.2825 -0.4796
20380SOL    HW260153   9.644   3.088   5.340 -0.3253 -1.8917  1.4370
20381SOL     OW60154   3.023   0.561   1.953 -0.2045 -0.0100 -0.3357
20381SOL    HW160155   3.086   0.527   1.884 -1.5164 -2.1195 -0.5540
20381SOL    HW260156   2.969   0.636   1.915  2.0880  1.7483 -0.1643
20382SOL     OW60157   0.938   3.619   0.073  0.2511  0.0479  0.5840
20382SOL    HW160158   1.010   3.605   0.140  0.6443 -1.8549 -0.1930
20382SOL    HW260159   0.976   3.661  -0.009 -0.0519  1.5225  1.1922
20383SOL     OW60160   2.402   5.726   3.049  0.1201  0.0884 -0.0894
20383SOL    HW160161   2.473   5.737   2.978  0.2518  0.2237  0.0628
20383SOL    HW260162   2.446   5.707   3.137  0.2051  4.0164  0.8189
20384SOL     OW60163   1.361   1.524   1.937  0.0303 -0.4470  0.3285
20384SOL    HW160164   1.281   1.492   1.886  1.7548  1.0462 -3.4406
20384SOL    HW260165   1.410   1.445   1.975 -0.6770 -1.6613 -1.2279
20385SOL     OW60166   9.924   5.956   5.280  0.2461  0.7006 -0.4132
20385SOL    HW160167   9.868   5.876   5.301  0.3910  0.3557 -1.3331
20385SOL    HW260168  10.013   5.947   5.325  0.4510  0.0988 -0.9324
20386SOL     OW60169   7.814   7.346   4.169 -0.7550  0.0166  0.0843
20386SOL    HW160170   7.761   7.285   4.111 -3.2419  1.2874  0.9547
20386SOL    HW260171   7.839   7.300   4.254  0.9224 -1.0921 -0.9820
20387SOL     OW60172   9.539   6.260   5.414 -0.0867  0.1255  0.4384
20387SOL    HW160173   9.470   6.188   5.406 -0.5562  0.5650  0.4988
20387SOL    HW260174   9.580   6.257   5.505 -0.6918  0.4539  0.7253
20389SOL     OW60175   1.101   4.276   4.982 -0.2675  0.0144 -0.6943
20389SOL    HW160176   1.179   4.222   4.951 -0.0634  0.1985 -0.5026
20389SOL    HW260177   1.025   4.214   5.004  1.3586 -0.6181  3.6692
20390SOL     OW60178   3.922   4.789   2.618  0.2774 -0.1693 -0.2003
20390SOL    HW160179   3.965   4.879   2.618  1.3105 -0.6546  0.2248
20390SOL    HW260180   3.937   4.745   2.529  2.1621 -1.0208  0.4970
20391SOL     OW60181   3.292   6.335   4.367  0.5031  0.2074 -0.2853
20391SOL    HW160182   3.391   6.338   4.359  0.5050  0.7172 -0.0589
20391SOL    HW260183   3.259   6.418   4.411 -0.0557  0.1859 -0.6561
20392SOL     OW60184   7.171   2.498   3.328 -0.0836  0.1325  0.1007
20392SOL    HW160185   7.200   2.422   3.271  0.2906 -0.4109  1.0094
20392SOL    HW260186   7.245   2.565   3.335  0.1481 -0.1705  0.5737
20393SOL     OW60187   0.454   3.800   5.099 -0.0265  0.2825  0.2347
20393SOL    HW160188   0.422   3.804   5.193  0.1916 -0.1003  0.3264
20393SOL    HW260189   0.545   3.759   5.096  1.1155  2.7364  0.1181
20394SOL     OW60190   2.717   9.153   5.898  0.1631  0.2788 -0.1379
20394SOL    HW160191   2.648   9.217   5.862 -0.1294 -0.4888 -0.9811
20394SOL    HW260192   2.696   9.131   5.993 -0.8945 -0.1086 -0.4496
20395SOL     OW60193   1.046   6.293   4.640 -0.5411  0.1616 -0.3127
20395SOL    HW160194   1.054   6.352   4.720 -2.0662  0.1002 -0.0957
20395SOL    HW260195   0.962   6.315   4.590 -0.7990 -1.3728 -0.5957
20396SOL     OW60196   3.356   2.984   3.562 -0.1053 -0.6867 -0.1476
20396SOL    HW160197   3.356   2.887   3.584  1.5270 -0.1563  2.2620
20396SOL    HW260198   3.450   3.017   3.554 -0.6445  0.5599 -1.6339
20397SOL     OW60199   1.167   6.451   1.731 -0.3320 -0.2632  0.4351
20397SOL    HW160200   1.194   6.415   1.821 -1.5898 -0.3500  0.7930
20397SOL    HW260201   1.232   6.521   1.702 -0.3776  0.3720  1.8049
20398SOL     OW60202   4.476   0.400   5.742 -0.1789  0.0043 -0.0212
20398SOL    HW160203   4.526   0.332   5.796 -0.6459  0.2371  0.7114
20398SOL    HW260204   4.442   0.358   5.658  0.3320 -0.4250 -0.0146
20399SOL     OW60205   1.085   5.867   0.576  0.4064  0.4017 -0.1883
20399SOL    HW160206   1.002   5.885   0.629  1.4256  0.2727  1.5153
20399SOL    HW260207   1.068   5.885   0.479 -0.9758  2.4500  0.4014
20400SOL     OW60208   9.212   1.988   3.135 -0.1167  0.4189 -0.2674
20400SOL    HW160209   9.172   2.043   3.062  0.7497 -0.3362 -1.3485
20400SOL    HW260210   9.312   1.996   3.132 -0.0912  0.7577  1.1506
20401SOL     OW60211   0.041   0.754   1.723  0.3068 -0.2635  0.2679
20401SOL    HW160212   0.126   0.753   1.672 -0.2219 -2.9677 -0.6504
20401SOL    HW260213  -0.036   0.770   1.661 -0.1319 -1.1454  0.5738
20403SOL     OW60214   2.337   0.166   4.813 -0.3667 -0.1602 -0.2787
20403SOL    HW160215   2.385   0.254   4.822 -1.3519  0.4258 -0.6762
20403SOL    HW260216   2.315   0.131   4.904  0.2383 -0.1138 -0.1122
20404SOL     OW60217   3.666   7.560   0.734 -0.3077  0.2010 -0.0323
20404SOL    HW160218   3.569   7.585   0.731 -0.7277 -1.5358 -1.5352
20404SOL    HW260219   3.675   7.465   0.765  0.8142 -0.1682 -1.4302
20405SOL     OW60220   9.386   9.445   5.277 -0.1422 -0.1250  0.2316
20405SOL    HW160221   9.421   9.371   5.218 -1.3647  0.2112 -0.9626
20405SOL    HW260222   9.393   9.418   5.373 -0.3355 -1.6981 -0.1820
20406SOL     OW60223   8.368   1.183   1.544  0.0407 -0.3160 -0.0426
20406SOL    HW160224   8.268   1.183   1.542  0.0405 -0.2002 -0.1025
20406SOL    HW260225   8.399   1.188   1.638 -0.0108 -0.4532 -0.0175
20407SOL     OW60226   2.667   5.313   2.530  0.5185 -0.3306 -0.3378
20407SOL    HW160227   2.752   5.260   2.529 -0.2228 -1.5366 -1.2092
20407SOL    HW260228   2.602   5.271   2.594  0.4699  0.4254  0.1172
20408SOL     OW60229   8.489   4.629   4.471 -0.1031 -0.1450 -0.8576
20408SOL    HW160230   8.433   4.546   4.460  0.5754 -0.2327 -4.0602
20408SOL    HW260231   8.561   4.612   4.537 -1.6994 -1.1894  0.6524
20409SOL     OW60232   4.716   1.226   4.587  0.2738 -0.3590 -0.2800
20409SOL    HW160233   4.780   1.193   4.518 -1.7682 -0.4047 -2.2155
20409SOL    HW260234   4.687   1.319   4.564 -0.0126 -0.1753  0.8042
20410SOL     OW60235   4.252   3.973   2.817  0.5142 -0.1020  0.2767
20410SOL    HW160236   4.168   3.976   2.872 -0.8903  1.7383 -1.8715
20410SOL    HW260237   4.331   3.980   2.877 -0.8577 -1.3824  2.3175
20411SOL     OW60238   6.410   1.000   1.035  0.5048 -0.1859  0.1368
20411SOL    HW160239   6.372   0.910   1.056  0.9292 -0.4561 -0.2515
20411SOL    HW260240   6.499   1.009   1.079  0.5982 -0.0722 -0.0773
20412SOL     OW60241   8.292   0.628   4.972  0.1028 -0.1000  0.1912
20412SOL    HW160242   8.208   0.642   5.024 -0.6186 -1.0005 -0.7174
20412SOL    HW260243   8.289   0.684   4.889 -1.4486 -3.2066 -1.9303
20413SOL     OW60244   0.629   7.366   1.707  0.0424  0.3487 -0.2110
20413SOL    HW160245   0.679   7.406   1.783  0.0027  0.6314 -0.3364
20413SOL    HW260246   0.530   7.372   1.725  0.0395  0.1740 -0.1621
20414SOL     OW60247   0.433   9.767   1.056 -0.3355 -0.1514 -0.3065
20414SOL    HW160248   0.519   9.767   1.005 -0.5192 -0.3271 -0.6150
20414SOL    HW260249   0.446   9.815   1.143 -0.0742  0.3283 -0.6093
20415SOL     OW60250   4.106   6.160   3.419  0.4152  0.2108  0.1372
20415SOL    HW160251   4.096   6.123   3.327 -1.0232 -0.0403  0.3835
20415SOL    HW260252   4.027   6.217   3.441  0.6919  0.1763  1.2679
20416SOL     OW60253   1.498   7.640   3.455  0.4697 -0.1854 -0.3882
20416SOL    HW160254   1.499   7.581   3.536 -0.9275 -0.6351 -0.6648
20416SOL    HW260255   1.494   7.582   3.373 -0.7812  0.2669 -0.6657
20417SOL     OW60256   3.442   3.149   4.377  0.0610 -0.6630  0.0182
20417SOL    HW160257   3.471   3.057   4.404  1.5921 -0.0792  0.3917
20417SOL    HW260258   3.521   3.210   4.374 -1.1853  1.0730  1.4527
20419SOL     OW60259   8.056   2.999   1.797  0.2018 -0.0435 -0.6269
20419SOL    HW160260   7.961   3.027   1.792  0.8785  2.0957 -2.4563
20419SOL    HW260261   8.095   3.027   1.885 -0.3310  0.8071 -0.6614
20421SOL     OW60262   2.494   4.119   5.850 -0.0596 -0.0822 -0.2865
20421SOL    HW160263   2.532   4.147   5.938  0.8833 -2.1019 -0.0232
20421SOL    HW260264   2.415   4.059   5.866 -1.6718  1.8262 -0.8423
20422SOL     OW60265   9.983   1.006   6.412 -0.1758 -0.4413 -0.0361
20422SOL    HW160266  10.079   1.020   6.385 -0.1886  0.4932  0.4088
20422SOL    HW260267   9.932   0.970   6.334  0.1579  0.6711 -0.7728
20424SOL     OW60268   2.269   9.357   3.593  0.4333  0.1828  0.3107
20424SOL    HW160269   2.317   9.270   3.608  0.0518 -0.1825 -0.5509
20424SOL    HW260270   2.313   9.406   3.518  2.1359  1.8483  2.3341
20428SOL     OW60271   4.651   0.193   5.819 -0.0124  0.0657 -0.0863
20428SOL    HW160272   4.745   0.188   5.851 -0.0066 -1.0021 -0.2796
20428SOL    HW260273   4.645   0.163   5.724 -0.9271 -2.2981  0.6887
20429SOL     OW60274   1.266   2.521   0.373 -0.1658  0.2566 -0.0486
20429SOL    HW160275   1.232   2.461   0.301  1.0674 -0.6436  0.1127
20429SOL    HW260276   1.201   2.596   0.387 -1.0924 -0.3328 -1.1218
20431SOL     OW60277   1.654   5.759   4.591 -0.0874 -0.2940 -0.3345
20431SOL    HW160278   1.655   5.706   4.506  2.1362 -1.3183  0.2963
20431SOL    HW260279   1.748   5.771   4.623 -0.7550  1.8172  0.9253
20432SOL     OW60280   4.760   7.706   4.752  0.0309 -0.1354 -0.3481
20432SOL    HW160281   4.764   7.701   4.852  0.4216  0.1367 -0.3465
20432SOL    HW260282   4.820   7.780   4.720 -1.8026  1.2661 -0.6403
20434SOL     OW60283   1.492   4.442   1.127 -0.0944  0.3182  0.1241
20434SOL    HW160284   1.589   4.423   1.140 -0.2803 -0.6533  0.1379
20434SOL    HW260285   1.442   4.416   1.209 -0.4691  0.0612 -0.1849
20435SOL     OW60286   8.145   7.033   5.124  0.3048  0.6335  0.7425
20435SOL    HW160287   8.162   6.973   5.046  0.7156  0.7254  0.7617
20435SOL    HW260288   8.087   6.985   5.190  0.6815  0.2339  0.7849
20438SOL     OW60289   3.919   0.768   0.924 -0.1332 -0.0992  0.1834
20438SOL    HW160290   3.858   0.822   0.867 -0.6239 -0.7933  0.0455
20438SOL    HW260291   3.962   0.696   0.869  0.0016 -0.2689  0.5057
20439SOL     OW60292   4.139   3.828   2.222 -0.0210  0.2405 -0.3317
20439SOL    HW160293   4.097   3.821   2.312 -0.9237  0.9819 -0.6860
20439SOL    HW260294   4.230   3.786   2.224 -0.3199 -0.3758  0.7313
20440SOL     OW60295   7.903   2.938   0.073  0.9288 -0.1570 -0.1794
20440SOL    HW160296   7.996   2.917   0.043  1.0178  1.5503 -1.1278
20440SOL    HW260297   7.903   2.950   0.173  1.7787  0.1510 -0.2071
20442SOL     OW60298   1.981   6.987   2.424 -0.0792 -0.2530  0.8646
20442SOL    HW160299   1.975   6.887   2.430  2.7990 -0.6718 -1.5640
20442SOL    HW260300   2.065   7.018   2.469  0.7512  0.6600 -1.2258
20443SOL     OW60301   1.131   4.891   6.300 -0.9133 -0.2866 -0.3187
20443SOL    HW160302   1.103   4.843   6.383 -0.3442 -0.6575 -0.3349
20443SOL    HW260303   1.217   4.939   6.316 -1.1853  0.2546 -0.4748
20444SOL     OW60304   2.041   8.012   4.278  0.4902 -0.8867  0.6939
20444SOL    HW160305   2.005   8.090   4.227  1.7634  0.0383  1.1713
20444SOL    HW260306   2.034   7.929   4.222  0.3711 -0.1827 -0.3529
20445SOL     OW60307   6.443   7.787   5.832  0.3240 -0.0675  0.0092
20445SOL    HW160308   6.460   7.881   5.803 -0.5852 -0.0640 -0.5356
20445SOL    HW260309   6.349   7.778   5.866  0.9882 -0.3633  1.8259
20446SOL     OW60310   8.835   4.741   5.623 -0.2053  0.2914 -0.3830
20446SOL    HW160311   8.797   4.814   5.680  1.1581 -0.6000  1.7419
20446SOL    HW260312   8.921   4.773   5.582 -0.6116  0.5425 -1.0481
20447SOL     OW60313   3.850   4.738   5.568 -0.4135 -0.2683 -0.4107
20447SOL    HW160314   3.867   4.642   5.547  0.2419  0.1584 -1.8776
20447SOL    HW260315   3.849   4.791   5.483  0.2275  1.1716  0.4658
20448SOL     OW60316   1.236   3.998   0.615  0.2092  0.3856  0.0711
20448SOL    HW160317   1.190   3.935   0.552 -1.7524 -1.5220  3.2531
20448SOL    HW260318   1.236   4.090   0.576 -1.8435 -0.5404 -2.2545
20449SOL     OW60319   2.296   8.056   3.292 -0.3521  0.3019  0.1219
20449SOL    HW160320   2.269   8.035   3.386 -0.5224 -0.9950 -0.2169
20449SOL    HW260321   2.216   8.084   3.240 -0.7133 -1.5515 -0.3363
20450SOL     OW60322   0.522   5.498   3.478 -0.0342  0.1300 -0.5807
20450SOL    HW160323   0.553   5.495   3.383 -2.7118 -1.0204 -1.4828
20450SOL    HW260324   0.496   5.592   3.502  0.7693  0.4455 -0.9527
20452SOL     OW60325   9.504   9.118   1.852  0.2503 -0.4539  0.0853
20452SOL    HW160326   9.419   9.065   1.844 -0.3864  0.7305 -1.2963
20452SOL    HW260327   9.583   9.059   1.838 -0.3138 -1.6598  1.8014
20453SOL     OW60328   3.465   9.587   2.485 -0.0319  0.4410  0.5687
20453SOL    HW160329   3.450   9.559   2.580 -0.7926 -1.2957 -0.0313
20453SOL    HW260330   3.387   9.641   2.454  0.0649  0.7353  0.8363
20454SOL     OW60331   0.830   3.869   4.583 -0.1188 -0.4936 -0.8052
20454SOL    HW160332   0.836   3.811   4.501 -0.7791 -1.6607 -0.0345
20454SOL    HW260333   0.898   3.943   4.576  1.4585 -1.9666 -1.3101
20456SOL     OW60334   3.911   5.269   1.631  0.1153 -0.0800 -0.3181
20456SOL    HW160335   3.870   5.359   1.613 -0.1937 -0.1663 -0.0705
20456SOL    HW260336   4.001   5.281   1.674 -0.0017  0.1138 -0.1237
20457SOL     OW60337   2.604   7.535   3.282 -0.2198 -0.1138  0.2449
20457SOL    HW160338   2.580   7.632   3.292  0.7967  0.2657 -0.8174
20457SOL    HW260339   2.683   7.515   3.340  0.0935 -0.0985 -0.1753
20458SOL     OW60340   0.698   1.585   4.477  0.0947  0.0179 -0.8244
20458SOL    HW160341   0.713   1.645   4.556 -0.4598 -0.2070 -0.5399
20458SOL    HW260342   0.632   1.628   4.415 -1.3883 -0.9036  0.0735
20459SOL     OW60343   1.085   0.511   1.787 -0.2823 -0.5844 -0.3416
20459SOL    HW160344   1.104   0.512   1.885 -0.5939  0.3587 -0.2900
20459SOL    HW260345   1.072   0.417   1.756 -2.5997 -0.7273  0.9969
20461SOL     OW60346   3.987   8.409   5.776  0.2524 -0.1186  0.1743
20461SOL    HW160347   4.052   8.445   5.709  0.6175  0.4751  0.8390
20461SOL    HW260348   4.018   8.320   5.809 -0.1866 -0.6369 -0.8130
20462SOL     OW60349   3.158   8.544   5.233 -0.0579 -0.4529  0.7800
20462SOL    HW160350   3.166   8.556   5.134 -0.2919 -0.6763  0.7345
20462SOL    HW260351   3.166   8.447   5.256  1.7644 -0.2479  1.1454
20463SOL     OW60352   9.105   1.464   1.316 -0.2287  0.2217 -0.9534
20463SOL    HW160353   9.067   1.473   1.224 -1.9966 -1.1275 -0.3967
20463SOL    HW260354   9.124   1.367   1.334 -1.3033  0.3007  0.6367
20466SOL     OW60355   7.865   6.996   4.736  0.1066 -0.0943  0.2821
20466SOL    HW160356   7.892   6.944   4.655 -1.1196 -2.4114  1.3186
20466SOL    HW260357   7.904   7.088   4.731  2.3334 -1.0845 -1.6011
20467SOL     OW60358   6.337   5.534   1.236 -0.5435  0.3770  0.1582
20467SOL    HW160359   6.340   5.568   1.142  0.6267 -1.0943 -0.3527
20467SOL    HW260360   6.304   5.606   1.296 -1.3157  1.3307 -1.3842
20468SOL     OW60361   1.237   6.795   3.020 -0.0268  0.3120 -0.2232
20468SOL    HW160362   1.237   6.888   3.057  0.6976  0.9210 -1.7391
20468SOL    HW260363   1.331   6.767   3.001 -0.4184  0.1156 -1.8866
20469SOL     OW60364   9.760   8.852   4.958  0.2123  0.1066 -0.5539
20469SOL    HW160365   9.799   8.789   4.891  0.0867 -0.0219 -0.5049
20469SOL    HW260366   9.784   8.946   4.933  1.2300 -0.0234 -0.0767
20470SOL     OW60367   4.238   3.632   2.517  0.2979 -0.5105 -0.0156
20470SOL    HW160368   4.204   3.618   2.424 -0.4944 -0.0863  0.2102
20470SOL    HW260369   4.286   3.720   2.522  0.5092 -0.6216 -0.0686
20471SOL     OW60370   9.787   0.925   4.496 -0.6362 -0.4050  0.0477
20471SOL    HW160371   9.739   1.012   4.504 -0.2464 -0.4114  2.8068
20471SOL    HW260372   9.767   0.884   4.407 -3.9378  0.6525  0.2400
20473SOL     OW60373   0.749   4.863   0.899 -0.2063  0.1958  0.2713
20473SOL    HW160374   0.781   4.956   0.916 -0.3562  0.6147 -1.5818
20473SOL    HW260375   0.810   4.798   0.944  0.7614  1.1521  0.3619
20474SOL     OW60376   3.478   5.934   5.264 -0.0728 -0.7137  0.3682
20474SOL    HW160377   3.473   6.032   5.243 -2.3602 -0.7817  0.4259
20474SOL    HW260378   3.491   5.921   5.362 -2.6924 -0.4380  0.7970
20477SOL     OW60379   9.887   8.099   0.294  0.5507 -0.4173 -0.2867
20477SOL    HW160380   9.853   8.013   0.256  1.3994 -0.6637 -0.5016
20477SOL    HW260381   9.938   8.080   0.377  0.6302 -0.1069 -0.2652
20479SOL     OW60382   0.645   1.354   5.056 -0.5474 -0.3207 -0.0341
20479SOL    HW160383   0.579   1.280   5.045 -1.1664  0.1576  0.3972
20479SOL    HW260384   0.598   1.442   5.049 -0.0418  0.0201  0.7553
20480SOL     OW60385   9.875   2.249   1.305 -0.6103 -0.0184  0.4100
20480SOL    HW160386   9.935   2.296   1.369 -1.3260 -1.5916  2.2882
20480SOL    HW260387   9.786   2.295   1.302 -1.1164 -0.8906  1.8008
20481SOL     OW60388   1.173   6.567   3.870  0.2151  0.1081  0.0581
20481SOL    HW160389   1.158   6.666   3.866 -1.8028 -0.2314 -2.4774
20481SOL    HW260390   1.109   6.526   3.935  0.4156  0.3835  0.4276
20483SOL     OW60391   3.340   7.228   4.258 -0.7845  0.0615  0.1375
20483SOL    HW160392   3.274   7.182   4.317 -2.0311  0.3840 -0.9717
20483SOL    HW260393   3.326   7.327   4.264 -1.0850  0.0850 -0.8672
20484SOL     OW60394   1.426   8.357   4.359  0.4829 -0.2122 -0.2620
20484SOL    HW160395   1.432   8.454   4.335 -1.5827  0.1046  0.4280
20484SOL    HW260396   1.503   8.332   4.418  0.6259  1.2004  0.1627
20486SOL     OW60397   0.690   7.386   0.424 -0.0686  0.4799  0.1470
20486SOL    HW160398   0.602   7.356   0.388 -0.9220  2.7062  0.2777
20486SOL    HW260399   0.681   7.480   0.458  2.1906  0.4797  0.7903
20487SOL     OW60400   0.531   9.293   4.502 -0.0956 -0.0952 -0.3233
20487SOL    HW160401   0.566   9.383   4.525 -1.4621  0.0071  1.4730
20487SOL    HW260402   0.542   9.232   4.581  0.9978 -1.5763 -1.5805
20489SOL     OW60403   1.697   0.912   0.613 -0.4745 -0.5527  0.1514
20489SOL    HW160404   1.682   0.813   0.619 -2.7881 -0.1222  2.2468
20489SOL    HW260405   1.625   0.953   0.558  0.1831  0.0548 -0.2646
20490SOL     OW60406   7.810   3.883   3.334  0.1104  0.7707 -0.0170
20490SOL    HW160407   7.870   3.804   3.342  1.0362  1.4781 -0.0054
20490SOL    HW260408   7.758   3.893   3.419  0.8338  0.8641  0.4148
20491SOL     OW60409   4.617   0.909   2.313  0.1256 -0.3587  0.1615
20491SOL    HW160410   4.616   0.995   2.363 -3.1973 -1.3051  1.9113
20491SOL    HW260411   4.668   0.841   2.365  0.2389 -0.2265  0.2233
20492SOL     OW60412   9.632   9.976   5.341  0.0976  0.2022  0.1549
20492SOL    HW160413   9.639  10.076   5.334 -1.0328  0.2955  0.3344
20492SOL    HW260414   9.570   9.943   5.270  0.6733 -0.4043 -0.0673
20493SOL     OW60415   0.265   1.441   4.332 -0.0011 -0.1273 -0.0003
20493SOL    HW160416   0.187   1.397   4.289 -0.9695 -0.0644  1.6495
20493SOL    HW260417   0.311   1.376   4.392 -0.5208  0.6530  1.2552
20494SOL     OW60418   3.595   1.983   6.293 -0.6303 -0.2075  0.0053
20494SOL    HW160419   3.526   1.912   6.281 -0.3177 -0.4151 -0.6080
20494SOL    HW260420   3.648   1.993   6.209 -0.3335  0.3986  0.2542
20496SOL     OW60421   7.874   0.137   5.779 -0.5023 -0.0014 -0.2547
20496SOL    HW160422   7.886   0.058   5.839 -2.4807  0.1927  0.4153
20496SOL    HW260423   7.916   0.217   5.823  1.1934 -0.5852 -0.7768
20497SOL     OW60424   6.547   1.920   0.996  0.7423  0.4750 -0.0248
20497SOL    HW160425   6.550   1.995   0.930  0.3386  1.0340  0.5902
20497SOL    HW260426   6.468   1.931   1.056 -0.6604 -1.6856 -1.3834
20500SOL     OW60427   9.589   6.223   6.389  0.4314  0.2884 -0.1989
20500SOL    HW160428   9.667   6.161   6.387  1.3894  1.3794  1.9082
20500SOL    HW260429   9.512   6.178   6.435  0.4246 -0.0955 -0.5792
20502SOL     OW60430   0.120   4.497   3.700  0.1656  0.3736 -0.3277
20502SOL    HW160431   0.123   4.550   3.784  1.7522  0.8673 -0.6798
20502SOL    HW260432   0.056   4.421   3.711  0.5938  0.2452  1.4358
20503SOL     OW60433   3.968   5.609   3.956 -0.2907 -0.0902  0.0207
20503SOL    HW160434   3.910   5.687   3.933 -1.3337 -0.7625  0.3337
20503SOL    HW260435   4.064   5.633   3.940 -0.7405  0.5750 -1.7975
20504SOL     OW60436   2.752   2.212   5.198 -0.1927 -0.3101 -0.1681
20504SOL    HW160437   2.757   2.277   5.123 -2.6984 -0.9959 -0.9797
20504SOL    HW260438   2.722   2.123   5.163  1.1261 -1.3612  1.2613
20505SOL     OW60439   7.593   1.730   6.077  0.1752  0.0416  0.2634
20505SOL    HW160440   7.608   1.730   5.978 -1.2020 -1.3009  0.0301
20505SOL    HW260441   7.658   1.668   6.120  1.4738  1.4258  0.3353
20506SOL     OW60442   1.704   8.705   3.488 -0.6080 -0.3600 -0.2016
20506SOL    HW160443   1.779   8.725   3.424 -1.0839 -0.2273 -0.7240
20506SOL    HW260444   1.741   8.691   3.580 -0.0759  1.1290 -0.1791
20508SOL     OW60445   2.052   3.917   2.077 -0.8143 -0.0312  0.4981
20508SOL    HW160446   2.051   4.012   2.045 -1.9590 -0.5058 -0.9673
20508SOL    HW260447   2.140   3.875   2.054 -0.8479  0.2567 -0.1686
20509SOL     OW60448   8.538   8.323   4.817  0.1680  0.0855 -0.0690
20509SOL    HW160449   8.521   8.410   4.862 -0.4603  0.1202 -0.3607
20509SOL    HW260450   8.503   8.327   4.723  1.1545 -0.1016 -0.4485
20510SOL     OW60451   6.853   4.364   1.937 -0.0768  0.4119  0.1198
20510SOL    HW160452   6.871   4.452   1.893 -1.1354  0.6657  0.1719
20510SOL    HW260453   6.938   4.311   1.942  0.2166  0.7021 -1.4938
20512SOL     OW60454   8.042   6.217   2.967 -0.2218  0.0580  0.1370
20512SOL    HW160455   7.948   6.206   2.934  0.2640 -0.1474 -1.2043
20512SOL    HW260456   8.097   6.138   2.939  0.7598  0.9848 -0.6099
20515SOL     OW60457   6.427   3.512   1.078  0.1554 -0.1907  0.4415
20515SOL    HW160458   6.520   3.545   1.090  0.0977  0.3742 -0.6206
20515SOL    HW260459   6.406   3.504   0.981 -1.4782  1.3475  0.6462
20516SOL     OW60460   1.895   7.285   0.868  0.5167  0.0365 -0.2234
20516SOL    HW160461   1.861   7.192   0.882  3.6158 -1.2063 -0.5919
20516SOL    HW260462   1.872   7.341   0.948 -0.8689 -1.1733  0.2531
20517SOL     OW60463   7.543   3.043   2.507 -0.3464 -0.7139 -0.1032
20517SOL    HW160464   7.487   2.974   2.553 -1.2218  1.0816  1.5885
20517SOL    HW260465   7.486   3.097   2.445 -0.5989  1.3443  1.8757
20519SOL     OW60466   5.513   0.357   2.349 -0.4226 -0.0018  0.0078
20519SOL    HW160467   5.599   0.338   2.396 -0.0473  2.6089  0.4887
20519SOL    HW260468   5.436   0.344   2.411 -0.3057 -1.2144 -0.0879
20521SOL     OW60469   0.855   5.204   1.936 -0.0762  0.4389 -0.1391
20521SOL    HW160470   0.764   5.229   1.969  0.1626  1.2729 -0.1089
20521SOL    HW260471   0.850   5.117   1.888 -0.6009 -0.3097  1.2511
20522SOL     OW60472   9.953   2.963   5.947 -0.7357  0.2315 -0.3447
20522SOL    HW160473   9.947   2.924   5.856  0.6021  0.2341 -0.4371
20522SOL    HW260474  10.040   3.011   5.958  0.2108 -1.8276  1.7318
20523SOL     OW60475   0.360   5.633   5.781 -0.1160  0.2002 -0.2096
20523SOL    HW160476   0.370   5.718   5.833  2.2660 -0.0084 -0.2796
20523SOL    HW260477   0.356   5.555   5.843 -0.0538  0.1695 -0.2446
20524SOL     OW60478   4.384   8.086   2.489  0.5719 -0.4952  0.1418
20524SOL    HW160479   4.306   8.047   2.440 -0.8767  1.9033  0.4635
20524SOL    HW260480   4.452   8.118   2.424  0.4344 -0.8836 -0.1961
20525SOL     OW60481   4.735   5.344   0.997 -0.1177  0.3946  0.0466
20525SOL    HW160482   4.781   5.328   1.084  2.1922 -0.7440 -1.3501
20525SOL    HW260483   4.686   5.432   1.001  2.2025  1.6663  1.5388
20526SOL     OW60484   1.465   1.235   2.311  0.6162  0.1545 -0.2976
20526SOL    HW160485   1.490   1.320   2.358  1.0862 -1.0766  1.7151
20526SOL    HW260486   1.390   1.253   2.247  1.1871  2.2213 -0.4073
20528SOL     OW60487   8.191   0.882   1.181 -0.1586 -0.4471 -0.2566
20528SOL    HW160488   8.177   0.803   1.121 -1.6027  0.7351 -1.5141
20528SOL    HW260489   8.253   0.947   1.137 -1.1000  0.3594 -0.3914
20529SOL     OW60490   7.520   2.407   5.363  0.1377  0.0263 -0.8352
20529SOL    HW160491   7.597   2.352   5.395 -0.0499  0.0679 -0.3023
20529SOL    HW260492   7.545   2.504   5.364  0.8630 -0.1298 -2.8870
20530SOL     OW60493   2.545   4.063   0.825 -0.1267 -0.6443 -0.2696
20530SOL    HW160494   2.536   4.023   0.916  1.1743  0.4578  0.3583
20530SOL    HW260495   2.520   3.995   0.756 -0.9721 -1.5370  0.8951
20531SOL     OW60496   9.535   0.063   0.159 -0.7563 -0.0635  0.6730
20531SOL    HW160497   9.448   0.042   0.115 -0.9014  2.1067 -0.1340
20531SOL    HW260498   9.519   0.121   0.239 -0.0635  0.3071  0.5526
20532SOL     OW60499   6.292   2.029   4.671 -0.5728 -0.2694 -0.5292
20532SOL    HW160500   6.292   2.092   4.594  1.1338  0.0648 -0.2897
20532SOL    HW260501   6.331   2.074   4.751 -2.1397 -0.6783  0.4872
20533SOL     OW60502   9.173   3.857   2.935 -0.4045  0.1668  0.4848
20533SOL    HW160503   9.076   3.870   2.955 -0.7684  0.1598 -1.1563
20533SOL    HW260504   9.228   3.896   3.009 -1.6439  1.2505  0.8617
20534SOL     OW60505   3.014   8.864   4.855  0.0518  0.0871  0.2999
20534SOL    HW160506   3.013   8.964   4.857 -0.4166  0.0620  1.2614
20534SOL    HW260507   3.000   8.828   4.947  0.6008 -0.8667  0.0200
20536SOL     OW60508   9.045   3.039   2.766 -0.1765 -0.5999 -0.2437
20536SOL    HW160509   9.009   2.991   2.686 -0.8661  2.3867 -1.8013
20536SOL    HW260510   9.136   3.004   2.787  0.3254 -0.9573 -2.7945
20537SOL     OW60511   4.095   0.330   0.817 -0.6174  0.5209 -0.2907
20537SOL    HW160512   4.047   0.407   0.775 -0.5680  1.7879  1.8721
20537SOL    HW260513   4.029   0.266   0.856 -0.6242  0.3450 -0.5905
20538SOL     OW60514   6.844   7.202   3.427  0.7726 -0.2190  0.1023
20538SOL    HW160515   6.779   7.189   3.351  0.6813  0.6721  0.0233
20538SOL    HW260516   6.936   7.181   3.395  1.0108  2.1511 -0.8615
20541SOL     OW60517   5.642   1.946   4.790  0.5028 -0.0289 -0.0654
20541SOL    HW160518   5.655   1.976   4.696  1.4672 -1.3317 -0.3691
20541SOL    HW260519   5.597   2.018   4.843 -1.4095  0.1455 -1.8735
20542SOL     OW60520   4.467   1.559   3.578  0.3803  0.0836  0.0823
20542SOL    HW160521   4.403   1.542   3.653  1.3359 -1.4332  0.5556
20542SOL    HW260522   4.555   1.517   3.598  1.2105  1.2049 -1.0809
20543SOL     OW60523   3.583   7.299   0.728  0.1745  0.8841  0.5185
20543SOL    HW160524   3.527   7.228   0.770 -0.3613  0.6537 -0.5919
20543SOL    HW260525   3.550   7.318   0.636  2.2138  0.4155 -0.3207
20544SOL     OW60526   7.190   3.771   3.006  0.4107 -0.2875 -0.1700
20544SOL    HW160527   7.266   3.764   3.070 -0.1460 -1.7342  0.3693
20544SOL    HW260528   7.134   3.688   3.012 -0.4796  0.1988 -1.4761
20545SOL     OW60529   1.971   9.160   0.753  0.1889 -0.5499 -0.2564
20545SOL    HW160530   2.066   9.134   0.737  0.3020 -0.4328  0.2275
20545SOL    HW260531   1.964   9.260   0.756 -0.0547 -0.5408 -0.9318
20546SOL     OW60532   3.510   8.466   2.467 -0.2192 -0.4635  0.3746
20546SOL    HW160533   3.574   8.418   2.408  1.1163  0.2574  1.1961
20546SOL    HW260534   3.435   8.405   2.492  0.7827 -1.7139  0.3779
20547SOL     OW60535   5.387   4.317   1.350  0.5588 -0.2530  0.2048
20547SOL    HW160536   5.350   4.382   1.416 -2.4268  0.0896 -1.7025
20547SOL    HW260537   5.313   4.281   1.293  2.6999 -2.3667 -1.3712
20548SOL     OW60538   0.096   1.006   3.855 -0.0926 -1.0515 -1.0167
20548SOL    HW160539   0.164   1.055   3.910 -1.6532 -0.5782  0.5627
20548SOL    HW260540   0.037   0.952   3.916 -1.1875 -1.3746 -2.3361
20550SOL     OW60541   8.723   1.546   4.597 -0.0038 -0.3546  0.2150
20550SOL    HW160542   8.675   1.546   4.685 -0.7658  0.7124 -0.1954
20550SOL    HW260543   8.751   1.639   4.574 -2.3039 -0.1630 -2.0176
20552SOL     OW60544   2.166   9.084   2.133  0.2157  0.1536  0.1601
20552SOL    HW160545   2.143   9.011   2.197  1.2884 -0.9526 -0.6953
20552SOL    HW260546   2.266   9.093   2.128  0.1172  0.6513 -0.9003
20553SOL     OW60547   2.584   6.463   0.935  0.3107 -0.3390  0.4854
20553SOL    HW160548   2.542   6.490   0.848  1.3866 -3.2417 -1.0290
20553SOL    HW260549   2.513   6.430   0.997 -0.4298  1.4347  0.6123
20554SOL     OW60550   1.230   5.994   0.051 -0.0639 -0.4216  0.3158
20554SOL    HW160551   1.156   5.933   0.079 -0.3063 -1.0097 -1.5571
20554SOL    HW260552   1.316   5.943   0.046  0.1227 -0.1498  0.6961
20555SOL     OW60553   0.395   7.799   3.660  0.4704 -0.5344 -0.4425
20555SOL    HW160554   0.412   7.846   3.573 -0.9509  0.1042 -0.3829
20555SOL    HW260555   0.297   7.787   3.673  0.7563 -2.2692  0.2256
20556SOL     OW60556   7.306   0.030   3.965 -0.5333 -0.4237  0.6151
20556SOL    HW160557   7.292  -0.061   3.925  1.8610 -0.0995 -1.0632
20556SOL    HW260558   7.311   0.098   3.892 -1.6939  0.9918  1.8278
20557SOL     OW60559   8.048   7.937   1.625 -0.1676 -0.1937 -0.8503
20557SOL    HW160560   8.069   8.011   1.690 -0.2067 -1.0977  0.2085
20557SOL    HW260561   8.071   7.967   1.533 -0.4979  1.2674 -0.4722
20558SOL     OW60562   1.907   3.051   0.343  0.1131 -0.6486 -0.2379
20558SOL    HW160563   1.983   2.997   0.378  1.1721  0.8196 -0.2459
20558SOL    HW260564   1.940   3.118   0.276 -1.1734 -0.0031 -0.2582
20560SOL     OW60565   5.473   1.803   0.365  0.3481  0.1335 -0.2169
20560SOL    HW160566   5.461   1.890   0.316  0.3231  0.7557  0.8703
20560SOL    HW260567   5.570   1.782   0.372  0.4504  0.8661  0.8348
20561SOL     OW60568   4.169   9.708   2.219  0.3139 -0.1243 -0.0697
20561SOL    HW160569   4.097   9.721   2.287  2.4910  1.9104  1.9397
20561SOL    HW260570   4.191   9.610   2.212 -0.3643 -0.4149  1.7225
20562SOL     OW60571   6.908   8.198   3.132 -0.2073  0.2139  0.4941
20562SOL    HW160572   6.837   8.176   3.200 -0.8304  0.1034 -0.1867
20562SOL    HW260573   6.867   8.201   3.041  0.5140  0.9610  0.1930
20563SOL     OW60574   7.430   6.127   0.303 -0.0928 -0.9150 -0.2869
20563SOL    HW160575   7.382   6.041   0.285  3.6122 -3.5674  1.5342
20563SOL    HW260576   7.426   6.147   0.401  0.6032 -0.0513 -0.4307
20564SOL     OW60577   1.370   6.045   2.964 -0.0081 -0.0554  0.1704
20564SOL    HW160578   1.284   6.023   2.919  1.4112 -1.7148 -1.8135
20564SOL    HW260579   1.359   6.036   3.063 -2.7270  2.0927  0.1115
20565SOL     OW60580   8.761   4.670   0.056 -0.1347  0.0281  0.4150
20565SOL    HW160581   8.836   4.645  -0.006  0.7314  1.3772  0.9018
20565SOL    HW260582   8.681   4.615   0.034  1.4505 -2.5677  0.8945
20566SOL     OW60583   1.045   7.780   3.345  0.1344  0.3915 -0.0242
20566SOL    HW160584   1.003   7.830   3.269  0.4604 -0.6884 -0.9384
20566SOL    HW260585   0.985   7.705   3.373  0.0173  0.7872  0.7930
20567SOL     OW60586   1.088   1.770   5.974 -0.6541  0.4402  0.2850
20567SOL    HW160587   1.040   1.806   5.894 -0.1533 -1.0455 -0.7040
20567SOL    HW260588   1.102   1.671   5.963  1.1411  0.5657  1.3181
20568SOL     OW60589   1.604   3.548   0.261 -0.3044  0.6166  0.2388
20568SOL    HW160590   1.649   3.510   0.342 -0.8423 -2.2818 -0.7715
20568SOL    HW260591   1.670   3.554   0.186 -0.7534 -0.2881 -0.2215
20570SOL     OW60592   8.556   6.998   2.486 -0.6534  0.2487  0.4671
20570SOL    HW160593   8.466   6.965   2.513 -0.7062 -0.0984 -0.1342
20570SOL    HW260594   8.551   7.095   2.464 -1.2361 -0.1638 -1.2440
20571SOL     OW60595   8.074   5.198   6.344 -0.1898 -0.2441 -0.1884
20571SOL    HW160596   8.142   5.262   6.311 -0.2197 -0.3412 -0.4370
20571SOL    HW260597   8.042   5.140   6.269  1.7892 -2.3605  0.5443
20572SOL     OW60598   2.933   7.724   0.194  0.1185  0.0619 -0.4178
20572SOL    HW160599   2.931   7.807   0.251  1.1680 -0.7335  0.8043
20572SOL    HW260600   2.841   7.704   0.162 -0.5110  0.4951  1.0557
20573SOL     OW60601   6.441   0.533   2.645 -0.6232  0.1283  0.0782
20573SOL    HW160602   6.538   0.552   2.664 -0.4126 -0.0682 -0.7946
20573SOL    HW260603   6.435   0.457   2.580 -1.2990  2.1606 -2.3101
20574SOL     OW60604   5.577   4.887   0.003  0.7508 -0.4140 -0.0222
20574SOL    HW160605   5.501   4.851   0.057  2.2421 -0.3952  2.1700
20574SOL    HW260606   5.649   4.920   0.064  2.1974  0.3089 -2.0391
20576SOL     OW60607   5.221   9.308   4.239  0.7322 -0.3696 -0.2854
20576SOL    HW160608   5.275   9.224   4.231  0.9451 -0.3081  0.4449
20576SOL    HW260609   5.136   9.289   4.288 -0.1316 -0.5599 -1.8438
20578SOL     OW60610   0.313   6.279   0.930  0.5396 -0.5816  0.2772
20578SOL    HW160611   0.284   6.310   0.839 -2.3099 -0.3095  1.2531
20578SOL    HW260612   0.282   6.185   0.945 -2.7860  0.7814  2.5532
20580SOL     OW60613   2.238   7.313   4.662  0.1909 -0.0607 -0.5403
20580SOL    HW160614   2.309   7.380   4.641 -0.1117 -0.3976 -2.7708
20580SOL    HW260615   2.280   7.223   4.675  0.4197  0.2196  0.6572
20582SOL     OW60616   2.519   1.601   3.447  0.6687  0.2518  0.2240
20582SOL    HW160617   2.525   1.631   3.352  1.0848  0.0691  0.1944
20582SOL    HW260618   2.485   1.508   3.451 -2.2066  1.2666  0.3881
20583SOL     OW60619   2.896   5.826   3.615  0.4256 -0.1551 -0.2692
20583SOL    HW160620   2.932   5.886   3.686 -0.9946 -0.1976  0.5215
20583SOL    HW260621   2.841   5.754   3.658 -1.1975  0.3385 -1.4612
20584SOL     OW60622   0.374   2.252   3.151 -0.2590  0.0718 -0.0550
20584SOL    HW160623   0.467   2.220   3.167  0.2385  1.1842 -0.7197
20584SOL    HW260624   0.337   2.208   3.069 -0.0601  0.1889 -0.2062
20585SOL     OW60625   2.928   4.884   4.580  0.2681  0.6084  0.0553
20585SOL    HW160626   2.872   4.848   4.654  1.2332  1.2077  1.1044
20585SOL    HW260627   3.023   4.893   4.611  1.1446 -1.1899 -1.9485
20586SOL     OW60628   2.218   1.096   4.298 -0.3153 -0.4371  0.2586
20586SOL    HW160629   2.196   1.126   4.391 -0.7729 -0.4064  0.1386
20586SOL    HW260630   2.160   1.019   4.273  1.2845 -1.8443  0.7943
20587SOL     OW60631   7.174   9.772   2.283  0.0360  0.0896  0.4078
20587SOL    HW160632   7.164   9.823   2.368 -0.0890  1.2252 -0.2718
20587SOL    HW260633   7.262   9.795   2.240 -1.7413  2.8414 -1.9027
20589SOL     OW60634   3.261   7.803   1.523  0.0761 -0.2967 -0.2398
20589SOL    HW160635   3.194   7.771   1.590  1.1289 -1.0401  0.4515
20589SOL    HW260636   3.316   7.727   1.490  3.0185  0.8183  1.8752
20590SOL     OW60637   0.511   5.122   2.916  0.1613 -0.3276 -0.1677
20590SOL    HW160638   0.427   5.155   2.957  0.8937  0.4978  0.6959
20590SOL    HW260639   0.557   5.059   2.980 -0.1902 -1.4005 -0.9564
20591SOL     OW60640   1.542   3.167   1.568  0.4442  0.5917 -1.1348
20591SOL    HW160641   1.594   3.177   1.483  0.4786  1.6281 -0.9896
20591SOL    HW260642   1.539   3.070   1.593  0.0413  0.2150 -2.5675
20592SOL     OW60643   0.475   0.955   4.772 -0.0598  0.3339  0.5928
20592SOL    HW160644   0.481   1.031   4.708  2.5741  0.2775  0.7398
20592SOL    HW260645   0.566   0.933   4.807 -0.7962 -2.7360  0.7136
20594SOL     OW60646   9.811   1.584   5.372 -0.0051 -0.0040  0.2209
20594SOL    HW160647   9.861   1.538   5.446  1.1407 -0.3320 -0.7549
20594SOL    HW260648   9.858   1.570   5.286  0.7157  3.5430 -0.0265
20595SOL     OW60649   9.604   9.995   1.493  0.8977 -0.4262  0.3884
20595SOL    HW160650   9.521  10.005   1.549 -0.0519  0.6953 -1.1644
20595SOL    HW260651   9.674   9.948   1.546  0.5707  1.9599  3.1085
20596SOL     OW60652   8.952   5.425   5.213  0.7626  0.3531  0.6381
20596SOL    HW160653   8.898   5.374   5.279 -0.8497  2.2214  0.8246
20596SOL    HW260654   8.963   5.371   5.129 -0.6863 -0.3986  0.9167
20597SOL     OW60655   6.538   0.574   0.883  0.4630 -0.8254  0.0365
20597SOL    HW160656   6.625   0.594   0.928  0.5106 -1.9707  0.4761
20597SOL    HW260657   6.555   0.513   0.805  0.0007 -1.4939  0.4533
20598SOL     OW60658   2.809   0.884   0.551 -0.0007  0.3416 -0.0226
20598SOL    HW160659   2.725   0.867   0.602  0.9602 -0.4166  1.3271
20598SOL    HW260660   2.802   0.840   0.461 -0.0249 -1.9784  1.0724
20599SOL     OW60661   8.446   9.354   5.051 -0.0992 -0.4994  0.5042
20599SOL    HW160662   8.532   9.315   5.018  0.1308 -0.8641  1.5152
20599SOL    HW260663   8.399   9.399   4.976  2.1469  1.8712  0.4483
20601SOL     OW60664   2.120   6.698   4.600  0.3548 -0.0758 -0.0156
20601SOL    HW160665   2.122   6.618   4.659 -0.3718 -1.1612 -1.4450
20601SOL    HW260666   2.100   6.779   4.655  0.9615 -0.8878  1.4139
20602SOL     OW60667   3.053   3.636   2.450 -0.0295 -0.3891  0.0360
20602SOL    HW160668   2.969   3.605   2.405  0.0588  0.3315 -0.6401
20602SOL    HW260669   3.042   3.731   2.478 -0.2255 -0.9562  1.9089
20604SOL     OW60670   3.576   8.133   6.136  0.4703  0.6565 -0.3363
20604SOL    HW160671   3.492   8.147   6.189  2.1479  0.6399  2.3967
20604SOL    HW260672   3.557   8.147   6.039 -1.9340  3.9937  0.5571
20606SOL     OW60673   1.470   2.252   1.513  0.1604  0.7368  0.0128
20606SOL    HW160674   1.504   2.313   1.442  0.2437  3.1856  2.1105
20606SOL    HW260675   1.544   2.229   1.576  0.0975 -1.4429 -0.6394
20607SOL     OW60676   1.261   4.421   4.643 -0.0570  0.1533 -0.3652
20607SOL    HW160677   1.220   4.358   4.577  1.2635 -0.1133 -0.9425
20607SOL    HW260678   1.320   4.485   4.596  0.3970  0.3707  0.4874
20608SOL     OW60679   9.343   3.748   0.413 -0.1643 -0.3497  0.5440
20608SOL    HW160680   9.246   3.724   0.421 -0.3865  0.8836  1.7794
20608SOL    HW260681   9.365   3.766   0.317 -0.6372 -2.6709 -0.0410
20609SOL     OW60682   1.525   5.741   1.718  0.3783  0.5194  0.0923
20609SOL    HW160683   1.437   5.698   1.740 -0.4640  2.3532  0.3618
20609SOL    HW260684   1.595   5.706   1.782 -0.5206  0.3736  1.0190
20610SOL     OW60685   4.694   5.395   3.537 -0.0422  0.5611 -0.5002
20610SOL    HW160686   4.685   5.459   3.461 -0.4299  1.4115  0.2424
20610SOL    HW260687   4.696   5.447   3.623 -0.8117 -0.4609  0.1393
20612SOL     OW60688   0.968   9.103   2.777  0.9995  0.0869 -0.3681
20612SOL    HW160689   1.022   9.122   2.695  2.5621  0.6255  0.7648
20612SOL    HW260690   0.993   9.014   2.814  0.7091  0.0945 -0.1580
20613SOL     OW60691   6.050   8.809   3.136  0.3507 -0.4323  0.2617
20613SOL    HW160692   6.121   8.874   3.109  0.3708 -1.5204 -2.4778
20613SOL    HW260693   5.969   8.859   3.168  1.4290  0.8528  1.0082
20614SOL     OW60694   7.118   6.866   6.172  0.2526 -0.0460  0.1743
20614SOL    HW160695   7.096   6.768   6.175 -1.4173  0.3590  2.3527
20614SOL    HW260696   7.181   6.888   6.247 -0.7070  0.8440  0.7325
20616SOL     OW60697   3.390   6.280   2.516  0.2181  0.1736  0.4359
20616SOL    HW160698   3.431   6.226   2.442 -2.3098 -0.9461 -0.2285
20616SOL    HW260699   3.314   6.333   2.479 -0.4168  0.3915  2.0428
20618SOL     OW60700   2.453   2.628   2.838  0.3980 -0.1212  0.0096
20618SOL    HW160701   2.356   2.619   2.814  0.3527 -2.7189  1.0481
20618SOL    HW260702   2.504   2.551   2.801  1.7143  0.1768  1.1565
20619SOL     OW60703   0.815   9.476   2.279  0.1067 -0.2145 -0.0170
20619SOL    HW160704   0.800   9.401   2.214  2.1653 -1.5163  0.9717
20619SOL    HW260705   0.732   9.532   2.284 -0.3156 -0.4277 -3.2921
20621SOL     OW60706   1.095   8.921   0.337 -0.3803  0.0409  0.0780
20621SOL    HW160707   1.041   8.850   0.291  2.5646 -1.3480 -1.3250
20621SOL    HW260708   1.070   9.010   0.300 -1.6120 -0.5730 -0.6241
20623SOL     OW60709   8.329   9.498   4.818 -0.2478  0.0877  0.3455
20623SOL    HW160710   8.363   9.592   4.819 -2.9426  1.1122 -1.0250
20623SOL    HW260711   8.386   9.444   4.755  1.0605  0.8736  0.8254
20624SOL     OW60712   0.805   9.366   5.632 -0.6816 -0.1167  0.0935
20624SOL    HW160713   0.835   9.448   5.681  2.0805 -1.3997  0.6751
20624SOL    HW260714   0.864   9.351   5.553 -1.4502 -1.3035 -0.2679
20625SOL     OW60715   4.191   3.529   1.843  0.6682  1.0187 -0.0768
20625SOL    HW160716   4.154   3.447   1.887  0.6132  0.6819 -0.7512
20625SOL    HW260717   4.131   3.607   1.862  0.0471  0.6436 -0.4759
20626SOL     OW60718   1.284   7.239   3.743  0.5774  0.1045 -0.3147
20626SOL    HW160719   1.299   7.337   3.754  1.3383 -0.0187 -0.2289
20626SOL    HW260720   1.305   7.192   3.829  0.4262 -0.1564 -0.4203
20628SOL     OW60721   2.777   2.225   1.232  0.3441  0.3682  0.2087
20628SOL    HW160722   2.683   2.244   1.203 -0.2515 -0.4799  1.5712
20628SOL    HW260723   2.814   2.305   1.280  0.3821  0.7519 -0.4440
20629SOL     OW60724   6.968   0.232   1.153 -0.1895 -0.7265 -0.2300
20629SOL    HW160725   6.930   0.193   1.069 -1.0708 -0.2191 -0.0723
20629SOL    HW260726   7.067   0.242   1.143 -0.3023 -0.5708 -1.2523
20630SOL     OW60727   4.214   3.565   3.466 -0.7795 -0.3509  0.4631
20630SOL    HW160728   4.174   3.512   3.540 -1.3916  0.4046  0.6832
20630SOL    HW260729   4.209   3.663   3.488 -1.6098 -0.0690 -0.8629
20631SOL     OW60730   1.845   9.488   1.185  0.7492 -0.1069  0.6392
20631SOL    HW160731   1.833   9.569   1.128  1.3220  1.2529  2.3948
20631SOL    HW260732   1.815   9.407   1.135  1.3025  1.0327 -1.5822
20632SOL     OW60733   7.839   2.954   6.113  0.1656 -1.0597 -0.1575
20632SOL    HW160734   7.861   3.009   6.033  1.1580 -0.2848  0.6208
20632SOL    HW260735   7.744   2.968   6.139 -0.3192 -1.7427 -1.5144
20633SOL     OW60736   8.057   8.555   3.704  0.7150 -0.0811 -0.6241
20633SOL    HW160737   8.057   8.626   3.774 -0.2335 -0.5741 -0.1147
20633SOL    HW260738   8.038   8.466   3.746  3.2571 -0.8716 -1.0540
20634SOL     OW60739   9.419   3.305   0.512 -0.1861  0.2119  0.2767
20634SOL    HW160740   9.348   3.273   0.450 -0.4270  0.5512  0.3761
20634SOL    HW260741   9.507   3.309   0.464  0.4655 -3.3909  1.0085
20636SOL     OW60742   8.822   9.765   0.617 -0.5428 -0.1164 -0.4526
20636SOL    HW160743   8.831   9.779   0.715 -1.8449 -0.5938 -0.2572
20636SOL    HW260744   8.912   9.772   0.574 -0.0930  1.0171  0.6470
20637SOL     OW60745   6.301   7.406   6.159  0.0088  0.0044 -0.0044
20637SOL    HW160746   6.301   7.456   6.245 -0.6029 -0.4169  0.2419
20637SOL    HW260747   6.208   7.383   6.134  0.2646 -0.7596 -0.2626
20638SOL     OW60748   2.567   3.162   0.609 -0.5452 -0.4465 -0.0887
20638SOL    HW160749   2.643   3.102   0.635 -0.8810 -0.6134  0.5150
20638SOL    HW260750   2.510   3.116   0.541 -0.1477 -0.3451 -0.4989
20641SOL     OW60751   3.155   7.700   3.732 -0.1032 -0.1188 -0.4008
20641SOL    HW160752   3.145   7.637   3.655 -0.2492 -1.4905  0.7240
20641SOL    HW260753   3.071   7.698   3.786  0.9127 -1.0342  1.1733
20643SOL     OW60754   1.306   5.478   6.425 -0.0485 -0.1394  0.0787
20643SOL    HW160755   1.357   5.528   6.495  2.6593 -0.4358 -1.6052
20643SOL    HW260756   1.282   5.387   6.460  1.7764 -0.5001  0.4201
20644SOL     OW60757   8.129   0.085   2.896  0.4147 -0.4363 -0.4165
20644SOL    HW160758   8.040   0.130   2.885  0.0952 -0.9427  0.0751
20644SOL    HW260759   8.148   0.073   2.994  0.7800 -0.8169 -0.5333
20646SOL     OW60760   4.642   0.936   3.604  0.1681 -0.5420  0.4551
20646SOL    HW160761   4.583   0.862   3.569 -1.0932  0.5956  0.1153
20646SOL    HW260762   4.648   0.929   3.703 -0.0978 -1.0171  0.4397
20647SOL     OW60763   8.001   2.378   2.115 -0.2534  0.1924 -0.2385
20647SOL    HW160764   7.979   2.351   2.022  0.2406 -1.0130 -0.0147
20647SOL    HW260765   8.042   2.470   2.115  1.7198 -0.6592 -1.4294
20648SOL     OW60766   3.386   3.515   3.526 -0.4159  0.3084 -0.1044
20648SOL    HW160767   3.441   3.597   3.540 -1.8696  0.7952  3.0510
20648SOL    HW260768   3.295   3.540   3.493 -0.7433 -0.0708  0.5096
20650SOL     OW60769   3.062   6.910   0.108  0.4999  0.1868  0.1533
20650SOL    HW160770   2.978   6.955   0.077  1.2021  0.4587 -1.4138
20650SOL    HW260771   3.110   6.872   0.029  1.9468  0.1899  1.0234
20651SOL     OW60772   9.934   7.206   2.555 -0.3988  0.0809 -0.1861
20651SOL    HW160773   9.866   7.137   2.580 -1.5956  1.8921  1.7394
20651SOL    HW260774   9.893   7.272   2.492 -0.4500  1.1213  0.9063
20652SOL     OW60775   6.064   5.294   0.622 -0.2518 -0.1771 -0.8944
20652SOL    HW160776   6.090   5.382   0.581  1.0800 -0.2009 -0.1185
20652SOL    HW260777   6.111   5.220   0.574  0.8982 -0.2450  0.3190
20653SOL     OW60778   8.302   0.775   4.757  0.8684  0.2554  0.4548
20653SOL    HW160779   8.400   0.758   4.766  0.6951 -0.8701  0.2323
20653SOL    HW260780   8.272   0.753   4.664  0.4223  0.7029  0.4883
20655SOL     OW60781   1.287   9.189   2.792 -0.0019  0.1887 -0.5883
20655SOL    HW160782   1.363   9.151   2.845  0.5216  0.8802 -0.8373
20655SOL    HW260783   1.215   9.221   2.855  1.4659  2.8193 -0.1693
20656SOL     OW60784   9.723   2.489   0.430  0.3199 -0.2003 -0.0602
20656SOL    HW160785   9.629   2.482   0.465  0.7200 -0.9187  0.9106
20656SOL    HW260786   9.766   2.399   0.433  0.9075  0.0440 -0.9058
20658SOL     OW60787   6.276   1.620   1.132 -0.7334  0.3269  0.7789
20658SOL    HW160788   6.328   1.553   1.078 -0.3270  0.8040  0.5661
20658SOL    HW260789   6.307   1.617   1.227  0.4197  1.3146  0.4536
20659SOL     OW60790   9.376   7.281   0.573 -0.2456  0.3019 -0.3079
20659SOL    HW160791   9.388   7.239   0.663  0.4769 -0.6515 -0.8409
20659SOL    HW260792   9.324   7.366   0.583 -0.4495  0.0435  0.9656
20660SOL     OW60793   0.323   1.110   1.863  1.0489  0.3669 -0.6769
20660SOL    HW160794   0.307   1.163   1.946  0.2358  0.6773 -1.0276
20660SOL    HW260795   0.410   1.061   1.871  1.5957  1.4180 -0.1837
20661SOL     OW60796   1.161   6.933   1.767 -0.6383 -0.0612  0.6426
20661SOL    HW160797   1.074   6.911   1.811 -2.6275  0.9344 -2.5860
20661SOL    HW260798   1.143   6.985   1.683  3.0421 -0.5893 -0.5422
20662SOL     OW60799   4.037   5.050   2.567  0.4973  0.6722 -0.0262
20662SOL    HW160800   4.034   5.115   2.491  0.2646  0.0927 -0.5148
20662SOL    HW260801   4.052   5.100   2.653  0.9003  1.3128 -0.4638
20663SOL     OW60802   1.634   0.233   0.068 -0.0003  0.6459  0.4451
20663SOL    HW160803   1.700   0.262   0.137 -1.8055 -2.2549  3.5549
20663SOL    HW260804   1.555   0.294   0.069 -0.1206  0.4810  1.1118
20664SOL     OW60805   7.816   9.027   4.501  0.0996  0.5116  0.6385
20664SOL    HW160806   7.737   9.018   4.561 -0.8293  1.6267 -0.4059
20664SOL    HW260807   7.881   8.953   4.521 -1.4555 -0.7582  1.1042
20665SOL     OW60808   1.253   1.117   0.143 -0.1677  0.4949  0.2774
20665SOL    HW160809   1.215   1.187   0.204 -0.5759  1.6688 -1.2916
20665SOL    HW260810   1.240   1.145   0.048  2.4761 -0.2375 -0.3366
20667SOL     OW60811   8.485   1.227   3.669  0.2534 -0.0032 -0.2612
20667SOL    HW160812   8.494   1.326   3.663  0.0658  0.0301 -0.0102
20667SOL    HW260813   8.479   1.200   3.765 -1.5877 -0.0875 -0.3899
20668SOL     OW60814   3.519   7.641   5.957 -0.2833  0.0085  0.1742
20668SOL    HW160815   3.464   7.608   6.034 -2.0539  0.1690 -1.0071
20668SOL    HW260816   3.547   7.735   5.974  1.2085 -0.6671  1.6163
20670SOL     OW60817   1.048   1.678   0.834  0.4778  0.1592  0.7198
20670SOL    HW160818   1.055   1.776   0.853  0.3782  0.3095  0.0246
20670SOL    HW260819   0.994   1.634   0.905  0.9782  0.5168  1.3249
20671SOL     OW60820   3.827   3.777   3.808  0.2317 -0.1143  0.4125
20671SOL    HW160821   3.739   3.731   3.794  0.3743 -0.4341  0.5746
20671SOL    HW260822   3.812   3.859   3.863 -0.0814  0.2513 -0.2077
20672SOL     OW60823   7.056   1.880   4.997 -0.0945 -0.3499 -0.5010
20672SOL    HW160824   6.982   1.888   5.064  0.5113  0.4822  0.0725
20672SOL    HW260825   7.059   1.962   4.941 -0.7084 -1.1115 -1.6786
20673SOL     OW60826   8.216   9.765   0.199  0.3042  0.1278 -0.1587
20673SOL    HW160827   8.177   9.840   0.252 -0.3744 -0.3287 -0.0099
20673SOL    HW260828   8.213   9.789   0.102  1.7548  1.0537  0.0191
20674SOL     OW60829   0.510   4.652   0.054 -0.2517 -0.2175 -0.2034
20674SOL    HW160830   0.574   4.626  -0.018 -0.2576  1.5787 -0.8798
20674SOL    HW260831   0.558   4.701   0.127 -0.5927 -0.2469  0.0470
20675SOL     OW60832   0.551   2.864   0.661 -0.3494  0.3143 -0.1715
20675SOL    HW160833   0.567   2.941   0.723 -0.7880  0.9151 -0.8018
20675SOL    HW260834   0.477   2.807   0.696  1.5716 -1.2107  1.5796
20677SOL     OW60835   4.765   9.355   4.145 -0.2993  0.1303  0.2002
20677SOL    HW160836   4.681   9.357   4.199 -0.8239  0.5517 -0.6091
20677SOL    HW260837   4.809   9.445   4.147  1.2951 -0.6749  2.3898
20679SOL     OW60838   1.650   2.970   3.218 -0.1981 -0.5545  0.5058
20679SOL    HW160839   1.711   3.021   3.278 -1.6568  2.4736 -0.5202
20679SOL    HW260840   1.555   2.981   3.250 -0.8082 -0.3084 -1.3471
20680SOL     OW60841   2.098   6.267   2.592  0.3886  0.5134  0.3165
20680SOL    HW160842   2.192   6.294   2.572 -0.3462  3.1169  0.2199
20680SOL    HW260843   2.041   6.280   2.511 -0.2618 -0.1193  0.6597
20681SOL     OW60844   0.974   3.944   1.126  0.0449 -0.1546 -0.1203
20681SOL    HW160845   0.965   3.878   1.200 -3.5077  2.0146  1.5332
20681SOL    HW260846   1.016   4.028   1.162 -2.0150  1.0355 -0.3673
20682SOL     OW60847   3.047   6.028   3.736  0.0775  0.4026  0.3288
20682SOL    HW160848   3.042   6.039   3.835 -0.9776 -2.8334  0.7204
20682SOL    HW260849   3.140   6.004   3.709  0.2119  0.5954  0.6283
20683SOL     OW60850   7.448   2.608   6.139 -0.3106  0.5577  0.0987
20683SOL    HW160851   7.542   2.586   6.115 -0.9433  0.4459 -2.4358
20683SOL    HW260852   7.447   2.668   6.220  1.8609 -0.2478  0.7527
20684SOL     OW60853   4.643   1.382   5.036 -0.2569 -0.2408  0.2919
20684SOL    HW160854   4.673   1.443   4.963  0.3848 -0.4281  0.4032
20684SOL    HW260855   4.601   1.436   5.110 -0.2973  0.0020  0.0899
20685SOL     OW60856   9.629   4.250   3.118  0.3051  0.3995  0.3508
20685SOL    HW160857   9.541   4.296   3.106 -0.0750 -0.4260 -0.0681
20685SOL    HW260858   9.646   4.189   3.041  0.1743 -1.1635  1.5308
20687SOL     OW60859   0.189   5.582   0.461 -0.3760 -0.2306  0.1384
20687SOL    HW160860   0.284   5.611   0.467  0.3118 -2.2650 -0.5578
20687SOL    HW260861   0.181   5.505   0.398 -2.4737 -0.1227  0.2296
20689SOL     OW60862   4.945   4.245   5.100 -0.0565  0.5329  1.0774
20689SOL    HW160863   4.963   4.324   5.160  0.9923  0.8078  0.4047
20689SOL    HW260864   4.994   4.165   5.135  0.5919  0.7038  0.5712
20691SOL     OW60865   0.449   6.760   3.536 -0.5724 -0.9440  0.3768
20691SOL    HW160866   0.529   6.757   3.476 -1.1192 -0.4609 -0.3779
20691SOL    HW260867   0.371   6.798   3.486 -1.5026 -2.2140  0.8447
20692SOL     OW60868   6.709   1.755   0.209 -0.1073  0.4639  0.1320
20692SOL    HW160869   6.768   1.674   0.202  2.0734  1.7984  2.3288
20692SOL    HW260870   6.652   1.748   0.291 -0.7173  0.6213 -0.2814
20693SOL     OW60871   2.190   5.501   1.736 -0.0180  0.4080 -0.2898
20693SOL    HW160872   2.204   5.414   1.783  0.0272  0.7503  0.3520
20693SOL    HW260873   2.104   5.499   1.686 -0.9514  0.6566  1.2745
20695SOL     OW60874   3.816   4.876   3.760  0.5438 -0.6469 -0.5327
20695SOL    HW160875   3.779   4.835   3.677  0.1432  0.0826 -0.7215
20695SOL    HW260876   3.831   4.974   3.745 -2.9513  0.2508  1.3983
20696SOL     OW60877   2.252   2.327   5.553  0.3392  0.3030 -0.0554
20696SOL    HW160878   2.155   2.349   5.548  0.2133  0.3072  1.9320
20696SOL    HW260879   2.275   2.296   5.646  1.9381 -1.0997 -0.8817
20697SOL     OW60880   1.140   3.388   4.803 -0.2683  0.4023 -0.0770
20697SOL    HW160881   1.225   3.345   4.772 -0.7443  0.2235 -1.1534
20697SOL    HW260882   1.157   3.485   4.823  0.0105  0.5729 -1.1076
20699SOL     OW60883   1.237   1.813   0.376 -0.0007  0.5976  0.0410
20699SOL    HW160884   1.240   1.818   0.277  0.1070  0.3601  0.0308
20699SOL    HW260885   1.198   1.897   0.413 -0.6714  0.4110 -0.2351
20700SOL     OW60886   2.494   9.414   4.165 -0.3340  0.0316 -0.2173
20700SOL    HW160887   2.493   9.419   4.065  1.5790  0.6101 -0.2241
20700SOL    HW260888   2.403   9.390   4.198 -1.1836  0.6511 -2.0595
20701SOL     OW60889   7.034   1.498   3.978 -0.4546 -0.1659  0.0551
20701SOL    HW160890   6.984   1.585   3.973  0.7401  0.5383 -0.0835
20701SOL    HW260891   6.994   1.432   3.914 -2.8008 -0.4859  1.8172
20702SOL     OW60892   0.302   3.241   1.858 -0.3202 -0.2867 -0.2463
20702SOL    HW160893   0.234   3.273   1.792 -1.4256 -0.6104  0.7210
20702SOL    HW260894   0.303   3.303   1.937  0.4750 -0.3068 -0.2403
20703SOL     OW60895   7.535   3.828   5.297 -0.0768 -0.5956 -0.0406
20703SOL    HW160896   7.573   3.918   5.278  0.4264 -0.7115  0.4358
20703SOL    HW260897   7.524   3.778   5.211 -1.7356  0.4681 -0.4712
20704SOL     OW60898   4.575   0.926   4.853  0.3690 -0.5145 -0.0939
20704SOL    HW160899   4.645   0.940   4.784  1.4157 -0.4354  0.9608
20704SOL    HW260900   4.553   1.013   4.897  1.2117 -0.8756  1.0770
20705SOL     OW60901   9.441   3.038   1.013  0.6169  0.0857  0.4467
20705SOL    HW160902   9.443   3.041   0.913  0.3892  0.5785  0.4570
20705SOL    HW260903   9.535   3.039   1.048  0.6797  0.7016  0.2606
20706SOL     OW60904   8.608   5.605   1.574 -0.4496 -1.1930  0.0800
20706SOL    HW160905   8.696   5.557   1.569  0.1433 -0.2433  1.1137
20706SOL    HW260906   8.535   5.538   1.590 -0.0417 -2.0777 -1.6134
20709SOL     OW60907   0.802   3.233   0.637 -0.4342  0.5080  0.0071
20709SOL    HW160908   0.715   3.225   0.685  0.0291  0.2575  0.8202
20709SOL    HW260909   0.806   3.168   0.562 -0.7095  0.0955  0.3486
20710SOL     OW60910   4.008   2.939   5.421  0.5738 -0.1215 -0.0677
20710SOL    HW160911   3.973   3.031   5.443 -1.3496 -0.7103 -0.5287
20710SOL    HW260912   3.952   2.871   5.469  0.8373 -1.1239 -1.1733
20711SOL     OW60913   3.651   9.325   1.211  0.5923 -0.4247 -0.1679
20711SOL    HW160914   3.643   9.239   1.159  0.0430 -0.8614  0.6268
20711SOL    HW260915   3.598   9.318   1.295  0.5731  0.6927 -0.0806
20713SOL     OW60916   2.735   8.315   4.551  0.3619  0.0339  0.3411
20713SOL    HW160917   2.709   8.385   4.617  0.7986  0.4503  0.0735
20713SOL    HW260918   2.805   8.256   4.590  1.0596  0.6523  0.0348
20717SOL     OW60919   7.576   1.671   2.655  0.2832  0.6250 -0.3318
20717SOL    HW160920   7.610   1.612   2.728  0.6805  0.3037 -0.7776
20717SOL    HW260921   7.490   1.635   2.620  0.8946 -0.1112 -1.1105
20719SOL     OW60922   0.560   2.223   4.360 -0.1484  0.4488 -0.2292
20719SOL    HW160923   0.510   2.165   4.295  1.9643 -2.0334  0.2576
20719SOL    HW260924   0.504   2.302   4.384 -2.6146 -0.7080 -1.9270
20720SOL     OW60925   2.372   8.891   5.570 -0.4117  0.3485  0.5101
20720SOL    HW160926   2.466   8.865   5.545 -0.2706  1.2495  0.0461
20720SOL    HW260927   2.319   8.809   5.590  0.1373 -0.2622 -0.4549
20721SOL     OW60928   7.634   2.604   3.767 -0.2965  0.5921  0.0452
20721SOL    HW160929   7.670   2.512   3.782 -2.1280  0.0269  1.0727
20721SOL    HW260930   7.705   2.661   3.726  1.3021 -0.8893  0.6964
20722SOL     OW60931   0.030   3.032   2.838 -0.3651  0.0706  0.3848
20722SOL    HW160932   0.046   3.044   2.936  0.9475  0.0771  0.1747
20722SOL    HW260933   0.091   3.091   2.786 -0.4428 -0.5786 -0.4634
20723SOL     OW60934   4.336   4.878   2.959 -0.2498  0.4199  0.6746
20723SOL    HW160935   4.282   4.825   3.024  0.3272 -0.5134  0.4129
20723SOL    HW260936   4.433   4.853   2.968  0.0815  1.7071  0.8026
20724SOL     OW60937   6.669   7.892   3.582  0.4449  0.6061  0.5160
20724SOL    HW160938   6.661   7.956   3.659  0.0044 -1.4346  2.2194
20724SOL    HW260939   6.708   7.939   3.503  0.7499  2.7970  1.9389
20726SOL     OW60940   9.768   5.155   4.244 -0.0823  0.1028 -0.1145
20726SOL    HW160941   9.748   5.247   4.279  0.6614  0.6699 -1.1460
20726SOL    HW260942   9.863   5.152   4.212 -0.6425 -0.4883 -1.7687
20728SOL     OW60943   6.223   9.035   3.066  0.3313 -0.5810  0.0737
20728SOL    HW160944   6.281   9.097   3.119  1.1880 -0.6283 -0.7959
20728SOL    HW260945   6.128   9.064   3.073  0.4975 -0.3134  1.2563
20731SOL     OW60946   9.901   6.127   6.072 -0.1012  0.1029 -0.0423
20731SOL    HW160947   9.848   6.076   6.140  0.0099 -0.2447 -0.2132
20731SOL    HW260948   9.973   6.068   6.036  0.4498  0.5966  0.2454
20732SOL     OW60949   6.505   8.377   2.848  0.0876  0.0182  0.2941
20732SOL    HW160950   6.495   8.281   2.821  0.5193  0.0172  0.1290
20732SOL    HW260951   6.437   8.432   2.800  0.2500 -0.1156 -0.0914
20733SOL     OW60952   3.824   4.842   4.174 -0.0754 -0.7637  0.2406
20733SOL    HW160953   3.810   4.919   4.237 -1.5780 -0.0969 -0.8693
20733SOL    HW260954   3.782   4.760   4.212 -2.0284 -0.0978 -0.3689
20734SOL     OW60955   5.620   9.549   4.680 -0.3640  0.2864 -0.1381
20734SOL    HW160956   5.596   9.452   4.671 -0.0273  0.3068 -1.4336
20734SOL    HW260957   5.561   9.604   4.620 -1.1108  0.9802  1.2116
20735SOL     OW60958   0.485   2.707   0.986  0.0412 -0.3583  0.4250
20735SOL    HW160959   0.557   2.767   1.020  0.7761 -0.8203 -0.2958
20735SOL    HW260960   0.512   2.611   0.998  0.4006 -0.5392 -1.5949
20736SOL     OW60961   2.760   1.982   6.456 -0.1785 -0.0237 -0.0891
20736SOL    HW160962   2.720   1.897   6.423  0.4620 -0.5160  0.3960
20736SOL    HW260963   2.858   1.970   6.472 -0.2073  0.6022  0.6209
20737SOL     OW60964   2.081   9.715   2.411  0.3969 -0.4036 -0.0119
20737SOL    HW160965   2.125   9.804   2.424  1.6998 -0.8648 -1.1379
20737SOL    HW260966   2.134   9.661   2.345 -1.8751 -0.9718 -1.4439
20738SOL     OW60967   2.263   8.128   5.228 -0.4540  0.2442 -0.0487
20738SOL    HW160968   2.188   8.178   5.271 -0.5708  0.4375 -0.4723
20738SOL    HW260969   2.265   8.149   5.130  0.4860  0.6685  0.0502
20740SOL     OW60970   1.440   0.655   0.170  0.5315 -0.1564  0.2486
20740SOL    HW160971   1.502   0.638   0.094  2.1482  1.1185  1.2262
20740SOL    HW260972   1.413   0.568   0.211 -0.0167 -0.8287 -1.4955
20741SOL     OW60973   7.262   4.969   0.490 -0.2765 -0.3231  0.0077
20741SOL    HW160974   7.164   4.947   0.490 -0.2638 -0.4116  1.3407
20741SOL    HW260975   7.292   4.986   0.584  1.0929 -0.7535 -0.3467
20742SOL     OW60976   6.766   0.629   4.140  0.8085  0.7184 -0.5570
20742SOL    HW160977   6.861   0.658   4.147  0.3096  2.3414 -0.2331
20742SOL    HW260978   6.758   0.533   4.167  2.5442  0.1664 -1.8845
20746SOL     OW60979   0.233   7.067   5.886 -0.5066  0.4033 -0.1094
20746SOL    HW160980   0.190   7.113   5.809 -1.1121 -0.8010 -0.4975
20746SOL    HW260981   0.219   6.969   5.878 -0.2572  0.2403  1.3421
20747SOL     OW60982   9.353   1.252   4.266 -0.7729  0.0233 -0.2196
20747SOL    HW160983   9.360   1.169   4.210  0.7199 -0.8358  1.2008
20747SOL    HW260984   9.305   1.231   4.351  1.1914  0.1836  0.9416
20748SOL     OW60985   2.745   8.997   0.281 -0.8329 -0.4477 -0.3339
20748SOL    HW160986   2.831   8.962   0.319 -1.2541 -0.3018  0.7473
20748SOL    HW260987   2.702   9.060   0.346 -1.9800 -0.8575 -0.6796
20749SOL     OW60988   7.400   4.730   1.316 -0.1093 -0.2140  0.1380
20749SOL    HW160989   7.448   4.756   1.231  1.4999  0.4915  1.2255
20749SOL    HW260990   7.371   4.812   1.364 -3.1577 -0.6408 -0.8592
20750SOL     OW60991   9.050   0.265   2.283 -0.0179 -0.0948 -0.4941
20750SOL    HW160992   9.126   0.257   2.347  0.4510 -0.4364 -1.0920
20750SOL    HW260993   8.965   0.281   2.334  0.4511  0.3034  0.1746
20752SOL     OW60994   5.332   9.383   2.899  0.0724 -0.4049  0.0365
20752SOL    HW160995   5.294   9.416   2.813 -0.2917 -0.1180  0.3025
20752SOL    HW260996   5.281   9.302   2.930  1.0529 -1.3029 -0.6838
20753SOL     OW60997   7.436   2.478   0.070 -0.2812  0.0769 -0.1309
20753SOL    HW160998   7.527   2.517   0.085 -0.4086  0.0155  0.8118
20753SOL    HW260999   7.432   2.385   0.107 -0.4561 -0.2559 -0.9760
20756SOL     OW61000   3.810   2.181   0.403  0.5060 -0.3464 -0.7178
20756SOL    HW161001   3.902   2.203   0.435 -0.9431  0.5010  3.2876
20756SOL    HW261002   3.781   2.094   0.444 -0.9510  0.0936 -0.7960
20757SOL     OW61003   1.328   4.589   0.967 -0.0417 -0.1963 -0.2247
20757SOL    HW161004   1.398   4.536   1.016 -0.7157  0.0646  1.0527
20757SOL    HW261005   1.300   4.538   0.886 -0.2962 -1.5701  0.6946
20758SOL     OW61006   2.693   6.580   3.271  0.0411 -0.0665 -0.6604
20758SOL    HW161007   2.704   6.544   3.364  1.5615 -0.5067 -0.9904
20758SOL    HW261008   2.657   6.673   3.275  0.0750 -0.0936  0.3766
20759SOL     OW61009   1.975   9.978   2.029 -0.1510 -0.9207  0.0832
20759SOL    HW161010   1.916  10.012   1.955 -0.7402  0.2039  1.0580
20759SOL    HW261011   1.968  10.039   2.108  4.1279  0.5988 -0.5808
20760SOL     OW61012   5.060   5.231   1.645  0.1930 -0.0662  0.0041
20760SOL    HW161013   5.154   5.243   1.677  0.8257 -1.8142 -1.1636
20760SOL    HW261014   5.034   5.311   1.591  1.3632  0.0134 -0.4753
20761SOL     OW61015   0.845   7.269   3.275 -0.3997 -0.2886 -0.7352
20761SOL    HW161016   0.760   7.317   3.254  1.1282  2.7481 -0.2569
20761SOL    HW261017   0.878   7.223   3.193 -2.2631 -1.1272 -1.0399
20763SOL     OW61018   1.179   5.514   2.156  0.2576 -0.2509  0.0829
20763SOL    HW161019   1.158   5.555   2.067  1.7681 -0.3432 -0.3434
20763SOL    HW261020   1.264   5.553   2.191  0.9541 -1.9633  0.3464
20764SOL     OW61021   1.560   2.833   2.319 -0.1801 -0.0664 -0.1830
20764SOL    HW161022   1.482   2.893   2.339 -0.4438 -0.6045  0.4182
20764SOL    HW261023   1.560   2.756   2.383  0.7060 -0.2006 -0.3449
20765SOL     OW61024   1.327   0.150   1.568 -0.1333  0.2634 -0.0061
20765SOL    HW161025   1.419   0.167   1.603  0.5879  0.2507 -1.8727
20765SOL    HW261026   1.326   0.063   1.519 -1.4488 -0.3482  1.0821
20766SOL     OW61027   1.450   7.871   1.382 -0.4085  0.7799 -0.2627
20766SOL    HW161028   1.367   7.814   1.385  0.0205  0.0921 -1.1241
20766SOL    HW261029   1.428   7.963   1.412 -1.7042  0.8343 -1.3175
20768SOL     OW61030   3.197   5.854   5.198 -0.3246  0.8647  0.5459
20768SOL    HW161031   3.254   5.876   5.277  0.8571 -0.4712  0.0820
20768SOL    HW261032   3.207   5.926   5.129 -0.6918  1.5924  1.2447
20769SOL     OW61033   9.001   9.146   4.713  0.3495 -0.5269  0.4400
20769SOL    HW161034   8.910   9.105   4.709 -0.0570  0.4364 -0.2819
20769SOL    HW261035   9.006   9.224   4.650  1.8269 -0.8819  0.0878
20770SOL     OW61036   5.903   0.027   4.151  0.1604  0.1573  0.1693
20770SOL    HW161037   5.934  -0.056   4.199 -0.4407  0.2167  0.6582
20770SOL    HW261038   5.883   0.099   4.218 -0.2200  0.3963 -0.2003
20771SOL     OW61039   7.957   1.460   1.068 -0.5726 -0.0271  0.2532
20771SOL    HW161040   8.028   1.519   1.106 -0.0401 -0.9112  0.6363
20771SOL    HW261041   7.986   1.364   1.073 -1.4899 -0.3404 -0.2326
20772SOL     OW61042   7.846   2.367   0.492 -0.1646 -0.4976 -0.7377
20772SOL    HW161043   7.843   2.291   0.557 -0.6967 -1.7682 -2.1790
20772SOL    HW261044   7.768   2.427   0.506 -1.0467 -1.5446 -1.0918
20774SOL     OW61045   5.622   7.586   4.300 -0.0347 -0.3774 -0.1163
20774SOL    HW161046   5.538   7.610   4.250 -0.8101  1.7394  2.1099
20774SOL    HW261047   5.697   7.643   4.267 -0.8280  1.9224  1.9152
20775SOL     OW61048   5.624   2.755   0.636  0.0863 -0.2935 -0.2493
20775SOL    HW161049   5.667   2.768   0.547  2.1114 -1.3066  0.5354
20775SOL    HW261050   5.617   2.657   0.655  0.9366 -0.0774  1.2722
20776SOL     OW61051   2.270   3.399   6.310  0.0633  0.0663  0.3347
20776SOL    HW161052   2.202   3.403   6.383 -0.6415 -2.6539 -0.0841
20776SOL    HW261053   2.237   3.337   6.238  1.5955  1.1841 -1.3684
20777SOL     OW61054   8.214   0.075   4.236 -0.2024  0.0667  0.2054
20777SOL    HW161055   8.220   0.156   4.294  0.9660  0.6644 -0.7334
20777SOL    HW261056   8.298   0.065   4.183 -0.3149 -1.7721  0.3161
20778SOL     OW61057   3.474   5.041   0.479  0.2537  0.5789  0.4151
20778SOL    HW161058   3.444   5.012   0.570 -2.5160 -0.1877 -0.7018
20778SOL    HW261059   3.449   5.136   0.464  0.8412  0.7489  0.5027
20779SOL     OW61060   9.348   6.249   1.543 -0.1886 -0.0431 -0.2927
20779SOL    HW161061   9.347   6.246   1.443  2.7399  1.6833 -0.4361
20779SOL    HW261062   9.420   6.188   1.578 -1.1789 -0.6190  0.7539
20781SOL     OW61063   8.596   7.045   0.658 -0.1764 -0.4427 -0.4457
20781SOL    HW161064   8.672   7.075   0.717  0.8654 -3.0471 -0.4210
20781SOL    HW261065   8.589   7.108   0.580  0.8397  0.8781  0.4910
20782SOL     OW61066   2.493   7.222   5.910 -0.7667 -0.5581  0.1826
20782SOL    HW161067   2.569   7.269   5.954 -0.6958 -0.7174  0.2278
20782SOL    HW261068   2.503   7.228   5.811 -1.3732  0.5406  0.1722
20784SOL     OW61069   7.620   1.813   2.205 -0.9666  0.7091  0.4796
20784SOL    HW161070   7.592   1.880   2.274 -2.4420 -0.6594  1.2386
20784SOL    HW261071   7.697   1.760   2.239 -0.6403  1.1234  0.3992
20785SOL     OW61072   6.923   7.052   6.049 -0.0512 -0.3903 -0.3801
20785SOL    HW161073   7.005   7.015   6.093  0.3076 -1.6574 -2.0687
20785SOL    HW261074   6.842   7.005   6.086  0.1261 -0.4263 -0.0340
20786SOL     OW61075   8.109   3.280   0.174 -0.2449 -0.0837  0.0140
20786SOL    HW161076   8.120   3.252   0.269  0.9143 -1.0846 -0.4075
20786SOL    HW261077   8.015   3.264   0.145 -0.0939 -1.7181  0.3762
20787SOL     OW61078   9.455   5.471   0.151 -0.1864 -0.3353 -0.5434
20787SOL    HW161079   9.468   5.563   0.115 -1.1052 -0.2435 -0.6468
20787SOL    HW261080   9.464   5.472   0.250  1.0188 -0.3565 -0.6406
20788SOL     OW61081   3.794   5.708   3.397 -0.1831 -0.4163 -0.3172
20788SOL    HW161082   3.802   5.612   3.425  0.6463 -0.3309 -0.2343
20788SOL    HW261083   3.756   5.713   3.305 -1.3395 -0.7722  0.1404
20790SOL     OW61084   0.845   5.043   1.425  0.1031 -0.3201  0.1057
20790SOL    HW161085   0.801   5.069   1.511  0.4324  1.5563 -0.2589
20790SOL    HW261086   0.808   5.099   1.351  1.4798 -0.2922 -0.5721
20791SOL     OW61087   8.421   0.412   0.228 -0.0969  0.0324  0.6249
20791SOL    HW161088   8.474   0.474   0.170  0.0930  0.6944  1.5006
20791SOL    HW261089   8.447   0.317   0.207  1.4610  0.3501  1.0467
20792SOL     OW61090   1.841   9.151   2.977  0.4194  0.2003 -0.6469
20792SOL    HW161091   1.796   9.222   3.031  1.8664  1.8746 -1.6059
20792SOL    HW261092   1.815   9.160   2.881 -1.1441 -1.9853 -0.4654
20793SOL     OW61093   0.634   6.909   0.415  0.1261  0.0740 -0.3326
20793SOL    HW161094   0.561   6.889   0.350 -1.1027  1.1514  0.6680
20793SOL    HW261095   0.723   6.893   0.372 -0.6731  0.1256 -2.0481
20794SOL     OW61096   9.198   6.289   0.992 -0.1886 -0.2676 -0.3068
20794SOL    HW161097   9.162   6.373   0.953 -0.0880 -0.1156 -0.0748
20794SOL    HW261098   9.296   6.283   0.973  0.1017  0.3864  0.9402
20795SOL     OW61099   2.273   7.859   5.284  0.9655 -0.0073 -0.2408
20795SOL    HW161100   2.220   7.855   5.369 -0.4284 -2.1316 -1.1642
20795SOL    HW261101   2.278   7.953   5.252 -2.7969  0.1774 -0.4425
20796SOL     OW61102   0.981   9.698   6.194 -0.5164 -0.2485  0.4774
20796SOL    HW161103   1.045   9.669   6.123  0.6176 -0.1333  1.4221
20796SOL    HW261104   1.012   9.660   6.282 -2.0889 -0.6878  0.8490
20797SOL     OW61105   9.187   6.143   0.298  0.3780  0.2696  0.2770
20797SOL    HW161106   9.231   6.171   0.212  0.4928  1.5719  0.7537
20797SOL    HW261107   9.134   6.059   0.282 -0.2943  0.9585 -1.2655
20799SOL     OW61108   0.473   1.784   2.853  0.4563  0.0965 -0.1513
20799SOL    HW161109   0.571   1.798   2.837  0.6229  0.5862  1.2903
20799SOL    HW261110   0.454   1.781   2.951 -0.9723 -0.0342 -0.4133
20800SOL     OW61111   1.029   3.402   5.935  0.1807 -0.0099 -0.0362
20800SOL    HW161112   0.944   3.416   5.985  1.5198  0.5618  2.1905
20800SOL    HW261113   1.104   3.387   6.000  2.2509  2.1591 -1.7942
20801SOL     OW61114   8.106   7.723   4.733  0.3147  0.0372 -0.1760
20801SOL    HW161115   8.137   7.718   4.828  0.2681 -0.3362 -0.1790
20801SOL    HW261116   8.184   7.708   4.672  0.1822 -0.6285 -0.1857
20802SOL     OW61117   1.679   0.090   4.816 -0.2735 -0.3573 -0.0505
20802SOL    HW161118   1.579   0.086   4.823 -0.2795 -0.5842 -0.2717
20802SOL    HW261119   1.719   0.085   4.907 -0.5967  3.2226  0.3732
20804SOL     OW61120   8.888   0.993   2.058 -0.1368 -0.1132  0.1775
20804SOL    HW161121   8.922   1.049   1.982  0.7768 -0.3476  0.4078
20804SOL    HW261122   8.923   1.030   2.144  0.5235 -1.0818  0.3237
20805SOL     OW61123   4.649   4.127   5.016 -0.8746 -0.3138  0.2282
20805SOL    HW161124   4.595   4.084   5.090 -0.0878  1.0556  1.6179
20805SOL    HW261125   4.742   4.142   5.048  0.0869 -1.7511 -1.8348
20808SOL     OW61126   2.938   5.109   1.171 -0.0902  0.0271 -0.0355
20808SOL    HW161127   2.998   5.044   1.216 -0.3890  1.1535  2.0553
20808SOL    HW261128   2.844   5.075   1.174  0.3791 -1.7667 -3.3635
20809SOL     OW61129   7.212   3.039   6.242  0.0322 -0.5479  0.0887
20809SOL    HW161130   7.265   2.999   6.317 -0.5910 -0.8208  0.3914
20809SOL    HW261131   7.146   2.971   6.208  1.1663 -0.8540 -1.5488
20810SOL     OW61132   2.419   5.587   2.307 -0.2772  0.4570  0.1728
20810SOL    HW161133   2.441   5.506   2.253  1.1095  2.0594 -1.7283
20810SOL    HW261134   2.340   5.633   2.268 -0.6081  0.4382  0.8108
20811SOL     OW61135   2.380   9.506   5.130 -0.0028  0.3480 -0.1006
20811SOL    HW161136   2.290   9.541   5.105  0.3155  0.1720 -1.5284
20811SOL    HW261137   2.429   9.478   5.047  2.0878  2.1707  0.4878
20813SOL     OW61138   7.277   9.228   4.425 -0.3704  0.4352 -0.0840
20813SOL    HW161139   7.239   9.272   4.344 -1.1873 -1.4174 -0.7413
20813SOL    HW261140   7.203   9.205   4.488 -0.2392 -2.1555 -0.8427
20814SOL     OW61141   1.219   5.296   5.100 -0.1659  0.9353  0.5226
20814SOL    HW161142   1.193   5.241   5.179 -0.8188  3.2151  1.9630
20814SOL    HW261143   1.318   5.303   5.095 -0.1134  0.4340  0.9173
20815SOL     OW61144   8.413   2.697   1.791 -0.0318  0.5368  0.8677
20815SOL    HW161145   8.314   2.696   1.772 -0.0320 -2.2142  0.7094
20815SOL    HW261146   8.463   2.684   1.705  0.3767 -0.4208  1.2435
20817SOL     OW61147   9.908   4.398   4.059 -0.1386 -0.3580  0.5287
20817SOL    HW161148   9.818   4.390   4.102 -0.7171  1.7216 -0.2512
20817SOL    HW261149   9.973   4.437   4.124 -0.8452  2.1318 -0.2310
20818SOL     OW61150   9.883   5.968   2.327 -0.5167 -0.0491 -0.8843
20818SOL    HW161151   9.790   5.942   2.300 -0.1600 -2.0472 -0.2803
20818SOL    HW261152   9.948   5.900   2.290  0.5856  0.6953 -0.3339
20819SOL     OW61153   0.904   1.961   4.483 -0.2754 -0.0661  0.3047
20819SOL    HW161154   0.969   1.912   4.425  0.6668  1.2135  0.2689
20819SOL    HW261155   0.910   1.926   4.576  0.7141  0.2780  0.3752
20820SOL     OW61156   1.734   5.563   4.061  0.4990 -0.9742  0.4737
20820SOL    HW161157   1.695   5.579   3.970  1.0018 -0.8383  0.2861
20820SOL    HW261158   1.677   5.495   4.110 -0.7541  0.2146  0.7073
20821SOL     OW61159   4.999   1.188   0.007 -0.3100 -0.4209 -0.0942
20821SOL    HW161160   4.974   1.270   0.058  1.1707 -0.0727  0.0963
20821SOL    HW261161   5.059   1.213  -0.069  0.6632 -1.3918  0.3370
20822SOL     OW61162   1.906   5.547   0.593  0.8306 -0.0079  0.0949
20822SOL    HW161163   1.921   5.577   0.499 -0.5833 -1.4373 -0.6027
20822SOL    HW261164   1.824   5.591   0.630 -0.9029 -2.4422 -0.7262
20823SOL     OW61165   9.603   9.624   4.539  0.3490 -0.0570 -0.1234
20823SOL    HW161166   9.574   9.638   4.634 -0.2969  0.3218 -0.3751
20823SOL    HW261167   9.554   9.545   4.501  0.7801 -0.3533 -0.0705
20825SOL     OW61168   4.817   8.212   1.866  0.2456 -0.3430 -0.0980
20825SOL    HW161169   4.781   8.292   1.820 -0.6436 -0.7346 -0.1019
20825SOL    HW261170   4.876   8.160   1.804 -0.2493 -0.4018 -0.5189
20826SOL     OW61171   9.517   1.227   5.705 -0.4965  0.2538  0.2532
20826SOL    HW161172   9.440   1.195   5.759 -0.2592  0.6581  0.8463
20826SOL    HW261173   9.514   1.186   5.614 -0.6378 -0.8153  0.7265
20827SOL     OW61174   1.614   0.419   4.318  0.5573 -0.2285  0.1103
20827SOL    HW161175   1.694   0.476   4.337  0.9848 -1.4572  2.1347
20827SOL    HW261176   1.643   0.325   4.298 -0.3253 -0.4777 -0.0543
20828SOL     OW61177   5.942   1.881   4.978  0.1244 -0.1879 -0.2312
20828SOL    HW161178   5.877   1.892   4.902  0.3719  1.1955 -0.2505
20828SOL    HW261179   5.959   1.784   4.992 -1.0636 -0.5275 -0.9862
20830SOL     OW61180   7.646   1.864   5.128 -0.2447  0.2077  0.5238
20830SOL    HW161181   7.617   1.877   5.033  0.1984  1.5544  0.5633
20830SOL    HW261182   7.613   1.941   5.183  0.7843  0.1928  1.1649
20833SOL     OW61183   9.464   7.960   0.356  0.0546 -0.0659 -0.4022
20833SOL    HW161184   9.476   7.963   0.257 -0.6507  2.6424 -0.4683
20833SOL    HW261185   9.471   8.053   0.393 -0.7600 -0.8925  1.9495
20834SOL     OW61186   4.388   2.232   2.119 -0.4710 -0.3451 -0.0132
20834SOL    HW161187   4.370   2.134   2.125 -0.7363 -0.2485  0.8092
20834SOL    HW261188   4.311   2.282   2.158  0.1680  0.1535  0.6241
20835SOL     OW61189   8.995   6.553   1.975 -0.1602  0.2346  0.2244
20835SOL    HW161190   9.018   6.459   2.002 -0.5435  0.7089  2.3018
20835SOL    HW261191   8.932   6.551   1.898  1.4464 -1.1785 -1.0848
20836SOL     OW61192   0.751   1.062   5.802 -0.1109  0.0325  0.6018
20836SOL    HW161193   0.800   1.118   5.735 -0.9169  0.4775  0.3782
20836SOL    HW261194   0.793   0.971   5.807  1.7702  0.9164  1.6022
20837SOL     OW61195   2.253   1.831   2.262  0.4648  0.0075  0.6887
20837SOL    HW161196   2.323   1.886   2.308  0.6219  0.4017 -0.0176
20837SOL    HW261197   2.283   1.736   2.258  0.3717 -0.0623  1.5538
20838SOL     OW61198   2.597   4.169   6.103  0.2294 -0.3770  0.2283
20838SOL    HW161199   2.680   4.113   6.106  0.4793  0.0451  1.1906
20838SOL    HW261200   2.559   4.177   6.195 -0.2219  0.4168 -0.0268
20839SOL     OW61201   5.673   3.683   0.560 -0.5478  0.2616 -0.1033
20839SOL    HW161202   5.630   3.595   0.541  0.1031 -0.2184  0.6157
20839SOL    HW261203   5.659   3.707   0.656  0.7459  0.1072  0.1396
20840SOL     OW61204   0.747   1.904   1.460  0.5654  0.2812 -0.1546
20840SOL    HW161205   0.772   1.934   1.552 -1.3051  1.2925  0.0732
20840SOL    HW261206   0.714   1.810   1.463 -0.8819  0.7901  0.4908
20844SOL     OW61207   9.256   9.839   3.686  0.1519 -0.4297  0.2548
20844SOL    HW161208   9.212   9.919   3.645 -0.6358 -0.9283  0.1202
20844SOL    HW261209   9.331   9.808   3.627  1.4499  1.1125  1.0495
20845SOL     OW61210   8.349   7.412   2.276 -0.4344 -0.1185  0.4023
20845SOL    HW161211   8.337   7.423   2.375  2.4779 -0.8167  0.8665
20845SOL    HW261212   8.319   7.320   2.250  2.0586 -1.1933  1.2359
20846SOL     OW61213   3.667   7.044   5.914 -0.1445  0.2745  0.2921
20846SOL    HW161214   3.723   6.961   5.914  1.1238  1.1272  0.8959
20846SOL    HW261215   3.581   7.026   5.963  0.4327 -0.4766  1.0453
20847SOL     OW61216   4.089   5.973   0.285 -0.3298  0.1141  0.1832
20847SOL    HW161217   4.135   5.920   0.357  0.5311 -0.8563 -1.0626
20847SOL    HW261218   4.028   5.913   0.233 -1.2145  0.8880  0.2959
20848SOL     OW61219   3.030   9.278   4.789 -0.3310  0.7744  0.3013
20848SOL    HW161220   3.085   9.329   4.856  0.8633  0.1807 -0.2089
20848SOL    HW261221   3.059   9.303   4.697  0.2047 -0.7455  0.0451
20849SOL     OW61222   8.535   4.083   2.672  0.1005  0.0824  0.0786
20849SOL    HW161223   8.523   4.010   2.740 -0.6983  0.5895  0.4924
20849SOL    HW261224   8.529   4.172   2.718 -2.9800  0.5004 -0.9947
20851SOL     OW61225   6.607   0.792   4.701  0.1950 -0.2710  0.4836
20851SOL    HW161226   6.515   0.830   4.685 -0.0574 -0.8439  0.5455
20851SOL    HW261227   6.666   0.814   4.624  0.7314  2.2835  1.5720
20852SOL     OW61228   7.036   5.594   0.599  0.1837  0.0480 -0.0248
20852SOL    HW161229   7.023   5.502   0.563  2.1025 -0.4354  0.4893
20852SOL    HW261230   7.064   5.656   0.526 -0.1092  0.0104 -0.1701
20853SOL     OW61231   6.576   0.322   4.414 -0.2226 -0.1958  0.3928
20853SOL    HW161232   6.546   0.261   4.488 -1.1685 -2.4845 -1.8097
20853SOL    HW261233   6.565   0.276   4.326  0.1083  2.7743 -1.2744
20854SOL     OW61234   3.002   5.573   4.897 -0.2025  0.4038 -0.0324
20854SOL    HW161235   3.032   5.531   4.812  0.1875 -0.5245  0.5574
20854SOL    HW261236   2.946   5.653   4.877  1.7426  1.5156 -1.1561
20855SOL     OW61237   2.074   9.311   2.929  0.0674 -0.0179  0.5687
20855SOL    HW161238   1.982   9.338   2.957  0.6248  1.8791  0.6408
20855SOL    HW261239   2.069   9.253   2.848 -1.2371 -0.7546  1.1630
20857SOL     OW61240   8.161   4.471   1.266  0.1236 -0.0418  0.1621
20857SOL    HW161241   8.096   4.547   1.271 -0.8047 -0.5732 -2.9137
20857SOL    HW261242   8.128   4.403   1.201  2.7046 -1.3867  0.1940
20858SOL     OW61243   4.343   5.008   2.687  0.2317  0.2213 -0.5940
20858SOL    HW161244   4.346   4.983   2.784 -3.0844 -0.5763 -0.6466
20858SOL    HW261245   4.434   5.039   2.658  1.5854 -0.7236  2.4243
20859SOL     OW61246   2.722   5.742   4.384 -0.6300  0.4713 -0.9817
20859SOL    HW161247   2.645   5.787   4.338 -0.9679 -1.9465 -2.8374
20859SOL    HW261248   2.775   5.689   4.318 -1.0462 -2.9892  1.3369
20860SOL     OW61249   2.532   8.639   2.361  0.1244  0.0264  0.3010
20860SOL    HW161250   2.607   8.573   2.367 -0.0944 -0.4021 -1.3247
20860SOL    HW261251   2.446   8.590   2.345 -0.0293  0.6867 -0.9956
20861SOL     OW61252   5.939   9.818   3.069 -0.6469 -0.4003 -0.2932
20861SOL    HW161253   5.905   9.888   3.006  0.4969  0.5048  0.0836
20861SOL    HW261254   6.008   9.762   3.023 -0.5296 -0.3765 -0.1440
20862SOL     OW61255   2.166   0.989   0.799 -0.5319 -0.0727  0.1122
20862SOL    HW161256   2.197   1.022   0.888  0.1716 -1.4809  0.3945
20862SOL    HW261257   2.213   1.040   0.727  0.3908 -0.3098  0.5389
20863SOL     OW61258   9.740   8.915   1.902 -0.9882 -0.1561  0.0737
20863SOL    HW161259   9.747   8.827   1.855  0.5182 -0.2900  0.5108
20863SOL    HW261260   9.806   8.980   1.862 -1.6522  0.5798  0.1609
20864SOL     OW61261   1.438   3.434   1.068  0.1157 -0.9892 -0.2169
20864SOL    HW161262   1.363   3.385   1.112 -0.0199 -1.5663 -1.0822
20864SOL    HW261263   1.470   3.382   0.989  1.9735 -1.1479  0.6180
20865SOL     OW61264   0.218   1.422   4.739  0.2695 -0.6921 -0.4362
20865SOL    HW161265   0.195   1.334   4.696  0.1414 -1.2887  0.8257
20865SOL    HW261266   0.269   1.405   4.823 -1.8721  0.3425  1.1220
20866SOL     OW61267   1.694   5.260   2.927 -0.1603 -0.4065  0.4583
20866SOL    HW161268   1.713   5.318   2.848 -0.8618 -1.7372 -0.6901
20866SOL    HW261269   1.743   5.297   3.007 -2.1106  2.8836  0.2328
20867SOL     OW61270   6.247   9.823   5.426 -0.4637  0.0486  0.6079
20867SOL    HW161271   6.315   9.757   5.393 -1.2770 -0.6372  0.2996
20867SOL    HW261272   6.282   9.869   5.507  0.6866  0.2413  0.0212
20868SOL     OW61273   6.266   8.968   4.126 -0.3497 -0.0313  0.3392
20868SOL    HW161274   6.243   8.926   4.213  0.2711  0.3149  0.6697
20868SOL    HW261275   6.206   8.932   4.055 -0.4007 -0.8316  0.7807
20869SOL     OW61276   6.645   1.813   2.533 -0.2005  0.0868 -0.1207
20869SOL    HW161277   6.727   1.784   2.583 -0.1526 -0.3944 -0.4760
20869SOL    HW261278   6.660   1.803   2.435  0.1461  2.1833 -0.3141
20870SOL     OW61279   5.933   1.024   5.602 -0.0078  0.2515  0.2668
20870SOL    HW161280   5.906   1.119   5.611 -1.6647 -0.1448 -0.2940
20870SOL    HW261281   5.868   0.966   5.651  0.8612 -0.6126  0.4177
20871SOL     OW61282   0.468   2.142   5.577 -0.2762  0.4745 -0.6552
20871SOL    HW161283   0.461   2.196   5.661 -0.4796 -1.2210  0.4515
20871SOL    HW261284   0.563   2.141   5.547 -0.2009  1.1102 -0.4519
20872SOL     OW61285   9.072   0.670   2.369  0.7890 -0.2288  0.6824
20872SOL    HW161286   9.158   0.720   2.383 -0.3067  2.7623 -2.4134
20872SOL    HW261287   9.081   0.609   2.290  0.3211 -0.5243  0.8572
20873SOL     OW61288   1.246   3.834   2.400  0.0227  0.2289 -0.3879
20873SOL    HW161289   1.220   3.925   2.430 -1.3670  0.5191 -2.3948
20873SOL    HW261290   1.346   3.828   2.393  0.3167  0.5763  2.7682
20874SOL     OW61291   6.479   1.180   1.984 -0.5037 -0.0736  0.8656
20874SOL    HW161292   6.414   1.203   2.056 -0.8993 -0.3180  0.5904
20874SOL    HW261293   6.572   1.198   2.016 -0.7076  0.3487  1.2355
20875SOL     OW61294   6.845   1.408   2.407 -0.4721  0.2010  0.2314
20875SOL    HW161295   6.872   1.456   2.323  2.0043  3.1582  2.5653
20875SOL    HW261296   6.755   1.440   2.437 -1.3448 -0.8385 -1.2555
20876SOL     OW61297   0.416   8.999   1.786 -0.0706 -0.7056  0.5759
20876SOL    HW161298   0.447   9.092   1.767 -2.6274  0.1702  0.4333
20876SOL    HW261299   0.491   8.946   1.825  1.6264  1.2001 -0.0107
20877SOL     OW61300   8.164   9.587   3.048 -0.1142  0.7250 -0.2245
20877SOL    HW161301   8.125   9.675   3.019  0.7707  1.1670 -0.1011
20877SOL    HW261302   8.199   9.596   3.142 -0.4379  0.1084 -0.0445
20878SOL     OW61303   9.028   2.824   0.365  0.4736  0.1865 -0.1118
20878SOL    HW161304   9.079   2.738   0.371  0.4549  0.1727 -0.1431
20878SOL    HW261305   8.993   2.849   0.455  1.1118  0.5432  0.0461
20879SOL     OW61306   0.158   8.655   3.548 -0.3375 -0.7023 -0.3192
20879SOL    HW161307   0.252   8.640   3.517 -0.4977 -1.9238 -0.2664
20879SOL    HW261308   0.155   8.649   3.648 -0.9413 -3.7412 -0.4611
20880SOL     OW61309   2.588   6.368   4.252 -0.5896 -0.2763 -0.0148
20880SOL    HW161310   2.582   6.467   4.265 -0.1184  0.1627 -2.9218
20880SOL    HW261311   2.679   6.337   4.277  0.1129  0.4569 -1.5872
20881SOL     OW61312   4.613   1.203   0.093  0.0671 -0.3107  0.8645
20881SOL    HW161313   4.591   1.230   0.187 -3.9041 -0.3869  0.0549
20881SOL    HW261314   4.615   1.103   0.087 -1.3911 -0.3310  0.5470
20883SOL     OW61315   4.867   0.367   3.117  0.0125  0.0496  0.3469
20883SOL    HW161316   4.820   0.453   3.139  0.6156  0.6678 -0.7029
20883SOL    HW261317   4.800   0.300   3.086 -0.1571  1.1089 -1.7005
20884SOL     OW61318   1.131   8.134   4.732  0.3285 -0.3412  0.6287
20884SOL    HW161319   1.117   8.198   4.808 -0.0678 -0.0542  0.3159
20884SOL    HW261320   1.106   8.042   4.760 -2.3135  0.1656  0.0623
20885SOL     OW61321   7.823   9.386   2.437 -0.1630 -0.5064  0.0638
20885SOL    HW161322   7.875   9.303   2.415 -1.0182 -0.8844 -0.5793
20885SOL    HW261323   7.784   9.423   2.352  1.8774  1.6989  0.0305
20886SOL     OW61324   7.887   2.743   4.031 -0.3949  0.8627  0.2044
20886SOL    HW161325   7.812   2.786   3.981 -0.8592  0.1607  0.2814
20886SOL    HW261326   7.853   2.661   4.078  0.5629  0.1670 -0.2894
20887SOL     OW61327   1.161   8.255   2.548 -0.3871 -0.4352 -0.0780
20887SOL    HW161328   1.261   8.241   2.547 -0.2036  0.8577 -0.9932
20887SOL    HW261329   1.141   8.348   2.519 -1.7591  0.0469  2.2556
20888SOL     OW61330   1.940   6.630   3.007  0.5724  0.3177 -0.0578
20888SOL    HW161331   1.926   6.699   2.935 -1.1477 -0.8993 -0.9239
20888SOL    HW261332   1.968   6.544   2.965 -1.4301 -0.6832  0.6128
20889SOL     OW61333   4.121   0.754   5.125  0.1231 -0.2180 -0.0673
20889SOL    HW161334   4.061   0.745   5.046  2.3710  0.0090 -1.8656
20889SOL    HW261335   4.104   0.842   5.171  0.3847  0.6999 -1.6982
20890SOL     OW61336   6.786   8.262   3.578  0.1634 -0.0491 -0.1921
20890SOL    HW161337   6.725   8.340   3.571  0.0519 -0.0430  0.8746
20890SOL    HW261338   6.756   8.202   3.652  0.1759 -1.1645 -1.0751
20891SOL     OW61339   2.804   7.267   1.524 -0.2694  0.4302 -0.1875
20891SOL    HW161340   2.750   7.258   1.440 -0.9981  0.1120  0.3126
20891SOL    HW261341   2.764   7.339   1.582  0.2491  0.6720 -0.1229
20892SOL     OW61342   0.457   7.200   1.363  0.2963  0.0843  0.0658
20892SOL    HW161343   0.468   7.292   1.326  0.7071  0.3879  0.9210
20892SOL    HW261344   0.417   7.140   1.294  2.6246  0.2064 -1.4250
20894SOL     OW61345   9.276   2.523   5.410 -0.4340  0.8910  0.2619
20894SOL    HW161346   9.187   2.489   5.379  0.2559 -0.4327 -0.2827
20894SOL    HW261347   9.262   2.600   5.473 -2.0777 -0.8944  2.1760
20895SOL     OW61348   4.526   9.503   5.308  0.3078 -0.3951  0.1469
20895SOL    HW161349   4.537   9.537   5.215  0.2662  1.6585  0.8634
20895SOL    HW261350   4.548   9.576   5.373 -1.1323 -1.3320  1.7279
20896SOL     OW61351   3.535   9.963   5.975 -0.2449  0.3861 -0.4980
20896SOL    HW161352   3.510   9.892   5.909 -1.4684  0.6048 -0.2907
20896SOL    HW261353   3.460  10.029   5.983 -0.6410 -0.3282  2.0527
20898SOL     OW61354   9.961   7.176   4.463 -0.3911 -0.4192 -0.4949
20898SOL    HW161355   9.864   7.152   4.458 -0.7705  0.2993  2.4820
20898SOL    HW261356   9.971   7.267   4.504  1.6043 -1.9352  2.6110
20899SOL     OW61357   0.697   9.197   1.976 -0.2016  0.2844  0.2997
20899SOL    HW161358   0.715   9.102   1.950  0.1928  0.0472  1.4052
20899SOL    HW261359   0.764   9.256   1.931 -0.4651  0.0445 -0.4144
20900SOL     OW61360   3.529   1.403   2.677 -0.2505 -0.3925  0.1495
20900SOL    HW161361   3.567   1.310   2.673  1.8448  0.3622  1.8397
20900SOL    HW261362   3.594   1.468   2.639 -0.9064  0.6222  0.7213
20901SOL     OW61363   4.396   2.903   6.317  0.1618 -0.0398 -0.2128
20901SOL    HW161364   4.334   2.831   6.285 -0.7176  0.0274  1.2681
20901SOL    HW261365   4.373   2.990   6.273 -0.5142 -0.1132 -0.0059
20902SOL     OW61366   2.882   0.660   3.356  0.1518 -0.0061  0.3006
20902SOL    HW161367   2.960   0.678   3.297 -1.7926  0.1321 -2.3568
20902SOL    HW261368   2.838   0.574   3.328 -2.0568  1.1399  0.1364
20904SOL     OW61369   1.479   1.928   5.354 -0.0215 -0.6503  0.1839
20904SOL    HW161370   1.438   2.003   5.405  1.5030 -0.3885  1.0505
20904SOL    HW261371   1.537   1.874   5.415  0.9801 -0.9651 -1.0300
20905SOL     OW61372   8.317   7.447   4.971 -0.3068 -0.3727 -0.2477
20905SOL    HW161373   8.253   7.462   5.047 -0.4255 -1.4941 -0.1106
20905SOL    HW261374   8.346   7.352   4.971  2.9298  0.5612  0.8802
20906SOL     OW61375   2.997   4.110   1.072  0.2461 -0.3557 -0.3593
20906SOL    HW161376   2.985   4.081   0.977  0.9735 -0.1934 -0.5013
20906SOL    HW261377   3.092   4.097   1.099  0.6444  2.0252 -0.4805
20909SOL     OW61378   9.843   5.986   1.144  0.0490 -0.3141  0.4189
20909SOL    HW161379   9.800   5.913   1.091  1.2904 -0.9360  0.2645
20909SOL    HW261380   9.772   6.038   1.191 -0.9288 -0.8921 -0.3979
20910SOL     OW61381   9.454   5.429   3.961 -0.5262 -0.0144 -0.2517
20910SOL    HW161382   9.534   5.437   3.901 -0.7013 -0.7655 -0.5852
20910SOL    HW261383   9.419   5.336   3.958  0.2609 -0.4179  2.0560
20912SOL     OW61384   0.289   7.657   0.112  0.3518  0.2572  0.5387
20912SOL    HW161385   0.264   7.577   0.058 -0.1993 -0.0547  1.2426
20912SOL    HW261386   0.208   7.713   0.128  0.7708  1.0511 -0.1032
20915SOL     OW61387   0.894   7.537   4.124  0.1837  0.4960 -0.4175
20915SOL    HW161388   0.811   7.501   4.165 -0.1130 -1.0409 -2.3050
20915SOL    HW261389   0.974   7.507   4.176 -0.3639  1.2488  0.8812
20916SOL     OW61390   4.171   2.086   4.075 -0.2567 -0.2248 -0.0545
20916SOL    HW161391   4.082   2.129   4.065 -0.1156  0.9782  3.1764
20916SOL    HW261392   4.168   2.019   4.150  1.4890 -0.3140 -0.0354
20917SOL     OW61393   0.430   2.776   3.129 -0.4249  0.0291  0.1974
20917SOL    HW161394   0.371   2.699   3.105  1.3286 -0.9786 -0.9714
20917SOL    HW261395   0.384   2.834   3.196 -2.0569 -1.6458  0.5436
20918SOL     OW61396   9.126   0.690   1.237  0.3857 -0.1885  0.4620
20918SOL    HW161397   9.122   0.604   1.187 -1.6896 -0.1005  0.4391
20918SOL    HW261398   9.080   0.680   1.325 -0.4977  1.0842  0.1575
20919SOL     OW61399   3.665   4.398   3.667  0.3845 -0.0963 -0.4580
20919SOL    HW161400   3.682   4.463   3.741 -1.6663 -0.9610  0.8258
20919SOL    HW261401   3.634   4.446   3.585  1.7931  0.7806 -0.4984
20920SOL     OW61402   3.101   3.917   2.508  0.2382  0.3819  0.4240
20920SOL    HW161403   3.192   3.958   2.505  0.4298  0.0763  2.2073
20920SOL    HW261404   3.032   3.990   2.502  0.5834  0.7260  0.6458
20921SOL     OW61405   9.703   2.887   6.384  0.0641  0.3418 -0.1516
20921SOL    HW161406   9.735   2.978   6.413  0.5944  0.3483 -0.7440
20921SOL    HW261407   9.621   2.863   6.435 -0.5069  1.4773 -0.5051
20922SOL     OW61408   2.676   1.963   3.662  0.1746  0.0310 -0.0981
20922SOL    HW161409   2.664   1.948   3.564  1.1608 -1.2139 -0.0319
20922SOL    HW261410   2.586   1.973   3.704 -0.2295  1.8212 -1.2926
20923SOL     OW61411   7.600   4.636   0.944  0.1331 -0.5160 -0.0554
20923SOL    HW161412   7.569   4.671   0.855 -1.0625 -0.3128  0.4317
20923SOL    HW261413   7.599   4.710   1.011 -3.8764 -1.7567  1.3530
20925SOL     OW61414   7.922   0.316   3.989  0.6168 -0.3806  0.0342
20925SOL    HW161415   7.974   0.329   3.905 -1.1751 -0.0035 -1.0431
20925SOL    HW261416   7.900   0.219   4.000  0.6550 -0.4004 -0.0648
20926SOL     OW61417   3.985   8.997   2.877  0.4419 -0.9821 -0.1333
20926SOL    HW161418   4.022   9.078   2.923  0.1586 -1.3930  0.8198
20926SOL    HW261419   3.887   8.992   2.893  0.8492 -2.9121  1.9692
20928SOL     OW61420   2.353   8.302   5.711 -0.4738 -0.5274  0.2894
20928SOL    HW161421   2.327   8.338   5.622  0.3642  2.9537  1.3787
20928SOL    HW261422   2.290   8.335   5.781 -0.6817 -2.6059  1.1156
20929SOL     OW61423   8.404   5.159   1.710  0.4199  0.4658 -0.1154
20929SOL    HW161424   8.370   5.208   1.629 -1.3667 -1.4435 -0.5817
20929SOL    HW261425   8.468   5.087   1.681  0.4313  0.3328  0.2400
20930SOL     OW61426   0.971   0.195   3.308 -0.4292 -0.4323 -0.4088
20930SOL    HW161427   0.982   0.232   3.400  0.3395  0.4265 -0.8323
20930SOL    HW261428   0.923   0.261   3.251 -0.4136 -0.7244 -0.7673
20931SOL     OW61429   1.926   1.015   1.027  0.2913 -0.0704  0.5289
20931SOL    HW161430   1.884   1.096   0.986  1.8614  0.1795 -0.6463
20931SOL    HW261431   1.906   0.936   0.970  0.3286 -0.1848  0.6749
20932SOL     OW61432   0.081   8.183   3.099  0.0401 -0.3772 -0.5450
20932SOL    HW161433  -0.015   8.181   3.072  0.1072  1.3568 -1.0254
20932SOL    HW261434   0.134   8.121   3.041 -0.5787 -0.2687 -1.2365
20935SOL     OW61435   1.640   2.139   5.669  0.1294  0.1285  0.4651
20935SOL    HW161436   1.541   2.133   5.682 -0.1455  0.0275 -1.4894
20935SOL    HW261437   1.684   2.062   5.715 -0.9772 -1.4881 -1.1108
20936SOL     OW61438   1.620   1.841   3.498  0.8083  0.1325 -0.1384
20936SOL    HW161439   1.717   1.820   3.515  0.5690  0.2102  1.3540
20936SOL    HW261440   1.594   1.806   3.408  1.8391 -1.1902  0.0606
20939SOL     OW61441   0.122   2.865   3.869 -0.3764 -0.3124 -0.3486
20939SOL    HW161442   0.165   2.940   3.919 -1.0382  0.1169 -0.4158
20939SOL    HW261443   0.051   2.901   3.808  1.6334 -0.6240 -2.9617
20940SOL     OW61444   0.650   1.575   0.294  0.2887 -0.0023  0.7074
20940SOL    HW161445   0.636   1.492   0.240 -0.7924 -0.0035  0.9735
20940SOL    HW261446   0.664   1.653   0.233  1.8801 -0.4772  0.4660
20941SOL     OW61447   9.272   7.704   1.013 -0.3339 -0.7260 -0.2564
20941SOL    HW161448   9.172   7.706   1.015 -0.3297 -0.8213  0.0496
20941SOL    HW261449   9.303   7.650   0.934 -0.5631 -3.9988  1.8176
20942SOL     OW61450   8.608   7.492   0.843 -0.0224 -0.0699 -0.2102
20942SOL    HW161451   8.635   7.582   0.809 -0.3956 -0.0589 -0.4844
20942SOL    HW261452   8.553   7.445   0.774 -0.2288 -0.3138  0.1162
20943SOL     OW61453   9.290   7.842   4.009 -0.2143 -0.2093 -0.2391
20943SOL    HW161454   9.357   7.897   4.059 -0.5674 -0.4122  0.4642
20943SOL    HW261455   9.246   7.898   3.939 -0.4344  0.3475  0.3433
20944SOL     OW61456   9.882   2.167   5.988  0.4530 -1.0308 -0.2429
20944SOL    HW161457   9.954   2.117   5.941  0.5658 -1.5123  0.4465
20944SOL    HW261458   9.914   2.197   6.078  0.6849  1.0443 -0.9919
20945SOL     OW61459   5.044   9.811   6.145 -0.1799 -0.3667  0.5786
20945SOL    HW161460   5.094   9.847   6.066 -1.7587  0.6359  0.0161
20945SOL    HW261461   4.959   9.770   6.115  0.2191 -1.9529  1.5532
20946SOL     OW61462   1.610   6.645   0.914 -0.0211  0.0461  0.7138
20946SOL    HW161463   1.692   6.665   0.862  0.5650 -0.5828  1.3845
20946SOL    HW261464   1.550   6.585   0.861 -0.0937  0.5712  0.1934
20947SOL     OW61465   2.157   6.840   3.862 -0.1453 -0.1052 -0.3505
20947SOL    HW161466   2.162   6.938   3.845  0.4847 -0.6044 -3.1862
20947SOL    HW261467   2.087   6.799   3.804  2.0586 -1.8807 -1.8321
20948SOL     OW61468   9.171   2.690   5.627 -0.2202 -0.2779 -0.0068
20948SOL    HW161469   9.247   2.683   5.691 -1.2605  0.6193  1.3562
20948SOL    HW261470   9.087   2.657   5.671 -1.1592  1.3912 -0.5147
20949SOL     OW61471   3.142   2.519   4.630  0.1696 -0.2864  0.1024
20949SOL    HW161472   3.115   2.463   4.551  1.0797  0.6189 -0.8659
20949SOL    HW261473   3.115   2.614   4.615  1.1103  0.0491  0.4910
20951SOL     OW61474   8.047   6.411   3.636 -0.5983  0.3959 -0.1657
20951SOL    HW161475   8.110   6.485   3.613 -0.7618  0.5728 -0.0484
20951SOL    HW261476   8.032   6.410   3.735 -0.5684  0.1824 -0.1630
20952SOL     OW61477   0.650   2.625   4.330 -0.1817 -0.0900 -0.4876
20952SOL    HW161478   0.660   2.620   4.231  0.9888 -0.3691 -0.3595
20952SOL    HW261479   0.583   2.557   4.360 -0.1272 -0.3819 -1.0203
20953SOL     OW61480   9.140   5.068   0.575  0.0785 -0.5313  0.3801
20953SOL    HW161481   9.086   5.093   0.656 -0.5655 -0.4402 -0.0710
20953SOL    HW261482   9.173   4.974   0.585  1.1743 -0.0391  1.3708
20954SOL     OW61483   1.505   8.205   2.994  0.2910  0.2969  0.1597
20954SOL    HW161484   1.483   8.225   3.089 -0.5814 -0.8873  0.2202
20954SOL    HW261485   1.455   8.267   2.934 -0.8446 -0.3696  0.4059
20955SOL     OW61486   2.149   0.193   0.552 -0.0204  0.0053 -0.3394
20955SOL    HW161487   2.161   0.148   0.463  0.9797 -0.1219 -0.1486
20955SOL    HW261488   2.175   0.290   0.543 -1.3230  0.3502 -0.5342
20956SOL     OW61489   4.179   4.500   4.651  0.1692 -0.2859 -0.2350
20956SOL    HW161490   4.116   4.424   4.635 -0.2621  0.4204 -1.9654
20956SOL    HW261491   4.258   4.467   4.704 -0.3548 -1.7773 -0.3508
20959SOL     OW61492   2.944   9.261   5.818  0.0627 -0.3475  0.2285
20959SOL    HW161493   3.014   9.190   5.818 -1.5297 -1.9753 -1.5326
20959SOL    HW261494   2.856   9.221   5.844 -0.7889  1.0697 -0.4026
20960SOL     OW61495   9.396   4.074   5.826 -0.7735 -0.2212  0.2546
20960SOL    HW161496   9.306   4.116   5.828 -0.2020  1.0109  0.7794
20960SOL    HW261497   9.443   4.100   5.742 -0.8890 -0.8524 -0.0124
20961SOL     OW61498   1.115   3.551   3.381  0.3470  0.0358  0.3040
20961SOL    HW161499   1.163   3.548   3.293 -2.6610  0.3249 -1.4463
20961SOL    HW261500   1.179   3.573   3.454  2.3452  3.3394 -2.3071
20962SOL     OW61501   0.157   9.042   2.047  0.0025  0.2792  0.8020
20962SOL    HW161502   0.068   9.017   2.084  0.0547 -1.1365  0.0001
20962SOL    HW261503   0.165   9.007   1.953  0.5610  2.2483  0.0906
20963SOL     OW61504   9.810   0.071   1.308  0.2607  0.3131 -0.7412
20963SOL    HW161505   9.844   0.035   1.221  1.2421 -0.1565 -0.1765
20963SOL    HW261506   9.731   0.018   1.337  0.8550 -0.5090 -0.6006
20964SOL     OW61507   1.419   9.779   0.200  0.2402 -0.6787 -0.0069
20964SOL    HW161508   1.366   9.863   0.191 -0.1750 -0.9355  0.0303
20964SOL    HW261509   1.443   9.765   0.296 -0.9003 -1.3321  0.2007
20965SOL     OW61510   9.597   8.079   5.034  0.1189 -0.4727 -0.0461
20965SOL    HW161511   9.540   8.080   4.952  0.7362  0.0757 -0.4684
20965SOL    HW261512   9.579   8.161   5.088  1.0957  0.0952 -0.5824
20966SOL     OW61513   8.539   3.635   2.317  0.5098 -0.0081 -0.8658
20966SOL    HW161514   8.474   3.708   2.295  0.9230  0.0639 -1.8383
20966SOL    HW261515   8.571   3.592   2.233  1.7638 -0.0126 -0.3915
20967SOL     OW61516   1.525   2.410   1.282  0.5047 -0.0518  0.2330
20967SOL    HW161517   1.540   2.327   1.229  0.0650 -0.5140  0.8318
20967SOL    HW261518   1.451   2.463   1.240  1.9492  0.9138 -1.1643
20970SOL     OW61519   3.094   2.315   6.426 -0.1031  0.3378  0.2779
20970SOL    HW161520   3.024   2.319   6.355 -0.4320  0.3326  0.5987
20970SOL    HW261521   3.101   2.403   6.472 -0.1569  0.2277  0.4964
20971SOL     OW61522   0.742   1.240   0.554  0.8641  0.3460 -0.1695
20971SOL    HW161523   0.737   1.252   0.455  1.4045 -1.2525 -0.4017
20971SOL    HW261524   0.831   1.274   0.587  0.8956  0.3872 -0.2956
20972SOL     OW61525   8.320   1.618   0.355 -0.0533  0.2489  0.1522
20972SOL    HW161526   8.302   1.697   0.413  0.3823 -1.1917  2.3274
20972SOL    HW261527   8.413   1.586   0.372 -0.2519 -0.7757 -0.6642
20974SOL     OW61528   2.940   9.037   2.217  0.6851 -0.0394 -0.2830
20974SOL    HW161529   2.951   9.114   2.154 -1.3683  0.2631 -0.3361
20974SOL    HW261530   2.933   9.072   2.311  0.3977 -0.2016 -0.2429
20975SOL     OW61531   0.835   0.833   4.318  0.1418  0.1263  0.0767
20975SOL    HW161532   0.831   0.877   4.408 -0.6794 -2.6358  1.4241
20975SOL    HW261533   0.929   0.803   4.300 -0.4050 -2.7408  1.7444
20978SOL     OW61534   9.618   7.548   0.122  0.5444 -0.3239  0.0714
20978SOL    HW161535   9.524   7.548   0.088  0.7566 -0.3613 -0.5228
20978SOL    HW261536   9.666   7.467   0.088  1.2862  0.5643 -1.0256
20979SOL     OW61537   9.635   6.674   1.141 -0.0212 -0.0228 -0.1185
20979SOL    HW161538   9.623   6.774   1.141 -0.7079 -0.0980 -1.1997
20979SOL    HW261539   9.729   6.652   1.118 -0.3161  0.3495 -1.7477
20980SOL     OW61540   8.139   6.096   4.541 -0.4644 -0.1281 -0.1115
20980SOL    HW161541   8.180   6.035   4.474 -1.0265 -0.8369  0.1790
20980SOL    HW261542   8.046   6.119   4.512 -2.2163 -3.5836  2.2900
20981SOL     OW61543   5.766   6.022   1.388 -0.1138  0.0380 -0.2482
20981SOL    HW161544   5.788   6.090   1.458  0.3485 -0.4202  0.0445
20981SOL    HW261545   5.729   6.069   1.307 -0.4199  0.5812  0.2068
20982SOL     OW61546   2.735   4.843   2.760  0.5747  0.2962  0.1603
20982SOL    HW161547   2.704   4.848   2.855  0.1826  3.4961 -0.1048
20982SOL    HW261548   2.681   4.774   2.711  0.7781 -1.3625  2.2373
20984SOL     OW61549   7.014   9.534   4.845 -0.1750 -0.4771 -0.1472
20984SOL    HW161550   6.949   9.502   4.913  0.5826 -2.4384 -0.3250
20984SOL    HW261551   6.986   9.505   4.754 -0.8587  1.6180 -0.6394
20986SOL     OW61552   8.690   5.229   6.256 -0.4046 -0.5176 -0.7573
20986SOL    HW161553   8.610   5.195   6.207 -0.0782  0.0867 -1.7044
20986SOL    HW261554   8.733   5.303   6.205 -1.0772  1.3308  1.2529
20987SOL     OW61555   3.881   6.355   1.202 -0.3724  0.4444  0.3345
20987SOL    HW161556   3.827   6.275   1.180  1.5342 -1.5409  2.5422
20987SOL    HW261557   3.821   6.431   1.228 -2.1525 -0.7030 -0.4058
20989SOL     OW61558   8.425   3.077   0.568 -0.5812 -0.1557  0.4667
20989SOL    HW161559   8.505   3.033   0.528 -0.4891  0.4974 -0.0766
20989SOL    HW261560   8.413   3.167   0.527 -0.7101  0.3615  1.6330
20990SOL     OW61561   0.774   5.170   0.651 -0.0922 -0.6371 -0.3030
20990SOL    HW161562   0.688   5.219   0.636  0.0043 -0.7018 -1.0930
20990SOL    HW261563   0.823   5.211   0.727  0.0587  0.5932 -1.0581
20991SOL     OW61564   9.726   5.701   3.617  0.1231 -0.7168 -0.3746
20991SOL    HW161565   9.657   5.708   3.544  1.5997  0.9610 -1.6499
20991SOL    HW261566   9.803   5.645   3.584  1.2985  0.9685 -0.5398
20992SOL     OW61567   2.971   2.897   3.276 -0.2257  0.0826 -0.5073
20992SOL    HW161568   2.973   2.953   3.359 -0.3770  1.2310 -1.2742
20992SOL    HW261569   2.990   2.802   3.300  1.5695  0.7005  0.5900
20994SOL     OW61570   7.684   1.576   0.336  0.0339 -0.4590 -0.2105
20994SOL    HW161571   7.681   1.674   0.319  2.6740 -0.4787 -0.9227
20994SOL    HW261572   7.602   1.533   0.298 -1.0407  1.4241 -0.0641
20996SOL     OW61573   1.672   5.858   6.231 -0.2145  0.0012 -0.3102
20996SOL    HW161574   1.771   5.863   6.239 -0.1348 -0.9122 -0.6177
20996SOL    HW261575   1.640   5.770   6.267 -0.9865  0.5866  0.4551
20997SOL     OW61576   7.556   0.524   3.761 -0.1361 -0.1756 -0.0706
20997SOL    HW161577   7.631   0.477   3.806 -0.2228  0.6845  0.9909
20997SOL    HW261578   7.492   0.458   3.722 -0.2206 -0.9145  1.3329
20998SOL     OW61579   8.860   8.690   1.511 -0.2042 -0.0014  0.1183
20998SOL    HW161580   8.837   8.635   1.591 -2.6390  2.2140  1.0213
20998SOL    HW261581   8.886   8.782   1.541 -0.3632  0.6144 -1.5820
20999SOL     OW61582   8.120   7.671   1.961 -0.0881 -0.9546  0.2452
20999SOL    HW161583   8.157   7.760   1.932  0.7094 -1.2734  0.2599
20999SOL    HW261584   8.021   7.670   1.948  0.0485 -0.4956 -0.9041
21000SOL     OW61585   9.046   5.009   4.788 -0.1575 -0.2900 -0.6430
21000SOL    HW161586   9.050   4.913   4.759 -0.4966  0.0866 -1.9613
21000SOL    HW261587   9.040   5.068   4.707  1.6682  0.9332  0.0845
21001SOL     OW61588   9.626   5.987   3.497  0.1586  0.1962 -0.2229
21001SOL    HW161589   9.638   5.898   3.454 -0.4298 -0.5283  1.0869
21001SOL    HW261590   9.662   6.059   3.436  0.4952 -0.9059 -1.3434
21002SOL     OW61591   2.225   1.308   1.626  0.0195 -0.5491  0.8114
21002SOL    HW161592   2.220   1.407   1.612 -1.5044 -0.6871  0.3825
21002SOL    HW261593   2.148   1.278   1.681  2.1256 -1.0790  3.5588
21003SOL     OW61594   8.434   0.525   1.188 -0.1400  0.0200  0.2783
21003SOL    HW161595   8.390   0.584   1.120  0.7128  0.1796 -0.1435
21003SOL    HW261596   8.413   0.558   1.280 -2.8293 -1.2650  0.1829
21004SOL     OW61597   8.152   1.637   3.644  0.1721  0.1978 -0.3935
21004SOL    HW161598   8.113   1.653   3.734 -0.9858  0.6016 -0.9475
21004SOL    HW261599   8.107   1.557   3.603 -0.2600  0.8169 -1.1427
21005SOL     OW61600   4.805   5.252   1.777 -0.1425  0.8999  0.0344
21005SOL    HW161601   4.885   5.252   1.717 -0.2840 -2.7553 -0.3122
21005SOL    HW261602   4.723   5.232   1.722 -0.4831 -0.8900  1.1541
21006SOL     OW61603   8.365   2.930   1.164 -0.4845 -0.4661  0.2883
21006SOL    HW161604   8.392   2.920   1.068 -1.4324 -0.0968 -0.0301
21006SOL    HW261605   8.297   2.860   1.187 -1.1417  0.1849  0.3471
21007SOL     OW61606   5.967   0.455   1.977 -0.2320  0.1486 -0.3709
21007SOL    HW161607   5.948   0.443   2.074 -0.3333 -1.3918 -0.5628
21007SOL    HW261608   5.882   0.476   1.929 -0.7739 -2.3023 -0.5729
21009SOL     OW61609   7.732   3.656   6.317  0.4574 -0.2843  0.4778
21009SOL    HW161610   7.808   3.593   6.332 -0.9716 -2.2979 -0.4892
21009SOL    HW261611   7.649   3.619   6.357 -0.0173  2.0084  1.7255
21010SOL     OW61612   6.699   4.407   0.916  0.4249  0.4457  0.7247
21010SOL    HW161613   6.644   4.484   0.947 -0.5227  0.5129 -1.0538
21010SOL    HW261614   6.654   4.321   0.940  0.5161  0.4656  0.9741
21011SOL     OW61615   3.647   3.778   1.623 -0.2469 -0.0233 -0.4536
21011SOL    HW161616   3.568   3.730   1.661  1.0245 -1.5234  0.3641
21011SOL    HW261617   3.691   3.832   1.695 -1.5660  2.2900 -1.3297
21014SOL     OW61618   2.782   7.234   3.298  0.4741  0.1987  0.0389
21014SOL    HW161619   2.705   7.288   3.262  0.4907  0.5881  0.5888
21014SOL    HW261620   2.773   7.139   3.268  0.1797  0.4023 -0.5246
21016SOL     OW61621   4.587   8.194   3.273  0.2693  0.1253 -0.1152
21016SOL    HW161622   4.611   8.291   3.275 -1.3531  0.5325  0.6853
21016SOL    HW261623   4.514   8.179   3.205  0.8596 -0.6240 -0.5930
21017SOL     OW61624   9.316   6.493   2.365  0.7900 -0.0031 -0.3318
21017SOL    HW161625   9.284   6.578   2.324  0.3243  0.5916  1.2195
21017SOL    HW261626   9.384   6.451   2.306  1.0524  1.4687 -1.1037
21020SOL     OW61627   5.237   8.230   5.424 -0.4164 -0.1487 -0.3292
21020SOL    HW161628   5.254   8.329   5.423 -0.4142 -0.1251  1.3262
21020SOL    HW261629   5.138   8.213   5.425 -0.4167 -0.1627 -0.5953
21021SOL     OW61630   0.552   0.960   4.446  0.2050  0.5647  0.2046
21021SOL    HW161631   0.645   0.997   4.452 -0.1968  1.8250 -1.0147
21021SOL    HW261632   0.538   0.895   4.520  2.9024 -1.5785 -1.0644
21022SOL     OW61633   2.111   5.427   0.375  0.3012  0.1692 -0.0249
21022SOL    HW161634   2.157   5.428   0.463  0.6570  1.6968 -0.2141
21022SOL    HW261635   2.048   5.505   0.369 -2.2309 -1.7679  0.1770
21023SOL     OW61636   2.967   8.115   2.101  0.2577 -0.2034 -0.5842
21023SOL    HW161637   2.953   8.018   2.083 -2.0284  0.4318 -2.4396
21023SOL    HW261638   3.016   8.156   2.025 -0.2251  0.4250 -0.5600
21025SOL     OW61639   9.166   2.104   0.863 -0.0377 -0.4444  0.1694
21025SOL    HW161640   9.258   2.127   0.832  0.0551 -1.4763 -0.3294
21025SOL    HW261641   9.171   2.070   0.957 -0.0797  0.7700  0.6245
21027SOL     OW61642   8.001   9.894   5.161 -0.0404 -0.3828  0.5614
21027SOL    HW161643   7.924   9.868   5.103  0.5624  0.1333 -0.4906
21027SOL    HW261644   8.024   9.990   5.145  2.1184 -1.0576 -0.6729
21028SOL     OW61645   9.404   0.735   0.028  0.4855  0.0145 -0.1197
21028SOL    HW161646   9.411   0.797   0.106  1.3114  0.5009 -0.5727
21028SOL    HW261647   9.393   0.641   0.061 -1.7331  0.4804  0.5684
21030SOL     OW61648   2.360   8.702   5.815 -0.3615 -0.2606 -0.0030
21030SOL    HW161649   2.340   8.673   5.721  0.1059  1.3897 -0.6295
21030SOL    HW261650   2.274   8.716   5.864 -0.6140 -0.9355 -0.2530
21032SOL     OW61651   7.679   5.522   0.090  0.0493  0.1022  0.2708
21032SOL    HW161652   7.674   5.422   0.094 -1.0170  0.2042  2.6170
21032SOL    HW261653   7.760   5.553   0.140  0.5044  0.4130 -0.6494
21034SOL     OW61654   0.150   0.082   2.563 -0.3665 -0.0732  0.8142
21034SOL    HW161655   0.054   0.056   2.556 -0.7891  1.2811  1.4432
21034SOL    HW261656   0.204   0.002   2.591 -1.1364 -1.1130 -0.6097
21035SOL     OW61657   9.330   4.833   0.357  0.4397  0.1673 -0.0310
21035SOL    HW161658   9.350   4.752   0.302 -2.4807  0.4084 -1.5242
21035SOL    HW261659   9.241   4.824   0.401  0.4510  2.1831  0.4831
21036SOL     OW61660   8.684   0.351   4.413 -0.2722  0.3061 -0.0780
21036SOL    HW161661   8.588   0.338   4.437 -0.2424 -0.2243 -0.2219
21036SOL    HW261662   8.700   0.445   4.383 -0.6000  0.5887  0.6301
21037SOL     OW61663   3.380   2.122   0.397  0.5876 -0.0437  0.3348
21037SOL    HW161664   3.336   2.049   0.449 -0.3724  1.1992  1.2929
21037SOL    HW261665   3.401   2.198   0.458  2.7875 -0.0271 -0.3955
21038SOL     OW61666   5.213   4.495   0.099 -0.5824  0.2924 -0.7384
21038SOL    HW161667   5.201   4.429   0.172  0.2627  0.0252 -0.8336
21038SOL    HW261668   5.303   4.539   0.109 -0.5861  0.4628 -1.4400
21039SOL     OW61669   0.461   9.981   2.350 -0.1931 -0.0069  0.1360
21039SOL    HW161670   0.462  10.080   2.336 -0.3896 -0.0136  0.0656
21039SOL    HW261671   0.438   9.962   2.445 -0.4368  0.0101  0.0808
21040SOL     OW61672   1.500   1.109   2.543  0.2610 -0.4798 -0.1644
21040SOL    HW161673   1.488   1.155   2.455 -2.7146 -1.2441 -0.1878
21040SOL    HW261674   1.437   1.148   2.610 -0.5097 -2.8160  0.4924
21041SOL     OW61675   5.531   1.580   2.477  0.4311  0.0966  0.4628
21041SOL    HW161676   5.582   1.653   2.523  2.4283 -0.5031 -0.7195
21041SOL    HW261677   5.546   1.493   2.525 -0.0494  0.0416  0.5149
21042SOL     OW61678   9.304   4.729   4.607 -0.4240 -0.1770 -0.4031
21042SOL    HW161679   9.258   4.641   4.613 -0.5784 -0.1809 -1.5678
21042SOL    HW261680   9.272   4.778   4.526  0.0031  0.7504 -0.0171
21044SOL     OW61681   6.025   6.255   1.312  0.2145  0.2114  0.1904
21044SOL    HW161682   6.070   6.277   1.226 -1.0000  0.0759 -0.4981
21044SOL    HW261683   5.938   6.305   1.318 -0.8006 -1.5346  0.2908
21045SOL     OW61684   2.690   6.215   0.903 -0.1019 -0.0514 -0.5692
21045SOL    HW161685   2.774   6.206   0.955  0.6382  0.6382 -1.6228
21045SOL    HW261686   2.655   6.308   0.911 -2.3867 -1.0603  2.2557
21046SOL     OW61687   0.987   2.301   5.617 -0.2538 -0.2170  0.0915
21046SOL    HW161688   0.991   2.279   5.519 -1.5804 -0.3142  0.0538
21046SOL    HW261689   0.982   2.216   5.670 -0.4342 -0.1360  0.2027
21047SOL     OW61690   2.775   8.450   0.179 -0.1525 -0.2678  0.1132
21047SOL    HW161691   2.866   8.408   0.167 -0.1136 -0.4535  0.9806
21047SOL    HW261692   2.725   8.447   0.093  0.1859 -1.3338 -0.0631
21048SOL     OW61693   9.985   9.668   4.664  0.6454 -0.0169  0.3144
21048SOL    HW161694  10.015   9.629   4.751 -0.7986  1.6297  1.6001
21048SOL    HW261695   9.936   9.599   4.612  0.2570 -0.6360  1.4741
21049SOL     OW61696   7.671   1.525   2.891  0.1069 -0.4866  0.0563
21049SOL    HW161697   7.601   1.453   2.892  0.8135 -1.1845  1.9885
21049SOL    HW261698   7.720   1.525   2.978  2.2505  0.2641 -1.1036
21050SOL     OW61699   8.544   1.503   2.779 -0.1634 -0.1189  0.0349
21050SOL    HW161700   8.591   1.446   2.846  1.6478  1.5542  0.2236
21050SOL    HW261701   8.603   1.519   2.701 -1.9938 -1.4374 -1.6679
21051SOL     OW61702   8.770   4.929   5.808 -0.5411 -0.0959  0.4999
21051SOL    HW161703   8.856   4.980   5.813 -1.3121  1.1709  1.0046
21051SOL    HW261704   8.693   4.993   5.803 -1.4738 -1.2139  0.2522
21052SOL     OW61705   0.874   5.771   6.220  0.2060  0.0826 -0.6760
21052SOL    HW161706   0.933   5.710   6.272 -0.3305  0.3561  0.2672
21052SOL    HW261707   0.842   5.724   6.138 -2.6168 -2.0388  1.5257
21053SOL     OW61708   8.162   5.609   3.775 -0.1889 -0.4057 -0.2255
21053SOL    HW161709   8.256   5.638   3.758 -0.4723  1.0534  0.6173
21053SOL    HW261710   8.115   5.677   3.831 -1.8719 -0.9187 -0.9571
21054SOL     OW61711   2.339   6.219   3.081  0.7049  0.1725 -0.1959
21054SOL    HW161712   2.308   6.124   3.072 -0.1884  0.6743 -2.9553
21054SOL    HW261713   2.438   6.220   3.097  0.3907 -1.2600  1.9788
21056SOL     OW61714   2.797   4.584   3.133  0.2220  0.5638  0.2042
21056SOL    HW161715   2.867   4.515   3.150 -1.3873 -0.9784  0.6753
21056SOL    HW261716   2.723   4.573   3.199 -0.6669  1.9149 -0.5496
21057SOL     OW61717   0.755   8.900   0.115 -0.8477  0.0092  0.4776
21057SOL    HW161718   0.753   8.803   0.139  1.4358  0.6061  3.4444
21057SOL    HW261719   0.735   8.955   0.196 -1.3570  2.0336 -0.9778
21058SOL     OW61720   1.395   9.259   5.580 -0.0195 -0.1660 -0.2311
21058SOL    HW161721   1.359   9.240   5.489 -0.7721  0.6626 -0.1254
21058SOL    HW261722   1.473   9.200   5.599 -0.3067 -0.8430 -1.1275
21060SOL     OW61723   1.874   1.172   3.932  0.0988  0.2938 -0.1384
21060SOL    HW161724   1.900   1.128   3.846  2.3479 -0.1045  0.7388
21060SOL    HW261725   1.802   1.119   3.977  1.5064 -1.5075  0.0190
21062SOL     OW61726   4.743   3.448   0.109  0.2685  0.5010  0.5083
21062SOL    HW161727   4.829   3.405   0.135  0.4935  1.4198  1.2798
21062SOL    HW261728   4.666   3.391   0.140  0.5873 -0.3176 -0.1851
21063SOL     OW61729   0.490   4.565   0.553  0.4042  0.1200 -0.3661
21063SOL    HW161730   0.515   4.536   0.645 -0.1373 -0.3390 -0.3531
21063SOL    HW261731   0.434   4.493   0.510  2.0404 -0.4012 -1.6655
21064SOL     OW61732   4.974   4.228   6.280  0.0149 -0.0427 -0.4622
21064SOL    HW161733   5.028   4.178   6.212 -1.6142  1.3196 -2.8238
21064SOL    HW261734   4.885   4.184   6.290 -0.2777  0.6070 -0.2468
21065SOL     OW61735   5.052   6.318   1.874  0.7199 -0.1770  0.0893
21065SOL    HW161736   5.012   6.231   1.845  1.4501 -0.3518 -0.3775
21065SOL    HW261737   5.139   6.301   1.920  0.9855  0.3351 -0.2312
21066SOL     OW61738   1.533   1.749   1.208  0.0718  0.1464  0.0706
21066SOL    HW161739   1.437   1.748   1.180 -0.0364 -1.8038  0.4717
21066SOL    HW261740   1.592   1.731   1.129  0.0526  0.2523  0.0322
21067SOL     OW61741   8.412   3.508   0.844  0.3031  0.0986 -0.2436
21067SOL    HW161742   8.400   3.492   0.746 -0.9896 -1.6737  0.1849
21067SOL    HW261743   8.498   3.467   0.874  0.0641 -0.5148 -0.3870
21068SOL     OW61744   9.464   3.102   4.921  0.0828  0.1892 -0.0645
21068SOL    HW161745   9.458   3.023   4.982 -1.3795  0.9499  0.7862
21068SOL    HW261746   9.402   3.090   4.844 -0.8043  0.9207  0.5361
21069SOL     OW61747   1.004   3.041   5.988  0.1103  0.9863 -0.0103
21069SOL    HW161748   1.003   2.951   5.945  0.0370 -0.3209  2.6354
21069SOL    HW261749   1.090   3.054   6.036 -0.4644  1.7190  0.8435
21070SOL     OW61750   9.989   9.537   1.733 -0.4874 -0.0238 -0.2009
21070SOL    HW161751   9.974   9.571   1.640  0.7204  1.2877  0.0757
21070SOL    HW261752  10.082   9.503   1.742 -0.3656  0.5424  0.7363
21071SOL     OW61753   6.103   0.317   1.614  0.0178 -0.1969 -0.0647
21071SOL    HW161754   6.026   0.316   1.550 -0.0588 -0.9145  0.0319
21071SOL    HW261755   6.183   0.275   1.571  0.3762  0.5907 -0.1823
21072SOL     OW61756   3.578   3.173   1.788 -0.3972 -0.0533 -0.1951
21072SOL    HW161757   3.556   3.094   1.730 -0.4845  0.3587 -0.7223
21072SOL    HW261758   3.638   3.143   1.863 -0.3060 -0.5918 -0.4812
21075SOL     OW61759   1.531   3.792   0.386 -0.3973 -0.4837 -0.1407
21075SOL    HW161760   1.614   3.752   0.347 -0.0122 -0.8997  1.0854
21075SOL    HW261761   1.484   3.847   0.316  1.0665 -0.0017 -0.7575
21076SOL     OW61762   0.941   4.256   0.865 -0.0394 -0.2340 -0.0867
21076SOL    HW161763   1.036   4.243   0.891 -0.3518 -1.1697  0.6503
21076SOL    HW261764   0.904   4.169   0.830 -1.4863 -0.7264  2.5344
21077SOL     OW61765   3.541   6.365   0.488 -0.0442  0.1378  0.4884
21077SOL    HW161766   3.605   6.430   0.448  0.8697  0.4531  2.3994
21077SOL    HW261767   3.483   6.326   0.416  0.5124  1.8086 -0.8980
21079SOL     OW61768   8.348   2.266   3.013  0.2474  0.2489 -0.3088
21079SOL    HW161769   8.310   2.221   3.094  0.6018  0.1001 -0.2271
21079SOL    HW261770   8.273   2.296   2.954 -0.0015 -0.0746 -0.1606
21081SOL     OW61771   3.766   0.477   4.029  0.1147  0.5478  0.8620
21081SOL    HW161772   3.852   0.515   4.063  0.0865  1.8540 -0.4801
21081SOL    HW261773   3.784   0.391   3.982  1.3366  2.7374 -2.9494
21083SOL     OW61774   8.794   1.825   2.699  0.0087 -0.3254  0.6641
21083SOL    HW161775   8.797   1.820   2.599  1.7744  4.0450  0.4082
21083SOL    HW261776   8.849   1.750   2.737  0.5373 -1.1629 -1.6487
21084SOL     OW61777   8.771   5.620   4.522 -0.1732 -0.2059  0.1021
21084SOL    HW161778   8.837   5.608   4.448 -0.0639  0.8892  0.0136
21084SOL    HW261779   8.683   5.582   4.494  0.3635 -1.5243  0.1578
21085SOL     OW61780   9.753   2.680   2.967  0.0165  0.4100  0.2543
21085SOL    HW161781   9.765   2.759   2.907 -1.1972 -0.1851 -0.7928
21085SOL    HW261782   9.735   2.598   2.912  0.4578 -0.4482  1.3626
21086SOL     OW61783   4.199   1.470   5.139  0.0005  0.2388  0.1777
21086SOL    HW161784   4.139   1.473   5.059 -3.1324 -0.4511  2.4485
21086SOL    HW261785   4.184   1.551   5.196  0.3117 -0.5811  1.4373
21087SOL     OW61786   7.919   3.031   3.258 -0.0675 -0.1179 -0.2443
21087SOL    HW161787   8.007   3.071   3.282 -0.4824  0.9761 -0.5085
21087SOL    HW261788   7.866   3.097   3.205 -0.8528 -0.9460 -0.4960
21088SOL     OW61789   9.862   9.246   1.185 -0.2329 -0.1969 -0.3736
21088SOL    HW161790   9.905   9.301   1.114 -1.2798  1.6259  0.3533
21088SOL    HW261791   9.931   9.190   1.230  0.7148 -0.1212 -1.7039
21090SOL     OW61792   2.919   7.569   0.475 -0.3816  0.0444 -0.0744
21090SOL    HW161793   2.942   7.625   0.396 -1.0547 -0.5151 -0.6742
21090SOL    HW261794   2.948   7.616   0.559  0.0557  0.7768 -0.6289
21091SOL     OW61795   8.340   8.994   2.425 -0.1165  0.0495  0.3327
21091SOL    HW161796   8.287   9.048   2.360  0.4134  0.4469  0.2266
21091SOL    HW261797   8.297   8.905   2.437 -0.5002  0.1618 -0.1747
21092SOL     OW61798   4.399   5.698   0.261  0.4532 -0.7282  0.1718
21092SOL    HW161799   4.494   5.703   0.228  0.6604  0.7939  0.9332
21092SOL    HW261800   4.352   5.784   0.240 -0.6755 -1.3678  0.0686
21093SOL     OW61801   7.404   8.658   3.911  0.5087 -0.3168 -0.5277
21093SOL    HW161802   7.316   8.610   3.905  0.7901 -0.9215  0.1111
21093SOL    HW261803   7.394   8.739   3.969  0.5489 -0.7974  0.1562
21095SOL     OW61804   3.907   9.215   6.231  0.3188  0.6116 -0.2052
21095SOL    HW161805   3.924   9.304   6.274 -2.1693  1.1409 -0.2155
21095SOL    HW261806   3.964   9.206   6.150  0.8785  2.0393  0.0156
21096SOL     OW61807   4.345   3.570   1.604  0.2453  0.2437 -0.0382
21096SOL    HW161808   4.290   3.546   1.684  0.9309 -1.5481 -0.0698
21096SOL    HW261809   4.362   3.669   1.603  0.1902  0.3000  2.0149
21098SOL     OW61810   0.148   0.054   5.692  0.0734 -0.4817 -0.0531
21098SOL    HW161811   0.096  -0.027   5.663 -1.3561  0.4967 -0.2664
21098SOL    HW261812   0.126   0.076   5.787 -1.4248  1.0733 -0.7256
21102SOL     OW61813   6.918   2.148   3.677  0.1841 -0.5480 -0.4241
21102SOL    HW161814   6.906   2.049   3.685 -3.0466 -0.2695 -1.1593
21102SOL    HW261815   6.985   2.168   3.606 -0.8985 -2.1973 -1.9641
21103SOL     OW61816   8.187   3.530   0.060 -0.0217  0.3597 -0.2925
21103SOL    HW161817   8.131   3.454   0.092  0.1676 -0.5913 -2.1631
21103SOL    HW261818   8.127   3.605   0.029 -0.2301  0.1947 -0.2849
21104SOL     OW61819   6.582   9.590   1.714  0.0517  0.4041 -0.3697
21104SOL    HW161820   6.508   9.651   1.740  0.5404  1.3857 -1.2233
21104SOL    HW261821   6.545   9.512   1.663 -0.3548  1.1507 -1.2412
21106SOL     OW61822   3.683   3.928   2.108 -0.4958 -0.3000  0.1122
21106SOL    HW161823   3.695   3.840   2.062  1.4041 -0.2805  0.5422
21106SOL    HW261824   3.685   3.915   2.207 -3.2515 -0.1639  0.2114
21107SOL     OW61825   5.128   4.012   1.489 -0.1819 -0.6264 -0.0335
21107SOL    HW161826   5.138   4.078   1.564 -2.1637 -0.8252  0.4447
21107SOL    HW261827   5.109   3.921   1.526 -1.4944 -0.6688 -0.7599
21108SOL     OW61828   8.140   7.182   5.740 -0.0242 -0.3906 -0.2164
21108SOL    HW161829   8.154   7.195   5.642  0.6763 -1.7023 -0.3102
21108SOL    HW261830   8.131   7.270   5.785  2.2239  0.3064 -1.0999
21109SOL     OW61831   0.914   7.127   5.882 -0.0556  0.0022  0.4044
21109SOL    HW161832   0.852   7.049   5.884 -0.3531  0.1993 -0.5903
21109SOL    HW261833   0.862   7.211   5.873  0.3353  0.1883 -0.1755
21110SOL     OW61834   3.418   6.020   2.958  0.0172 -0.0603 -0.8668
21110SOL    HW161835   3.511   6.017   2.921 -0.2995  0.0079 -1.6795
21110SOL    HW261836   3.387   5.927   2.978 -0.1706 -0.1743 -1.6863
21112SOL     OW61837   2.981   1.463   5.333 -0.1065 -0.2122  0.3051
21112SOL    HW161838   2.936   1.419   5.411  1.4397 -1.6066  0.4559
21112SOL    HW261839   3.080   1.445   5.337  0.2865  1.5381 -0.7997
21113SOL     OW61840   9.272   9.791   6.404 -0.0055  0.3282  0.3596
21113SOL    HW161841   9.270   9.789   6.304  1.1212 -0.1365  0.3362
21113SOL    HW261842   9.244   9.701   6.440  1.1144 -0.0032  0.4202
21114SOL     OW61843   0.701   7.068   1.061 -0.5837  0.0153  0.4389
21114SOL    HW161844   0.688   7.164   1.086 -0.7568 -0.1292  0.8966
21114SOL    HW261845   0.720   7.014   1.143  0.9130 -0.1091  0.0270
21116SOL     OW61846   8.743   1.114   3.908 -0.1994  0.3966 -0.3471
21116SOL    HW161847   8.760   1.018   3.932  0.0989  0.3839 -0.5998
21116SOL    HW261848   8.751   1.125   3.809  2.0467  1.1211 -0.1240
21117SOL     OW61849   1.668   3.445   1.579  0.0849  0.0156 -0.5215
21117SOL    HW161850   1.644   3.367   1.637  0.8750  0.5518  0.5442
21117SOL    HW261851   1.591   3.508   1.573 -0.2971 -0.4777 -0.7577
21119SOL     OW61852   1.662   3.011   3.870  0.6039 -0.2146 -0.5179
21119SOL    HW161853   1.564   3.028   3.863  0.8981  1.2574 -1.1675
21119SOL    HW261854   1.689   3.011   3.967  0.0670 -0.0293 -0.3676
21120SOL     OW61855   3.976   9.313   4.856 -0.3752  0.7612  0.0724
21120SOL    HW161856   4.060   9.342   4.903  0.3788  0.2152 -0.9389
21120SOL    HW261857   3.940   9.390   4.803 -1.4163  1.4897  1.7653
21121SOL     OW61858   2.022   0.248   1.308 -0.8793 -0.9102  0.5525
21121SOL    HW161859   2.028   0.299   1.222  0.8978 -1.9550  0.0246
21121SOL    HW261860   1.980   0.159   1.291 -0.4402 -1.1561  0.7310
21122SOL     OW61861   4.327   9.890   3.714 -0.0879 -0.0543 -0.3332
21122SOL    HW161862   4.259   9.963   3.703 -1.3932 -0.6930  3.0581
21122SOL    HW261863   4.289   9.804   3.681 -0.2319 -0.0759 -0.1072
21123SOL     OW61864   4.168   0.649   2.045  0.0946  0.6895  0.4475
21123SOL    HW161865   4.128   0.664   1.954  1.4296 -0.0348 -0.2777
21123SOL    HW261866   4.118   0.577   2.092  0.6712 -0.3496 -0.5272
21125SOL     OW61867   3.753   1.950   3.037  0.3055 -0.1998 -0.4245
21125SOL    HW161868   3.674   1.914   3.087 -1.2957  0.3682 -2.4870
21125SOL    HW261869   3.765   1.898   2.953  1.1523  0.7607 -0.8909
21126SOL     OW61870   6.449   2.182   4.036  0.3314  0.2022 -0.2643
21126SOL    HW161871   6.542   2.177   4.001 -0.1930  0.0890 -1.6639
21126SOL    HW261872   6.389   2.222   3.967 -0.5800  0.7082  0.7946
21128SOL     OW61873   9.091   4.410   5.067  0.1094 -0.8186  0.2441
21128SOL    HW161874   9.049   4.320   5.056 -3.1176  0.6889 -0.4231
21128SOL    HW261875   9.082   4.440   5.162  0.2457 -0.7718  0.2421
21129SOL     OW61876   9.404   2.176   6.128  0.4546 -0.3723  0.6566
21129SOL    HW161877   9.379   2.088   6.087  1.7409 -0.2319 -0.4822
21129SOL    HW261878   9.368   2.181   6.221 -0.6401 -1.6151  0.3208
21130SOL     OW61879   2.189   1.098   3.920  0.0838 -0.0036 -0.0895
21130SOL    HW161880   2.093   1.118   3.935 -0.0936 -1.3370  0.6226
21130SOL    HW261881   2.245   1.174   3.951 -0.6801  0.3147  0.4975
21132SOL     OW61882   3.929   8.064   2.093 -0.4166  0.5514 -0.4726
21132SOL    HW161883   3.881   8.050   2.007  2.2398 -1.9815 -1.6202
21132SOL    HW261884   3.905   7.991   2.157 -0.3100  0.9051 -0.0278
21134SOL     OW61885   9.332   4.550   5.175 -0.4851 -0.2376  0.0282
21134SOL    HW161886   9.386   4.608   5.235 -1.1531 -0.7603  1.1547
21134SOL    HW261887   9.370   4.457   5.175  0.3855  0.1157 -1.5075
21135SOL     OW61888   8.404   5.830   5.711 -0.1778 -0.1122 -0.2739
21135SOL    HW161889   8.358   5.882   5.639 -0.0507  0.1270 -0.1846
21135SOL    HW261890   8.341   5.762   5.748 -0.3782  0.0400 -0.3278
21138SOL     OW61891   7.371   1.818   0.325  0.0532 -0.2426  0.4731
21138SOL    HW161892   7.365   1.779   0.418 -1.0285  0.4464  0.6983
21138SOL    HW261893   7.302   1.889   0.314 -0.0443 -0.5548 -0.9893
21139SOL     OW61894   3.503   8.812   2.447 -0.1758  0.2307 -0.3389
21139SOL    HW161895   3.464   8.743   2.386 -0.3858 -0.3242  0.4211
21139SOL    HW261896   3.528   8.770   2.534  0.1093  1.0226 -0.0341
21140SOL     OW61897   4.979   5.224   0.166 -0.0166 -0.1559  0.5993
21140SOL    HW161898   4.906   5.233   0.098  2.6575 -0.9482 -2.4917
21140SOL    HW261899   4.996   5.127   0.183 -0.4651  0.0370  2.2159
21142SOL     OW61900   3.211   0.430   1.782 -0.5114  0.5996 -0.4378
21142SOL    HW161901   3.303   0.407   1.814 -0.7927  0.2627  0.1412
21142SOL    HW261902   3.172   0.351   1.735 -0.7222  0.5498 -0.1807
21143SOL     OW61903   4.432   4.432   1.779  0.3954 -0.0689  0.3060
21143SOL    HW161904   4.456   4.401   1.871  0.2597 -0.9184  0.0560
21143SOL    HW261905   4.446   4.358   1.714  1.0315  0.6958 -0.4514
21144SOL     OW61906   6.542   2.402   3.280  0.2319  0.6594  0.2582
21144SOL    HW161907   6.573   2.336   3.211 -0.4737 -0.4197  0.9522
21144SOL    HW261908   6.595   2.486   3.272 -1.5586  1.5747 -3.3397
21145SOL     OW61909   3.920   8.093   2.743  0.0437  0.3737  0.1882
21145SOL    HW161910   4.001   8.150   2.732  0.7143 -0.4366  0.9065
21145SOL    HW261911   3.880   8.109   2.834  1.0494 -1.3477  0.9387
21148SOL     OW61912   8.234   5.843   1.502 -0.1612 -0.4498  0.1439
21148SOL    HW161913   8.269   5.865   1.410 -0.4870  0.6716  0.2847
21148SOL    HW261914   8.194   5.752   1.501 -1.9209  0.3054 -1.3356
21149SOL     OW61915   4.487   0.917   0.422 -0.0477  0.0153  0.0973
21149SOL    HW161916   4.421   0.932   0.496 -0.8352 -0.2389 -0.5477
21149SOL    HW261917   4.495   0.819   0.404  1.3994 -0.0292  0.9758
21150SOL     OW61918   3.893   3.538   4.489 -0.0634 -0.2441 -0.6150
21150SOL    HW161919   3.839   3.483   4.552 -0.1319  0.2849 -0.2031
21150SOL    HW261920   3.834   3.607   4.446  0.4060  0.7776  0.3425
21151SOL     OW61921   0.135   6.541   4.535 -0.2054  0.1567 -0.4127
21151SOL    HW161922   0.158   6.638   4.530 -2.6816  0.8754  1.4035
21151SOL    HW261923   0.093   6.513   4.449 -2.2636  1.4656  0.1352
21152SOL     OW61924   0.401   4.660   2.213 -0.4510 -0.4444 -0.1857
21152SOL    HW161925   0.460   4.621   2.284 -2.0442 -1.5818  0.5466
21152SOL    HW261926   0.443   4.648   2.123  1.3395  0.5269  0.4817
21153SOL     OW61927   8.277   4.330   3.497 -0.6408  0.0007 -0.0824
21153SOL    HW161928   8.265   4.429   3.489 -1.2302 -0.1527 -1.4071
21153SOL    HW261929   8.225   4.285   3.424  0.7747 -1.2120 -0.3674
21154SOL     OW61930   4.167   3.428   5.214  0.4254  0.0540 -0.0812
21154SOL    HW161931   4.141   3.372   5.292 -1.0130  2.1258  0.9912
21154SOL    HW261932   4.088   3.441   5.154  0.0360  2.8457  0.9465
21157SOL     OW61933   0.372   8.615   5.606  0.6790  0.0207  0.6408
21157SOL    HW161934   0.447   8.627   5.671  0.5480 -0.5314  0.8981
21157SOL    HW261935   0.408   8.616   5.513  0.9020  0.5447  0.7260
21158SOL     OW61936   2.159   4.828   2.993  0.2263 -0.0808 -0.5571
21158SOL    HW161937   2.094   4.770   2.944  1.0553 -2.8371  1.4883
21158SOL    HW261938   2.251   4.812   2.957  0.5102 -0.3001  0.2674
21159SOL     OW61939   6.328   9.679   3.603  0.2273  0.2443 -0.3659
21159SOL    HW161940   6.420   9.718   3.601  0.8413 -0.9605  1.9921
21159SOL    HW261941   6.333   9.582   3.581 -0.8382  0.6819 -2.7070
21164SOL     OW61942   7.484   7.725   4.971  0.2432  0.1938  0.5304
21164SOL    HW161943   7.419   7.661   4.931  3.4341 -1.3108 -2.4240
21164SOL    HW261944   7.532   7.681   5.047 -0.6624  0.6469  1.3953
21165SOL     OW61945   8.036   9.235   3.813 -0.3063  0.5068 -0.4577
21165SOL    HW161946   8.092   9.175   3.870 -1.3857  0.4301  0.5253
21165SOL    HW261947   8.048   9.209   3.717 -1.8053 -2.1974  0.0409
21166SOL     OW61948   3.516   6.830   1.577  0.2409  0.6117 -0.2026
21166SOL    HW161949   3.493   6.893   1.652 -0.2229  0.1892  0.0161
21166SOL    HW261950   3.446   6.837   1.506 -0.9077 -1.1007  0.7249
21167SOL     OW61951   3.162   2.185   6.108  0.3063  0.2261  0.2317
21167SOL    HW161952   3.098   2.215   6.178 -0.4137  0.4142 -0.5006
21167SOL    HW261953   3.139   2.093   6.078  0.5397  0.1932  0.1484
21168SOL     OW61954   3.856   3.193   6.102 -0.0920 -0.4710  0.2093
21168SOL    HW161955   3.780   3.197   6.037  0.1343 -0.1836 -0.0410
21168SOL    HW261956   3.940   3.222   6.056  0.3906 -1.9391  0.1400
21169SOL     OW61957   5.846   5.332   1.965  0.5477  0.0299 -0.2473
21169SOL    HW161958   5.887   5.264   1.904  0.3670 -0.1998 -0.1108
21169SOL    HW261959   5.884   5.422   1.944  0.3729 -0.0238 -0.8068
21170SOL     OW61960   0.621   6.164   4.855 -0.1050  0.3658 -0.1471
21170SOL    HW161961   0.654   6.256   4.877  1.3817  0.1081 -1.2637
21170SOL    HW261962   0.611   6.155   4.756  0.2822 -0.8565 -0.0772
21171SOL     OW61963   5.905   1.902   0.003  0.1082  0.2845  0.2742
21171SOL    HW161964   5.980   1.922   0.067 -0.2021 -0.8721  1.0338
21171SOL    HW261965   5.931   1.823  -0.054 -0.2733  0.2807  0.1070
21173SOL     OW61966   3.846   1.404   3.900 -0.2623 -0.1484 -0.0699
21173SOL    HW161967   3.806   1.366   3.983  2.2686 -2.0434  0.3224
21173SOL    HW261968   3.915   1.472   3.924  0.6012 -0.8290 -0.6077
21174SOL     OW61969   7.122   1.897   1.401 -0.1561  0.5236  0.2141
21174SOL    HW161970   7.047   1.863   1.458 -1.2172 -0.2206 -1.5669
21174SOL    HW261971   7.085   1.937   1.317  1.3581  1.8099  0.1278
21175SOL     OW61972   0.084   4.817   5.996 -0.3991  0.0389 -0.6844
21175SOL    HW161973   0.064   4.720   6.010  0.2977 -0.3613 -2.4573
21175SOL    HW261974   0.183   4.830   5.988 -0.6459  0.5558 -3.0069
21176SOL     OW61975   6.469   8.790   4.715  0.3370 -0.6241 -0.0816
21176SOL    HW161976   6.399   8.725   4.687  0.2163 -1.3193  1.7542
21176SOL    HW261977   6.550   8.740   4.748  0.9879  0.1632 -0.4672
21177SOL     OW61978   5.455   0.903   3.253  0.3137 -0.2509 -0.0711
21177SOL    HW161979   5.395   0.982   3.239  1.4767  0.5214 -0.8278
21177SOL    HW261980   5.401   0.825   3.285 -1.1365  0.3134 -1.1085
21178SOL     OW61981   2.395   7.585   5.301  0.2051  0.2573 -0.1109
21178SOL    HW161982   2.342   7.666   5.279 -1.1460  0.0326  2.1829
21178SOL    HW261983   2.335   7.505   5.303  0.8906 -0.2516  0.9808
21179SOL     OW61984   1.674   1.819   4.972  1.1813  0.1982  0.1622
21179SOL    HW161985   1.706   1.900   4.922 -0.3138  0.6005 -0.1853
21179SOL    HW261986   1.634   1.754   4.907 -1.0414  0.8472  0.8446
21180SOL     OW61987   1.416   7.431   6.030  0.4894  1.2442 -0.1400
21180SOL    HW161988   1.431   7.368   5.954 -2.9405  0.1886 -0.0044
21180SOL    HW261989   1.476   7.405   6.106 -1.7607 -2.8318  0.4017
21181SOL     OW61990   6.026   1.710   4.418 -0.2126 -0.1466  0.1478
21181SOL    HW161991   6.107   1.768   4.407 -0.3062 -0.0843 -0.1980
21181SOL    HW261992   5.996   1.713   4.514  0.4998 -0.5779  0.3883
21182SOL     OW61993   2.710   1.269   2.045  0.3211  0.3322 -0.1550
21182SOL    HW161994   2.610   1.271   2.042  0.3270 -0.1374 -0.7051
21182SOL    HW261995   2.740   1.237   2.135 -0.0163  0.9507  0.1780
21183SOL     OW61996   2.227   7.682   1.905  0.4900 -0.6862 -0.6805
21183SOL    HW161997   2.156   7.620   1.938  0.2111 -0.1010 -0.1786
21183SOL    HW261998   2.317   7.639   1.917  0.2802 -1.0834 -0.5333
21185SOL     OW61999   2.043   5.911   2.602 -0.6827  0.6662  0.5636
21185SOL    HW162000   2.095   5.859   2.669 -1.0508 -0.4067  0.0252
21185SOL    HW262001   2.045   6.008   2.627  0.8330  0.5316  1.0138
21186SOL     OW62002   6.365   1.706   3.887 -0.2521 -0.0302 -0.0048
21186SOL    HW162003   6.291   1.749   3.835 -2.2830 -0.0415  2.8018
21186SOL    HW262004   6.452   1.752   3.865 -1.3230  1.0488 -2.1082
21187SOL     OW62005   5.026   8.564   5.024  0.4643  0.1960 -0.6627
21187SOL    HW162006   4.947   8.616   4.991  0.9081  0.4424 -1.3278
21187SOL    HW262007   5.069   8.516   4.948  0.2695 -0.8851 -0.1167
21188SOL     OW62008   0.495   4.652   5.084 -0.1029  0.3629 -0.4259
21188SOL    HW162009   0.474   4.600   5.001  0.4581 -2.0366  0.9069
21188SOL    HW262010   0.420   4.643   5.149 -1.9114  4.6556 -1.7293
21190SOL     OW62011   6.031   5.088   1.002 -0.1581  0.1546  0.3798
21190SOL    HW162012   5.981   5.091   1.088  3.2806 -1.9349  2.6010
21190SOL    HW262013   6.116   5.140   1.012  0.5786 -0.6445 -1.5340
21191SOL     OW62014   8.477   1.763   5.168  0.6701  0.1655 -0.2572
21191SOL    HW162015   8.522   1.851   5.183  1.6214 -0.3942  0.1594
21191SOL    HW262016   8.522   1.692   5.222 -0.9011 -0.3389  0.4380
21192SOL     OW62017   0.222   0.328   4.539 -0.6715 -0.5186  0.1967
21192SOL    HW162018   0.282   0.408   4.541 -0.5592 -0.5828 -0.4101
21192SOL    HW262019   0.262   0.257   4.481 -1.5237 -0.4099 -0.5431
21194SOL     OW62020   6.572   4.738   2.101  0.0831 -0.4050  0.0351
21194SOL    HW162021   6.632   4.720   2.179  0.6696 -1.4009 -0.6471
21194SOL    HW262022   6.518   4.821   2.119 -0.2090 -0.9486  1.7593
21195SOL     OW62023   1.801   1.966   5.172 -0.3199  0.2163 -0.1941
21195SOL    HW162024   1.741   1.971   5.252 -0.0433  0.4087  0.0013
21195SOL    HW262025   1.749   1.929   5.094 -0.2885 -1.0171  0.3600
21196SOL     OW62026   7.702   6.326   5.261  0.3727 -1.2526  0.6451
21196SOL    HW162027   7.717   6.284   5.350  0.6386 -1.6015  0.4381
21196SOL    HW262028   7.779   6.387   5.240  0.5757 -1.5833  0.4195
21197SOL     OW62029   1.789   4.393   3.602 -0.5111  0.3595 -0.3391
21197SOL    HW162030   1.705   4.371   3.651 -0.0920 -1.1972 -0.3004
21197SOL    HW262031   1.829   4.310   3.565  0.1977  1.2821 -1.6958
21201SOL     OW62032   7.353   2.630   1.577  0.2741  0.6186 -0.2186
21201SOL    HW162033   7.269   2.580   1.598  0.1743  0.6150 -0.6099
21201SOL    HW262034   7.415   2.570   1.525  0.0688  0.9631 -0.8695
21202SOL     OW62035   0.266   1.684   4.168 -0.5572  0.1555 -0.4412
21202SOL    HW162036   0.319   1.636   4.098  0.5842  0.1887  0.3890
21202SOL    HW262037   0.254   1.624   4.248 -0.1578  0.8238  0.1244
21203SOL     OW62038   5.638   0.463   4.991 -0.0371 -0.3546  0.3277
21203SOL    HW162039   5.731   0.492   5.013 -0.1954  0.7867 -0.4443
21203SOL    HW262040   5.595   0.423   5.072  1.2936 -1.3410  0.5418
21204SOL     OW62041   3.602   2.727   3.169  0.2417 -0.4878  0.0428
21204SOL    HW162042   3.531   2.780   3.124 -0.7341 -0.5453  1.4709
21204SOL    HW262043   3.642   2.781   3.244  0.5227 -1.0720  0.3195
21205SOL     OW62044   5.338   1.578   4.745 -0.1898 -0.1885 -0.6388
21205SOL    HW162045   5.416   1.624   4.787  0.8126 -0.3845 -2.2157
21205SOL    HW262046   5.366   1.486   4.715 -1.0782 -0.3319 -1.0593
21207SOL     OW62047   8.729   8.671   2.868  0.3442  0.0680  0.3357
21207SOL    HW162048   8.826   8.682   2.891  0.7865 -0.4812 -1.1940
21207SOL    HW262049   8.680   8.634   2.947  1.3340  0.6009  1.2070
21208SOL     OW62050   7.281   8.695   3.567 -0.1579 -0.1372  0.4548
21208SOL    HW162051   7.287   8.785   3.611  0.5382 -0.0078  0.0942
21208SOL    HW262052   7.354   8.637   3.602 -0.5356 -0.5279  0.5964
21209SOL     OW62053   9.167   5.776   3.425 -0.2729 -0.0501 -0.2874
21209SOL    HW162054   9.103   5.817   3.360 -0.0179 -2.1060 -1.9180
21209SOL    HW262055   9.144   5.804   3.518 -4.1467 -1.4146 -0.7316
21210SOL     OW62056   9.009   2.563   2.288  0.9731 -0.2853  0.4668
21210SOL    HW162057   8.955   2.628   2.235 -0.9043 -1.9880  0.2200
21210SOL    HW262058   9.091   2.609   2.324  1.5342  1.2629 -2.6347
21213SOL     OW62059   4.024   9.014   1.844 -0.3199 -0.3118  0.9203
21213SOL    HW162060   3.999   9.108   1.822  1.4000 -0.0471  0.0495
21213SOL    HW262061   3.985   8.952   1.776  0.1978 -0.0369  0.3726
21214SOL     OW62062   1.198   9.114   4.733  0.3471  0.2934  0.3181
21214SOL    HW162063   1.210   9.203   4.688  0.1028  0.8564  1.3695
21214SOL    HW262064   1.156   9.127   4.823  0.2977 -0.8884  0.4724
21215SOL     OW62065   8.061   0.896   1.973 -0.2650 -0.1924 -0.1163
21215SOL    HW162066   7.962   0.889   1.958 -0.4154  0.4207  0.5786
21215SOL    HW262067   8.096   0.808   2.005 -0.5560 -0.4518 -0.5047
21216SOL     OW62068   8.779   8.115   3.192 -0.1858  0.5633 -0.4944
21216SOL    HW162069   8.738   8.024   3.186  1.3163 -0.1246 -0.3888
21216SOL    HW262070   8.757   8.166   3.108 -0.1188 -0.2801 -1.0367
21217SOL     OW62071   3.577   2.155   1.549  0.0749 -0.2457 -0.1374
21217SOL    HW162072   3.667   2.124   1.580  1.2175 -0.0603 -3.0977
21217SOL    HW262073   3.587   2.211   1.467 -2.7628 -0.2961 -0.5868
21218SOL     OW62074   1.230   4.617   3.673  0.5389 -0.6479 -0.1272
21218SOL    HW162075   1.329   4.606   3.676  0.4984 -0.8491  0.4206
21218SOL    HW262076   1.186   4.546   3.727  0.0733 -0.8148 -0.7128
21219SOL     OW62077   1.123   8.184   0.395 -0.4127  0.7733  0.3692
21219SOL    HW162078   1.167   8.122   0.461 -0.0995  1.3808  0.7427
21219SOL    HW262079   1.030   8.154   0.377 -0.5393  0.6717  1.1909
21220SOL     OW62080   3.370  -0.002   0.028 -0.2030  0.0311 -0.2191
21220SOL    HW162081   3.418   0.025  -0.055 -1.3573 -1.1050 -1.2776
21220SOL    HW262082   3.412   0.043   0.107  0.0292  2.2268 -1.5552
21221SOL     OW62083   0.793   8.357   6.093  0.1166  0.3197  0.2839
21221SOL    HW162084   0.861   8.415   6.048 -0.8293  2.6881  1.8207
21221SOL    HW262085   0.821   8.261   6.087  2.8958  1.1352 -0.2538
21222SOL     OW62086   5.715   9.484   6.280 -0.1025 -0.0037  0.6633
21222SOL    HW162087   5.771   9.480   6.197 -1.7627  1.5757 -0.5753
21222SOL    HW262088   5.635   9.426   6.268  0.4307 -1.0002  1.8085
21223SOL     OW62089   3.804   3.412   6.441 -0.0938 -0.4717 -0.2419
21223SOL    HW162090   3.763   3.485   6.496 -0.6023 -0.2172 -0.9354
21223SOL    HW262091   3.835   3.339   6.500  0.2955  0.2500  0.4567
21225SOL     OW62092   4.312   6.023   0.845  0.0384  0.1940 -0.0419
21225SOL    HW162093   4.250   6.101   0.853  1.2127  1.1894 -0.3625
21225SOL    HW262094   4.356   6.024   0.755  0.3394 -0.6299  0.0874
21226SOL     OW62095   2.762   1.946   5.286 -0.4885  0.1981  0.3178
21226SOL    HW162096   2.821   1.956   5.366 -1.5811  0.2359  1.1396
21226SOL    HW262097   2.698   1.871   5.301  0.5797 -1.0801 -1.3581
21227SOL     OW62098   9.652   1.250   6.115 -0.1029  0.5031 -0.5040
21227SOL    HW162099   9.726   1.216   6.173 -0.8273  1.2896  0.9001
21227SOL    HW262100   9.565   1.219   6.152 -0.6195  1.7604 -0.6557
21228SOL     OW62101   3.802   8.119   2.965 -0.5997  0.4632 -0.9433
21228SOL    HW162102   3.848   8.178   3.031 -0.8391 -0.4880  0.0824
21228SOL    HW262103   3.705   8.111   2.990 -0.7309  0.2391 -1.5129
21229SOL     OW62104   5.025   2.965   0.107  0.0914  0.4541 -0.1017
21229SOL    HW162105   5.080   2.963   0.024 -1.5280 -1.3474 -1.1757
21229SOL    HW262106   4.936   2.922   0.089 -0.9824  1.6914  2.0697
21230SOL     OW62107   2.820   2.289   0.146 -0.1013 -0.2017 -0.5365
21230SOL    HW162108   2.898   2.284   0.208 -1.6027 -0.1648  1.4247
21230SOL    HW262109   2.847   2.260   0.054  1.8681 -1.4271  0.4163
21231SOL     OW62110   9.947   8.542   4.383  0.3922 -0.0522  0.3045
21231SOL    HW162111   9.969   8.545   4.481  3.3627 -0.3875 -0.3194
21231SOL    HW262112   9.963   8.449   4.348 -0.1739  0.1926 -0.6250
21232SOL     OW62113   9.597   3.837   1.600 -0.2586 -0.0448  0.5884
21232SOL    HW162114   9.671   3.840   1.533 -0.0563 -1.6874  0.7186
21232SOL    HW262115   9.509   3.844   1.553 -0.1001 -0.6505  0.2026
21234SOL     OW62116   3.348   9.093   4.736 -0.4863 -0.0770  0.2969
21234SOL    HW162117   3.382   9.175   4.783 -1.3251 -0.7787  2.1794
21234SOL    HW262118   3.403   9.014   4.763 -0.6006 -0.3992 -0.3879
21235SOL     OW62119   5.255   1.651   0.398  0.4792 -0.6052  0.0484
21235SOL    HW162120   5.332   1.714   0.385 -0.4822  0.7312  0.7192
21235SOL    HW262121   5.199   1.649   0.316 -1.7821  2.6070  1.4219
21236SOL     OW62122   1.272   9.343   3.445  0.1933  0.7599 -0.0780
21236SOL    HW162123   1.251   9.325   3.541  0.5187  1.0747  0.0527
21236SOL    HW262124   1.371   9.343   3.432  0.1294 -0.5052 -0.6479
21237SOL     OW62125   5.528   2.218   5.325  0.2086  0.1100 -0.2801
21237SOL    HW162126   5.478   2.187   5.405  3.8425  1.0233  2.4383
21237SOL    HW262127   5.572   2.139   5.280  2.8214  0.2186  1.9730
21238SOL     OW62128   7.712   4.566   0.282  0.3235 -0.1392 -0.0634
21238SOL    HW162129   7.810   4.568   0.259  0.2278 -0.4023 -0.5066
21238SOL    HW262130   7.672   4.480   0.249 -0.2514  0.3694 -0.7159
21239SOL     OW62131   2.168   6.547   1.297  0.2254 -0.0363 -0.0539
21239SOL    HW162132   2.206   6.508   1.381 -1.7401  0.3709  1.0420
21239SOL    HW262133   2.106   6.622   1.320 -2.4783 -1.7153 -1.7267
21240SOL     OW62134   8.779   0.308   3.980  0.0428  0.5379  0.0593
21240SOL    HW162135   8.689   0.346   4.004 -0.3818 -0.2134 -0.3366
21240SOL    HW262136   8.774   0.208   3.983  0.6871  0.4894 -0.6524
21242SOL     OW62137   2.685   6.924   0.602  0.1711  0.0771 -0.3159
21242SOL    HW162138   2.590   6.894   0.602 -0.1748  1.1442  0.1800
21242SOL    HW262139   2.703   6.978   0.520  0.0598  0.7168  0.0691
21243SOL     OW62140   3.715   9.259   5.730  0.7862 -0.4675 -0.1511
21243SOL    HW162141   3.790   9.193   5.724  1.3884  0.1553  0.3554
21243SOL    HW262142   3.636   9.215   5.774  0.8739 -1.1102 -0.6295
21244SOL     OW62143   8.438   5.785   1.091  0.0958 -0.0892  0.5146
21244SOL    HW162144   8.492   5.752   1.169  1.1023  1.0081  0.2964
21244SOL    HW262145   8.490   5.774   1.007 -1.0545 -1.4104 -0.0365
21245SOL     OW62146   8.201   1.845   2.824  0.2408  0.1723  0.2592
21245SOL    HW162147   8.256   1.888   2.896  2.0599 -0.1748 -0.8987
21245SOL    HW262148   8.260   1.816   2.749 -1.2013 -2.5118  0.0921
21247SOL     OW62149   7.934   7.425   3.800  0.0443  0.2950 -0.0386
21247SOL    HW162150   7.850   7.478   3.799 -0.0177  0.2310  1.1112
21247SOL    HW262151   7.962   7.408   3.894  1.8517  1.1228 -0.3857
21248SOL     OW62152   8.674   0.962   5.543 -0.3364 -0.4255 -0.6299
21248SOL    HW162153   8.649   0.882   5.489 -1.9502 -0.8119  0.6543
21248SOL    HW262154   8.654   0.945   5.640  2.6204  0.1932  0.1556
21250SOL     OW62155   6.991   0.247   3.994 -0.0376  0.0489 -0.5136
21250SOL    HW162156   7.035   0.336   3.983 -1.9218  0.7308 -3.0665
21250SOL    HW262157   7.039   0.195   4.064  2.7383  2.0245 -0.8418
21251SOL     OW62158   4.148   7.966   6.336  0.1165  0.2702 -0.2906
21251SOL    HW162159   4.231   7.912   6.326  0.3812  0.8085 -0.9872
21251SOL    HW262160   4.151   8.016   6.422  0.9614  1.0605 -0.7725
21252SOL     OW62161   7.915   0.768   1.266 -0.0816 -0.0118 -0.0536
21252SOL    HW162162   8.003   0.730   1.294 -0.6723 -1.4877 -0.1449
21252SOL    HW262163   7.841   0.712   1.303 -0.9657  0.8041 -0.5635
21253SOL     OW62164   5.674   4.745   1.764 -0.4322  0.2719 -0.2330
21253SOL    HW162165   5.770   4.771   1.756  0.0667 -1.1245  0.9704
21253SOL    HW262166   5.616   4.819   1.729  1.0861  0.8621 -1.5608
21254SOL     OW62167   0.733   5.904   4.606 -0.4193  0.0088  0.1097
21254SOL    HW162168   0.655   5.888   4.667 -0.4007  3.3117  1.0889
21254SOL    HW262169   0.710   5.974   4.540  0.5065 -1.6519 -2.0413
21255SOL     OW62170   9.612   1.814   3.161 -0.4974  0.3080  0.3456
21255SOL    HW162171   9.563   1.802   3.247  1.2726  0.6242  1.4045
21255SOL    HW262172   9.632   1.725   3.121 -1.6961  0.1706  0.0329
21256SOL     OW62173   1.395   5.196   2.858 -0.1076  0.3753  0.0556
21256SOL    HW162174   1.322   5.228   2.797 -0.7409 -0.1208  0.5433
21256SOL    HW262175   1.469   5.157   2.804 -0.5011  0.2745 -0.4170
21258SOL     OW62176   3.367   4.490   2.289 -0.3041 -0.4377 -0.6082
21258SOL    HW162177   3.346   4.553   2.364  0.3320 -1.7107  0.6609
21258SOL    HW262178   3.284   4.469   2.238 -0.8439  0.0076  0.0862
21259SOL     OW62179   0.174   9.994   3.405  0.3521 -0.0376  0.2561
21259SOL    HW162180   0.225   9.984   3.491  2.4130  1.0574 -0.8071
21259SOL    HW262181   0.197   9.918   3.344 -0.0460 -0.0651  0.1409
21260SOL     OW62182   0.315   6.162   3.249  0.4248 -0.1790 -0.5342
21260SOL    HW162183   0.404   6.179   3.290 -0.3309 -1.7807  1.8777
21260SOL    HW262184   0.320   6.079   3.193  0.4812 -0.2415 -0.4386
21261SOL     OW62185   9.662   8.391   2.612  1.0323 -0.4204  0.2801
21261SOL    HW162186   9.689   8.448   2.690  2.0340  0.6105 -0.8092
21261SOL    HW262187   9.725   8.313   2.605  1.3979 -0.1033  0.0492
21262SOL     OW62188   1.996   6.735   4.331  0.3520 -0.0171 -0.2939
21262SOL    HW162189   2.008   6.648   4.283  2.2902 -0.1025  0.3132
21262SOL    HW262190   1.997   6.718   4.430 -0.4608  0.5608 -0.1789
21263SOL     OW62191   8.478   1.126   5.832  0.8897  0.1586  0.1424
21263SOL    HW162192   8.573   1.094   5.827  0.4924 -1.0730  0.1333
21263SOL    HW262193   8.425   1.079   5.761 -0.0936 -0.4914  1.3026
21264SOL     OW62194   8.317   3.827   2.966  0.7686 -0.3433  0.3083
21264SOL    HW162195   8.407   3.860   2.938  1.6562 -1.5369  1.6914
21264SOL    HW262196   8.319   3.728   2.980  0.0150 -0.0248  3.0603
21265SOL     OW62197   8.255   6.143   4.167  0.2124  0.2424 -0.8623
21265SOL    HW162198   8.226   6.058   4.211 -0.4814  1.1108  0.3931
21265SOL    HW262199   8.220   6.146   4.074 -2.3180  0.4797  0.0610
21266SOL     OW62200   1.785   4.781   2.788 -0.8077 -0.0827 -0.2500
21266SOL    HW162201   1.687   4.762   2.793 -1.0644  0.4508 -2.4991
21266SOL    HW262202   1.799   4.880   2.786 -0.3909 -0.1627 -2.1444
21269SOL     OW62203   3.017   8.795   3.663 -0.3065 -0.2104  0.3730
21269SOL    HW162204   3.069   8.829   3.585 -1.2040  1.8791  0.6461
21269SOL    HW262205   3.063   8.821   3.748  0.2922 -1.8466  0.5589
21270SOL     OW62206   9.607   1.774   6.049  0.2677 -0.1653 -0.3999
21270SOL    HW162207   9.606   1.873   6.060  1.6259 -0.2090  0.1653
21270SOL    HW262208   9.557   1.749   5.965  0.9135  1.0631 -1.1587
21271SOL     OW62209   3.193   1.559   5.043 -0.2641  0.7408 -0.4738
21271SOL    HW162210   3.170   1.578   4.947 -1.3058  1.4385 -0.1041
21271SOL    HW262211   3.143   1.478   5.073  1.3413 -0.4579 -0.9883
21273SOL     OW62212   4.235   0.164   0.499 -0.3508  0.4247 -0.0476
21273SOL    HW162213   4.298   0.184   0.573  0.5809 -1.1661 -0.3848
21273SOL    HW262214   4.260   0.077   0.456 -2.3035  0.1469 -0.6878
21274SOL     OW62215   1.443   1.206   1.294 -0.4654 -0.4990  0.1188
21274SOL    HW162216   1.436   1.146   1.373  1.0070  0.0826  0.7044
21274SOL    HW262217   1.408   1.296   1.318 -0.4317 -0.4475 -0.0270
21276SOL     OW62218   0.564   8.645   5.795 -0.2729 -0.5204  0.0637
21276SOL    HW162219   0.604   8.569   5.743 -0.7288  0.8421 -2.3816
21276SOL    HW262220   0.626   8.724   5.791  0.1057 -0.6661  2.4139
21277SOL     OW62221   3.967   3.047   2.097  0.1711  0.4435  0.4831
21277SOL    HW162222   3.964   3.076   2.001 -2.7564  0.7040  0.6310
21277SOL    HW262223   3.954   3.126   2.157 -0.4308 -0.0734  1.0417
21278SOL     OW62224   3.546   6.562   1.461  0.7654 -0.1145 -0.4013
21278SOL    HW162225   3.523   6.646   1.510  2.3139 -0.0975  0.3068
21278SOL    HW262226   3.562   6.583   1.364  1.0960  0.3829 -0.2362
21279SOL     OW62227   6.033   1.725   1.572  0.2284  0.2387  0.2140
21279SOL    HW162228   5.986   1.636   1.572 -0.4473  0.5961  0.9298
21279SOL    HW262229   5.966   1.798   1.580  0.7729  0.8357 -0.6109
21280SOL     OW62230   7.209   2.025   0.255  0.1384 -0.8909  0.3697
21280SOL    HW162231   7.183   1.989   0.165  0.2544  0.4739 -0.2250
21280SOL    HW262232   7.132   2.074   0.295  0.8746  0.7114 -0.1401
21282SOL     OW62233   1.366   3.835   6.228  0.1913 -0.1073 -0.0908
21282SOL    HW162234   1.455   3.826   6.274 -0.1803 -1.5596  0.3700
21282SOL    HW262235   1.347   3.932   6.212  1.3014  0.2938  0.9069
21283SOL     OW62236   0.127   4.487   0.644  0.0249  0.0278  0.0687
21283SOL    HW162237   0.210   4.453   0.600  0.9372  0.4874  1.3964
21283SOL    HW262238   0.049   4.472   0.584  1.2995  1.1155 -1.9236
21284SOL     OW62239   2.597   6.830   3.271 -0.0271  0.2893  0.3058
21284SOL    HW162240   2.537   6.900   3.309  1.0842  1.1713  0.4600
21284SOL    HW262241   2.663   6.872   3.209 -1.1159 -0.9954 -1.7812
21285SOL     OW62242   9.099   4.459   0.490 -1.0396  0.6292  0.1257
21285SOL    HW162243   9.182   4.452   0.545 -0.0321  2.5107 -1.0977
21285SOL    HW262244   9.064   4.553   0.494 -1.4946  0.5548 -1.6641
21286SOL     OW62245   5.040   4.972   2.488 -0.3485  0.6162 -0.2694
21286SOL    HW162246   5.024   5.070   2.500  1.3692  0.9008 -0.2107
21286SOL    HW262247   5.071   4.953   2.395  1.1882  0.3962  0.2699
21287SOL     OW62248   4.212   4.747   4.325  0.2634  0.2684 -0.0420
21287SOL    HW162249   4.290   4.804   4.350  1.5902 -1.4491 -0.1953
21287SOL    HW262250   4.169   4.711   4.408  0.6925 -0.1730 -0.0085
21288SOL     OW62251   0.377   8.157   3.739  0.2006  0.2047 -0.5352
21288SOL    HW162252   0.426   8.074   3.767  0.2179  0.3059 -0.2689
21288SOL    HW262253   0.278   8.139   3.741  0.1629  0.5155  0.5546
21289SOL     OW62254   0.419   9.404   5.193 -0.1051 -0.4146 -0.2574
21289SOL    HW162255   0.481   9.426   5.268  0.0395  2.0181 -1.0560
21289SOL    HW262256   0.326   9.392   5.229  0.3286 -1.3066  0.5706
21290SOL     OW62257   0.313   9.778   2.300 -0.3208  0.1770 -0.3068
21290SOL    HW162258   0.255   9.786   2.381  0.0524  2.0373 -0.1834
21290SOL    HW262259   0.386   9.847   2.305  0.1639 -0.2052 -1.8485
21291SOL     OW62260   8.560   9.215   4.550 -0.1515 -0.1528 -0.1327
21291SOL    HW162261   8.476   9.209   4.604 -0.5359  0.4158 -0.6584
21291SOL    HW262262   8.575   9.310   4.524  0.5700 -0.2811 -0.1807
21293SOL     OW62263   5.135   2.510   3.625 -0.7406  0.0133  0.5397
21293SOL    HW162264   5.071   2.446   3.668 -0.0320 -0.4051  0.9823
21293SOL    HW262265   5.094   2.546   3.541 -0.1106 -2.9975 -1.1433
21294SOL     OW62266   7.686   7.813   2.603 -0.5174 -0.1247 -0.3557
21294SOL    HW162267   7.646   7.722   2.606 -0.9769  0.1099  0.8815
21294SOL    HW262268   7.720   7.831   2.511 -1.2553 -1.1852 -0.8488
21297SOL     OW62269   3.620   3.057   3.553 -0.2244 -0.4710  0.2891
21297SOL    HW162270   3.718   3.037   3.558 -0.5392 -2.1996 -0.3162
21297SOL    HW262271   3.607   3.155   3.538  1.3807 -0.0580  1.4687
21299SOL     OW62272   4.810   7.250   3.609  0.0503  0.4918 -0.0016
21299SOL    HW162273   4.907   7.238   3.630  0.7579  1.5420 -2.4836
21299SOL    HW262274   4.774   7.328   3.660  0.5929  0.2841  0.6997
21300SOL     OW62275   8.897   3.473   1.593  0.4429 -0.6404 -0.1436
21300SOL    HW162276   8.849   3.418   1.662  1.5625  0.8010  1.8667
21300SOL    HW262277   8.971   3.419   1.554 -1.5800 -2.2351 -1.8966
21301SOL     OW62278   1.841   1.649   4.640 -0.1873 -0.2280 -0.0177
21301SOL    HW162279   1.778   1.715   4.601 -0.1826 -0.8170 -1.0538
21301SOL    HW262280   1.816   1.630   4.735  0.5207  2.1290  0.6787
21303SOL     OW62281   4.024   8.850   5.171  0.0404  0.7602  0.2956
21303SOL    HW162282   3.962   8.929   5.168 -0.9533 -0.0047  0.4366
21303SOL    HW262283   4.050   8.832   5.266 -2.6674 -1.3183  0.6920
21304SOL     OW62284   1.187   3.046   1.717  0.0725  0.2073 -0.4019
21304SOL    HW162285   1.148   3.132   1.751  1.2074  2.1733 -3.7195
21304SOL    HW262286   1.241   3.002   1.788  0.5327  2.9546  1.0001
21305SOL     OW62287   0.222   7.494   3.851 -0.1991  0.0860  0.4269
21305SOL    HW162288   0.162   7.428   3.894  0.0515  0.2411  1.0214
21305SOL    HW262289   0.317   7.465   3.862 -0.1734 -0.3057 -0.7541
21306SOL     OW62290   4.993   3.404   4.497  0.1462  0.7372 -0.0093
21306SOL    HW162291   4.961   3.415   4.403 -0.2418  1.6498  0.2287
21306SOL    HW262292   4.977   3.489   4.548 -1.2864 -0.3453  1.3829
21307SOL     OW62293   6.672   9.599   4.686 -0.1932  0.1257 -0.5796
21307SOL    HW162294   6.743   9.531   4.668 -0.4049 -0.5310  1.0089
21307SOL    HW262295   6.611   9.565   4.757 -0.0550  2.1566  0.5482
21308SOL     OW62296   4.300   8.807   5.395 -0.2385 -0.0636 -0.0649
21308SOL    HW162297   4.292   8.707   5.396  0.9619 -0.1624  1.3974
21308SOL    HW262298   4.381   8.833   5.343  0.3620  0.0573  0.9124
21309SOL     OW62299   5.756   5.307   0.111  0.5794 -0.3866 -0.2836
21309SOL    HW162300   5.749   5.326   0.209 -0.8783 -1.0469 -0.2525
21309SOL    HW262301   5.745   5.208   0.095  0.0821 -0.1943 -1.1786
21310SOL     OW62302   7.773   2.119   0.270 -0.3525  0.0785 -0.0197
21310SOL    HW162303   7.854   2.152   0.319  0.2843 -0.0502 -0.9693
21310SOL    HW262304   7.690   2.156   0.314  0.2330  0.5126  0.7319
21311SOL     OW62305   0.027   4.351   1.861 -0.0930 -0.2601 -0.1445
21311SOL    HW162306  -0.061   4.398   1.852 -0.3900 -0.8187 -0.1392
21311SOL    HW262307   0.097   4.403   1.812 -1.1116 -1.6543 -3.2056
21312SOL     OW62308   9.009   8.262   3.698  0.3132 -0.1696 -0.2172
21312SOL    HW162309   9.052   8.245   3.787  0.4968 -0.4514 -0.3564
21312SOL    HW262310   8.960   8.348   3.700 -2.0079 -1.4782  1.0111
21313SOL     OW62311   2.215   8.334   3.153 -0.6999  0.3201 -0.4407
21313SOL    HW162312   2.263   8.392   3.087  0.1134  0.8408  0.5818
21313SOL    HW262313   2.160   8.267   3.105  0.1566  0.4633 -1.6481
21314SOL     OW62314   7.345   6.185   6.359 -0.0173 -0.2025 -0.1722
21314SOL    HW162315   7.336   6.285   6.357 -1.1799 -0.3319 -1.3630
21314SOL    HW262316   7.293   6.149   6.436  0.7437  0.1325  0.5121
21315SOL     OW62317   7.169   2.935   3.515 -0.4594  0.4267 -0.0388
21315SOL    HW162318   7.263   2.955   3.540 -0.3868 -1.5533  1.3967
21315SOL    HW262319   7.165   2.902   3.421  0.4537 -0.7592  0.3316
21316SOL     OW62320   1.661   8.033   0.741  0.3718  0.4228  0.2396
21316SOL    HW162321   1.611   7.962   0.789  1.0038 -0.0940  0.1494
21316SOL    HW262322   1.728   7.991   0.679 -0.2983  1.0757 -0.9530
21317SOL     OW62323   8.239   5.594   4.815 -0.2222  0.1572 -0.0859
21317SOL    HW162324   8.313   5.533   4.844 -0.6493 -1.9736 -3.2346
21317SOL    HW262325   8.276   5.685   4.798  1.3196 -0.3925  0.2358
21318SOL     OW62326   9.738   9.950   3.325 -0.2162  0.7294  0.7238
21318SOL    HW162327   9.793   9.906   3.397  1.6804  3.0700  0.8058
21318SOL    HW262328   9.771   9.921   3.236  0.3151  1.1315  0.7846
21319SOL     OW62329   8.625   4.326   3.521  0.5819  0.2254  0.3281
21319SOL    HW162330   8.591   4.390   3.453  1.1552  0.6632  0.4450
21319SOL    HW262331   8.677   4.376   3.591 -0.4763 -0.1455  1.3961
21320SOL     OW62332   7.759   3.513   1.744  0.0419 -0.4915 -0.1486
21320SOL    HW162333   7.699   3.531   1.822 -0.2180  1.7735 -0.8407
21320SOL    HW262334   7.705   3.512   1.660  0.9390  1.8155 -0.8019
21321SOL     OW62335   7.615   1.745   4.198  0.3950 -0.4289 -0.2813
21321SOL    HW162336   7.573   1.657   4.222 -0.9776  0.9748  2.8089
21321SOL    HW262337   7.709   1.747   4.231  0.8353 -1.1646 -1.4536
21322SOL     OW62338   1.629   3.471   6.078 -0.3328 -0.1856  0.2060
21322SOL    HW162339   1.675   3.414   6.009 -0.5578 -0.7867  0.5453
21322SOL    HW262340   1.560   3.416   6.125 -0.2327  0.2413  0.8568
21323SOL     OW62341   8.776   0.478   1.834 -0.2895 -0.4191 -0.0254
21323SOL    HW162342   8.692   0.473   1.780 -1.3647 -1.1998  1.6967
21323SOL    HW262343   8.761   0.436   1.923  1.8723 -0.3677  0.3849
21325SOL     OW62344   2.568   7.932   5.534 -0.4980 -0.0553 -0.4758
21325SOL    HW162345   2.634   7.881   5.479 -1.1542 -1.0534 -0.3505
21325SOL    HW262346   2.514   7.992   5.475  1.2283  1.5813 -0.4510
21327SOL     OW62347   2.449   1.484   0.839 -0.7528  0.1139  0.2385
21327SOL    HW162348   2.404   1.545   0.904 -1.9086 -0.6198  0.1304
21327SOL    HW262349   2.507   1.538   0.778 -1.3544  1.0477  0.4868
21329SOL     OW62350   8.034   9.758   4.109 -0.5479 -0.3070 -0.3528
21329SOL    HW162351   8.015   9.668   4.071 -0.3110 -0.1990 -0.7231
21329SOL    HW262352   7.992   9.765   4.200 -0.3276 -0.8931 -0.2028
21330SOL     OW62353   1.766   3.244   5.951 -0.7846 -0.9246  0.7629
21330SOL    HW162354   1.848   3.297   5.974 -2.3846  2.5072 -1.0899
21330SOL    HW262355   1.789   3.176   5.881  0.3960  0.2999 -0.0694
21331SOL     OW62356   8.547   1.381   5.582  0.3841  0.2813 -0.7171
21331SOL    HW162357   8.597   1.316   5.525  0.4243 -0.7055  0.4138
21331SOL    HW262358   8.593   1.469   5.582 -0.0898  0.5474 -2.8878
21332SOL     OW62359   7.888   6.090   0.995 -0.0396  0.2407 -0.2680
21332SOL    HW162360   7.895   5.996   0.961  0.8608  0.1497  0.1621
21332SOL    HW262361   7.957   6.147   0.950  0.9572  0.1870  1.1722
21333SOL     OW62362   8.679   9.159   0.721 -0.1876  0.6495 -0.0718
21333SOL    HW162363   8.615   9.234   0.705 -1.5737 -0.5686 -0.3687
21333SOL    HW262364   8.712   9.124   0.634  1.3736  1.6509  0.0905
21334SOL     OW62365   1.289   0.814   6.281 -0.3500 -0.1353 -0.3785
21334SOL    HW162366   1.369   0.874   6.283 -0.4921  0.0685 -0.7689
21334SOL    HW262367   1.301   0.745   6.209  1.1843 -2.4864  2.0359
21335SOL     OW62368   7.314   3.267   5.746  0.2190 -0.1761  0.2285
21335SOL    HW162369   7.223   3.307   5.735 -0.0544 -0.6650  0.6804
21335SOL    HW262370   7.324   3.190   5.683 -0.1578 -0.9369  1.0914
21338SOL     OW62371   4.053   6.265   2.386  0.0062  0.8759 -0.2377
21338SOL    HW162372   4.048   6.242   2.483  0.3501  1.0809 -0.1696
21338SOL    HW262373   3.966   6.243   2.342  0.3969 -0.7683 -0.2283
21339SOL     OW62374   6.730   0.346   4.070  0.0429 -0.3436 -0.1911
21339SOL    HW162375   6.814   0.318   4.024 -0.6219 -1.7672 -0.5849
21339SOL    HW262376   6.671   0.393   4.005  0.1470 -0.1605 -0.1538
21341SOL     OW62377   5.281   7.756   3.283  0.6770 -0.6764  0.3015
21341SOL    HW162378   5.184   7.734   3.277  0.4510  0.2082  0.6879
21341SOL    HW262379   5.312   7.752   3.378  0.8207 -0.1344  0.2813
21344SOL     OW62380   7.226   4.735   1.589 -0.3580 -0.1411  0.8185
21344SOL    HW162381   7.216   4.658   1.526  1.2762 -0.2635  0.6901
21344SOL    HW262382   7.253   4.701   1.679  0.5283  0.2765  0.7208
21346SOL     OW62383   9.256   3.197   3.959  0.1641  0.3712 -0.5488
21346SOL    HW162384   9.219   3.113   3.919  0.5176  0.7470 -1.6708
21346SOL    HW262385   9.328   3.173   4.025 -0.4453 -0.2467 -0.0982
21347SOL     OW62386   2.306   9.392   1.109  0.2140  0.2443  0.6008
21347SOL    HW162387   2.404   9.386   1.129  0.4196 -0.0854 -0.4961
21347SOL    HW262388   2.270   9.301   1.089  0.3135  0.7217 -1.9189
21348SOL     OW62389   1.041   6.884   2.672  0.3764 -0.3584  0.2959
21348SOL    HW162390   1.002   6.822   2.604  1.0096 -0.8903  0.4091
21348SOL    HW262391   0.979   6.961   2.687 -0.5461 -1.1027  0.3436
21349SOL     OW62392   8.535   8.245   5.833  0.3251 -0.0417  0.0258
21349SOL    HW162393   8.540   8.342   5.810 -1.7067 -0.3871 -2.1342
21349SOL    HW262394   8.522   8.235   5.932 -1.3809  1.9782  0.0417
21350SOL     OW62395   7.694   4.570   1.975  0.8825  0.4716 -0.5117
21350SOL    HW162396   7.688   4.669   1.957 -1.2644  0.3267 -0.7268
21350SOL    HW262397   7.705   4.555   2.073 -1.5714  0.8805 -0.1366
21351SOL     OW62398   3.772   6.980   4.653  0.2410  0.4294 -0.2417
21351SOL    HW162399   3.782   6.936   4.564 -3.0921 -0.9339  0.0074
21351SOL    HW262400   3.863   6.995   4.693  1.7170  0.0541 -3.3510
21353SOL     OW62401   3.796   5.043   6.437  0.5293 -0.2164 -0.6037
21353SOL    HW162402   3.840   5.043   6.526  0.3415  1.7801 -0.4840
21353SOL    HW262403   3.696   5.048   6.448  0.5565  1.3599 -0.9105
21354SOL     OW62404   4.314   1.022   3.610 -0.7990 -0.3729  0.2630
21354SOL    HW162405   4.410   1.032   3.584 -0.7099  0.5591  0.9273
21354SOL    HW262406   4.268   0.962   3.545 -0.3811  1.2266 -1.5579
21356SOL     OW62407   3.053   9.603   2.407  0.2011  0.0186  0.5024
21356SOL    HW162408   3.135   9.659   2.423  0.2082  0.2315 -0.2440
21356SOL    HW262409   3.058   9.521   2.464  1.2193 -0.2497  0.0544
21357SOL     OW62410   1.507   6.161   6.051 -0.4613 -0.4151  0.2569
21357SOL    HW162411   1.569   6.185   6.126 -0.5909  0.9944 -0.0908
21357SOL    HW262412   1.540   6.078   6.006  1.1236  0.2744  0.1310
21358SOL     OW62413   7.664   1.860   0.300  0.2446  0.1473  0.4190
21358SOL    HW162414   7.564   1.856   0.297  0.2436  1.2018 -1.3164
21358SOL    HW262415   7.694   1.954   0.285  1.4913 -0.0229  1.7245
21359SOL     OW62416   8.725   3.520   2.928 -0.4238 -0.1924  0.0374
21359SOL    HW162417   8.739   3.585   2.854 -0.1074 -0.2879  0.0099
21359SOL    HW262418   8.699   3.431   2.891  0.5500 -0.4659 -0.0166
21360SOL     OW62419   1.332   1.702   5.281 -0.4801 -0.2021 -0.2229
21360SOL    HW162420   1.274   1.694   5.201 -0.1686  2.4345 -0.7807
21360SOL    HW262421   1.383   1.788   5.276 -0.7154  0.1874  2.9474
21362SOL     OW62422   0.526   0.429   4.238  0.4077 -0.1450  0.2340
21362SOL    HW162423   0.552   0.335   4.261  1.2389 -0.4087 -1.7573
21362SOL    HW262424   0.602   0.491   4.258 -0.1423  0.1424  1.5545
21364SOL     OW62425   8.703   1.135   4.704 -0.1419 -0.0340 -0.5211
21364SOL    HW162426   8.669   1.093   4.620  2.7036 -0.0900 -1.6990
21364SOL    HW262427   8.787   1.186   4.685  0.8517 -0.4659  2.3846
21365SOL     OW62428   2.798   0.758   1.391 -0.3090  0.1397  0.1923
21365SOL    HW162429   2.823   0.808   1.308  0.7679  0.3205  0.6129
21365SOL    HW262430   2.739   0.815   1.449  1.1690  1.0549  0.8155
21366SOL     OW62431   3.732   3.725   0.638  0.1956  0.0670  0.0972
21366SOL    HW162432   3.709   3.817   0.669  0.0553 -0.0027  0.1981
21366SOL    HW262433   3.698   3.711   0.545  0.2742  0.1388  0.0574
21368SOL     OW62434   2.362   4.746   0.919 -0.7467 -0.3304  0.0613
21368SOL    HW162435   2.397   4.755   0.825  3.4284 -1.7342  1.3545
21368SOL    HW262436   2.343   4.650   0.938 -0.3700 -0.2143  1.0337
21369SOL     OW62437   8.830   8.056   2.138  0.1124 -0.7245 -0.3493
21369SOL    HW162438   8.735   8.088   2.136 -0.1865 -1.6310 -0.5816
21369SOL    HW262439   8.891   8.135   2.144 -0.6913 -0.1780  0.8862
21370SOL     OW62440   3.195   5.134   1.873  0.2459  0.0264 -0.3665
21370SOL    HW162441   3.109   5.176   1.845 -0.6818  0.2005  2.6305
21370SOL    HW262442   3.269   5.201   1.863 -0.4688  0.8806 -0.0130
21371SOL     OW62443   3.783   2.264   4.281  0.0745 -0.1929 -0.7151
21371SOL    HW162444   3.800   2.289   4.377 -0.3025  0.3886 -0.7946
21371SOL    HW262445   3.793   2.165   4.270 -0.5240 -0.3494  0.0664
21372SOL     OW62446   4.196   0.011   2.435  0.2082 -0.1060 -0.0612
21372SOL    HW162447   4.275  -0.033   2.393 -0.3188 -0.6559 -0.4873
21372SOL    HW262448   4.204   0.008   2.535  1.9262  2.0432 -0.1007
21373SOL     OW62449   7.316   4.390   1.583  0.3355 -0.4196  0.2161
21373SOL    HW162450   7.226   4.346   1.583  0.3553 -0.4513 -0.5361
21373SOL    HW262451   7.386   4.323   1.607  0.1445 -0.3538  0.9895
21375SOL     OW62452   5.133   5.512   0.688 -0.0451  0.9508  0.4748
21375SOL    HW162453   5.184   5.451   0.627 -0.1317  1.5575 -0.2076
21375SOL    HW262454   5.052   5.464   0.723 -0.3181  0.8010 -0.3590
21376SOL     OW62455   7.633   3.445   5.486 -0.7650  0.7308  0.1609
21376SOL    HW162456   7.617   3.374   5.555 -0.1863 -0.2201 -0.6513
21376SOL    HW262457   7.592   3.531   5.515  0.5074  0.6695  2.2526
21377SOL     OW62458   2.573   1.637   6.079  0.0447 -0.3007  0.1496
21377SOL    HW162459   2.582   1.543   6.044  0.3619 -0.8794  1.7262
21377SOL    HW262460   2.544   1.697   6.005  1.8089 -1.2662 -1.3692
21378SOL     OW62461   6.738   0.262   2.665 -0.2928  0.4631  0.6053
21378SOL    HW162462   6.684   0.192   2.711  2.5436 -1.8931  0.4730
21378SOL    HW262463   6.778   0.323   2.733 -1.1150  0.7335  0.8518
21379SOL     OW62464   3.184   4.335   2.823 -0.2104 -0.3570 -0.7121
21379SOL    HW162465   3.167   4.429   2.796 -0.6901 -0.4572 -0.7493
21379SOL    HW262466   3.099   4.283   2.824  0.1077 -0.9004 -1.1031
21380SOL     OW62467   0.934   5.392   1.271  0.4907 -0.2175  0.0039
21380SOL    HW162468   0.841   5.423   1.251  1.3053  1.2281 -1.6746
21380SOL    HW262469   0.946   5.299   1.236 -0.1351 -0.1835 -0.3159
21381SOL     OW62470   2.263   4.360   4.872 -0.0209  0.3327 -0.4146
21381SOL    HW162471   2.254   4.337   4.775 -1.4375  0.2467 -0.2770
21381SOL    HW262472   2.200   4.303   4.925 -0.9092  1.9549  0.3138
21383SOL     OW62473   6.625   7.592   6.309  0.2676  0.1897  0.0452
21383SOL    HW162474   6.570   7.653   6.251 -1.6738 -0.1697  1.4584
21383SOL    HW262475   6.673   7.646   6.378 -0.4912  0.2397  0.5351
21384SOL     OW62476   9.367   6.770   4.573  0.2502 -0.2951 -0.1330
21384SOL    HW162477   9.377   6.710   4.652  1.1735 -0.3814 -0.3058
21384SOL    HW262478   9.311   6.849   4.598 -3.0288 -2.3858 -0.5509
21385SOL     OW62479   5.566   9.097   2.773 -0.6321 -0.1301  0.5893
21385SOL    HW162480   5.579   9.170   2.839 -0.1362  0.1504  0.1871
21385SOL    HW262481   5.653   9.079   2.726 -1.0181 -0.2169 -0.0929
21386SOL     OW62482   8.596   0.757   0.923  0.4741 -0.8979 -0.1617
21386SOL    HW162483   8.640   0.779   1.010  0.0107 -1.8809  0.3362
21386SOL    HW262484   8.666   0.739   0.853  0.8518  1.8204 -0.5175
21387SOL     OW62485   7.264   9.757   5.643  0.1889 -0.1757 -0.9402
21387SOL    HW162486   7.208   9.708   5.710  0.1552  0.0548 -0.7996
21387SOL    HW262487   7.361   9.745   5.665  0.1163  2.2355  0.8111
21388SOL     OW62488   6.718   1.010   1.753  0.9135  0.5820  0.1307
21388SOL    HW162489   6.760   0.938   1.809  1.2872  0.7251  0.0399
21388SOL    HW262490   6.629   1.035   1.791  0.8667  0.2023  0.2693
21389SOL     OW62491   2.302   6.637   6.162  0.4717 -0.3658  0.0802
21389SOL    HW162492   2.365   6.619   6.088  1.8840 -0.4328  1.2762
21389SOL    HW262493   2.324   6.726   6.203  1.0577 -1.2594  1.7523
21390SOL     OW62494   8.243   4.621   3.490 -0.6377  0.1294  0.3897
21390SOL    HW162495   8.151   4.627   3.528  0.0323  0.6879  1.9526
21390SOL    HW262496   8.241   4.649   3.394 -2.2110 -0.5795  0.1945
21391SOL     OW62497   9.783   3.353   2.382  0.0537 -0.0380 -0.1110
21391SOL    HW162498   9.700   3.347   2.439 -1.5899  0.8295 -2.3305
21391SOL    HW262499   9.802   3.449   2.362  1.9741 -0.2033  0.8774
21392SOL     OW62500   2.371   3.892   2.162  0.4187  0.3861 -0.6331
21392SOL    HW162501   2.416   3.981   2.153  2.3800 -0.6077 -0.9265
21392SOL    HW262502   2.358   3.871   2.259  1.2156  0.3865 -0.5211
21393SOL     OW62503   2.599   9.462   1.712 -0.7406 -0.3016  0.1125
21393SOL    HW162504   2.596   9.467   1.812 -0.4462  0.4391  0.0898
21393SOL    HW262505   2.505   9.463   1.676 -0.8076  2.9842  0.2396
21394SOL     OW62506   8.966   1.611   3.319  0.5797 -0.5608 -0.4114
21394SOL    HW162507   8.869   1.631   3.332  0.8882  0.1928  0.9142
21394SOL    HW262508   9.019   1.663   3.387  1.8994 -0.9606 -1.1321
21395SOL     OW62509   2.974   9.868   4.889 -0.6848  0.1452 -0.1415
21395SOL    HW162510   2.919   9.808   4.946 -0.2174 -1.7953 -1.6665
21395SOL    HW262511   3.045   9.815   4.843 -0.7771  1.7251 -2.1946
21396SOL     OW62512   7.966   1.531   5.691 -0.1902  0.1564  0.4061
21396SOL    HW162513   7.905   1.496   5.762 -0.2802  1.9926  1.2723
21396SOL    HW262514   8.042   1.579   5.733  0.3920  0.2558 -0.7296
21397SOL     OW62515   9.541   5.227   1.480 -0.3453  0.2297 -0.7920
21397SOL    HW162516   9.481   5.267   1.550 -0.8214 -0.4334 -0.8257
21397SOL    HW262517   9.502   5.142   1.447  1.2698 -0.8983  0.1492
21398SOL     OW62518   3.538   0.418   5.738 -0.4428  0.1681 -0.1685
21398SOL    HW162519   3.599   0.495   5.720  2.1252 -2.0040 -0.9627
21398SOL    HW262520   3.501   0.384   5.652  0.8606 -1.4138 -0.1194
21399SOL     OW62521   1.554   1.962   4.297 -0.5053  0.6139 -0.2912
21399SOL    HW162522   1.539   1.915   4.210 -0.5657  0.6478 -0.2990
21399SOL    HW262523   1.628   2.029   4.286  0.0355  0.0573 -0.1071
21400SOL     OW62524   4.800   3.275   5.381 -0.1749  0.1893 -0.5565
21400SOL    HW162525   4.711   3.276   5.426 -0.2175 -0.0176 -0.6326
21400SOL    HW262526   4.872   3.270   5.451 -0.2706 -1.0892 -0.5275
21401SOL     OW62527   3.746   1.339   1.988 -0.0127  0.0512  0.2082
21401SOL    HW162528   3.704   1.256   1.950 -2.0476  1.3764 -0.5143
21401SOL    HW262529   3.753   1.408   1.916  0.2678  1.0297  1.1745
21403SOL     OW62530   5.417   5.797   1.401  0.1045 -0.1026 -0.3110
21403SOL    HW162531   5.376   5.889   1.397  1.1558  0.3575 -0.6137
21403SOL    HW262532   5.509   5.803   1.438 -0.4005 -1.2540  1.1969
21404SOL     OW62533   4.087   2.397   5.428  0.0851  0.2848 -0.0513
21404SOL    HW162534   4.170   2.437   5.389  0.2221 -1.3620 -1.4935
21404SOL    HW262535   4.112   2.329   5.496 -0.1198  0.7690  0.5165
21405SOL     OW62536   3.651   7.384   4.334  0.6086  0.1983 -0.2527
21405SOL    HW162537   3.558   7.420   4.325  0.7189  1.0884  1.9078
21405SOL    HW262538   3.652   7.289   4.304 -1.1108  0.0092  0.2178
21406SOL     OW62539   0.869   2.822   0.811  0.5530 -0.0210  0.2292
21406SOL    HW162540   0.935   2.806   0.739  1.6871 -0.5178  1.3551
21406SOL    HW262541   0.820   2.907   0.793  1.4842  0.3449 -0.6257
21407SOL     OW62542   8.789   3.241   5.369  0.5006 -0.3221  0.0919
21407SOL    HW162543   8.881   3.274   5.387  0.0178  2.0353 -1.5248
21407SOL    HW262544   8.763   3.174   5.438  3.3366 -0.8694  0.6694
21410SOL     OW62545   8.355   5.521   1.678  0.0871 -0.4079  0.2515
21410SOL    HW162546   8.342   5.439   1.622 -0.9722 -1.4271  1.9417
21410SOL    HW262547   8.266   5.567   1.690  0.3369 -0.1040  0.9382
21411SOL     OW62548   8.429   7.962   1.517  0.0521  0.3031  0.7312
21411SOL    HW162549   8.526   7.974   1.499 -0.0924 -3.3649 -3.2757
21411SOL    HW262550   8.379   8.044   1.491  1.6703  0.7767 -0.9642
21414SOL     OW62551   5.699   4.709   1.390 -0.3777  0.4639  0.2603
21414SOL    HW162552   5.747   4.794   1.412 -0.8017  0.7433  0.1029
21414SOL    HW262553   5.708   4.645   1.467  0.3190  0.4758  0.1996
21415SOL     OW62554   2.942   2.992   2.768 -0.1139 -0.0684 -0.0313
21415SOL    HW162555   2.946   2.934   2.850  0.9664  1.0890  0.7472
21415SOL    HW262556   3.034   3.008   2.734 -0.4892  0.3392 -0.8685
21418SOL     OW62557   2.979   0.012   0.126  0.3296  0.2563 -0.3438
21418SOL    HW162558   3.036  -0.070   0.115 -0.3342 -0.3057  0.3428
21418SOL    HW262559   2.940   0.013   0.218 -0.6243  0.7271 -0.7427
21419SOL     OW62560   3.043   2.756   2.414  0.1841  0.2061  0.0226
21419SOL    HW162561   3.011   2.694   2.343  0.3235 -0.6118  0.6700
21419SOL    HW262562   3.143   2.758   2.414  0.1808  0.3587  0.0584
21420SOL     OW62563   4.644   4.421   1.995 -0.0063  0.6253 -0.2014
21420SOL    HW162564   4.684   4.509   1.972  0.0195  1.1959  1.9166
21420SOL    HW262565   4.555   4.435   2.038  0.5845 -0.3019  1.3621
21421SOL     OW62566   5.352   0.496   1.629  0.6981 -0.2651  0.2756
21421SOL    HW162567   5.439   0.535   1.660  0.3740 -0.2327  1.1585
21421SOL    HW262568   5.369   0.436   1.551  1.4986 -0.1701  0.3692
21422SOL     OW62569   9.774   0.422   3.481 -0.5942  0.1374 -0.4733
21422SOL    HW162570   9.840   0.349   3.498  1.1626  1.0184 -3.1293
21422SOL    HW262571   9.703   0.388   3.419 -1.5797 -0.2455  0.8560
21423SOL     OW62572   7.891   1.960   1.055 -0.5606  0.1941 -0.5510
21423SOL    HW162573   7.967   1.945   1.119 -1.6036  0.1480  0.6817
21423SOL    HW262574   7.852   2.050   1.071 -1.2762 -0.0971 -0.6711
21426SOL     OW62575   2.864   7.423   3.797  0.1802  0.1150 -0.2514
21426SOL    HW162576   2.773   7.415   3.836 -0.8503  1.1616 -2.3758
21426SOL    HW262577   2.911   7.502   3.837 -0.4070  0.4777 -0.2848
21427SOL     OW62578   9.598   9.173   2.096 -0.5259  0.3359 -0.5646
21427SOL    HW162579   9.572   9.164   2.000  0.6950 -2.2869 -0.7058
21427SOL    HW262580   9.678   9.232   2.104 -0.5849  0.5016 -1.1585
21428SOL     OW62581   4.761   9.776   1.949  0.0512  0.0585  0.2441
21428SOL    HW162582   4.680   9.718   1.946  1.5013 -2.0388  0.0085
21428SOL    HW262583   4.768   9.830   1.866  0.8427 -2.5569 -1.4618
21429SOL     OW62584   5.587   1.690   5.465  0.1060 -0.7542  0.7709
21429SOL    HW162585   5.639   1.716   5.384 -0.2086  2.3829  1.5443
21429SOL    HW262586   5.493   1.669   5.438  0.3458 -1.0760  0.1558
21432SOL     OW62587   9.438   0.477   2.705  0.3338  0.4538  0.6334
21432SOL    HW162588   9.528   0.449   2.740  0.6988  0.2322 -0.4320
21432SOL    HW262589   9.433   0.455   2.607 -1.1826 -0.2812  0.8598
21433SOL     OW62590   1.564   6.391   0.241 -0.3707 -0.4223  0.1191
21433SOL    HW162591   1.539   6.456   0.312 -0.1409 -0.0200 -0.1691
21433SOL    HW262592   1.485   6.334   0.218 -0.2279 -1.0887  1.2626
21434SOL     OW62593   1.286   0.029   5.336  0.4323 -0.6372 -0.6225
21434SOL    HW162594   1.197  -0.009   5.361  0.8555 -0.9866  0.3687
21434SOL    HW262595   1.273   0.121   5.298 -0.1764  0.2521  1.6509
21435SOL     OW62596   9.470   8.294   5.117  0.2821  0.0390  0.1087
21435SOL    HW162597   9.449   8.384   5.077  2.3730 -0.0076 -1.1356
21435SOL    HW262598   9.385   8.244   5.132 -0.7980  1.6082 -0.6304
21438SOL     OW62599   3.742   9.173   4.156 -0.2574  0.0332  0.1896
21438SOL    HW162600   3.709   9.115   4.230 -1.8523  2.3732  1.3680
21438SOL    HW262601   3.776   9.260   4.193  0.3338  0.6304 -1.6810
21440SOL     OW62602   5.497   3.592   0.232  0.0317  0.2856  0.8825
21440SOL    HW162603   5.444   3.572   0.149  0.2532  0.2705  0.7441
21440SOL    HW262604   5.503   3.509   0.288  3.0528 -0.7837 -0.8679
21441SOL     OW62605   7.634   9.834   1.585  0.0242 -0.1713  0.6247
21441SOL    HW162606   7.663   9.757   1.642 -0.1501 -0.5197  0.2399
21441SOL    HW262607   7.540   9.820   1.554  0.7163 -0.8624 -1.2488
21442SOL     OW62608   5.422   0.745   2.426  0.3550  0.0035 -0.3460
21442SOL    HW162609   5.417   0.696   2.340  1.4171  0.1675 -0.5121
21442SOL    HW262610   5.464   0.687   2.496  0.6769  0.3116 -0.2785
21443SOL     OW62611   4.818   0.632   0.774 -0.4321 -0.2318 -0.5655
21443SOL    HW162612   4.862   0.641   0.684 -0.3683  0.7737 -0.4368
21443SOL    HW262613   4.739   0.693   0.778 -0.5247 -0.3932  0.0148
21444SOL     OW62614   4.235   2.627   3.820  0.0461 -0.7837  0.5047
21444SOL    HW162615   4.211   2.724   3.811  3.4696 -0.0818 -2.1419
21444SOL    HW262616   4.298   2.615   3.896  0.4992 -0.7276  0.1427
21446SOL     OW62617   1.928   1.178   6.376 -0.5012  0.2029 -0.1899
21446SOL    HW162618   1.890   1.157   6.466  0.6694 -1.9189 -0.1599
21446SOL    HW262619   1.999   1.248   6.386  0.9324 -1.3595  0.8157
21447SOL     OW62620   5.306   0.872   4.705 -0.4671  0.5366 -0.3793
21447SOL    HW162621   5.337   0.897   4.614 -0.0845 -0.2178 -0.4652
21447SOL    HW262622   5.373   0.811   4.748 -1.7255 -0.9817 -0.5105
21448SOL     OW62623   1.010   5.320   2.233 -0.4898 -0.1036  0.0969
21448SOL    HW162624   0.939   5.349   2.170 -0.2241 -0.4439 -0.3592
21448SOL    HW262625   1.095   5.368   2.212 -0.7800  0.8826  1.1330
21449SOL     OW62626   1.966   6.722   1.373  0.0508  0.8484  0.0116
21449SOL    HW162627   1.937   6.628   1.389  1.3933  0.5810  0.8858
21449SOL    HW262628   1.885   6.781   1.364 -0.7847 -0.3318 -0.2631
21450SOL     OW62629   3.070   0.614   2.387  0.5557  0.1816  0.1592
21450SOL    HW162630   3.150   0.649   2.337  0.3856 -0.3930 -0.5125
21450SOL    HW262631   3.001   0.581   2.322 -0.0081  0.1799  0.7510
21451SOL     OW62632   3.547   0.960   1.643 -0.2022  0.6070  0.2422
21451SOL    HW162633   3.494   0.984   1.562  0.3264  3.0673  0.5847
21451SOL    HW262634   3.505   0.881   1.688 -1.6409  0.4609 -1.3325
21453SOL     OW62635   5.194   1.255   4.721  0.2762  0.5126 -0.1216
21453SOL    HW162636   5.112   1.311   4.711 -0.6767 -0.5608  1.4187
21453SOL    HW262637   5.168   1.159   4.732  1.6924  0.2508  1.1339
21454SOL     OW62638   1.195   0.345   2.335 -0.3202  0.2833 -0.2935
21454SOL    HW162639   1.202   0.356   2.236  0.4486 -0.7815 -0.3743
21454SOL    HW262640   1.113   0.292   2.357 -0.9664  1.2724 -0.2917
21455SOL     OW62641   5.803   8.070   5.175 -0.2674 -0.2529  0.1901
21455SOL    HW162642   5.872   8.125   5.223  1.3182 -1.9268 -0.0900
21455SOL    HW262643   5.717   8.120   5.171  0.1581  0.7961  2.9425
21456SOL     OW62644   2.775   6.012   0.763  0.1387 -0.0873 -0.4717
21456SOL    HW162645   2.739   6.091   0.813  2.0392  0.8204 -0.4824
21456SOL    HW262646   2.769   6.029   0.665  3.0587  1.2435 -0.4502
21457SOL     OW62647   9.532   3.406   1.892  0.0937 -0.0356 -0.1230
21457SOL    HW162648   9.511   3.351   1.973  1.6007 -0.9673 -0.3497
21457SOL    HW262649   9.501   3.357   1.810 -2.3092  1.3371 -0.0783
21458SOL     OW62650   9.232   7.178   4.497 -0.0939  0.1570 -0.4292
21458SOL    HW162651   9.183   7.142   4.576 -1.4586  0.4364 -1.1339
21458SOL    HW262652   9.166   7.208   4.428  0.9579  3.9203  0.1034
21459SOL     OW62653   3.657   7.201   1.994  0.2691 -0.1420 -0.2691
21459SOL    HW162654   3.710   7.140   2.053 -0.5435 -1.6490 -1.0621
21459SOL    HW262655   3.716   7.274   1.960  1.2106 -0.3624  0.8578
21460SOL     OW62656   7.410   9.986   5.284 -0.2531 -0.2491 -0.2976
21460SOL    HW162657   7.494   9.994   5.338  0.0212  2.8016 -1.0328
21460SOL    HW262658   7.429   9.935   5.200  0.7566 -0.0170 -0.2222
21461SOL     OW62659   9.198   1.999   4.948 -0.0433 -0.1280  0.2559
21461SOL    HW162660   9.216   2.006   5.046 -0.4514 -1.6015  0.4552
21461SOL    HW262661   9.105   1.967   4.932  0.7877 -2.3338 -0.5156
21462SOL     OW62662   8.022   3.865   4.468  0.1494 -0.4164  0.3593
21462SOL    HW162663   8.036   3.909   4.379  0.1491  1.9099  1.4481
21462SOL    HW262664   8.108   3.862   4.517 -0.0039 -0.9483  0.5913
21463SOL     OW62665   3.255   1.971   0.585  0.4159 -0.2258  0.2193
21463SOL    HW162666   3.310   1.900   0.630 -0.8569 -2.4344 -1.6490
21463SOL    HW262667   3.166   1.934   0.560 -0.0135  1.8323 -1.4551
21465SOL     OW62668   2.477   1.890   0.935  0.2488  0.2999 -0.3666
21465SOL    HW162669   2.438   1.839   1.011  0.5460 -0.5077 -0.7455
21465SOL    HW262670   2.441   1.854   0.849  0.7714  0.4629 -0.6535
21466SOL     OW62671   9.280   8.784   0.357  0.1784  0.0133 -0.0423
21466SOL    HW162672   9.360   8.831   0.393 -0.0856 -1.3434  2.3974
21466SOL    HW262673   9.303   8.740   0.270  2.2374 -0.8298  0.9133
21468SOL     OW62674   2.257   5.199   3.999 -0.4864 -0.6987  0.3515
21468SOL    HW162675   2.200   5.189   4.080 -0.2516 -0.1944  0.5826
21468SOL    HW262676   2.331   5.263   4.018 -0.2775 -0.7777 -0.1788
21469SOL     OW62677   0.613   6.605   3.966  0.2159 -0.0134  0.0772
21469SOL    HW162678   0.514   6.601   3.978  0.3192  0.5521  1.1615
21469SOL    HW262679   0.636   6.683   3.908  0.2442  1.9126  2.5871
21470SOL     OW62680   9.648   4.808   2.699 -0.6207  0.0416  0.1843
21470SOL    HW162681   9.709   4.776   2.626 -0.7972  0.6771 -0.2496
21470SOL    HW262682   9.572   4.744   2.710 -0.9455  0.2760 -0.6468
21471SOL     OW62683   5.971   7.665   3.843  0.1866  0.0357 -0.1748
21471SOL    HW162684   5.874   7.684   3.833  0.5015  1.9681  0.1211
21471SOL    HW262685   6.023   7.717   3.775  1.0749 -0.2926  0.2317
21472SOL     OW62686   5.695   0.093   3.427 -0.6298  0.4980  0.2500
21472SOL    HW162687   5.695   0.003   3.384  0.0509  0.3746  0.5055
21472SOL    HW262688   5.679   0.083   3.526  2.9771  0.3602  0.8718
21473SOL     OW62689   9.784   6.167   0.920 -0.1753 -0.4038 -0.0281
21473SOL    HW162690   9.859   6.221   0.882  0.7479 -1.6823 -0.0500
21473SOL    HW262691   9.810   6.133   1.010 -2.0583  1.9776  1.4697
21474SOL     OW62692   9.969   2.751   5.092  0.6303  0.4322 -0.5936
21474SOL    HW162693   9.889   2.711   5.046 -0.2370  3.9001 -2.2746
21474SOL    HW262694   9.963   2.732   5.190  0.4120 -3.6295 -1.2739
21475SOL     OW62695   8.230   6.403   2.854 -0.2101  0.2829 -0.1616
21475SOL    HW162696   8.234   6.484   2.913  0.5113 -0.3486  0.6844
21475SOL    HW262697   8.153   6.346   2.881 -0.8937  0.8176 -0.9488
21476SOL     OW62698   5.080   3.611   0.706  0.1648  0.1483  0.0244
21476SOL    HW162699   5.012   3.638   0.775  0.8395  1.6073  0.1257
21476SOL    HW262700   5.076   3.675   0.629  2.3976  1.0896  0.6657
21477SOL     OW62701   0.585   1.214   4.751 -0.2801  0.0025 -0.3803
21477SOL    HW162702   0.563   1.307   4.721 -1.6107 -0.4588 -0.8453
21477SOL    HW262703   0.534   1.193   4.834  1.0260  0.1453  0.4768
21478SOL     OW62704   9.887   1.710   1.529 -0.1692  0.5113  0.2269
21478SOL    HW162705   9.956   1.703   1.601  0.6499 -0.0481 -0.6060
21478SOL    HW262706   9.847   1.620   1.512 -1.7664  0.9787  1.3264
21479SOL     OW62707   8.992   2.923   3.719  0.0215 -0.1700 -0.0616
21479SOL    HW162708   9.023   2.958   3.631  0.3064 -0.4841 -0.0869
21479SOL    HW262709   9.068   2.922   3.783 -0.0513 -0.4800  0.0204
21480SOL     OW62710   3.915   5.533   6.293 -0.2703  0.2245  0.3434
21480SOL    HW162711   3.856   5.518   6.214  0.3507  1.6697 -0.4132
21480SOL    HW262712   4.009   5.509   6.269 -0.1096  0.4801  0.7152
21481SOL     OW62713   1.365   2.187   4.251 -0.3685  0.8530 -0.4344
21481SOL    HW162714   1.278   2.179   4.202 -1.7060  0.9778  1.8955
21481SOL    HW262715   1.414   2.099   4.246 -1.2917  0.3371 -0.4664
21482SOL     OW62716   0.612   0.447   1.004  0.0851  0.0509 -0.4941
21482SOL    HW162717   0.692   0.504   1.019  1.7371 -1.9281 -1.4994
21482SOL    HW262718   0.640   0.352   0.993 -2.6900 -1.1428  2.1199
21484SOL     OW62719   9.829   1.779   1.272 -0.1547  0.0136  0.1958
21484SOL    HW162720   9.761   1.712   1.240  0.0098 -0.2108  0.3169
21484SOL    HW262721   9.829   1.782   1.372 -0.5818  0.6258  0.1805
21485SOL     OW62722   0.295   3.899   1.619 -0.6046 -0.1770  0.1725
21485SOL    HW162723   0.348   3.926   1.538 -2.5186  0.7045 -0.8292
21485SOL    HW262724   0.324   3.952   1.698 -0.1999  0.5137 -0.4348
21487SOL     OW62725   9.886   3.222   4.621 -0.3328 -0.3262 -0.0593
21487SOL    HW162726   9.902   3.282   4.542 -0.6922 -0.0694  0.0649
21487SOL    HW262727   9.802   3.170   4.606 -0.4157 -0.2575  0.1690
21488SOL     OW62728   9.707   7.033   0.804  0.1266 -0.0365  0.1918
21488SOL    HW162729   9.702   6.964   0.732 -0.4540 -0.3972  0.5742
21488SOL    HW262730   9.753   7.114   0.769 -1.7738  0.4961 -1.1506
21489SOL     OW62731   1.644   9.034   4.368  0.2483  0.3629  0.1539
21489SOL    HW162732   1.547   9.023   4.387  0.2748  0.5895  0.4195
21489SOL    HW262733   1.668   8.982   4.285  0.3827 -1.5864  1.3909
21490SOL     OW62734   0.074   1.987   5.871 -0.0907 -0.1703  0.0893
21490SOL    HW162735   0.027   1.902   5.895 -0.9891  0.1036 -0.6946
21490SOL    HW262736   0.173   1.972   5.874 -0.2501 -1.5133 -1.0218
21491SOL     OW62737   0.287   0.424   1.876  0.1075 -0.1839 -0.6412
21491SOL    HW162738   0.200   0.469   1.892  0.8502  1.2416 -0.5255
21491SOL    HW262739   0.323   0.389   1.963 -0.4095 -0.8793 -0.7100
21492SOL     OW62740   9.466   4.873   4.772 -0.6562  0.1287 -0.2250
21492SOL    HW162741   9.422   4.820   4.700 -0.3931 -0.2425 -0.1152
21492SOL    HW262742   9.481   4.815   4.852 -1.7065  0.7489  0.4430
21493SOL     OW62743   9.278   8.552   5.308  1.0523  0.1835  0.5827
21493SOL    HW162744   9.214   8.487   5.267 -0.7158  0.7927  2.3102
21493SOL    HW262745   9.262   8.643   5.269  0.8847  0.3317  1.0011
21494SOL     OW62746   5.793   1.583   1.904 -0.2475 -0.3030  0.4302
21494SOL    HW162747   5.695   1.590   1.883 -0.1660 -1.0176 -0.2229
21494SOL    HW262748   5.814   1.637   1.985 -1.0302  0.5397  0.0773
21496SOL     OW62749   1.133   9.571   0.621 -0.2916 -0.2614 -0.1988
21496SOL    HW162750   1.145   9.532   0.530 -1.4017 -0.1902 -0.3804
21496SOL    HW262751   1.190   9.653   0.630  0.8377 -1.0128 -0.3589
21497SOL     OW62752   0.301   5.531   4.434  0.2341  0.5551 -0.1969
21497SOL    HW162753   0.226   5.566   4.490  1.7697  0.9057  1.6895
21497SOL    HW262754   0.264   5.490   4.351 -2.1235 -0.1848  1.1618
21498SOL     OW62755   5.374   0.135   4.582 -0.5928  0.0681 -0.0413
21498SOL    HW162756   5.341   0.165   4.672  0.3846  1.6767 -0.2062
21498SOL    HW262757   5.471   0.156   4.573 -0.9929  1.2482 -2.0212
21499SOL     OW62758   1.485   4.352   1.831 -0.3952  0.7551  0.1012
21499SOL    HW162759   1.506   4.447   1.856  0.9976  0.3740  0.4345
21499SOL    HW262760   1.544   4.324   1.755  0.7132 -0.4960  1.3775
21500SOL     OW62761   4.928   8.042   3.032 -0.3727 -0.0322  0.2857
21500SOL    HW162762   4.858   8.004   3.092 -1.2406 -0.3114 -0.8931
21500SOL    HW262763   4.912   8.140   3.021 -1.6219 -0.3997 -1.3577
21502SOL     OW62764   7.802   2.549   2.766  0.0986  0.2906 -0.4185
21502SOL    HW162765   7.825   2.632   2.817  0.5008 -0.0713  0.0008
21502SOL    HW262766   7.815   2.565   2.669  0.1608  0.7239 -0.3431
21503SOL     OW62767   8.415   1.901   1.885 -0.2260 -0.5335 -0.2623
21503SOL    HW162768   8.472   1.884   1.804  0.2057 -1.1826  0.1751
21503SOL    HW262769   8.386   1.814   1.924 -0.8245 -0.2117  0.0074
21504SOL     OW62770   4.893   4.948   0.893  0.3987 -0.2745  0.0649
21504SOL    HW162771   4.891   4.864   0.839  1.5142 -1.2485  1.5200
21504SOL    HW262772   4.906   4.926   0.990  1.9082  1.6354  0.3255
21505SOL     OW62773   0.407   1.992   4.685  0.0483 -0.1649  0.2743
21505SOL    HW162774   0.481   2.013   4.621 -2.4872  3.2859 -1.7550
21505SOL    HW262775   0.344   1.927   4.643  0.9797 -1.7492  1.2994
21506SOL     OW62776   2.829   8.333   6.172 -0.0606 -0.0085 -0.0210
21506SOL    HW162777   2.741   8.367   6.205  0.9188  0.8506  1.7902
21506SOL    HW262778   2.877   8.406   6.124  0.2470 -0.0638  0.2009
21507SOL     OW62779   7.748   0.299   4.518 -0.1323  0.6696 -0.1417
21507SOL    HW162780   7.753   0.279   4.420  0.8631  0.1532  0.0150
21507SOL    HW262781   7.838   0.326   4.551 -0.0671 -0.9189  1.0202
21508SOL     OW62782   1.405   4.090   2.899  0.4352  0.1492 -0.0694
21508SOL    HW162783   1.308   4.073   2.915 -0.1660  1.6325 -2.0406
21508SOL    HW262784   1.457   4.059   2.979 -1.6690 -0.3888  1.1392
21510SOL     OW62785   4.258   6.195   0.288 -0.2508 -0.7818 -0.4670
21510SOL    HW162786   4.211   6.271   0.334  1.4971 -0.6867  1.2691
21510SOL    HW262787   4.198   6.115   0.285 -0.4393 -0.7809  2.0317
21511SOL     OW62788   8.665   3.357   0.699  0.4133 -0.3891 -0.4235
21511SOL    HW162789   8.673   3.352   0.798 -0.9789 -2.7572 -0.3936
21511SOL    HW262790   8.697   3.272   0.658 -1.2285 -0.3536 -1.8442
21512SOL     OW62791   0.924   9.426   3.870  0.1000  0.5209 -0.0678
21512SOL    HW162792   0.861   9.350   3.853 -0.3560  1.1010 -0.9472
21512SOL    HW262793   0.897   9.472   3.955 -0.7905  0.8895 -0.5385
21513SOL     OW62794   7.726   4.927   5.991  0.1645 -0.3548 -0.0258
21513SOL    HW162795   7.661   4.966   5.925  1.5882 -1.2278 -1.9967
21513SOL    HW262796   7.686   4.846   6.033 -1.0692  0.6628  0.8302
21515SOL     OW62797   1.075   6.851   1.264 -0.1495  0.8211 -0.1395
21515SOL    HW162798   1.094   6.778   1.330  0.7983 -0.2785 -1.5943
21515SOL    HW262799   1.001   6.909   1.299 -0.7497 -0.6813  1.1623
21517SOL     OW62800   8.644   0.582   4.798 -0.2313 -0.2036  0.0000
21517SOL    HW162801   8.737   0.557   4.770 -0.0729 -1.0884  1.2844
21517SOL    HW262802   8.638   0.681   4.809  1.2991 -0.3555  2.4688
21518SOL     OW62803   9.693   0.792   4.258 -0.1164 -0.2290 -0.8266
21518SOL    HW162804   9.723   0.741   4.177 -1.0959 -0.3128 -1.1404
21518SOL    HW262805   9.649   0.876   4.229 -1.3614 -0.7327 -0.4181
21520SOL     OW62806   3.376   0.146   5.802 -0.3284 -0.1466 -0.2200
21520SOL    HW162807   3.283   0.153   5.838  0.2000 -0.1462  1.1857
21520SOL    HW262808   3.405   0.234   5.764 -1.1769 -0.3564 -1.3616
21521SOL     OW62809   5.857   9.533   3.763 -0.3483  0.1334 -0.2272
21521SOL    HW162810   5.898   9.540   3.854 -1.9063 -0.7442  0.5651
21521SOL    HW262811   5.871   9.440   3.728  0.1435  0.4344 -0.8386
21522SOL     OW62812   9.301   4.578   0.242  0.1061  0.0089  0.0333
21522SOL    HW162813   9.390   4.600   0.203  1.2812 -0.2965  2.4688
21522SOL    HW262814   9.312   4.514   0.318 -2.1024  0.7140  0.9961
21523SOL     OW62815   2.852   8.651   5.409  0.2029 -0.4363  0.4109
21523SOL    HW162816   2.825   8.744   5.384 -0.0898 -0.4297  0.7458
21523SOL    HW262817   2.825   8.633   5.504 -1.4290 -1.5234 -0.2413
21524SOL     OW62818   1.336   7.478   0.638  0.6441  0.1118 -0.2008
21524SOL    HW162819   1.341   7.575   0.612  0.6890  0.2183  0.1958
21524SOL    HW262820   1.248   7.440   0.610  0.2123  0.5401  0.5590
21525SOL     OW62821   0.139   6.551   2.352  0.3275 -0.1833 -0.0027
21525SOL    HW162822   0.197   6.551   2.434  2.1562 -1.8957 -1.2593
21525SOL    HW262823   0.178   6.612   2.284  0.5257 -1.1723 -0.7739
21526SOL     OW62824   8.847   7.534   5.924 -0.3994  0.1836  0.1715
21526SOL    HW162825   8.907   7.472   5.975  0.2033 -1.1706 -2.1043
21526SOL    HW262826   8.902   7.600   5.874 -0.7317 -1.3139 -2.2484
21527SOL     OW62827   4.009   5.670   3.034 -0.0088  0.4855 -0.4207
21527SOL    HW162828   4.037   5.728   3.111 -1.5235  0.4461  0.2027
21527SOL    HW262829   4.063   5.587   3.034  1.6520  1.5480 -0.8521
21529SOL     OW62830   6.187   0.468   2.441 -0.3295 -0.0366  0.5811
21529SOL    HW162831   6.209   0.566   2.443 -1.1079  0.1237  1.1509
21529SOL    HW262832   6.122   0.446   2.513 -0.9841 -0.7802 -0.2177
21532SOL     OW62833   0.046   2.887   4.778 -0.0370 -0.0897  0.4888
21532SOL    HW162834   0.108   2.851   4.848  0.2663 -1.2120 -0.3493
21532SOL    HW262835   0.009   2.974   4.809  0.7697 -0.1517  1.6743
21533SOL     OW62836   2.144   3.912   3.968 -0.1657 -0.3650 -0.2427
21533SOL    HW162837   2.060   3.861   3.953  0.2902 -1.2267  0.0657
21533SOL    HW262838   2.138   3.965   4.053 -0.6634  0.1398 -0.5947
21534SOL     OW62839   8.273   1.679   1.051 -0.0315  0.2297 -0.1444
21534SOL    HW162840   8.262   1.682   1.151  0.6030  0.3147 -0.0787
21534SOL    HW262841   8.354   1.730   1.024  2.7036 -3.9626 -0.2562
21536SOL     OW62842   9.908   9.630   2.681  0.5705 -0.2842  0.0838
21536SOL    HW162843   9.875   9.629   2.775 -2.4118 -0.5946 -0.9070
21536SOL    HW262844   9.924   9.536   2.650 -1.9964 -0.4430 -0.8600
21538SOL     OW62845   5.558   0.921   2.987  0.2814  0.1883  0.0557
21538SOL    HW162846   5.548   1.017   2.961  0.8043  0.2997  0.2669
21538SOL    HW262847   5.498   0.901   3.065  0.4111  0.4218  0.2139
21540SOL     OW62848   3.086   6.036   0.329  0.5929 -0.0701  0.2987
21540SOL    HW162849   3.128   6.036   0.420  0.8189  0.1877  0.1973
21540SOL    HW262850   3.158   6.034   0.260  0.4077 -1.5119  0.1227
21541SOL     OW62851   6.387   8.284   3.867 -0.8860 -0.3023 -0.2392
21541SOL    HW162852   6.382   8.220   3.790 -0.4052  2.1708 -2.4231
21541SOL    HW262853   6.481   8.313   3.880 -1.3844  1.6997 -0.8253
21543SOL     OW62854   7.922   1.630   0.436 -0.3454 -0.0756  0.1170
21543SOL    HW162855   7.825   1.611   0.420  0.1118 -0.1168 -2.9379
21543SOL    HW262856   7.970   1.544   0.454 -0.8765 -0.0401  1.7801
21544SOL     OW62857   0.262   7.212   1.689  0.2218  0.6439  0.9621
21544SOL    HW162858   0.291   7.116   1.693 -1.0642  0.3273  3.1318
21544SOL    HW262859   0.257   7.250   1.781 -0.0853  2.5750  0.1834
21545SOL     OW62860   8.245   5.309   2.253 -0.8752  0.9603 -0.2326
21545SOL    HW162861   8.230   5.240   2.182  0.6978 -0.7478  1.0694
21545SOL    HW262862   8.168   5.307   2.317 -0.5166 -0.0704  0.1808
21547SOL     OW62863   3.786   1.513   1.780 -0.5322 -0.1520  0.0183
21547SOL    HW162864   3.788   1.613   1.787  1.0971 -0.1256 -0.6331
21547SOL    HW262865   3.872   1.481   1.742 -1.7374 -1.6846 -1.4829
21548SOL     OW62866   1.501   8.105   1.593 -0.0573  0.0817  0.0818
21548SOL    HW162867   1.594   8.088   1.561 -0.4082 -1.4563 -0.1216
21548SOL    HW262868   1.502   8.115   1.693  0.1931 -0.8075  0.1677
21549SOL     OW62869   4.475   9.258   6.222 -0.2740 -0.5150 -0.2815
21549SOL    HW162870   4.445   9.323   6.152  0.7664  1.5813  1.1243
21549SOL    HW262871   4.398   9.235   6.282 -0.6148 -0.4080 -0.6787
21553SOL     OW62872   4.315   3.170   1.361  0.0866  0.0633 -0.5915
21553SOL    HW162873   4.356   3.177   1.271  0.5962 -1.1096 -0.4603
21553SOL    HW262874   4.383   3.136   1.426 -0.9696 -1.5329 -0.2927
21554SOL     OW62875   3.837   4.821   5.314 -0.4247  0.2694  0.2389
21554SOL    HW162876   3.768   4.893   5.323  1.6815  2.4172 -0.2827
21554SOL    HW262877   3.800   4.746   5.259 -2.9887  0.4994  1.6084
21555SOL     OW62878   0.021   8.313   0.469 -0.1458  0.3051  0.2451
21555SOL    HW162879  -0.017   8.400   0.436  0.4993  0.6466  0.3953
21555SOL    HW262880  -0.023   8.288   0.555 -1.9499 -0.6709 -0.9212
21556SOL     OW62881   9.517   5.775   0.797 -0.0204  0.0833  0.0459
21556SOL    HW162882   9.446   5.845   0.788  2.1387  2.1230 -1.6722
21556SOL    HW262883   9.518   5.719   0.714  1.4372  1.1044 -0.6404
21557SOL     OW62884   1.177   5.203   3.982  0.8867  0.0481 -0.2245
21557SOL    HW162885   1.190   5.281   3.921 -0.9860  0.2683 -0.3606
21557SOL    HW262886   1.236   5.213   4.062  1.1921  1.2234 -0.5960
21558SOL     OW62887   5.223   1.283   2.368  0.3466  0.9924  0.1671
21558SOL    HW162888   5.306   1.278   2.313 -0.0825  0.6456 -0.4611
21558SOL    HW262889   5.143   1.287   2.308 -0.1565  0.0801  0.7579
21559SOL     OW62890   5.119   2.756   5.390  0.3234  0.5473 -0.3140
21559SOL    HW162891   5.123   2.829   5.322  0.9245  0.4021 -0.4368
21559SOL    HW262892   5.133   2.668   5.345 -0.4468  0.3453 -0.1738
21560SOL     OW62893   7.004   0.685   6.297 -0.0799 -0.1691 -0.6048
21560SOL    HW162894   6.915   0.666   6.254  1.6740  0.1145 -4.5627
21560SOL    HW262895   7.031   0.779   6.278  0.5864  0.1069  1.5774
21561SOL     OW62896   9.108   1.011   4.117  0.2182  0.2420  0.2954
21561SOL    HW162897   9.187   0.950   4.126  0.5950  0.7370  0.3847
21561SOL    HW262898   9.093   1.059   4.204  0.0596  0.4348  0.1626
21563SOL     OW62899   7.393   6.358   4.367 -0.6338  0.5174 -0.0632
21563SOL    HW162900   7.333   6.402   4.300 -1.3873 -0.7682 -0.2316
21563SOL    HW262901   7.425   6.270   4.331  0.4509  0.6717  0.4925
21565SOL     OW62902   8.255   7.886   2.795 -0.3594 -0.3630 -0.2000
21565SOL    HW162903   8.354   7.904   2.803 -0.6552  1.3033 -0.0812
21565SOL    HW262904   8.224   7.914   2.704 -0.7900 -0.5450 -0.1055
21566SOL     OW62905   3.584   1.544   5.914  0.1497  0.3881 -0.4653
21566SOL    HW162906   3.578   1.450   5.950  1.0196  0.0773 -1.1320
21566SOL    HW262907   3.645   1.598   5.972 -0.2754  0.5237 -0.1377
21567SOL     OW62908   5.015   5.574   1.801  0.4420  0.2590 -0.0254
21567SOL    HW162909   4.930   5.622   1.781 -1.4533 -2.5303  1.0103
21567SOL    HW262910   5.024   5.561   1.899  1.0325 -1.1954 -0.2480
21568SOL     OW62911   8.667   9.805   0.387 -0.3570  0.0671  0.0286
21568SOL    HW162912   8.745   9.769   0.438 -0.1907 -0.0246 -0.2856
21568SOL    HW262913   8.674   9.905   0.380  0.2377 -0.0288 -0.8209
21569SOL     OW62914   6.209   1.700   0.376 -0.7618  0.3059  0.0734
21569SOL    HW162915   6.280   1.664   0.315  0.6470  0.5017  1.5681
21569SOL    HW262916   6.145   1.756   0.323 -1.1858 -1.7904 -1.7149
21571SOL     OW62917   3.525   4.168   5.368  0.0880  0.0234 -0.1308
21571SOL    HW162918   3.541   4.096   5.301 -1.5302 -0.1295 -0.3795
21571SOL    HW262919   3.464   4.134   5.440  0.3691  0.7313  0.4437
21572SOL     OW62920   5.688   4.215   1.136  0.0879  0.3661  0.4193
21572SOL    HW162921   5.719   4.136   1.083 -0.2998 -0.4756  1.4502
21572SOL    HW262922   5.595   4.240   1.107  1.1142  1.9739 -1.6236
21573SOL     OW62923   2.884   6.462   4.919 -0.5491 -0.8849  0.1435
21573SOL    HW162924   2.794   6.465   4.962 -0.5720 -0.0676  0.0412
21573SOL    HW262925   2.913   6.366   4.909 -2.3997 -1.2756 -1.8994
21574SOL     OW62926   5.505   1.556   1.994  0.1609 -0.8079 -0.2059
21574SOL    HW162927   5.450   1.607   1.928  0.8884  0.4402  0.1510
21574SOL    HW262928   5.458   1.556   2.083  0.9120  0.6090  0.2063
21575SOL     OW62929   8.383   3.635   0.246 -0.2477  0.0350 -0.9904
21575SOL    HW162930   8.341   3.643   0.336 -0.1324  2.5226 -1.1217
21575SOL    HW262931   8.315   3.604   0.180 -0.4075 -1.5023 -0.1389
21576SOL     OW62932   3.155   2.360   1.226  0.6223  0.1967  0.1542
21576SOL    HW162933   3.231   2.425   1.231 -0.5099  1.4636  1.4734
21576SOL    HW262934   3.124   2.338   1.318 -1.8911  1.2603 -0.3944
21578SOL     OW62935   5.441   7.813   3.530  0.0717  0.3277 -0.4086
21578SOL    HW162936   5.531   7.843   3.499  0.5798 -0.9120 -0.1578
21578SOL    HW262937   5.448   7.721   3.569 -1.1052  0.6570  0.6107
21580SOL     OW62938   5.924   5.846   1.510 -0.1172  0.8264 -0.1232
21580SOL    HW162939   5.984   5.805   1.442  0.0736 -0.8395  1.0307
21580SOL    HW262940   5.851   5.897   1.463 -0.0250 -0.3298 -1.5751
21581SOL     OW62941   7.427   4.448   2.351 -0.3181  0.6913  0.4556
21581SOL    HW162942   7.352   4.493   2.399  0.5645  1.9144  0.7137
21581SOL    HW262943   7.510   4.453   2.407  0.6665  1.9320 -1.0741
21583SOL     OW62944   2.865   1.341   0.574  0.1001  0.0799 -0.4632
21583SOL    HW162945   2.894   1.431   0.541 -1.2816  0.6557 -0.1740
21583SOL    HW262946   2.788   1.309   0.518 -2.1674  0.9902  2.0162
21584SOL     OW62947   7.224   8.091   3.326  0.4725 -0.3159 -0.4440
21584SOL    HW162948   7.225   8.154   3.248 -1.4631  0.3714  0.0594
21584SOL    HW262949   7.282   8.012   3.306  1.0145  0.4741 -2.0537
21586SOL     OW62950   6.639   4.543   1.422  0.0565 -0.4797 -0.1315
21586SOL    HW162951   6.673   4.495   1.503  0.4973  0.0064 -0.0199
21586SOL    HW262952   6.717   4.582   1.372 -0.3513  0.7806  0.2071
21587SOL     OW62953   0.195   1.818   6.171  0.6663  0.4181 -0.1366
21587SOL    HW162954   0.180   1.735   6.116 -0.9216  0.3826  0.3215
21587SOL    HW262955   0.270   1.802   6.235  1.9006  0.1326 -1.6330
21589SOL     OW62956   3.600   8.537   0.033 -0.6121  0.1560 -0.2414
21589SOL    HW162957   3.528   8.595  -0.005 -0.9148  1.4128  2.1708
21589SOL    HW262958   3.576   8.441   0.019 -1.2769  0.5696 -2.1128
21590SOL     OW62959   2.146   5.221   5.957  0.4651 -0.2342  0.2984
21590SOL    HW162960   2.191   5.268   6.033  1.0980  0.9701 -0.7936
21590SOL    HW262961   2.049   5.209   5.978  0.4027  1.0918  0.8356
21591SOL     OW62962   8.127   4.767   5.583  0.0268 -0.1943 -0.1331
21591SOL    HW162963   8.121   4.866   5.589 -1.4398 -0.1720 -1.5607
21591SOL    HW262964   8.090   4.726   5.667  2.1728  0.4671  1.1695
21592SOL     OW62965   5.209   8.962   1.979 -0.0035 -0.3913 -0.5485
21592SOL    HW162966   5.110   8.972   1.975 -0.2860 -2.1425  1.0882
21592SOL    HW262967   5.248   9.032   2.038 -0.3256 -0.0451 -0.7481
21593SOL     OW62968   1.095   4.491   1.149  0.1370 -0.1370  0.0567
21593SOL    HW162969   1.161   4.490   1.074 -0.3948  1.0945 -0.4258
21593SOL    HW262970   1.003   4.474   1.113  0.0052 -0.4800  0.5518
21594SOL     OW62971   2.417   5.709   3.333  0.1991 -0.8553  0.2463
21594SOL    HW162972   2.324   5.741   3.317  0.9283  0.6538 -1.1157
21594SOL    HW262973   2.474   5.785   3.365  0.8604 -1.8661  1.5015
21596SOL     OW62974   0.285   5.855   6.139 -0.3074 -0.7860  0.0268
21596SOL    HW162975   0.355   5.795   6.177 -0.0688  0.0030  0.8600
21596SOL    HW262976   0.233   5.897   6.214 -0.5762 -0.0801 -0.5477
21597SOL     OW62977   7.324   7.107   4.042  0.1903 -0.0863  0.2110
21597SOL    HW162978   7.317   7.197   3.999 -2.6024 -0.4146 -0.0536
21597SOL    HW262979   7.304   7.035   3.975  0.5697 -0.8228  0.8758
21598SOL     OW62980   9.172   1.912   0.109  0.4057 -0.0791  0.3805
21598SOL    HW162981   9.190   1.886   0.014 -0.3894  0.2161  0.1417
21598SOL    HW262982   9.078   1.944   0.117  0.7539  0.7739  1.0853
21600SOL     OW62983   6.884   2.618   2.453 -0.4355  0.2477 -0.3563
21600SOL    HW162984   6.970   2.567   2.444  0.0837  0.6250  1.9927
21600SOL    HW262985   6.835   2.586   2.534 -1.2068  1.9171 -0.1360
21601SOL     OW62986   8.727   0.274   4.670 -0.4932  0.2339 -0.4881
21601SOL    HW162987   8.715   0.316   4.580 -0.3744 -1.0293 -1.1050
21601SOL    HW262988   8.641   0.232   4.698 -0.3964  0.2184 -0.2135
21602SOL     OW62989   6.683   9.570   6.156  0.1117 -0.0721  0.1719
21602SOL    HW162990   6.651   9.478   6.130  0.1221 -0.4463  1.4494
21602SOL    HW262991   6.707   9.570   6.253  1.4909  0.9039 -0.1568
21603SOL     OW62992   2.416   6.458   3.371  0.0219 -0.3192 -0.2006
21603SOL    HW162993   2.462   6.494   3.290  2.1946 -2.4933 -0.0072
21603SOL    HW262994   2.480   6.454   3.447 -1.6233  0.3840  1.2456
21604SOL     OW62995   2.496   9.766   6.208  0.2256 -0.3097  0.0411
21604SOL    HW162996   2.437   9.838   6.246 -2.8716 -2.4577 -0.5088
21604SOL    HW262997   2.466   9.745   6.115  2.1025 -1.2693 -0.3674
21605SOL     OW62998   5.410   2.856   0.450 -0.3107  0.0233 -0.3534
21605SOL    HW162999   5.341   2.827   0.516  0.5185 -0.4710  0.3028
21605SOL    HW263000   5.471   2.924   0.493 -0.1043  0.1118 -0.7776
21606SOL     OW63001   1.714   7.229   2.637 -0.2350 -0.3438  0.1743
21606SOL    HW163002   1.749   7.323   2.641  0.7933 -0.7193 -0.0024
21606SOL    HW263003   1.615   7.231   2.653 -0.0157  0.6268  1.5789
21607SOL     OW63004   5.917   4.894   0.051  0.0994 -0.6303  0.0099
21607SOL    HW163005   5.935   4.952   0.130 -1.8879  0.6322 -0.4303
21607SOL    HW263006   5.965   4.931  -0.029 -0.3050 -0.1878 -0.0314
21609SOL     OW63007   1.339   8.397   2.276  0.1985 -0.3776 -0.1675
21609SOL    HW163008   1.286   8.386   2.192 -0.2032  0.0793  0.0244
21609SOL    HW263009   1.412   8.329   2.279  0.1185 -0.4877 -0.8148
21610SOL     OW63010   0.254   3.646   4.782 -0.0675  0.4931  0.7849
21610SOL    HW163011   0.268   3.663   4.880  0.9457  1.8234  0.4223
21610SOL    HW263012   0.275   3.730   4.731 -3.1470  0.6479 -0.3466
21611SOL     OW63013   0.125   8.220   0.759 -0.1541 -0.4696 -0.5551
21611SOL    HW163014   0.165   8.228   0.851  0.9744 -0.5211 -1.0283
21611SOL    HW263015   0.038   8.269   0.756 -0.1483 -0.3825  0.5175
21613SOL     OW63016   3.817   2.834   4.674  0.4094 -0.2067 -0.3095
21613SOL    HW163017   3.878   2.784   4.734  1.5991 -0.1835 -1.4578
21613SOL    HW263018   3.819   2.793   4.582 -1.0331  0.0100 -0.4471
21614SOL     OW63019   2.037   4.147   5.907  0.3389  0.9670  0.1242
21614SOL    HW163020   1.938   4.150   5.914  0.3001 -0.6992  0.4432
21614SOL    HW263021   2.067   4.208   5.834 -0.9597  1.0998 -0.3047
21615SOL     OW63022   8.667   9.067   0.099 -0.2106 -0.5241  0.0852
21615SOL    HW163023   8.591   9.123   0.133 -1.3707 -2.3697  0.6455
21615SOL    HW263024   8.633   9.005   0.028  0.7825 -1.3514  0.3195
21617SOL     OW63025   3.393   7.261   3.973 -0.3060 -0.6051  0.0006
21617SOL    HW163026   3.394   7.244   4.071 -0.5355  1.5170  0.3808
21617SOL    HW263027   3.337   7.341   3.953 -1.6481 -1.9924 -2.0464
21618SOL     OW63028   3.533   1.155   1.875  0.0447  0.2855 -0.1169
21618SOL    HW163029   3.560   1.096   1.799 -0.3421 -0.4041  0.2694
21618SOL    HW263030   3.462   1.109   1.928 -0.7529  1.3957 -0.2057
21619SOL     OW63031   0.000   7.637   3.732  0.2030  0.0006  0.0580
21619SOL    HW163032   0.077   7.595   3.781  0.1379 -1.3018 -0.9347
21619SOL    HW263033   0.032   7.672   3.644 -0.3373 -0.6477 -0.4110
21620SOL     OW63034   0.015   7.276   2.810  0.0134 -0.5909  0.5603
21620SOL    HW163035  -0.015   7.250   2.718 -0.5444 -0.9573  0.8432
21620SOL    HW263036   0.040   7.194   2.861  0.7484 -0.3512  0.5952
21621SOL     OW63037   4.970   0.681   3.640  0.2031  0.4814  0.2147
21621SOL    HW163038   4.871   0.682   3.625  0.5570 -2.8189 -2.7399
21621SOL    HW263039   5.017   0.695   3.553  2.3219 -1.3837  1.0167
21622SOL     OW63040   1.104   1.530   0.192 -0.6113 -0.3006 -0.4332
21622SOL    HW163041   1.040   1.560   0.263 -1.4109 -1.2891 -0.7296
21622SOL    HW263042   1.162   1.458   0.228 -0.9402 -0.7237 -0.7431
21623SOL     OW63043   8.116   1.533   1.713 -0.1046  0.1174  0.1691
21623SOL    HW163044   8.070   1.616   1.679  1.2054  1.0106  0.5416
21623SOL    HW263045   8.066   1.452   1.682 -0.3990  0.9915 -1.7008
21624SOL     OW63046   9.586   0.609   1.137 -0.0932 -0.2366  0.1673
21624SOL    HW163047   9.677   0.568   1.127  0.0584 -0.1873  1.2858
21624SOL    HW263048   9.529   0.584   1.059  0.6791 -0.8053 -0.2162
21625SOL     OW63049   8.262   2.873   3.711 -0.0776  0.8221  0.0345
21625SOL    HW163050   8.242   2.895   3.615 -1.2126 -0.6348 -0.0687
21625SOL    HW263051   8.267   2.774   3.722  1.7472  1.0166  1.1533
21627SOL     OW63052   2.134   5.433   4.769 -0.3791  0.4180  0.2983
21627SOL    HW163053   2.079   5.475   4.697  1.1321  0.2218 -1.0103
21627SOL    HW263054   2.076   5.376   4.827 -1.6693  0.8034 -0.6026
21628SOL     OW63055   8.168   6.658   3.236  0.2285  0.2459  0.0121
21628SOL    HW163056   8.193   6.622   3.146  0.5611  0.7889 -0.1191
21628SOL    HW263057   8.093   6.605   3.274  0.1735 -0.0681 -0.5336
21629SOL     OW63058   8.808   5.728   4.769  0.1545  0.1976  0.4035
21629SOL    HW163059   8.775   5.696   4.681  0.2697  1.9883 -0.3166
21629SOL    HW263060   8.901   5.764   4.759  0.3524 -0.0408  1.3521
21630SOL     OW63061   8.848   0.595   5.106  0.0199  0.0425 -0.0553
21630SOL    HW163062   8.848   0.572   5.203  0.8640  1.1099  0.2064
21630SOL    HW263063   8.808   0.520   5.054  1.0400 -1.2097  0.9508
21631SOL     OW63064   6.483   2.157   1.456 -0.1652 -0.0545  0.0997
21631SOL    HW163065   6.485   2.213   1.539 -1.1131 -1.3036  0.9947
21631SOL    HW263066   6.559   2.092   1.458 -0.2561 -0.1631  0.0646
21632SOL     OW63067   9.484   8.699   1.732  0.7616  0.0910  0.4050
21632SOL    HW163068   9.412   8.653   1.680  1.6114 -2.2981  1.3012
21632SOL    HW263069   9.561   8.719   1.671 -0.5435  2.4865 -0.5147
21633SOL     OW63070   3.081   5.742   1.279  1.0011 -0.1922  0.3042
21633SOL    HW163071   3.163   5.686   1.268  0.6103 -0.8893  0.9244
21633SOL    HW263072   3.067   5.797   1.197  2.2379  0.1221  0.3094
21634SOL     OW63073   8.172   8.019   2.508  0.2296  0.1254  0.1511
21634SOL    HW163074   8.109   8.071   2.451 -2.1757 -1.0626  1.6646
21634SOL    HW263075   8.160   7.921   2.491  0.7147 -0.1602  1.4092
21636SOL     OW63076   1.331   8.916   3.202  0.4979 -0.1627 -0.4521
21636SOL    HW163077   1.372   8.840   3.252  1.5552 -0.2906 -1.4939
21636SOL    HW263078   1.341   8.900   3.104 -0.7321  0.5291 -0.6990
21637SOL     OW63079   4.073   4.680   3.183 -0.5202 -0.0025  0.3915
21637SOL    HW163080   4.110   4.592   3.153  3.1517  1.4853  0.2430
21637SOL    HW263081   4.015   4.718   3.111 -0.5642 -1.3954 -0.3334
21638SOL     OW63082   9.615   2.376   3.282 -0.4018 -0.8380  0.0994
21638SOL    HW163083   9.669   2.327   3.214 -0.6335 -1.5210  0.4070
21638SOL    HW263084   9.604   2.472   3.253 -0.1314 -1.0165 -0.6020
21639SOL     OW63085   8.414   9.721   4.435  0.6535  0.2772  0.5120
21639SOL    HW163086   8.351   9.731   4.512 -1.7428  0.8148 -1.4241
21639SOL    HW263087   8.441   9.811   4.402 -0.1893  0.1142 -0.6826
21640SOL     OW63088   4.150   3.537   3.202 -0.4324 -0.3333  0.1925
21640SOL    HW163089   4.215   3.486   3.145  1.0635  0.7120  0.9051
21640SOL    HW263090   4.189   3.550   3.293 -0.9721  1.6453  0.1706
21641SOL     OW63091   9.372   0.039   1.606 -0.3427 -0.0204 -0.0549
21641SOL    HW163092   9.364   0.137   1.625 -0.1743  0.1417 -0.7913
21641SOL    HW263093   9.285   0.005   1.570  0.1392  0.2589 -1.5295
21643SOL     OW63094   0.369   8.039   2.173 -0.0429  0.1257  1.1916
21643SOL    HW163095   0.341   7.962   2.230 -0.0944 -1.6899 -1.1931
21643SOL    HW263096   0.415   8.004   2.091  0.6941  2.6848  0.4772
21644SOL     OW63097   0.132   4.569   1.620 -0.1299 -0.5165 -0.2177
21644SOL    HW163098   0.189   4.573   1.537  1.8340  2.6517  1.1905
21644SOL    HW263099   0.037   4.588   1.595  0.0148 -1.9996 -2.0561
21645SOL     OW63100   0.508   1.492   4.680  0.0639 -0.4711  0.2405
21645SOL    HW163101   0.424   1.545   4.666  0.3421 -0.1958 -0.4381
21645SOL    HW263102   0.574   1.515   4.607  0.2574 -1.6050  0.0571
21646SOL     OW63103   4.654   5.764   3.511  0.3198 -0.6378  0.6371
21646SOL    HW163104   4.750   5.789   3.502 -0.0302 -0.1649 -2.2339
21646SOL    HW263105   4.598   5.823   3.453 -1.7574 -0.7398  2.4548
21647SOL     OW63106   4.278   9.364   2.511  0.2593  0.0094  0.6932
21647SOL    HW163107   4.255   9.307   2.589  0.6224  0.2160  0.9522
21647SOL    HW263108   4.201   9.424   2.489  0.5645  0.7384  1.5871
21648SOL     OW63109   1.667   4.732   5.845  0.0414  0.4749  0.9978
21648SOL    HW163110   1.670   4.681   5.759 -2.5371 -0.8986  1.6870
21648SOL    HW263111   1.607   4.811   5.834 -0.8881 -0.1258  1.7532
21649SOL     OW63112   2.355   2.297   1.828 -0.0589  0.0513 -0.2847
21649SOL    HW163113   2.290   2.262   1.896  0.5168  0.4624  0.4920
21649SOL    HW263114   2.409   2.371   1.869 -0.3261  0.9311 -1.4714
21650SOL     OW63115   2.383   3.511   4.402 -0.1354  0.0134  0.2546
21650SOL    HW163116   2.340   3.462   4.326  2.3408 -0.5710 -0.8110
21650SOL    HW263117   2.349   3.474   4.488 -3.2882  0.9434 -0.5003
21651SOL     OW63118   2.426   9.405   5.392  0.1465 -0.0990 -0.7496
21651SOL    HW163119   2.505   9.346   5.410  1.4982  1.7922 -0.3752
21651SOL    HW263120   2.421   9.425   5.294  0.4581  0.2241 -0.7004
21652SOL     OW63121   7.010   3.108   1.823 -0.3366 -0.0480  0.3164
21652SOL    HW163122   7.080   3.143   1.761  0.4850 -1.3259  0.5112
21652SOL    HW263123   6.992   3.012   1.802 -1.7838  0.1636  0.5007
21654SOL     OW63124   6.740   8.058   3.379  0.2220 -0.1764 -0.4743
21654SOL    HW163125   6.674   8.068   3.305  0.3963  0.1633 -0.5854
21654SOL    HW263126   6.733   8.136   3.441 -0.2735 -0.7090  0.1506
21655SOL     OW63127   3.842   6.886   4.015  0.5637  0.7502 -0.2021
21655SOL    HW163128   3.834   6.826   4.094  0.7677  0.2954 -0.5257
21655SOL    HW263129   3.754   6.930   3.997  0.2488  0.0509 -0.3578
21656SOL     OW63130   2.452   9.560   0.433  0.1562  0.0069 -0.8458
21656SOL    HW163131   2.458   9.656   0.406 -1.1840  0.3059 -0.1399
21656SOL    HW263132   2.359   9.539   0.464  0.6693 -1.2715 -0.0807
21657SOL     OW63133   3.601   5.811   4.355 -0.0594  0.1969  0.1853
21657SOL    HW163134   3.688   5.771   4.326 -0.7793 -0.9570 -0.4014
21657SOL    HW263135   3.618   5.872   4.433  1.3069  0.1925 -0.0844
21658SOL     OW63136   0.196   6.408   3.931  0.2191 -0.0452  0.0913
21658SOL    HW163137   0.098   6.417   3.914  0.3964  1.2143 -0.2614
21658SOL    HW263138   0.236   6.345   3.865 -0.1843  0.1635 -0.3474
21659SOL     OW63139   9.998   8.323   5.254 -0.3804 -0.1973  0.0968
21659SOL    HW163140   9.905   8.357   5.238  0.0724  0.9683 -0.0623
21659SOL    HW263141  10.048   8.389   5.309  1.6643  1.1867 -3.2457
21660SOL     OW63142   1.738   5.484   6.077  0.0790  0.2669  0.6013
21660SOL    HW163143   1.722   5.386   6.063 -0.4446  0.4022  0.2231
21660SOL    HW263144   1.683   5.516   6.153  0.6594  0.1557  1.0686
21662SOL     OW63145   8.156   0.870   3.296  0.0039 -0.0168  0.1831
21662SOL    HW163146   8.086   0.936   3.269  0.2634 -0.5825 -1.9248
21662SOL    HW263147   8.175   0.808   3.220  1.9370 -0.6274  1.1252
21664SOL     OW63148   9.956   6.475   4.939  0.0736 -0.6283  0.8431
21664SOL    HW163149   9.857   6.482   4.937  0.0396 -1.3369 -2.0869
21664SOL    HW263150   9.983   6.396   4.993 -0.9031  0.2025  2.5690
21665SOL     OW63151   6.912   7.388   4.144  0.0136  0.1615 -0.0641
21665SOL    HW163152   6.821   7.375   4.184  0.6902 -0.6707  1.2098
21665SOL    HW263153   6.980   7.392   4.217  1.0196  0.6910 -1.0258
21666SOL     OW63154   6.673   1.688   1.071  0.1972  0.0307 -0.2619
21666SOL    HW163155   6.764   1.669   1.034  0.2161  1.0497 -0.7327
21666SOL    HW263156   6.647   1.782   1.049 -0.6806 -0.0435  0.4703
21667SOL     OW63157   8.912   0.029   2.175 -0.3971  0.4056 -0.3239
21667SOL    HW163158   8.882  -0.038   2.242  0.1911 -0.2893 -0.7469
21667SOL    HW263159   8.970   0.098   2.220  1.8293 -1.2915 -0.4821
21668SOL     OW63160   7.535   8.048   3.848  0.7113 -0.1296  0.2741
21668SOL    HW163161   7.593   7.987   3.794  2.1393 -0.2290  1.8853
21668SOL    HW263162   7.439   8.023   3.835  1.2434 -2.3311  0.4328
21669SOL     OW63163   4.407   6.268   1.114  0.0721  0.7484 -0.1041
21669SOL    HW163164   4.481   6.201   1.110 -0.9285 -0.4330  0.9102
21669SOL    HW263165   4.319   6.220   1.119 -0.6630  2.1420  0.4288
21670SOL     OW63166   9.086   8.929   0.489  0.3965  0.3869 -0.1990
21670SOL    HW163167   9.181   8.901   0.501  0.3621  0.8069  1.0893
21670SOL    HW263168   9.059   8.913   0.394  1.9192  0.7832 -0.7205
21672SOL     OW63169   9.721   3.631   2.198 -0.5592 -0.3331  0.1897
21672SOL    HW163170   9.808   3.591   2.168  0.5003  1.2016  1.1204
21672SOL    HW263171   9.732   3.667   2.291 -2.0395  0.4022  0.0907
21673SOL     OW63172   4.106   9.193   3.032  0.1266  0.3629  0.2465
21673SOL    HW163173   4.170   9.184   3.108  0.9529  0.1815 -0.4651
21673SOL    HW263174   4.078   9.288   3.023 -1.5236  0.0881  2.0184
21675SOL     OW63175   1.386   1.542   4.629  0.1839  0.3195 -0.4371
21675SOL    HW163176   1.326   1.529   4.550 -0.3641 -0.0441  0.0258
21675SOL    HW263177   1.361   1.476   4.700  0.4832  0.8304  0.1475
21676SOL     OW63178   8.685   8.949   4.952  0.1660 -0.0024  0.3758
21676SOL    HW163179   8.585   8.948   4.940 -0.0280  0.4910  1.8734
21676SOL    HW263180   8.724   8.871   4.904 -1.0529 -0.8000  0.6351
21678SOL     OW63181   2.484   2.794   4.319 -0.5512 -0.0822  0.1641
21678SOL    HW163182   2.519   2.881   4.282 -1.1415 -0.4704 -1.3368
21678SOL    HW263183   2.553   2.723   4.308 -0.6493 -0.1509 -0.0111
21679SOL     OW63184   9.257   3.414   2.728 -0.2340  0.0983  0.3658
21679SOL    HW163185   9.289   3.473   2.802  1.0168 -0.1723  0.0539
21679SOL    HW263186   9.157   3.410   2.729 -0.3649  2.6808  0.0236
21680SOL     OW63187   1.017   4.534   1.665  0.0131  0.2403  0.8034
21680SOL    HW163188   1.025   4.626   1.705  0.4551  0.5095  0.1164
21680SOL    HW263189   1.018   4.466   1.738  0.8447  0.7243  1.2632
21682SOL     OW63190   0.104   5.462   0.912 -0.2942 -0.0737  0.1780
21682SOL    HW163191   0.054   5.471   0.998 -1.1386  0.5177 -0.3755
21682SOL    HW263192   0.049   5.497   0.837  0.4442 -0.5815 -0.6130
21684SOL     OW63193   9.219   7.379   1.971 -0.3402  0.5071  0.1418
21684SOL    HW163194   9.263   7.336   2.049 -1.8915  1.3633  1.5225
21684SOL    HW263195   9.119   7.370   1.979 -0.6169  2.4154 -0.6475
21685SOL     OW63196   7.432   3.820   3.441 -0.4717  0.3950  0.4074
21685SOL    HW163197   7.362   3.794   3.508 -1.2187  1.2927 -0.0259
21685SOL    HW263198   7.391   3.826   3.351  0.5223 -0.7181 -0.1401
21686SOL     OW63199   5.772   8.597   4.720  0.4114 -0.3385 -0.2844
21686SOL    HW163200   5.850   8.561   4.670  1.3142 -0.0429  0.8765
21686SOL    HW263201   5.694   8.607   4.658  1.7201  0.7532 -1.7825
21687SOL     OW63202   0.368   1.935   5.929  0.2438  0.0686  0.8247
21687SOL    HW163203   0.334   1.915   6.021  0.1782 -0.2982  0.7193
21687SOL    HW263204   0.451   1.990   5.936  1.5050 -1.8230  1.1689
21688SOL     OW63205   9.389   1.237   6.207 -0.2939  0.3504  0.3559
21688SOL    HW163206   9.374   1.210   6.302 -0.5090  0.9331  0.4926
21688SOL    HW263207   9.413   1.334   6.204  1.0213  0.0243 -0.0742
21689SOL     OW63208   1.992   1.225   2.983 -0.4558  0.0844 -0.0655
21689SOL    HW163209   2.015   1.129   3.003 -1.4385 -0.0623  0.3768
21689SOL    HW263210   1.910   1.228   2.925  0.8095  0.5988 -1.8649
21690SOL     OW63211   7.678   9.029   4.976 -0.1343  0.1595 -0.5635
21690SOL    HW163212   7.636   8.981   5.053 -0.6671  0.2560 -0.7930
21690SOL    HW263213   7.768   9.064   5.004  0.1598 -0.7787 -0.3336
21693SOL     OW63214   7.439   1.506   4.841 -0.4655 -0.4007 -0.0646
21693SOL    HW163215   7.408   1.439   4.909 -1.5294  0.5524  0.3880
21693SOL    HW263216   7.400   1.595   4.861  0.7801  0.3306 -0.7985
21694SOL     OW63217   9.067   3.880   0.701  0.0965  0.1440  0.6380
21694SOL    HW163218   9.021   3.869   0.789  1.8063 -0.5704  1.4489
21694SOL    HW263219   9.145   3.941   0.710  0.1777  0.2182 -0.4314
21695SOL     OW63220   1.908   5.951   4.756  0.3708 -0.0145 -0.8581
21695SOL    HW163221   1.873   5.863   4.724  0.3937  0.4210 -2.1006
21695SOL    HW263222   2.006   5.956   4.741  0.0832  0.9379 -2.4961
21698SOL     OW63223   3.515   9.207   1.623 -0.1254  0.5799  0.4854
21698SOL    HW163224   3.486   9.191   1.528 -0.0277  3.5475 -0.0793
21698SOL    HW263225   3.602   9.161   1.639 -1.1861 -1.7341 -0.2109
21699SOL     OW63226   7.943   7.510   2.511  0.3000  0.1139 -0.5022
21699SOL    HW163227   7.845   7.522   2.523  0.3640  2.1681 -1.8134
21699SOL    HW263228   7.960   7.429   2.454 -0.7996  1.6475 -3.0858
21701SOL     OW63229   6.692   7.877   4.206 -0.0119 -0.5958  0.4823
21701SOL    HW163230   6.620   7.808   4.216  0.2999 -0.9996 -0.0629
21701SOL    HW263231   6.659   7.964   4.243 -0.6157 -0.8906  0.6494
21702SOL     OW63232   1.191   5.727   2.344  0.0135 -0.4178 -0.3747
21702SOL    HW163233   1.259   5.774   2.402  0.6873 -1.1445 -0.5660
21702SOL    HW263234   1.194   5.767   2.252  0.8367 -1.0550 -0.6347
21703SOL     OW63235   1.891   6.533   0.961  0.2375  0.5982 -0.6323
21703SOL    HW163236   1.983   6.524   0.999  0.1983  0.8145 -0.4865
21703SOL    HW263237   1.898   6.564   0.866  0.3615 -0.6848 -1.0491
21704SOL     OW63238   0.199   3.399   3.259 -0.2123 -0.3989 -0.0374
21704SOL    HW163239   0.193   3.390   3.160  0.4706 -0.4056 -0.0752
21704SOL    HW263240   0.278   3.454   3.284 -0.3384 -0.4592  0.5096
21706SOL     OW63241   1.096   1.806   3.675  0.6826  0.0804 -0.2293
21706SOL    HW163242   1.162   1.754   3.621  0.6637 -1.1974  0.9334
21706SOL    HW263243   1.013   1.822   3.622  0.7479 -0.9639 -0.6523
21707SOL     OW63244   4.394   0.832   5.253  0.3725  0.3730 -0.1759
21707SOL    HW163245   4.307   0.812   5.208  0.4504  0.7161 -0.4828
21707SOL    HW263246   4.421   0.754   5.309  0.3761 -0.1532 -0.8968
21708SOL     OW63247   3.162   1.110   6.071 -0.5642  0.4060 -0.0968
21708SOL    HW163248   3.111   1.106   6.157  0.3581  0.3820  0.4516
21708SOL    HW263249   3.248   1.158   6.086  0.4917 -1.3148 -0.5629
21711SOL     OW63250   8.356   6.914   3.825 -0.2833 -0.6358 -0.4516
21711SOL    HW163251   8.279   6.970   3.794 -0.9118 -0.8767  0.6536
21711SOL    HW263252   8.322   6.824   3.854  0.7956 -1.8684 -2.8894
21712SOL     OW63253   9.967   5.879   4.484 -0.0361 -0.1338  0.0720
21712SOL    HW163254  10.041   5.945   4.486 -0.1745  0.0343 -0.3914
21712SOL    HW263255   9.991   5.800   4.541 -0.0942  0.5502  1.0411
21713SOL     OW63256   5.184   2.031   4.770  0.2002  0.0694  0.1448
21713SOL    HW163257   5.268   2.082   4.787  0.1205 -0.1624  1.2351
21713SOL    HW263258   5.164   1.971   4.847 -0.9654  0.1194 -0.0994
21714SOL     OW63259   9.687   4.471   5.484 -0.0774 -0.1549 -0.3211
21714SOL    HW163260   9.644   4.384   5.509 -2.0701  1.6044  2.7337
21714SOL    HW263261   9.757   4.494   5.552  1.2549  0.0977 -1.7577
21715SOL     OW63262   9.352   4.931   5.343  0.0306 -0.4023  0.4361
21715SOL    HW163263   9.305   4.976   5.419 -0.3247  1.4343 -0.8516
21715SOL    HW263264   9.331   4.978   5.258  1.0930 -1.9397 -0.7089
21716SOL     OW63265   6.457   2.706   4.193  0.2502 -0.0049 -0.2930
21716SOL    HW163266   6.437   2.608   4.194 -1.1908  0.2689 -0.5778
21716SOL    HW263267   6.424   2.748   4.277 -0.0373  0.3999 -0.6022
21718SOL     OW63268   3.653   1.867   2.332  0.1293 -0.9216  0.2529
21718SOL    HW163269   3.628   1.861   2.429  2.1003 -0.9287  0.7825
21718SOL    HW263270   3.587   1.814   2.278 -3.7120  2.7472  1.0181
21720SOL     OW63271   1.685   2.617   6.077  0.1362 -0.4281 -0.3826
21720SOL    HW163272   1.777   2.632   6.113 -0.1245  0.0167  0.0966
21720SOL    HW263273   1.686   2.629   5.977  0.5676 -0.3009 -0.3640
21722SOL     OW63274   5.564   0.524   3.433 -0.7092  0.1053 -0.2969
21722SOL    HW163275   5.632   0.451   3.436 -0.8985 -0.0209  1.2766
21722SOL    HW263276   5.484   0.492   3.383  0.0028 -0.0777 -1.3310
21723SOL     OW63277   2.515   4.901   0.706  0.3992 -0.1876 -0.7767
21723SOL    HW163278   2.613   4.919   0.719  0.6961 -1.1380 -1.6288
21723SOL    HW263279   2.500   4.865   0.614 -0.7032 -0.4456 -0.4993
21726SOL     OW63280   3.841   1.624   4.537  0.5509  0.4809  0.0338
21726SOL    HW163281   3.745   1.650   4.535  0.9422  2.0195  0.1696
21726SOL    HW263282   3.895   1.701   4.572  1.7246 -0.6848  0.8320
21727SOL     OW63283   5.519   0.420   1.177  0.1530 -0.1146  0.6037
21727SOL    HW163284   5.507   0.507   1.128 -0.9271 -0.3072  0.5023
21727SOL    HW263285   5.609   0.382   1.157  0.3418  0.6187  0.0528
21729SOL     OW63286   7.630   2.194   5.532 -0.2546 -0.0283 -0.1707
21729SOL    HW163287   7.673   2.284   5.547  1.2216 -0.3804 -2.0540
21729SOL    HW263288   7.651   2.135   5.609 -0.2523  0.8806  0.5424
21730SOL     OW63289   4.778   9.976   2.447  0.2541 -0.1277 -0.0608
21730SOL    HW163290   4.875   9.994   2.432  0.4637  1.3490  2.6993
21730SOL    HW263291   4.745  10.033   2.522 -1.8779 -3.2557  1.4818
21731SOL     OW63292   8.604   6.592   4.194  0.4028 -0.2584  0.1854
21731SOL    HW163293   8.549   6.566   4.115  0.4889  0.5854 -0.1572
21731SOL    HW263294   8.575   6.540   4.274 -0.3226 -0.4269 -0.1846
21732SOL     OW63295   0.258   7.247   1.956  0.2161  0.5654  0.3710
21732SOL    HW163296   0.180   7.204   2.002 -0.2624 -1.1267 -1.9618
21732SOL    HW263297   0.327   7.271   2.025 -0.5059 -1.8426  2.0170
21734SOL     OW63298   4.153   7.973   0.952  0.1363  0.0863 -0.3324
21734SOL    HW163299   4.172   7.899   1.016  0.2878  2.1365  2.0892
21734SOL    HW263300   4.238   8.021   0.930 -0.5440  2.3697  1.7779
21735SOL     OW63301   8.897   6.665   2.558 -0.0369 -0.2945 -0.0978
21735SOL    HW163302   8.866   6.689   2.650  0.5504  1.4387 -0.3441
21735SOL    HW263303   8.978   6.607   2.564  0.1115 -0.0307  0.4629
21736SOL     OW63304   7.338   9.415   5.503 -0.1067 -0.1167  0.0596
21736SOL    HW163305   7.416   9.372   5.548  0.1063  0.3080  0.0942
21736SOL    HW263306   7.368   9.495   5.451 -0.5631  0.2830  0.3906
21738SOL     OW63307   8.582   8.167   2.134  0.0879  0.5816 -0.2677
21738SOL    HW163308   8.557   8.157   2.037 -1.7056 -2.1347  0.4248
21738SOL    HW263309   8.507   8.212   2.183  0.0512 -0.0984  0.2909
21739SOL     OW63310   1.808   2.437   1.030 -0.0125 -0.0101  0.4819
21739SOL    HW163311   1.725   2.423   0.977  0.7113 -0.5532 -0.5140
21739SOL    HW263312   1.860   2.513   0.992  1.0216 -1.0589 -0.2348
21740SOL     OW63313   6.998   2.380   2.173 -0.6250  0.0350  0.3581
21740SOL    HW163314   6.916   2.378   2.230 -0.9148 -0.3435 -0.0769
21740SOL    HW263315   6.998   2.302   2.110 -2.4968  2.7712 -3.2270
21741SOL     OW63316   3.053   6.414   3.282  0.0257 -0.5158  0.2733
21741SOL    HW163317   3.117   6.490   3.269 -2.5956  1.6546 -0.5039
21741SOL    HW263318   2.967   6.449   3.320 -2.3875 -2.5695 -3.0213
21742SOL     OW63319   7.472   3.471   3.214  0.5184  0.5695  0.2031
21742SOL    HW163320   7.511   3.402   3.153 -0.5990 -1.6916  1.9612
21742SOL    HW263321   7.511   3.460   3.306  1.4110  3.2566  0.1643
21743SOL     OW63322   8.139   9.464   0.514  0.1513 -0.0244  0.4672
21743SOL    HW163323   8.111   9.529   0.585 -0.9293  0.3327 -0.2719
21743SOL    HW263324   8.060   9.410   0.486  0.3329  0.5221 -1.1689
21744SOL     OW63325   9.987   0.596   0.639 -0.3234 -0.5013  0.1780
21744SOL    HW163326  10.046   0.538   0.584  0.8475  1.5318 -0.7831
21744SOL    HW263327  10.023   0.603   0.731  1.1674  0.9771 -0.4862
21745SOL     OW63328   3.595   1.886   4.336 -0.0232  0.2858 -0.0657
21745SOL    HW163329   3.551   1.930   4.257 -0.8710  1.2965  0.9658
21745SOL    HW263330   3.530   1.825   4.380  0.4222 -0.1955 -0.0707
21748SOL     OW63331   7.862   0.562   3.992  0.2347 -0.0140 -0.1211
21748SOL    HW163332   7.866   0.598   3.899 -4.3320 -0.4352 -0.6141
21748SOL    HW263333   7.883   0.465   3.992 -0.9262 -0.2683 -0.9126
21749SOL     OW63334   8.815   9.038   0.501 -0.2217 -0.1385  0.0755
21749SOL    HW163335   8.908   9.005   0.486  0.1061  0.8656 -0.1167
21749SOL    HW263336   8.753   8.994   0.437  0.1190 -0.8187  0.2089
21750SOL     OW63337   8.618   0.022   4.354 -0.7007  0.1720  0.1719
21750SOL    HW163338   8.582   0.105   4.397  1.9099  1.5139 -0.1358
21750SOL    HW263339   8.662  -0.035   4.423 -0.5986  0.0944  0.0437
21751SOL     OW63340   1.903   3.512   2.056  0.3156  0.1433 -0.3581
21751SOL    HW163341   1.817   3.562   2.062 -0.5254 -1.1305 -1.7531
21751SOL    HW263342   1.963   3.541   2.131  0.0549  3.6091 -1.4084
21752SOL     OW63343   8.511   4.069   1.111  0.2179  0.7326  0.3853
21752SOL    HW163344   8.505   4.148   1.051 -0.4464 -1.1729 -2.1489
21752SOL    HW263345   8.434   4.069   1.175 -0.5263  1.4223 -0.5044
21754SOL     OW63346   8.496   4.512   5.960 -0.6986 -0.1550 -0.3987
21754SOL    HW163347   8.439   4.434   5.935 -0.8369 -0.3471  0.4899
21754SOL    HW263348   8.576   4.516   5.901 -1.3494 -0.2098 -1.2949
21756SOL     OW63349   9.921   9.859   5.907 -0.8703  0.4677 -0.2193
21756SOL    HW163350   9.894   9.841   6.001 -1.4890  1.1077 -0.2721
21756SOL    HW263351   9.939   9.956   5.896  0.3065  0.2238 -0.4832
21757SOL     OW63352   8.317   0.956   4.986 -0.4378 -0.5700  0.5180
21757SOL    HW163353   8.303   0.892   4.910  0.2327  0.0796 -0.1671
21757SOL    HW263354   8.286   1.047   4.958  1.0545 -0.0407  0.5352
21758SOL     OW63355   0.948   8.578   1.230 -0.2757  0.5277 -0.1359
21758SOL    HW163356   0.909   8.517   1.161 -0.6077  0.0632  0.4650
21758SOL    HW263357   1.048   8.572   1.226 -0.2892 -3.1237  2.6213
21759SOL     OW63358   8.624   0.749   2.323 -0.0142  0.6030  0.6727
21759SOL    HW163359   8.696   0.783   2.262  0.1847  2.0904  1.7199
21759SOL    HW263360   8.603   0.818   2.392  1.4318 -1.9895  3.7962
21761SOL     OW63361   7.445   0.557   3.138 -0.2873 -0.5677  0.1856
21761SOL    HW163362   7.506   0.516   3.071 -0.7287 -0.6003 -0.1981
21761SOL    HW263363   7.436   0.496   3.217 -0.5476 -0.9784 -0.1630
21762SOL     OW63364   1.976   5.180   2.962 -0.3120 -0.0912 -0.1244
21762SOL    HW163365   2.055   5.149   2.909 -1.6212 -0.7793 -1.7172
21762SOL    HW263366   1.997   5.172   3.060  1.6828  0.0232 -0.5117
21764SOL     OW63367   5.510   2.795   0.877  0.1214  0.6349 -0.2084
21764SOL    HW163368   5.587   2.837   0.925 -0.4350  0.7842  0.5677
21764SOL    HW263369   5.534   2.781   0.781  1.6032 -0.5664  0.3216
21767SOL     OW63370   6.095   4.511   0.746  0.0368 -0.2691 -0.3004
21767SOL    HW163371   6.181   4.464   0.763 -0.6803 -0.5038  2.9984
21767SOL    HW263372   6.090   4.594   0.802 -2.2427 -0.7265  0.2167
21768SOL     OW63373   2.834   0.100   4.908 -0.4339  0.3264  0.1056
21768SOL    HW163374   2.901   0.171   4.926  0.2949  0.4300 -2.7536
21768SOL    HW263375   2.879   0.010   4.910 -1.0820  0.0149  2.3500
21769SOL     OW63376   3.102   2.284   1.473 -0.8727  0.3604  0.3022
21769SOL    HW163377   3.018   2.329   1.502 -0.8705  0.1645  0.6168
21769SOL    HW263378   3.174   2.300   1.541 -1.0210 -0.5527  0.6852
21770SOL     OW63379   4.534   5.571   3.101  0.2459 -0.2981  0.3735
21770SOL    HW163380   4.524   5.474   3.076 -0.6262 -0.0913 -0.1130
21770SOL    HW263381   4.443   5.613   3.107  0.6583  0.7280 -0.4002
21772SOL     OW63382   0.451   4.567   4.837 -0.0417  0.1440  0.2286
21772SOL    HW163383   0.410   4.508   4.767  0.7895  0.6908 -0.7502
21772SOL    HW263384   0.536   4.606   4.801  0.0296  0.9951  1.2979
21774SOL     OW63385   4.943   2.396   1.147  0.2124 -0.2690 -0.5980
21774SOL    HW163386   4.945   2.301   1.179 -0.0799  0.0869  0.5075
21774SOL    HW263387   4.910   2.399   1.053 -0.3979 -1.2071 -0.4201
21775SOL     OW63388   0.289   9.721   3.839  0.5218  0.8479 -0.7944
21775SOL    HW163389   0.296   9.804   3.894 -0.5150  1.0880 -1.0153
21775SOL    HW263390   0.364   9.659   3.862  1.7486  2.1695 -1.1612
21776SOL     OW63391   3.894   9.412   5.171  0.1760  0.4380 -0.2321
21776SOL    HW163392   3.863   9.399   5.266  1.7417 -0.5312  0.1675
21776SOL    HW263393   3.946   9.497   5.165 -1.7944  1.6341 -0.7206
21778SOL     OW63394   8.094   9.395   1.824  0.4745  0.4230  0.1365
21778SOL    HW163395   8.047   9.425   1.742  0.1348  0.1471  0.2275
21778SOL    HW263396   8.172   9.455   1.842  0.4312  0.6029 -0.2722
21779SOL     OW63397   3.014   4.873   3.372 -0.5217 -0.2380  0.0629
21779SOL    HW163398   2.969   4.892   3.459 -0.6507  1.2325 -0.3169
21779SOL    HW263399   3.027   4.958   3.322  0.0579 -1.0098 -1.1150
21780SOL     OW63400   8.800   5.517   1.797  0.9913 -0.2580 -0.3229
21780SOL    HW163401   8.705   5.486   1.807  0.7760  0.0812 -1.2551
21780SOL    HW263402   8.818   5.589   1.864 -0.1160  1.2727 -1.6371
21781SOL     OW63403   9.015   2.009   4.506  0.1589 -0.3346  0.5795
21781SOL    HW163404   9.064   2.011   4.419 -0.6931 -0.2441  0.1055
21781SOL    HW263405   8.997   2.102   4.537 -2.6016 -0.3622 -0.8701
21783SOL     OW63406   0.306   4.061   5.014 -0.1618 -0.7256  0.8060
21783SOL    HW163407   0.300   4.063   5.113 -1.8607 -0.2255  0.7164
21783SOL    HW263408   0.234   4.002   4.977 -0.8629  0.7322 -0.2028
21784SOL     OW63409   7.124   2.126   0.616  0.1914 -0.1222  0.0926
21784SOL    HW163410   7.072   2.145   0.699  0.8134 -1.0178  0.7031
21784SOL    HW263411   7.153   2.213   0.574  0.5049  0.3368  1.2247
21785SOL     OW63412   7.377   2.104   5.541 -0.0315 -0.7257 -0.3075
21785SOL    HW163413   7.473   2.134   5.539  0.1021 -0.9613  1.8399
21785SOL    HW263414   7.370   2.013   5.500  0.6432 -0.6619 -0.5717
21786SOL     OW63415   3.238   2.508   3.485 -0.1596  0.1389  0.1908
21786SOL    HW163416   3.286   2.456   3.414  0.9952  2.3103 -0.6826
21786SOL    HW263417   3.247   2.461   3.573 -0.1726 -1.7296 -0.7933
21789SOL     OW63418   0.107   6.517   2.827  0.2533  0.8951  0.4216
21789SOL    HW163419   0.061   6.481   2.746  0.2110  0.7522  0.5083
21789SOL    HW263420   0.134   6.441   2.886  2.0591  0.8787 -0.4058
21790SOL     OW63421   8.857   0.401   5.502 -0.6549  0.6492 -0.6207
21790SOL    HW163422   8.787   0.358   5.446 -1.3020 -1.7745  1.9785
21790SOL    HW263423   8.934   0.338   5.515  1.8846  3.0711 -3.0162
21792SOL     OW63424   3.219   6.920   0.832  0.5806  0.7294 -0.1812
21792SOL    HW163425   3.170   6.981   0.894  0.2135  1.5964 -1.3116
21792SOL    HW263426   3.169   6.914   0.745  1.5521  0.2270 -0.7114
21793SOL     OW63427   8.837   2.590   3.203 -0.3519  0.4744  0.3203
21793SOL    HW163428   8.761   2.633   3.155 -1.0330  0.9919  1.8231
21793SOL    HW263429   8.818   2.492   3.215  0.0971  0.2203 -0.9708
21795SOL     OW63430   7.205   4.465   2.539  0.0206  0.4059 -0.0791
21795SOL    HW163431   7.182   4.407   2.617  4.9796 -1.7952 -0.0846
21795SOL    HW263432   7.141   4.447   2.465 -2.1676 -0.6128  1.9870
21796SOL     OW63433   5.335   1.792   4.340 -0.5913 -0.4459 -0.1552
21796SOL    HW163434   5.339   1.745   4.251 -1.3710  2.5204 -1.8247
21796SOL    HW263435   5.253   1.848   4.345  0.1849  0.5723  1.8568
21798SOL     OW63436   2.690   9.461   0.934  0.5734  0.0318  0.1246
21798SOL    HW163437   2.668   9.540   0.990 -1.4389 -0.0844 -0.4815
21798SOL    HW263438   2.706   9.490   0.840 -0.4222 -0.3241 -0.1497
21799SOL     OW63439   3.082   9.354   3.925 -0.0689 -0.1732 -0.3499
21799SOL    HW163440   2.987   9.322   3.928  0.3055 -1.1740  1.3015
21799SOL    HW263441   3.087   9.447   3.962 -0.9007  1.2728 -3.6468
21800SOL     OW63442   1.737   2.939   0.776  0.1308  0.3412 -0.0021
21800SOL    HW163443   1.665   2.898   0.831  0.8520 -0.7941  0.1155
21800SOL    HW263444   1.698   2.974   0.691 -0.3335 -1.7020 -0.6609
21802SOL     OW63445   9.723   1.482   3.966  0.4692 -0.0689  0.3780
21802SOL    HW163446   9.712   1.490   3.867 -0.8106 -0.4325  0.4788
21802SOL    HW263447   9.767   1.395   3.987 -1.7759 -1.2471  0.2729
21803SOL     OW63448   6.313   7.394   5.616 -0.6312 -0.1672 -0.3333
21803SOL    HW163449   6.366   7.405   5.700  1.4575 -1.1361 -1.4595
21803SOL    HW263450   6.243   7.464   5.611 -1.3123 -0.5705  2.5843
21804SOL     OW63451   1.002   6.717   2.446  0.3122  0.1267 -0.0490
21804SOL    HW163452   1.071   6.689   2.379  0.4067  0.7652 -0.2209
21804SOL    HW263453   0.988   6.643   2.512  0.5538 -0.3282 -0.5011
21805SOL     OW63454   4.108   1.832   4.999  0.7505  0.7753 -0.2440
21805SOL    HW163455   4.190   1.793   5.043  0.5370  1.1121  0.4672
21805SOL    HW263456   4.103   1.930   5.020 -0.0156  0.6867  0.0052
21806SOL     OW63457   3.194   0.672   3.573  0.7676 -0.2216 -0.4055
21806SOL    HW163458   3.284   0.630   3.585  1.2803  0.3830 -1.9698
21806SOL    HW263459   3.133   0.606   3.530  0.6478 -0.4318  0.0922
21807SOL     OW63460   8.663   5.179   1.315 -0.5550 -0.7321  0.3085
21807SOL    HW163461   8.670   5.097   1.372  0.6010 -0.5631  0.4290
21807SOL    HW263462   8.709   5.255   1.362 -2.1440  0.1333  0.4747
21809SOL     OW63463   9.520   6.951   2.814 -0.5282 -0.5904 -0.3576
21809SOL    HW163464   9.475   7.030   2.855 -2.5590 -1.5465 -0.6620
21809SOL    HW263465   9.550   6.889   2.886 -1.1498 -0.7081 -0.1931
21810SOL     OW63466   1.863   5.529   0.898 -0.1155  0.0458 -0.2099
21810SOL    HW163467   1.943   5.484   0.858 -0.6875  0.6292 -2.0600
21810SOL    HW263468   1.784   5.467   0.893 -0.9005  1.1912 -2.7484
21811SOL     OW63469   2.879   9.999   3.143  0.2286  0.3497  0.3391
21811SOL    HW163470   2.793  10.047   3.126  0.1348 -0.1530 -0.6380
21811SOL    HW263471   2.876   9.956   3.233 -0.2902  0.8620  0.5724
21814SOL     OW63472   8.274   2.663   3.957 -0.9045 -0.6057 -0.2923
21814SOL    HW163473   8.261   2.564   3.943  0.9736 -1.0573  0.9583
21814SOL    HW263474   8.371   2.682   3.973 -0.9304  1.7425 -2.6399
21815SOL     OW63475   9.741   4.928   4.996  0.0738 -0.1049  0.2232
21815SOL    HW163476   9.746   4.863   4.920 -1.0406  0.0716 -0.0106
21815SOL    HW263477   9.802   5.005   4.977 -0.7053  0.2715 -0.8278
21816SOL     OW63478   1.830   9.098   0.502 -0.6005  0.1347 -0.0674
21816SOL    HW163479   1.842   9.151   0.418 -0.1197  0.4471  0.2004
21816SOL    HW263480   1.878   9.142   0.577 -0.9691 -0.1834  0.3620
21817SOL     OW63481   2.212   2.498   2.794  0.3335  0.0239  0.2738
21817SOL    HW163482   2.257   2.446   2.721  1.4738 -1.0645  1.7289
21817SOL    HW263483   2.127   2.537   2.759  0.8442 -0.5151 -1.6309
21818SOL     OW63484   5.397   4.350   0.865 -0.0441 -0.5883 -0.2717
21818SOL    HW163485   5.421   4.417   0.794 -0.6302 -0.3304 -0.2288
21818SOL    HW263486   5.423   4.386   0.954 -1.1570 -0.0192 -0.1582
21821SOL     OW63487   3.093   3.733   5.182  0.3039 -0.2590 -0.4409
21821SOL    HW163488   3.082   3.634   5.174 -0.9768 -0.4442  2.8987
21821SOL    HW263489   3.003   3.777   5.173  0.6014  0.4323 -0.0332
21822SOL     OW63490   7.818   3.336   5.907  0.3276  0.6451 -0.1591
21822SOL    HW163491   7.798   3.325   6.004  2.1698 -0.7006  0.0949
21822SOL    HW263492   7.733   3.333   5.855 -0.7348  1.9534  1.4380
21823SOL     OW63493   2.552   8.572   0.966 -0.2700 -0.2082 -0.3294
21823SOL    HW163494   2.515   8.570   1.059  1.4974 -2.3932  0.3646
21823SOL    HW263495   2.501   8.638   0.911 -0.2886  2.3200  2.6223
21824SOL     OW63496   4.078   8.625   3.781  0.0495 -0.6792  0.3633
21824SOL    HW163497   3.980   8.635   3.797  0.2035  0.3192  0.7434
21824SOL    HW263498   4.126   8.623   3.869  0.5419  0.8218  0.1408
21825SOL     OW63499   3.938   1.331   5.093  0.5066  0.0130 -0.0494
21825SOL    HW163500   3.900   1.369   5.177 -1.2743 -1.5356 -0.1259
21825SOL    HW263501   3.939   1.400   5.022 -2.1048  0.1101 -0.0165
21826SOL     OW63502   3.157   9.553   3.101  0.8285  0.7053  0.1155
21826SOL    HW163503   3.115   9.521   3.016  2.7016  2.2350 -1.4413
21826SOL    HW263504   3.089   9.600   3.157 -0.6990 -1.3215  0.0185
21828SOL     OW63505   2.448   8.175   2.302  0.0171  0.1689  0.8076
21828SOL    HW163506   2.432   8.235   2.380  0.2519 -0.5808  1.4357
21828SOL    HW263507   2.533   8.124   2.316  1.4791  1.9352 -1.1253
21829SOL     OW63508   0.415   9.890   0.364  0.3609 -0.7620 -0.2016
21829SOL    HW163509   0.319   9.866   0.383 -0.1974  0.7987 -1.0153
21829SOL    HW263510   0.420   9.984   0.332  2.5474  0.2650  2.9407
21830SOL     OW63511   2.293   9.660   4.223 -0.4892  0.2930 -0.0990
21830SOL    HW163512   2.264   9.581   4.170 -0.2622  0.1405  0.0035
21830SOL    HW263513   2.230   9.736   4.207 -1.7038 -0.4242  1.0934
21831SOL     OW63514   0.944   2.597   3.006  0.0209  0.8537 -0.0577
21831SOL    HW163515   0.866   2.601   3.069 -0.3289 -0.4324 -0.3788
21831SOL    HW263516   1.022   2.556   3.053  0.4833  2.0821  0.2440
21832SOL     OW63517   2.610   1.461   1.546  0.3220 -0.2355 -0.2560
21832SOL    HW163518   2.589   1.506   1.633  2.6707 -3.1110  1.8777
21832SOL    HW263519   2.684   1.510   1.500  1.0259 -0.3580  0.7462
21833SOL     OW63520   8.715   8.701   3.961 -0.1708 -0.1087  0.5898
21833SOL    HW163521   8.709   8.691   3.862 -2.5380 -1.3810  0.8185
21833SOL    HW263522   8.731   8.797   3.984 -1.3358  0.4768 -0.9684
21835SOL     OW63523   3.683   2.979   0.424 -0.3851  0.2566  0.2467
21835SOL    HW163524   3.607   2.980   0.490 -1.3065 -1.9041 -0.7322
21835SOL    HW263525   3.765   2.946   0.469 -0.9489 -0.9738  0.3901
21836SOL     OW63526   9.147   7.034   4.874  0.3547 -0.4142 -0.0613
21836SOL    HW163527   9.198   6.953   4.844  0.4762 -0.9902  1.6953
21836SOL    HW263528   9.205   7.089   4.934 -0.1638  0.3308 -0.2399
21837SOL     OW63529   8.518   4.884   5.115  0.2625 -0.1209  0.1588
21837SOL    HW163530   8.512   4.819   5.039  2.0297 -0.3998  0.2244
21837SOL    HW263531   8.557   4.971   5.081  0.9610 -0.2138  0.7153
21838SOL     OW63532   4.854   0.043   3.227 -0.2807 -0.1254 -0.1916
21838SOL    HW163533   4.908   0.080   3.303 -1.5414 -0.9546  1.1207
21838SOL    HW263534   4.776   0.103   3.210 -1.1758 -1.0672  0.5734
21839SOL     OW63535   8.228   8.593   2.688 -0.5545  0.1202 -0.1254
21839SOL    HW163536   8.196   8.504   2.720 -0.0485  0.6206  1.7904
21839SOL    HW263537   8.324   8.587   2.661 -0.6843 -0.0422 -0.5662
21840SOL     OW63538   1.353   9.656   6.207 -0.1630  0.5401  0.1008
21840SOL    HW163539   1.305   9.668   6.294 -0.4515  1.7893 -0.2363
21840SOL    HW263540   1.448   9.629   6.226 -0.3250  0.4415  0.7973
21841SOL     OW63541   2.105   7.321   0.220  0.4440  0.1560  0.1144
21841SOL    HW163542   2.135   7.314   0.316 -1.6114 -2.6373  0.6370
21841SOL    HW263543   2.037   7.394   0.212 -1.2244 -1.1963  1.3688
21842SOL     OW63544   5.650   9.884   4.258  0.1255 -0.3211  0.2382
21842SOL    HW163545   5.563   9.933   4.270  0.9111  0.4265  3.2274
21842SOL    HW263546   5.716   9.944   4.212 -0.8766 -0.8696 -1.9804
21844SOL     OW63547   6.591   0.643   4.982  0.3602 -0.5702 -0.1428
21844SOL    HW163548   6.581   0.700   4.900 -3.8890 -1.9928 -0.7694
21844SOL    HW263549   6.599   0.702   5.062 -0.1255  0.8841 -1.1443
21845SOL     OW63550   2.732   0.526   0.543 -0.1726 -0.2535  0.1580
21845SOL    HW163551   2.789   0.548   0.464 -2.1796 -0.4150 -1.3643
21845SOL    HW263552   2.650   0.583   0.542 -0.4017 -0.5275  1.9253
21846SOL     OW63553   7.115   1.594   4.562 -0.1353  0.1672  0.1654
21846SOL    HW163554   7.018   1.569   4.562  0.3245 -1.6411 -0.6370
21846SOL    HW263555   7.137   1.639   4.648 -1.0864 -1.8236  1.4903
21847SOL     OW63556   1.046   5.425   4.193 -0.3053 -0.2501  0.2124
21847SOL    HW163557   0.966   5.458   4.243 -1.4872 -2.2307 -0.3464
21847SOL    HW263558   1.102   5.369   4.253  0.1407  0.2749  0.2972
21848SOL     OW63559   3.136   4.346   5.377  0.4802 -0.3115  0.0892
21848SOL    HW163560   3.206   4.332   5.307  1.1128  1.0937  0.4334
21848SOL    HW263561   3.177   4.341   5.468 -0.2435 -1.5623  0.3729
21849SOL     OW63562   2.331   0.201   1.158  0.4172  0.2541  0.1476
21849SOL    HW163563   2.320   0.184   1.256  0.7633  0.6928  0.2670
21849SOL    HW263564   2.353   0.298   1.144  2.6225 -0.2777 -0.1737
21850SOL     OW63565   2.641   3.523   3.212 -0.2109  0.4848 -0.4038
21850SOL    HW163566   2.550   3.542   3.248 -0.0670  0.2773  0.0723
21850SOL    HW263567   2.708   3.525   3.286 -0.1615 -1.7069 -0.3358
21851SOL     OW63568   0.300   9.654   1.721 -0.4906  0.0924  0.2873
21851SOL    HW163569   0.308   9.753   1.732 -1.5827  0.2026  0.1608
21851SOL    HW263570   0.390   9.612   1.727 -0.0436  1.0804  0.5112
21853SOL     OW63571   1.665   4.697   3.812 -0.1755  0.6603 -0.3791
21853SOL    HW163572   1.683   4.695   3.911 -0.3252 -0.2509 -0.3657
21853SOL    HW263573   1.752   4.692   3.763 -0.1511  0.1378 -0.2921
21854SOL     OW63574   1.999   1.185   1.257  0.1638  0.0033 -0.0274
21854SOL    HW163575   1.994   1.139   1.169  1.4408 -0.9140  0.3535
21854SOL    HW263576   1.994   1.117   1.330 -1.4354  0.8026  0.6298
21855SOL     OW63577   7.599   1.572   4.635 -0.0440 -0.4254  0.4505
21855SOL    HW163578   7.692   1.574   4.672  0.1295 -0.8603  0.0447
21855SOL    HW263579   7.535   1.557   4.710  0.1574  0.5286  0.8179
21856SOL     OW63580   1.586   4.233   2.752 -0.1200  0.2347 -0.2471
21856SOL    HW163581   1.655   4.183   2.804 -0.8798  0.0186  0.5838
21856SOL    HW263582   1.498   4.187   2.762 -0.8940  1.8807  0.7838
21857SOL     OW63583   9.282   6.756   0.792  0.5249  0.1307  0.7322
21857SOL    HW163584   9.368   6.716   0.761  0.5970  0.9515 -0.1249
21857SOL    HW263585   9.292   6.787   0.887  1.4228  0.9599  0.3668
21859SOL     OW63586   7.557   1.965   4.381  0.4657  0.5365 -0.1996
21859SOL    HW163587   7.526   2.060   4.384 -3.2307 -0.5142 -1.8227
21859SOL    HW263588   7.570   1.938   4.285  0.5453 -0.8605  0.1955
21861SOL     OW63589   6.185   2.147   0.598  0.3961 -0.0290 -0.3268
21861SOL    HW163590   6.097   2.194   0.607  0.3603 -0.1717  0.0806
21861SOL    HW263591   6.259   2.208   0.627  0.3848 -0.0965 -0.1591
21862SOL     OW63592   1.763   7.780   4.467  0.5813 -1.1141 -0.5626
21862SOL    HW163593   1.723   7.851   4.525  1.1649 -0.4183 -1.0147
21862SOL    HW263594   1.732   7.690   4.499  0.2703 -0.6911  0.3455
21863SOL     OW63595   2.247   4.182   3.822  0.6412 -0.1551 -0.1154
21863SOL    HW163596   2.231   4.151   3.729 -0.4940  1.6793 -0.5378
21863SOL    HW263597   2.234   4.105   3.885 -0.9955 -0.8210 -1.2443
21865SOL     OW63598   7.305   2.924   2.814 -0.2174 -0.7805  0.0450
21865SOL    HW163599   7.228   2.988   2.814 -0.9189 -1.5415  3.3497
21865SOL    HW263600   7.281   2.842   2.867  2.7898 -1.1276  0.9641
21867SOL     OW63601   0.789   9.958   4.424 -0.1688  0.2763 -0.1064
21867SOL    HW163602   0.827   9.975   4.334 -3.1612  2.7259 -0.9810
21867SOL    HW263603   0.729   9.878   4.420 -0.8096  0.7715 -0.4552
21868SOL     OW63604   1.699   0.995   5.292 -0.7205  0.9319  0.0164
21868SOL    HW163605   1.634   0.925   5.262 -1.2187  1.2770  0.2826
21868SOL    HW263606   1.733   1.046   5.213  2.2395 -1.8063 -0.6041
21869SOL     OW63607   5.208   7.690   4.662 -0.2204  0.3229 -0.0504
21869SOL    HW163608   5.253   7.678   4.750 -1.6180  1.0259  0.7862
21869SOL    HW263609   5.144   7.615   4.647 -0.5598  0.6162 -0.0898
21870SOL     OW63610   2.953   6.184   0.962 -0.2017  0.3007 -0.4493
21870SOL    HW163611   3.029   6.121   0.942 -1.1422 -0.3802 -2.0309
21870SOL    HW263612   2.989   6.270   0.999  1.1361 -0.9722  1.2802
21872SOL     OW63613   7.099   3.048   5.719  0.3328  0.1637  0.0860
21872SOL    HW163614   7.141   2.958   5.707  0.9353  0.0924  2.5413
21872SOL    HW263615   7.115   3.103   5.636 -0.3726 -2.0776 -1.5892
21873SOL     OW63616   3.900   9.602   2.827 -0.1187  0.1573 -0.6921
21873SOL    HW163617   3.882   9.536   2.754 -2.1352  0.1402 -0.1915
21873SOL    HW263618   3.884   9.695   2.792  0.8940  0.2716 -0.8557
21874SOL     OW63619   9.283   5.328   0.803 -0.1407 -0.4132  0.7703
21874SOL    HW163620   9.239   5.240   0.789 -1.6185  0.5332 -0.8171
21874SOL    HW263621   9.216   5.401   0.790  1.0854  0.9472  1.9150
21875SOL     OW63622   2.533   3.795   4.974  0.4861 -0.9694 -0.1535
21875SOL    HW163623   2.555   3.872   4.914  1.5372 -1.1595 -0.0198
21875SOL    HW263624   2.525   3.711   4.920 -2.9784 -0.4204 -0.6476
21876SOL     OW63625   8.125   6.016   5.568  1.0454  0.1503  0.3141
21876SOL    HW163626   8.150   6.089   5.631  0.0578  0.6552  0.1324
21876SOL    HW263627   8.101   6.055   5.479  0.5792 -0.3930  0.1946
21877SOL     OW63628   3.361   2.544   1.234  0.0233 -0.0025 -0.1664
21877SOL    HW163629   3.412   2.604   1.173  0.6327 -0.8668 -0.5062
21877SOL    HW263630   3.406   2.541   1.323  0.3110 -0.4055 -0.3255
21878SOL     OW63631   0.347   9.923   3.601  0.4151  0.3242 -0.0538
21878SOL    HW163632   0.322   9.852   3.666  0.9319 -0.8817 -1.1517
21878SOL    HW263633   0.365  10.008   3.650 -1.2914 -0.0016  1.1753
21879SOL     OW63634   1.073   5.978   4.368  0.2561  0.3382  0.0996
21879SOL    HW163635   1.165   5.938   4.364 -0.1691 -0.5679 -0.7474
21879SOL    HW263636   1.044   5.984   4.464  0.0148 -2.1409  0.2136
21881SOL     OW63637   8.527   6.557   2.881  0.1938 -0.0293  0.7874
21881SOL    HW163638   8.553   6.463   2.858 -0.6588 -0.6750  2.3725
21881SOL    HW263639   8.520   6.611   2.797  1.2003 -1.2415 -0.1058
21882SOL     OW63640   2.652   3.111   0.978  0.0174  0.3628 -0.0016
21882SOL    HW163641   2.561   3.076   0.999  0.2299  0.5122  1.2489
21882SOL    HW263642   2.717   3.034   0.977 -0.3246  0.0793 -2.1941
21884SOL     OW63643   3.105   1.735   0.816 -0.3006 -0.0212  0.2979
21884SOL    HW163644   3.050   1.815   0.791 -1.5945 -0.6565  1.0800
21884SOL    HW263645   3.105   1.725   0.916 -0.2583 -1.0813  0.1888
21885SOL     OW63646   6.025   1.551   3.974 -0.2652 -0.0192 -0.1625
21885SOL    HW163647   6.072   1.553   4.062  0.9179  0.3067 -0.7897
21885SOL    HW263648   5.952   1.484   3.977 -1.4389  1.2985  1.6622
21886SOL     OW63649   3.447   7.126   5.458  0.5022  0.0760 -0.0372
21886SOL    HW163650   3.408   7.209   5.419 -1.5347 -0.3638  1.0154
21886SOL    HW263651   3.475   7.064   5.384 -0.2168  0.6566 -0.8041
21887SOL     OW63652   5.808   8.955   6.255  0.9285 -0.2473 -0.1745
21887SOL    HW163653   5.776   8.877   6.201 -1.3610 -0.6728  1.6908
21887SOL    HW263654   5.774   9.040   6.214 -0.5489 -0.5489  0.3606
21888SOL     OW63655   9.903   7.462   3.178  0.5778 -0.3110 -0.0834
21888SOL    HW163656   9.826   7.407   3.148  1.1924  0.1273 -2.5539
21888SOL    HW263657   9.963   7.407   3.236 -1.4498 -0.7060  1.7018
21889SOL     OW63658   9.380   0.931   3.023 -0.3852  0.3215 -0.4297
21889SOL    HW163659   9.315   0.933   2.946 -1.3856  0.2766  0.4000
21889SOL    HW263660   9.366   1.011   3.081 -0.9533 -0.6252  0.7667
21890SOL     OW63661   1.882   5.793   1.931 -0.6385 -0.4238 -0.0489
21890SOL    HW163662   1.970   5.841   1.925 -0.4319 -0.9976 -1.8030
21890SOL    HW263663   1.807   5.859   1.930 -0.4185 -0.1264 -3.7798
21891SOL     OW63664   1.615   5.188   6.022 -0.2469  0.2714 -0.2956
21891SOL    HW163665   1.546   5.175   5.951  0.0601 -1.9664 -0.2125
21891SOL    HW263666   1.583   5.148   6.108 -0.5856  2.8920  0.8457
21892SOL     OW63667   9.582   5.070   4.626  1.1109 -0.4305  0.2573
21892SOL    HW163668   9.556   5.001   4.693  0.6460 -0.0186  0.5046
21892SOL    HW263669   9.537   5.157   4.649  1.1672 -0.2207 -0.4267
21893SOL     OW63670   3.950   6.999   1.093  0.7548  0.4530 -0.0467
21893SOL    HW163671   4.011   6.960   1.163  1.0497  0.7269 -0.1471
21893SOL    HW263672   3.962   6.950   1.008 -0.4013 -0.5884  0.3800
21894SOL     OW63673   9.090   0.439   0.692  0.5935 -0.7763 -0.6173
21894SOL    HW163674   9.004   0.404   0.656 -0.3502 -0.7011  1.4610
21894SOL    HW263675   9.089   0.539   0.692  0.3930 -0.7726  0.0134
21897SOL     OW63676   7.501   3.067   1.413 -0.3955  0.3466  0.4134
21897SOL    HW163677   7.405   3.080   1.388 -0.4993  1.3229  1.2945
21897SOL    HW263678   7.559   3.125   1.356 -0.1305 -1.7773 -1.5586
21899SOL     OW63679   1.601   3.104   2.971  0.0170  0.1216 -0.5166
21899SOL    HW163680   1.621   3.049   3.052 -1.5659 -1.8062 -1.3865
21899SOL    HW263681   1.504   3.128   2.970 -0.0862 -0.3030 -2.0800
21901SOL     OW63682   8.669   8.527   6.285  0.0176  0.1448  0.0482
21901SOL    HW163683   8.717   8.510   6.371 -1.1957  1.5480  1.0259
21901SOL    HW263684   8.719   8.594   6.231 -0.5568  1.2079  0.8268
21902SOL     OW63685   8.317   9.574   2.241  0.1334  0.7257  0.0871
21902SOL    HW163686   8.359   9.622   2.164  2.2293  1.1674  1.4969
21902SOL    HW263687   8.273   9.640   2.302 -0.9673  0.4262 -0.3518
21905SOL     OW63688   0.784   1.737   2.819 -0.6921 -0.0929 -0.1341
21905SOL    HW163689   0.816   1.831   2.837 -1.8435  0.8727 -2.8611
21905SOL    HW263690   0.832   1.701   2.739 -1.0676 -1.4502  0.2445
21906SOL     OW63691   5.488   2.168   4.941 -0.4599  0.1911 -0.3207
21906SOL    HW163692   5.489   2.228   4.861  0.3478  1.4723  0.6570
21906SOL    HW263693   5.397   2.171   4.983 -1.0659 -0.9173 -1.4879
21907SOL     OW63694   2.633   2.633   5.568  0.1868  0.1683 -0.2426
21907SOL    HW163695   2.617   2.553   5.624 -1.1264 -0.5125 -1.5588
21907SOL    HW263696   2.697   2.695   5.615 -0.3285 -0.7037  1.6401
21909SOL     OW63697   8.413   0.304   1.049  0.2783 -0.1657 -0.0346
21909SOL    HW163698   8.355   0.317   0.969 -0.3384 -1.7725  0.1225
21909SOL    HW263699   8.439   0.393   1.087 -1.9161  0.6009 -0.2430
21910SOL     OW63700   0.647   3.685   2.517 -0.0133  0.5913 -0.3249
21910SOL    HW163701   0.547   3.679   2.511 -0.1196 -0.2054  1.8195
21910SOL    HW263702   0.688   3.621   2.452 -0.9059  0.4151 -0.7216
21911SOL     OW63703   1.198   4.712   4.270 -0.2247  0.1754  0.4001
21911SOL    HW163704   1.130   4.733   4.201  0.7564  0.6450 -0.4261
21911SOL    HW263705   1.167   4.746   4.359 -2.1333 -1.6781  0.4795
21912SOL     OW63706   7.041   7.537   3.636 -0.2782  0.2206 -0.5950
21912SOL    HW163707   7.003   7.515   3.725 -0.1408  0.1733 -0.5464
21912SOL    HW263708   6.977   7.594   3.584 -0.8302 -0.6625 -0.8914
21913SOL     OW63709   7.841   1.685   2.310 -0.6358 -0.1692 -0.5584
21913SOL    HW163710   7.858   1.726   2.399 -0.3448  3.1980 -2.0811
21913SOL    HW263711   7.919   1.629   2.283  0.4688  1.0463  0.0885
21914SOL     OW63712   1.101   3.208   3.926  0.9881  0.4554 -0.8242
21914SOL    HW163713   1.136   3.119   3.898 -1.0330 -0.8758  0.7354
21914SOL    HW263714   1.139   3.232   4.016  0.8521  0.7763 -0.8522
21915SOL     OW63715   6.755   2.333   1.409  0.5747  0.5241  0.1826
21915SOL    HW163716   6.784   2.258   1.469 -2.3943 -1.5634 -0.9037
21915SOL    HW263717   6.659   2.355   1.426  0.1164  0.9615 -2.6999
21917SOL     OW63718   7.462   4.218   1.334  0.0382 -0.0466  0.3964
21917SOL    HW163719   7.370   4.248   1.308  0.2620  0.5707  0.3059
21917SOL    HW263720   7.471   4.221   1.434  0.6186  1.8753  0.3072
21918SOL     OW63721   7.471   5.246   0.813  0.4526  0.0326  0.0429
21918SOL    HW163722   7.526   5.167   0.785 -0.1143 -0.3227 -0.0823
21918SOL    HW263723   7.425   5.284   0.732  0.4274  0.2550  0.1634
21919SOL     OW63724   7.160   1.147   3.414  0.0703  0.1449  0.0067
21919SOL    HW163725   7.214   1.113   3.491  0.8343  0.1234 -0.5331
21919SOL    HW263726   7.192   1.104   3.329 -0.0594  0.9551 -0.4597
21920SOL     OW63727   9.005   9.846   6.448  0.6363  0.1889 -0.1942
21920SOL    HW163728   9.096   9.806   6.436 -0.2731 -1.5370 -1.5615
21920SOL    HW263729   9.009   9.944   6.428  1.9470 -0.1001 -1.4405
21921SOL     OW63730   3.787   2.202   3.753 -0.3677  0.2462  0.3943
21921SOL    HW163731   3.709   2.233   3.806  0.9835 -0.1801  2.7013
21921SOL    HW263732   3.861   2.268   3.759  0.2343 -0.3752  0.0218
21922SOL     OW63733   6.252   1.629   2.779  0.1884 -0.3128  0.3457
21922SOL    HW163734   6.174   1.658   2.724  0.1050 -1.5810 -0.2379
21922SOL    HW263735   6.223   1.617   2.874 -0.4097 -1.1009  0.0689
21923SOL     OW63736   2.917   9.443   4.336 -0.2829 -0.3388  0.7306
21923SOL    HW163737   2.917   9.379   4.260  0.3876  2.8248 -2.0559
21923SOL    HW263738   3.007   9.485   4.345 -1.0203  1.0841  1.7339
21924SOL     OW63739   0.078   9.813   5.290  0.5914  0.3975 -0.2366
21924SOL    HW163740   0.046   9.785   5.199 -0.2893  1.6336 -0.3130
21924SOL    HW263741   0.178   9.813   5.291  0.6218 -1.4860 -0.6176
21927SOL     OW63742   8.772   6.247   5.931 -0.1590  0.0320 -0.2979
21927SOL    HW163743   8.709   6.211   5.862  0.6700  1.1869 -1.6895
21927SOL    HW263744   8.745   6.340   5.955  0.2670  0.0697  0.0287
21928SOL     OW63745   5.514   6.193   1.164  0.0601 -0.1492 -0.1097
21928SOL    HW163746   5.484   6.151   1.249 -0.6259  0.0916 -0.2283
21928SOL    HW263747   5.434   6.225   1.113  0.4018 -1.0426 -1.2314
21929SOL     OW63748   6.931   5.141   1.435 -0.6218 -0.0410  0.7096
21929SOL    HW163749   6.883   5.228   1.442 -2.0543 -0.9145  2.0605
21929SOL    HW263750   6.932   5.096   1.524  0.4981 -1.2049  0.1289
21930SOL     OW63751   2.174   9.538   3.275  0.4660 -0.1410  0.3907
21930SOL    HW163752   2.239   9.474   3.316 -1.2447 -1.7565  0.6645
21930SOL    HW263753   2.150   9.608   3.343  0.7217 -0.4553  0.8111
21931SOL     OW63754   2.742   5.911   5.530  0.1636 -0.1049 -1.0164
21931SOL    HW163755   2.694   5.899   5.442 -0.3546  1.1623 -0.9321
21931SOL    HW263756   2.781   6.003   5.533  0.3378 -0.2119  0.0131
21932SOL     OW63757   2.716   4.376   4.613 -0.2545 -0.1340  0.3269
21932SOL    HW163758   2.698   4.325   4.528 -1.3753  1.3476 -0.3582
21932SOL    HW263759   2.699   4.473   4.597 -1.1280  0.0774  2.4573
21934SOL     OW63760   5.798   4.017   0.984  0.1773  0.0637  0.4071
21934SOL    HW163761   5.757   4.033   0.894  0.0788 -0.3686  0.3711
21934SOL    HW263762   5.809   3.918   0.998  1.6600  0.1987  0.2151
21935SOL     OW63763   9.747   0.451   5.053 -0.0182 -0.1346  0.0960
21935SOL    HW163764   9.819   0.400   5.099  0.5034 -0.7200 -1.3320
21935SOL    HW263765   9.713   0.398   4.976 -0.9457  0.7750 -0.1328
21936SOL     OW63766   3.769   3.214   4.413 -0.0686  0.3066  0.1981
21936SOL    HW163767   3.762   3.194   4.510 -0.5723  0.5853  0.2257
21936SOL    HW263768   3.808   3.136   4.365 -1.6570 -0.6126  0.3526
21937SOL     OW63769   8.602   2.700   2.817 -0.0629 -0.1556  0.1023
21937SOL    HW163770   8.583   2.676   2.912  0.7348 -2.8274 -0.3713
21937SOL    HW263771   8.692   2.741   2.810  0.3057 -0.8999  0.3860
21938SOL     OW63772   5.232   9.453   3.815  0.0925  0.3453 -0.0317
21938SOL    HW163773   5.197   9.458   3.909  1.3133  0.6813  0.4038
21938SOL    HW263774   5.210   9.538   3.768 -0.8685  0.0221 -0.1765
21939SOL     OW63775   8.851   8.715   2.104 -0.3216  0.8620  0.0573
21939SOL    HW163776   8.909   8.793   2.126 -0.6001  1.3190 -0.8206
21939SOL    HW263777   8.823   8.670   2.189  0.1542  1.4787  0.5504
21940SOL     OW63778   7.389   0.409   5.669 -0.1160  0.4991  0.1756
21940SOL    HW163779   7.335   0.468   5.729  0.7312  0.5334  0.9114
21940SOL    HW263780   7.484   0.408   5.700  0.5224  1.2232 -1.7028
21941SOL     OW63781   9.439   1.219   2.835  0.2905 -0.0233  0.3471
21941SOL    HW163782   9.351   1.188   2.799 -0.3250  0.4151  1.4444
21941SOL    HW263783   9.489   1.141   2.873  0.0722 -0.1558  0.3598
21942SOL     OW63784   1.719   0.784   3.491  0.1608 -0.0121  0.2157
21942SOL    HW163785   1.669   0.709   3.447 -0.9187  0.8615 -0.0812
21942SOL    HW263786   1.656   0.837   3.548  0.9455  0.5805  0.5343
21943SOL     OW63787   8.263   8.744   6.130 -0.4456 -0.2076 -0.0263
21943SOL    HW163788   8.210   8.806   6.188 -0.3276  0.5674 -0.7278
21943SOL    HW263789   8.360   8.748   6.156 -0.3246  0.4837 -0.5629
21944SOL     OW63790   1.068   1.820   1.691 -0.2528 -0.0661  0.3178
21944SOL    HW163791   1.124   1.813   1.773  0.1763 -0.9347 -0.0480
21944SOL    HW263792   1.004   1.896   1.701  0.9206  0.8664  0.7710
21945SOL     OW63793   4.212   5.674   3.874  0.2339  0.1459 -0.2364
21945SOL    HW163794   4.172   5.762   3.848 -1.2996 -0.3412  0.4110
21945SOL    HW263795   4.287   5.652   3.813 -0.3602  1.1891 -1.3556
21946SOL     OW63796   2.112   5.808   6.084 -0.5022 -0.0607  0.8102
21946SOL    HW163797   2.078   5.737   6.022  0.1127  1.5616 -1.4860
21946SOL    HW263798   2.051   5.816   6.162 -1.1491 -2.3872  0.5955
21947SOL     OW63799   4.026   5.419   2.740 -0.2211 -0.3509 -0.3132
21947SOL    HW163800   4.081   5.460   2.813  0.6916 -0.3015 -1.0075
21947SOL    HW263801   4.025   5.320   2.750 -1.9873 -0.1958  1.0650
21948SOL     OW63802   2.157   7.235   3.349 -0.2903  0.0122  0.1904
21948SOL    HW163803   2.132   7.202   3.440 -2.0364  0.9698  0.0866
21948SOL    HW263804   2.234   7.299   3.356 -1.2759  1.1193  1.1692
21949SOL     OW63805   3.383   9.441   4.202  0.2867  0.1762 -0.1781
21949SOL    HW163806   3.424   9.350   4.210  0.5749  0.2878 -0.3783
21949SOL    HW263807   3.434   9.494   4.134  0.3669  0.6233  0.2281
21950SOL     OW63808   1.664   8.461   1.890 -0.2217 -0.0788 -0.2509
21950SOL    HW163809   1.638   8.486   1.796 -0.8293  0.4229  0.0469
21950SOL    HW263810   1.685   8.363   1.893 -1.1280 -0.2957 -0.7175
21951SOL     OW63811   6.540   3.874   0.317  0.5571  0.0702  0.3037
21951SOL    HW163812   6.489   3.946   0.272  2.0160  1.4523  0.8084
21951SOL    HW263813   6.510   3.866   0.412  1.7101  1.3295  0.7849
21953SOL     OW63814   3.948   2.791   6.408 -0.2549 -0.2925  0.6214
21953SOL    HW163815   3.985   2.859   6.344  0.1916 -1.2157 -0.1276
21953SOL    HW263816   4.021   2.731   6.439 -0.7813 -0.9307  0.6470
21955SOL     OW63817   5.464   3.251   4.217 -0.2085  0.2013  0.6518
21955SOL    HW163818   5.389   3.225   4.156  1.8908 -2.1009 -1.0496
21955SOL    HW263819   5.459   3.197   4.301 -1.3993  1.2636  1.2812
21956SOL     OW63820   2.425   2.990   0.441 -0.9161 -0.4055 -0.1007
21956SOL    HW163821   2.363   2.934   0.386 -0.3219 -0.7357 -0.4309
21956SOL    HW263822   2.519   2.960   0.428 -0.3533  1.9164 -1.7972
21957SOL     OW63823   2.263   4.091   0.125 -0.1963 -0.3955  0.7981
21957SOL    HW163824   2.192   4.056   0.063 -1.7739 -0.2977  2.4930
21957SOL    HW263825   2.220   4.146   0.196  1.9888  2.8761 -0.3080
21959SOL     OW63826   9.153   1.144   0.978 -0.3727 -0.5923  0.7466
21959SOL    HW163827   9.097   1.063   0.962 -0.7357 -0.6210  2.1100
21959SOL    HW263828   9.232   1.143   0.917 -2.1095 -0.2881 -1.5776
21960SOL     OW63829   2.472   7.989   3.944 -0.5985  0.4790  0.0374
21960SOL    HW163830   2.508   7.961   4.033  1.4588  0.9025 -0.6427
21960SOL    HW263831   2.455   8.088   3.944 -0.2614  0.5400 -0.1351
21961SOL     OW63832   4.545   1.092   2.750 -0.3555  0.0906 -0.3946
21961SOL    HW163833   4.503   1.002   2.736  1.9588 -1.3723  1.6531
21961SOL    HW263834   4.499   1.138   2.826 -1.3989  0.5686 -1.3015
21962SOL     OW63835   0.367   0.164   0.339 -0.0232  0.3642  0.5113
21962SOL    HW163836   0.290   0.146   0.278  1.1869 -1.0721 -0.6071
21962SOL    HW263837   0.431   0.226   0.295 -0.4783  1.5062  1.4176
21963SOL     OW63838   4.266   0.415   2.368 -0.3573  0.1104  0.0184
21963SOL    HW163839   4.168   0.433   2.359 -0.2533  0.5719 -0.1677
21963SOL    HW263840   4.287   0.326   2.328 -0.6058  0.2644 -0.4462
21964SOL     OW63841   8.740   0.664   3.016  0.0602  0.4257 -0.2114
21964SOL    HW163842   8.776   0.581   2.973  0.7858  0.6312  0.0009
21964SOL    HW263843   8.810   0.735   3.016  0.4659  0.0714  2.3196
21965SOL     OW63844   4.784   6.173   0.420  0.3148  0.3841 -0.0020
21965SOL    HW163845   4.771   6.268   0.392  2.5878  0.5102 -0.7301
21965SOL    HW263846   4.795   6.115   0.339  0.4196 -0.2694  0.4747
21966SOL     OW63847   0.466   7.698   4.471 -0.0019 -0.1386 -0.2401
21966SOL    HW163848   0.529   7.766   4.507  1.0240 -0.2332 -1.8333
21966SOL    HW263849   0.398   7.675   4.541  0.2919  1.7105  0.6685
21967SOL     OW63850   7.929   2.321   3.512  0.0272 -0.2541 -0.1667
21967SOL    HW163851   7.994   2.377   3.461 -0.9666 -0.1668 -1.3472
21967SOL    HW263852   7.923   2.230   3.471  0.5961 -0.7801  0.9065
21968SOL     OW63853   0.977   5.725   3.956 -0.0689 -0.2224 -0.6712
21968SOL    HW163854   1.070   5.732   3.921  0.5996  0.3110  1.1723
21968SOL    HW263855   0.942   5.632   3.941  1.2729 -0.8290 -0.1443
21969SOL     OW63856   2.118   1.157   3.303 -1.1337 -0.4441  0.1436
21969SOL    HW163857   2.070   1.069   3.300 -1.7105 -0.1761  1.3052
21969SOL    HW263858   2.074   1.217   3.370  0.2942  0.1237  0.6002
21970SOL     OW63859   7.335   1.622   3.350 -0.0007 -0.0146  0.2181
21970SOL    HW163860   7.347   1.565   3.431  2.0573 -0.8262 -0.6158
21970SOL    HW263861   7.292   1.569   3.277  2.6481 -0.8001 -0.8251
21972SOL     OW63862   0.332   9.385   4.077  0.0674 -0.2977 -0.1659
21972SOL    HW163863   0.270   9.388   3.999 -0.2538 -1.7718  0.0126
21972SOL    HW263864   0.297   9.321   4.145  0.9642  0.0693  0.6548
21973SOL     OW63865   0.114   5.648   5.637 -0.2995 -0.3862  0.2654
21973SOL    HW163866   0.197   5.635   5.692 -0.6141 -1.2457  0.5474
21973SOL    HW263867   0.062   5.563   5.635 -1.9272  0.5445  1.3278
21974SOL     OW63868   9.658   2.051   6.130 -0.1095 -0.2471 -0.0661
21974SOL    HW163869   9.571   2.099   6.129 -0.8781 -1.5844 -3.1199
21974SOL    HW263870   9.726   2.102   6.077  0.0296 -0.7910 -0.4222
21975SOL     OW63871   9.058   3.147   3.065 -0.3358  0.5939 -0.7453
21975SOL    HW163872   8.996   3.212   3.021 -0.8932 -0.7228 -1.9780
21975SOL    HW263873   9.069   3.067   3.005  0.7463 -0.2005  0.4968
21977SOL     OW63874   6.440   7.536   4.643  0.1255 -0.2738  0.4473
21977SOL    HW163875   6.430   7.504   4.738 -1.0838 -0.9238  0.1175
21977SOL    HW263876   6.351   7.569   4.610  1.0726  2.3230  0.3654
21978SOL     OW63877   0.137   2.230   1.821  0.0938 -0.2837 -0.0722
21978SOL    HW163878   0.092   2.317   1.806  0.7643 -0.0800 -0.9417
21978SOL    HW263879   0.123   2.170   1.743  1.1326 -0.2925 -0.2680
21979SOL     OW63880   9.251   7.801   5.972  0.0424  0.2636 -0.0149
21979SOL    HW163881   9.327   7.785   6.035 -0.3192  0.7397  0.5475
21979SOL    HW263882   9.262   7.890   5.928  0.1061  0.0883 -0.3527
21980SOL     OW63883   8.999   0.249   5.106  0.0007 -0.2722 -0.1254
21980SOL    HW163884   9.002   0.335   5.055  0.4269  0.0475  0.4310
21980SOL    HW263885   9.056   0.257   5.188  0.2902 -1.1871 -0.2286
21981SOL     OW63886   1.630   2.721   3.445  0.1316 -0.3468 -0.1727
21981SOL    HW163887   1.725   2.718   3.416  0.4214  1.2062  0.5987
21981SOL    HW263888   1.614   2.802   3.500 -1.4848 -0.9415  0.2689
21982SOL     OW63889   3.190   8.338   4.271 -0.5666  0.4468  0.5338
21982SOL    HW163890   3.211   8.433   4.296 -0.6786  0.9482 -1.2265
21982SOL    HW263891   3.120   8.302   4.333 -1.0575  1.7460  0.7432
21983SOL     OW63892   8.291   2.144   5.242 -0.1560 -0.2032 -0.6886
21983SOL    HW163893   8.206   2.194   5.224  0.0584  0.2825 -0.3459
21983SOL    HW263894   8.281   2.050   5.209 -1.3577 -0.5734  0.6730
21984SOL     OW63895   4.226   2.603   6.385 -0.1047 -0.3714 -0.3943
21984SOL    HW163896   4.315   2.560   6.372 -0.4517 -1.6577  1.2959
21984SOL    HW263897   4.230   2.668   6.461 -0.5021 -0.1482 -0.5594
21986SOL     OW63898   1.337   9.424   5.774 -0.4432 -0.2262  0.0559
21986SOL    HW163899   1.371   9.373   5.695 -0.4579  0.7585 -0.6070
21986SOL    HW263900   1.412   9.472   5.818 -0.2931 -1.4607  1.1752
21987SOL     OW63901   1.493   7.017   0.761  0.2260 -0.2592  0.0678
21987SOL    HW163902   1.408   6.969   0.737 -0.3084  0.8403 -0.2961
21987SOL    HW263903   1.495   7.034   0.860 -0.5507  0.7395 -0.0721
21988SOL     OW63904   2.080   9.069   4.799 -0.6540 -0.1781  0.4708
21988SOL    HW163905   2.006   9.036   4.856 -0.5669 -0.0619  0.6540
21988SOL    HW263906   2.114   9.156   4.836  0.2718 -0.7482  0.9988
21989SOL     OW63907   5.819   1.578   2.298 -0.6216 -0.4834 -0.4977
21989SOL    HW163908   5.739   1.586   2.357 -1.1977 -0.9295 -1.2045
21989SOL    HW263909   5.829   1.483   2.269  0.4042 -0.5127 -0.0940
21990SOL     OW63910   4.613   8.182   2.352  0.4953 -0.6854 -0.1541
21990SOL    HW163911   4.704   8.222   2.368 -0.0341  0.7061 -0.5651
21990SOL    HW263912   4.580   8.209   2.262 -1.0307  0.2075  0.6532
21991SOL     OW63913   8.355   9.277   3.272 -0.8111  0.4356 -0.3476
21991SOL    HW163914   8.411   9.335   3.212 -0.3933  0.0467 -0.3335
21991SOL    HW263915   8.261   9.275   3.238 -0.6371  0.4321 -0.8362
21992SOL     OW63916   3.973   4.058   4.420 -0.1398 -0.1628  0.0032
21992SOL    HW163917   4.012   4.077   4.330 -1.2603  0.2449 -0.4005
21992SOL    HW263918   4.008   3.970   4.454  1.1684  0.2335 -0.3217
21993SOL     OW63919   1.410   8.630   1.810 -0.2542  0.6345  0.0848
21993SOL    HW163920   1.405   8.711   1.869  0.6233  1.4466 -0.9388
21993SOL    HW263921   1.372   8.651   1.720  0.3978  0.0564 -0.3365
21994SOL     OW63922   1.175   9.405   3.023 -0.3547  0.0733  0.4542
21994SOL    HW163923   1.141   9.312   3.042  2.1605 -1.2492 -1.2376
21994SOL    HW263924   1.232   9.435   3.099  0.6177 -0.6707  0.0262
21996SOL     OW63925   0.901   0.305   0.477  0.5198 -0.3629  0.2620
21996SOL    HW163926   0.906   0.293   0.378  1.3201 -0.7360  0.3434
21996SOL    HW263927   0.974   0.253   0.520 -0.3704 -0.9216  1.1126
21997SOL     OW63928   9.491   3.449   3.502 -0.1151 -0.3569 -0.1970
21997SOL    HW163929   9.499   3.415   3.409  1.0674  2.0313 -1.0085
21997SOL    HW263930   9.554   3.399   3.562  2.7931  1.3587 -1.6849
21998SOL     OW63931   2.873   8.935   2.611 -0.0005  0.4531 -0.0142
21998SOL    HW163932   2.797   8.968   2.667  0.2189 -0.6691  0.9662
21998SOL    HW263933   2.947   8.903   2.670 -0.4288 -2.2973 -0.8803
21999SOL     OW63934   1.042   6.456   4.838 -0.6207 -0.3269  0.3455
21999SOL    HW163935   1.005   6.538   4.882  1.2715  0.5602  0.3597
21999SOL    HW263936   1.130   6.433   4.879 -0.6240 -1.7421 -0.3994
22000SOL     OW63937   9.005   2.564   6.261  0.3660 -0.4579 -0.7581
22000SOL    HW163938   9.052   2.492   6.209  0.5608 -0.9993  0.1497
22000SOL    HW263939   8.912   2.535   6.281  0.4547 -0.4785 -0.3650
22001SOL     OW63940   6.254   1.802   1.428 -0.2766 -0.1508  1.3583
22001SOL    HW163941   6.170   1.769   1.472 -0.0814  1.8491  3.2771
22001SOL    HW263942   6.314   1.724   1.409 -2.1065 -1.4841  0.9240
22003SOL     OW63943   9.002   0.738   5.754  0.5117  0.5071 -0.6083
22003SOL    HW163944   8.974   0.657   5.807  1.9219 -0.7429 -1.7331
22003SOL    HW263945   9.049   0.802   5.814 -0.5971  0.5008  0.2939
22005SOL     OW63946   8.347   7.596   1.293  0.2669 -0.3568 -0.4781
22005SOL    HW163947   8.442   7.624   1.282  0.4704 -1.5783 -1.9634
22005SOL    HW263948   8.309   7.570   1.204 -0.2866 -3.5361  0.6309
22006SOL     OW63949   5.238   1.425   3.791 -0.5031  0.6185 -0.0776
22006SOL    HW163950   5.239   1.352   3.722 -0.4688  0.0511  0.5119
22006SOL    HW263951   5.326   1.426   3.839 -0.8513  0.3885  0.5867
22007SOL     OW63952   4.376   8.900   3.900 -0.2220  0.1658 -0.1058
22007SOL    HW163953   4.409   8.969   3.965  1.0840 -0.2951 -0.2607
22007SOL    HW263954   4.296   8.936   3.851  1.5495  2.2919 -1.5279
22008SOL     OW63955   9.956   7.326   0.867  0.0824 -0.3918  0.2616
22008SOL    HW163956   9.897   7.364   0.939  1.4890  2.8371 -0.1956
22008SOL    HW263957  10.016   7.256   0.907 -2.1607 -1.8044  1.2614
22010SOL     OW63958   4.363   1.760   5.115  0.0306  0.0183 -0.0918
22010SOL    HW163959   4.451   1.797   5.084 -0.5519  1.7009  0.2222
22010SOL    HW263960   4.377   1.707   5.199  0.7344  0.3624  0.0113
22011SOL     OW63961   4.438   9.089   2.840  0.3719 -0.2838  0.0499
22011SOL    HW163962   4.365   9.028   2.871  1.5563 -1.5993  0.3275
22011SOL    HW263963   4.509   9.094   2.910  0.7547  0.6321 -0.4004
22012SOL     OW63964   5.221   5.554   2.598  0.1570  0.1658  0.3618
22012SOL    HW163965   5.222   5.583   2.694  1.0576 -0.1155  0.4371
22012SOL    HW263966   5.127   5.536   2.570 -0.0860  0.0181  1.2617
22013SOL     OW63967   3.984   0.022   1.731 -0.3884 -0.4916 -0.3695
22013SOL    HW163968   3.913  -0.032   1.686 -1.4703  0.0512  0.6774
22013SOL    HW263969   3.962   0.034   1.827  0.5784  0.5709 -0.2621
22014SOL     OW63970   9.882   6.207   5.391  0.1400 -0.5046 -0.6297
22014SOL    HW163971   9.822   6.196   5.470  0.6229 -1.1392 -0.3435
22014SOL    HW263972   9.895   6.119   5.347  1.9609 -0.6389  0.1251
22015SOL     OW63973   4.009   4.784   1.717 -0.9142  0.1775 -0.2525
22015SOL    HW163974   3.973   4.877   1.719  0.5003  0.7312 -0.0186
22015SOL    HW263975   4.109   4.787   1.723 -0.9150 -1.3935  0.8803
22016SOL     OW63976   9.688   0.133   3.682 -0.2466 -0.3145 -0.8814
22016SOL    HW163977   9.736   0.115   3.597  0.8313 -0.9491 -0.1561
22016SOL    HW263978   9.649   0.048   3.717 -1.0749  0.0264 -0.9773
22017SOL     OW63979   0.894   6.915   1.848 -0.2535 -0.1059  0.2000
22017SOL    HW163980   0.827   6.980   1.810  0.1333  0.4019  0.3828
22017SOL    HW263981   0.900   6.927   1.947 -1.4525 -1.6129  0.4662
22018SOL     OW63982   2.099   8.385   5.843 -0.1857  0.3376 -0.4469
22018SOL    HW163983   2.086   8.466   5.786 -0.1411  0.4996 -0.2262
22018SOL    HW263984   2.012   8.359   5.884 -0.3749 -0.2193 -1.1748
22020SOL     OW63985   6.810   1.622   4.484 -0.7305  0.3930 -0.3380
22020SOL    HW163986   6.834   1.711   4.447 -2.0509  0.3894 -1.2309
22020SOL    HW263987   6.812   1.554   4.411 -0.6150 -0.1444  0.1599
22021SOL     OW63988   8.071   6.264   0.191 -0.5892  0.6454  0.4657
22021SOL    HW163989   8.170   6.251   0.185 -0.8815 -1.5512  0.0342
22021SOL    HW263990   8.048   6.299   0.281  0.4840  0.1453  0.9467
22022SOL     OW63991   2.086   1.975   1.093 -0.0867 -0.2141 -0.2585
22022SOL    HW163992   2.023   1.921   1.149  0.1602  0.1536  0.3720
22022SOL    HW263993   2.047   2.064   1.074 -1.3715 -1.2949 -2.9696
22023SOL     OW63994   7.505   2.866   6.309  0.1556 -0.3323 -0.0114
22023SOL    HW163995   7.527   2.927   6.232 -1.1812 -1.1461 -1.0746
22023SOL    HW263996   7.472   2.920   6.386  0.1054  0.3919 -0.5340
22024SOL     OW63997   8.930   6.762   3.398 -0.0111 -0.1288  0.0118
22024SOL    HW163998   8.995   6.810   3.339  3.4670  0.1873  3.8303
22024SOL    HW263999   8.881   6.829   3.454 -0.4575 -0.6102  0.1909
22025SOL     OW64000   8.532   0.586   2.776  0.2120 -0.4876 -0.3093
22025SOL    HW164001   8.610   0.526   2.791  0.4202 -0.5762 -1.6544
22025SOL    HW264002   8.562   0.681   2.776 -0.2415 -0.3034  2.6249
22026SOL     OW64003   9.886   7.113   5.426  0.0885 -0.2274 -0.1693
22026SOL    HW164004   9.842   7.183   5.369 -0.4929  0.6295  1.2954
22026SOL    HW264005   9.921   7.040   5.368 -0.8194  0.4432 -1.5947
22028SOL     OW64006   4.047   7.601   4.242  0.1245  0.0500 -0.5875
22028SOL    HW164007   3.991   7.677   4.208 -0.3949  0.4561  1.1697
22028SOL    HW264008   4.140   7.634   4.259 -0.4444  0.6284  1.4604
22029SOL     OW64009   7.971   0.952   1.613  0.0191  0.2426 -0.0170
22029SOL    HW164010   7.971   0.892   1.533 -0.5360 -0.6105  0.6174
22029SOL    HW264011   8.060   0.946   1.659 -0.1470 -0.3341  0.2266
22030SOL     OW64012   6.637   2.166   2.267  0.2451 -0.3772  0.5986
22030SOL    HW164013   6.687   2.246   2.303 -0.5891 -0.3437  1.7110
22030SOL    HW264014   6.609   2.184   2.173 -0.6399  0.9785  1.1072
22032SOL     OW64015   4.624   3.722   5.201  0.9985 -0.5032  0.3821
22032SOL    HW164016   4.644   3.781   5.279  2.1378 -1.5493  0.8875
22032SOL    HW264017   4.706   3.710   5.145 -0.3405  2.0957 -2.3104
22034SOL     OW64018   9.994   7.689   1.705  0.5898 -0.8330  0.2144
22034SOL    HW164019  10.043   7.772   1.679  1.6959 -1.0472  1.5877
22034SOL    HW264020  10.040   7.645   1.781 -2.7972 -0.0162  2.8910
22036SOL     OW64021   5.202   3.091   4.912 -0.3942 -0.2041 -0.3618
22036SOL    HW164022   5.180   3.071   5.008 -0.5302 -2.0846 -0.7782
22036SOL    HW264023   5.132   3.153   4.875 -2.4389 -2.3935 -0.2992
22038SOL     OW64024   7.836   7.966   4.046 -0.5687  0.0680  0.0811
22038SOL    HW164025   7.917   8.002   4.000 -1.1504  0.4584 -0.6373
22038SOL    HW264026   7.830   7.867   4.030  0.4209 -0.1814  1.1432
22039SOL     OW64027   0.864   3.338   1.596  0.3266 -0.1185 -0.1086
22039SOL    HW164028   0.790   3.378   1.651 -0.1868 -0.1895 -0.7325
22039SOL    HW264029   0.878   3.395   1.514  1.8511  0.6209  0.6489
22040SOL     OW64030   4.662   6.531   2.933  0.2346  0.0097  0.2411
22040SOL    HW164031   4.707   6.621   2.929 -0.1641  0.1550 -1.4080
22040SOL    HW264032   4.717   6.465   2.883 -1.2564  0.1342 -1.6042
22041SOL     OW64033   8.312   1.409   2.903 -0.1677  0.5783  0.0311
22041SOL    HW164034   8.386   1.439   2.843 -0.6151  0.5776 -0.5250
22041SOL    HW264035   8.233   1.381   2.848  0.2061 -1.5473  0.5415
22042SOL     OW64036   3.280   2.117   4.441 -0.3274  0.6644 -0.1463
22042SOL    HW164037   3.210   2.115   4.512 -0.6199 -0.3135 -0.4504
22042SOL    HW264038   3.244   2.074   4.358  0.8692 -0.4769 -0.0796
22043SOL     OW64039   8.314   8.725   4.855 -0.0023  0.0133  0.6272
22043SOL    HW164040   8.368   8.642   4.839  0.7545  0.2457  1.8699
22043SOL    HW264041   8.217   8.701   4.858  0.0682 -0.5064 -0.9894
22044SOL     OW64042   8.808   5.012   6.390  0.3296  0.4528 -0.7693
22044SOL    HW164043   8.787   5.080   6.320  0.2747 -1.8758 -3.0950
22044SOL    HW264044   8.819   4.922   6.347 -1.1163 -1.3101  2.3936
22046SOL     OW64045   0.411   5.274   2.613  0.1183  0.1694 -0.4260
22046SOL    HW164046   0.330   5.280   2.555  0.3044  1.5875 -0.5471
22046SOL    HW264047   0.485   5.229   2.562 -0.5029 -0.9157 -0.3922
22047SOL     OW64048   0.022   9.391   2.507  0.1243  0.2215  0.2709
22047SOL    HW164049   0.121   9.396   2.495  0.4020 -1.2168  1.7767
22047SOL    HW264050  -0.014   9.312   2.457 -0.2718  0.7491 -0.2852
22048SOL     OW64051   5.389   9.580   5.590  0.0751  0.1767 -0.0452
22048SOL    HW164052   5.351   9.493   5.560  1.6126  0.1882 -2.1829
22048SOL    HW264053   5.320   9.652   5.582 -0.0622 -0.1491 -1.9811
22049SOL     OW64054   4.998   2.990   5.836 -0.3014 -0.0758  0.2193
22049SOL    HW164055   4.997   2.981   5.736 -0.2911  0.6324  0.1554
22049SOL    HW264056   4.990   2.900   5.877 -2.5576 -0.1829 -0.4002
22050SOL     OW64057   3.722   0.713   5.064  0.6324 -0.4183 -0.3100
22050SOL    HW164058   3.701   0.750   5.155  1.7108  1.6423 -0.8638
22050SOL    HW264059   3.651   0.743   5.000 -0.1984 -1.9816 -0.1283
22051SOL     OW64060   8.595   0.263   6.043  0.2915  0.0394 -0.3257
22051SOL    HW164061   8.606   0.360   6.022  0.9475  0.0293 -0.0480
22051SOL    HW264062   8.498   0.242   6.052  0.1965  0.9572  0.9582
22053SOL     OW64063   9.804   9.880   4.931  0.1220 -0.2199 -0.0529
22053SOL    HW164064   9.861   9.902   4.852  0.8413  0.3781  0.6309
22053SOL    HW264065   9.859   9.836   5.002 -0.8970 -2.4478 -0.6003
22054SOL     OW64066   8.439   5.351   0.964 -0.8878  0.4371  0.0846
22054SOL    HW164067   8.453   5.370   1.061 -1.4079  2.5547 -0.2301
22054SOL    HW264068   8.371   5.414   0.927 -1.6456 -1.1900 -1.3779
22055SOL     OW64069   1.822   4.130   1.208 -0.1280 -0.8247  0.0971
22055SOL    HW164070   1.847   4.141   1.305 -0.6920 -2.7821  0.4715
22055SOL    HW264071   1.735   4.082   1.201 -1.9870  2.5540 -1.3169
22056SOL     OW64072   9.004   0.200   4.689  0.3404 -0.2071 -0.5477
22056SOL    HW164073   8.912   0.230   4.663  0.7084  1.0640 -0.4158
22056SOL    HW264074   8.998   0.131   4.761 -0.4528  1.0408  0.5978
22057SOL     OW64075   6.508   1.730   6.150 -0.4429 -0.4660  0.6854
22057SOL    HW164076   6.541   1.825   6.155 -1.6188  0.0348 -0.7593
22057SOL    HW264077   6.535   1.690   6.063 -0.6666 -1.2001  0.9497
22058SOL     OW64078   3.720   6.728   2.892  0.2574 -0.7336 -0.3141
22058SOL    HW164079   3.709   6.680   2.979 -1.2030 -0.4737 -0.3343
22058SOL    HW264080   3.812   6.765   2.885  0.6891 -1.5951  0.6962
22059SOL     OW64081   8.875   4.894   2.213 -0.5131 -0.2453 -0.3111
22059SOL    HW164082   8.874   4.885   2.114 -1.6192  1.3202 -0.4475
22059SOL    HW264083   8.951   4.952   2.241  0.6543 -1.8298 -0.1250
22060SOL     OW64084   8.762   2.549   5.973  0.0145  0.1570  0.5963
22060SOL    HW164085   8.842   2.504   6.013  1.2271  0.6527 -1.2022
22060SOL    HW264086   8.706   2.481   5.926  0.3982  0.0756  0.2462
22061SOL     OW64087   2.762   1.596   1.333 -0.1436 -0.7223  0.4085
22061SOL    HW164088   2.732   1.674   1.277 -1.0168 -0.4636  1.2140
22061SOL    HW264089   2.775   1.516   1.275 -0.8797 -0.4108 -0.1960
22062SOL     OW64090   2.211   9.185   3.919  0.1571  0.0689  0.6780
22062SOL    HW164091   2.177   9.091   3.923  0.0413 -0.1537 -3.7058
22062SOL    HW264092   2.309   9.184   3.896  0.0554  1.0278  0.2094
22063SOL     OW64093   7.382   0.865   3.842  0.4184  0.5096  0.5110
22063SOL    HW164094   7.359   0.767   3.841  0.1054  0.5774  0.7931
22063SOL    HW264095   7.363   0.902   3.933  0.0485  0.9472  0.2577
22064SOL     OW64096   0.534   0.948   5.122 -0.0102  0.7039  0.7492
22064SOL    HW164097   0.477   0.894   5.183 -1.4830 -0.6638 -1.7815
22064SOL    HW264098   0.595   0.888   5.071 -0.6803  1.5436 -1.0720
22065SOL     OW64099   2.991   4.425   0.271  0.0081  0.3082 -0.2450
22065SOL    HW164100   2.969   4.502   0.331  0.1421  0.0442  0.1473
22065SOL    HW264101   2.907   4.379   0.243 -0.0206 -0.0035  0.3258
22066SOL     OW64102   0.463   1.152   0.606 -0.0515  0.1154 -0.1452
22066SOL    HW164103   0.541   1.206   0.575  0.7036 -1.1151 -0.4382
22066SOL    HW264104   0.414   1.201   0.677  1.2383  0.7227  0.3362
22067SOL     OW64105   2.780   6.781   1.568  0.1374  0.6309 -0.3318
22067SOL    HW164106   2.732   6.693   1.558 -1.9480  1.5315  1.4057
22067SOL    HW264107   2.875   6.763   1.593 -0.4342 -1.1359  0.6968
22069SOL     OW64108   6.187   1.597   2.266 -0.1816  0.2790 -0.0394
22069SOL    HW164109   6.091   1.592   2.296  0.0278  2.3266  1.0926
22069SOL    HW264110   6.244   1.542   2.326 -0.5225 -0.1106 -0.0748
22070SOL     OW64111   2.573   3.503   5.974  0.2223  0.3741 -0.2994
22070SOL    HW164112   2.571   3.584   6.033 -0.5477  1.0743 -1.2659
22070SOL    HW264113   2.664   3.494   5.933  1.1845 -0.8849  2.0052
22071SOL     OW64114   2.911   4.593   5.002 -0.2075  0.0123 -0.1757
22071SOL    HW164115   2.911   4.585   5.102  1.3786 -1.0022 -0.2266
22071SOL    HW264116   3.005   4.606   4.970 -0.6502 -0.1259 -1.5662
22072SOL     OW64117   6.567   1.365   0.484 -0.5522  0.0859  0.4654
22072SOL    HW164118   6.503   1.427   0.529  0.4344  0.6514  1.0947
22072SOL    HW264119   6.652   1.414   0.463  0.0860 -0.9485  0.6205
22073SOL     OW64120   3.078   5.462   3.304 -0.5419 -0.1824 -0.2282
22073SOL    HW164121   3.021   5.400   3.249 -1.1361 -0.8458  1.1219
22073SOL    HW264122   3.128   5.410   3.372 -1.2416  0.8404  1.0882
22074SOL     OW64123   0.042   3.096   3.489  0.1832  0.2955  0.0370
22074SOL    HW164124   0.025   3.190   3.520  0.9094  0.5438 -0.3016
22074SOL    HW264125   0.135   3.089   3.454 -0.3872 -0.1532 -1.4162
22075SOL     OW64126   1.121   2.183   2.122 -0.0489  0.1792 -0.3948
22075SOL    HW164127   1.091   2.094   2.156  0.2045 -0.1275 -0.9611
22075SOL    HW264128   1.149   2.241   2.199  0.8295 -0.6167 -0.1022
22077SOL     OW64129   1.843   9.229   3.468 -0.3273 -0.6462 -0.3212
22077SOL    HW164130   1.923   9.257   3.415 -0.5891 -0.5910 -0.6892
22077SOL    HW264131   1.871   9.206   3.561 -0.0723  0.6864 -0.0558
22078SOL     OW64132   4.463   5.977   1.076  0.6677  0.0358  0.1827
22078SOL    HW164133   4.556   5.984   1.041  1.0480  0.4635  1.2784
22078SOL    HW264134   4.399   5.970   0.999  1.8786 -3.9524 -0.5888
22079SOL     OW64135   1.894   8.103   2.678  0.5200 -0.5513 -0.1104
22079SOL    HW164136   1.938   8.179   2.629  0.1442 -0.8609 -0.9309
22079SOL    HW264137   1.856   8.137   2.764  0.8805  0.0700 -0.1910
22080SOL     OW64138   3.590   7.675   1.201 -0.2793 -0.0607 -0.0964
22080SOL    HW164139   3.620   7.585   1.167  0.2025  0.4021 -0.9313
22080SOL    HW264140   3.549   7.665   1.291 -2.5600 -1.4851 -1.2520
22081SOL     OW64141   8.149   1.722   5.803  0.1696 -0.3935  0.8082
22081SOL    HW164142   8.243   1.738   5.772 -0.2632 -2.0890 -1.5472
22081SOL    HW264143   8.092   1.799   5.775  0.3236 -0.6668 -0.2933
22082SOL     OW64144   6.924   2.919   2.998 -0.5364 -0.3473 -0.0771
22082SOL    HW164145   6.956   2.828   3.022  0.8872  0.1176 -0.1559
22082SOL    HW264146   6.846   2.943   3.057  0.0167 -1.0276  0.9596
22083SOL     OW64147   1.754   0.423   5.320  0.2038  0.3307  0.4156
22083SOL    HW164148   1.720   0.475   5.398  0.3852  0.7911  0.1848
22083SOL    HW264149   1.743   0.476   5.236 -0.1721 -0.2425  0.0983
22084SOL     OW64150   7.094   0.796   0.099  0.9488  0.0668  0.3560
22084SOL    HW164151   7.032   0.813   0.176  1.1730 -1.2883  0.8429
22084SOL    HW264152   7.121   0.700   0.098  0.0069 -0.2192 -2.1267
22085SOL     OW64153   3.325   7.390   1.800  0.4761 -0.0758  0.4490
22085SOL    HW164154   3.299   7.295   1.818  0.0916  0.0165  0.3909
22085SOL    HW264155   3.263   7.429   1.732  0.6190  0.2231  0.4892
22087SOL     OW64156   3.140   7.754   5.445 -0.6086 -0.4272  0.0624
22087SOL    HW164157   3.058   7.812   5.448  0.1375  0.6167  0.9672
22087SOL    HW264158   3.161   7.722   5.537  0.4907  0.0392 -0.0177
22088SOL     OW64159   2.099   0.083   1.049 -0.1277  0.2866 -0.1171
22088SOL    HW164160   2.174   0.135   1.089  1.0142 -0.9806 -0.5598
22088SOL    HW264161   2.109  -0.014   1.073 -2.2746  0.2691  0.7957
22089SOL     OW64162   1.493   9.579   5.958 -0.3943  0.0755 -0.0242
22089SOL    HW164163   1.548   9.647   5.910  1.0677 -0.0580  1.4284
22089SOL    HW264164   1.458   9.619   6.043 -0.6434 -0.5668  0.1754
22090SOL     OW64165   3.556   9.985   2.307  0.7764  0.2519 -0.2594
22090SOL    HW164166   3.530  10.053   2.238 -1.2220 -0.0795  0.1171
22090SOL    HW264167   3.488   9.985   2.380  0.4237 -2.5191 -0.5296
22091SOL     OW64168   1.405   7.491   6.415 -0.0208 -0.2020 -0.0439
22091SOL    HW164169   1.447   7.458   6.500 -0.2202 -0.7875 -0.1747
22091SOL    HW264170   1.308   7.509   6.431 -0.2889 -1.2907 -0.4125
22093SOL     OW64171   9.241   3.186   1.677 -0.7656  0.0432  0.3419
22093SOL    HW164172   9.213   3.238   1.757 -1.3080 -0.1365  0.2733
22093SOL    HW264173   9.341   3.187   1.669 -0.7463  0.5602  0.6765
22094SOL     OW64174   3.291   5.834   2.532 -0.2065 -0.1875  0.3122
22094SOL    HW164175   3.236   5.899   2.479  0.7588  1.1258  0.8699
22094SOL    HW264176   3.373   5.881   2.567  0.2636 -1.5903  1.1373
22095SOL     OW64177   5.576   2.538   4.319  0.0589  0.7052  0.3357
22095SOL    HW164178   5.660   2.547   4.372  1.1593 -2.7056 -0.7023
22095SOL    HW264179   5.575   2.606   4.246  2.0899  0.5488  0.1342
22096SOL     OW64180   8.427   3.004   6.178  0.3877  0.2554  0.8607
22096SOL    HW164181   8.335   2.982   6.146  0.8847  1.3871 -1.3754
22096SOL    HW264182   8.469   2.921   6.217 -0.1322 -1.2337 -1.6672
22099SOL     OW64183   7.794   6.990   3.362  0.4733  0.1363 -0.3842
22099SOL    HW164184   7.784   7.079   3.316  1.3131  0.2966 -0.2518
22099SOL    HW264185   7.828   6.923   3.297  0.6487  0.1108 -0.2654
22100SOL     OW64186   5.660   5.053   0.199  0.5936 -0.2650 -0.2876
22100SOL    HW164187   5.593   5.117   0.238  0.5707 -0.3101 -0.2522
22100SOL    HW264188   5.745   5.057   0.251  0.5714 -0.3075 -0.2470
22101SOL     OW64189   2.827   3.283   3.595 -0.5217 -0.1140 -0.4255
22101SOL    HW164190   2.829   3.363   3.535  0.1373  0.8730  0.9108
22101SOL    HW264191   2.773   3.303   3.676  1.0030 -0.4468  0.6967
22102SOL     OW64192   8.645   0.540   5.889  0.3313 -0.1484 -0.3527
22102SOL    HW164193   8.731   0.536   5.839  0.5358  0.3798 -0.0539
22102SOL    HW264194   8.593   0.621   5.861  0.1835 -0.1656 -0.1355
22103SOL     OW64195   3.826   5.659   5.936  0.5711 -0.2497  0.0146
22103SOL    HW164196   3.801   5.576   5.986 -1.4361 -0.2638 -0.9724
22103SOL    HW264197   3.823   5.738   5.997  2.5682 -0.8834  0.9797
22104SOL     OW64198   4.178   9.713   1.839 -0.0563 -0.1789  0.0321
22104SOL    HW164199   4.115   9.777   1.884  0.2095  0.0764  0.0456
22104SOL    HW264200   4.177   9.626   1.888 -1.5118 -0.6689 -0.8484
22105SOL     OW64201   0.566   6.273   3.362 -0.0319 -0.3160 -0.2767
22105SOL    HW164202   0.594   6.301   3.454  0.0601 -0.1207 -0.3652
22105SOL    HW264203   0.639   6.294   3.297 -0.3175  0.0417 -0.4817
22106SOL     OW64204   0.603   0.158   4.269 -0.4448  0.0600  0.2681
22106SOL    HW164205   0.696   0.184   4.293 -0.3632  2.0847 -2.0695
22106SOL    HW264206   0.604   0.070   4.221  0.4416  0.7896 -1.0665
22107SOL     OW64207   4.979   2.914   0.368  0.2757  0.1513  0.3008
22107SOL    HW164208   5.012   2.924   0.274  0.4448 -2.6740  0.0248
22107SOL    HW264209   4.894   2.965   0.379  0.9987  1.6750 -0.9788
22109SOL     OW64210   8.134   9.978   3.563 -0.4386 -0.2513  0.0131
22109SOL    HW164211   8.096   9.929   3.484 -1.0785  0.5314 -0.1690
22109SOL    HW264212   8.151  10.073   3.538  1.4215 -0.5125  0.1702
22110SOL     OW64213   9.310   8.938   3.526  0.3463 -0.2110  0.1965
22110SOL    HW164214   9.404   8.942   3.561  1.1694  1.9565 -2.0854
22110SOL    HW264215   9.306   8.873   3.450 -0.5971 -2.1770  1.9069
22111SOL     OW64216   5.166   5.197   2.059 -0.2944 -0.1008 -0.2186
22111SOL    HW164217   5.223   5.241   1.990 -0.4731 -0.2728 -0.4765
22111SOL    HW264218   5.192   5.231   2.150  2.8073 -2.8778  0.0571
22112SOL     OW64219   0.961   0.087   2.784 -0.5158  0.0126  0.1956
22112SOL    HW164220   1.008   0.065   2.869 -2.0062 -0.1382  0.9882
22112SOL    HW264221   0.933   0.002   2.738  0.8223  0.0740 -0.7605
22113SOL     OW64222   4.486   9.597   5.052  0.0344 -0.4246  0.0386
22113SOL    HW164223   4.492   9.692   5.021 -0.3520 -0.9479 -1.6468
22113SOL    HW264224   4.437   9.542   4.984 -0.0713 -1.7582  1.1766
22115SOL     OW64225   1.748   2.336   5.042  0.2289 -0.3898 -0.0413
22115SOL    HW164226   1.822   2.324   5.108  0.5497 -0.7766 -0.4689
22115SOL    HW264227   1.679   2.398   5.080  0.3677 -0.6793  0.6891
22116SOL     OW64228   9.722   0.321   0.697  0.4240  0.4874  0.3737
22116SOL    HW164229   9.805   0.281   0.660  0.4342  0.7667  0.0945
22116SOL    HW264230   9.672   0.251   0.749  0.0284 -0.1263 -0.8012
22117SOL     OW64231   4.273   0.688   1.156 -0.8696  0.1273  0.0735
22117SOL    HW164232   4.363   0.677   1.114 -1.3810  1.1358 -1.3372
22117SOL    HW264233   4.245   0.784   1.150 -2.1448 -0.2228  0.2529
22118SOL     OW64234   6.407   2.264   5.445  0.0042  0.2418 -0.4070
22118SOL    HW164235   6.475   2.234   5.379  1.4765 -3.9341  2.7635
22118SOL    HW264236   6.452   2.287   5.531 -2.2781  0.4009  0.7904
22119SOL     OW64237   9.931   5.743   1.976 -0.3300  0.4911 -0.1536
22119SOL    HW164238   9.951   5.739   2.074  0.3890  0.0778 -0.3160
22119SOL    HW264239   9.963   5.659   1.932 -1.8317  0.0994 -0.5298
22120SOL     OW64240   7.664   9.872   3.368  0.1368  0.1701 -0.8689
22120SOL    HW164241   7.736   9.933   3.401 -0.0584 -1.5100  2.8763
22120SOL    HW264242   7.575   9.914   3.381  0.1083 -0.1587  0.0079
22121SOL     OW64243   1.223   2.256   0.195 -0.6207  0.4604 -0.0085
22121SOL    HW164244   1.124   2.253   0.212 -1.0674  0.3688 -2.3957
22121SOL    HW264245   1.244   2.334   0.136  0.4039 -0.7933 -1.3436
22122SOL     OW64246   4.108   3.250   5.411  0.2764  0.1716  0.0194
22122SOL    HW164247   4.184   3.190   5.438  1.2387  0.9608 -0.9143
22122SOL    HW264248   4.027   3.227   5.465  0.4826 -2.3142 -0.6487
22123SOL     OW64249   1.136   0.046   4.855 -0.1783  0.0039  0.3917
22123SOL    HW164250   1.063   0.023   4.920 -2.2835  1.4151 -1.3962
22123SOL    HW264251   1.151  -0.031   4.793  0.5914 -0.6706  1.3988
22125SOL     OW64252   3.427   3.772   4.375  0.1414 -0.0250 -0.1394
22125SOL    HW164253   3.418   3.714   4.294 -1.1103 -0.1877  0.0932
22125SOL    HW264254   3.433   3.714   4.456  0.1150  0.1531 -0.0104
22126SOL     OW64255   0.086   7.859   0.164  0.3502 -0.1992  0.2853
22126SOL    HW164256   0.036   7.795   0.222 -1.2975  0.8483  0.0408
22126SOL    HW264257   0.047   7.858   0.072  0.9083  0.4806  0.0355
22127SOL     OW64258   0.239   0.502   0.213 -0.2569 -1.2027  0.2369
22127SOL    HW164259   0.252   0.593   0.172 -2.2981 -0.7382  0.5367
22127SOL    HW264260   0.141   0.484   0.221  0.1356 -3.3209  0.4670
22130SOL     OW64261   0.146   6.802   4.458  0.7854  0.0612 -0.1293
22130SOL    HW164262   0.173   6.886   4.412 -0.2895  0.9716  0.8600
22130SOL    HW264263   0.048   6.785   4.442  1.1034 -1.2737 -0.7342
22131SOL     OW64264   6.192   8.236   2.747  0.2501  0.0641  0.2823
22131SOL    HW164265   6.233   8.169   2.809  1.0697 -0.2749 -0.6180
22131SOL    HW264266   6.139   8.302   2.800  0.6858 -0.4051  1.3164
22132SOL     OW64267   2.000   8.469   5.168  0.1501  0.3640 -0.9982
22132SOL    HW164268   2.080   8.528   5.173  0.9407 -0.7717 -0.0465
22132SOL    HW264269   1.917   8.524   5.181  0.8820  1.2541 -0.0242
22133SOL     OW64270   3.098   6.147   3.227 -0.2770 -0.0430 -0.4211
22133SOL    HW164271   3.196   6.126   3.237 -0.5482 -1.4137 -0.5831
22133SOL    HW264272   3.083   6.244   3.248  0.8302 -0.2478  1.4392
22134SOL     OW64273   3.550   3.328   3.687  0.0094 -0.2972  0.2848
22134SOL    HW164274   3.458   3.333   3.649 -0.0830 -1.9066  0.2569
22134SOL    HW264275   3.613   3.379   3.629 -0.7133  0.0568 -0.1948
22135SOL     OW64276   1.370   1.083   2.984 -0.3753  0.3335 -0.3144
22135SOL    HW164277   1.388   1.161   3.043  0.9488  0.3792 -0.7456
22135SOL    HW264278   1.349   1.115   2.891  0.4871  0.1884 -0.5706
22136SOL     OW64279   4.167   8.205   0.589  0.0556 -0.0852  0.0667
22136SOL    HW164280   4.127   8.134   0.647 -0.0039 -0.1247 -0.0231
22136SOL    HW264281   4.188   8.285   0.646  0.1669 -0.1920  0.1757
22137SOL     OW64282   3.170   9.871   1.863 -0.1245 -0.1061 -0.1270
22137SOL    HW164283   3.076   9.868   1.831 -0.2179 -0.8960  0.2186
22137SOL    HW264284   3.218   9.788   1.834 -0.5011 -1.3427  2.6798
22138SOL     OW64285   8.511   0.076   4.729  0.5747 -0.1899 -0.1582
22138SOL    HW164286   8.490   0.070   4.826 -1.3499  1.2513 -0.4444
22138SOL    HW264287   8.568  -0.002   4.702 -0.2066 -1.4658  1.7750
22139SOL     OW64288   2.075   6.225   6.003  0.3327 -0.0094  0.0331
22139SOL    HW164289   2.151   6.204   5.941 -0.4829  1.3531 -1.4652
22139SOL    HW264290   2.081   6.322   6.030  0.1192 -0.3457  1.3266
22140SOL     OW64291   0.521   4.441   1.375 -0.0092  0.1973 -0.2089
22140SOL    HW164292   0.431   4.483   1.388  0.5109  1.1817  0.3092
22140SOL    HW264293   0.589   4.513   1.359  1.0775 -0.3792  1.6639
22141SOL     OW64294   6.503   9.992   6.439  0.1878 -0.0081  0.1103
22141SOL    HW164295   6.404  10.002   6.451 -0.3771 -2.0025 -2.3907
22141SOL    HW264296   6.547  10.081   6.451 -1.9906  1.0444  0.5710
22142SOL     OW64297   0.271   5.062   2.353 -0.2133 -0.3367  0.0303
22142SOL    HW164298   0.210   5.132   2.391  0.6794 -0.6177  2.0534
22142SOL    HW264299   0.340   5.106   2.295  0.8305  0.6089  1.9140
22143SOL     OW64300   0.684   4.621   1.670  0.2353  0.0329 -0.0543
22143SOL    HW164301   0.772   4.660   1.642 -0.0390  1.9621  1.7067
22143SOL    HW264302   0.610   4.673   1.627 -0.0836 -1.0020 -0.7820
22144SOL     OW64303   6.375   9.135   5.125  0.0078  0.2259 -0.8035
22144SOL    HW164304   6.288   9.184   5.115 -0.2474 -0.2490 -0.9251
22144SOL    HW264305   6.386   9.072   5.048  0.0288 -0.3785 -0.3006
22146SOL     OW64306   6.810   0.670   3.752  0.0815 -0.7128  0.5745
22146SOL    HW164307   6.804   0.611   3.671 -1.5199 -0.8203  0.7457
22146SOL    HW264308   6.734   0.649   3.814  0.0936  0.7986  1.1303
22148SOL     OW64309   3.386   0.962   0.250 -0.4417  0.0067  0.4175
22148SOL    HW164310   3.377   0.957   0.349 -0.7083 -1.1194  0.3465
22148SOL    HW264311   3.371   1.056   0.219  3.0641  1.0967  1.7887
22151SOL     OW64312   3.905   0.066   1.315 -0.0035  0.0487  0.2565
22151SOL    HW164313   3.887   0.156   1.274 -1.4163  0.3698  1.5645
22151SOL    HW264314   3.829   0.040   1.374  0.8195 -1.6055  0.6169
22153SOL     OW64315   9.444   9.273   5.076 -0.3447 -0.1742 -0.8319
22153SOL    HW164316   9.487   9.193   5.117 -2.1423 -0.1696  1.1413
22153SOL    HW264317   9.439   9.261   4.977  1.4231 -1.4853 -0.7760
22154SOL     OW64318   0.061   1.300   2.120  0.3017  0.2123  0.1039
22154SOL    HW164319   0.030   1.236   2.050 -0.2194  0.8490 -0.2554
22154SOL    HW264320  -0.018   1.348   2.158  0.7446  1.0861 -0.0710
22155SOL     OW64321   1.170   2.335   0.699 -0.1919 -0.1115  0.1130
22155SOL    HW164322   1.123   2.411   0.654  0.8203 -0.0861 -0.9375
22155SOL    HW264323   1.107   2.259   0.710 -0.6281  0.1121 -0.7806
22159SOL     OW64324   5.978   1.025   1.567  0.7617 -0.8203  0.3549
22159SOL    HW164325   6.073   1.050   1.586  0.8467  0.8513 -2.0452
22159SOL    HW264326   5.976   0.955   1.495  0.1852 -0.5070  0.0598
22160SOL     OW64327   7.932   8.282   5.026 -0.4795  0.6918  0.3690
22160SOL    HW164328   7.906   8.185   5.026 -0.6325  0.7309 -0.9742
22160SOL    HW264329   7.901   8.324   5.112 -1.4315 -0.1768  0.4641
22161SOL     OW64330   8.503   3.383   2.406  0.5910 -0.7725  0.6872
22161SOL    HW164331   8.594   3.343   2.391  0.5241  0.8201 -5.0904
22161SOL    HW264332   8.508   3.482   2.398 -1.4070 -0.5290  2.0979
22162SOL     OW64333   1.262   6.675   2.739 -0.1799 -0.3541 -0.1004
22162SOL    HW164334   1.262   6.660   2.838 -1.6147  0.0597 -0.0236
22162SOL    HW264335   1.184   6.733   2.714  1.2669  1.1450 -1.2425
22163SOL     OW64336   2.405   1.342   2.547  0.3248 -0.3035 -0.2423
22163SOL    HW164337   2.310   1.348   2.575  0.0373  0.2695 -1.3143
22163SOL    HW264338   2.428   1.246   2.530 -0.3946 -0.3379 -1.0787
22164SOL     OW64339   9.379   9.379   2.201  0.6389  0.3737  0.2812
22164SOL    HW164340   9.315   9.359   2.276  1.2141 -0.2647  0.6011
22164SOL    HW264341   9.415   9.294   2.163  1.9883  0.7347  0.7086
22165SOL     OW64342   1.686   7.991   3.564  0.1274  0.5594  0.0574
22165SOL    HW164343   1.699   7.900   3.525  1.6846  1.0453 -0.5960
22165SOL    HW264344   1.760   8.051   3.534 -1.2077  2.2183 -0.0140
22166SOL     OW64345   6.171   9.130   2.283 -0.0545 -0.0043 -0.5245
22166SOL    HW164346   6.263   9.092   2.294 -0.9200 -2.1461 -0.6289
22166SOL    HW264347   6.145   9.177   2.368  1.5860  1.6832 -0.9054
22167SOL     OW64348   4.874   1.857   3.168  0.2261 -0.4034 -0.1484
22167SOL    HW164349   4.856   1.952   3.190 -0.6473 -0.6543  0.2552
22167SOL    HW264350   4.970   1.836   3.185  0.4283  0.4090 -0.2725
22168SOL     OW64351   1.620   5.554   5.764 -0.2795 -0.3288 -0.2678
22168SOL    HW164352   1.609   5.650   5.738 -0.1710 -0.6782 -1.6714
22168SOL    HW264353   1.673   5.548   5.848 -1.3100  0.8869  0.5001
22169SOL     OW64354   0.134   8.263   5.818  0.3130 -0.4750 -0.1927
22169SOL    HW164355   0.198   8.233   5.888  1.3718 -1.3096 -1.4966
22169SOL    HW264356   0.073   8.332   5.856  1.9679  0.3140  1.0791
22170SOL     OW64357   4.850   4.815   1.423 -0.0375  0.0481  0.0554
22170SOL    HW164358   4.758   4.835   1.457  0.0527 -0.0360  0.3525
22170SOL    HW264359   4.902   4.768   1.494  0.2624  0.1689 -0.0829
22171SOL     OW64360   2.865   1.591   5.083  0.2948 -0.2117  0.1634
22171SOL    HW164361   2.886   1.500   5.046  0.1261  0.4548 -1.6122
22171SOL    HW264362   2.946   1.628   5.128 -0.4715 -2.4716  3.6115
22174SOL     OW64363   4.067   9.378   5.492 -0.4031  0.4242 -0.3768
22174SOL    HW164364   4.120   9.411   5.414 -0.2007  0.4159 -0.2440
22174SOL    HW264365   3.972   9.407   5.483 -0.4719  0.0568 -0.8444
22175SOL     OW64366   0.981   0.882   2.105  0.5116  0.8483 -0.2399
22175SOL    HW164367   0.912   0.921   2.166  0.9860 -1.0712  1.6172
22175SOL    HW264368   0.936   0.838   2.027 -0.3455  0.2490  0.5799
22177SOL     OW64369   8.799   2.139   0.566  0.7767  0.0532 -0.1679
22177SOL    HW164370   8.887   2.180   0.592  0.6839  0.6920 -0.8548
22177SOL    HW264371   8.815   2.047   0.529  0.9761 -0.5951  1.4471
22178SOL     OW64372   3.671   3.670   1.993 -0.8415  0.3311 -0.0368
22178SOL    HW164373   3.644   3.583   1.951  1.2776  0.1303 -1.0119
22178SOL    HW264374   3.747   3.655   2.056 -0.6486  1.4441  0.0085
22180SOL     OW64375   3.013   6.627   4.705 -0.2231  0.0027 -0.0511
22180SOL    HW164376   2.941   6.672   4.652  0.8851  1.0914 -0.6463
22180SOL    HW264377   2.971   6.558   4.765 -1.9222  1.5966  0.6616
22181SOL     OW64378   2.300   9.583   2.555 -0.1755 -0.0547  0.1793
22181SOL    HW164379   2.338   9.580   2.463  1.6768  4.1805  0.6848
22181SOL    HW264380   2.215   9.636   2.554  1.2077  2.2839  1.2374
22182SOL     OW64381   8.558   5.904   3.887 -0.5652 -0.4890  0.0504
22182SOL    HW164382   8.530   5.847   3.964  1.7979 -2.8794 -0.7654
22182SOL    HW264383   8.658   5.905   3.883 -0.6276  2.1198 -1.1711
22183SOL     OW64384   0.448   5.700   1.650  0.2425 -0.2606  0.1027
22183SOL    HW164385   0.489   5.776   1.700 -0.0122  0.0297 -0.1299
22183SOL    HW264386   0.384   5.735   1.582  1.2291 -0.6041 -1.0182
22184SOL     OW64387   4.784   2.119   1.574  0.2281  0.2237  0.2572
22184SOL    HW164388   4.815   2.178   1.649 -2.2666  0.9020  0.7758
22184SOL    HW264389   4.819   2.155   1.488  0.7988  1.0206  0.8057
22185SOL     OW64390   8.291   8.874   0.836 -0.4038 -0.2024  0.4267
22185SOL    HW164391   8.326   8.854   0.928 -0.8174 -0.6266  0.4913
22185SOL    HW264392   8.289   8.790   0.782  0.8791  0.2285 -0.3338
22186SOL     OW64393   3.565   6.458   4.118  0.1907  0.1925 -0.4011
22186SOL    HW164394   3.661   6.432   4.107  0.3312  0.7396 -0.5018
22186SOL    HW264395   3.506   6.379   4.100  0.6823 -0.5266  1.0870
22187SOL     OW64396   0.192   8.574   0.567  0.0456  0.0464 -0.1679
22187SOL    HW164397   0.264   8.505   0.574  0.2698  0.3700  0.7715
22187SOL    HW264398   0.103   8.529   0.562  0.1506 -0.3013  1.0143
22188SOL     OW64399   3.522   3.426   0.960 -0.3168 -0.2789  0.4000
22188SOL    HW164400   3.483   3.497   0.901  1.1095 -0.0958 -0.3408
22188SOL    HW264401   3.620   3.442   0.971 -0.3355 -1.0549  1.7804
22189SOL     OW64402   2.209   3.233   6.114 -0.2102 -0.2004  0.3390
22189SOL    HW164403   2.162   3.148   6.093 -2.3698  1.4503 -1.7261
22189SOL    HW264404   2.308   3.221   6.100 -0.7192 -1.7184 -2.2043
22191SOL     OW64405   1.745   7.519   4.529 -0.2489  0.1076  0.1220
22191SOL    HW164406   1.712   7.480   4.443  1.1504 -0.4522 -0.1751
22191SOL    HW264407   1.842   7.498   4.540 -0.7815 -1.2932  2.6502
22195SOL     OW64408   1.356   5.333   1.709 -0.5103 -0.1107 -0.1713
22195SOL    HW164409   1.446   5.353   1.671 -0.0001 -1.5962  0.2144
22195SOL    HW264410   1.303   5.279   1.644  0.0014 -1.8101  0.8014
22196SOL     OW64411   7.390   2.687   3.869  0.1640 -0.0938 -0.0502
22196SOL    HW164412   7.418   2.751   3.941 -0.2824 -2.0260  1.8930
22196SOL    HW264413   7.471   2.642   3.832  0.1546 -1.6597  1.7413
22199SOL     OW64414   3.288   3.714   2.319 -0.4562 -0.0341 -0.5279
22199SOL    HW164415   3.260   3.795   2.268 -0.6777  0.5025  0.4474
22199SOL    HW264416   3.212   3.682   2.375 -0.3101 -0.8130 -0.7659
22201SOL     OW64417   1.917   0.698   3.678 -0.4171 -0.3528  0.8813
22201SOL    HW164418   1.994   0.700   3.614 -0.4240 -0.7490  0.8627
22201SOL    HW264419   1.839   0.745   3.639 -0.9045 -1.8832 -0.0044
22202SOL     OW64420   9.312   0.038   0.790 -0.6517  0.1671 -0.0138
22202SOL    HW164421   9.244  -0.009   0.734  0.5273 -1.1413 -0.3610
22202SOL    HW264422   9.282   0.039   0.885  0.4052 -3.4192  0.4158
22203SOL     OW64423   9.074   0.950   3.211  0.0128  0.0919 -0.4758
22203SOL    HW164424   9.133   1.027   3.186  1.5378 -1.0660 -0.5974
22203SOL    HW264425   9.105   0.910   3.297 -0.8972 -0.2442 -0.2946
22204SOL     OW64426   4.833   4.853   1.155 -0.5514 -0.1878  0.4785
22204SOL    HW164427   4.864   4.856   1.250  0.7326  0.9210  0.0332
22204SOL    HW264428   4.754   4.791   1.148 -0.6095 -0.3417  2.2386
22206SOL     OW64429   4.365   4.236   4.506  1.0062  0.3935  0.0072
22206SOL    HW164430   4.320   4.302   4.565  1.4870  0.5891  0.1580
22206SOL    HW264431   4.334   4.248   4.412  0.8301  0.5994  0.0923
22207SOL     OW64432   3.467   3.010   2.618 -0.0750  0.1761 -0.6669
22207SOL    HW164433   3.560   3.028   2.588  0.6487  0.5912  1.7275
22207SOL    HW264434   3.403   3.060   2.559  1.3633  2.1556 -0.6028
22208SOL     OW64435   8.699   7.041   4.668 -0.4036  0.0875 -0.0666
22208SOL    HW164436   8.653   6.963   4.711  1.3443 -0.8989  0.0422
22208SOL    HW264437   8.779   7.009   4.618 -0.4499  1.6604 -1.1765
22209SOL     OW64438   7.121   3.064   2.060  0.0868 -0.6130  0.1299
22209SOL    HW164439   7.213   3.026   2.047  0.3177  0.1664 -0.5224
22209SOL    HW264440   7.075   3.071   1.972 -1.2814 -2.6809  0.6494
22210SOL     OW64441   9.604   8.151   5.452  0.7127 -0.1072 -0.0834
22210SOL    HW164442   9.623   8.161   5.550  1.7381 -2.7554  0.0211
22210SOL    HW264443   9.690   8.161   5.402  0.3100  0.4532 -0.6605
22211SOL     OW64444   4.625   3.535   3.081  0.0843 -0.3711  0.0785
22211SOL    HW164445   4.590   3.494   3.165  0.3305 -0.0555  0.3398
22211SOL    HW264446   4.548   3.565   3.024 -0.0685  0.5402  0.7597
22212SOL     OW64447   4.682   8.078   4.181 -0.1851 -0.1913 -0.2835
22212SOL    HW164448   4.730   8.163   4.202  1.1165 -0.4990 -1.9395
22212SOL    HW264449   4.748   8.003   4.173 -1.3628 -1.4904  1.7177
22213SOL     OW64450   1.225   2.866   5.639  0.3361  0.2103 -0.5625
22213SOL    HW164451   1.295   2.811   5.593  0.0048  0.3338 -1.2273
22213SOL    HW264452   1.269   2.934   5.698  0.7482 -2.0342  1.8273
22214SOL     OW64453   4.827   1.593   2.485 -0.7413  0.0639  0.1492
22214SOL    HW164454   4.811   1.614   2.582  1.1828 -0.3864  0.5719
22214SOL    HW264455   4.916   1.628   2.457 -1.1054 -0.1713 -1.3745
22215SOL     OW64456   3.521   0.413   4.191  0.1912 -0.3999 -0.3839
22215SOL    HW164457   3.561   0.456   4.109  0.0593 -0.2744 -0.3824
22215SOL    HW264458   3.579   0.433   4.270  0.1499 -0.2546 -0.3897
22217SOL     OW64459   0.221   3.868   0.590 -0.2694  0.3499 -0.3837
22217SOL    HW164460   0.287   3.798   0.562 -0.9507 -0.0479 -0.9978
22217SOL    HW264461   0.253   3.911   0.674  0.3868 -0.3802 -0.2506
22218SOL     OW64462   0.349   1.448   2.389 -0.4669 -0.0209  0.1651
22218SOL    HW164463   0.366   1.491   2.478 -0.3737  0.9044 -0.2998
22218SOL    HW264464   0.433   1.450   2.334 -0.6215 -0.2783 -0.0828
22220SOL     OW64465   6.301   9.702   3.217  0.3129 -0.2175 -0.1228
22220SOL    HW164466   6.248   9.779   3.253  1.3646 -0.0392  1.1110
22220SOL    HW264467   6.399   9.720   3.230  0.6148 -1.2239 -0.9356
22221SOL     OW64468   0.345   3.798   0.247  0.0231 -0.2457  0.1804
22221SOL    HW164469   0.397   3.768   0.167  0.7108 -2.9329  1.5772
22221SOL    HW264470   0.366   3.738   0.324 -0.8041  2.1680  2.3251
22222SOL     OW64471   5.119   0.348   4.951 -0.1076  0.2399  0.5253
22222SOL    HW164472   5.099   0.443   4.930 -0.8165 -0.0354 -0.0574
22222SOL    HW264473   5.033   0.298   4.963  0.1984 -0.8980 -1.7692
22223SOL     OW64474   0.774   2.780   4.673 -0.0665  0.0035 -0.1409
22223SOL    HW164475   0.790   2.717   4.597 -0.0749 -2.5289  1.9019
22223SOL    HW264476   0.857   2.832   4.691  0.1730  0.0719 -1.3512
22224SOL     OW64477   0.505   5.470   1.506 -0.0463  1.1205  0.6766
22224SOL    HW164478   0.483   5.557   1.550  0.4794  0.9303  1.3273
22224SOL    HW264479   0.510   5.483   1.407  0.0322  1.8295  0.7706
22225SOL     OW64480   0.952   9.348   1.903  0.5001 -0.2249 -0.1264
22225SOL    HW164481   0.996   9.424   1.951 -0.1490 -1.2332  2.1477
22225SOL    HW264482   0.960   9.361   1.805  1.6569  2.0445  0.2441
22226SOL     OW64483   9.054   5.039   5.274  1.1635 -0.1439 -0.0780
22226SOL    HW164484   9.045   5.007   5.180 -1.3884 -1.9302  0.7188
22226SOL    HW264485   8.980   5.102   5.296  1.3599 -0.2504  0.9376
22227SOL     OW64486   7.306   2.428   1.965  0.0174  0.1536  0.2007
22227SOL    HW164487   7.367   2.362   2.008  3.8546  3.6724  0.3787
22227SOL    HW264488   7.248   2.381   1.898  0.6855 -3.7730  2.2287
22229SOL     OW64489   0.577   7.335   3.227  0.5264  0.4341 -0.3333
22229SOL    HW164490   0.513   7.278   3.174  0.0470  0.1647  0.5243
22229SOL    HW264491   0.544   7.429   3.227  1.2553  0.7072 -1.6508
22230SOL     OW64492   2.859   6.496   4.052  0.1805 -0.1139 -0.2181
22230SOL    HW164493   2.795   6.558   4.008  0.7722 -0.7113 -1.9574
22230SOL    HW264494   2.822   6.467   4.140 -1.4292  0.4003 -0.7055
22231SOL     OW64495   7.997   5.766   5.861  0.4089  0.2454 -0.3750
22231SOL    HW164496   7.900   5.743   5.858  0.7305 -1.2225  0.4353
22231SOL    HW264497   8.018   5.813   5.947  0.4882  0.2306 -0.3857
22232SOL     OW64498   3.073   5.615   5.183  0.0945 -0.2239  0.4851
22232SOL    HW164499   3.133   5.695   5.188 -0.8376  0.3745  2.1206
22232SOL    HW264500   3.047   5.599   5.087 -0.4690  1.9811  0.2562
22233SOL     OW64501   2.256   6.266   0.064 -0.0179  0.6351  0.0309
22233SOL    HW164502   2.344   6.293   0.102 -1.0986 -0.4580  3.4599
22233SOL    HW264503   2.192   6.246   0.138 -2.6096 -0.3904 -2.3919
22234SOL     OW64504   8.797   0.444   2.147 -0.1689  0.1215  0.3690
22234SOL    HW164505   8.776   0.408   2.238 -0.0874 -0.0874  0.3065
22234SOL    HW264506   8.823   0.540   2.154  1.7203 -0.3986  0.8230
22235SOL     OW64507   5.329   1.359   2.996  0.4907 -0.1797  0.1253
22235SOL    HW164508   5.298   1.371   3.091 -1.4232  1.6097 -0.6795
22235SOL    HW264509   5.255   1.384   2.934  1.5256 -1.9491 -1.8608
22236SOL     OW64510   4.351   7.336   1.586  0.0200 -0.2035 -0.3078
22236SOL    HW164511   4.366   7.394   1.666  2.1165  0.7648 -1.3529
22236SOL    HW264512   4.378   7.242   1.607 -1.7495 -0.4750  0.8511
22238SOL     OW64513   4.755   9.629   2.704 -0.2723 -0.4945  0.6515
22238SOL    HW164514   4.695   9.553   2.730 -0.1355 -1.3612 -1.4452
22238SOL    HW264515   4.851   9.598   2.708 -0.1188  0.0754  1.4072
22239SOL     OW64516   2.752   7.389   0.176  0.1854  0.1449 -0.6026
22239SOL    HW164517   2.701   7.424   0.255 -1.2357 -3.7625  0.3178
22239SOL    HW264518   2.692   7.385   0.096  0.0765 -1.0931 -0.4572
22240SOL     OW64519   8.213   6.201   1.883  0.8213 -0.2152 -0.1567
22240SOL    HW164520   8.270   6.147   1.945 -1.1030  0.3120  2.1653
22240SOL    HW264521   8.182   6.144   1.807  4.2779 -0.5347 -1.4040
22241SOL     OW64522   4.207   2.629   5.601 -0.1535 -0.1830  0.3335
22241SOL    HW164523   4.170   2.560   5.663 -0.0960  0.9558  1.6630
22241SOL    HW264524   4.300   2.604   5.576 -1.0627 -1.9776 -1.3655
22242SOL     OW64525   3.172   5.110   4.162  0.1909 -0.1688 -0.0815
22242SOL    HW164526   3.263   5.152   4.159 -0.0560  0.3572 -0.3024
22242SOL    HW264527   3.152   5.082   4.256  0.5849 -0.2974 -0.0327
22243SOL     OW64528   7.626   9.477   6.055  0.0055  0.3610  0.1049
22243SOL    HW164529   7.556   9.529   6.103 -0.0327  0.0115  0.4265
22243SOL    HW264530   7.702   9.459   6.116  1.0629  2.0530 -0.6822
22244SOL     OW64531   9.106   9.179   5.670 -1.4472 -0.3266  0.6403
22244SOL    HW164532   9.181   9.179   5.736 -0.9871 -0.3033  0.1259
22244SOL    HW264533   9.106   9.265   5.619 -1.2555 -0.7006  0.0034
22245SOL     OW64534   3.030   0.990   0.336  0.0561 -0.4345 -0.0872
22245SOL    HW164535   3.119   0.945   0.341 -1.0985 -2.5541  2.9673
22245SOL    HW264536   3.025   1.061   0.407 -0.0002  1.0516 -1.5519
22246SOL     OW64537   5.867   2.641   0.812  0.1791  0.0726 -0.3870
22246SOL    HW164538   5.895   2.654   0.717  1.5293 -1.6223 -0.2495
22246SOL    HW264539   5.856   2.543   0.830  1.2495  0.2858  1.5587
22247SOL     OW64540   2.586   0.800   3.487  0.2130 -0.2149 -0.2340
22247SOL    HW164541   2.685   0.795   3.470  0.3295 -0.1822  0.3979
22247SOL    HW264542   2.569   0.867   3.560 -0.3322  0.2678 -0.8009
22248SOL     OW64543   6.061   1.433   2.468  0.7822  1.0206 -0.6043
22248SOL    HW164544   6.027   1.512   2.520  0.1743  1.1986 -1.2776
22248SOL    HW264545   6.145   1.400   2.511 -1.3072 -0.7387  2.3606
22249SOL     OW64546   8.950   7.602   0.607 -0.0169  0.0702 -0.7320
22249SOL    HW164547   9.031   7.585   0.551  1.0440 -0.9681  1.0738
22249SOL    HW264548   8.975   7.660   0.685 -1.1475  0.2284 -0.4813
22250SOL     OW64549   8.539   8.465   0.364  0.0449 -0.2885 -0.2827
22250SOL    HW164550   8.490   8.511   0.289 -0.3344 -1.4310 -0.7436
22250SOL    HW264551   8.632   8.444   0.335 -0.2202 -1.0730 -0.5692
22251SOL     OW64552   1.695   4.278   1.590 -0.5072 -0.6099  0.5542
22251SOL    HW164553   1.737   4.189   1.604  1.3388 -0.3084 -2.6379
22251SOL    HW264554   1.638   4.276   1.508 -0.3526  1.1915  0.3881
22252SOL     OW64555   4.312   1.124   2.383  0.4538  0.0426  0.8949
22252SOL    HW164556   4.315   1.135   2.284 -0.6336 -0.6057  0.7848
22252SOL    HW264557   4.275   1.206   2.426 -2.1031 -0.8837  0.5158
22253SOL     OW64558   8.556   5.691   0.369  0.4551  0.8757  0.0597
22253SOL    HW164559   8.494   5.649   0.303 -0.2043  0.1221  1.1280
22253SOL    HW264560   8.529   5.786   0.385 -1.0095  0.2887  1.1953
22255SOL     OW64561   8.935   1.451   5.710  0.6319 -0.0695 -0.0137
22255SOL    HW164562   8.881   1.403   5.780 -0.2928 -2.4349 -2.2579
22255SOL    HW264563   8.994   1.518   5.754  1.3568 -2.6868  3.2070
22256SOL     OW64564   9.328   5.793   4.683 -0.1831  0.3749 -0.2865
22256SOL    HW164565   9.352   5.718   4.621  0.0808  0.7779 -0.6770
22256SOL    HW264566   9.405   5.811   4.745 -0.9450 -0.9279  1.0814
22257SOL     OW64567   2.617   2.405   2.769 -0.0312 -0.2326  0.1006
22257SOL    HW164568   2.655   2.463   2.698 -0.8089  0.6336  0.3837
22257SOL    HW264569   2.629   2.309   2.744  0.5267  0.0600 -0.7511
22258SOL     OW64570   8.550   6.529   0.202 -0.1786  0.1180  0.9228
22258SOL    HW164571   8.556   6.472   0.283 -3.1002 -0.7584  0.5971
22258SOL    HW264572   8.470   6.501   0.148  1.1206  1.3479 -1.7185
22259SOL     OW64573   1.213   5.285   4.443 -0.2296 -0.0609 -0.5792
22259SOL    HW164574   1.296   5.281   4.498  0.6473 -0.6358 -1.9139
22259SOL    HW264575   1.140   5.328   4.496 -0.1118 -2.7831  1.9066
22260SOL     OW64576   1.364   0.478   1.696 -0.5544 -0.1127  0.4430
22260SOL    HW164577   1.397   0.481   1.790  0.0333 -0.4580  0.2464
22260SOL    HW264578   1.264   0.488   1.696 -0.2694  3.2391  0.8797
22261SOL     OW64579   2.886   3.356   5.468 -0.4901  0.2057  0.3845
22261SOL    HW164580   2.899   3.454   5.448 -1.0774  0.2859  0.4087
22261SOL    HW264581   2.941   3.302   5.404 -0.7923  0.5272 -0.1512
22262SOL     OW64582   5.757   2.869   0.948 -0.1039 -0.4246 -0.2760
22262SOL    HW164583   5.789   2.793   0.891 -0.7504 -0.2478 -0.8830
22262SOL    HW264584   5.835   2.913   0.992  0.2721 -1.4640  0.1033
22263SOL     OW64585   1.499   8.294   3.245 -0.2200 -0.0175 -0.1805
22263SOL    HW164586   1.444   8.256   3.320 -0.6824 -0.3753 -0.6976
22263SOL    HW264587   1.578   8.343   3.283 -1.1706  0.9476  0.5870
22264SOL     OW64588   1.023   2.544   0.575  0.1333 -0.1055 -0.8177
22264SOL    HW164589   0.960   2.516   0.647  0.1061 -0.0873 -0.8341
22264SOL    HW264590   1.027   2.644   0.571  1.9523 -0.0945  0.7410
22265SOL     OW64591   6.167   7.772   5.894  0.2694  0.2809  0.2688
22265SOL    HW164592   6.144   7.869   5.899 -1.3066 -0.0938  0.5860
22265SOL    HW264593   6.112   7.721   5.960 -0.2617 -1.0622 -1.1701
22269SOL     OW64594   1.303   3.853   1.402 -0.3045  0.0530 -0.0518
22269SOL    HW164595   1.352   3.898   1.477 -0.2032  0.3125 -0.2727
22269SOL    HW264596   1.350   3.768   1.379 -0.2193  0.0724  0.0482
22270SOL     OW64597   2.925   9.579   5.955  0.2086  0.0033  0.0806
22270SOL    HW164598   3.018   9.612   5.967  0.1172  0.0180  0.7727
22270SOL    HW264599   2.926   9.480   5.942  0.2185 -0.2082  1.5663
22271SOL     OW64600   8.724   9.625   3.645  0.0484  1.0594 -0.1627
22271SOL    HW164601   8.789   9.688   3.602  0.3810  0.6313 -0.2872
22271SOL    HW264602   8.655   9.598   3.578  0.2408  0.8350 -0.2706
22272SOL     OW64603   3.527   1.448   4.167  0.1492 -0.8811 -0.9902
22272SOL    HW164604   3.477   1.463   4.082 -1.2536 -0.3557 -0.0974
22272SOL    HW264605   3.588   1.370   4.157 -1.1543 -1.7875 -1.9801
22273SOL     OW64606   0.765   5.737   1.605 -0.3331 -0.3678  0.2296
22273SOL    HW164607   0.702   5.734   1.527 -0.4175 -0.2780  0.2949
22273SOL    HW264608   0.856   5.707   1.575  0.0530  1.2704 -0.3151
22274SOL     OW64609   2.784   4.661   0.641 -0.5251  0.7028 -0.4210
22274SOL    HW164610   2.751   4.665   0.736  0.0127 -3.2784 -0.0058
22274SOL    HW264611   2.738   4.587   0.593  2.0268  0.2220 -2.1648
22276SOL     OW64612   7.514   4.735   0.725 -0.1201  0.3477  0.2058
22276SOL    HW164613   7.472   4.655   0.682 -0.9884 -0.1353  1.9192
22276SOL    HW264614   7.478   4.818   0.683 -0.0658 -0.1244 -0.7981
22278SOL     OW64615   3.376   4.393   5.243  0.6553  0.3135  0.1705
22278SOL    HW164616   3.386   4.391   5.143 -1.8430 -0.2387 -0.0837
22278SOL    HW264617   3.448   4.336   5.284  1.0705 -0.3025 -1.3581
22279SOL     OW64618   8.441   5.238   0.571  0.2245  0.1669 -0.0413
22279SOL    HW164619   8.398   5.186   0.644  0.6617  0.8355  0.6990
22279SOL    HW264620   8.408   5.332   0.574 -0.8981 -0.1530 -1.6468
22280SOL     OW64621   5.475   8.669   3.554  0.2450  0.0886  0.3731
22280SOL    HW164622   5.393   8.718   3.522  0.0951  0.4410  1.2958
22280SOL    HW264623   5.453   8.572   3.564  0.1678  0.0460 -0.1526
22281SOL     OW64624   1.821   7.137   4.724  0.2801 -0.1636  0.2220
22281SOL    HW164625   1.728   7.151   4.758  0.5812 -0.3022  1.1262
22281SOL    HW264626   1.870   7.225   4.724  1.2367 -0.6340  3.0808
22282SOL     OW64627   4.436   7.580   2.478 -0.1906 -0.5775 -0.8790
22282SOL    HW164628   4.355   7.636   2.499 -0.7468 -1.8886  0.5596
22282SOL    HW264629   4.518   7.637   2.484 -0.8041  0.2510 -0.1367
22283SOL     OW64630   4.854   0.649   3.194 -0.3831  0.2009  0.4420
22283SOL    HW164631   4.805   0.684   3.113 -1.8470 -0.1418  1.1578
22283SOL    HW264632   4.816   0.692   3.276 -1.1092 -1.8713  1.2078
22284SOL     OW64633   1.178   6.612   0.656 -0.0089 -0.1308 -0.0053
22284SOL    HW164634   1.082   6.638   0.669  0.0358  0.6803 -1.2568
22284SOL    HW264635   1.194   6.590   0.560  1.2173  0.3627  0.0865
22285SOL     OW64636   2.370   7.406   3.371 -0.6072  0.1727 -0.0056
22285SOL    HW164637   2.326   7.494   3.387 -1.0132 -0.0161 -0.0704
22285SOL    HW264638   2.462   7.420   3.333 -0.6020  0.5682  0.1504
22286SOL     OW64639   3.642   6.594   3.124  0.4743 -0.3854 -0.3723
22286SOL    HW164640   3.691   6.671   3.165  0.4133 -0.5101 -0.0611
22286SOL    HW264641   3.597   6.541   3.196  0.1118 -0.4312 -0.6310
22288SOL     OW64642   2.564   9.488   0.666  0.4985  0.0480  0.0694
22288SOL    HW164643   2.527   9.514   0.577 -0.8282  0.0086  0.6069
22288SOL    HW264644   2.653   9.533   0.679  0.4440  0.4942 -1.0263
22289SOL     OW64645   0.301   0.409   1.122 -0.0358  0.5514  0.0583
22289SOL    HW164646   0.257   0.342   1.063 -0.7854  0.7510  0.3957
22289SOL    HW264647   0.394   0.379   1.143  0.4752  0.7873 -1.7646
22290SOL     OW64648   3.482   6.049   2.079  0.1756 -0.2484 -0.0127
22290SOL    HW164649   3.385   6.030   2.062  0.3217 -1.0522  0.0285
22290SOL    HW264650   3.533   5.963   2.080  0.8635  0.1581  0.1392
22291SOL     OW64651   2.801   1.447   2.473 -0.0113 -0.2871  0.1942
22291SOL    HW164652   2.811   1.451   2.572 -0.3034 -1.3860  0.2681
22291SOL    HW264653   2.868   1.508   2.430 -1.0546  1.5493  1.1138
22292SOL     OW64654   7.110   8.755   2.461 -0.3035  0.5252  0.2647
22292SOL    HW164655   7.048   8.803   2.524  0.6102  2.5302 -0.3064
22292SOL    HW264656   7.184   8.713   2.514  0.6519  2.4920  0.5605
22294SOL     OW64657   9.206   9.609   1.903  0.1201 -0.8761  0.6830
22294SOL    HW164658   9.166   9.695   1.936  0.7839  0.2388 -1.3145
22294SOL    HW264659   9.285   9.585   1.958  0.0539 -0.0888  1.1293
22295SOL     OW64660   7.962   7.232   6.392  0.0951 -0.1030  0.2636
22295SOL    HW164661   7.870   7.236   6.354  0.2090  1.0965  0.0975
22295SOL    HW264662   8.027   7.265   6.324  0.8541 -2.4448 -0.2147
22296SOL     OW64663   6.331   9.434   4.249 -0.7067 -0.0631 -0.4383
22296SOL    HW164664   6.272   9.356   4.274 -1.3398 -0.0809 -1.9291
22296SOL    HW264665   6.274   9.512   4.224 -0.0707  0.5867  0.1203
22299SOL     OW64666   0.338   8.041   5.475  0.3528 -0.4145 -0.3504
22299SOL    HW164667   0.318   8.137   5.495 -1.3557 -0.6118 -1.0171
22299SOL    HW264668   0.255   7.996   5.442  1.1624 -2.0992 -0.1492
22300SOL     OW64669   8.302   8.232   1.067  1.0186  0.2215  0.6548
22300SOL    HW164670   8.287   8.171   1.145  1.7635 -1.5901 -0.5636
22300SOL    HW264671   8.214   8.253   1.024  0.7267  0.2534  1.2613
22301SOL     OW64672   6.654   1.188   2.541  0.1823  0.1699 -0.3421
22301SOL    HW164673   6.749   1.165   2.557  0.3423 -0.4999 -2.1012
22301SOL    HW264674   6.641   1.287   2.547  1.0184  0.2684 -0.2332
22302SOL     OW64675   9.620   5.149   2.089  0.3270 -0.1786  0.0910
22302SOL    HW164676   9.596   5.134   2.185  0.1747  0.6027  0.1791
22302SOL    HW264677   9.578   5.077   2.033  0.7410 -0.8611  0.6491
22303SOL     OW64678   7.076   9.765   4.134  0.1590 -0.1631 -0.2845
22303SOL    HW164679   7.044   9.782   4.228  0.9642  0.8715 -0.1865
22303SOL    HW264680   7.157   9.706   4.138 -1.2519 -2.1312 -0.4849
22304SOL     OW64681   1.751   3.249   4.850 -0.4100 -0.2673  0.6946
22304SOL    HW164682   1.775   3.341   4.819 -1.5274  0.0064  0.6158
22304SOL    HW264683   1.750   3.247   4.950  0.1170 -0.3310  0.7003
22305SOL     OW64684   9.607   7.229   5.813  0.0669 -0.3318 -0.2786
22305SOL    HW164685   9.555   7.180   5.743  0.8378 -1.9436  0.2549
22305SOL    HW264686   9.561   7.219   5.902 -0.4321  0.9632 -0.3842
22306SOL     OW64687   7.777   3.723   4.172 -1.4236  0.2906  0.4820
22306SOL    HW164688   7.761   3.714   4.270 -0.1100  0.4415  0.7170
22306SOL    HW264689   7.759   3.817   4.144 -2.9089 -0.0149  0.3518
22307SOL     OW64690   1.377   8.812   0.250  0.3586  0.0234  0.5133
22307SOL    HW164691   1.379   8.712   0.251  0.2265  0.0091 -0.3245
22307SOL    HW264692   1.288   8.844   0.282 -0.9880 -0.2180 -2.7978
22308SOL     OW64693   8.687   7.266   2.657  0.2971  0.1505  0.2486
22308SOL    HW164694   8.638   7.239   2.574  0.4208 -0.2072  0.2899
22308SOL    HW264695   8.752   7.339   2.634  0.2921  0.0930  0.0433
22309SOL     OW64696   0.039   1.218   0.670  0.0985  0.7267 -0.3983
22309SOL    HW164697   0.057   1.136   0.725  0.7898  0.1445 -1.4726
22309SOL    HW264698  -0.050   1.256   0.694 -0.4971 -0.6942 -0.3266
22311SOL     OW64699   3.482   3.669   5.350 -0.9717  0.2953  0.2890
22311SOL    HW164700   3.435   3.655   5.437 -0.5719  0.6322  0.5612
22311SOL    HW264701   3.511   3.764   5.343  0.1265 -0.0275  0.3538
22312SOL     OW64702   0.493   0.497   3.757 -0.2512 -0.4995 -0.3910
22312SOL    HW164703   0.503   0.595   3.775 -1.9081 -0.3791 -0.0574
22312SOL    HW264704   0.467   0.450   3.842  2.7699 -1.5885 -0.0150
22313SOL     OW64705   6.106   3.662   0.691 -0.2707  0.0087 -0.0830
22313SOL    HW164706   6.035   3.592   0.702 -2.6788  2.5178  0.7230
22313SOL    HW264707   6.091   3.735   0.757  2.2174  1.3171 -0.9195
22314SOL     OW64708   0.335   5.591   2.449 -0.0880 -0.2333 -0.1094
22314SOL    HW164709   0.290   5.581   2.360 -0.2502 -0.9075  0.0487
22314SOL    HW264710   0.433   5.579   2.438 -0.2731 -2.0048  0.0722
22315SOL     OW64711   8.543   8.859   0.640 -0.4426 -0.1256  0.1756
22315SOL    HW164712   8.454   8.901   0.623  0.5604  1.9448 -0.0923
22315SOL    HW264713   8.565   8.865   0.737 -0.1809  0.2108  0.0959
22316SOL     OW64714   9.423   3.175   2.895  0.1687 -0.1079 -0.5555
22316SOL    HW164715   9.458   3.218   2.978 -0.2446  0.4013 -0.6369
22316SOL    HW264716   9.330   3.208   2.878 -1.0762 -2.8186  0.6729
22317SOL     OW64717   1.976   3.437   0.566  0.3940 -0.3190 -0.6977
22317SOL    HW164718   2.056   3.409   0.618  0.4109  3.8287  1.6949
22317SOL    HW264719   2.004   3.464   0.474  1.8690  1.6099  0.2903
22318SOL     OW64720   1.317   8.579   5.348 -0.3556 -0.2168 -0.2620
22318SOL    HW164721   1.379   8.656   5.365 -2.1935  0.9542  1.2666
22318SOL    HW264722   1.346   8.531   5.265  1.2672  1.6455 -0.8093
22320SOL     OW64723   9.843   4.607   6.174  0.1626  0.0859 -0.3088
22320SOL    HW164724   9.779   4.608   6.098 -0.1420  0.7854 -0.0540
22320SOL    HW264725   9.816   4.538   6.240  0.8681 -1.0518 -1.1987
22322SOL     OW64726   8.578   9.948   2.221  0.0700 -0.0246  0.5521
22322SOL    HW164727   8.669   9.946   2.263 -0.1177 -1.6281  0.8902
22322SOL    HW264728   8.568  10.033   2.169  1.8382  0.0652  0.3281
22325SOL     OW64729   3.579   4.218   1.463 -0.2378 -0.4282  0.0098
22325SOL    HW164730   3.598   4.120   1.453  0.6394 -0.4906  1.9781
22325SOL    HW264731   3.493   4.230   1.513  0.4586 -0.2214  1.1765
22327SOL     OW64732   1.431   2.902   0.563  0.1826 -0.1148  0.6964
22327SOL    HW164733   1.527   2.915   0.539 -0.0521 -1.4962 -1.1078
22327SOL    HW264734   1.374   2.928   0.485 -0.6705 -3.6889  0.0444
22328SOL     OW64735   6.534   2.062   2.497 -0.4582  0.1980 -0.1806
22328SOL    HW164736   6.571   2.111   2.419 -2.8553 -0.5334 -1.8272
22328SOL    HW264737   6.582   1.974   2.507  0.4357  0.6709 -0.2931
22329SOL     OW64738   3.321   9.186   2.908  0.5772  0.2936  0.0893
22329SOL    HW164739   3.343   9.173   2.811  3.1262  1.8324  0.4223
22329SOL    HW264740   3.351   9.276   2.937 -2.3826  0.7907  1.7528
22330SOL     OW64741   4.859   9.082   4.090 -0.2713 -0.0895 -0.2833
22330SOL    HW164742   4.804   9.069   4.172 -0.3180 -1.3341 -0.4932
22330SOL    HW264743   4.829   9.163   4.041 -0.9984  0.0110  0.3328
22331SOL     OW64744   7.533   0.243   2.418 -0.0932 -0.2688 -0.0046
22331SOL    HW164745   7.629   0.224   2.441 -0.0808 -0.0008  0.1665
22331SOL    HW264746   7.488   0.157   2.392  0.2156 -0.3809 -0.1745
22333SOL     OW64747   6.665   7.777   5.236  0.5879  0.2041  0.5320
22333SOL    HW164748   6.652   7.817   5.145 -1.4776 -1.5351  0.0067
22333SOL    HW264749   6.711   7.689   5.227  1.2769  0.4845  1.2819
22334SOL     OW64750   4.973   0.292   5.712 -0.3213 -0.7000 -0.2630
22334SOL    HW164751   5.043   0.324   5.649 -1.4296 -0.8383 -1.5781
22334SOL    HW264752   4.950   0.365   5.776  1.7973 -1.0099  0.8911
22335SOL     OW64753   1.012   9.242   3.382 -0.3952  0.7155 -0.4747
22335SOL    HW164754   0.968   9.196   3.459 -1.1810  0.1938 -1.2193
22335SOL    HW264755   1.109   9.253   3.400 -0.3282 -0.6165  0.0220
22336SOL     OW64756   4.396   0.499   1.334  0.0740  0.2943  0.6627
22336SOL    HW164757   4.397   0.402   1.310  0.3619  0.1257  1.3344
22336SOL    HW264758   4.340   0.549   1.268  1.1531 -0.0880 -0.5783
22337SOL     OW64759   7.662   0.306   0.343 -0.1858 -0.2163  0.2735
22337SOL    HW164760   7.730   0.256   0.289 -1.4771 -0.1441 -1.4571
22337SOL    HW264761   7.598   0.241   0.383 -0.9375 -0.0619 -0.6767
22338SOL     OW64762   7.358   1.482   4.020 -0.2201 -0.2604 -0.2135
22338SOL    HW164763   7.320   1.552   4.081  1.5500  0.7208 -0.2071
22338SOL    HW264764   7.426   1.524   3.959 -0.3327 -1.6641 -1.3413
22339SOL     OW64765   0.567   0.053   6.099 -0.4040  0.8074  0.0708
22339SOL    HW164766   0.487   0.039   6.039 -0.5572  0.6727  0.3048
22339SOL    HW264767   0.594   0.149   6.096 -0.0039  0.6712 -0.7279
22340SOL     OW64768   0.103   8.385   1.129  0.2747 -0.5832  0.2085
22340SOL    HW164769   0.160   8.348   1.056  0.2045 -1.5930  0.6494
22340SOL    HW264770   0.015   8.415   1.091  0.8131  0.2998 -0.3531
22341SOL     OW64771   2.049   2.456   0.366 -0.0731 -0.0379  0.4586
22341SOL    HW164772   2.147   2.476   0.373 -0.4544  1.2497  2.7732
22341SOL    HW264773   2.000   2.539   0.337 -0.3897 -0.9509 -1.6874
22342SOL     OW64774   5.900   9.343   2.224  0.0428  0.4339 -0.1063
22342SOL    HW164775   5.872   9.432   2.259 -1.6243 -0.8431  1.9218
22342SOL    HW264776   5.942   9.289   2.297  1.0313 -0.4610 -1.3017
22343SOL     OW64777   9.392   7.109   1.792 -0.6364 -0.1586  0.4140
22343SOL    HW164778   9.456   7.088   1.719  0.4749 -0.4034  1.4371
22343SOL    HW264779   9.299   7.087   1.763  0.0709 -2.7972  0.0154
22344SOL     OW64780   9.411   5.615   3.768 -0.1781 -0.1371 -0.1647
22344SOL    HW164781   9.410   5.549   3.844  1.4692  0.6016  0.5241
22344SOL    HW264782   9.334   5.678   3.778  0.3174  0.2617  1.1767
22346SOL     OW64783   2.715   6.724   5.645  0.4408  0.1559  0.4313
22346SOL    HW164784   2.776   6.729   5.724  1.5795  1.9170 -0.5135
22346SOL    HW264785   2.656   6.805   5.643  0.7607  0.3681 -0.7893
22347SOL     OW64786   7.161   7.218   6.016  0.5162 -0.3323  0.5311
22347SOL    HW164787   7.108   7.250   6.095 -0.3696  0.5150 -0.3847
22347SOL    HW264788   7.111   7.145   5.970  0.6279 -0.2343  0.2548
22349SOL     OW64789   2.996   1.983   5.146 -0.9010 -0.3455 -0.0816
22349SOL    HW164790   3.046   2.064   5.176 -2.2439  0.6145 -0.3807
22349SOL    HW264791   2.906   1.981   5.189 -0.2476 -2.6242  1.2923
22350SOL     OW64792   3.473   8.628   1.973 -0.0910  0.4562  0.4217
22350SOL    HW164793   3.568   8.609   1.950 -0.3830 -1.0674  0.3574
22350SOL    HW264794   3.466   8.649   2.071  0.0638 -1.5134  0.8872
22353SOL     OW64795   7.902   2.652   0.138 -0.0771 -0.6155 -0.1698
22353SOL    HW164796   7.887   2.568   0.085  0.4672 -1.0753  0.4021
22353SOL    HW264797   7.961   2.714   0.085 -0.6103 -0.5265 -0.6611
22354SOL     OW64798   0.824   4.515   2.764  0.0318  0.2438  0.6078
22354SOL    HW164799   0.883   4.500   2.685  1.4745 -0.5915  1.8072
22354SOL    HW264800   0.806   4.612   2.775  1.0083  0.4844  0.1047
22355SOL     OW64801   6.839   1.283   3.101 -0.0020  0.1108  0.2663
22355SOL    HW164802   6.933   1.313   3.117  0.4138 -0.8708 -0.2764
22355SOL    HW264803   6.825   1.194   3.145  0.0164 -0.8126 -1.5435
22356SOL     OW64804   9.737   5.077   5.843  0.6947 -0.2499 -0.3516
22356SOL    HW164805   9.702   5.042   5.930 -2.7581  2.4906 -0.5572
22356SOL    HW264806   9.793   5.158   5.859 -0.9943  1.0046 -0.7765
22358SOL     OW64807   5.494   5.558   0.961 -0.1544 -0.1470  0.0864
22358SOL    HW164808   5.536   5.610   1.035  2.1238  0.1689 -1.3630
22358SOL    HW264809   5.399   5.587   0.949  0.2109  1.5975  1.2221
22359SOL     OW64810   5.197   4.015   1.218 -0.1364  0.0134  0.0215
22359SOL    HW164811   5.192   3.992   1.315  0.2546 -1.4614 -0.2976
22359SOL    HW264812   5.178   4.113   1.206  1.0313  0.4646  1.6879
22360SOL     OW64813   0.994   0.155   2.410 -0.2681 -0.1828 -0.3865
22360SOL    HW164814   0.932   0.077   2.420 -1.5194  1.1371  2.5850
22360SOL    HW264815   1.088   0.125   2.425 -0.5304 -1.4713 -1.2043
22361SOL     OW64816   9.829   0.641   4.047  0.7600 -0.3865 -0.4330
22361SOL    HW164817   9.773   0.657   3.965  0.5345  2.6371  0.2735
22361SOL    HW264818   9.810   0.549   4.082  0.6941 -1.6568 -3.6270
22362SOL     OW64819   1.226   6.966   0.313 -0.0872 -0.0997 -0.2538
22362SOL    HW164820   1.326   6.964   0.306 -0.0829  0.2386 -0.2846
22362SOL    HW264821   1.186   6.945   0.224 -0.0350  2.8204 -0.9860
22363SOL     OW64822   4.460   8.829   0.813  0.7531  0.2011 -0.1892
22363SOL    HW164823   4.554   8.864   0.821  1.3504 -1.1807 -0.9489
22363SOL    HW264824   4.418   8.868   0.731  1.9051 -1.9084 -1.8177
22364SOL     OW64825   0.580   9.907   0.582 -0.1704 -0.4020  0.0072
22364SOL    HW164826   0.570   9.829   0.643  0.3157 -0.9473 -0.6074
22364SOL    HW264827   0.535   9.887   0.495 -2.8229  1.2222  0.9241
22365SOL     OW64828   8.686   3.028   5.487  0.7512 -0.1137  0.3524
22365SOL    HW164829   8.603   3.052   5.436  1.8857 -1.4485 -2.2091
22365SOL    HW264830   8.673   3.050   5.584 -2.1780  0.6894 -0.1716
22366SOL     OW64831   5.091   6.333   0.807 -0.0550  0.2623  0.4965
22366SOL    HW164832   4.995   6.354   0.822  0.0941 -0.1183  1.9732
22366SOL    HW264833   5.099   6.248   0.755 -0.5159  0.4461  0.1226
22367SOL     OW64834   2.886   1.405   1.127 -0.4688  0.3346 -0.0717
22367SOL    HW164835   2.835   1.371   1.048  1.3384 -1.4197 -0.5119
22367SOL    HW264836   2.980   1.371   1.124 -0.4479 -0.0805  3.0054
22369SOL     OW64837   3.920   4.799   1.061  0.2147  0.1700 -0.4370
22369SOL    HW164838   3.969   4.795   1.148  0.1187  2.7310 -0.2033
22369SOL    HW264839   3.980   4.768   0.987  1.5643  1.4045  0.1050
22370SOL     OW64840   0.958   2.815   5.544  0.1384 -0.3269 -0.0603
22370SOL    HW164841   1.044   2.856   5.573  0.1845 -0.4476 -0.0266
22370SOL    HW264842   0.884   2.882   5.554  0.0556 -0.5661  0.9156
22372SOL     OW64843   2.597   9.761   2.261 -0.3060 -0.1717 -0.2626
22372SOL    HW164844   2.536   9.838   2.240 -1.2788 -0.5816  0.9532
22372SOL    HW264845   2.652   9.739   2.181 -1.8421  0.1339 -1.4404
22373SOL     OW64846   9.505   8.300   6.320 -0.0155  0.1331 -0.7372
22373SOL    HW164847   9.513   8.241   6.240 -0.1362  0.0853 -0.7137
22373SOL    HW264848   9.595   8.310   6.363 -0.3174 -1.4604  0.2740
22374SOL     OW64849   0.744   8.477   2.939 -0.2201  0.4061 -0.2441
22374SOL    HW164850   0.699   8.563   2.963 -1.3355 -0.1131 -0.4262
22374SOL    HW264851   0.741   8.465   2.840 -1.3728 -0.5242 -0.1113
22376SOL     OW64852   8.986   4.837   0.450 -0.1972  0.4613 -0.2070
22376SOL    HW164853   9.009   4.934   0.459 -0.9902  0.7977 -1.6922
22376SOL    HW264854   8.954   4.802   0.538  0.7768  1.3576  0.5164
22377SOL     OW64855   9.193   6.390   3.199  0.2234 -0.0022 -0.0318
22377SOL    HW164856   9.146   6.436   3.123 -0.2536  1.5295  1.1737
22377SOL    HW264857   9.200   6.452   3.276 -1.7010 -2.3909  2.1686
22378SOL     OW64858   2.575   9.301   4.420 -0.3937 -0.4707  0.4323
22378SOL    HW164859   2.656   9.311   4.478 -1.3703  1.5334  1.5102
22378SOL    HW264860   2.596   9.335   4.328  0.6971 -2.2123  0.0225
22379SOL     OW64861   1.906   1.027   0.374  0.0529 -0.0821  0.2759
22379SOL    HW164862   1.819   1.033   0.325 -0.2080  0.1757  0.7683
22379SOL    HW264863   1.895   0.970   0.456  0.2997  0.1100  0.4439
22380SOL     OW64864   8.121   5.335   5.387 -0.0365 -0.0126 -0.1548
22380SOL    HW164865   8.026   5.366   5.380  0.0529  0.1851 -0.5400
22380SOL    HW264866   8.130   5.271   5.463 -0.5440 -0.2699 -0.3077
22381SOL     OW64867   4.587   0.408   4.118 -0.4155  0.3370  0.0684
22381SOL    HW164868   4.631   0.422   4.029 -0.2366 -2.2537 -0.2700
22381SOL    HW264869   4.495   0.448   4.117 -0.2154  0.7710 -1.0970
22382SOL     OW64870   3.086   2.070   4.204  0.2512  0.1088  0.2740
22382SOL    HW164871   3.106   2.083   4.107  0.3490  0.8203  0.3922
22382SOL    HW264872   3.115   1.978   4.231  1.1091  0.2497 -0.1448
22384SOL     OW64873   3.010   5.575   0.145 -0.1389  0.1835 -0.8125
22384SOL    HW164874   3.073   5.619   0.081  2.3420 -1.7085  0.2420
22384SOL    HW264875   3.046   5.583   0.238 -0.8573 -1.8958 -0.3182
22385SOL     OW64876   1.051   7.575   2.478 -0.2484 -0.0437  0.3917
22385SOL    HW164877   0.967   7.523   2.489 -1.1940  1.5272  0.7297
22385SOL    HW264878   1.037   7.669   2.510  1.0632  0.7654 -1.2973
22386SOL     OW64879   1.172   9.694   6.418  0.5343 -0.0028  0.4520
22386SOL    HW164880   1.156   9.770   6.481 -0.2595  0.6982 -0.5808
22386SOL    HW264881   1.177   9.608   6.470 -0.3652  0.5305  1.4362
22387SOL     OW64882   4.031   9.469   2.469  0.2514  0.4443  0.3513
22387SOL    HW164883   3.960   9.437   2.532  0.1790 -0.1915 -0.0472
22387SOL    HW264884   3.989   9.497   2.383  0.2332  2.3162  0.9440
22388SOL     OW64885   8.762   0.378   6.324 -0.4067 -0.1603  0.2918
22388SOL    HW164886   8.710   0.415   6.401 -0.1129 -1.2525  1.0087
22388SOL    HW264887   8.723   0.291   6.296  1.7224 -1.5643  1.5763
22389SOL     OW64888   9.998   1.088   1.300 -0.2092 -0.3260  0.2270
22389SOL    HW164889   9.938   1.105   1.222 -1.3294  0.5115  1.2605
22389SOL    HW264890   9.946   1.045   1.374  0.6774 -0.4637  0.7828
22390SOL     OW64891   9.179   4.218   3.995 -0.1162  0.4615  1.0781
22390SOL    HW164892   9.188   4.123   3.964  1.4086  0.6236  1.0119
22390SOL    HW264893   9.092   4.228   4.045 -0.3479 -0.9373  0.9861
22392SOL     OW64894   7.468   7.525   6.097  0.3367  0.0277  0.2354
22392SOL    HW164895   7.564   7.546   6.113  0.6674 -0.7709 -0.6723
22392SOL    HW264896   7.447   7.435   6.136  0.0799 -0.0151 -0.0002
22393SOL     OW64897   2.982   8.295   4.984  0.7691 -0.1006  0.3546
22393SOL    HW164898   2.914   8.222   4.990  0.5786  0.1373  1.1862
22393SOL    HW264899   2.936   8.383   4.988  1.0791  0.0660  0.2725
22394SOL     OW64900   4.582   3.007   1.929  0.0417  0.4524 -0.3825
22394SOL    HW164901   4.591   3.007   2.029  2.0320  0.5239 -0.5441
22394SOL    HW264902   4.495   2.964   1.904 -0.1876 -0.1608  1.3479
22396SOL     OW64903   3.440   9.393   5.297  0.0975 -0.5674  0.2210
22396SOL    HW164904   3.397   9.361   5.381 -0.3984 -0.0699  0.1570
22396SOL    HW264905   3.445   9.317   5.232 -1.5450 -0.4092 -0.1187
  10.00000  10.00000   8.18850
