chitosan Film  in water:acetic acid 2%
64905
    1CHTO  H203    1   5.612   6.956   5.971 -0.5633 -0.1674 -0.9392
    1CHTO   O82    2   5.600   6.872   5.932  0.3211 -0.5505 -0.3966
    1CHTO  C123    3   5.695   6.850   5.827  0.1531  0.3011 -0.1764
    1CHTO  H227    4   5.799   6.853   5.864  0.6832  0.5158 -1.6129
    1CHTO   O77    5   5.647   6.719   5.781 -0.5421  0.3472 -0.8298
    1CHTO  C118    6   5.730   6.659   5.686 -0.2601 -0.3954  0.1677
    1CHTO  H222    7   5.832   6.652   5.726 -0.2106  0.1377  0.1342
    1CHTO  C125    8   5.666   6.515   5.671  0.0647  0.3336  0.3869
    1CHTO   O84    9   5.534   6.505   5.632 -0.4030 -0.8306 -0.3533
    1CHTO  H205   10   5.508   6.415   5.626 -1.0579 -0.5925 -1.2327
    1CHTO  C114   11   5.738   6.744   5.557  0.0600 -0.2950 -0.9429
    1CHTO  H218   12   5.643   6.736   5.502  0.8022  2.6054 -2.7875
    1CHTO  C116   13   5.774   6.893   5.587 -0.0224  0.5486 -0.1847
    1CHTO  H220   14   5.879   6.881   5.620 -0.8221 -0.5871  2.1215
    1CHTO   O79   15   5.765   6.970   5.465  0.3727  0.1000  0.0568
    1CHTO  H201   16   5.675   6.987   5.447  1.1858  2.9199 -1.6299
    1CHTO  C120   17   5.682   6.953   5.704  0.1123 -0.0813  0.9737
    1CHTO  H224   18   5.575   6.955   5.672  0.2699 -2.7375  0.1388
    1CHTO   N21   19   5.723   7.091   5.742 -0.0363 -0.3824  0.2060
    1CHTO  H211   20   5.666   7.167   5.691 -0.3489 -1.3003 -0.8366
    1CHTO  H212   21   5.829   7.095   5.719  0.3496  1.4490  2.1314
    1CHTO   O75   22   5.841   6.689   5.481  0.5989  0.2368 -0.1987
    1CHTO  C112   23   5.828   6.699   5.324  0.7187 -0.3168  0.2955
    1CHTO  H216   24   5.784   6.795   5.291  0.9907 -0.5405 -0.7122
    1CHTO   O73   25   5.743   6.588   5.281 -0.0887 -0.5807  0.3130
    1CHTO  C113   26   5.718   6.594   5.138 -0.3265 -0.4077  0.2627
    1CHTO  H217   27   5.676   6.693   5.109  4.0406  1.2437 -0.7730
    1CHTO  C124   28   5.613   6.492   5.103 -0.2473 -0.1393 -0.1700
    1CHTO   O83   29   5.533   6.521   4.987  0.4619  0.0650 -0.8657
    1CHTO  H204   30   5.588   6.498   4.914  1.2322  0.5298 -0.4287
    1CHTO  C109   31   5.852   6.570   5.061  0.2302 -0.0199  0.0147
    1CHTO  H213   32   5.882   6.468   5.087  0.0462 -0.2532 -0.6726
    1CHTO  C110   33   5.963   6.676   5.098  0.3419  0.2111  0.3920
    1CHTO  H214   34   5.928   6.774   5.065 -0.3340  0.2178  1.1139
    1CHTO   O78   35   6.093   6.638   5.037  0.0604 -0.0787  0.2570
    1CHTO  H200   36   6.163   6.666   5.093 -0.7907  0.7315  0.9339
    1CHTO  C111   37   5.968   6.687   5.257 -0.4232 -0.5882 -0.1729
    1CHTO  H215   38   6.016   6.597   5.298 -0.3615 -0.4471  0.0632
    1CHTO   N19   39   6.049   6.803   5.300  0.1831  0.3673 -0.5363
    1CHTO  H207   40   6.075   6.794   5.405 -3.1945 -2.0485  0.1995
    1CHTO  H208   41   6.142   6.818   5.247 -0.2665  3.9273 -0.4616
    1CHTO   O74   42   5.824   6.573   4.922  0.6332 -0.4940  0.3376
    1CHTO  C115   43   5.828   6.413   4.846 -0.9288 -0.2966  0.1658
    1CHTO  H219   44   5.832   6.334   4.921 -0.4484  0.4210  0.9087
    1CHTO   O76   45   5.683   6.386   4.748 -0.3440 -0.1216 -0.2463
    1CHTO  C122   46   5.696   6.460   4.625 -0.6018 -0.3765  0.5771
    1CHTO  H226   47   5.705   6.567   4.641  2.1742 -0.3499 -0.8740
    1CHTO  C126   48   5.564   6.447   4.542 -0.0004 -0.5155 -0.1275
    1CHTO   O85   49   5.446   6.478   4.613  0.2850  0.8028 -0.5131
    1CHTO  H206   50   5.373   6.483   4.554 -0.0197  0.7915 -0.1363
    1CHTO  C121   51   5.821   6.408   4.536  0.5686  0.0404  0.6932
    1CHTO  H225   52   5.784   6.335   4.461  1.2126  0.8738 -0.4475
    1CHTO   O81   53   5.881   6.510   4.460 -0.2493  0.0994  0.5040
    1CHTO  H202   54   5.837   6.523   4.378  1.0486 -1.0820 -0.3891
    1CHTO  C119   55   5.931   6.336   4.615 -0.1942  0.8057  0.2171
    1CHTO  H223   56   5.892   6.238   4.641 -1.5133  1.0843 -0.6638
    1CHTO  C117   57   5.965   6.406   4.756 -0.3813 -0.0855 -0.1692
    1CHTO  H221   58   6.006   6.506   4.745 -1.1104  0.1439 -0.8205
    1CHTO   N20   59   6.071   6.333   4.837  0.0913 -0.3159 -0.5819
    1CHTO  H209   60   6.032   6.301   4.932  2.3739 -3.8915 -0.7852
    1CHTO  H210   61   6.154   6.402   4.843 -1.2937  1.3369  0.2288
    1CHTO   O80   62   6.058   6.297   4.535  0.0437 -0.5594 -0.0777
    1CHTO  C103   63   6.097   6.124   4.508  0.7411 -0.0584 -0.0879
    1CHTO  H190   64   6.077   6.069   4.600  1.2855 -0.7980 -0.4149
    1CHTO  C101   65   6.031   6.033   4.389 -0.3369 -0.0976 -0.4526
    1CHTO  H188   66   6.035   6.097   4.301  1.9372  1.6807  0.8999
    1CHTO   O68   67   5.855   6.014   4.410  0.5902  0.3261 -0.2111
    1CHTO  H168   68   5.825   6.027   4.498  0.6721 -0.4121 -0.0757
    1CHTO   C99   69   6.098   5.893   4.374 -0.4035 -0.5068 -0.0852
    1CHTO  H186   70   6.091   5.838   4.471 -0.2328 -2.6736 -1.2713
    1CHTO   N17   71   6.034   5.802   4.267 -0.3785 -0.0846  0.1558
    1CHTO  H174   72   6.102   5.788   4.185 -0.7244  3.1489 -0.7509
    1CHTO  H175   73   6.009   5.710   4.317 -2.1839  0.8787  1.0883
    1CHTO   C97   74   6.250   5.921   4.353  0.2854 -0.2882 -0.2494
    1CHTO  H184   75   6.263   5.976   4.259  1.1881 -2.0915 -1.1987
    1CHTO   O64   76   6.304   5.992   4.465 -0.2911  0.9797  0.6247
    1CHTO  C104   77   6.249   6.121   4.480 -0.0941  0.0516  0.1214
    1CHTO  H191   78   6.272   6.189   4.397  0.4397  1.5650  1.4853
    1CHTO  C108   79   6.324   6.180   4.598  0.0077 -0.0078 -0.7586
    1CHTO   O71   80   6.468   6.183   4.568 -0.3169  0.3542  0.3950
    1CHTO  H171   81   6.518   6.201   4.645  0.9811 -0.4778 -0.2473
    1CHTO   O62   82   6.332   5.804   4.348  0.4870  0.2137 -0.1202
    1CHTO   C91   83   6.468   5.828   4.302 -0.1178 -0.0422  0.5853
    1CHTO  H178   84   6.504   5.930   4.317  3.7265 -1.2306 -0.1294
    1CHTO   C92   85   6.461   5.810   4.148 -0.5780 -1.0092 -0.6342
    1CHTO  H179   86   6.363   5.843   4.111  0.1698  2.2830  0.1161
    1CHTO   O66   87   6.554   5.900   4.086 -0.4556  0.1623 -0.2385
    1CHTO  H166   88   6.642   5.871   4.099 -0.4869 -0.2840 -1.0216
    1CHTO   C93   89   6.490   5.660   4.099  0.1690  0.8389  0.3680
    1CHTO  H180   90   6.509   5.668   3.991 -4.0419 -0.1772 -0.5426
    1CHTO   N16   91   6.371   5.571   4.103  0.1204  0.2912  0.3015
    1CHTO  H172   92   6.303   5.597   4.023 -0.5299 -0.7412  0.5145
    1CHTO  H173   93   6.311   5.593   4.190 -1.6580  0.2541 -0.8755
    1CHTO   C94   94   6.610   5.595   4.173 -0.0086  0.6471  0.1077
    1CHTO  H181   95   6.586   5.501   4.222  0.6289  0.4026 -0.0486
    1CHTO   O61   96   6.673   5.683   4.267 -0.4674  0.3076  0.1780
    1CHTO   C95   97   6.583   5.740   4.366 -0.1543  0.4627  0.4944
    1CHTO  H182   98   6.535   5.660   4.423 -0.3569  0.3084  0.1109
    1CHTO  C106   99   6.654   5.828   4.479 -0.7295  0.4917 -0.1467
    1CHTO   O69  100   6.744   5.761   4.573 -0.0713  0.2594 -0.2718
    1CHTO  H169  101   6.717   5.767   4.663 -0.2920 -1.5520 -0.1992
    1CHTO   O63  102   6.700   5.565   4.057  0.8939 -0.3852  0.9254
    1CHTO   C96  103   6.815   5.441   4.084  0.0878  0.3937 -0.6500
    1CHTO  H183  104   6.758   5.366   4.138 -0.2790  0.3313 -1.1163
    1CHTO   C98  105   6.937   5.484   4.167  0.1028  0.0083  0.1803
    1CHTO  H185  106   6.898   5.545   4.250  0.4680 -1.3373  1.3674
    1CHTO   O67  107   7.000   5.370   4.232  0.0150 -0.6246  0.5132
    1CHTO  H167  108   7.054   5.407   4.299 -1.4169  0.3942  1.1504
    1CHTO  C102  109   7.050   5.565   4.078 -0.0602 -0.2883 -0.1598
    1CHTO  H189  110   7.140   5.549   4.138 -0.6682  0.9336  1.1119
    1CHTO   N18  111   7.038   5.719   4.070  0.4483  0.5797  0.4714
    1CHTO  H176  112   6.997   5.758   3.978  0.3146  0.6527  0.5623
    1CHTO  H177  113   6.995   5.762   4.160  0.3849 -0.5113  0.9700
    1CHTO  C105  114   7.078   5.489   3.947 -0.1492 -0.3666  0.2024
    1CHTO  H192  115   7.049   5.556   3.866 -0.5944  1.1988  1.6322
    1CHTO   O65  116   7.002   5.365   3.936  0.4865 -0.2702 -0.3149
    1CHTO  C100  117   6.860   5.376   3.943  0.0861  0.0942 -0.1098
    1CHTO  H187  118   6.834   5.441   3.859 -1.5059  1.0643  1.1041
    1CHTO  C107  119   6.796   5.238   3.900  0.2436  0.2389 -0.3175
    1CHTO   O70  120   6.652   5.244   3.896  0.2498  0.0119 -0.2325
    1CHTO  H170  121   6.616   5.296   3.827  0.2381  0.1655 -0.1092
    1CHTO   O57  122   7.240   5.481   3.941 -0.3713  1.1027 -0.3498
    1CHTO   C85  123   7.315   5.357   3.932 -0.5000 -0.5045  0.2001
    1CHTO  H157  124   7.283   5.298   3.843  0.6159 -2.4752  1.0798
    1CHTO   C83  125   7.291   5.264   4.053 -0.5573 -0.1166 -0.0867
    1CHTO  H155  126   7.195   5.214   4.040  0.2923 -1.8525  0.0480
    1CHTO   O56  127   7.285   5.346   4.172  0.5531  0.0849  0.0049
    1CHTO  H135  128   7.373   5.374   4.190  1.5926 -2.0533 -1.6105
    1CHTO   C81  129   7.411   5.154   4.065 -0.7967 -0.4928 -0.0019
    1CHTO  H153  130   7.409   5.098   3.972 -1.4027  0.1476 -0.3882
    1CHTO   N14  131   7.400   5.050   4.169 -0.2702  0.5977  0.1899
    1CHTO  H141  132   7.393   5.085   4.270 -0.5780 -1.2243  0.8138
    1CHTO  H142  133   7.471   4.971   4.164 -0.1202  0.6321  1.5821
    1CHTO   C79  134   7.545   5.234   4.080 -0.1858  0.0217  0.0261
    1CHTO  H151  135   7.626   5.164   4.096  0.2930  0.1740 -1.6058
    1CHTO   O52  136   7.571   5.294   3.950  0.0059 -0.1128  0.3922
    1CHTO   C86  137   7.469   5.397   3.919 -0.4277  0.1119 -0.2532
    1CHTO  H158  138   7.487   5.478   3.993 -0.1559  0.5675 -0.8127
    1CHTO   C90  139   7.493   5.460   3.781 -0.1631  0.4779 -0.3481
    1CHTO   O60  140   7.504   5.367   3.673 -0.3278  0.0739  0.6025
    1CHTO  H138  141   7.531   5.423   3.603 -2.2369 -1.2454 -1.2763
    1CHTO   O50  142   7.551   5.328   4.187  0.9144 -0.2751 -1.1159
    1CHTO   C73  143   7.667   5.347   4.274 -0.0698 -0.3471  0.5676
    1CHTO  H145  144   7.756   5.353   4.210 -0.3031  2.6369  0.4413
    1CHTO   C74  145   7.686   5.231   4.373  0.1320  0.1191 -0.3471
    1CHTO  H146  146   7.688   5.139   4.313  2.2689 -1.0340  1.4218
    1CHTO   O54  147   7.817   5.236   4.438  0.0634  0.0486  0.6649
    1CHTO  H133  148   7.890   5.213   4.383 -0.9102  0.0605 -0.6614
    1CHTO   C75  149   7.564   5.232   4.476 -0.2055  0.0397  0.4863
    1CHTO  H147  150   7.472   5.204   4.424 -1.3829  0.5155  2.2529
    1CHTO   N13  151   7.586   5.128   4.582 -0.4290  0.0333  0.5878
    1CHTO  H139  152   7.683   5.081   4.579 -0.3072  0.3649 -0.8151
    1CHTO  H140  153   7.568   5.168   4.681  1.9057 -0.5223  1.2598
    1CHTO   C76  154   7.547   5.375   4.546  0.3084  0.3386 -0.6743
    1CHTO  H148  155   7.631   5.397   4.611 -1.4472 -0.8201  2.1083
    1CHTO   O49  156   7.539   5.479   4.447  0.3857  0.6497  0.0657
    1CHTO   C77  157   7.654   5.482   4.360  0.1763 -0.1651 -0.4112
    1CHTO  H149  158   7.735   5.489   4.431  0.4036  0.3696 -0.7184
    1CHTO   C88  159   7.647   5.615   4.281 -0.1842  0.0705  0.1353
    1CHTO   O58  160   7.523   5.608   4.188  0.4668 -0.1377  0.7273
    1CHTO  H136  161   7.455   5.658   4.228 -1.1762  0.2373 -2.3958
    1CHTO   O51  162   7.398   5.387   4.630 -0.2331  0.8290 -0.1061
    1CHTO   C78  163   7.362   5.525   4.686  0.0120  0.2330 -0.7375
    1CHTO  H150  164   7.423   5.605   4.640  2.2464  0.0394  1.7957
    1CHTO   C80  165   7.374   5.531   4.842 -0.0214  0.3459  0.1076
    1CHTO  H152  166   7.302   5.457   4.883  0.2802 -1.0766 -1.8482
    1CHTO   O55  167   7.505   5.486   4.866 -0.2407 -0.4594  0.2267
    1CHTO  H134  168   7.517   5.452   4.953  0.2175  0.6531  0.6045
    1CHTO   C84  169   7.347   5.676   4.899  0.1288  0.2380 -0.8047
    1CHTO  H156  170   7.404   5.751   4.844 -0.6522  1.7884  0.4593
    1CHTO   N15  171   7.363   5.692   5.048 -0.0534  0.4305 -0.0069
    1CHTO  H143  172   7.434   5.769   5.070 -0.7811  0.9882  0.4263
    1CHTO  H144  173   7.271   5.717   5.097  1.1896 -0.1496  2.6959
    1CHTO   C87  174   7.207   5.715   4.844 -0.0164  0.1694 -0.4185
    1CHTO  H159  175   7.129   5.665   4.901  0.0809  1.5799  0.9982
    1CHTO   O53  176   7.183   5.684   4.695 -0.0092 -0.1290  0.4964
    1CHTO   C82  177   7.214   5.557   4.647  0.2357 -0.2624 -0.0213
    1CHTO  H154  178   7.142   5.487   4.690  1.0941  0.5362  2.8197
    1CHTO   C89  179   7.198   5.547   4.492  0.0484  1.0027  0.1933
    1CHTO   O59  180   7.067   5.593   4.457 -0.3414  0.1728  0.0746
    1CHTO  H137  181   7.083   5.679   4.424  2.0917  0.2731  1.3639
    1CHTO   O45  182   7.194   5.851   4.854 -0.2206 -0.0540  0.1631
    1CHTO   C67  183   7.075   5.916   4.811  0.3508  0.4953  0.4251
    1CHTO  H124  184   7.001   5.848   4.769 -0.2791  2.0318 -0.9878
    1CHTO   C65  185   7.009   5.992   4.930 -0.0989  0.4420  0.6889
    1CHTO  H122  186   6.998   5.922   5.013  2.3007  1.0082  1.5267
    1CHTO   O44  187   6.876   6.019   4.884 -0.2198 -0.6298  0.1653
    1CHTO  H102  188   6.804   6.029   4.943 -0.6555 -2.6734  0.0307
    1CHTO   C63  189   7.099   6.113   4.980  0.1310  0.4123 -0.6064
    1CHTO  H120  190   7.195   6.070   5.012 -0.9363 -0.3263  1.7075
    1CHTO   N11  191   7.064   6.182   5.106  0.5211  0.3049  0.3420
    1CHTO  H108  192   7.096   6.284   5.099  1.6224 -0.2104 -2.7410
    1CHTO  H109  193   7.107   6.130   5.190 -0.1639  1.0482  1.1600
    1CHTO   C61  194   7.131   6.209   4.858  0.0587 -0.6811 -0.0585
    1CHTO  H118  195   7.217   6.272   4.886 -0.9416  0.2808  0.9009
    1CHTO   O40  196   7.172   6.142   4.729 -0.0953 -0.0800 -0.1473
    1CHTO   C68  197   7.118   6.012   4.695  0.4851  0.7712  0.0233
    1CHTO  H125  198   7.202   5.960   4.644 -1.0601 -1.4173 -0.3785
    1CHTO   C72  199   7.005   6.029   4.588 -0.5077 -0.2588  0.4447
    1CHTO   O48  200   7.048   6.065   4.458 -0.1125  0.1132 -0.0790
    1CHTO  H105  201   6.977   6.083   4.399  1.3269 -0.1921 -1.9194
    1CHTO   O38  202   7.018   6.293   4.828  0.0484 -0.2798 -0.5521
    1CHTO   C55  203   7.034   6.398   4.732 -0.6177 -0.3359  0.4051
    1CHTO  H112  204   7.082   6.361   4.641 -2.0927  0.5688 -0.7566
    1CHTO   C56  205   7.102   6.528   4.785  0.4797  0.5085 -0.2272
    1CHTO  H113  206   7.038   6.576   4.859 -0.1008 -0.5861 -0.0042
    1CHTO   O42  207   7.224   6.509   4.851  0.2779 -0.1259  0.0329
    1CHTO  H100  208   7.293   6.489   4.790 -1.5893 -2.4684 -1.4107
    1CHTO   C57  209   7.113   6.630   4.668  0.2472  0.1776 -0.5697
    1CHTO  H114  210   7.179   6.579   4.597 -0.4330 -1.3045 -0.1601
    1CHTO   N10  211   7.180   6.756   4.705  0.3656 -0.3135  0.5592
    1CHTO  H106  212   7.257   6.744   4.779  1.3781  1.0055 -0.2530
    1CHTO  H107  213   7.104   6.821   4.747  0.0280  0.0291 -0.5563
    1CHTO   C58  214   6.971   6.653   4.598 -0.4733 -0.1498 -0.5069
    1CHTO  H115  215   6.911   6.723   4.661  1.1282  3.1498 -2.5098
    1CHTO   O37  216   6.907   6.523   4.582  0.0806 -0.4980  0.2553
    1CHTO   C59  217   6.892   6.438   4.687  0.3343  0.7498 -0.0594
    1CHTO  H116  218   6.852   6.501   4.767 -0.9312 -0.3776  0.2125
    1CHTO   C70  219   6.787   6.332   4.667 -0.2544  0.1086  0.3006
    1CHTO   O46  220   6.662   6.400   4.653 -0.4248  0.5104  0.3083
    1CHTO  H103  221   6.584   6.348   4.645 -0.3078  0.6032 -1.8021
    1CHTO   O39  222   6.999   6.708   4.458 -0.1646 -0.4560 -0.0990
    1CHTO   C60  223   6.884   6.763   4.397  0.0018  0.6626 -0.1985
    1CHTO  H117  224   6.800   6.718   4.449  0.6198  1.8890  1.9548
    1CHTO   C62  225   6.872   6.913   4.418  0.8233  0.1747 -0.2271
    1CHTO  H119  226   6.887   6.940   4.525  2.2088  0.9341 -0.5917
    1CHTO   O43  227   6.984   6.985   4.357 -0.2104  0.8022  0.1098
    1CHTO  H101  228   6.956   7.074   4.351  2.5000  1.6919  0.0773
    1CHTO   C66  229   6.725   6.955   4.373  0.1182 -0.9446  0.3829
    1CHTO  H123  230   6.651   6.888   4.416 -1.2754 -1.6285 -2.8687
    1CHTO   N12  231   6.684   7.095   4.402  0.0705  0.1541  0.8409
    1CHTO  H110  232   6.594   7.108   4.344 -0.6670  0.1482  1.9759
    1CHTO  H111  233   6.758   7.161   4.361 -1.7437  1.5228 -0.3189
    1CHTO   C69  234   6.711   6.921   4.219  0.6597 -0.3275 -0.6123
    1CHTO  H126  235   6.785   6.980   4.162 -1.2783  1.7287 -1.0608
    1CHTO   O41  236   6.738   6.774   4.170  0.0077 -0.0844 -0.9572
    1CHTO   C64  237   6.878   6.716   4.246  0.5471  0.0108 -0.0690
    1CHTO  H121  238   6.968   6.759   4.197  1.2882 -3.0003 -1.4896
    1CHTO   C71  239   6.885   6.561   4.221  0.1578 -0.4196  0.2545
    1CHTO   O47  240   6.862   6.504   4.088 -0.4497 -0.2830  0.4123
    1CHTO  H104  241   6.907   6.422   4.084  0.0564 -0.0508  1.2260
    1CHTO   O34  242   6.561   6.963   4.159 -0.6422  0.3502  0.0976
    1CHTO   C49  243   6.436   6.971   4.070  0.1820 -0.1050 -0.2163
    1CHTO   H91  244   6.471   7.041   3.994  0.6564 -0.8824 -0.7163
    1CHTO   C47  245   6.318   7.029   4.147  0.4528 -0.4719  0.1717
    1CHTO   H89  246   6.339   7.136   4.126  0.4220 -0.4133  0.4329
    1CHTO   O33  247   6.338   7.008   4.291 -0.2788 -0.4280 -0.5883
    1CHTO   H70  248   6.389   6.932   4.310 -1.3960 -0.9449  0.4264
    1CHTO   C45  249   6.179   6.978   4.091 -0.7745 -0.1144 -0.0915
    1CHTO   H87  250   6.142   6.894   4.152 -0.4063 -1.4957 -1.6983
    1CHTO    N8  251   6.088   7.089   4.108 -0.1204 -0.0326 -0.1991
    1CHTO   H75  252   5.986   7.062   4.087 -0.2227 -1.0065  1.4790
    1CHTO   H76  253   6.126   7.180   4.065  1.1453 -0.5472 -0.1884
    1CHTO   C43  254   6.183   6.921   3.947 -0.0701  1.0991 -0.1183
    1CHTO   H85  255   6.081   6.887   3.930  1.4420 -5.4079  2.1630
    1CHTO   O29  256   6.272   6.813   3.961 -0.2161  0.0211  0.6060
    1CHTO   C50  257   6.402   6.833   4.019 -0.4218 -0.4390 -0.2777
    1CHTO   H92  258   6.429   6.767   4.102  0.1373 -0.9698 -0.8749
    1CHTO   C54  259   6.500   6.783   3.909 -0.2082 -0.8640  0.7327
    1CHTO   O36  260   6.492   6.873   3.797 -0.0232 -0.1713  0.2802
    1CHTO   H72  261   6.504   6.959   3.834  0.2705 -0.1633  0.1632
    1CHTO   O27  262   6.221   7.014   3.843  0.0094  0.5652 -0.3587
    1CHTO   C37  263   6.210   7.064   3.711 -0.8393  0.0896  0.0339
    1CHTO   H79  264   6.306   7.053   3.659 -0.8420 -0.3048  0.1119
    1CHTO   C38  265   6.108   6.982   3.632  0.9331  0.4352  0.5890
    1CHTO   H80  266   6.018   6.964   3.692  1.0533 -0.5140  0.4957
    1CHTO   O31  267   6.159   6.854   3.627 -0.0062 -0.2871  0.0436
    1CHTO   H68  268   6.098   6.785   3.644 -1.1922  0.4234 -1.2950
    1CHTO   C39  269   6.076   7.050   3.494 -0.3520 -0.1137 -0.3109
    1CHTO   H81  270   6.172   7.039   3.443  0.7419  2.2237  1.2065
    1CHTO    N7  271   5.975   6.970   3.415  0.1890  0.5166  0.2185
    1CHTO   H73  272   5.989   6.865   3.434  0.8890  1.0096  2.6196
    1CHTO   H74  273   5.874   7.000   3.437 -0.1078 -0.7114  0.5660
    1CHTO   C40  274   6.039   7.201   3.505 -0.4196  0.5128 -0.7643
    1CHTO   H82  275   5.945   7.208   3.559 -0.2913 -0.7630 -0.3505
    1CHTO   O26  276   6.149   7.269   3.571  0.5309  0.0807 -0.1629
    1CHTO   C41  277   6.171   7.223   3.707 -0.1230 -0.1094 -0.0175
    1CHTO   H83  278   6.074   7.237   3.756  0.3677  1.0643  0.6405
    1CHTO   C52  279   6.268   7.317   3.781 -0.5767 -0.3071  0.2685
    1CHTO   O35  280   6.216   7.446   3.791 -0.0468 -0.7519 -0.3782
    1CHTO   H71  281   6.260   7.517   3.748  0.4956 -1.0677 -0.3451
    1CHTO   O28  282   6.021   7.267   3.375  0.1171  0.3953  0.1319
    1CHTO   C42  283   6.123   7.326   3.289 -0.0130  0.5655  0.1708
    1CHTO   H84  284   6.215   7.294   3.337 -1.5296 -0.5673  2.4191
    1CHTO   C44  285   6.122   7.486   3.284  0.2803  0.3592  0.1113
    1CHTO   H86  286   6.022   7.515   3.250  0.0938 -2.3402 -1.7494
    1CHTO   O32  287   6.153   7.536   3.416 -0.1653 -0.0868 -0.1916
    1CHTO   H69  288   6.235   7.497   3.441  0.3677  0.7399 -0.6139
    1CHTO   C48  289   6.233   7.533   3.182 -0.3000  0.0655  0.4973
    1CHTO   H90  290   6.333   7.511   3.220  0.2374 -0.9986 -1.4912
    1CHTO    N9  291   6.230   7.688   3.170 -0.2098 -0.4439  0.2357
    1CHTO   H77  292   6.329   7.728   3.186 -0.7814  0.0441  2.8153
    1CHTO   H78  293   6.194   7.720   3.074 -1.6207 -0.6461  0.6735
    1CHTO   C51  294   6.208   7.460   3.043 -0.3138  0.5365  0.0115
    1CHTO   H93  295   6.106   7.479   3.010 -0.8405 -2.4156 -0.2176
    1CHTO   O30  296   6.227   7.317   3.065 -0.1278  0.2143  0.6486
    1CHTO   C46  297   6.119   7.263   3.147  0.0725  0.5145 -0.7313
    1CHTO   H88  298   6.024   7.288   3.100  0.6117  1.6262 -1.2561
    1CHTO   C53  299   6.155   7.108   3.145  0.4247  0.4925 -0.2272
    1CHTO   O72  300   6.170   7.045   3.016  0.0675  0.0549  0.3292
    1CHTO  H199  301   6.117   6.968   3.003  0.3563 -0.1470  0.3446
    1CHTO   O22  302   6.304   7.489   2.942 -0.1548  0.1135 -0.5857
    1CHTO   C31  303   6.269   7.508   2.802 -0.3268 -0.1537  0.1017
    1CHTO   H59  304   6.191   7.432   2.781 -0.1126 -1.0368  2.3282
    1CHTO   C29  305   6.216   7.644   2.755  0.4744  1.2818 -0.3199
    1CHTO   H57  306   6.287   7.726   2.777 -0.1950  1.0085  3.1530
    1CHTO   O21  307   6.101   7.679   2.830 -0.0475 -0.2687 -0.1255
    1CHTO   H37  308   6.086   7.771   2.814 -4.0578 -0.7684  0.2465
    1CHTO   C27  309   6.188   7.641   2.601 -0.1890 -0.5459  0.4610
    1CHTO   H55  310   6.117   7.560   2.583 -0.7800 -0.1844  1.1847
    1CHTO    N5  311   6.121   7.763   2.546 -0.3307  0.0010  0.6121
    1CHTO   H43  312   6.014   7.758   2.557 -0.4067 -1.1947 -0.5280
    1CHTO   H44  313   6.162   7.856   2.583 -0.3666 -0.0675  0.8258
    1CHTO   C25  314   6.315   7.609   2.526 -0.0829  0.6905  0.1437
    1CHTO   H53  315   6.391   7.688   2.541  0.2727  0.8529 -2.3490
    1CHTO   O17  316   6.352   7.477   2.577  0.0391  0.2586  0.1172
    1CHTO   C32  317   6.393   7.462   2.715 -0.0645  0.4777  0.3015
    1CHTO   H60  318   6.475   7.531   2.736 -0.2574  0.8380 -0.1152
    1CHTO   C36  319   6.433   7.309   2.726  0.7837  0.0858 -0.9552
    1CHTO   O25  320   6.326   7.219   2.692 -0.1640 -0.5256 -0.3926
    1CHTO   H40  321   6.284   7.186   2.768  0.7898  0.8633  0.7611
    1CHTO   O15  322   6.316   7.588   2.382  0.0507 -0.0410 -0.3805
    1CHTO   C19  323   6.290   7.618   2.243 -0.3550 -0.3810  0.0094
    1CHTO   H47  324   6.181   7.631   2.237 -0.5726 -1.0630  2.2446
    1CHTO   C20  325   6.377   7.749   2.198  0.0259  0.0332 -0.1427
    1CHTO   H48  326   6.482   7.743   2.231 -0.0454  1.6226  0.4308
    1CHTO   O19  327   6.309   7.851   2.280  0.2787  0.3926 -0.1414
    1CHTO   H35  328   6.351   7.865   2.362  2.5423  1.4178 -1.4159
    1CHTO   C21  329   6.375   7.768   2.046 -0.6205 -0.2091 -0.9219
    1CHTO   H49  330   6.283   7.820   2.019 -0.8414  0.6952  1.4624
    1CHTO    N4  331   6.479   7.871   2.007 -0.2097 -0.2298 -0.3009
    1CHTO   H41  332   6.569   7.847   2.062 -0.4927 -1.5481 -0.3996
    1CHTO   H42  333   6.441   7.966   2.039 -1.0132 -1.5457  2.7907
    1CHTO   C22  334   6.393   7.631   1.972 -0.1182 -0.3421  0.1494
    1CHTO   H50  335   6.497   7.600   1.980  0.0231  0.2053  0.5462
    1CHTO   O14  336   6.299   7.540   2.013 -0.3163 -0.6797  0.0352
    1CHTO   C23  337   6.322   7.504   2.145  0.0968  0.8952  0.1404
    1CHTO   H51  338   6.429   7.480   2.151  0.2958  1.4171 -1.1168
    1CHTO   C34  339   6.245   7.379   2.178 -0.2551 -0.2844  0.2359
    1CHTO   O23  340   6.300   7.317   2.294  0.2223  0.5572 -0.3395
    1CHTO   H38  341   6.242   7.249   2.321  3.2462 -2.0876 -0.1646
    1CHTO   O16  342   6.367   7.644   1.829 -0.3216  0.5130  0.0447
    1CHTO   C24  343   6.432   7.545   1.737  0.7844 -0.4469 -0.2602
    1CHTO   H52  344   6.466   7.456   1.789  1.4022 -0.0258  0.0710
    1CHTO   C26  345   6.556   7.610   1.675  0.5161 -0.2168 -0.3907
    1CHTO   H54  346   6.522   7.707   1.633 -0.6482 -0.3780  0.1481
    1CHTO   O20  347   6.653   7.632   1.774 -0.1471 -0.1997 -0.4687
    1CHTO   H36  348   6.711   7.700   1.744 -2.1555  2.2637  0.9656
    1CHTO   C30  349   6.611   7.529   1.555  0.2396  0.0774  0.7383
    1CHTO   H58  350   6.654   7.432   1.584 -0.2423  0.2509  2.0337
    1CHTO    N6  351   6.722   7.602   1.486  0.0441 -0.1178  0.4922
    1CHTO   H45  352   6.823   7.580   1.519  0.7396  0.2303 -1.3665
    1CHTO   H46  353   6.705   7.708   1.499  0.2663 -0.2467  1.9065
    1CHTO   C33  354   6.485   7.508   1.462 -0.0658  0.0107 -0.0504
    1CHTO   H61  355   6.436   7.604   1.446  0.8610  0.9022  2.1744
    1CHTO   O18  356   6.394   7.427   1.534 -0.0331  0.5800 -0.3456
    1CHTO   C28  357   6.324   7.502   1.634  0.3114 -0.9815  0.5016
    1CHTO   H56  358   6.283   7.590   1.585  1.9102 -0.9600 -0.8680
    1CHTO   C35  359   6.223   7.413   1.705 -0.0527  0.0553 -0.0817
    1CHTO   O24  360   6.110   7.376   1.619 -0.0672  0.0410  0.5070
    1CHTO   H39  361   6.054   7.450   1.614 -0.7827 -0.4165  1.6539
    1CHTO    O9  362   6.516   7.455   1.334 -0.5582  0.5548 -0.6161
    1CHTO   C13  363   6.400   7.501   1.208 -0.0046 -0.6310 -0.1016
    1CHTO   H26  364   6.425   7.609   1.193  1.1702 -1.0440 -1.2137
    1CHTO   C11  365   6.254   7.482   1.264  0.6732 -0.2794 -0.7024
    1CHTO   H24  366   6.247   7.546   1.353  1.3105 -0.0760 -0.7993
    1CHTO    O8  367   6.233   7.349   1.303 -0.2439  0.5003  0.3306
    1CHTO    H3  368   6.309   7.322   1.350 -1.9433 -1.8982  1.8514
    1CHTO    C9  369   6.153   7.541   1.164 -0.5727 -0.0738  0.0456
    1CHTO   H22  370   6.191   7.644   1.152 -1.9295  0.6491  1.6252
    1CHTO    N2  371   6.016   7.573   1.214  0.2465 -0.4326  0.7317
    1CHTO   H10  372   6.005   7.680   1.215 -2.9188 -0.6843 -0.8646
    1CHTO   H11  373   5.997   7.518   1.305  3.6662 -2.0557  0.5708
    1CHTO    C7  374   6.162   7.470   1.030 -0.1030  0.4807  0.3002
    1CHTO   H20  375   6.112   7.536   0.957 -0.8635 -1.4044 -0.9201
    1CHTO    O4  376   6.301   7.441   0.981  0.2107  0.7187 -0.5205
    1CHTO   C14  377   6.416   7.422   1.074  0.0733 -0.1427  0.7417
    1CHTO   H27  378   6.500   7.462   1.014  1.0283 -0.8614  1.5859
    1CHTO   C18  379   6.437   7.269   1.091 -0.9797 -0.0833  0.0563
    1CHTO   O13  380   6.556   7.231   1.160  0.4728  0.4480 -0.5159
    1CHTO    H7  381   6.547   7.206   1.250 -0.3484  0.3903 -0.6094
    1CHTO    O2  382   6.076   7.325   1.043 -0.2470 -0.9507  0.0219
    1CHTO    C1  383   6.097   7.229   0.937  0.1652  0.2375 -0.2713
    1CHTO   H14  384   6.205   7.218   0.915  0.4226 -0.2911  1.2433
    1CHTO    C2  385   6.015   7.258   0.803 -0.3461 -0.0122 -0.3942
    1CHTO   H15  386   5.908   7.258   0.825 -0.3256 -1.9252 -0.1877
    1CHTO    O6  387   6.059   7.388   0.754 -0.2468  0.9028  0.0532
    1CHTO    H1  388   5.987   7.448   0.743 -1.8187 -0.8058  0.6111
    1CHTO    C3  389   6.043   7.146   0.695  0.1087 -0.5040  0.2845
    1CHTO   H16  390   6.151   7.147   0.678 -0.2497  3.1748 -2.5104
    1CHTO    N1  391   5.970   7.171   0.565  0.0236  0.6209  0.6995
    1CHTO    H8  392   5.959   7.276   0.539  0.6543  0.3218 -0.8522
    1CHTO    H9  393   5.999   7.105   0.484 -1.9958 -0.2395  0.6489
    1CHTO    C4  394   5.997   7.009   0.760  0.9806  0.4031 -0.1693
    1CHTO   H17  395   5.889   7.013   0.776  0.4459 -0.1682 -3.4195
    1CHTO    O1  396   6.059   6.990   0.886 -0.0379  0.2328 -0.1096
    1CHTO    C5  397   6.050   7.092   0.984 -0.8918 -0.1057 -0.8123
    1CHTO   H18  398   5.943   7.090   1.007 -0.9565 -1.3092 -1.2055
    1CHTO   C16  399   6.137   7.051   1.103  0.2902 -0.0396  0.2315
    1CHTO   O11  400   6.084   6.928   1.160 -0.7235  0.4863  0.1542
    1CHTO    H5  401   5.991   6.924   1.151 -0.7284 -1.0613  0.7227
    1CHTO    O3  402   6.025   6.892   0.678  0.3045 -0.0883 -0.0806
    1CHTO    C6  403   5.956   6.767   0.724 -0.2116  0.3449  0.1319
    1CHTO   H19  404   5.917   6.778   0.825  0.1938 -0.4942  0.3895
    1CHTO    C8  405   5.842   6.739   0.618 -0.3916  0.3489 -0.2642
    1CHTO   H21  406   5.887   6.737   0.519  1.7171  0.5009  0.6640
    1CHTO    O7  407   5.745   6.850   0.626 -0.3736 -0.0409  0.1242
    1CHTO    H2  408   5.742   6.895   0.544 -1.1094 -0.8391 -0.3002
    1CHTO   C12  409   5.771   6.600   0.645  0.1262  0.1120  0.1568
    1CHTO   H25  410   5.723   6.608   0.744  3.3574 -1.7849  1.9703
    1CHTO    N3  411   5.675   6.559   0.548  0.1468 -0.1268  0.4997
    1CHTO   H12  412   5.675   6.629   0.466  0.4239 -0.3035  0.3460
    1CHTO   H13  413   5.685   6.453   0.528  0.6411  0.4230 -2.5168
    1CHTO   C15  414   5.889   6.495   0.656  0.8958  0.5544 -0.0873
    1CHTO   H28  415   5.940   6.493   0.560  1.9181  2.7682  0.3563
    1CHTO   O10  416   5.867   6.360   0.701  0.4803 -0.3130 -0.5505
    1CHTO    H4  417   5.780   6.353   0.737  0.0876  1.2549 -1.1470
    1CHTO    O5  418   5.984   6.533   0.755  0.0006 -0.1178 -0.2034
    1CHTO   C10  419   6.059   6.648   0.725  0.4390 -0.7883  1.1912
    1CHTO   H23  420   6.113   6.638   0.631 -2.5943 -1.6087 -0.4991
    1CHTO   C17  421   6.170   6.665   0.829  0.1319  0.5619  0.0813
    1CHTO   O12  422   6.294   6.701   0.766 -0.1532 -0.2347 -0.4135
    1CHTO    H6  423   6.363   6.717   0.828  1.5250  0.5227 -2.4339
    2CHTO  H203  424   6.618   5.642   6.794 -0.6932 -0.1987 -1.5957
    2CHTO   O82  425   6.596   5.569   6.849  0.8630 -0.0516 -0.7547
    2CHTO  C123  426   6.466   5.532   6.812 -0.4939 -0.1984  0.0229
    2CHTO  H227  427   6.405   5.622   6.795  1.8901  1.6896  1.1977
    2CHTO   O77  428   6.482   5.460   6.687  0.4331  0.4868 -0.1981
    2CHTO  C118  429   6.358   5.427   6.623  0.0622 -0.6213  0.2746
    2CHTO  H222  430   6.303   5.518   6.596 -0.1185 -1.7286 -3.3704
    2CHTO  C125  431   6.396   5.350   6.493 -0.1087  0.2408  0.0871
    2CHTO   O84  432   6.447   5.449   6.408 -0.4665 -0.2281 -0.1950
    2CHTO  H205  433   6.404   5.436   6.325  1.0758  2.0762 -1.3924
    2CHTO  C114  434   6.279   5.333   6.716 -0.1466  0.1972 -0.0393
    2CHTO  H218  435   6.333   5.241   6.737  0.1007  0.1209 -0.9933
    2CHTO  C116  436   6.255   5.397   6.860 -0.4877  0.4038 -0.4009
    2CHTO  H220  437   6.185   5.483   6.863  0.4238  1.1518 -0.1706
    2CHTO   O79  438   6.194   5.291   6.935  0.4276 -0.5689  0.3283
    2CHTO  H201  439   6.181   5.324   7.022 -0.5206  3.6062 -1.2701
    2CHTO  C120  440   6.392   5.442   6.921  0.0119 -0.5752  0.0769
    2CHTO  H224  441   6.457   5.358   6.952  1.3175 -0.2590 -1.6903
    2CHTO   N21  442   6.367   5.514   7.045 -0.0504 -0.0638  0.8854
    2CHTO  H211  443   6.447   5.511   7.118  0.3721  1.7246  0.5306
    2CHTO  H212  444   6.350   5.619   7.025  1.0478 -0.0259  0.0836
    2CHTO   O75  445   6.157   5.300   6.651  0.0982  0.4346  0.3302
    2CHTO  C112  446   6.027   5.386   6.660 -0.1229  0.4919  0.0642
    2CHTO  H216  447   6.053   5.482   6.706 -0.1844  1.5463 -2.0699
    2CHTO   O73  448   5.936   5.311   6.746 -0.0666 -0.0931  0.2296
    2CHTO  C113  449   5.811   5.376   6.770  0.3506  0.5700  0.1667
    2CHTO  H217  450   5.836   5.470   6.824 -2.1263  1.8692 -0.8259
    2CHTO  C124  451   5.737   5.289   6.869  0.1809 -0.8590  0.3171
    2CHTO   O83  452   5.778   5.308   7.006  0.8302 -0.4027  0.4864
    2CHTO  H204  453   5.869   5.327   7.017  0.3968  1.0105  1.8549
    2CHTO  C109  454   5.730   5.409   6.637 -0.1354 -0.7046  0.0877
    2CHTO  H213  455   5.691   5.316   6.593 -0.5509 -0.0872 -0.8618
    2CHTO  C110  456   5.819   5.478   6.533 -0.3291 -0.0704  0.4651
    2CHTO  H214  457   5.834   5.583   6.556 -0.6501  0.1151 -0.1423
    2CHTO   O78  458   5.745   5.479   6.408  0.6030 -0.7397  0.3573
    2CHTO  H200  459   5.665   5.529   6.409 -0.0085 -1.7167  0.6023
    2CHTO  C111  460   5.956   5.401   6.516 -0.3707  0.4795  0.0142
    2CHTO  H215  461   5.929   5.303   6.476 -1.2066  0.4350  0.6647
    2CHTO   N19  462   6.047   5.465   6.418  0.5747 -0.2402 -0.1345
    2CHTO  H207  463   6.050   5.573   6.420  0.6007 -0.1895 -1.7742
    2CHTO  H208  464   6.068   5.414   6.325  0.3018 -1.7268  0.5995
    2CHTO   O74  465   5.616   5.499   6.672  0.0946  0.1156  0.4706
    2CHTO  C115  466   5.478   5.444   6.614  0.0649 -0.5835  0.1752
    2CHTO  H219  467   5.495   5.374   6.532  0.3559  0.3896 -0.6057
    2CHTO   O76  468   5.387   5.349   6.726  0.0462 -0.2953  0.8554
    2CHTO  C122  469   5.304   5.428   6.811  0.3463  0.1231 -0.5163
    2CHTO  H226  470   5.373   5.474   6.882 -0.2248 -1.4566  1.0921
    2CHTO  C126  471   5.218   5.339   6.902 -0.4541 -0.7489 -0.2518
    2CHTO   O85  472   5.133   5.415   6.987 -0.4194  0.2195 -0.3702
    2CHTO  H206  473   5.162   5.446   7.071 -0.3460  0.3987 -0.4635
    2CHTO  C121  474   5.206   5.532   6.739  0.3899  0.1811 -0.0744
    2CHTO  H225  475   5.100   5.501   6.747 -0.0463  1.3348 -1.2408
    2CHTO   O81  476   5.219   5.663   6.802 -0.0728  0.5211 -0.3425
    2CHTO  H202  477   5.146   5.720   6.784  0.7437  1.5078 -0.5842
    2CHTO  C119  478   5.238   5.537   6.585  0.4190 -0.6378  0.2416
    2CHTO  H223  479   5.210   5.439   6.546  1.7083 -1.6962  1.9230
    2CHTO  C117  480   5.387   5.565   6.564 -0.3246 -0.0996  0.2294
    2CHTO  H221  481   5.424   5.652   6.619  2.3793 -1.1668  0.1593
    2CHTO   N20  482   5.422   5.596   6.414  0.2509 -0.4735  0.1228
    2CHTO  H209  483   5.519   5.641   6.404  0.6442 -1.2676  0.2961
    2CHTO  H210  484   5.422   5.506   6.353 -1.7318 -0.5422  0.1778
    2CHTO   O80  485   5.129   5.639   6.506  0.5248 -0.5353  0.6862
    2CHTO  C103  486   5.007   5.577   6.421  0.0612  0.0134  0.0703
    2CHTO  H190  487   5.040   5.500   6.352  3.8953  1.6036  0.0034
    2CHTO  C101  488   4.884   5.527   6.503 -0.6550 -0.3210  0.3235
    2CHTO  H188  489   4.867   5.604   6.578 -1.8401 -0.4502  0.1920
    2CHTO   O68  490   4.929   5.386   6.593  0.0623 -0.1539  0.3744
    2CHTO  H168  491   4.854   5.330   6.596 -1.6644  2.0259 -0.8475
    2CHTO   C99  492   4.749   5.513   6.413 -0.6640  0.0236  0.7355
    2CHTO  H186  493   4.768   5.434   6.337 -1.6466  0.2560  0.2389
    2CHTO   N17  494   4.624   5.473   6.487 -0.4550 -0.0011 -0.0746
    2CHTO  H174  495   4.573   5.385   6.451 -0.0688 -1.0529  1.8777
    2CHTO  H175  496   4.626   5.488   6.594 -0.1884  1.2998 -0.2543
    2CHTO   C97  497   4.731   5.645   6.336 -0.9455  0.6060  0.4033
    2CHTO  H184  498   4.714   5.722   6.412  1.0396  0.5302  0.9612
    2CHTO   O64  499   4.846   5.668   6.255  0.0008  0.6219  0.3269
    2CHTO  C104  500   4.962   5.694   6.336  0.3979  0.2825  0.2401
    2CHTO  H191  501   4.940   5.778   6.402 -0.3987 -0.4971  0.9847
    2CHTO  C108  502   5.071   5.740   6.232 -0.3543  0.0834 -0.6272
    2CHTO   O71  503   5.169   5.833   6.289  0.1083 -0.0771 -0.0663
    2CHTO  H171  504   5.183   5.809   6.379  1.9758  1.0619 -0.0293
    2CHTO   O62  505   4.626   5.651   6.239  0.2973  0.3555  0.5097
    2CHTO   C91  506   4.579   5.783   6.214  0.2795 -0.6267  0.0996
    2CHTO  H178  507   4.587   5.852   6.298 -1.0362 -0.6654  0.2652
    2CHTO   C92  508   4.428   5.771   6.172  0.0883  0.0876 -1.0681
    2CHTO  H179  509   4.388   5.707   6.252  1.8636  0.6283  0.3063
    2CHTO   O66  510   4.366   5.899   6.186 -0.4406  0.1417  0.9063
    2CHTO  H166  511   4.387   5.940   6.268  0.1415 -0.1366  0.9037
    2CHTO   C93  512   4.404   5.711   6.034  0.1314  0.0353  0.1047
    2CHTO  H180  513   4.298   5.736   6.023  0.3016  1.4072  1.3979
    2CHTO   N16  514   4.423   5.563   6.013 -0.1944 -0.3391  0.5582
    2CHTO  H172  515   4.503   5.536   5.945  0.1048 -1.1388  1.2177
    2CHTO  H173  516   4.329   5.522   5.979 -0.8452  2.0712 -0.6437
    2CHTO   C94  517   4.491   5.785   5.924 -0.2676 -0.1531 -0.2995
    2CHTO  H181  518   4.562   5.716   5.879 -1.0811 -0.6768 -0.7831
    2CHTO   O61  519   4.563   5.891   5.986 -0.2637 -0.9081  0.3147
    2CHTO   C95  520   4.656   5.851   6.089 -0.3929 -0.6589  0.5612
    2CHTO  H182  521   4.723   5.777   6.045  1.2283 -0.0405  1.9443
    2CHTO  C106  522   4.746   5.978   6.121  0.7356 -0.4504 -0.1837
    2CHTO   O69  523   4.666   6.083   6.184  0.2414  0.5862 -0.4267
    2CHTO  H169  524   4.686   6.090   6.275  0.4204 -0.6800 -0.3488
    2CHTO   O63  525   4.406   5.855   5.808  0.1377  0.0263  0.4288
    2CHTO   C96  526   4.323   6.003   5.860 -0.7970 -0.4700  0.5096
    2CHTO  H183  527   4.358   6.033   5.959 -1.7378  2.9286 -0.1267
    2CHTO   C98  528   4.167   6.010   5.865  1.1278  0.1166  0.1225
    2CHTO  H185  529   4.123   5.962   5.776 -0.7158 -0.2607  1.2247
    2CHTO   O67  530   4.130   5.923   5.973 -0.1533 -0.3999 -0.4933
    2CHTO  H167  531   4.141   5.834   5.945  2.6163  0.4876 -2.4021
    2CHTO  C102  532   4.117   6.159   5.882 -0.5235  0.2297 -0.5402
    2CHTO  H189  533   4.179   6.202   5.962 -0.8193 -0.9795  0.3598
    2CHTO   N18  534   3.978   6.176   5.917  0.9112 -0.0153 -0.1702
    2CHTO  H176  535   3.938   6.256   5.858  0.8770 -0.3279 -0.5723
    2CHTO  H177  536   3.910   6.092   5.905 -1.3673  1.7646  0.0294
    2CHTO  C105  537   4.163   6.238   5.760  0.0244  0.1599 -0.4916
    2CHTO  H192  538   4.128   6.193   5.667  3.2972  0.1666 -1.8281
    2CHTO   O65  539   4.305   6.236   5.743 -0.0713  0.2019  0.2683
    2CHTO  C100  540   4.379   6.115   5.759  0.0870  0.7404 -0.8189
    2CHTO  H187  541   4.377   6.066   5.660 -1.3471  0.0531 -0.4534
    2CHTO  C107  542   4.528   6.150   5.782  0.6173  0.0767 -0.2723
    2CHTO   O70  543   4.592   6.210   5.678 -0.1494  0.5591  0.6331
    2CHTO  H170  544   4.586   6.167   5.594  1.5319 -0.3690  0.9717
    2CHTO   O57  545   4.115   6.385   5.751 -0.5983  0.0247  0.1238
    2CHTO   C85  546   4.107   6.441   5.618 -0.2759  0.5302 -0.5239
    2CHTO  H157  547   4.027   6.382   5.569  1.7722 -2.8229 -0.0147
    2CHTO   C83  548   4.228   6.412   5.524 -0.6392 -0.3460  0.5262
    2CHTO  H155  549   4.244   6.305   5.514  3.3893  0.2509 -0.3472
    2CHTO   O56  550   4.349   6.464   5.593 -0.2287  0.0424  0.0800
    2CHTO  H135  551   4.330   6.550   5.625  0.6475  0.6882 -1.1108
    2CHTO   C81  552   4.209   6.470   5.378 -0.5897 -0.2288 -0.5231
    2CHTO  H153  553   4.119   6.425   5.337 -0.9928 -1.4005  1.6063
    2CHTO   N14  554   4.315   6.443   5.278 -0.2126 -0.1337  0.6788
    2CHTO  H141  555   4.311   6.340   5.247  0.9994  0.4195 -1.4202
    2CHTO  H142  556   4.298   6.506   5.193 -2.4392 -1.5444  0.0259
    2CHTO   C79  557   4.185   6.624   5.389 -0.1617  0.0953 -0.2492
    2CHTO  H151  558   4.162   6.662   5.289 -0.5859  1.6790  0.4398
    2CHTO   O52  559   4.074   6.660   5.489 -0.2114  0.8172  0.4362
    2CHTO   C86  560   4.077   6.596   5.623 -0.6172 -0.0343  0.3596
    2CHTO  H158  561   4.157   6.651   5.677 -2.7568  1.6247  1.9192
    2CHTO   C90  562   3.955   6.631   5.708 -0.6441 -0.0396  0.4060
    2CHTO   O60  563   3.828   6.591   5.660  0.2137 -0.2652  0.0154
    2CHTO  H138  564   3.834   6.589   5.566  1.3072 -1.0255  0.0871
    2CHTO   O50  565   4.306   6.693   5.438  0.1483  0.1172  0.0554
    2CHTO   C73  566   4.354   6.819   5.407 -0.3605 -0.6390  0.2865
    2CHTO  H145  567   4.267   6.883   5.386 -0.8359 -0.4484  2.7407
    2CHTO   C74  568   4.455   6.821   5.287  0.5975 -0.2887 -0.0771
    2CHTO  H146  569   4.390   6.761   5.221  0.3820 -0.4294  0.2643
    2CHTO   O54  570   4.483   6.961   5.246  0.2515  0.2656  0.0013
    2CHTO  H133  571   4.433   7.028   5.289 -0.2970 -0.1402  0.0073
    2CHTO   C75  572   4.586   6.745   5.320 -0.6362 -0.1583 -0.1166
    2CHTO  H147  573   4.566   6.638   5.337 -1.9384  0.6314  3.8481
    2CHTO   N13  574   4.690   6.753   5.212 -0.6688  0.3680 -0.4494
    2CHTO  H139  575   4.711   6.855   5.186  4.3494 -0.1486  1.1376
    2CHTO  H140  576   4.645   6.700   5.130 -1.2262 -0.7562  0.5548
    2CHTO   C76  577   4.644   6.793   5.465  0.4290 -0.2680  0.8183
    2CHTO  H148  578   4.673   6.897   5.455  1.8751 -0.6779  0.5284
    2CHTO   O49  579   4.542   6.785   5.562 -0.1102  0.3591  0.4102
    2CHTO   C77  580   4.435   6.870   5.533  0.0416  0.1238  0.1077
    2CHTO  H149  581   4.475   6.968   5.505  0.8156 -0.1612  0.1946
    2CHTO   C88  582   4.347   6.902   5.656 -1.1287  0.8002 -0.1526
    2CHTO   O58  583   4.242   7.023   5.633  0.1076  0.4165  0.3483
    2CHTO  H136  584   4.277   7.099   5.592 -1.3107 -0.2362 -2.1896
    2CHTO   O51  585   4.777   6.689   5.505 -0.0540  0.1358  0.1404
    2CHTO   C78  586   4.882   6.741   5.609 -0.5549 -0.1701  0.3153
    2CHTO  H150  587   4.842   6.828   5.666  0.7032  0.6012  0.0506
    2CHTO   C80  588   5.013   6.787   5.542  0.5802  0.1591 -0.0609
    2CHTO  H152  589   5.055   6.694   5.500 -1.0219  0.4921 -2.5083
    2CHTO   O55  590   4.964   6.885   5.452 -0.4827  0.5139 -0.6525
    2CHTO  H134  591   5.029   6.901   5.386 -0.3768  0.8458 -0.4713
    2CHTO   C84  592   5.123   6.841   5.654  0.1167 -0.5938  0.0507
    2CHTO  H156  593   5.081   6.925   5.710  0.2691 -0.3456 -0.2140
    2CHTO   N15  594   5.258   6.890   5.603  0.9519  0.0149 -0.0954
    2CHTO  H143  595   5.325   6.814   5.571 -1.3252 -2.8731  1.7061
    2CHTO  H144  596   5.235   6.957   5.523  1.9448  0.7688  0.2383
    2CHTO   C87  597   5.138   6.721   5.753  0.0164  0.2548 -0.0589
    2CHTO  H159  598   5.195   6.637   5.713 -0.2834  0.5141 -1.0351
    2CHTO   O53  599   5.011   6.680   5.806 -0.5048 -0.4359  0.0416
    2CHTO   C82  600   4.914   6.632   5.713  0.3160  0.1619  0.3326
    2CHTO  H154  601   4.960   6.543   5.671  1.4972  1.2176 -0.6395
    2CHTO   C89  602   4.784   6.591   5.797 -0.8468  0.5497  0.1692
    2CHTO   O59  603   4.771   6.663   5.916 -0.2778 -0.0132  0.4840
    2CHTO  H137  604   4.728   6.745   5.903  0.4139  0.0877 -1.1998
    2CHTO   O45  605   5.235   6.771   5.891 -0.0646 -0.0133  0.2638
    2CHTO   C67  606   5.247   6.669   5.994 -0.9568 -0.0460 -0.2943
    2CHTO  H124  607   5.155   6.612   6.002 -0.1202 -1.2164  1.5443
    2CHTO   C65  608   5.361   6.558   5.954 -0.4274 -0.0683 -0.0458
    2CHTO  H122  609   5.415   6.611   5.876  0.9499 -0.1800  0.8076
    2CHTO   O44  610   5.301   6.442   5.893  0.2646  0.2685 -0.4551
    2CHTO  H102  611   5.242   6.395   5.949  1.0239 -1.8492 -1.3835
    2CHTO   C63  612   5.455   6.533   6.074  0.7253  0.6350  0.6496
    2CHTO  H120  613   5.518   6.620   6.091  2.6778 -0.9277  1.6662
    2CHTO   N11  614   5.556   6.425   6.055 -0.6245 -0.2005 -0.2858
    2CHTO  H108  615   5.624   6.459   5.980 -2.2020  2.4343 -0.5937
    2CHTO  H109  616   5.612   6.403   6.144  2.6215  2.3623 -1.5730
    2CHTO   C61  617   5.369   6.510   6.201  0.3763  0.3872  0.5322
    2CHTO  H118  618   5.435   6.480   6.284 -0.7422 -0.1467  1.2525
    2CHTO   O40  619   5.302   6.645   6.244  0.4832 -0.4562 -0.1778
    2CHTO   C68  620   5.272   6.734   6.138 -0.2847 -0.0460 -0.3442
    2CHTO  H125  621   5.350   6.812   6.123 -1.0774  0.7034 -0.6644
    2CHTO   C72  622   5.149   6.809   6.190  0.1973 -0.1268 -0.1484
    2CHTO   O48  623   5.171   6.949   6.209  0.2113  0.3030 -0.0085
    2CHTO  H105  624   5.089   6.979   6.241 -0.4590  0.4337 -1.7955
    2CHTO   O38  625   5.277   6.405   6.182  0.6796 -0.0840 -0.5315
    2CHTO   C55  626   5.197   6.354   6.291 -0.3820 -0.1426 -0.2027
    2CHTO  H112  627   5.179   6.439   6.357  2.8390 -1.9371  3.2030
    2CHTO   C56  628   5.277   6.239   6.360  0.5948  0.0820  0.3749
    2CHTO  H113  629   5.306   6.172   6.278  0.7449  1.7506 -0.9365
    2CHTO   O42  630   5.394   6.277   6.428  0.0600  0.0355  0.4392
    2CHTO  H100  631   5.454   6.326   6.376  1.7012 -1.0621  1.2675
    2CHTO   C57  632   5.181   6.159   6.459  0.0827 -0.1774 -0.4832
    2CHTO  H114  633   5.164   6.226   6.543  0.4141 -0.7287  0.0275
    2CHTO   N10  634   5.246   6.038   6.518  0.1569 -0.3064 -0.1080
    2CHTO  H106  635   5.228   5.947   6.463  1.5979  0.3033 -1.6235
    2CHTO  H107  636   5.212   6.024   6.620  0.3742 -1.9302 -0.2411
    2CHTO   C58  637   5.047   6.122   6.400 -0.4754  0.5750 -0.2646
    2CHTO  H115  638   5.055   6.040   6.325 -1.0536  0.9468 -0.7432
    2CHTO   O37  639   4.988   6.236   6.342  0.1550 -0.4308  0.7322
    2CHTO   C59  640   5.059   6.302   6.236 -0.2264  0.0773  0.2278
    2CHTO  H116  641   5.071   6.234   6.151 -0.2123  0.6830 -0.2594
    2CHTO   C70  642   4.980   6.421   6.185 -0.4456 -0.6304  0.1957
    2CHTO   O46  643   4.935   6.505   6.289  0.1132 -0.1085 -0.3901
    2CHTO  H103  644   4.847   6.539   6.280  0.1531  0.3004  0.7353
    2CHTO   O39  645   4.947   6.090   6.528 -0.3135  0.1084  0.1889
    2CHTO   C60  646   4.815   6.137   6.528  0.1066  0.5347 -0.2434
    2CHTO  H117  647   4.789   6.167   6.426  3.4445  1.6216 -0.8265
    2CHTO   C62  648   4.712   6.021   6.572 -0.3348  0.6159 -0.5064
    2CHTO  H119  649   4.727   5.933   6.505 -2.4387  0.6532 -1.0604
    2CHTO   O43  650   4.757   5.973   6.701  0.1615 -0.4215 -0.4638
    2CHTO  H101  651   4.702   5.902   6.728 -0.4372 -0.3412 -1.4187
    2CHTO   C66  652   4.558   6.075   6.556 -0.3840 -0.2989 -0.5739
    2CHTO  H123  653   4.548   6.100   6.451  0.3650 -1.2324 -0.8664
    2CHTO   N12  654   4.444   5.981   6.577  0.1560  0.2245  0.3315
    2CHTO  H110  655   4.439   5.927   6.483  1.6497  0.4001  0.1349
    2CHTO  H111  656   4.460   5.923   6.667  0.1130  1.0466  0.8701
    2CHTO   C69  657   4.540   6.206   6.634 -0.5593  0.2878 -0.3402
    2CHTO  H126  658   4.526   6.190   6.743  0.4912 -0.0938 -0.2502
    2CHTO   O41  659   4.661   6.299   6.619  0.3571  0.0158  0.1604
    2CHTO   C64  660   4.786   6.260   6.624  0.2909  0.1761 -0.4722
    2CHTO  H121  661   4.811   6.241   6.730 -1.3576  1.1786  0.1079
    2CHTO   C71  662   4.863   6.389   6.581  0.6087 -0.0171  0.3702
    2CHTO   O47  663   5.005   6.380   6.608 -0.8525 -0.5598  0.6226
    2CHTO  H104  664   5.046   6.463   6.591 -0.7588 -0.4354  1.4241
    2CHTO   O34  665   4.416   6.279   6.595 -0.2665 -0.0516 -0.1654
    2CHTO   C49  666   4.341   6.412   6.513  0.6050 -0.6991  0.3736
    2CHTO   H91  667   4.247   6.433   6.565 -0.0275 -0.9620 -0.6490
    2CHTO   C47  668   4.325   6.381   6.364 -0.2689  0.3852  0.4971
    2CHTO   H89  669   4.260   6.463   6.327 -1.0018 -0.8634 -1.0591
    2CHTO   O33  670   4.251   6.259   6.356  0.4767  0.0074  0.3377
    2CHTO   H70  671   4.300   6.195   6.308  3.1681  1.0152  1.6315
    2CHTO   C45  672   4.466   6.375   6.298  0.4408  0.3278 -0.9902
    2CHTO   H87  673   4.531   6.300   6.347  1.6315  1.7435 -0.3684
    2CHTO    N8  674   4.458   6.332   6.156  0.6222 -0.7676  0.2429
    2CHTO   H75  675   4.527   6.255   6.127 -0.5837 -1.3795 -1.0938
    2CHTO   H76  676   4.478   6.423   6.101  2.9629 -1.7289 -0.5311
    2CHTO   C43  677   4.540   6.519   6.312 -0.4804  0.1372  0.9011
    2CHTO   H85  678   4.637   6.515   6.263 -0.5589  0.9576  0.6911
    2CHTO   O29  679   4.552   6.553   6.450  0.3067  0.6320 -0.4720
    2CHTO   C50  680   4.427   6.545   6.527 -0.3442  0.4139  0.3158
    2CHTO   H92  681   4.469   6.530   6.628 -0.5508 -0.7219  0.2361
    2CHTO   C54  682   4.343   6.678   6.527  0.0493 -0.1782  0.5157
    2CHTO   O36  683   4.426   6.794   6.546 -0.7869 -0.3240 -0.6238
    2CHTO   H72  684   4.415   6.834   6.630  1.1769 -0.3295 -0.3533
    2CHTO   O27  685   4.469   6.620   6.240 -0.2353 -0.2768 -0.3256
    2CHTO   C37  686   4.442   6.725   6.145  0.4791 -0.1416 -0.4558
    2CHTO   H79  687   4.494   6.702   6.050  2.1501  2.0290 -0.1051
    2CHTO   C38  688   4.282   6.748   6.141 -0.0841  0.4830 -0.4215
    2CHTO   H80  689   4.251   6.751   6.246  0.5320 -1.3135 -0.1720
    2CHTO   O31  690   4.225   6.632   6.073 -0.4109 -0.6816  0.1920
    2CHTO   H68  691   4.149   6.603   6.120 -0.0020 -0.9976  0.6688
    2CHTO   C39  692   4.248   6.880   6.065  0.0980 -0.1875  0.5924
    2CHTO   H81  693   4.282   6.869   5.962 -1.4339  0.2233  0.0366
    2CHTO    N7  694   4.101   6.911   6.048 -0.0045 -0.4122 -0.2202
    2CHTO   H73  695   4.086   6.991   5.978  2.0243  0.3588  0.1843
    2CHTO   H74  696   4.045   6.828   6.007  1.2255 -1.1387 -0.4859
    2CHTO   C40  697   4.320   7.008   6.122  0.5917  0.3868 -0.0056
    2CHTO   H82  698   4.288   7.020   6.226  0.0992  0.6869 -0.1931
    2CHTO   O26  699   4.460   6.976   6.113 -0.4532  0.1405 -0.0512
    2CHTO   C41  700   4.500   6.861   6.198  0.0982  0.2172  0.2056
    2CHTO   H83  701   4.462   6.883   6.299  1.7176 -0.7320  1.0490
    2CHTO   C52  702   4.660   6.845   6.189 -0.7790  0.0527  0.7463
    2CHTO   O35  703   4.709   6.785   6.310  0.6057  0.2269  0.3515
    2CHTO   H71  704   4.701   6.849   6.378 -0.6994 -0.4789  0.8793
    2CHTO   O28  705   4.314   7.128   6.046 -0.5311  0.4737  0.0201
    2CHTO   C42  706   4.338   7.263   6.099  0.5421 -0.5444 -0.6549
    2CHTO   H84  707   4.346   7.325   6.009 -1.1857 -1.0897 -1.1926
    2CHTO   C44  708   4.469   7.276   6.179 -0.2774 -0.2871 -0.5732
    2CHTO   H86  709   4.474   7.201   6.258  0.8644  1.2579  0.8350
    2CHTO   O32  710   4.584   7.247   6.092 -0.3604 -0.3219 -0.0160
    2CHTO   H69  711   4.633   7.184   6.141 -0.4272  0.0426  0.5257
    2CHTO   C48  712   4.482   7.416   6.247 -0.8796 -0.2413 -0.0603
    2CHTO   H90  713   4.489   7.485   6.162  3.9763 -0.6791 -0.1490
    2CHTO    N9  714   4.613   7.423   6.329  0.0227 -0.1295  0.1237
    2CHTO   H77  715   4.611   7.482   6.420  0.2908 -0.3253  0.2562
    2CHTO   H78  716   4.690   7.454   6.261  1.1958 -1.4865  0.8138
    2CHTO   C51  717   4.355   7.457   6.319  1.1544  0.4035  0.3171
    2CHTO   H93  718   4.336   7.386   6.400 -1.4185 -0.8284 -1.3018
    2CHTO   O30  719   4.256   7.450   6.220  0.3423  0.3716  0.4753
    2CHTO   C46  720   4.216   7.308   6.179 -0.0479 -0.5513 -0.3038
    2CHTO   H88  721   4.214   7.246   6.269  1.6240  0.9274  0.7934
    2CHTO   C53  722   4.081   7.304   6.099  1.0436  1.3318 -0.0336
    2CHTO   O72  723   3.974   7.370   6.169 -0.1013  0.1472  0.6367
    2CHTO  H199  724   3.949   7.318   6.243 -0.2722 -1.8467 -0.7523
    2CHTO   O22  725   4.348   7.595   6.370 -0.1574 -0.3026 -0.0054
    2CHTO   C31  726   4.237   7.659   6.445 -0.6112 -0.2363 -0.4253
    2CHTO   H59  727   4.285   7.737   6.508  1.8318 -1.8242 -0.2681
    2CHTO   C29  728   4.133   7.722   6.348  0.1770 -0.3691  0.1416
    2CHTO   H57  729   4.103   7.646   6.275 -1.5535 -0.8914  1.3676
    2CHTO   O21  730   4.203   7.822   6.278 -0.1431 -0.1300 -0.0147
    2CHTO   H37  731   4.184   7.827   6.186  1.2881 -0.0031 -0.3104
    2CHTO   C27  732   4.007   7.774   6.418  1.3138  0.7202  0.1172
    2CHTO   H55  733   4.034   7.846   6.498 -0.4624  1.6306 -0.0821
    2CHTO    N5  734   3.916   7.842   6.319  0.3756  0.4716  0.4596
    2CHTO   H43  735   3.958   7.834   6.220  0.2195 -1.5096  0.5318
    2CHTO   H44  736   3.915   7.945   6.350 -0.5811  0.7624 -0.5084
    2CHTO   C25  737   3.942   7.656   6.492  0.2583  0.3061  0.0200
    2CHTO   H53  738   3.929   7.580   6.414 -1.4878  1.4527 -0.8517
    2CHTO   O17  739   4.040   7.600   6.588 -0.1399 -0.3661 -0.0248
    2CHTO   C32  740   4.171   7.556   6.542 -0.3029 -0.1912  0.6583
    2CHTO   H60  741   4.130   7.474   6.482  0.4569  0.6091 -0.9612
    2CHTO   C36  742   4.247   7.528   6.674 -0.1308  0.4272  0.7195
    2CHTO   O25  743   4.199   7.419   6.741 -0.4492 -0.3372  0.3772
    2CHTO   H40  744   4.237   7.414   6.827  0.0516 -1.3839  0.1061
    2CHTO   O15  745   3.815   7.692   6.554  0.1670 -0.2114  0.4600
    2CHTO   C19  746   3.744   7.613   6.649  0.2152  0.2135 -0.3995
    2CHTO   H47  747   3.642   7.650   6.632 -0.4681  0.3279  3.6166
    2CHTO   C20  748   3.745   7.456   6.627 -0.7457 -0.2858  0.0342
    2CHTO   H48  749   3.847   7.415   6.632 -1.5397 -3.0100 -3.8476
    2CHTO   O19  750   3.690   7.428   6.492 -0.2732 -0.3503  0.1667
    2CHTO   H35  751   3.701   7.335   6.480  0.1123 -0.4919  1.5412
    2CHTO   C21  752   3.656   7.387   6.739  0.0848 -0.2967  0.3530
    2CHTO   H49  753   3.551   7.399   6.712  0.2642 -1.5715 -0.9565
    2CHTO    N4  754   3.674   7.245   6.739 -0.1593  0.2996  0.6398
    2CHTO   H41  755   3.617   7.206   6.822  0.9165  0.0988  1.2894
    2CHTO   H42  756   3.636   7.199   6.648  2.2687 -2.5236  0.9543
    2CHTO   C22  757   3.681   7.446   6.883 -0.1274 -0.4752 -0.1631
    2CHTO   H50  758   3.779   7.410   6.912 -0.0514 -0.8898 -0.9298
    2CHTO   O14  759   3.674   7.592   6.890  0.1865 -0.3509  0.4352
    2CHTO   C23  760   3.778   7.648   6.803 -0.2114  0.0582  0.3872
    2CHTO   H51  761   3.879   7.614   6.832 -0.2591 -1.1163 -0.7760
    2CHTO   C34  762   3.770   7.797   6.837  0.2190  0.2075  0.1013
    2CHTO   O23  763   3.866   7.873   6.761  0.0768  0.1566  0.3658
    2CHTO   H38  764   3.854   7.966   6.773  1.3839  0.1047  2.2964
    2CHTO   O16  765   3.573   7.397   6.967 -0.6463  0.0093 -0.6068
    2CHTO   C24  766   3.609   7.411   7.129 -0.6002 -0.5044  0.1059
    2CHTO   H52  767   3.695   7.476   7.143 -2.0444  1.3549  0.4563
    2CHTO   C26  768   3.645   7.278   7.186  0.0844  0.1199 -0.2775
    2CHTO   H54  769   3.573   7.200   7.153  1.1783 -1.0786  0.1129
    2CHTO   O20  770   3.760   7.230   7.120 -0.4598  0.0908  1.0048
    2CHTO   H36  771   3.779   7.140   7.136  0.2625 -0.4832 -2.6405
    2CHTO   C30  772   3.664   7.282   7.342  0.5433  0.3996 -1.0155
    2CHTO   H58  773   3.765   7.313   7.373 -0.2415  0.9019  1.0859
    2CHTO    N6  774   3.661   7.142   7.394 -0.0513 -0.2446 -0.0881
    2CHTO   H45  775   3.753   7.091   7.366  0.2121  0.4927 -0.5746
    2CHTO   H46  776   3.578   7.091   7.348  1.3126 -2.1010 -0.5639
    2CHTO   C33  777   3.570   7.376   7.426 -0.6834 -0.0301  0.3309
    2CHTO   H61  778   3.476   7.322   7.446  0.8541 -3.2155 -0.6360
    2CHTO   O18  779   3.546   7.495   7.349 -0.3813 -0.3604  0.3346
    2CHTO   C28  780   3.499   7.469   7.213 -0.2078  0.7324 -0.1669
    2CHTO   H56  781   3.409   7.408   7.211  0.5637 -0.3959 -0.6178
    2CHTO   C35  782   3.446   7.604   7.150  0.1238 -0.7244 -0.6442
    2CHTO   O24  783   3.530   7.719   7.124 -0.2089 -0.3008 -0.3433
    2CHTO   H39  784   3.494   7.770   7.054 -0.1143 -0.6990 -0.6823
    2CHTO    O9  785   3.631   7.405   7.553  0.1749  0.1708  0.2196
    2CHTO   C13  786   3.569   7.541   7.630 -0.5369  0.2365 -0.2609
    2CHTO   H26  787   3.462   7.547   7.600 -1.5180 -2.5408  2.4219
    2CHTO   C11  788   3.650   7.673   7.585  0.2871  0.2339  1.7784
    2CHTO   H24  789   3.632   7.686   7.477  0.1817  1.0069  1.8907
    2CHTO    O8  790   3.789   7.651   7.599 -0.0674  0.4156 -0.3150
    2CHTO    H3  791   3.839   7.726   7.575 -2.3037  1.8263 -0.7700
    2CHTO    C9  792   3.588   7.784   7.671  0.3716  0.0173  0.1557
    2CHTO   H22  793   3.479   7.768   7.658  0.7927 -2.8869 -0.1423
    2CHTO    N2  794   3.603   7.923   7.617  0.4186 -0.0689  0.6598
    2CHTO   H10  795   3.693   7.959   7.667 -1.2087  2.1517  2.0911
    2CHTO   H11  796   3.522   7.992   7.632  1.0616  1.0007 -0.6378
    2CHTO    C7  797   3.641   7.765   7.819  0.1532 -0.1086 -0.1836
    2CHTO   H20  798   3.550   7.803   7.871 -0.4503 -0.2021 -1.1460
    2CHTO    O4  799   3.649   7.625   7.859 -0.1472 -0.2288  0.0298
    2CHTO   C14  800   3.568   7.525   7.791  0.9168  0.3154  0.4192
    2CHTO   H27  801   3.464   7.553   7.816  0.0553  0.1708 -2.8701
    2CHTO   C18  802   3.594   7.389   7.850 -0.0946  0.5694 -0.4576
    2CHTO   O13  803   3.475   7.311   7.838  0.4414 -0.2511  0.2740
    2CHTO    H7  804   3.477   7.257   7.915  2.9861 -2.8915 -1.5308
    2CHTO    O2  805   3.778   7.835   7.860 -0.2991 -0.2163  0.2310
    2CHTO    C1  806   3.794   7.851   8.003 -0.1203  0.4102 -0.0140
    2CHTO   H14  807   3.709   7.801   8.054  0.3733 -1.8388 -1.3606
    2CHTO    C2  808   3.797   8.004   8.045  0.4398 -0.0189 -0.9366
    2CHTO   H15  809   3.883   8.053   7.996 -0.3728  0.2596 -2.1016
    2CHTO    O6  810   3.673   8.063   7.999 -0.3990 -0.0364 -0.5473
    2CHTO    H1  811   3.689   8.120   7.926 -0.2359  1.2815  0.4932
    2CHTO    C3  812   3.816   8.015   8.207  0.2272  0.1658  0.7930
    2CHTO   H16  813   3.723   7.971   8.246  0.2881 -1.8509 -1.2282
    2CHTO    N1  814   3.826   8.154   8.259 -0.1817 -0.3254 -0.5356
    2CHTO    H8  815   3.844   8.168   8.365 -0.0120  2.7985 -0.9217
    2CHTO    H9  816   3.899   8.213   8.205 -0.3983  2.8740  2.4474
    2CHTO    C4  817   3.930   7.925   8.255 -0.1514 -0.0192 -0.1439
    2CHTO   H17  818   4.026   7.960   8.215 -0.6011  0.5049 -0.7805
    2CHTO    O1  819   3.922   7.792   8.196 -0.0452  0.6020 -0.0683
    2CHTO    C5  820   3.927   7.780   8.050  0.3733 -0.4166 -0.4162
    2CHTO   H18  821   4.011   7.835   8.007 -0.1181  1.4006  0.8582
    2CHTO   C16  822   3.943   7.628   8.014  0.5407  0.4590  0.7055
    2CHTO   O11  823   4.069   7.572   8.027 -0.3355  0.5421 -0.5703
    2CHTO    H5  824   4.062   7.479   8.039  0.3455  0.4591 -0.8096
    2CHTO    O3  825   3.923   7.908   8.398  0.1667  0.0393  0.1007
    2CHTO    C6  826   4.040   7.883   8.481  0.6685 -0.1752 -0.2015
    2CHTO   H19  827   4.137   7.885   8.432  0.8221  0.3912  0.1255
    2CHTO    C8  828   4.043   7.982   8.603  0.5501 -0.0425 -0.1822
    2CHTO   H21  829   3.938   7.990   8.632  0.3748  2.0144 -1.2772
    2CHTO    O7  830   4.084   8.112   8.557  0.5679  0.4080  1.0969
    2CHTO    H2  831   4.020   8.158   8.507  0.5870 -0.1956  0.5210
    2CHTO   C12  832   4.124   7.936   8.732  0.2694 -0.1428 -0.2204
    2CHTO   H25  833   4.229   7.960   8.704  0.4786  0.5389  1.1311
    2CHTO    N3  834   4.100   8.013   8.862 -0.2871  0.0495  0.1170
    2CHTO   H12  835   4.157   7.997   8.953 -0.7952  1.9267  0.7933
    2CHTO   H13  836   4.075   8.117   8.846  3.0251  0.6309 -1.6243
    2CHTO   C15  837   4.103   7.774   8.751 -0.2217  0.6461 -0.2532
    2CHTO   H28  838   4.002   7.757   8.787  0.4520 -0.6398  1.0754
    2CHTO   O10  839   4.213   7.721   8.848  0.5189  0.1298 -0.5918
    2CHTO    H4  840   4.213   7.777   8.924  0.8301  0.3788 -0.7770
    2CHTO    O5  841   4.128   7.710   8.629  0.1966  0.7088 -0.2928
    2CHTO   C10  842   4.027   7.738   8.531 -0.1454  1.2077 -0.4620
    2CHTO   H23  843   3.931   7.724   8.581  0.8518  0.2764  1.2480
    2CHTO   C17  844   4.025   7.622   8.428  0.9849  0.3130  0.3157
    2CHTO   O12  845   4.004   7.493   8.485 -0.0064 -0.3943  0.8026
    2CHTO    H6  846   3.967   7.442   8.416  0.6208 -1.2888  1.1183
    3CHTO  H203  847   5.516   3.835   4.221  0.9068 -1.0071  0.7082
    3CHTO   O82  848   5.458   3.766   4.195  0.3037 -0.2691  0.0701
    3CHTO  C123  849   5.452   3.750   4.054  0.6470 -0.6432 -0.0901
    3CHTO  H227  850   5.393   3.832   4.012  0.4189 -0.3453  0.7904
    3CHTO   O77  851   5.588   3.764   4.018  0.2454 -0.1371  0.4980
    3CHTO  C118  852   5.605   3.771   3.874  0.2870 -0.0597 -1.0970
    3CHTO  H222  853   5.538   3.852   3.842 -0.3365 -0.1743 -0.0951
    3CHTO  C125  854   5.748   3.804   3.839 -0.1038  0.1735 -0.6062
    3CHTO   O84  855   5.786   3.938   3.863 -0.1095 -0.2918  0.1618
    3CHTO  H205  856   5.842   3.946   3.938  1.3605 -0.4475 -0.8964
    3CHTO  C114  857   5.555   3.640   3.802 -0.1787 -0.2301 -0.1865
    3CHTO  H218  858   5.619   3.560   3.839 -0.7037  0.3612  2.0723
    3CHTO  C116  859   5.416   3.593   3.853 -0.5710 -0.2389  0.0033
    3CHTO  H220  860   5.346   3.650   3.787  0.1007 -0.6390 -1.0681
    3CHTO   O79  861   5.386   3.458   3.812  0.3578 -0.3500 -0.5268
    3CHTO  H201  862   5.294   3.451   3.831  0.0965  2.4298 -0.4766
    3CHTO  C120  863   5.392   3.614   4.013  0.0673 -0.2945 -0.0849
    3CHTO  H224  864   5.425   3.520   4.063  0.4926 -1.2340 -2.0558
    3CHTO   N21  865   5.247   3.597   4.041  0.6558 -0.7782 -0.0256
    3CHTO  H211  866   5.189   3.648   3.965 -0.2632  0.3908  1.4333
    3CHTO  H212  867   5.217   3.493   4.041 -0.3192 -0.5219  1.9150
    3CHTO   O75  868   5.570   3.656   3.656 -0.0050  0.1830 -0.4168
    3CHTO  C112  869   5.700   3.557   3.585 -1.0856 -0.2687 -1.0177
    3CHTO  H216  870   5.690   3.453   3.618 -0.3731  0.2524  0.9164
    3CHTO   O73  871   5.832   3.607   3.623 -0.1498  0.3762  0.7667
    3CHTO  C113  872   5.936   3.542   3.551  0.6855 -0.0707  0.5184
    3CHTO  H217  873   5.929   3.435   3.577  0.2478 -0.9799 -3.2205
    3CHTO  C124  874   6.071   3.605   3.587  0.4314 -0.1977  0.0842
    3CHTO   O83  875   6.118   3.540   3.703  0.1518  0.4880 -0.4656
    3CHTO  H204  876   6.070   3.563   3.780  2.1482  0.5918  0.7756
    3CHTO  C109  877   5.920   3.541   3.396 -0.0734  0.1116 -0.2093
    3CHTO  H213  878   5.918   3.648   3.370 -3.1996  0.9359  2.9418
    3CHTO  C110  879   5.783   3.472   3.363  0.0593  0.1120 -0.4402
    3CHTO  H214  880   5.782   3.374   3.412  1.1551 -0.9627 -2.5135
    3CHTO   O78  881   5.764   3.453   3.222 -0.1311  0.2750  0.2296
    3CHTO  H200  882   5.674   3.462   3.195  0.8549 -1.0727 -3.7633
    3CHTO  C111  883   5.674   3.563   3.431 -0.1839 -0.1885 -0.0993
    3CHTO  H215  884   5.693   3.663   3.389  0.0717 -0.4987 -0.7300
    3CHTO   N19  885   5.536   3.525   3.391 -0.1561  0.3565  0.0812
    3CHTO  H207  886   5.502   3.609   3.332  0.7071 -0.8235 -2.1659
    3CHTO  H208  887   5.478   3.510   3.481  3.6830  3.0619  3.1423
    3CHTO   O74  888   6.030   3.478   3.328  0.0593 -0.2011 -0.4007
    3CHTO  C115  889   6.100   3.570   3.219 -0.4888 -0.8811 -0.4355
    3CHTO  H219  890   6.071   3.674   3.231 -0.5603 -1.0655  1.0971
    3CHTO   O76  891   6.253   3.570   3.235 -0.5814 -0.1543 -0.6744
    3CHTO  C122  892   6.308   3.438   3.236 -0.1163  0.0630  0.1152
    3CHTO  H226  893   6.279   3.389   3.329  0.0011  0.1813  0.2138
    3CHTO  C126  894   6.466   3.452   3.239  0.1188  0.2079 -0.3003
    3CHTO   O85  895   6.527   3.320   3.249 -0.6316 -0.2800  0.1916
    3CHTO  H206  896   6.505   3.284   3.332  0.3311  1.6955  1.3494
    3CHTO  C121  897   6.260   3.358   3.109  0.3587  0.2515 -0.0267
    3CHTO  H225  898   6.349   3.307   3.067 -1.0259 -1.1072 -1.3781
    3CHTO   O81  899   6.177   3.254   3.159 -0.0284 -0.0030  0.0376
    3CHTO  H202  900   6.116   3.240   3.089 -0.6028  0.2833  0.4834
    3CHTO  C119  901   6.195   3.455   3.001  0.0478  0.6892  0.0682
    3CHTO  H223  902   6.280   3.522   2.984  1.6785 -1.3273  0.1103
    3CHTO  C117  903   6.069   3.525   3.065 -0.0035  0.6684 -0.3004
    3CHTO  H221  904   5.989   3.451   3.071  1.2996 -0.8155 -0.9844
    3CHTO   N20  905   6.020   3.640   2.980 -0.0356 -0.3712 -0.0501
    3CHTO  H209  906   6.087   3.725   2.982 -1.5989  1.0063 -2.6739
    3CHTO  H210  907   6.030   3.615   2.875  2.7609 -0.2654  0.1540
    3CHTO   O80  908   6.174   3.395   2.853  0.4590  0.8215 -0.3305
    3CHTO  C103  909   6.067   3.270   2.824  0.6859  0.0286 -0.1157
    3CHTO  H190  910   6.032   3.217   2.912 -3.7053  0.7245 -1.3626
    3CHTO  C101  911   5.933   3.310   2.751  0.3302 -0.2230 -0.2573
    3CHTO  H188  912   5.953   3.366   2.660 -0.0694 -1.1350 -0.9089
    3CHTO   O68  913   5.849   3.409   2.847  0.0255 -0.7803 -0.3463
    3CHTO  H168  914   5.861   3.371   2.932  0.7595  2.5336  1.0891
    3CHTO   C99  915   5.843   3.175   2.731 -0.1523  0.2472 -0.5838
    3CHTO  H186  916   5.825   3.130   2.831  0.2183 -0.0025 -0.6293
    3CHTO   N17  917   5.706   3.198   2.655 -0.1410 -0.1973  0.1320
    3CHTO  H174  918   5.702   3.153   2.557 -0.9796  2.4828 -1.1319
    3CHTO  H175  919   5.698   3.303   2.629 -2.3308 -0.9809 -2.6425
    3CHTO   C97  920   5.930   3.074   2.650  0.0537 -0.3669 -0.0998
    3CHTO  H184  921   5.949   3.114   2.549  0.8992  2.5358  1.1447
    3CHTO   O64  922   6.050   3.040   2.714 -0.1428 -0.0081 -0.0871
    3CHTO  C104  923   6.134   3.158   2.725  0.5562 -0.1023 -0.4430
    3CHTO  H191  924   6.157   3.204   2.629 -2.1081  1.0622 -0.5619
    3CHTO  C108  925   6.272   3.113   2.785 -0.0984  0.0551 -0.6668
    3CHTO   O71  926   6.331   3.006   2.707 -0.3181 -0.2960 -0.1863
    3CHTO  H171  927   6.318   3.025   2.616  0.8105  3.7835  0.3894
    3CHTO   O62  928   5.863   2.940   2.638 -0.0451  0.2613  0.4589
    3CHTO   C91  929   5.861   2.877   2.509  0.6428  0.6104 -0.2013
    3CHTO  H178  930   5.853   2.955   2.433  0.1522  0.1383 -0.6413
    3CHTO   C92  931   5.731   2.797   2.499 -0.3950 -0.0105 -0.4573
    3CHTO  H179  932   5.729   2.720   2.577 -1.2820  0.5973  0.1281
    3CHTO   O66  933   5.621   2.887   2.526  0.4669 -0.4279 -0.2055
    3CHTO  H166  934   5.558   2.840   2.577 -0.1659  0.2735 -0.3309
    3CHTO   C93  935   5.724   2.732   2.359  0.1654  0.4862 -0.0792
    3CHTO  H180  936   5.738   2.813   2.286  0.0508  0.3460 -0.2560
    3CHTO   N16  937   5.584   2.686   2.334 -0.2037 -0.5987  0.4609
    3CHTO  H172  938   5.569   2.684   2.227  0.6245  0.6072  0.3167
    3CHTO  H173  939   5.572   2.586   2.373 -0.7848 -0.7986 -0.2160
    3CHTO   C94  940   5.843   2.629   2.342  0.3486  0.0287  0.4488
    3CHTO  H181  941   5.813   2.528   2.369 -1.3969  0.2032 -0.7818
    3CHTO   O61  942   5.950   2.650   2.438  0.7517 -0.5552 -0.2785
    3CHTO   C95  943   5.982   2.788   2.475 -0.2438  1.5547  0.4396
    3CHTO  H182  944   6.049   2.781   2.560 -0.8047  0.6506  0.8101
    3CHTO  C106  945   6.067   2.854   2.354 -0.4998  0.2023 -0.4849
    3CHTO   O69  946   6.185   2.774   2.329 -0.3105  0.1466  0.4705
    3CHTO  H169  947   6.166   2.708   2.265 -0.1309 -0.6488  1.2077
    3CHTO   O63  948   5.900   2.641   2.177 -0.2320  0.9778 -0.3082
    3CHTO   C96  949   5.798   2.583   2.060  0.2106  0.0005 -0.6842
    3CHTO  H183  950   5.701   2.627   2.085 -0.5335 -2.2995  0.7120
    3CHTO   C98  951   5.762   2.437   2.054 -0.4194  0.3121  0.6257
    3CHTO  H185  952   5.859   2.386   2.044 -1.4230 -1.7211  0.9829
    3CHTO   O67  953   5.717   2.391   2.180  0.0795 -0.2097 -0.6900
    3CHTO  H167  954   5.626   2.412   2.189  0.0210 -1.0812  1.1558
    3CHTO  C102  955   5.660   2.392   1.936  0.4170 -0.3050  0.8305
    3CHTO  H189  956   5.558   2.397   1.978 -1.4254 -1.4464 -3.2456
    3CHTO   N18  957   5.674   2.251   1.889 -0.5648  0.2223  0.0691
    3CHTO  H176  958   5.767   2.246   1.833 -0.0163  3.5118  0.5823
    3CHTO  H177  959   5.674   2.186   1.975  5.2584 -3.5752 -2.4443
    3CHTO  C105  960   5.662   2.494   1.818 -0.2039  0.0558  0.2394
    3CHTO  H192  961   5.642   2.446   1.723 -0.6125  1.1873 -0.2621
    3CHTO   O65  962   5.790   2.566   1.801  0.4228  0.4750 -0.6935
    3CHTO  C100  963   5.856   2.626   1.910 -0.7180 -0.2753 -0.0239
    3CHTO  H187  964   5.956   2.581   1.902 -0.0982  0.8839  1.0024
    3CHTO  C107  965   5.866   2.777   1.899 -0.7578 -0.1197 -0.5240
    3CHTO   O70  966   5.957   2.814   1.794 -0.6643  0.0338 -0.1833
    3CHTO  H170  967   5.912   2.881   1.746  1.0274  0.6833 -0.9240
    3CHTO   O57  968   5.543   2.615   1.849  0.7066  0.0890 -0.5240
    3CHTO   C85  969   5.515   2.718   1.758  0.0412  0.1032  0.6944
    3CHTO  H157  970   5.596   2.720   1.683  0.1280  2.0943  0.8038
    3CHTO   C83  971   5.520   2.867   1.817 -0.5997 -0.0608  0.7927
    3CHTO  H155  972   5.626   2.883   1.834 -0.6440  0.9483  0.1565
    3CHTO   O56  973   5.455   2.875   1.937  0.0394  0.6584 -0.2384
    3CHTO  H135  974   5.490   2.947   1.987  1.8757 -0.3004 -0.0878
    3CHTO   C81  975   5.475   2.967   1.711  0.2467 -0.0283  0.2864
    3CHTO  H153  976   5.539   2.957   1.623  0.3175  0.2593  0.3059
    3CHTO   N14  977   5.483   3.111   1.753  0.1450  0.7529  0.2970
    3CHTO  H141  978   5.443   3.175   1.678 -0.0639 -0.4582 -0.6445
    3CHTO  H142  979   5.587   3.129   1.771  0.4506  0.5086 -1.1804
    3CHTO   C79  980   5.329   2.937   1.656 -0.2152 -0.0265  0.1784
    3CHTO  H151  981   5.309   3.014   1.581 -0.6793 -1.5937 -1.3315
    3CHTO   O52  982   5.329   2.806   1.596 -0.6253  0.1276 -0.0500
    3CHTO   C86  983   5.375   2.696   1.687  0.2108  0.0176  0.5587
    3CHTO  H158  984   5.291   2.682   1.758  1.1791  1.6244  2.0662
    3CHTO   C90  985   5.380   2.565   1.603 -0.0228 -0.3626 -0.1790
    3CHTO   O60  986   5.262   2.545   1.525  0.8530 -0.0624  0.6515
    3CHTO  H138  987   5.221   2.461   1.521 -0.7378  0.6807  0.5950
    3CHTO   O50  988   5.233   2.946   1.758  0.0580 -0.3909  0.0013
    3CHTO   C73  989   5.099   2.981   1.720 -0.3018  0.4200  0.0056
    3CHTO  H145  990   5.076   2.942   1.620 -0.7215  0.8571 -0.0707
    3CHTO   C74  991   5.073   3.133   1.717  0.3494 -0.2624 -0.2890
    3CHTO  H146  992   5.133   3.180   1.638 -0.5586  0.0971 -0.7690
    3CHTO   O54  993   4.941   3.155   1.669 -0.4050 -0.5851 -0.6742
    3CHTO  H133  994   4.884   3.131   1.740 -0.7522 -1.6660 -1.3101
    3CHTO   C75  995   5.099   3.192   1.856 -0.1372 -0.6050 -0.2747
    3CHTO  H147  996   5.206   3.178   1.873 -0.3546 -1.3971  0.5153
    3CHTO   N13  997   5.067   3.341   1.863 -0.5202  0.0777  0.3520
    3CHTO  H139  998   5.143   3.393   1.805  1.0083 -0.6411  1.6652
    3CHTO  H140  999   5.091   3.367   1.965  1.0861 -1.3765  0.3859
    3CHTO   C76 1000   5.008   3.121   1.970 -0.1518  0.4204  0.5317
    3CHTO  H148 1001   4.905   3.154   1.959 -1.5958 -3.4238  1.7175
    3CHTO   O49 1002   5.014   2.977   1.956 -0.4458  0.2004 -0.1701
    3CHTO   C77 1003   5.007   2.918   1.823  0.4830  0.4322 -0.2543
    3CHTO  H149 1004   4.905   2.934   1.791 -0.0652  0.7515  1.6043
    3CHTO   C88 1005   5.023   2.769   1.832 -0.0690 -0.7888  0.2070
    3CHTO   O58 1006   5.032   2.707   1.694 -0.2576  0.6250  0.2533
    3CHTO  H136 1007   4.961   2.646   1.698  0.1584  0.1250  0.0640
    3CHTO   O51 1008   5.063   3.145   2.107  0.2827 -0.3582 -0.1218
    3CHTO   C78 1009   4.956   3.123   2.235 -0.3748  0.1099 -0.4846
    3CHTO  H150 1010   4.876   3.047   2.222 -0.6691  0.4571 -0.6942
    3CHTO   C80 1011   4.889   3.257   2.254  0.3609  0.4854 -0.0520
    3CHTO  H152 1012   4.966   3.337   2.248  0.5769  0.2303 -0.8091
    3CHTO   O55 1013   4.795   3.282   2.146  0.3683  0.5140 -0.8687
    3CHTO  H134 1014   4.842   3.297   2.066  0.4851 -2.1164 -1.3385
    3CHTO   C84 1015   4.817   3.263   2.393  0.0628 -0.5286 -0.7047
    3CHTO  H156 1016   4.730   3.199   2.379 -0.2526 -0.1004 -0.7096
    3CHTO   N15 1017   4.768   3.400   2.439 -0.3058 -0.1170  0.6119
    3CHTO  H143 1018   4.811   3.485   2.390  2.9277 -2.1015 -0.0867
    3CHTO  H144 1019   4.661   3.407   2.439 -0.3813 -0.9165 -1.2527
    3CHTO   C87 1020   4.898   3.198   2.509 -0.2303 -0.4578 -0.0263
    3CHTO  H159 1021   4.982   3.261   2.541 -0.9119  0.4557 -0.0190
    3CHTO   O53 1022   4.950   3.063   2.474  0.0263  0.0795  0.5757
    3CHTO   C82 1023   5.035   3.077   2.354 -0.3932 -0.6514 -0.5135
    3CHTO  H154 1024   5.115   3.147   2.377 -0.9581 -0.1537 -0.0232
    3CHTO   C89 1025   5.099   2.932   2.346 -0.0551 -0.3948  0.2750
    3CHTO   O59 1026   5.183   2.919   2.466  0.2163 -0.8464 -0.3242
    3CHTO  H137 1027   5.251   2.857   2.446  0.3412 -1.1065  0.8480
    3CHTO   O45 1028   4.798   3.181   2.635  0.0343 -0.3458 -0.7318
    3CHTO   C67 1029   4.845   3.208   2.767  0.0372 -0.1143  0.1366
    3CHTO  H124 1030   4.954   3.201   2.768 -0.0261 -1.1118  0.6763
    3CHTO   C65 1031   4.808   3.356   2.812 -0.0304  0.1566 -0.3556
    3CHTO  H122 1032   4.730   3.389   2.743 -0.1137 -0.4119 -0.5307
    3CHTO   O44 1033   4.912   3.441   2.779  0.1222 -0.8759  0.7974
    3CHTO  H102 1034   4.980   3.442   2.844  0.9994 -1.7088 -0.0807
    3CHTO   C63 1035   4.745   3.364   2.956 -0.4774 -0.3789  0.2448
    3CHTO  H120 1036   4.641   3.333   2.943 -0.5833 -1.4161  3.2320
    3CHTO   N11 1037   4.722   3.502   3.008 -0.4071 -0.2175  0.5194
    3CHTO  H108 1038   4.689   3.571   2.932  0.1136 -1.6632 -1.0629
    3CHTO  H109 1039   4.815   3.533   3.050  0.6234 -0.6340 -1.4075
    3CHTO   C61 1040   4.834   3.278   3.055  0.4731  0.7695  0.4132
    3CHTO  H118 1041   4.771   3.279   3.146 -2.6584 -0.3701 -1.6567
    3CHTO   O40 1042   4.842   3.141   3.012  0.3580  0.0135  0.3329
    3CHTO   C68 1043   4.791   3.105   2.877  0.1943 -0.0730 -1.4126
    3CHTO  H125 1044   4.680   3.107   2.877  0.1839 -0.4330 -2.1057
    3CHTO   C72 1045   4.830   2.963   2.847  0.3245  0.4980  0.2895
    3CHTO   O48 1046   4.971   2.934   2.852 -0.0374  0.5654  0.1915
    3CHTO  H105 1047   5.022   3.002   2.812 -0.5777  1.9328  1.8037
    3CHTO   O38 1048   4.964   3.330   3.082 -0.4833  0.0294 -0.3157
    3CHTO   C55 1049   5.027   3.271   3.195  0.2959  0.4492  0.2176
    3CHTO  H112 1050   4.999   3.166   3.213  0.6558  0.1948 -0.6554
    3CHTO   C56 1051   5.020   3.358   3.326 -0.0862 -0.3834 -0.0074
    3CHTO  H113 1052   5.065   3.458   3.315 -0.3831  0.4597  5.1020
    3CHTO   O42 1053   4.883   3.380   3.367  0.0307  0.3646  0.0605
    3CHTO  H100 1054   4.847   3.461   3.339  1.2964  0.9241  0.0167
    3CHTO   C57 1055   5.099   3.283   3.439 -0.0633  0.4521 -0.1556
    3CHTO  H114 1056   5.045   3.191   3.459  1.2572 -0.6303 -1.3952
    3CHTO   N10 1057   5.105   3.356   3.563  0.6024 -0.2353  0.4338
    3CHTO  H106 1058   5.010   3.366   3.614 -0.7226 -0.2585 -1.9547
    3CHTO  H107 1059   5.177   3.306   3.626  1.6060  1.2554  0.5058
    3CHTO   C58 1060   5.237   3.239   3.393  0.8012  0.5359  0.2433
    3CHTO  H115 1061   5.303   3.327   3.380  0.3698  0.6919 -1.0049
    3CHTO   O37 1062   5.232   3.177   3.264 -0.4406 -0.2637 -0.6333
    3CHTO   C59 1063   5.175   3.251   3.158  0.4368 -0.2080  0.5731
    3CHTO  H116 1064   5.229   3.344   3.141  1.3441 -0.9103 -0.4822
    3CHTO   C70 1065   5.186   3.160   3.032 -0.4140  0.0377 -0.0839
    3CHTO   O46 1066   5.319   3.166   2.981 -0.6948 -0.3087  0.1550
    3CHTO  H103 1067   5.337   3.252   2.948 -0.5821 -0.8183 -1.1332
    3CHTO   O39 1068   5.296   3.129   3.498  0.2840 -0.6353 -0.7361
    3CHTO   C60 1069   5.434   3.098   3.472  0.0577 -0.0725 -0.5911
    3CHTO  H117 1070   5.474   3.140   3.381 -0.0316 -0.6214 -0.8882
    3CHTO   C62 1071   5.523   3.162   3.584  0.2676  0.1882 -0.2065
    3CHTO  H119 1072   5.508   3.271   3.574  1.9386  0.4568  0.0657
    3CHTO   O43 1073   5.471   3.118   3.711  0.1199 -0.4477 -0.9206
    3CHTO  H101 1074   5.420   3.185   3.754  1.7339 -0.8883  1.7999
    3CHTO   C66 1075   5.668   3.121   3.551  0.2611  0.2128 -0.0249
    3CHTO  H123 1076   5.694   3.149   3.449 -0.7204  0.8371 -0.1031
    3CHTO   N12 1077   5.763   3.183   3.645 -0.4996 -0.0277 -0.6672
    3CHTO  H110 1078   5.847   3.227   3.593 -0.2216 -0.7309 -0.8163
    3CHTO  H111 1079   5.727   3.269   3.700 -1.4112 -0.4172 -0.6399
    3CHTO   C69 1080   5.688   2.962   3.552 -0.2776 -0.4473  0.6711
    3CHTO  H126 1081   5.670   2.925   3.656 -2.9816  0.2323  0.4937
    3CHTO   O41 1082   5.591   2.892   3.445 -0.1557  0.5098  0.0534
    3CHTO   C64 1083   5.450   2.943   3.459  0.2943 -0.2526 -0.0161
    3CHTO  H121 1084   5.404   2.883   3.540 -0.2554  1.3018  0.8437
    3CHTO   C71 1085   5.372   2.890   3.333 -0.4860  0.2605 -0.4207
    3CHTO   O47 1086   5.436   2.925   3.212  0.1769  0.4987  0.0519
    3CHTO  H104 1087   5.527   2.903   3.217 -0.2961 -1.2040  1.4916
    3CHTO   O34 1088   5.827   2.926   3.518  0.0006 -0.1656 -0.4776
    3CHTO   C49 1089   5.933   2.872   3.419 -0.5164  0.0663  0.5867
    3CHTO   H91 1090   6.030   2.869   3.469 -0.2119 -1.0253 -0.0526
    3CHTO   C47 1091   5.939   2.975   3.306  0.2128 -0.2313 -0.1636
    3CHTO   H89 1092   6.021   2.940   3.239 -1.4480  0.7826 -2.8434
    3CHTO   O33 1093   5.979   3.106   3.368 -0.4325 -0.3848 -0.0089
    3CHTO   H70 1094   6.061   3.104   3.413 -0.3427  0.9101 -0.0984
    3CHTO   C45 1095   5.806   2.973   3.212 -0.3344  0.5718 -0.0193
    3CHTO   H87 1096   5.717   2.989   3.276 -0.5469 -0.5056 -0.0305
    3CHTO    N8 1097   5.809   3.077   3.106 -0.3842 -0.7549 -0.3424
    3CHTO   H75 1098   5.717   3.095   3.051  0.1253  1.5684 -0.5010
    3CHTO   H76 1099   5.842   3.171   3.148 -2.8244 -0.2794  0.5605
    3CHTO   C43 1100   5.777   2.828   3.150  0.2618  0.2320  0.5149
    3CHTO   H85 1101   5.676   2.827   3.108  0.8188 -1.1136 -0.8011
    3CHTO   O29 1102   5.788   2.730   3.259 -0.4376 -0.5139  0.1838
    3CHTO   C50 1103   5.893   2.738   3.355  0.3024  0.1410  0.2431
    3CHTO   H92 1104   5.854   2.674   3.436  0.7776  0.3504  0.6393
    3CHTO   C54 1105   6.017   2.650   3.311  0.5616  0.1102 -0.1544
    3CHTO   O36 1106   6.133   2.679   3.393  0.0539  0.3487  0.3863
    3CHTO   H72 1107   6.201   2.726   3.348 -0.2032 -1.6501 -2.2239
    3CHTO   O27 1108   5.867   2.787   3.046  0.4168  0.1885  0.4823
    3CHTO   C37 1109   5.891   2.661   2.978  0.0584 -0.5597  0.1942
    3CHTO   H79 1110   5.923   2.588   3.053 -1.1943 -0.0651  1.2301
    3CHTO   C38 1111   5.761   2.606   2.916 -0.8659 -0.2445  0.2728
    3CHTO   H80 1112   5.729   2.677   2.838  0.4254  0.4229  0.3413
    3CHTO   O31 1113   5.657   2.599   3.017  0.1590  0.2926 -0.0646
    3CHTO   H68 1114   5.636   2.509   3.029  0.7878  0.2093  0.4212
    3CHTO   C39 1115   5.797   2.467   2.851 -0.4867  0.3091 -0.2561
    3CHTO   H81 1116   5.824   2.403   2.935 -0.1306 -0.2817 -0.8135
    3CHTO    N7 1117   5.686   2.397   2.782  0.1553  0.4834 -0.1627
    3CHTO   H73 1118   5.727   2.306   2.740 -0.8198 -1.2757  2.5739
    3CHTO   H74 1119   5.609   2.364   2.850 -0.6613  0.5334 -1.0549
    3CHTO   C40 1120   5.913   2.484   2.744 -0.5154  0.4813  0.2613
    3CHTO   H82 1121   5.887   2.533   2.650  0.1156 -0.6609 -0.5234
    3CHTO   O26 1122   6.021   2.550   2.815 -0.8400 -0.1702 -0.4864
    3CHTO   C41 1123   6.000   2.676   2.874 -0.3847 -0.8032 -0.2811
    3CHTO   H83 1124   5.982   2.756   2.801  1.9282 -0.3089 -0.3505
    3CHTO   C52 1125   6.135   2.720   2.944  0.0492 -0.3560 -0.0805
    3CHTO   O35 1126   6.150   2.840   2.959  0.2027 -0.2060 -0.2236
    3CHTO   H71 1127   6.241   2.864   2.960 -0.0919  0.8951  0.1197
    3CHTO   O28 1128   5.974   2.353   2.709  0.2939  0.3087  0.1286
    3CHTO   C42 1129   6.066   2.328   2.604 -0.7889  0.3411  0.0695
    3CHTO   H84 1130   6.117   2.236   2.634  1.4703  2.0668  1.6692
    3CHTO   C44 1131   6.186   2.431   2.585  0.3780  0.5945  0.3762
    3CHTO   H86 1132   6.142   2.529   2.564  1.8781  1.1284 -0.3815
    3CHTO   O32 1133   6.262   2.431   2.707  0.3803  0.1749 -0.7816
    3CHTO   H69 1134   6.231   2.495   2.768 -0.0068 -1.2975  0.6036
    3CHTO   C48 1135   6.290   2.402   2.464 -0.3584 -0.5371 -0.1458
    3CHTO   H90 1136   6.362   2.322   2.481 -1.9299 -2.5292 -2.4576
    3CHTO    N9 1137   6.381   2.519   2.449 -0.7417 -0.2182  0.5002
    3CHTO   H77 1138   6.331   2.613   2.429 -0.7406 -0.5099 -0.9789
    3CHTO   H78 1139   6.457   2.521   2.524  1.1986 -1.6523 -1.3751
    3CHTO   C51 1140   6.204   2.365   2.343 -0.8133 -0.2477  0.2716
    3CHTO   H93 1141   6.145   2.455   2.320  1.7685  2.0718  2.3591
    3CHTO   O30 1142   6.121   2.255   2.375  0.2041  0.3254  0.2812
    3CHTO   C46 1143   5.998   2.304   2.462 -0.0054  0.3896 -0.1259
    3CHTO   H88 1144   5.957   2.396   2.422 -1.8461 -0.2536  0.2567
    3CHTO   C53 1145   5.882   2.205   2.476  0.4594 -0.0203 -0.1118
    3CHTO   O72 1146   5.914   2.074   2.522  1.0849  0.0481 -0.0088
    3CHTO  H199 1147   5.832   2.040   2.550  1.5839 -1.6321 -0.5218
    3CHTO   O22 1148   6.294   2.340   2.236 -0.0642 -0.0312  0.0136
    3CHTO   C31 1149   6.268   2.323   2.095 -0.4645 -0.2277  0.3577
    3CHTO   H59 1150   6.369   2.296   2.057 -0.1949 -0.3191  1.1341
    3CHTO   C29 1151   6.176   2.207   2.061 -0.3708 -0.1955 -0.1257
    3CHTO   H57 1152   6.081   2.242   2.106  0.5812  1.1294  0.9128
    3CHTO   O21 1153   6.233   2.092   2.126 -0.1493  0.2343  0.7835
    3CHTO   H37 1154   6.323   2.088   2.099  0.0514  0.3637  1.4191
    3CHTO   C27 1155   6.160   2.180   1.910  0.1719 -0.0612  0.4030
    3CHTO   H55 1156   6.259   2.147   1.872 -0.1956 -0.0041 -0.6226
    3CHTO    N5 1157   6.056   2.075   1.883 -0.6498 -0.2740  0.2667
    3CHTO   H43 1158   5.963   2.110   1.926 -0.7814 -1.8229  1.3046
    3CHTO   H44 1159   6.097   1.981   1.917 -0.9580 -0.3818  0.3435
    3CHTO   C25 1160   6.126   2.326   1.839 -0.0165 -0.9327 -0.4950
    3CHTO   H53 1161   6.025   2.352   1.873 -1.0112 -1.4591 -2.8973
    3CHTO   O17 1162   6.224   2.422   1.878  0.4090  0.1305  0.3946
    3CHTO   C32 1163   6.223   2.446   2.014 -0.2844 -0.5376 -0.2795
    3CHTO   H60 1164   6.118   2.462   2.038 -0.7976 -2.8308 -0.8578
    3CHTO   C36 1165   6.302   2.581   2.043  0.2478 -0.0139 -0.2671
    3CHTO   O25 1166   6.443   2.572   2.041  0.1064  0.1527  0.2631
    3CHTO   H40 1167   6.480   2.544   1.960 -2.4841 -1.6928 -0.3364
    3CHTO   O15 1168   6.128   2.299   1.690 -0.3470  0.3905  0.1369
    3CHTO   C19 1169   6.043   2.351   1.576  0.5413  0.7337  0.5929
    3CHTO   H47 1170   6.097   2.312   1.488 -1.5438  0.9205 -0.8194
    3CHTO   C20 1171   5.896   2.298   1.577 -0.4545 -0.0525  0.0408
    3CHTO   H48 1172   5.842   2.340   1.664 -0.4377 -1.6527  0.8332
    3CHTO   O19 1173   5.910   2.153   1.580  0.0469 -0.2928 -0.0876
    3CHTO   H35 1174   5.919   2.129   1.670  0.1030  0.0230 -0.0105
    3CHTO   C21 1175   5.810   2.338   1.450  0.5046  0.4188 -0.7124
    3CHTO   H49 1176   5.855   2.296   1.360  2.2131  0.4865  0.0897
    3CHTO    N4 1177   5.673   2.291   1.450  0.3217 -0.2575  0.4447
    3CHTO   H41 1178   5.665   2.192   1.493 -1.7201  0.4980  1.9165
    3CHTO   H42 1179   5.629   2.301   1.352  0.6535  1.1720  0.4286
    3CHTO   C22 1180   5.826   2.499   1.444  0.6405  0.3306 -1.0584
    3CHTO   H50 1181   5.778   2.540   1.534  1.6684 -0.3989 -0.1631
    3CHTO   O14 1182   5.963   2.544   1.450  0.0044 -0.2815  0.4010
    3CHTO   C23 1183   6.033   2.500   1.565  0.1313 -0.2285  0.5674
    3CHTO   H51 1184   5.970   2.541   1.646  2.6308 -0.2223  2.5505
    3CHTO   C34 1185   6.167   2.577   1.563 -0.0728  0.3593  0.1224
    3CHTO   O23 1186   6.140   2.715   1.572  0.3133 -0.4094  0.5463
    3CHTO   H38 1187   6.158   2.749   1.657  1.5043  0.4643 -0.0414
    3CHTO   O16 1188   5.776   2.549   1.320 -0.2956  0.2154  0.4904
    3CHTO   C24 1189   5.655   2.672   1.337  0.6359 -0.8327  0.2017
    3CHTO   H52 1190   5.615   2.682   1.437  0.2139  2.4021 -0.2363
    3CHTO   C26 1191   5.535   2.644   1.243  0.2360  0.5745 -0.0869
    3CHTO   H54 1192   5.576   2.638   1.140  1.4963  2.2506  0.2993
    3CHTO   O20 1193   5.492   2.510   1.276 -0.0024 -0.6196  0.1259
    3CHTO   H36 1194   5.451   2.474   1.200 -2.9997  1.0498  0.9018
    3CHTO   C30 1195   5.429   2.754   1.247 -0.1611 -0.1878  0.5885
    3CHTO   H58 1196   5.381   2.743   1.346 -1.3412  0.7588  0.1249
    3CHTO    N6 1197   5.324   2.730   1.143  1.2119 -0.1149  0.0267
    3CHTO   H45 1198   5.322   2.823   1.088 -1.1277 -0.5933 -0.7576
    3CHTO   H46 1199   5.228   2.710   1.187  0.1417  0.4716 -1.9928
    3CHTO   C33 1200   5.501   2.895   1.235 -0.0574 -0.9332  0.0538
    3CHTO   H61 1201   5.528   2.907   1.129  2.0772 -0.8790  0.5942
    3CHTO   O18 1202   5.620   2.909   1.315  0.1586 -0.1122 -0.6948
    3CHTO   C28 1203   5.720   2.804   1.308  0.5762 -0.1153 -0.5509
    3CHTO   H56 1204   5.750   2.804   1.203 -1.1719  3.1670 -1.1229
    3CHTO   C35 1205   5.846   2.833   1.398  0.4304  0.3356 -0.6653
    3CHTO   O24 1206   5.806   2.858   1.532 -0.3520  0.3871  0.1834
    3CHTO   H39 1207   5.726   2.812   1.552  1.2067 -0.9838  3.6337
    3CHTO    O9 1208   5.409   2.999   1.270 -0.0624  0.0695 -0.0474
    3CHTO   C13 1209   5.388   3.130   1.153  0.8431 -0.3304 -0.0996
    3CHTO   H26 1210   5.318   3.090   1.077  2.4829 -2.3519 -0.5835
    3CHTO   C11 1211   5.521   3.187   1.086  0.3803 -0.0274 -0.6775
    3CHTO   H24 1212   5.543   3.118   1.003 -0.3497  0.9044 -1.6471
    3CHTO    O8 1213   5.637   3.173   1.169  0.1764  0.4547  0.1094
    3CHTO    H3 1214   5.656   3.250   1.218 -0.8182 -0.5058  2.0619
    3CHTO    C9 1215   5.495   3.333   1.031  0.2877  1.0228 -0.1667
    3CHTO   H22 1216   5.401   3.325   0.974 -0.0300 -0.6291  0.5448
    3CHTO    N2 1217   5.589   3.383   0.934 -0.3807  0.6855  0.5131
    3CHTO   H10 1218   5.541   3.444   0.859  1.5423  1.3572 -0.2181
    3CHTO   H11 1219   5.666   3.442   0.981  1.6154  0.3369 -2.1621
    3CHTO    C7 1220   5.477   3.420   1.160 -0.5242 -0.0709 -0.2605
    3CHTO   H20 1221   5.460   3.518   1.111  2.7144 -0.2644 -1.9508
    3CHTO    O4 1222   5.372   3.376   1.246  0.4198 -0.8218  0.0343
    3CHTO   C14 1223   5.307   3.249   1.215  0.7346 -0.0286  0.4744
    3CHTO   H27 1224   5.217   3.275   1.157 -0.1743 -2.6095  0.6513
    3CHTO   C18 1225   5.256   3.210   1.362  0.3291  0.3308  0.0594
    3CHTO   O13 1226   5.149   3.292   1.406  0.4278  0.3463  0.2888
    3CHTO    H7 1227   5.178   3.369   1.451 -0.3981  1.7855 -1.6033
    3CHTO    O2 1228   5.622   3.414   1.250  0.4951 -0.1820 -0.3695
    3CHTO    C1 1229   5.618   3.505   1.364 -0.1702 -0.2190 -0.4149
    3CHTO   H14 1230   5.522   3.502   1.420  0.0442  0.3679 -0.0197
    3CHTO    C2 1231   5.659   3.654   1.343 -0.4676 -0.0816 -0.0859
    3CHTO   H15 1232   5.757   3.652   1.293 -0.7304  1.0158 -0.6471
    3CHTO    O6 1233   5.554   3.709   1.260  0.1128 -0.0226  0.4946
    3CHTO    H1 1234   5.555   3.675   1.173  1.9450 -4.0115  1.9421
    3CHTO    C3 1235   5.665   3.728   1.486 -0.0445  0.0052  0.3007
    3CHTO   H16 1236   5.559   3.734   1.517 -0.0879  1.8499 -0.1262
    3CHTO    N1 1237   5.713   3.871   1.472 -0.1409 -0.1204 -0.3163
    3CHTO    H8 1238   5.659   3.923   1.395 -1.7875 -1.4841 -0.1014
    3CHTO    H9 1239   5.710   3.910   1.572  2.1208 -0.5866 -0.0456
    3CHTO    C4 1240   5.746   3.641   1.597 -0.0297 -0.5612 -0.6861
    3CHTO   H17 1241   5.849   3.634   1.562  0.2793 -1.6388  0.4155
    3CHTO    O1 1242   5.692   3.504   1.600 -0.5865 -0.4583  0.2370
    3CHTO    C5 1243   5.709   3.437   1.472  0.2656  0.5599 -0.4458
    3CHTO   H18 1244   5.811   3.449   1.436  0.8327  2.2519  1.5970
    3CHTO   C16 1245   5.680   3.290   1.487 -0.2092  0.1138 -0.3815
    3CHTO   O11 1246   5.777   3.224   1.569  0.1021 -0.1220 -0.5463
    3CHTO    H5 1247   5.857   3.261   1.535 -0.5932  2.8717  0.8253
    3CHTO    O3 1248   5.729   3.684   1.732  0.8519  0.0971  0.4392
    3CHTO    C6 1249   5.856   3.696   1.807 -0.0855  0.1656 -0.6896
    3CHTO   H19 1250   5.934   3.645   1.751  0.9818  2.2002 -1.1037
    3CHTO    C8 1251   5.905   3.847   1.832  0.0115 -0.5508 -0.0924
    3CHTO   H21 1252   5.818   3.909   1.854 -0.7595 -1.5094 -0.3958
    3CHTO    O7 1253   5.966   3.888   1.708 -0.6375  0.2690 -0.1312
    3CHTO    H2 1254   5.900   3.899   1.642  0.6802  1.6445 -1.2605
    3CHTO   C12 1255   6.020   3.854   1.948  0.3504 -0.0105  0.1818
    3CHTO   H25 1256   6.110   3.810   1.899  1.6033  1.7633  0.8379
    3CHTO    N3 1257   6.059   3.996   1.989  0.3667 -0.9151  0.4076
    3CHTO   H12 1258   6.008   4.071   1.930  0.2375 -0.9863  0.4276
    3CHTO   H13 1259   6.049   4.018   2.095  1.1205  1.2218  0.0571
    3CHTO   C15 1260   5.964   3.769   2.070 -0.2022  0.2069 -0.8739
    3CHTO   H28 1261   5.875   3.809   2.118  0.5233 -0.3450  0.9787
    3CHTO   O10 1262   6.065   3.754   2.176  0.0991 -0.1824 -0.0696
    3CHTO    H4 1263   6.102   3.833   2.211  1.9959 -1.4457  0.8432
    3CHTO    O5 1264   5.939   3.630   2.033  0.2774 -0.6093 -0.3898
    3CHTO   C10 1265   5.835   3.614   1.941  0.2700  0.6930  0.3403
    3CHTO   H23 1266   5.745   3.648   1.992 -0.9769 -3.2761  0.9880
    3CHTO   C17 1267   5.819   3.460   1.923 -0.0150 -0.6760  0.2039
    3CHTO   O12 1268   5.943   3.402   1.899  0.0042  0.3031  0.0225
    3CHTO    H6 1269   5.913   3.325   1.854 -1.0520 -0.5304  2.0538
    4CHTO  H203 1270   5.551   9.060   2.053 -0.7241  1.0983 -1.0686
    4CHTO   O82 1271   5.536   9.007   1.977 -0.5866 -0.6715  0.1123
    4CHTO  C123 1272   5.641   8.912   1.966 -1.5684  0.2363 -0.1784
    4CHTO  H227 1273   5.605   8.823   1.912  0.8219  0.9578 -3.1535
    4CHTO   O77 1274   5.740   8.983   1.883  0.2297  0.5705  0.2828
    4CHTO  C118 1275   5.853   8.897   1.859 -0.3861  0.3358  0.2945
    4CHTO  H222 1276   5.823   8.804   1.807 -0.5519  0.9870 -0.7756
    4CHTO  C125 1277   5.945   8.975   1.762  0.3818 -0.2420 -0.0511
    4CHTO   O84 1278   6.014   9.079   1.825 -0.1491  0.3647  0.6802
    4CHTO  H205 1279   5.954   9.132   1.873  0.3940  0.1689  1.5819
    4CHTO  C114 1280   5.926   8.852   1.984 -0.1030 -0.5295 -0.3804
    4CHTO  H218 1281   5.957   8.942   2.037 -0.3948  0.6634 -2.2250
    4CHTO  C116 1282   5.832   8.778   2.085  0.3732 -0.6178 -0.2126
    4CHTO  H220 1283   5.800   8.683   2.036 -1.0061  0.6528 -1.8540
    4CHTO   O79 1284   5.908   8.741   2.204 -0.6896 -0.1402  0.1282
    4CHTO  H201 1285   5.963   8.669   2.179  1.2452  1.5476 -0.7135
    4CHTO  C120 1286   5.700   8.874   2.104 -0.7623  0.4718  0.6279
    4CHTO  H224 1287   5.739   8.968   2.150 -1.2937  0.8527  0.3067
    4CHTO   N21 1288   5.599   8.820   2.194  0.0375 -0.0520 -0.9999
    4CHTO  H211 1289   5.589   8.712   2.197  2.1023 -0.2363  0.4189
    4CHTO  H212 1290   5.503   8.867   2.180 -0.3497 -0.6005 -0.2409
    4CHTO   O75 1291   6.035   8.767   1.942 -0.0358 -0.7168  0.0359
    4CHTO  C112 1292   6.177   8.800   2.029 -1.2525  0.1111 -0.6740
    4CHTO  H216 1293   6.143   8.819   2.132  0.9563 -1.3996  0.3661
    4CHTO   O73 1294   6.238   8.914   1.973  0.1154 -0.0570 -0.6289
    4CHTO  C113 1295   6.363   8.959   2.018 -0.1007 -0.5319  0.2084
    4CHTO  H217 1296   6.372   8.975   2.127  2.7199  1.2196 -0.2422
    4CHTO  C124 1297   6.394   9.096   1.964 -0.4049  0.1298  0.0071
    4CHTO   O83 1298   6.430   9.110   1.822  0.2264  0.2664  0.3973
    4CHTO  H204 1299   6.380   9.065   1.756  0.4070  2.9622 -1.6995
    4CHTO  C109 1300   6.470   8.859   1.984  0.1214 -0.3789  0.0116
    4CHTO  H213 1301   6.471   8.846   1.875  0.6265 -2.0133  0.1868
    4CHTO  C110 1302   6.431   8.723   2.054 -0.6253  0.0076  0.5507
    4CHTO  H214 1303   6.463   8.737   2.158  0.7621  1.1971 -0.0100
    4CHTO   O78 1304   6.521   8.620   2.008 -0.3613 -0.3435  0.0523
    4CHTO  H200 1305   6.515   8.542   2.059  1.2819 -0.0518  0.7185
    4CHTO  C111 1306   6.283   8.679   2.028  0.3201  0.0834  0.6728
    4CHTO  H215 1307   6.277   8.642   1.925 -2.2652 -0.0989  0.8774
    4CHTO   N19 1308   6.234   8.569   2.118 -0.4486  0.0552  0.1361
    4CHTO  H207 1309   6.165   8.510   2.060 -0.1200 -0.7461  0.5571
    4CHTO  H208 1310   6.318   8.503   2.130 -0.1528  0.3363 -0.3593
    4CHTO   O74 1311   6.601   8.899   2.037 -0.1681  0.3399  0.1595
    4CHTO  C115 1312   6.716   8.902   1.929 -0.9473 -0.3525 -0.1862
    4CHTO  H219 1313   6.699   8.831   1.848 -0.1078  1.0439 -1.6146
    4CHTO   O76 1314   6.719   9.027   1.865  0.3755 -0.1629  0.8436
    4CHTO  C122 1315   6.808   9.122   1.917  0.1648 -0.0767  0.0336
    4CHTO  H226 1316   6.794   9.145   2.023 -0.0267  0.0566 -0.0201
    4CHTO  C126 1317   6.788   9.260   1.843 -0.1309 -0.1745 -0.4444
    4CHTO   O85 1318   6.665   9.312   1.878 -0.1369  0.3970 -0.3047
    4CHTO  H206 1319   6.668   9.405   1.875 -2.5816  0.6136  1.8730
    4CHTO  C121 1320   6.964   9.072   1.904  0.4026  0.9509  0.1525
    4CHTO  H225 1321   7.003   9.101   1.804  0.6436 -1.8995 -0.6213
    4CHTO   O81 1322   7.052   9.116   2.005  0.0289 -0.5615 -0.4994
    4CHTO  H202 1323   7.009   9.164   2.073 -0.4205  0.4482 -1.4772
    4CHTO  C119 1324   6.969   8.917   1.914  0.3085  0.6643 -0.3871
    4CHTO  H223 1325   6.947   8.882   1.813  0.9377 -0.3739 -0.1656
    4CHTO  C117 1326   6.852   8.864   2.004  0.1172  0.3116  0.3928
    4CHTO  H221 1327   6.840   8.913   2.101 -0.8381 -2.9274  2.0004
    4CHTO   N20 1328   6.870   8.714   2.037 -0.2173  0.7477  0.0096
    4CHTO  H209 1329   6.829   8.697   2.136 -1.5557  2.6701 -0.1900
    4CHTO  H210 1330   6.815   8.660   1.961  2.1559 -1.6306 -0.1030
    4CHTO   O80 1331   7.128   8.853   1.940  0.5119 -0.5099  0.1189
    4CHTO  C103 1332   7.256   8.944   1.897 -0.6155  0.5450 -0.4561
    4CHTO  H190 1333   7.222   9.037   1.853  0.8292  0.3399 -2.0665
    4CHTO  C101 1334   7.349   8.973   2.018 -0.0255  0.5317  1.4385
    4CHTO  H188 1335   7.387   8.878   2.055 -0.3982  0.0114  0.5015
    4CHTO   O68 1336   7.272   9.053   2.137  0.4931  0.2105 -0.9185
    4CHTO  H168 1337   7.227   9.128   2.101  1.8129  1.5424  0.1746
    4CHTO   C99 1338   7.465   9.063   1.956  0.1526  0.3115 -0.3469
    4CHTO  H186 1339   7.422   9.151   1.904 -1.5089 -0.6383 -0.6002
    4CHTO   N17 1340   7.565   9.111   2.057  0.3884  0.3500 -0.0249
    4CHTO  H174 1341   7.601   9.025   2.111 -3.1036 -1.1262  0.1015
    4CHTO  H175 1342   7.636   9.168   2.000 -0.6066  1.0503 -0.5884
    4CHTO   C97 1343   7.534   8.977   1.838  0.0387  0.1412  0.5450
    4CHTO  H184 1344   7.589   8.889   1.873  0.6548 -0.1611 -1.1237
    4CHTO   O64 1345   7.442   8.941   1.731  0.2337 -0.5015  0.3390
    4CHTO  C104 1346   7.327   8.866   1.785  0.2294 -0.2098 -0.1632
    4CHTO  H191 1347   7.367   8.772   1.825  0.0674 -0.7585 -1.2541
    4CHTO  C108 1348   7.245   8.820   1.662 -0.0579  0.4281  0.5206
    4CHTO   O71 1349   7.148   8.723   1.691  0.4233 -0.1252 -0.0627
    4CHTO  H171 1350   7.105   8.682   1.618 -0.3881 -1.4852  1.1340
    4CHTO   O62 1351   7.625   9.052   1.758 -0.2734 -0.5829  0.1390
    4CHTO   C91 1352   7.717   8.986   1.675 -0.0200  0.0977  0.2361
    4CHTO  H178 1353   7.737   8.888   1.717 -2.6581 -0.4755  0.2467
    4CHTO   C92 1354   7.851   9.081   1.687 -0.1631 -0.5736  0.6199
    4CHTO  H179 1355   7.880   9.091   1.792 -0.9487 -1.8072  0.9686
    4CHTO   O66 1356   7.954   9.004   1.620 -0.4070 -0.3424 -0.5787
    4CHTO  H166 1357   7.975   8.933   1.679 -2.2698 -1.0635 -0.7585
    4CHTO   C93 1358   7.822   9.222   1.608 -0.7366 -0.3886 -0.0123
    4CHTO  H180 1359   7.917   9.245   1.557 -1.7125  1.4773 -1.0698
    4CHTO   N16 1360   7.794   9.335   1.697 -0.6291  0.4244 -0.9560
    4CHTO  H172 1361   7.765   9.426   1.646 -0.7903  1.0490  0.2324
    4CHTO  H173 1362   7.883   9.354   1.756  0.3109  0.6279 -2.4118
    4CHTO   C94 1363   7.709   9.217   1.500 -0.0325  0.5508 -0.3620
    4CHTO  H181 1364   7.609   9.239   1.539 -0.5518  0.5411 -1.6332
    4CHTO   O61 1365   7.715   9.081   1.443  0.7312  0.0317 -0.4688
    4CHTO   C95 1366   7.666   8.971   1.527 -0.8369 -0.1774 -0.4208
    4CHTO  H182 1367   7.558   8.977   1.539 -0.8657  0.4288 -0.9507
    4CHTO  C106 1368   7.703   8.837   1.455  0.3247  0.7115 -0.6651
    4CHTO   O69 1369   7.609   8.735   1.492 -0.0381 -0.0727  0.0155
    4CHTO  H169 1370   7.656   8.654   1.487 -3.1597 -1.9973  0.3523
    4CHTO   O63 1371   7.750   9.331   1.372  0.6165 -0.2571 -0.0008
    4CHTO   C96 1372   7.653   9.322   1.260 -0.4527  0.2050 -0.0226
    4CHTO  H183 1373   7.567   9.261   1.288  0.5604 -0.1694  2.3810
    4CHTO   C98 1374   7.716   9.271   1.128  0.2112  0.2203  0.4420
    4CHTO  H185 1375   7.802   9.333   1.100 -0.5557  1.9966  1.8864
    4CHTO   O67 1376   7.770   9.138   1.153  0.4180  0.0319 -0.2559
    4CHTO  H167 1377   7.702   9.084   1.189  0.8841  1.4064  2.9126
    4CHTO  C102 1378   7.603   9.268   1.006  0.3448 -0.0103  0.0356
    4CHTO  H189 1379   7.530   9.189   1.031  1.2002 -0.6661  0.5184
    4CHTO   N18 1380   7.650   9.234   0.870  0.0264  0.1665 -0.5451
    4CHTO  H176 1381   7.612   9.304   0.797  1.8200  0.7809 -0.9066
    4CHTO  H177 1382   7.631   9.131   0.844 -0.3492  0.2160 -0.4768
    4CHTO  C105 1383   7.516   9.399   1.011  0.6827  0.8057 -0.5045
    4CHTO  H192 1384   7.514   9.450   0.915 -1.7794 -0.7103 -1.3107
    4CHTO   O65 1385   7.573   9.499   1.095 -0.5616  0.1060 -0.0901
    4CHTO  C100 1386   7.596   9.466   1.236  0.0346 -0.9766 -0.9373
    4CHTO  H187 1387   7.668   9.541   1.271  0.0261 -2.3993  2.3144
    4CHTO  C107 1388   7.460   9.490   1.308  0.3274  0.8271 -0.4157
    4CHTO   O70 1389   7.473   9.486   1.449  0.1444  0.2617 -0.1671
    4CHTO  H170 1390   7.514   9.559   1.491  2.2684 -0.0286 -1.6704
    4CHTO   O57 1391   7.367   9.347   1.030  0.8607  0.1594  0.5681
    4CHTO   C85 1392   7.274   9.397   0.926 -0.9718 -0.5171 -0.1300
    4CHTO  H157 1393   7.318   9.430   0.830 -1.7765  1.7849  0.2342
    4CHTO   C83 1394   7.217   9.541   0.968  0.0236  0.3180  0.2553
    4CHTO  H155 1395   7.296   9.617   0.967 -0.3309  0.6876 -0.6996
    4CHTO   O56 1396   7.171   9.522   1.109 -0.6737 -0.0622 -0.0745
    4CHTO  H135 1397   7.089   9.558   1.138 -0.6114  0.4457 -0.5253
    4CHTO   C81 1398   7.110   9.593   0.868 -0.8451 -0.0117 -0.2377
    4CHTO  H153 1399   7.154   9.602   0.769 -0.2247  1.5643  0.1663
    4CHTO   N14 1400   7.055   9.728   0.903 -0.3060  0.1404  0.4791
    4CHTO  H141 1401   7.013   9.742   1.000  0.6793  0.5388  0.8519
    4CHTO  H142 1402   7.129   9.801   0.878  1.3558 -1.4219  0.7434
    4CHTO   C79 1403   6.996   9.485   0.859  0.0475  0.6498 -0.5413
    4CHTO  H151 1404   6.923   9.516   0.784  1.0346  1.9402 -0.9896
    4CHTO   O52 1405   7.063   9.357   0.813  0.1935  0.0168  0.5917
    4CHTO   C86 1406   7.155   9.302   0.907 -0.5667  0.8039 -1.0296
    4CHTO  H158 1407   7.099   9.274   0.998  2.0407 -0.2953  0.2866
    4CHTO   C90 1408   7.217   9.170   0.857  0.0694 -0.8193 -0.1861
    4CHTO   O60 1409   7.129   9.061   0.835 -0.0634 -0.4618  0.1701
    4CHTO  H138 1410   7.174   8.988   0.796 -0.9034 -0.8650 -0.0544
    4CHTO   O50 1411   6.914   9.456   0.973 -0.1525  0.7322  0.1505
    4CHTO   C73 1412   6.788   9.401   1.020  0.4411 -0.4566  0.1682
    4CHTO  H145 1413   6.699   9.450   0.978 -0.1019 -0.7540  0.9418
    4CHTO   C74 1414   6.780   9.425   1.175 -0.2003 -0.5319  0.4779
    4CHTO  H146 1415   6.798   9.533   1.186  0.7628 -0.8320  1.9039
    4CHTO   O54 1416   6.638   9.402   1.214  0.0129  0.3596  0.4826
    4CHTO  H133 1417   6.637   9.318   1.256 -0.5594 -0.5562 -1.3263
    4CHTO   C75 1418   6.896   9.339   1.252  0.2803  0.4062 -0.2261
    4CHTO  H147 1419   6.995   9.375   1.222  0.7471 -1.0908 -0.4970
    4CHTO   N13 1420   6.896   9.356   1.399  0.3947  0.3409 -0.4801
    4CHTO  H139 1421   6.800   9.338   1.444  0.5776  0.2564 -0.1258
    4CHTO  H140 1422   6.961   9.289   1.453 -2.0003 -1.7449 -0.0641
    4CHTO   C76 1423   6.881   9.192   1.207 -0.6388  0.3940  0.5621
    4CHTO  H148 1424   6.789   9.147   1.244 -0.1535 -0.4009  0.8092
    4CHTO   O49 1425   6.888   9.184   1.058  0.0780  0.1504  0.9264
    4CHTO   C77 1426   6.775   9.250   1.002  0.0109  0.0342  0.6262
    4CHTO  H149 1427   6.682   9.216   1.047 -0.4647 -1.2338 -1.2462
    4CHTO   C88 1428   6.743   9.224   0.855  0.1438  0.6804 -0.3980
    4CHTO   O58 1429   6.749   9.075   0.844  0.2644 -0.1745 -0.5182
    4CHTO  H136 1430   6.837   9.057   0.819  0.1989 -0.6428 -0.4064
    4CHTO   O51 1431   7.023   9.108   1.273  0.1420  0.5751  0.4752
    4CHTO   C78 1432   7.068   8.982   1.203 -0.2893 -0.3236  0.1549
    4CHTO  H150 1433   7.088   8.996   1.094 -0.8613  2.1834  0.3569
    4CHTO   C80 1434   6.961   8.873   1.223 -0.4127 -0.0979  0.4067
    4CHTO  H152 1435   6.931   8.864   1.329 -0.8478 -1.2313  0.1899
    4CHTO   O55 1436   6.860   8.910   1.131  0.6173 -0.0620  0.2522
    4CHTO  H134 1437   6.811   8.984   1.162  2.9910  2.3199 -1.5425
    4CHTO   C84 1438   7.027   8.730   1.179  1.0078 -0.0277  0.1159
    4CHTO  H156 1439   7.033   8.740   1.070 -3.0748 -0.3876 -0.2122
    4CHTO   N15 1440   6.937   8.616   1.202 -0.3747  0.3082 -0.5009
    4CHTO  H143 1441   6.968   8.519   1.170  2.1195  1.3542 -1.3581
    4CHTO  H144 1442   6.896   8.612   1.301  0.7011  0.8505 -0.0343
    4CHTO   C87 1443   7.167   8.707   1.238 -0.0633  0.5757  0.1124
    4CHTO  H159 1444   7.167   8.681   1.344 -2.0287  0.1959  0.0409
    4CHTO   O53 1445   7.253   8.836   1.201  0.2734  0.8879  0.7995
    4CHTO   C82 1446   7.206   8.955   1.262  0.2411 -0.1790 -0.0319
    4CHTO  H154 1447   7.204   8.943   1.370 -1.4562 -1.0031 -0.1398
    4CHTO   C89 1448   7.308   9.069   1.233  0.7175 -0.6638  0.3032
    4CHTO   O59 1449   7.439   9.025   1.275  0.3493  0.4137 -0.2418
    4CHTO  H137 1450   7.459   9.036   1.366 -0.4513 -1.1032  0.1434
    4CHTO   O45 1451   7.244   8.581   1.170  0.4286 -0.0480 -0.4980
    4CHTO   C67 1452   7.365   8.543   1.235  0.3478 -0.4400  0.0707
    4CHTO  H124 1453   7.423   8.635   1.243 -0.4866  0.2517 -1.6422
    4CHTO   C65 1454   7.344   8.476   1.378  0.0062  0.1760  0.0549
    4CHTO  H122 1455   7.271   8.538   1.430 -0.7165  0.3045 -1.0893
    4CHTO   O44 1456   7.462   8.482   1.459 -0.1256  0.8180 -0.2004
    4CHTO  H102 1457   7.533   8.532   1.425 -0.1404  0.9694 -0.0064
    4CHTO   C63 1458   7.271   8.341   1.357  0.2706  0.2077  0.7317
    4CHTO  H120 1459   7.186   8.359   1.290 -1.1993 -0.3182  2.4121
    4CHTO   N11 1460   7.193   8.287   1.476 -0.5683  0.5486  0.2638
    4CHTO  H108 1461   7.200   8.347   1.564 -0.3888  0.9963 -0.0531
    4CHTO  H109 1462   7.180   8.183   1.498  0.5209  0.1867 -0.7315
    4CHTO   C61 1463   7.362   8.239   1.271  0.2522 -0.2031  0.1293
    4CHTO  H118 1464   7.290   8.166   1.232  1.5685 -1.0846 -0.6714
    4CHTO   O40 1465   7.428   8.303   1.163 -0.0348  0.7997 -0.0408
    4CHTO   C68 1466   7.446   8.445   1.138  0.1751  0.2800 -0.6159
    4CHTO  H125 1467   7.414   8.466   1.034 -0.7824 -0.4747 -0.4851
    4CHTO   C72 1468   7.594   8.474   1.141  0.2734 -0.4024  0.2387
    4CHTO   O48 1469   7.683   8.398   1.067  0.2871 -0.0833  0.0267
    4CHTO  H105 1470   7.665   8.392   0.975  2.9081 -1.7115 -0.4252
    4CHTO   O38 1471   7.458   8.171   1.350  1.1467 -0.0471 -0.2453
    4CHTO   C55 1472   7.483   8.039   1.290  0.0346 -0.3061 -0.2254
    4CHTO  H112 1473   7.439   8.034   1.189 -1.8940  0.1662  0.5695
    4CHTO   C56 1474   7.416   7.934   1.391 -0.2120  0.0260  0.2640
    4CHTO  H113 1475   7.458   7.953   1.490 -4.0020 -0.4150  2.0451
    4CHTO   O42 1476   7.277   7.943   1.400  0.7215  0.5490 -0.3570
    4CHTO  H100 1477   7.258   8.006   1.466 -0.6705 -2.4363  2.2291
    4CHTO   C57 1478   7.450   7.785   1.342  0.1998 -0.0825  0.0792
    4CHTO  H114 1479   7.405   7.776   1.243 -0.6179 -2.1238  0.6078
    4CHTO   N10 1480   7.410   7.680   1.437 -0.3513  0.8006 -0.1771
    4CHTO  H106 1481   7.313   7.703   1.478 -0.4181 -0.5244  0.4144
    4CHTO  H107 1482   7.481   7.672   1.517 -1.0317 -1.9926  0.1850
    4CHTO   C58 1483   7.607   7.771   1.314 -0.0180 -0.5509 -0.1509
    4CHTO  H115 1484   7.655   7.774   1.414 -1.5872 -2.3557  0.6948
    4CHTO   O37 1485   7.667   7.879   1.237 -0.4774  0.4781 -0.2819
    4CHTO   C59 1486   7.637   8.008   1.282 -0.1517 -0.2369  0.0797
    4CHTO  H116 1487   7.679   8.031   1.380  0.5326 -1.0091 -0.0311
    4CHTO   C70 1488   7.711   8.097   1.185 -0.5875 -0.4758 -0.3037
    4CHTO   O46 1489   7.692   8.080   1.046  0.0526 -0.2181 -0.3540
    4CHTO  H103 1490   7.774   8.077   1.001  0.1146 -0.6282 -0.2179
    4CHTO   O39 1491   7.646   7.631   1.233 -0.4152 -0.2984 -0.5635
    4CHTO   C60 1492   7.620   7.624   1.091  0.6534 -0.0141 -0.3504
    4CHTO  H117 1493   7.525   7.675   1.077  0.6592 -0.1714 -0.9537
    4CHTO   C62 1494   7.732   7.687   1.003  0.0993  0.2783  0.3640
    4CHTO  H119 1495   7.725   7.792   1.038 -2.5416  0.7384 -1.4792
    4CHTO   O43 1496   7.857   7.634   1.043 -0.1292  0.1045  0.3166
    4CHTO  H101 1497   7.924   7.700   1.039  0.1606 -0.2027  0.0672
    4CHTO   C66 1498   7.697   7.671   0.853 -0.1983  0.1688 -0.0083
    4CHTO  H123 1499   7.601   7.719   0.834 -0.1773  0.3041  0.2290
    4CHTO   N12 1500   7.781   7.755   0.768 -0.5622  0.4182 -0.2175
    4CHTO  H110 1501   7.852   7.690   0.720 -1.0532  0.6727 -1.3088
    4CHTO  H111 1502   7.827   7.830   0.830 -0.0538 -0.7585  0.8514
    4CHTO   C69 1503   7.685   7.521   0.819  0.1278  0.1925 -0.4647
    4CHTO  H126 1504   7.779   7.472   0.852  0.2769 -0.7558 -2.2261
    4CHTO   O41 1505   7.554   7.468   0.913 -0.2916 -0.1045 -0.4389
    4CHTO   C64 1506   7.597   7.476   1.056 -0.0407 -0.2289 -0.3988
    4CHTO  H121 1507   7.689   7.417   1.073 -0.3141 -0.2955  0.9724
    4CHTO   C71 1508   7.486   7.416   1.149  1.1801  0.1133 -0.2722
    4CHTO   O47 1509   7.451   7.283   1.105  0.2029  0.2828  0.4225
    4CHTO  H104 1510   7.377   7.242   1.145 -0.8084  0.8398 -0.8425
    4CHTO   O34 1511   7.662   7.484   0.667 -0.1835 -0.0468 -0.1506
    4CHTO   C49 1512   7.756   7.431   0.546 -0.0793 -0.8179 -0.6048
    4CHTO   H91 1513   7.833   7.507   0.540 -1.5144  0.5709 -2.1064
    4CHTO   C47 1514   7.661   7.445   0.429  0.2972  0.2073 -0.0214
    4CHTO   H89 1515   7.722   7.426   0.338 -1.0063 -0.8232 -0.7020
    4CHTO   O33 1516   7.602   7.583   0.417 -0.0563 -0.0569 -0.3280
    4CHTO   H70 1517   7.562   7.601   0.334  1.5246  2.0626 -0.6697
    4CHTO   C45 1518   7.539   7.334   0.435  0.1156 -0.1858 -0.1186
    4CHTO   H87 1519   7.447   7.383   0.471 -0.5443 -0.4556 -1.4205
    4CHTO    N8 1520   7.517   7.280   0.300  0.7146  0.2201  0.8064
    4CHTO   H75 1521   7.520   7.173   0.308  0.9113  0.2550  1.2112
    4CHTO   H76 1522   7.431   7.324   0.251  1.6820  0.7709 -0.4153
    4CHTO   C43 1523   7.575   7.215   0.537 -0.0823  0.3241 -0.4236
    4CHTO   H85 1524   7.560   7.265   0.632 -0.5497  0.0100 -0.3339
    4CHTO   O29 1525   7.712   7.181   0.521 -0.0466 -0.8524  0.1866
    4CHTO   C50 1526   7.804   7.283   0.555 -0.1952 -0.2812 -0.8553
    4CHTO   H92 1527   7.831   7.260   0.659 -2.1259  1.5489  0.1024
    4CHTO   C54 1528   7.940   7.275   0.483 -1.2093  0.3950 -0.9064
    4CHTO   O36 1529   7.996   7.145   0.499  0.2851 -0.0165 -0.2793
    4CHTO   H72 1530   8.028   7.107   0.419 -2.9283 -2.9000 -0.3717
    4CHTO   O27 1531   7.493   7.098   0.535  0.4409  0.0793  1.0313
    4CHTO   C37 1532   7.507   6.959   0.507 -0.1997 -0.7673  0.4963
    4CHTO   H79 1533   7.565   6.939   0.416 -0.0188  0.7193  0.2709
    4CHTO   C38 1534   7.583   6.869   0.621 -1.1990 -0.2108  0.4601
    4CHTO   H80 1535   7.551   6.904   0.720 -2.1397  2.0357 -0.5827
    4CHTO   O31 1536   7.721   6.903   0.602  0.2011 -0.5841  0.4292
    4CHTO   H68 1537   7.737   6.995   0.595  0.5332 -0.6276  0.6187
    4CHTO   C39 1538   7.571   6.715   0.598 -0.6402 -0.7375 -0.1619
    4CHTO   H81 1539   7.623   6.686   0.507 -1.3477  0.0545 -0.8248
    4CHTO    N7 1540   7.629   6.638   0.714  0.4736 -0.2497 -0.5365
    4CHTO   H73 1541   7.689   6.555   0.680 -1.1813 -1.3847 -0.8094
    4CHTO   H74 1542   7.559   6.611   0.792  0.6081  2.6261  0.6199
    4CHTO   C40 1543   7.414   6.675   0.571  0.3429  0.2970 -0.5219
    4CHTO   H82 1544   7.357   6.696   0.662  2.4495  0.5240  0.7692
    4CHTO   O26 1545   7.367   6.752   0.459  0.1972 -0.0097 -0.3776
    4CHTO   C41 1546   7.366   6.898   0.481 -0.4160  0.3033  0.0066
    4CHTO   H83 1547   7.297   6.938   0.557 -1.2027 -1.5412  0.2830
    4CHTO   C52 1548   7.307   6.944   0.346 -0.0404  0.4093  0.2678
    4CHTO   O35 1549   7.164   6.907   0.340 -0.1432 -0.0671  0.2088
    4CHTO   H71 1550   7.112   6.962   0.284  2.6244  1.8214 -0.6209
    4CHTO   O28 1551   7.374   6.542   0.549  0.0086  0.3796  0.1819
    4CHTO   C42 1552   7.230   6.498   0.570  0.3160 -0.2178  0.0674
    4CHTO   H84 1553   7.226   6.409   0.507  0.6061  0.2444 -0.6041
    4CHTO   C44 1554   7.117   6.597   0.511 -0.4410 -0.4496  0.4066
    4CHTO   H86 1555   7.120   6.696   0.556  0.1941  1.7541 -4.1408
    4CHTO   O32 1556   7.147   6.616   0.367  0.3165 -0.2684  0.4311
    4CHTO   H69 1557   7.096   6.553   0.320  1.7511 -0.6738 -0.6088
    4CHTO   C48 1558   6.974   6.552   0.541  0.1985 -0.4128  0.1577
    4CHTO   H90 1559   6.950   6.473   0.470 -2.8197  3.0498 -2.8805
    4CHTO    N9 1560   6.871   6.668   0.512  0.4553 -0.3337  0.4728
    4CHTO   H77 1561   6.899   6.760   0.561 -0.9954  0.5982 -0.4312
    4CHTO   H78 1562   6.856   6.676   0.405 -1.7940  1.7466  0.9069
    4CHTO   C51 1563   6.955   6.504   0.691  0.1148  0.5365  0.4228
    4CHTO   H93 1564   6.981   6.595   0.746  3.7354  0.0192 -0.3127
    4CHTO   O30 1565   7.054   6.401   0.716  0.1192 -0.6421  0.1023
    4CHTO   C46 1566   7.186   6.453   0.718  0.7442 -0.4053  0.3884
    4CHTO   H88 1567   7.191   6.543   0.780  0.8081 -0.6588  0.7515
    4CHTO   C53 1568   7.285   6.352   0.774  0.0971  0.0850  0.9526
    4CHTO   O72 1569   7.397   6.425   0.823 -0.4027 -0.5904  0.3607
    4CHTO  H199 1570   7.448   6.376   0.885  0.2325 -0.3477  0.0278
    4CHTO   O22 1571   6.829   6.441   0.724 -0.1286  0.2251 -0.5137
    4CHTO   C31 1572   6.782   6.445   0.858  0.0653 -0.1513  0.4506
    4CHTO   H59 1573   6.871   6.455   0.924 -0.7996  0.2936  1.5639
    4CHTO   C29 1574   6.693   6.570   0.884 -0.0489  0.0665  0.4934
    4CHTO   H57 1575   6.614   6.578   0.807  1.5335  1.2720 -1.0577
    4CHTO   O21 1576   6.768   6.694   0.872  0.3826 -0.2112 -0.0805
    4CHTO   H37 1577   6.805   6.708   0.787 -0.9970  0.2121 -0.6277
    4CHTO   C27 1578   6.628   6.553   1.027  0.4709 -0.1513  0.0348
    4CHTO   H55 1579   6.709   6.578   1.097 -0.0926 -0.5012  0.8123
    4CHTO    N5 1580   6.520   6.657   1.051 -0.1468  0.0559 -0.0764
    4CHTO   H43 1581   6.494   6.693   0.953 -2.2018 -2.8111 -0.6746
    4CHTO   H44 1582   6.555   6.721   1.130 -3.9703  2.6694 -0.3477
    4CHTO   C25 1583   6.573   6.407   1.056  0.4170 -0.1004  0.0654
    4CHTO   H53 1584   6.495   6.389   0.980  0.0307  0.2335  0.3788
    4CHTO   O17 1585   6.677   6.309   1.033  0.0441 -0.1259 -0.5099
    4CHTO   C32 1586   6.717   6.308   0.893  0.0831 -0.2429  0.0472
    4CHTO   H60 1587   6.628   6.299   0.831 -0.8831  1.5916  1.1143
    4CHTO   C36 1588   6.807   6.183   0.883 -0.1497 -0.1895  0.1082
    4CHTO   O25 1589   6.854   6.146   0.762 -0.3751 -0.8586  0.0648
    4CHTO   H40 1590   6.779   6.117   0.715 -1.3327  1.9433 -0.2006
    4CHTO   O15 1591   6.522   6.389   1.203 -0.0126  0.3824 -0.3306
    4CHTO   C19 1592   6.578   6.412   1.332 -0.8135 -0.3704  0.1724
    4CHTO   H47 1593   6.548   6.324   1.391 -0.1035 -0.6066  0.1869
    4CHTO   C20 1594   6.738   6.391   1.345  0.2724 -0.1022  0.3684
    4CHTO   H48 1595   6.792   6.470   1.290 -0.4968  0.0616 -0.1617
    4CHTO   O19 1596   6.772   6.269   1.276 -0.4357 -0.0501  0.3596
    4CHTO   H35 1597   6.792   6.297   1.189 -1.9440 -2.9526 -0.9992
    4CHTO   C21 1598   6.782   6.393   1.494  0.2047 -0.5173  0.6224
    4CHTO   H49 1599   6.738   6.312   1.552  4.1774 -2.5959  0.9695
    4CHTO    N4 1600   6.924   6.367   1.513 -0.0194  0.3992 -0.0980
    4CHTO   H41 1601   6.950   6.280   1.454 -0.0066  1.1066 -1.1506
    4CHTO   H42 1602   6.973   6.451   1.467 -1.9669  1.6551  0.0758
    4CHTO   C22 1603   6.727   6.527   1.550 -0.3725 -0.2577  0.6811
    4CHTO   H50 1604   6.767   6.605   1.486  0.5693 -1.9345 -0.8157
    4CHTO   O14 1605   6.583   6.540   1.549 -0.2576  0.0059 -0.0289
    4CHTO   C23 1606   6.533   6.537   1.412  0.4472 -0.0428  0.0071
    4CHTO   H51 1607   6.555   6.629   1.356 -0.1676 -1.6657 -2.9773
    4CHTO   C34 1608   6.383   6.549   1.424 -0.7982  0.0660 -0.7720
    4CHTO   O23 1609   6.319   6.445   1.501 -0.0407 -0.0972 -0.0474
    4CHTO   H38 1610   6.319   6.455   1.594 -0.5321 -1.3214  0.0972
    4CHTO   O16 1611   6.768   6.545   1.683 -0.0434 -0.5202  0.5667
    4CHTO   C24 1612   6.786   6.700   1.704  0.6004 -0.3903  0.0900
    4CHTO   H52 1613   6.724   6.761   1.638  0.7256 -1.2145 -0.8055
    4CHTO   C26 1614   6.931   6.740   1.694 -0.1672  0.8940  0.0224
    4CHTO   H54 1615   6.994   6.653   1.721  0.9975  1.8093  0.3190
    4CHTO   O20 1616   6.960   6.757   1.551 -0.3155 -0.1721 -0.3607
    4CHTO   H36 1617   7.044   6.722   1.529 -0.3034  0.3167 -1.1253
    4CHTO   C30 1618   6.966   6.861   1.778 -0.1364 -0.0290 -0.1458
    4CHTO   H58 1619   6.933   6.960   1.746  0.2860  0.4330  0.8371
    4CHTO    N6 1620   7.114   6.870   1.780 -0.2193 -0.1410  0.0651
    4CHTO   H45 1621   7.159   6.853   1.683  2.5972  1.2594  1.0603
    4CHTO   H46 1622   7.159   6.955   1.828 -2.2849  1.5186 -0.8925
    4CHTO   C33 1623   6.898   6.849   1.914  0.6909  0.8449 -0.6903
    4CHTO   H61 1624   6.934   6.760   1.968  0.6251  0.9601 -0.4541
    4CHTO   O18 1625   6.761   6.842   1.903  0.6041  0.0931 -0.4462
    4CHTO   C28 1626   6.727   6.712   1.852 -0.1006  0.3397 -0.0108
    4CHTO   H56 1627   6.770   6.633   1.913 -0.2893 -0.4069 -0.8271
    4CHTO   C35 1628   6.576   6.687   1.854  0.5144  0.3419  0.5317
    4CHTO   O24 1629   6.518   6.704   1.977  0.4649  0.1504 -0.0653
    4CHTO   H39 1630   6.516   6.797   1.989  0.6699  0.1166  0.2520
    4CHTO    O9 1631   6.938   6.963   1.992  0.0221  0.1363  0.4545
    4CHTO   C13 1632   6.924   6.967   2.145 -0.9848 -0.1620 -0.8612
    4CHTO   H26 1633   6.951   6.863   2.175 -2.0908 -0.7620 -1.9207
    4CHTO   C11 1634   6.771   6.999   2.174 -0.4562  0.4680 -0.0183
    4CHTO   H24 1635   6.709   6.912   2.148  0.8965 -0.5944  0.2504
    4CHTO    O8 1636   6.713   7.100   2.090 -0.2834 -0.6079 -0.2140
    4CHTO    H3 1637   6.670   7.065   2.014 -0.1861 -2.7632  0.6919
    4CHTO    C9 1638   6.757   7.030   2.329 -0.1347  0.2102 -0.1875
    4CHTO   H22 1639   6.803   6.946   2.382 -1.4397 -0.2367  0.2675
    4CHTO    N2 1640   6.620   7.027   2.382 -0.2866  0.9949  0.4433
    4CHTO   H10 1641   6.553   7.097   2.335  0.5108  1.1203 -0.5363
    4CHTO   H11 1642   6.587   6.925   2.364  1.2624  0.6916 -0.8358
    4CHTO    C7 1643   6.830   7.162   2.353  0.2685  0.2888  0.0363
    4CHTO   H20 1644   6.857   7.158   2.461 -0.0367  1.4339  0.1630
    4CHTO    O4 1645   6.949   7.181   2.274 -0.5501 -0.1304  0.9894
    4CHTO   C14 1646   7.020   7.065   2.224 -0.4280 -0.0180  0.4997
    4CHTO   H27 1647   7.060   7.015   2.315 -0.9591  1.3746  1.5081
    4CHTO   C18 1648   7.140   7.118   2.147  0.5392 -0.3007 -0.3187
    4CHTO   O13 1649   7.225   7.015   2.091 -0.4623 -0.0749  0.2520
    4CHTO    H7 1650   7.313   7.047   2.096 -0.1474 -0.9469  0.5285
    4CHTO    O2 1651   6.721   7.298   2.332 -0.4693  0.4314  0.3949
    4CHTO    C1 1652   6.783   7.424   2.373  0.1833  0.3468  0.2588
    4CHTO   H14 1653   6.891   7.401   2.383 -0.0114 -0.2330  1.0191
    4CHTO    C2 1654   6.738   7.477   2.508 -0.6546  0.8038  0.2317
    4CHTO   H15 1655   6.629   7.460   2.503 -0.2071 -1.9920 -1.0952
    4CHTO    O6 1656   6.787   7.397   2.614 -0.0305 -0.8173 -0.0543
    4CHTO    H1 1657   6.747   7.313   2.624 -2.9532  0.3813 -0.9775
    4CHTO    C3 1658   6.785   7.629   2.539  0.1790  0.1564  0.1540
    4CHTO   H16 1659   6.893   7.632   2.558  0.4224 -1.6206 -0.8507
    4CHTO    N1 1660   6.718   7.689   2.661 -0.0030 -1.1677 -0.0435
    4CHTO    H8 1661   6.721   7.636   2.755 -2.1678 -1.1258  0.0858
    4CHTO    H9 1662   6.615   7.720   2.652  0.5350  0.6129 -0.3147
    4CHTO    C4 1663   6.770   7.717   2.407 -0.8335  0.4600  0.0592
    4CHTO   H17 1664   6.665   7.737   2.385 -0.5505  2.0222  0.0807
    4CHTO    O1 1665   6.826   7.648   2.293 -0.6003 -0.5404 -0.4832
    4CHTO    C5 1666   6.765   7.527   2.256  0.3074  1.0841 -0.2510
    4CHTO   H18 1667   6.657   7.541   2.250 -0.0826 -1.0716  1.1595
    4CHTO   C16 1668   6.825   7.476   2.121  0.3204  0.6341  0.1268
    4CHTO   O11 1669   6.830   7.575   2.020  0.1150  0.2711 -0.7265
    4CHTO    H5 1670   6.909   7.566   1.970  1.5238 -2.8406  1.8692
    4CHTO    O3 1671   6.838   7.845   2.408 -0.2092  0.1916 -1.0723
    4CHTO    C6 1672   6.785   7.940   2.313  0.0279  0.1297 -0.2223
    4CHTO   H19 1673   6.740   7.884   2.232 -1.0891  0.6262  0.0508
    4CHTO    C8 1674   6.679   8.036   2.377 -0.2078 -0.7305 -0.4915
    4CHTO   H21 1675   6.717   8.075   2.472 -1.6392 -1.6805  0.4757
    4CHTO    O7 1676   6.563   7.959   2.395  0.2619 -0.9404  0.5639
    4CHTO    H2 1677   6.561   7.900   2.322 -1.1833 -0.2079 -0.0101
    4CHTO   C12 1678   6.652   8.161   2.280 -0.1505  0.0999  0.2373
    4CHTO   H25 1679   6.588   8.125   2.196  1.8382 -1.6269 -0.5790
    4CHTO    N3 1680   6.565   8.263   2.338 -0.2649  0.3170  0.4283
    4CHTO   H12 1681   6.573   8.250   2.444  0.2813 -3.5580 -0.0301
    4CHTO   H13 1682   6.462   8.248   2.309 -0.7520  0.5416  2.0402
    4CHTO   C15 1683   6.790   8.225   2.223  1.5112  0.3787 -0.5220
    4CHTO   H28 1684   6.839   8.287   2.298  0.9197  1.2652 -0.8541
    4CHTO   O10 1685   6.766   8.317   2.096  0.3589  0.0216 -0.2733
    4CHTO    H4 1686   6.686   8.361   2.120  0.2159 -1.9566  3.1726
    4CHTO    O5 1687   6.869   8.121   2.163  0.0804  0.5526 -0.4713
    4CHTO   C10 1688   6.908   8.025   2.257  0.1885  0.2922 -0.6688
    4CHTO   H23 1689   6.957   8.079   2.338  1.4110 -0.9289 -0.5605
    4CHTO   C17 1690   7.020   7.938   2.202  0.3597 -0.3062  0.1486
    4CHTO   O12 1691   6.972   7.872   2.084  0.2896  0.6330  0.6634
    4CHTO    H6 1692   7.045   7.818   2.061 -1.1727 -1.5797  1.0432
    5CHTO  H203 1693   7.104   4.015   4.266 -1.7035 -1.6866 -0.1293
    5CHTO   O82 1694   7.063   4.098   4.276  0.2646 -0.7458  0.4505
    5CHTO  C123 1695   7.100   4.166   4.404 -1.1156 -0.1756 -0.6704
    5CHTO  H227 1696   7.203   4.204   4.396 -0.6542 -1.6676 -2.1729
    5CHTO   O77 1697   7.008   4.280   4.410  0.0788  0.5829  0.0257
    5CHTO  C118 1698   7.023   4.362   4.528  0.4962  0.1600  0.2968
    5CHTO  H222 1699   7.124   4.408   4.531  1.4198 -1.8535  0.5817
    5CHTO  C125 1700   6.911   4.467   4.522  0.0737  0.2126  0.1629
    5CHTO   O84 1701   6.915   4.546   4.401  0.2220 -0.1259 -0.1033
    5CHTO  H205 1702   6.884   4.489   4.334 -0.4052 -1.1472  1.0454
    5CHTO  C114 1703   7.005   4.285   4.660  0.2223 -0.2647  0.6152
    5CHTO  H218 1704   6.898   4.261   4.666  0.4314 -1.5452 -0.4972
    5CHTO  C116 1705   7.097   4.160   4.663  0.4387 -0.0850 -0.5765
    5CHTO  H220 1706   7.202   4.194   4.661  0.1629  1.0596  2.8832
    5CHTO   O79 1707   7.085   4.085   4.788  0.1323 -0.0111  0.0476
    5CHTO  H201 1708   7.029   4.009   4.786 -0.3856  0.3696 -0.1964
    5CHTO  C120 1709   7.081   4.070   4.531 -0.0712  0.4130 -0.9938
    5CHTO  H224 1710   6.976   4.035   4.543 -0.3855  1.1337 -1.5813
    5CHTO   N21 1711   7.164   3.950   4.524 -0.1292 -0.3896  0.2533
    5CHTO  H211 1712   7.250   3.971   4.462 -0.6614 -0.6956 -0.5919
    5CHTO  H212 1713   7.096   3.878   4.482 -0.4989  1.2534 -2.0231
    5CHTO   O75 1714   7.035   4.375   4.765 -0.4555 -0.5552  0.6380
    5CHTO  C112 1715   6.916   4.398   4.875 -0.4102  0.4360  0.1161
    5CHTO  H216 1716   6.874   4.299   4.896 -1.0881  0.9151  1.0872
    5CHTO   O73 1717   6.820   4.490   4.819 -0.3818 -0.0431  0.4936
    5CHTO  C113 1718   6.704   4.502   4.891  0.8104  0.1380  0.5493
    5CHTO  H217 1719   6.657   4.405   4.917  1.9819 -0.6524 -0.2303
    5CHTO  C124 1720   6.600   4.579   4.805 -0.3644 -0.1495  0.0723
    5CHTO   O83 1721   6.468   4.562   4.853  0.2019 -0.2523  0.4021
    5CHTO  H204 1722   6.426   4.503   4.793  0.5907  0.8266 -0.9505
    5CHTO  C109 1723   6.737   4.569   5.031  0.0317  0.9092  0.1236
    5CHTO  H213 1724   6.768   4.671   5.006  0.6951  0.6740 -0.0385
    5CHTO  C110 1725   6.851   4.492   5.104  0.1087 -0.0750  0.7857
    5CHTO  H214 1726   6.816   4.394   5.135 -0.4047  0.3706  1.5978
    5CHTO   O78 1727   6.899   4.567   5.214  0.4860  0.2109 -0.1765
    5CHTO  H200 1728   6.946   4.517   5.278  0.0811  1.0478  0.7950
    5CHTO  C111 1729   6.966   4.456   5.006  0.2571  0.8053  0.3190
    5CHTO  H215 1730   7.012   4.550   4.974 -1.3133  1.0784 -1.2363
    5CHTO   N19 1731   7.069   4.373   5.068  0.1821 -0.1903  0.1206
    5CHTO  H207 1732   7.157   4.356   5.007  0.0297  1.2534 -0.5058
    5CHTO  H208 1733   7.026   4.275   5.081  3.0895 -1.0803  4.2975
    5CHTO   O74 1734   6.615   4.578   5.116 -0.1236  0.0417  1.2284
    5CHTO  C115 1735   6.596   4.724   5.197  0.1014 -0.1458 -0.0819
    5CHTO  H219 1736   6.663   4.728   5.283  0.3587 -0.7312 -0.2530
    5CHTO   O76 1737   6.639   4.853   5.107  0.8211  0.1522  0.1417
    5CHTO  C122 1738   6.549   4.905   5.008 -0.6143 -0.4873 -0.3383
    5CHTO  H226 1739   6.568   4.846   4.918  1.2257 -1.2805  0.5232
    5CHTO  C126 1740   6.591   5.044   4.962  0.5033 -0.8408 -0.4326
    5CHTO   O85 1741   6.719   5.056   4.900  0.0448 -0.4001  0.1317
    5CHTO  H206 1742   6.785   5.080   4.962  0.0031 -0.0553  0.0451
    5CHTO  C121 1743   6.401   4.907   5.065 -0.0775 -0.2067 -1.0124
    5CHTO  H225 1744   6.375   5.014   5.053 -0.5433 -0.1222  0.5704
    5CHTO   O81 1745   6.314   4.822   4.989 -0.2965 -0.3172  0.2743
    5CHTO  H202 1746   6.316   4.841   4.897  0.9838  0.4567  0.4536
    5CHTO  C119 1747   6.389   4.874   5.224 -0.4214 -0.0884 -0.4284
    5CHTO  H223 1748   6.465   4.943   5.261  0.9095 -0.2556 -2.7929
    5CHTO  C117 1749   6.448   4.733   5.258  0.2295  0.0557 -0.0954
    5CHTO  H221 1750   6.406   4.643   5.212 -0.4535  1.0753 -1.5025
    5CHTO   N20 1751   6.438   4.704   5.406 -0.3352  0.4726 -0.0704
    5CHTO  H209 1752   6.461   4.599   5.418 -0.0166  0.7056  1.4407
    5CHTO  H210 1753   6.341   4.731   5.444 -0.3833 -1.1887  1.0474
    5CHTO   O80 1754   6.244   4.935   5.292  0.1170  0.0446 -0.5294
    5CHTO  C103 1755   6.092   4.876   5.247  0.1446  0.3443 -0.6660
    5CHTO  H190 1756   6.062   4.902   5.145  0.8876  2.1876 -0.4528
    5CHTO  C101 1757   6.055   4.727   5.264  0.1025 -0.4894 -0.1832
    5CHTO  H188 1758   6.100   4.700   5.360  0.9965  2.8694  0.4310
    5CHTO   O68 1759   6.118   4.631   5.148 -0.1244  0.2680  0.0288
    5CHTO  H168 1760   6.106   4.671   5.064  0.1921  0.2136 -0.0395
    5CHTO   C99 1761   5.894   4.709   5.257 -0.2462 -0.5978 -0.8064
    5CHTO  H186 1762   5.865   4.736   5.153  0.2495  1.4833 -0.4228
    5CHTO   N17 1763   5.849   4.566   5.290 -0.7529 -0.3022 -0.1071
    5CHTO  H174 1764   5.902   4.492   5.232  1.9471  1.5055 -0.0055
    5CHTO  H175 1765   5.861   4.546   5.395 -4.0086 -0.5398  0.2958
    5CHTO   C97 1766   5.819   4.815   5.350 -0.1457  0.1194 -0.0508
    5CHTO  H184 1767   5.860   4.797   5.450  1.1270  0.0184 -0.5794
    5CHTO   O64 1768   5.867   4.942   5.294  0.7925 -0.2741 -0.4507
    5CHTO  C104 1769   5.996   4.969   5.337 -0.2781  0.4536  0.1799
    5CHTO  H191 1770   6.018   4.947   5.441  1.9691  1.1255 -0.1232
    5CHTO  C108 1771   6.036   5.111   5.314 -0.0302 -0.0902 -0.0411
    5CHTO   O71 1772   5.941   5.188   5.385  0.0070 -0.3128 -0.2054
    5CHTO  H171 1773   5.983   5.248   5.444  0.5452 -0.7908 -0.0890
    5CHTO   O62 1774   5.676   4.808   5.356  0.3520 -0.1636  0.5984
    5CHTO   C91 1775   5.579   4.842   5.250 -0.3432  0.6512 -0.2711
    5CHTO  H178 1776   5.605   4.943   5.216  0.2500  1.4229  2.3765
    5CHTO   C92 1777   5.439   4.859   5.328  0.5627 -0.7474 -0.2240
    5CHTO  H179 1778   5.458   4.920   5.418 -0.2623 -0.8272  0.0122
    5CHTO   O66 1779   5.358   4.939   5.240  0.5003  0.5249 -0.0321
    5CHTO  H166 1780   5.289   4.977   5.292  2.1172  0.8318  1.9587
    5CHTO   C93 1781   5.358   4.732   5.357  0.6828  0.1379 -0.1768
    5CHTO  H180 1782   5.250   4.752   5.353  0.0656 -2.8075  0.8436
    5CHTO   N16 1783   5.377   4.682   5.499 -0.2602 -0.3539 -0.3749
    5CHTO  H172 1784   5.307   4.721   5.572 -1.8604 -1.1532 -1.4332
    5CHTO  H173 1785   5.482   4.695   5.517 -0.1114 -1.2475 -0.5859
    5CHTO   C94 1786   5.394   4.623   5.254 -0.3477 -0.0140 -0.5921
    5CHTO  H181 1787   5.473   4.558   5.292 -1.1075 -0.1164  0.8257
    5CHTO   O61 1788   5.441   4.668   5.129 -0.4260 -0.2246  0.4212
    5CHTO   C95 1789   5.563   4.743   5.126  0.5720  0.4039  0.1140
    5CHTO  H182 1790   5.644   4.670   5.119  0.1666 -0.4690  3.5713
    5CHTO  C106 1791   5.564   4.823   4.992 -0.0622 -0.0125  0.1857
    5CHTO   O69 1792   5.692   4.895   4.984  0.3477 -0.2383 -0.4235
    5CHTO  H169 1793   5.681   4.975   4.936  2.6003  0.8105  0.7274
    5CHTO   O63 1794   5.267   4.528   5.225 -0.1636 -0.3251  0.0118
    5CHTO   C96 1795   5.305   4.392   5.121  0.4293  0.4045 -0.4796
    5CHTO  H183 1796   5.369   4.429   5.041 -0.5740  1.2982 -0.8867
    5CHTO   C98 1797   5.175   4.349   5.043  0.4804  0.1136 -0.3748
    5CHTO  H185 1798   5.115   4.437   5.017 -0.5199 -1.1377 -2.3808
    5CHTO   O67 1799   5.211   4.285   4.918 -0.2018 -0.6995  0.5521
    5CHTO  H167 1800   5.267   4.211   4.930 -0.5231 -1.0616 -0.1840
    5CHTO  C102 1801   5.084   4.256   5.132  0.8038  0.1758  0.7460
    5CHTO  H189 1802   5.014   4.206   5.063  0.5019  1.9244 -0.2259
    5CHTO   N18 1803   5.003   4.327   5.231 -0.5414 -0.5324  0.4207
    5CHTO  H176 1804   4.936   4.399   5.185  2.3828  0.7725 -1.9420
    5CHTO  H177 1805   5.067   4.388   5.293  0.0190  1.4278 -2.0165
    5CHTO  C105 1806   5.165   4.138   5.184 -0.2534  0.3161 -0.0706
    5CHTO  H192 1807   5.103   4.071   5.243 -1.4425  1.4066 -0.0415
    5CHTO   O65 1808   5.289   4.167   5.263 -0.5123 -0.1971  0.3213
    5CHTO  C100 1809   5.373   4.279   5.216  1.3520  0.0200 -0.7725
    5CHTO  H187 1810   5.408   4.333   5.305  2.7339 -0.9221 -0.7245
    5CHTO  C107 1811   5.497   4.215   5.141  0.1790  0.3515  0.0286
    5CHTO   O70 1812   5.580   4.307   5.063  0.2531 -0.3672 -0.3821
    5CHTO  H170 1813   5.667   4.280   5.082  0.1169  0.8694  2.1035
    5CHTO   O57 1814   5.199   4.052   5.057 -0.4609 -0.0846  0.9067
    5CHTO   C85 1815   5.195   3.907   5.049 -0.1858  0.6436  0.1094
    5CHTO  H157 1816   5.127   3.872   5.130 -0.3805 -0.8259 -0.6925
    5CHTO   C83 1817   5.334   3.848   5.084 -0.2197 -0.3274  0.0660
    5CHTO  H155 1818   5.353   3.876   5.188  1.9968 -0.6182 -0.2417
    5CHTO   O56 1819   5.435   3.899   4.998 -0.1402  0.2399 -0.1531
    5CHTO  H135 1820   5.453   3.989   5.015 -1.3933  0.0698  2.3496
    5CHTO   C81 1821   5.324   3.692   5.068 -0.2781 -0.0378 -0.0747
    5CHTO  H153 1822   5.243   3.658   5.132  0.0766 -1.3933 -0.3395
    5CHTO   N14 1823   5.442   3.627   5.130 -0.1521  0.1713  0.2550
    5CHTO  H141 1824   5.417   3.528   5.162  2.0039 -0.3653  0.3518
    5CHTO  H142 1825   5.479   3.685   5.212  1.7837  0.2080 -0.6044
    5CHTO   C79 1826   5.292   3.651   4.913 -0.5372 -0.4567 -0.1020
    5CHTO  H151 1827   5.249   3.551   4.914  1.4502 -1.3241  1.9599
    5CHTO   O52 1828   5.194   3.738   4.846 -0.7290  0.2052 -0.2174
    5CHTO   C86 1829   5.146   3.858   4.906  0.1329 -0.3586  0.6914
    5CHTO  H158 1830   5.168   3.933   4.827 -0.6341 -1.3719 -0.5117
    5CHTO   C90 1831   4.990   3.851   4.914  0.0371  0.2648  0.1458
    5CHTO   O60 1832   4.932   3.980   4.944  0.1717  0.3792  0.2823
    5CHTO  H138 1833   4.952   3.991   5.035  2.3993  1.5517 -0.3115
    5CHTO   O50 1834   5.403   3.654   4.826 -0.0287  0.3524  0.3005
    5CHTO   C73 1835   5.430   3.592   4.700  0.0670  0.5149  0.5721
    5CHTO  H145 1836   5.335   3.570   4.650  0.5903 -1.1760  0.2525
    5CHTO   C74 1837   5.511   3.455   4.708 -0.2031  0.4477  0.3797
    5CHTO  H146 1838   5.448   3.382   4.762  2.8828 -2.9019 -0.3516
    5CHTO   O54 1839   5.539   3.392   4.583 -0.0705  0.2647 -0.0891
    5CHTO  H133 1840   5.598   3.425   4.519 -2.6863  1.5009 -1.9623
    5CHTO   C75 1841   5.639   3.492   4.790 -0.7167 -0.1836  0.1587
    5CHTO  H147 1842   5.605   3.533   4.886 -1.0280  1.1808 -0.5238
    5CHTO   N13 1843   5.718   3.372   4.827 -0.6351 -0.1378 -0.3103
    5CHTO  H139 1844   5.719   3.298   4.749  1.0748  0.1904 -0.6237
    5CHTO  H140 1845   5.681   3.326   4.917 -1.0150  2.3420  0.8551
    5CHTO   C76 1846   5.722   3.609   4.707 -0.9819  0.0258 -0.4658
    5CHTO  H148 1847   5.752   3.567   4.611 -0.3873 -1.5597  0.3962
    5CHTO   O49 1848   5.631   3.726   4.691 -0.0923 -0.2203  0.2318
    5CHTO   C77 1849   5.514   3.695   4.619  0.2151  0.4662 -0.4664
    5CHTO  H149 1850   5.541   3.650   4.524  4.2997  0.2287  0.6993
    5CHTO   C88 1851   5.439   3.824   4.590 -0.8285  0.2098  0.1547
    5CHTO   O58 1852   5.506   3.887   4.501  0.7887 -0.2643 -0.2174
    5CHTO  H136 1853   5.445   3.947   4.462  0.5879  1.3564  2.4704
    5CHTO   O51 1854   5.850   3.661   4.811 -0.0572 -0.2080 -0.2736
    5CHTO   C78 1855   5.906   3.790   4.779 -0.0269  0.0651 -0.1028
    5CHTO  H150 1856   5.832   3.851   4.723 -0.7454  0.0015  0.7709
    5CHTO   C80 1857   6.036   3.780   4.698 -0.6782 -0.0769 -0.1225
    5CHTO  H152 1858   6.102   3.707   4.749  1.2826 -0.1313 -2.6344
    5CHTO   O55 1859   6.000   3.728   4.563 -0.6192  0.2700  0.0329
    5CHTO  H134 1860   5.955   3.799   4.521  0.8647  0.7936 -0.6948
    5CHTO   C84 1861   6.113   3.913   4.699  0.5198 -0.1354  0.0346
    5CHTO  H156 1862   6.047   3.987   4.654  1.7146  1.1678  0.3831
    5CHTO   N15 1863   6.234   3.921   4.613  0.1270  0.1634  0.5107
    5CHTO  H143 1864   6.214   3.991   4.535  0.1671 -0.1217  0.2414
    5CHTO  H144 1865   6.259   3.825   4.571  2.0802  0.8279  0.0922
    5CHTO   C87 1866   6.141   3.954   4.840  0.2959  0.1788  0.3799
    5CHTO  H159 1867   6.196   3.869   4.881 -0.7108 -0.1366  1.1106
    5CHTO   O53 1868   6.015   3.977   4.897  0.5933 -0.4757 -0.2852
    5CHTO   C82 1869   5.922   3.862   4.912  0.2317  0.9159 -0.1084
    5CHTO  H154 1870   5.954   3.798   4.994 -0.9075 -1.1662 -1.2450
    5CHTO   C89 1871   5.782   3.913   4.946 -0.8139  0.1084 -0.5535
    5CHTO   O59 1872   5.706   3.814   5.016  0.4989 -0.0708 -0.0327
    5CHTO  H137 1873   5.619   3.847   5.032  0.0907 -0.4824 -1.3485
    5CHTO   O45 1874   6.215   4.107   4.845  0.0529 -0.2901  0.1891
    5CHTO   C67 1875   6.250   4.157   4.976  0.4525  0.7969 -0.2983
    5CHTO  H124 1876   6.184   4.110   5.048  1.9295 -0.0347  0.5125
    5CHTO   C65 1877   6.400   4.131   5.026 -0.4661 -1.0642 -0.1613
    5CHTO  H122 1878   6.460   4.146   4.936 -2.1749  1.6761 -0.9272
    5CHTO   O44 1879   6.403   3.996   5.072 -0.3426  0.0403 -0.3954
    5CHTO  H102 1880   6.490   3.982   5.103 -1.1991 -0.9975  1.6438
    5CHTO   C63 1881   6.450   4.244   5.117  0.4037  0.1423 -0.0978
    5CHTO  H120 1882   6.500   4.316   5.052 -0.4295  1.6495  0.8952
    5CHTO   N11 1883   6.570   4.218   5.200  0.5150 -0.0815 -0.6625
    5CHTO  H108 1884   6.546   4.133   5.262  0.8607 -0.9351 -1.6961
    5CHTO  H109 1885   6.662   4.189   5.154  1.4897  0.6086  0.8065
    5CHTO   C61 1886   6.336   4.315   5.199  0.0640  0.0497  0.2157
    5CHTO  H118 1887   6.371   4.413   5.233 -0.8990  0.1770  0.8479
    5CHTO   O40 1888   6.213   4.345   5.121 -0.1142  0.2636  0.5605
    5CHTO   C68 1889   6.222   4.306   4.980 -0.3471 -0.4447 -0.4077
    5CHTO  H125 1890   6.302   4.367   4.934 -0.9092  1.3711  0.9659
    5CHTO   C72 1891   6.084   4.334   4.905 -0.0087  0.5050 -0.2356
    5CHTO   O48 1892   5.966   4.285   4.967 -0.4936 -0.1061  0.4381
    5CHTO  H105 1893   5.948   4.206   4.920 -1.1822  0.7991 -0.8744
    5CHTO   O38 1894   6.297   4.238   5.319  0.8562  0.1046 -0.4981
    5CHTO   C55 1895   6.222   4.320   5.415  0.0693  0.4593  0.8598
    5CHTO  H112 1896   6.192   4.415   5.369 -2.5734 -1.3007 -1.2283
    5CHTO   C56 1897   6.311   4.346   5.545 -0.0200 -0.2729  0.5535
    5CHTO  H113 1898   6.335   4.248   5.587  0.2420 -1.1768 -1.6567
    5CHTO   O42 1899   6.437   4.396   5.504 -0.3831 -0.0407 -0.4125
    5CHTO  H100 1900   6.504   4.381   5.568  0.6271  0.3841 -1.3607
    5CHTO   C57 1901   6.237   4.435   5.652  0.2424 -0.8395 -0.1823
    5CHTO  H114 1902   6.208   4.529   5.605 -0.9014 -1.5058 -0.8377
    5CHTO   N10 1903   6.314   4.465   5.776 -0.8072 -0.0126  0.0881
    5CHTO  H106 1904   6.385   4.546   5.766 -0.5108 -0.1786  0.7994
    5CHTO  H107 1905   6.245   4.483   5.858 -1.2614  0.2468 -0.3471
    5CHTO   C58 1906   6.104   4.359   5.684  0.0347 -0.3902 -0.2146
    5CHTO  H115 1907   6.128   4.266   5.740  1.8524  1.0493  1.4558
    5CHTO   O37 1908   6.026   4.337   5.561  0.3059 -0.2856 -0.2094
    5CHTO   C59 1909   6.092   4.252   5.466  0.4398 -0.4065 -0.1895
    5CHTO  H116 1910   6.110   4.155   5.510  1.8416 -0.7116 -1.4028
    5CHTO   C70 1911   5.986   4.232   5.351 -0.3473 -0.2347  0.3064
    5CHTO   O46 1912   6.037   4.144   5.253 -0.1211 -0.0854 -0.2091
    5CHTO  H103 1913   6.072   4.065   5.290 -1.5157 -0.7679 -0.2984
    5CHTO   O39 1914   6.014   4.449   5.791 -0.3952 -0.0725  0.6261
    5CHTO   C60 1915   5.896   4.392   5.845 -0.2682 -0.0934  0.3908
    5CHTO  H117 1916   5.873   4.308   5.780 -0.5286  0.9773 -0.9348
    5CHTO   C62 1917   5.910   4.326   5.987 -0.7069 -0.4887  0.1482
    5CHTO  H119 1918   5.974   4.235   5.982 -0.0856  0.0387 -1.8325
    5CHTO   O43 1919   5.966   4.430   6.072  0.4528  0.2826  0.1972
    5CHTO  H101 1920   5.903   4.496   6.096 -0.4766 -0.6382  0.3005
    5CHTO   C66 1921   5.770   4.272   6.040  0.4080 -0.4357 -0.9497
    5CHTO  H123 1922   5.738   4.190   5.976  1.6916 -1.7845  0.0809
    5CHTO   N12 1923   5.780   4.222   6.175  0.3675 -0.4436  0.0047
    5CHTO  H110 1924   5.833   4.127   6.167 -1.5659 -1.4314 -1.5263
    5CHTO  H111 1925   5.679   4.204   6.209  0.2639 -1.3252 -0.7536
    5CHTO   C69 1926   5.673   4.392   6.036  0.2437  0.6271 -1.3075
    5CHTO  H126 1927   5.719   4.478   6.089 -0.5197  0.3564 -0.1967
    5CHTO   O41 1928   5.652   4.430   5.890 -0.5845  0.0211  0.2728
    5CHTO   C64 1929   5.773   4.494   5.833  0.0062  0.4008  0.4490
    5CHTO  H121 1930   5.804   4.587   5.885 -0.2411  1.3133 -1.0176
    5CHTO   C71 1931   5.754   4.530   5.683  0.0555  0.3450  0.1646
    5CHTO   O47 1932   5.681   4.655   5.679 -0.4944 -0.2673 -0.0147
    5CHTO  H104 1933   5.609   4.639   5.621 -0.7137 -0.3812  0.2847
    5CHTO   O34 1934   5.527   4.350   6.097  0.0889  0.2562  0.3214
    5CHTO   C49 1935   5.488   4.460   6.220 -0.2993  0.1736 -0.9200
    5CHTO   H91 1936   5.576   4.487   6.278 -0.3212  0.3119 -0.9510
    5CHTO   C47 1937   5.391   4.383   6.310 -0.1912  0.0009  0.1194
    5CHTO   H89 1938   5.365   4.446   6.398  0.0308  0.9263 -0.4712
    5CHTO   O33 1939   5.460   4.269   6.357  0.4876 -0.2542  0.3882
    5CHTO   H70 1940   5.531   4.279   6.418  1.1936  1.8715 -0.7289
    5CHTO   C45 1941   5.249   4.363   6.234 -0.5524  0.6485 -0.0177
    5CHTO   H87 1942   5.267   4.314   6.137  1.7640 -1.4205  1.4058
    5CHTO    N8 1943   5.166   4.267   6.311  0.0190 -0.2366 -0.2063
    5CHTO   H75 1944   5.185   4.259   6.417 -1.6852  3.4530  0.4676
    5CHTO   H76 1945   5.063   4.265   6.278  0.2512 -2.4945 -0.8649
    5CHTO   C43 1946   5.180   4.504   6.214 -0.2203  0.0155 -0.1418
    5CHTO   H85 1947   5.082   4.487   6.169 -0.4713  0.5620  0.1851
    5CHTO   O29 1948   5.275   4.576   6.130  0.0994 -0.3723 -0.3596
    5CHTO   C50 1949   5.409   4.591   6.177  0.2874  0.1887  0.0452
    5CHTO   H92 1950   5.464   4.639   6.094  2.1080 -1.7782  0.0782
    5CHTO   C54 1951   5.412   4.703   6.281 -0.6094 -0.5202  1.1344
    5CHTO   O36 1952   5.536   4.730   6.346 -0.5151  0.2229  0.4303
    5CHTO   H72 1953   5.602   4.753   6.282 -1.1573 -2.3636 -1.2393
    5CHTO   O27 1954   5.136   4.567   6.335 -0.0129 -0.4697 -0.3555
    5CHTO   C37 1955   5.090   4.648   6.437  0.5612 -0.0085  0.0193
    5CHTO   H79 1956   5.159   4.733   6.447  1.9459 -0.8970 -1.9048
    5CHTO   C38 1957   4.944   4.710   6.402  0.3050 -0.1194 -0.0635
    5CHTO   H80 1958   4.883   4.627   6.363  2.5402 -1.2262 -1.3402
    5CHTO   O31 1959   4.967   4.806   6.294 -0.9090  0.3688  0.1787
    5CHTO   H68 1960   4.887   4.823   6.248 -1.0548  0.7771  0.5747
    5CHTO   C39 1961   4.868   4.777   6.525  0.8962  0.2252 -0.5235
    5CHTO   H81 1962   4.912   4.876   6.541  0.8892  0.3470 -1.2461
    5CHTO    N7 1963   4.727   4.792   6.498  0.3296 -0.1200 -0.5071
    5CHTO   H73 1964   4.679   4.836   6.585 -0.7088 -1.5171 -0.3584
    5CHTO   H74 1965   4.681   4.695   6.484 -0.5875  0.3214 -0.6045
    5CHTO   C40 1966   4.887   4.684   6.654 -0.3273  0.0019  1.0734
    5CHTO   H82 1967   4.837   4.591   6.629  0.2651  0.3347 -1.5618
    5CHTO   O26 1968   5.028   4.659   6.674 -0.6033 -0.3441  0.3688
    5CHTO   C41 1969   5.082   4.570   6.567 -0.1957  0.4864 -0.3041
    5CHTO   H83 1970   5.025   4.480   6.543  1.9299 -0.7594 -0.7725
    5CHTO   C52 1971   5.217   4.512   6.623 -0.3176 -0.5094 -0.1003
    5CHTO   O35 1972   5.337   4.603   6.618  0.6179  0.3931 -0.3524
    5CHTO   H71 1973   5.403   4.566   6.564  1.2749  0.8345  0.1327
    5CHTO   O28 1974   4.831   4.739   6.775 -0.1973  0.5364  0.0185
    5CHTO   C42 1975   4.880   4.708   6.914  0.2120 -0.3891  0.6336
    5CHTO   H84 1976   4.796   4.737   6.977 -0.1299  0.1335 -0.0594
    5CHTO   C44 1977   4.997   4.799   6.961 -0.3952 -0.0575  0.4228
    5CHTO   H86 1978   5.079   4.790   6.890  0.5230  3.2222  0.9847
    5CHTO   O32 1979   4.940   4.931   6.961 -0.1456  0.4777  0.2841
    5CHTO   H69 1980   4.909   4.950   6.875 -0.1603  0.8638  0.3747
    5CHTO   C48 1981   5.067   4.753   7.097  0.0360 -0.1419  0.4252
    5CHTO   H90 1982   4.996   4.749   7.179 -1.1143  0.5897 -0.5331
    5CHTO    N9 1983   5.174   4.846   7.143 -0.4249  0.8112 -0.0388
    5CHTO   H77 1984   5.149   4.886   7.240  0.4446  2.1267 -0.3511
    5CHTO   H78 1985   5.276   4.811   7.135 -1.6935 -3.1189 -0.2194
    5CHTO   C51 1986   5.109   4.606   7.083 -0.2810  0.2689  0.1289
    5CHTO   H93 1987   5.174   4.604   6.995 -1.9227  0.8353 -1.1254
    5CHTO   O30 1988   4.993   4.527   7.071 -0.7046 -0.2116 -0.1093
    5CHTO   C46 1989   4.911   4.550   6.945 -0.0110 -0.4745  0.8455
    5CHTO   H88 1990   4.963   4.505   6.860  1.5869 -0.0232  1.5745
    5CHTO   C53 1991   4.774   4.479   6.969 -0.0904 -0.0453  0.3525
    5CHTO   O72 1992   4.705   4.530   7.090 -0.4146 -0.0637 -0.1398
    5CHTO  H199 1993   4.618   4.495   7.093 -0.5621 -0.1231 -3.3669
    5CHTO   O22 1994   5.183   4.544   7.186 -0.1325 -0.1163 -0.5374
    5CHTO   C31 1995   5.304   4.463   7.164 -0.2375 -0.1327 -0.1130
    5CHTO   H59 1996   5.326   4.413   7.260  1.3563  1.7475  0.5446
    5CHTO   C29 1997   5.281   4.350   7.060  0.3572 -0.2999  0.4858
    5CHTO   H57 1998   5.233   4.387   6.968  1.2985 -0.7457 -0.1928
    5CHTO   O21 1999   5.180   4.260   7.120  0.3452  0.1073 -0.3520
    5CHTO   H37 2000   5.129   4.216   7.054  2.3466  0.0190 -1.8983
    5CHTO   C27 2001   5.411   4.268   7.028  0.2080 -0.4584 -0.0583
    5CHTO   H55 2002   5.442   4.211   7.117  0.4508 -0.9808 -0.4752
    5CHTO    N5 2003   5.399   4.170   6.917 -0.0323 -0.3039 -0.3899
    5CHTO   H43 2004   5.329   4.092   6.941  0.4802 -1.6222 -3.0105
    5CHTO   H44 2005   5.497   4.125   6.913  0.2536  0.2925 -0.2334
    5CHTO   C25 2006   5.529   4.369   6.993 -0.5022  0.1172  0.3958
    5CHTO   H53 2007   5.511   4.422   6.898  1.8994 -0.7994 -0.6199
    5CHTO   O17 2008   5.551   4.465   7.097 -0.0979 -0.2788 -0.1862
    5CHTO   C32 2009   5.438   4.550   7.136 -0.1047 -0.0566 -0.4565
    5CHTO   H60 2010   5.416   4.626   7.061 -3.2143  1.9479  2.3188
    5CHTO   C36 2011   5.483   4.633   7.260 -0.4553 -0.1034 -0.1412
    5CHTO   O25 2012   5.489   4.553   7.375  0.7605 -0.2405  0.7905
    5CHTO   H40 2013   5.401   4.537   7.400  0.2236  0.3739 -0.6130
    5CHTO   O15 2014   5.666   4.290   6.967  0.2178 -0.3995 -0.1843
    5CHTO   C19 2015   5.795   4.344   6.936 -0.0270  0.4340  0.1977
    5CHTO   H47 2016   5.779   4.446   6.973 -0.6221  1.0898 -1.7736
    5CHTO   C20 2017   5.906   4.284   7.020 -0.2139 -0.2493  0.0896
    5CHTO   H48 2018   5.906   4.174   7.020 -0.0393 -0.2495 -0.0167
    5CHTO   O19 2019   5.879   4.308   7.163  0.0375 -0.1707  0.2159
    5CHTO   H35 2020   5.898   4.396   7.189 -0.3337  0.6070 -2.0884
    5CHTO   C21 2021   6.048   4.339   6.994  0.0246 -0.0978  0.1438
    5CHTO   H49 2022   6.057   4.445   7.018  2.3794  0.0669 -1.2725
    5CHTO    N4 2023   6.155   4.250   7.052 -0.2122 -0.0272  0.9104
    5CHTO   H41 2024   6.167   4.163   6.989 -1.2542  1.0676 -0.8494
    5CHTO   H42 2025   6.244   4.310   7.044  0.3965 -0.8987  1.1241
    5CHTO   C22 2026   6.069   4.350   6.840  0.2493 -0.1865  0.7708
    5CHTO   H50 2027   6.071   4.248   6.799  1.5844 -0.1455  0.7116
    5CHTO   O14 2028   5.961   4.428   6.778 -0.4862  0.1038  0.1619
    5CHTO   C23 2029   5.839   4.356   6.786  0.3163 -0.4925  0.1722
    5CHTO   H51 2030   5.861   4.259   6.738  0.4944 -1.4972  2.2537
    5CHTO   C34 2031   5.732   4.438   6.712 -0.3880 -0.1312 -0.7309
    5CHTO   O23 2032   5.743   4.416   6.568  0.0543 -0.2158 -0.2220
    5CHTO   H38 2033   5.834   4.427   6.546 -0.2532 -1.1429 -2.0182
    5CHTO   O16 2034   6.185   4.424   6.804  0.3470  0.0995 -0.1149
    5CHTO   C24 2035   6.274   4.358   6.686  0.0831 -0.6078  0.2343
    5CHTO   H52 2036   6.219   4.290   6.621  2.1670 -1.4933 -0.6546
    5CHTO   C26 2037   6.407   4.292   6.730 -0.0457  0.1367  0.2680
    5CHTO   H54 2038   6.457   4.364   6.799 -0.4273 -1.3387  2.1392
    5CHTO   O20 2039   6.371   4.174   6.810  0.0950 -0.2621  0.6000
    5CHTO   H36 2040   6.334   4.199   6.892  1.2235 -2.7146  1.8841
    5CHTO   C30 2041   6.502   4.263   6.604 -0.0711 -0.1227 -0.1835
    5CHTO   H58 2042   6.458   4.189   6.536  1.2734 -1.0178 -0.0852
    5CHTO    N6 2043   6.631   4.200   6.642  0.3488 -0.1608 -0.4890
    5CHTO   H45 2044   6.711   4.268   6.665  2.5444 -1.7542 -3.0994
    5CHTO   H46 2045   6.617   4.129   6.722  2.1222  1.0077  0.8819
    5CHTO   C33 2046   6.521   4.396   6.527  0.7903 -0.1004  0.0563
    5CHTO   H61 2047   6.556   4.469   6.601  0.8153  1.8846 -1.8879
    5CHTO   O18 2048   6.392   4.447   6.481  1.3230 -0.1183  0.2839
    5CHTO   C28 2049   6.310   4.481   6.596 -0.5340  0.7165  0.4264
    5CHTO   H56 2050   6.353   4.561   6.657 -0.9248  1.0350  0.2865
    5CHTO   C35 2051   6.185   4.556   6.545 -0.5119  0.5405  0.0985
    5CHTO   O24 2052   6.082   4.479   6.477 -0.1723  0.3996  0.2222
    5CHTO   H39 2053   6.095   4.458   6.387  0.9924  2.6791 -0.1748
    5CHTO    O9 2054   6.613   4.394   6.424  0.1987  0.5655  0.0463
    5CHTO   C13 2055   6.566   4.371   6.276 -0.2690  0.2709  0.1997
    5CHTO   H26 2056   6.492   4.448   6.247  0.6708  0.6093 -1.3734
    5CHTO   C11 2057   6.503   4.220   6.265  0.3486 -0.4651  0.7858
    5CHTO   H24 2058   6.414   4.219   6.330 -0.2516 -2.4747 -0.0470
    5CHTO    O8 2059   6.589   4.108   6.296 -0.4002 -0.3190 -0.0453
    5CHTO    H3 2060   6.541   4.028   6.286  1.7926 -1.6258 -0.4862
    5CHTO    C9 2061   6.458   4.202   6.123 -0.6330  0.4610  0.1158
    5CHTO   H22 2062   6.394   4.289   6.101  0.3521  1.1716  0.0188
    5CHTO    N2 2063   6.368   4.085   6.100 -0.5187  0.2010  0.4506
    5CHTO   H10 2064   6.312   4.080   6.193  0.1544 -1.9648  0.7579
    5CHTO   H11 2065   6.434   4.000   6.103 -2.0415 -0.9948  1.6565
    5CHTO    C7 2066   6.581   4.221   6.015 -0.2164 -0.6328  0.4903
    5CHTO   H20 2067   6.549   4.295   5.939  0.4981 -0.0111  0.7843
    5CHTO    O4 2068   6.701   4.274   6.079 -0.4471 -0.0654 -0.1554
    5CHTO   C14 2069   6.685   4.383   6.174 -0.2050  0.2837  0.0574
    5CHTO   H27 2070   6.657   4.473   6.116 -1.9649 -0.6254 -0.5640
    5CHTO   C18 2071   6.819   4.413   6.247  0.5174  0.6356  0.6954
    5CHTO   O13 2072   6.925   4.412   6.147  0.1002  0.2672  0.0055
    5CHTO    H7 2073   6.960   4.326   6.135  0.0927  0.2633  0.0110
    5CHTO    O2 2074   6.622   4.080   5.950  0.1610 -0.1769  0.0609
    5CHTO    C1 2075   6.646   4.091   5.808 -0.2468  0.2818  0.4581
    5CHTO   H14 2076   6.657   4.194   5.771 -0.3821  0.8266  1.8873
    5CHTO    C2 2077   6.520   4.025   5.729 -0.5281  0.0692  0.0226
    5CHTO   H15 2078   6.493   3.927   5.772 -0.7177 -0.3449 -1.0297
    5CHTO    O6 2079   6.404   4.108   5.761 -0.3073 -0.7432  1.3011
    5CHTO    H1 2080   6.414   4.199   5.743  0.5549 -1.1180 -0.1989
    5CHTO    C3 2081   6.551   4.026   5.574  0.0732 -0.5230 -0.4129
    5CHTO   H16 2082   6.577   4.128   5.545  2.3561 -0.1968  2.5189
    5CHTO    N1 2083   6.435   3.977   5.488  0.2848  0.2647 -1.0559
    5CHTO    H8 2084   6.398   4.051   5.419  0.1274  1.4598  0.2789
    5CHTO    H9 2085   6.355   3.942   5.552 -0.6004  3.9973 -0.0262
    5CHTO    C4 2086   6.682   3.946   5.551 -0.5474  0.6697 -0.4407
    5CHTO   H17 2087   6.654   3.842   5.569 -1.3032  0.8404 -0.6359
    5CHTO    O1 2088   6.797   3.997   5.632  0.0803  0.2512 -0.3547
    5CHTO    C5 2089   6.773   4.012   5.774 -0.4935  0.3554  0.6205
    5CHTO   H18 2090   6.761   3.914   5.820 -2.8321  0.3403  0.0906
    5CHTO   C16 2091   6.893   4.089   5.836 -0.1225  0.1444  0.4663
    5CHTO   O11 2092   6.915   4.214   5.765 -0.5789 -0.0533  0.9044
    5CHTO    H5 2093   6.977   4.203   5.695  1.2928  1.5573  2.2559
    5CHTO    O3 2094   6.729   3.965   5.417  0.3018 -0.3090 -0.6697
    5CHTO    C6 2095   6.861   3.928   5.369  0.1826 -0.7816 -0.1697
    5CHTO   H19 2096   6.935   3.918   5.448  0.5681 -0.9075 -0.5453
    5CHTO    C8 2097   6.845   3.797   5.289 -0.4067 -0.2997  0.2076
    5CHTO   H21 2098   6.765   3.817   5.217  0.4073  2.4452 -0.0164
    5CHTO    O7 2099   6.824   3.689   5.379  0.2614 -0.2244  0.0129
    5CHTO    H2 2100   6.733   3.686   5.401  0.3361  2.6055  0.8908
    5CHTO   C12 2101   6.973   3.775   5.194  0.0114  0.4880 -0.2024
    5CHTO   H25 2102   7.059   3.769   5.265  1.0722  1.6104 -1.3477
    5CHTO    N3 2103   6.977   3.641   5.119  0.2179  0.6492 -0.4020
    5CHTO   H12 2104   6.919   3.651   5.028  0.4452  2.4221 -0.3577
    5CHTO   H13 2105   7.080   3.614   5.102 -0.0166  0.5188 -1.6511
    5CHTO   C15 2106   6.992   3.909   5.109 -0.1753  0.5287 -0.6249
    5CHTO   H28 2107   6.907   3.924   5.043 -1.7410 -1.2708  0.9172
    5CHTO   O10 2108   7.123   3.894   5.033  0.2446  0.2544  0.2060
    5CHTO    H4 2109   7.109   3.814   4.986 -0.7158  0.5473 -0.0368
    5CHTO    O5 2110   7.021   4.017   5.199  0.2718 -0.0601 -0.1427
    5CHTO   C10 2111   6.908   4.043   5.287 -0.3361  0.4885 -0.3642
    5CHTO   H23 2112   6.826   4.085   5.228  0.5060  1.1301 -1.0894
    5CHTO   C17 2113   6.949   4.167   5.370  0.1076  0.8431 -0.5288
    5CHTO   O12 2114   6.845   4.224   5.451 -0.0719  0.4629  0.1645
    5CHTO    H6 2115   6.826   4.313   5.428 -1.3110 -0.1252 -1.1685
    6CHTO  H203 2116   7.489   6.074   2.232 -0.4395  0.6417 -0.8044
    6CHTO   O82 2117   7.415   6.024   2.202 -0.0107 -0.4142 -0.1327
    6CHTO  C123 2118   7.298   6.095   2.241  0.1139  0.3339 -0.0334
    6CHTO  H227 2119   7.311   6.201   2.216  1.2062 -0.2482 -2.0540
    6CHTO   O77 2120   7.193   6.045   2.152 -0.0974 -0.4525 -0.3701
    6CHTO  C118 2121   7.060   6.098   2.169 -0.4392  0.0322 -0.2775
    6CHTO  H222 2122   7.061   6.208   2.162 -1.4066  0.1055  0.7107
    6CHTO  C125 2123   6.972   6.044   2.050 -0.3543  0.0646 -0.5385
    6CHTO   O84 2124   6.934   5.906   2.071  0.0053  0.4851 -0.3147
    6CHTO  H205 2125   6.885   5.871   1.999 -0.2544 -0.9545  0.5424
    6CHTO  C114 2126   7.018   6.069   2.318 -0.0422 -0.8831  0.0262
    6CHTO  H218 2127   7.008   5.962   2.334 -0.6355 -0.7472  0.6237
    6CHTO  C116 2128   7.118   6.124   2.427 -0.2973 -0.2642 -0.3109
    6CHTO  H220 2129   7.114   6.235   2.423  0.9946 -0.2749 -2.3252
    6CHTO   O79 2130   7.083   6.091   2.560 -0.1313 -0.0135 -0.8072
    6CHTO  H201 2131   7.080   5.999   2.578  0.3493  0.0093 -0.6172
    6CHTO  C120 2132   7.261   6.072   2.396 -0.1473  1.1908 -0.5918
    6CHTO  H224 2133   7.267   5.962   2.413 -0.4323  1.3434  0.4976
    6CHTO   N21 2134   7.363   6.137   2.481 -0.1023  0.7992 -0.2874
    6CHTO  H211 2135   7.354   6.075   2.569  0.9000 -1.5122 -1.7378
    6CHTO  H212 2136   7.351   6.243   2.495  1.0583  1.1067 -1.4907
    6CHTO   O75 2137   6.885   6.128   2.320 -0.2079 -0.0049 -0.2756
    6CHTO  C112 2138   6.780   6.037   2.376 -0.0699  0.2383  0.7987
    6CHTO  H216 2139   6.824   5.968   2.449  0.2647  1.5800  1.8910
    6CHTO   O73 2140   6.725   5.971   2.266  0.3285  0.0493  0.4833
    6CHTO  C113 2141   6.636   5.866   2.308 -0.8631  0.0872 -0.1262
    6CHTO  H217 2142   6.681   5.802   2.386 -0.2412  0.5089 -0.1346
    6CHTO  C124 2143   6.597   5.772   2.194 -0.2946  0.2813  0.7098
    6CHTO   O83 2144   6.710   5.706   2.129  0.3187 -0.0336 -0.0281
    6CHTO  H204 2145   6.736   5.631   2.180 -2.4815 -0.2312  1.1671
    6CHTO  C109 2146   6.506   5.939   2.363  0.4334 -0.2844 -0.2515
    6CHTO  H213 2147   6.468   6.006   2.285  1.4927 -0.7265 -1.1589
    6CHTO  C110 2148   6.539   6.033   2.483 -0.3666 -0.3287 -0.5547
    6CHTO  H214 2149   6.548   5.969   2.571 -0.6641 -0.1050 -0.3562
    6CHTO   O78 2150   6.432   6.120   2.514  0.6202  0.1576 -0.5102
    6CHTO  H200 2151   6.354   6.071   2.496  1.1432 -1.4972  1.4043
    6CHTO  C111 2152   6.669   6.120   2.453 -0.0219  0.5957 -0.2551
    6CHTO  H215 2153   6.633   6.201   2.388 -1.5794  1.9695  2.2299
    6CHTO   N19 2154   6.721   6.185   2.572 -0.3942 -0.4235 -0.3072
    6CHTO  H207 2155   6.717   6.292   2.559 -2.6927 -0.3672  0.6996
    6CHTO  H208 2156   6.687   6.145   2.666 -1.5474  0.5485 -0.2964
    6CHTO   O74 2157   6.395   5.842   2.392 -0.3880  0.3034  0.3144
    6CHTO  C115 2158   6.233   5.907   2.405  0.8203 -0.0077  0.0401
    6CHTO  H219 2159   6.226   6.008   2.365 -0.9102 -0.4240 -0.7575
    6CHTO   O76 2160   6.119   5.829   2.298  0.0045 -0.1568  0.3207
    6CHTO  C122 2161   6.130   5.688   2.331 -0.1942  0.4046 -0.1201
    6CHTO  H226 2162   6.223   5.649   2.289  0.3185 -0.8518  2.1159
    6CHTO  C126 2163   6.012   5.626   2.252  0.1438  0.3561 -0.7629
    6CHTO   O85 2164   6.041   5.617   2.114  0.3923  0.3230  0.1473
    6CHTO  H206 2165   6.102   5.551   2.089 -2.2609 -2.0741 -0.3473
    6CHTO  C121 2166   6.132   5.651   2.484  0.5122 -0.5050 -0.5253
    6CHTO  H225 2167   6.051   5.575   2.487 -0.2488  0.3556  1.0637
    6CHTO   O81 2168   6.263   5.602   2.521  0.0554  0.3415 -0.2085
    6CHTO  H202 2169   6.260   5.556   2.603  0.9629  0.0053 -0.3547
    6CHTO  C119 2170   6.094   5.764   2.578 -0.0855  0.3324 -0.5265
    6CHTO  H223 2171   5.991   5.787   2.549  0.5194  2.5735 -0.9827
    6CHTO  C117 2172   6.186   5.893   2.557 -0.3606  0.0282 -0.7151
    6CHTO  H221 2173   6.281   5.909   2.608  0.0549 -0.9629 -1.1725
    6CHTO   N20 2174   6.112   6.018   2.599 -0.1483 -0.0798 -0.2706
    6CHTO  H209 2175   6.181   6.101   2.605  0.9236 -0.9670 -0.2594
    6CHTO  H210 2176   6.076   6.006   2.700  0.8711  0.7739  0.2094
    6CHTO   O80 2177   6.073   5.713   2.741  0.2753  0.0333 -0.3772
    6CHTO  C103 2178   5.931   5.719   2.803 -0.4433  0.2187  0.7124
    6CHTO  H190 2179   5.932   5.688   2.907  0.7328  0.3121  0.7410
    6CHTO  C101 2180   5.859   5.856   2.784  0.1700  0.2856 -0.4205
    6CHTO  H188 2181   5.857   5.881   2.678  0.7094 -0.2359 -0.5558
    6CHTO   O68 2182   5.936   5.965   2.861  0.0687 -0.3281 -0.8939
    6CHTO  H168 2183   5.899   6.048   2.836 -2.2745 -0.3744  2.0945
    6CHTO   C99 2184   5.707   5.837   2.830  0.4206  0.3007  0.1704
    6CHTO  H186 2185   5.719   5.834   2.941 -0.0154 -1.5175  0.1847
    6CHTO   N17 2186   5.618   5.957   2.807 -0.0460 -0.0268  0.1510
    6CHTO  H174 2187   5.523   5.956   2.859  1.4080 -0.1914  2.8996
    6CHTO  H175 2188   5.620   5.994   2.705 -1.5276  0.2837  0.2200
    6CHTO   C97 2189   5.637   5.704   2.782  0.1244 -1.6327  0.0503
    6CHTO  H184 2190   5.609   5.732   2.679  0.2228  2.4895  1.0638
    6CHTO   O64 2191   5.720   5.587   2.785 -0.6254  0.0797  0.6542
    6CHTO  C104 2192   5.848   5.604   2.719  0.4574  0.2487  0.7467
    6CHTO  H191 2193   5.837   5.635   2.615 -0.7138 -2.7028 -0.0464
    6CHTO  C108 2194   5.929   5.473   2.715 -0.4431  0.4250 -0.0992
    6CHTO   O71 2195   5.976   5.422   2.838  0.1358 -0.2775  1.0371
    6CHTO  H171 2196   6.033   5.484   2.878 -1.0970  2.2091 -0.8787
    6CHTO   O62 2197   5.519   5.683   2.858  0.2480  0.3950  0.2336
    6CHTO   C91 2198   5.529   5.612   2.984 -0.1531 -0.4360 -0.2935
    6CHTO  H178 2199   5.621   5.645   3.032 -0.9634  1.9964 -0.3519
    6CHTO   C92 2200   5.518   5.455   2.963 -0.1310 -0.0248  0.1865
    6CHTO  H179 2201   5.567   5.442   2.865  0.1284  4.7928 -0.4705
    6CHTO   O66 2202   5.602   5.378   3.052 -0.2174  0.2818  0.0591
    6CHTO  H166 2203   5.566   5.397   3.137 -0.9298  1.6906 -0.5555
    6CHTO   C93 2204   5.370   5.406   2.968  0.4917 -0.1061  0.7649
    6CHTO  H180 2205   5.375   5.297   2.968 -0.2212 -0.1415  1.8883
    6CHTO   N16 2206   5.288   5.454   2.852 -0.7228 -0.4627 -0.0264
    6CHTO  H172 2207   5.182   5.433   2.866 -0.8749  1.2530  1.5175
    6CHTO  H173 2208   5.326   5.406   2.763  2.8316 -0.2958  1.3297
    6CHTO   C94 2209   5.306   5.454   3.109  0.1581 -0.3423 -0.4806
    6CHTO  H181 2210   5.204   5.491   3.099  1.5097  3.3473 -1.0732
    6CHTO   O61 2211   5.381   5.556   3.171  0.4905  0.0676 -0.1886
    6CHTO   C95 2212   5.419   5.663   3.089 -0.1093 -0.2508  0.1879
    6CHTO  H182 2213   5.330   5.702   3.040  0.0566  0.9664  0.8181
    6CHTO  C106 2214   5.464   5.784   3.189 -0.5672  0.0424  0.4906
    6CHTO   O69 2215   5.522   5.895   3.120  0.0098 -0.1555 -0.2485
    6CHTO  H169 2216   5.471   5.972   3.133  0.5687 -0.0324  1.4136
    6CHTO   O63 2217   5.303   5.337   3.204 -0.0928  0.0004  0.2309
    6CHTO   C96 2218   5.201   5.215   3.163 -0.5764 -0.4426  0.0825
    6CHTO  H183 2219   5.190   5.229   3.056  0.5834 -1.7937 -0.2344
    6CHTO   C98 2220   5.053   5.225   3.224 -0.0178  0.6675 -0.0041
    6CHTO  H185 2221   5.062   5.242   3.332 -1.1031  0.7395  0.0829
    6CHTO   O67 2222   4.990   5.345   3.171 -0.4733 -0.2917 -0.1750
    6CHTO  H167 2223   4.908   5.327   3.130 -0.4184  1.4461 -1.0799
    6CHTO  C102 2224   4.960   5.092   3.207 -0.3029 -0.1211  0.2584
    6CHTO  H189 2225   4.940   5.092   3.099  0.3845  0.3221  0.1231
    6CHTO   N18 2226   4.834   5.080   3.278 -0.4084 -0.3100  0.2952
    6CHTO  H176 2227   4.776   5.003   3.229 -0.0598  0.1164 -0.8198
    6CHTO  H177 2228   4.835   5.069   3.385 -1.7157  0.5199  0.4074
    6CHTO  C105 2229   5.055   4.970   3.232  0.8156  0.6036 -0.6679
    6CHTO  H192 2230   5.084   4.969   3.337 -0.1166 -1.4293 -0.4047
    6CHTO   O65 2231   5.171   4.967   3.148  0.2680  0.0467  0.2452
    6CHTO  C100 2232   5.266   5.070   3.183  0.5494  0.1025  0.1195
    6CHTO  H187 2233   5.281   5.066   3.292  1.2271  1.8762  0.1119
    6CHTO  C107 2234   5.399   5.055   3.102  0.2169 -0.0766  0.1194
    6CHTO   O70 2235   5.473   4.956   3.172  0.2179  0.5043 -0.6027
    6CHTO  H170 2236   5.506   4.998   3.249  2.4812  2.5164 -2.5832
    6CHTO   O57 2237   4.955   4.820   3.203  0.1190 -0.0026  0.6718
    6CHTO   C85 2238   4.983   4.703   3.280 -0.4526 -0.2479  0.3632
    6CHTO  H157 2239   4.926   4.624   3.227 -1.5736  1.0152 -0.3677
    6CHTO   C83 2240   4.904   4.705   3.420 -0.5540  0.3984  0.3382
    6CHTO  H155 2241   4.799   4.678   3.407 -0.0377 -1.3079 -0.4813
    6CHTO   O56 2242   4.912   4.833   3.487  0.1353 -0.0485 -0.1919
    6CHTO  H135 2243   4.898   4.904   3.427 -2.4704 -0.4677 -0.1563
    6CHTO   C81 2244   4.959   4.591   3.508 -0.5129  0.3180 -0.0441
    6CHTO  H153 2245   4.939   4.498   3.455  0.1391 -0.2269  0.6449
    6CHTO   N14 2246   4.897   4.564   3.640  0.0358 -0.4263 -0.0054
    6CHTO  H141 2247   4.792   4.550   3.624 -0.3370  2.4552 -0.4736
    6CHTO  H142 2248   4.941   4.475   3.678 -2.3583 -2.7090 -2.3276
    6CHTO   C79 2249   5.110   4.603   3.519 -0.2881 -0.2104  0.1613
    6CHTO  H151 2250   5.150   4.528   3.588  0.4740  0.2964  0.2849
    6CHTO   O52 2251   5.180   4.574   3.393  0.2621 -0.1760  0.4543
    6CHTO   C86 2252   5.152   4.669   3.286 -0.1860 -0.2248 -0.1291
    6CHTO  H158 2253   5.211   4.757   3.320 -1.1984  2.1654 -4.0989
    6CHTO   C90 2254   5.225   4.614   3.153 -0.1711 -0.1717  0.0503
    6CHTO   O60 2255   5.365   4.627   3.157  0.2568 -0.4344 -0.2204
    6CHTO  H138 2256   5.405   4.560   3.209  1.3687 -0.3671 -0.9883
    6CHTO   O50 2257   5.159   4.726   3.572  0.0796  0.0282  0.2673
    6CHTO   C73 2258   5.225   4.764   3.693  0.6682 -0.1620 -0.1764
    6CHTO  H145 2259   5.234   4.682   3.766  1.9532  0.1084 -0.0165
    6CHTO   C74 2260   5.141   4.879   3.752 -0.2040  0.2115 -0.5201
    6CHTO  H146 2261   5.040   4.839   3.767 -0.3833  0.0685 -2.0563
    6CHTO   O54 2262   5.185   4.908   3.890 -0.0009 -0.2976  1.0056
    6CHTO  H133 2263   5.118   4.954   3.936  0.8073 -0.6295  2.5620
    6CHTO   C75 2264   5.138   5.011   3.670  0.1648  0.8574 -0.0270
    6CHTO  H147 2265   5.095   4.995   3.570 -0.9857 -0.4736  0.6673
    6CHTO   N13 2266   5.063   5.124   3.728 -0.3355 -0.3282  0.0864
    6CHTO  H139 2267   5.115   5.215   3.705 -2.9867  0.8666 -1.3602
    6CHTO  H140 2268   4.969   5.129   3.676 -0.1016 -0.1585 -0.3178
    6CHTO   C76 2269   5.294   5.047   3.637  0.3464 -0.1470 -0.0412
    6CHTO  H148 2270   5.352   5.074   3.725  0.2479 -0.0277 -0.0133
    6CHTO   O49 2271   5.350   4.932   3.571 -0.2673  0.7685 -0.2119
    6CHTO   C77 2272   5.368   4.820   3.662  0.0754 -0.4611  0.2191
    6CHTO  H149 2273   5.413   4.862   3.752  1.3210  0.3267 -0.7653
    6CHTO   C88 2274   5.467   4.714   3.614  0.6657  0.5401 -0.6651
    6CHTO   O58 2275   5.462   4.691   3.465 -0.3914  0.5130 -0.0580
    6CHTO  H136 2276   5.380   4.648   3.451  0.7339 -1.8632  0.3319
    6CHTO   O51 2277   5.302   5.179   3.531 -0.3499 -0.1317 -0.0146
    6CHTO   C78 2278   5.424   5.271   3.564 -0.2410  0.0473 -0.5167
    6CHTO  H150 2279   5.466   5.250   3.664 -1.8205 -1.7293 -0.2029
    6CHTO   C80 2280   5.371   5.413   3.558 -0.2178  0.1660  0.0581
    6CHTO  H152 2281   5.325   5.426   3.458 -1.4498  0.3562  0.6467
    6CHTO   O55 2282   5.276   5.422   3.665  0.8420  0.1971  0.1905
    6CHTO  H134 2283   5.262   5.514   3.673  2.1601  0.3656  0.6670
    6CHTO   C84 2284   5.483   5.520   3.588  0.3291  0.3475  0.2138
    6CHTO  H156 2285   5.529   5.518   3.687  2.1438 -1.0595 -0.6290
    6CHTO   N15 2286   5.431   5.663   3.579  0.3325  0.8820  0.0212
    6CHTO  H143 2287   5.412   5.702   3.677 -0.0182  1.1779 -0.1653
    6CHTO  H144 2288   5.334   5.644   3.538 -0.0379 -0.6592  1.5411
    6CHTO   C87 2289   5.597   5.498   3.489 -0.3749  0.5708 -0.0304
    6CHTO  H159 2290   5.561   5.514   3.388 -1.4415 -0.0879  0.2418
    6CHTO   O53 2291   5.641   5.353   3.494 -0.3202 -0.2952  0.3353
    6CHTO   C82 2292   5.545   5.251   3.465 -0.0373 -0.8987 -0.1243
    6CHTO  H154 2293   5.507   5.264   3.363 -2.1629  0.1209  0.7728
    6CHTO   C89 2294   5.611   5.111   3.479 -0.1544  0.1921  0.2782
    6CHTO   O59 2295   5.627   5.083   3.614  0.6576 -0.3938  0.4291
    6CHTO  H137 2296   5.705   5.131   3.634  1.1224 -1.9984  2.6868
    6CHTO   O45 2297   5.744   5.594   3.533  0.7936  0.4204 -0.4567
    6CHTO   C67 2298   5.841   5.566   3.429  0.3003  0.1552 -0.0835
    6CHTO  H124 2299   5.826   5.466   3.388 -1.0631  0.0397  0.6744
    6CHTO   C65 2300   5.814   5.667   3.312  0.0549 -0.3999 -0.6659
    6CHTO  H122 2301   5.713   5.705   3.321  0.7186  0.9384  1.3887
    6CHTO   O44 2302   5.833   5.604   3.184  0.1585  0.0692  0.5321
    6CHTO  H102 2303   5.924   5.593   3.167 -0.0293  0.7736 -0.9608
    6CHTO   C63 2304   5.905   5.797   3.331 -0.6227 -0.5008  0.3313
    6CHTO  H120 2305   5.897   5.825   3.436 -3.0297  2.3802 -0.5436
    6CHTO   N11 2306   5.868   5.928   3.262  1.1436  0.1852  0.0058
    6CHTO  H108 2307   5.946   5.974   3.205  0.6441 -0.0759 -0.8946
    6CHTO  H109 2308   5.788   5.900   3.197  0.9862 -0.7964  0.6015
    6CHTO   C61 2309   6.058   5.756   3.314  0.2797 -0.1559  0.6286
    6CHTO  H118 2310   6.122   5.818   3.378 -0.1808 -0.7255  1.6534
    6CHTO   O40 2311   6.077   5.618   3.365  0.0871  0.3595  0.5391
    6CHTO   C68 2312   5.988   5.577   3.477  0.1894  0.6341  0.0845
    6CHTO  H125 2313   5.998   5.655   3.554  0.5718  0.8825 -0.2117
    6CHTO   C72 2314   6.043   5.446   3.547  0.2851 -0.2742  0.4729
    6CHTO   O48 2315   6.163   5.464   3.621  0.0283  0.6605 -0.6428
    6CHTO  H105 2316   6.193   5.390   3.669  1.0506  1.2303 -0.3954
    6CHTO   O38 2317   6.096   5.755   3.175 -0.2493 -0.2775  0.2526
    6CHTO   C55 2318   6.237   5.787   3.160  0.4238 -0.2544  0.0784
    6CHTO  H112 2319   6.293   5.794   3.254 -0.8530  0.3545  0.8240
    6CHTO   C56 2320   6.239   5.933   3.072 -0.5446 -0.2998  0.0036
    6CHTO  H113 2321   6.157   5.923   2.999 -0.6060  0.5085 -0.0379
    6CHTO   O42 2322   6.199   6.040   3.155  0.1073 -0.1299  0.2553
    6CHTO  H100 2323   6.210   6.121   3.108  0.6491 -1.5772 -2.2249
    6CHTO   C57 2324   6.371   5.953   3.000  1.1051 -0.9930  0.3432
    6CHTO  H114 2325   6.441   5.989   3.076  2.2499  2.4367 -2.1831
    6CHTO   N10 2326   6.355   6.066   2.901 -0.6574  0.1718 -0.0701
    6CHTO  H106 2327   6.320   6.036   2.803 -0.6354 -0.6282  0.1632
    6CHTO  H107 2328   6.301   6.155   2.929 -0.3955  0.5517 -0.7660
    6CHTO   C58 2329   6.430   5.826   2.931  1.1513 -0.1006 -0.5112
    6CHTO  H115 2330   6.357   5.788   2.856 -1.1914  0.5488  1.3960
    6CHTO   O37 2331   6.433   5.725   3.036 -0.5341 -0.0650 -0.2501
    6CHTO   C59 2332   6.304   5.676   3.073 -0.0693 -0.3718 -0.3217
    6CHTO  H116 2333   6.244   5.658   2.984 -2.6715  1.9277  0.8925
    6CHTO   C70 2334   6.295   5.530   3.138 -0.0749 -0.1838 -0.1104
    6CHTO   O46 2335   6.324   5.521   3.278 -0.1640 -0.2786  0.1783
    6CHTO  H103 2336   6.242   5.529   3.321 -0.8474 -3.1920 -0.4158
    6CHTO   O39 2337   6.581   5.846   2.881  0.3883 -0.1776  0.3737
    6CHTO   C60 2338   6.650   5.733   2.821  0.4028  0.5681  0.0574
    6CHTO  H117 2339   6.679   5.667   2.903  0.3625 -1.8574 -1.8132
    6CHTO   C62 2340   6.564   5.643   2.728  0.2136 -0.2884  0.3660
    6CHTO  H119 2341   6.489   5.598   2.796 -0.0320  0.5909  0.6810
    6CHTO   O43 2342   6.507   5.731   2.628 -0.4857  0.3246 -0.4724
    6CHTO  H101 2343   6.451   5.682   2.570  0.1621 -0.1697 -0.6906
    6CHTO   C66 2344   6.666   5.530   2.661  0.2411  0.2155 -0.5978
    6CHTO  H123 2345   6.711   5.466   2.737  1.3677 -0.0889 -1.5120
    6CHTO   N12 2346   6.592   5.434   2.573  0.2589  0.6260 -0.1211
    6CHTO  H110 2347   6.528   5.377   2.638 -1.4261  0.8705 -1.5553
    6CHTO  H111 2348   6.660   5.364   2.526 -1.0184 -0.6358 -0.1139
    6CHTO   C69 2349   6.790   5.595   2.594  0.1382 -0.0774 -0.2022
    6CHTO  H126 2350   6.762   5.659   2.508 -1.7900  1.5743  1.5942
    6CHTO   O41 2351   6.859   5.681   2.700  0.4619  0.1496  0.0951
    6CHTO   C64 2352   6.777   5.789   2.751  0.0573 -0.0700 -0.3649
    6CHTO  H121 2353   6.748   5.860   2.670 -0.3078  0.2420  0.0351
    6CHTO   C71 2354   6.849   5.883   2.860 -0.8805  0.1665 -0.2286
    6CHTO   O47 2355   6.947   5.971   2.805 -0.4297  0.2136  0.0361
    6CHTO  H104 2356   7.025   5.929   2.775 -0.4003  0.8423 -0.7774
    6CHTO   O34 2357   6.896   5.492   2.546  0.4469  0.8193  0.4972
    6CHTO   C49 2358   7.007   5.525   2.433 -0.6230  0.1062 -0.3932
    6CHTO   H91 2359   6.959   5.510   2.336  0.2078 -0.6198 -0.7013
    6CHTO   C47 2360   7.124   5.426   2.457  0.2080  0.2793  0.1494
    6CHTO   H89 2361   7.179   5.424   2.361 -0.8426  1.8528 -0.5129
    6CHTO   O33 2362   7.072   5.292   2.476 -0.3033  0.2516  0.0628
    6CHTO   H70 2363   7.002   5.267   2.419  0.2622  0.7040 -0.8366
    6CHTO   C45 2364   7.207   5.465   2.588 -0.1767 -0.8730  0.6550
    6CHTO   H87 2365   7.189   5.393   2.669  0.0763 -1.8177 -0.1118
    6CHTO    N8 2366   7.351   5.458   2.558 -0.0733  0.3193  0.0424
    6CHTO   H75 2367   7.391   5.428   2.653  1.9193 -0.4624 -1.0100
    6CHTO   H76 2368   7.375   5.382   2.484 -0.6632 -1.4956  1.6771
    6CHTO   C43 2369   7.153   5.607   2.655 -0.4211 -0.0127  0.3463
    6CHTO   H85 2370   7.056   5.584   2.700  0.2958 -3.7328  0.1409
    6CHTO   O29 2371   7.146   5.708   2.553 -0.0516 -0.3244  0.1568
    6CHTO   C50 2372   7.066   5.675   2.442 -0.1356 -0.1194 -0.0510
    6CHTO   H92 2373   6.983   5.747   2.436 -0.5862 -0.6133  0.1660
    6CHTO   C54 2374   7.131   5.714   2.309 -0.5015 -0.4637 -0.5248
    6CHTO   O36 2375   7.262   5.662   2.294  0.2678 -0.7926  0.3664
    6CHTO   H72 2376   7.321   5.730   2.319  0.3638 -1.5260  2.1698
    6CHTO   O27 2377   7.236   5.651   2.767 -0.5008  0.5204 -0.5175
    6CHTO   C37 2378   7.282   5.746   2.866 -0.6341  0.0243  0.0875
    6CHTO   H79 2379   7.388   5.731   2.890 -1.1270  0.3850  2.7538
    6CHTO   C38 2380   7.297   5.892   2.804  0.4866  0.3053  0.7734
    6CHTO   H80 2381   7.199   5.920   2.762  0.7090  0.2897  0.2410
    6CHTO   O31 2382   7.400   5.890   2.702 -0.3238  0.2576 -0.3693
    6CHTO   H68 2383   7.486   5.863   2.728 -1.0341 -1.6545  0.0228
    6CHTO   C39 2384   7.333   5.994   2.920  0.2121 -0.3763  0.5618
    6CHTO   H81 2385   7.433   5.964   2.953  0.8867  1.2646  0.0695
    6CHTO    N7 2386   7.337   6.135   2.873 -0.1734 -0.2192 -0.2174
    6CHTO   H73 2387   7.307   6.146   2.770 -0.0574 -1.2010 -0.3589
    6CHTO   H74 2388   7.431   6.180   2.899 -0.2402 -0.1751 -0.0515
    6CHTO   C40 2389   7.243   5.973   3.047  0.3409 -0.2884 -0.5081
    6CHTO   H82 2390   7.142   6.009   3.033  0.0819 -0.5882  0.5357
    6CHTO   O26 2391   7.251   5.834   3.093  0.4639  0.0800  0.2456
    6CHTO   C41 2392   7.204   5.740   2.997  0.0907 -0.2237 -0.5548
    6CHTO   H83 2393   7.096   5.759   2.988  0.0015  0.3351  1.4916
    6CHTO   C52 2394   7.218   5.599   3.056 -0.6924  0.0525  0.2278
    6CHTO   O35 2395   7.136   5.504   2.985 -0.7207 -0.0724  0.3719
    6CHTO   H71 2396   7.043   5.508   3.002 -0.4328 -0.1785  2.0721
    6CHTO   O28 2397   7.288   6.048   3.161 -0.1823 -0.5997 -0.1026
    6CHTO   C42 2398   7.232   6.043   3.294 -0.4737 -0.3318  0.0878
    6CHTO   H84 2399   7.298   6.117   3.340  0.4123 -1.2975  0.4014
    6CHTO   C44 2400   7.254   5.917   3.381 -0.6859 -0.1746 -0.8392
    6CHTO   H86 2401   7.194   5.834   3.346 -2.3798  0.8976 -0.5546
    6CHTO   O32 2402   7.400   5.882   3.365 -0.0771 -0.0274 -0.3194
    6CHTO   H69 2403   7.429   5.852   3.281  1.4129  0.5368 -0.0248
    6CHTO   C48 2404   7.211   5.943   3.529 -1.2543 -0.5955 -0.3267
    6CHTO   H90 2405   7.279   6.016   3.574 -0.8772 -2.1764  1.7597
    6CHTO    N9 2406   7.237   5.826   3.620  0.0928 -0.7050  0.1780
    6CHTO   H77 2407   7.194   5.858   3.714  1.6363 -0.0308  0.6776
    6CHTO   H78 2408   7.342   5.799   3.624  0.4519  0.5871 -0.0143
    6CHTO   C51 2409   7.062   6.002   3.541 -0.9428  0.5141 -0.7759
    6CHTO   H93 2410   6.986   5.925   3.529 -0.5560  0.2830 -1.8102
    6CHTO   O30 2411   7.045   6.108   3.444 -0.1717  0.1202  0.2027
    6CHTO   C46 2412   7.086   6.105   3.307  0.4421 -0.1788  0.0011
    6CHTO   H88 2413   7.024   6.036   3.249  0.1593  1.4357 -1.6571
    6CHTO   C53 2414   7.082   6.255   3.252 -0.2310  0.2971  0.2597
    6CHTO   O72 2415   6.975   6.331   3.302 -0.3569 -0.2779  0.3567
    6CHTO  H199 2416   7.009   6.403   3.352 -0.8247 -0.4622  0.9516
    6CHTO   O22 2417   7.047   6.061   3.674 -0.7029 -0.4120  0.2405
    6CHTO   C31 2418   6.919   6.109   3.721  0.0597 -0.4184  0.6559
    6CHTO   H59 2419   6.926   6.121   3.831  0.7839  1.3711  0.4497
    6CHTO   C29 2420   6.890   6.250   3.666 -0.2885  0.1507 -0.3117
    6CHTO   H57 2421   6.876   6.254   3.557  2.3645  0.9429 -0.6731
    6CHTO   O21 2422   7.009   6.333   3.680 -0.7175 -0.4323  0.4538
    6CHTO   H37 2423   7.019   6.343   3.773 -1.8660  0.6310  0.4822
    6CHTO   C27 2424   6.767   6.308   3.739 -0.3362 -0.1716 -0.3187
    6CHTO   H55 2425   6.782   6.304   3.848 -2.7745 -0.8337  0.0216
    6CHTO    N5 2426   6.741   6.447   3.696 -0.3315 -0.6953 -0.0526
    6CHTO   H43 2427   6.697   6.461   3.598  0.0718  1.0220  0.0026
    6CHTO   H44 2428   6.818   6.518   3.721  0.8056 -2.2457  0.9865
    6CHTO   C25 2429   6.648   6.216   3.707  0.8028 -0.0856 -0.0809
    6CHTO   H53 2430   6.622   6.229   3.601 -1.9157 -0.6669  0.4562
    6CHTO   O17 2431   6.667   6.075   3.726 -0.2573  0.0168  0.3553
    6CHTO   C32 2432   6.792   6.008   3.697 -0.0462 -1.1405  0.2969
    6CHTO   H60 2433   6.785   5.976   3.593 -3.0219 -0.9761  0.4175
    6CHTO   C36 2434   6.782   5.878   3.792  0.3495  0.3914  0.8518
    6CHTO   O25 2435   6.889   5.788   3.746  0.3063 -0.3439 -0.0223
    6CHTO   H40 2436   6.864   5.704   3.780  1.6975  0.6158  3.7162
    6CHTO   O15 2437   6.517   6.257   3.798  0.5748 -0.2113 -0.1296
    6CHTO   C19 2438   6.480   6.274   3.940  0.0426  0.3030 -0.7488
    6CHTO   H47 2439   6.411   6.190   3.957  0.8432  0.0671  1.5338
    6CHTO   C20 2440   6.595   6.262   4.048 -0.2579 -0.6311 -0.0151
    6CHTO   H48 2441   6.670   6.342   4.034 -2.0300  0.9486 -0.6363
    6CHTO   O19 2442   6.653   6.135   4.020  0.1485 -0.6199  0.0087
    6CHTO   H35 2443   6.746   6.145   4.012  0.0405  0.2142 -0.2395
    6CHTO   C21 2444   6.543   6.271   4.191  0.3694  0.3451 -0.1088
    6CHTO   H49 2445   6.473   6.188   4.204 -1.7420  1.9028 -1.2031
    6CHTO    N4 2446   6.649   6.258   4.296 -0.4429  0.4580 -0.3991
    6CHTO   H41 2447   6.754   6.243   4.276 -0.7449 -1.7797 -0.3942
    6CHTO   H42 2448   6.620   6.193   4.377 -0.3054  1.4565  0.4626
    6CHTO   C22 2449   6.459   6.404   4.198 -0.6831  0.1076 -0.1796
    6CHTO   H50 2450   6.532   6.484   4.188 -1.0982  0.2564 -2.3627
    6CHTO   O14 2451   6.357   6.413   4.101 -0.0359  1.0781 -0.1715
    6CHTO   C23 2452   6.404   6.407   3.967 -0.3320  0.3832  0.8258
    6CHTO   H51 2453   6.467   6.496   3.953 -0.5712  0.5585  0.8596
    6CHTO   C34 2454   6.287   6.419   3.871 -0.1660  0.9056  0.6819
    6CHTO   O23 2455   6.327   6.459   3.738  0.2943  0.3241 -0.2480
    6CHTO   H38 2456   6.404   6.407   3.722  2.0963  1.7437  3.2272
    6CHTO   O16 2457   6.379   6.411   4.312 -0.4147  0.2366  0.3801
    6CHTO   C24 2458   6.363   6.570   4.354  0.0355  0.1053  0.0419
    6CHTO   H52 2459   6.394   6.637   4.274  0.2652  1.1847  1.0189
    6CHTO   C26 2460   6.445   6.593   4.488 -0.3875 -0.4538  0.4184
    6CHTO   H54 2461   6.413   6.516   4.560 -0.8838  0.1424  0.8420
    6CHTO   O20 2462   6.579   6.572   4.450  0.3042  0.5862 -0.3864
    6CHTO   H36 2463   6.631   6.534   4.518 -1.0423  0.3137  0.5052
    6CHTO   C30 2464   6.409   6.734   4.553  0.4626 -0.1576  0.3633
    6CHTO   H58 2465   6.448   6.812   4.485  0.3168 -1.7006 -1.5167
    6CHTO    N6 2466   6.476   6.754   4.678  0.3305  0.2708 -0.0902
    6CHTO   H45 2467   6.461   6.851   4.722  0.7584 -0.4963  1.7837
    6CHTO   H46 2468   6.433   6.679   4.743  0.1745  1.3685  1.0835
    6CHTO   C33 2469   6.250   6.738   4.562 -0.5671  0.2816 -0.3145
    6CHTO   H61 2470   6.210   6.655   4.621 -1.7714 -0.6894 -2.4538
    6CHTO   O18 2471   6.207   6.728   4.424  0.0135 -0.0066 -0.0896
    6CHTO   C28 2472   6.216   6.598   4.374  0.3808 -0.5502 -0.0585
    6CHTO   H56 2473   6.170   6.530   4.446  2.4443 -0.8808  0.9669
    6CHTO   C35 2474   6.138   6.604   4.243 -0.2694 -0.6139 -0.0298
    6CHTO   O24 2475   6.007   6.657   4.252  0.2843 -0.2582  0.2120
    6CHTO   H39 2476   5.967   6.677   4.169  1.5934  1.5823 -0.0180
    6CHTO    O9 2477   6.199   6.853   4.622  0.3867 -0.2692 -0.2647
    6CHTO   C13 2478   6.032   6.829   4.637 -0.4327 -0.7956 -0.1727
    6CHTO   H26 2479   6.016   6.720   4.650  0.7947 -0.8549  0.8542
    6CHTO   C11 2480   5.964   6.891   4.505  0.3060 -0.1402  0.5588
    6CHTO   H24 2481   6.006   6.849   4.413  2.0990 -0.1428  1.3503
    6CHTO    O8 2482   5.986   7.032   4.496  0.0172  0.2413  0.3716
    6CHTO    H3 2483   5.945   7.067   4.572  0.8570  0.9669  0.4989
    6CHTO    C9 2484   5.812   6.850   4.512 -0.1033  0.4481 -0.1603
    6CHTO   H22 2485   5.815   6.741   4.507  0.5853  0.4906 -0.6836
    6CHTO    N2 2486   5.735   6.892   4.393 -0.3475 -0.0847 -0.4938
    6CHTO   H10 2487   5.731   6.999   4.386  2.2320 -0.0400 -2.0591
    6CHTO   H11 2488   5.636   6.849   4.389 -0.2475 -0.3192 -0.4760
    6CHTO    C7 2489   5.746   6.886   4.658  0.0489 -0.2386 -0.4452
    6CHTO   H20 2490   5.708   6.786   4.687 -1.4729  0.4621  0.0302
    6CHTO    O4 2491   5.844   6.945   4.753  0.2059 -0.9851 -0.3029
    6CHTO   C14 2492   5.977   6.890   4.774 -0.4553 -0.1191  0.5739
    6CHTO   H27 2493   5.966   6.804   4.843  0.4137 -1.7547 -1.2659
    6CHTO   C18 2494   6.071   6.989   4.843 -0.7298 -0.1397  1.1104
    6CHTO   O13 2495   6.196   6.936   4.894  0.0249  0.4169  0.2785
    6CHTO    H7 2496   6.176   6.892   4.974 -1.6825  0.5167 -0.0750
    6CHTO    O2 2497   5.615   6.997   4.660 -0.1310  0.9055 -0.0645
    6CHTO    C1 2498   5.520   6.980   4.765 -0.0614  0.3694  0.3204
    6CHTO   H14 2499   5.450   7.065   4.756 -1.0642 -0.6502 -2.1724
    6CHTO    C2 2500   5.581   6.980   4.911  0.5869 -0.6897 -0.3352
    6CHTO   H15 2501   5.646   6.892   4.919 -0.3706 -1.2973  0.8264
    6CHTO    O6 2502   5.647   7.113   4.922 -0.2985  0.1821 -0.4624
    6CHTO    H1 2503   5.588   7.186   4.917  2.6200  3.0155  3.1199
    6CHTO    C3 2504   5.460   6.971   5.018  0.3316 -0.3542 -0.5673
    6CHTO   H16 2505   5.395   7.057   4.994  0.9313 -0.5380 -2.9735
    6CHTO    N1 2506   5.503   6.985   5.168 -0.2448  0.4241  0.5011
    6CHTO    H8 2507   5.529   6.884   5.195  0.7115  0.2874 -0.8996
    6CHTO    H9 2508   5.426   7.025   5.232  1.1187  3.6928  0.2352
    6CHTO    C4 2509   5.372   6.841   4.983 -0.0514 -0.5731  0.2380
    6CHTO   H17 2510   5.436   6.753   4.995  1.6859  0.3421 -1.9067
    6CHTO    O1 2511   5.328   6.837   4.842 -0.0845  0.7214 -0.2878
    6CHTO    C5 2512   5.424   6.854   4.740 -0.6950 -0.2508  0.2729
    6CHTO   H18 2513   5.494   6.771   4.730 -1.2916 -0.8625  1.0981
    6CHTO   C16 2514   5.337   6.863   4.611  0.0330 -0.5147 -0.2554
    6CHTO   O11 2515   5.409   6.831   4.490  0.5885 -0.4697  0.3322
    6CHTO    H5 2516   5.443   6.908   4.449 -0.5477  0.1208  0.4749
    6CHTO    O3 2517   5.252   6.828   5.065  0.3895  0.3154 -0.2103
    6CHTO    C6 2518   5.225   6.683   5.091 -0.3552  0.5446  0.2247
    6CHTO   H19 2519   5.286   6.609   5.038 -1.2362  0.1296 -0.2135
    6CHTO    C8 2520   5.255   6.660   5.242 -0.6063 -0.3118 -0.3428
    6CHTO   H21 2521   5.204   6.733   5.304  0.6273 -0.5402  0.9774
    6CHTO    O7 2522   5.399   6.684   5.269  0.4071  0.5235  0.6808
    6CHTO    H2 2523   5.430   6.755   5.216  0.9531 -0.1796  0.0415
    6CHTO   C12 2524   5.208   6.521   5.294  0.3160  0.1339 -0.0836
    6CHTO   H25 2525   5.278   6.454   5.240  0.0905 -0.3991  0.2935
    6CHTO    N3 2526   5.231   6.501   5.447  0.5243  0.5001  0.2478
    6CHTO   H12 2527   5.276   6.404   5.460 -0.3803 -0.1291 -1.1402
    6CHTO   H13 2528   5.139   6.513   5.503  0.4981 -0.8939  0.5281
    6CHTO   C15 2529   5.065   6.501   5.247 -0.3894  0.7095  0.5336
    6CHTO   H28 2530   4.995   6.567   5.299 -0.5537  1.5044 -0.6801
    6CHTO   O10 2531   5.038   6.355   5.270  0.7849  0.2943 -0.0193
    6CHTO    H4 2532   4.971   6.326   5.210 -0.7645  0.7744  1.4430
    6CHTO    O5 2533   5.057   6.515   5.099 -0.4376 -0.1716  0.0272
    6CHTO   C10 2534   5.077   6.645   5.054 -0.9093  0.6434  0.2500
    6CHTO   H23 2535   5.004   6.713   5.099 -2.3091 -0.1735 -0.7447
    6CHTO   C17 2536   5.060   6.653   4.899 -0.2267  0.1183 -0.5665
    6CHTO   O12 2537   5.054   6.788   4.859  0.9871 -0.0428  0.8513
    6CHTO    H6 2538   4.967   6.821   4.868  1.5197  1.3144  1.1470
    7CHTO  H203 2539   4.847   4.240   6.002  0.2456  0.0039  1.2691
    7CHTO   O82 2540   4.934   4.273   6.015  0.3532  0.0236  0.5440
    7CHTO  C123 2541   5.011   4.227   5.901  0.1770  0.4631  0.0507
    7CHTO  H227 2542   4.956   4.241   5.807  0.1243 -1.3548 -0.2222
    7CHTO   O77 2543   5.119   4.322   5.910 -0.3130 -0.1415  0.1227
    7CHTO  C118 2544   5.224   4.304   5.813  0.1427 -0.5274 -0.8107
    7CHTO  H222 2545   5.180   4.313   5.712 -0.8815 -0.0582 -0.3307
    7CHTO  C125 2546   5.333   4.412   5.824 -0.6031  0.2429  0.2499
    7CHTO   O84 2547   5.282   4.541   5.793  0.3016  0.1928  0.1632
    7CHTO  H205 2548   5.345   4.582   5.737 -0.5406  0.9100 -0.2511
    7CHTO  C114 2549   5.291   4.166   5.841 -0.0677 -0.1594 -0.5882
    7CHTO  H218 2550   5.331   4.165   5.943  0.3795  1.2229 -0.7430
    7CHTO  C116 2551   5.190   4.049   5.832  0.3632  0.1185  0.0093
    7CHTO  H220 2552   5.165   4.041   5.724  1.7764  0.9986 -0.3954
    7CHTO   O79 2553   5.254   3.922   5.873 -0.2733  0.3216 -0.2836
    7CHTO  H201 2554   5.336   3.914   5.830  0.3912 -2.3690  1.3801
    7CHTO  C120 2555   5.056   4.077   5.913  0.2603  0.4890 -0.2443
    7CHTO  H224 2556   5.087   4.057   6.018  1.0896  0.1058 -0.5625
    7CHTO   N21 2557   4.954   3.976   5.875 -0.0233  0.1567  0.0800
    7CHTO  H211 2558   4.962   3.883   5.929 -0.4315  0.7234  1.1393
    7CHTO  H212 2559   4.945   3.971   5.768 -3.5589 -0.2187  0.3230
    7CHTO   O75 2560   5.398   4.163   5.743 -0.4429 -0.2982 -0.3683
    7CHTO  C112 2561   5.519   4.039   5.740 -0.1893 -0.1699 -0.2309
    7CHTO  H216 2562   5.482   3.956   5.678 -0.7119  0.2730 -0.5113
    7CHTO   O73 2563   5.545   3.998   5.875  0.2398  0.0651 -0.4603
    7CHTO  C113 2564   5.636   3.884   5.888 -0.3561  0.8121 -0.1211
    7CHTO  H217 2565   5.595   3.797   5.833 -1.4426  2.2672 -1.6525
    7CHTO  C124 2566   5.640   3.840   6.036  0.0071  0.1456 -0.0496
    7CHTO   O83 2567   5.688   3.709   6.070  0.3669  0.2213 -0.0636
    7CHTO  H204 2568   5.778   3.721   6.096  0.8693  0.2159 -1.6838
    7CHTO  C109 2569   5.776   3.929   5.834 -0.6450 -0.0938 -0.0949
    7CHTO  H213 2570   5.818   4.004   5.903  0.7668  0.0863 -1.1256
    7CHTO  C110 2571   5.766   3.998   5.694 -0.7975 -0.4401 -0.5149
    7CHTO  H214 2572   5.753   3.919   5.620  0.8055  0.1700 -1.4637
    7CHTO   O78 2573   5.894   4.058   5.667  0.2171 -0.2576  0.1608
    7CHTO  H200 2574   5.903   4.139   5.713 -2.4279  1.8153 -2.7950
    7CHTO  C111 2575   5.654   4.103   5.683 -0.2576  0.0484  0.1648
    7CHTO  H215 2576   5.692   4.185   5.746  1.2398 -0.6293  0.1554
    7CHTO   N19 2577   5.628   4.164   5.552  0.0207  0.3600  0.0569
    7CHTO  H207 2578   5.539   4.121   5.508 -0.9718  1.5606  0.8620
    7CHTO  H208 2579   5.605   4.267   5.572 -1.8979 -0.2440  1.1330
    7CHTO   O74 2580   5.865   3.811   5.835 -0.0815 -0.5522 -0.0970
    7CHTO  C115 2581   6.010   3.851   5.871 -0.7601 -0.8033 -0.6300
    7CHTO  H219 2582   6.040   3.944   5.824 -1.1515  0.0035  0.6840
    7CHTO   O76 2583   6.024   3.885   6.016 -0.2734  0.4994 -0.3720
    7CHTO  C122 2584   6.009   3.770   6.104  0.5554  0.1300 -0.5493
    7CHTO  H226 2585   5.917   3.717   6.079  0.8167 -1.4085  1.6247
    7CHTO  C126 2586   5.986   3.821   6.253  0.4809  0.0514 -0.0293
    7CHTO   O85 2587   5.846   3.859   6.281 -0.2762 -0.2545  0.2514
    7CHTO  H206 2588   5.819   3.922   6.217  2.2460 -0.1987 -0.8201
    7CHTO  C121 2589   6.141   3.673   6.089  0.9822 -0.4062  0.0017
    7CHTO  H225 2590   6.202   3.724   6.167  0.2159 -1.0719  1.0517
    7CHTO   O81 2591   6.098   3.536   6.099  0.2877 -0.0679  0.5071
    7CHTO  H202 2592   6.057   3.522   6.182 -0.1685 -2.9078 -0.1636
    7CHTO  C119 2593   6.209   3.701   5.945  0.3647  0.2755 -0.5388
    7CHTO  H223 2594   6.264   3.791   5.971 -0.4356  0.1482  1.7465
    7CHTO  C117 2595   6.105   3.736   5.834  0.4048  0.0694 -0.3220
    7CHTO  H221 2596   6.035   3.655   5.816  0.3541  0.0666 -0.1120
    7CHTO   N20 2597   6.179   3.761   5.708 -0.2009  0.3653  1.0141
    7CHTO  H209 2598   6.140   3.690   5.637  0.3719  0.6992  0.3559
    7CHTO  H210 2599   6.150   3.858   5.670 -2.0215 -1.1530 -1.6374
    7CHTO   O80 2600   6.332   3.585   5.909 -0.0506 -0.1411 -0.1887
    7CHTO  C103 2601   6.451   3.574   5.996  0.3669  0.1809 -0.6575
    7CHTO  H190 2602   6.535   3.555   5.929  0.5954 -0.1421 -0.2852
    7CHTO  C101 2603   6.495   3.682   6.092 -0.3816 -0.4213 -0.0803
    7CHTO  H188 2604   6.419   3.721   6.161 -1.5928  2.9055 -3.1515
    7CHTO   O68 2605   6.526   3.809   5.994 -0.6386 -0.5816 -0.1907
    7CHTO  H168 2606   6.457   3.815   5.931  0.3375  0.9458 -1.1424
    7CHTO   C99 2607   6.623   3.630   6.175  0.3860 -0.0997 -0.5514
    7CHTO  H186 2608   6.701   3.594   6.106  1.5245 -0.7386  1.0363
    7CHTO   N17 2609   6.684   3.734   6.264 -0.2094 -0.6525  0.6225
    7CHTO  H174 2610   6.726   3.810   6.199 -1.6846  2.4939  3.2232
    7CHTO  H175 2611   6.610   3.777   6.329  0.3172  3.4828 -1.3389
    7CHTO   C97 2612   6.575   3.502   6.250 -0.6499 -0.3775  0.4941
    7CHTO  H184 2613   6.498   3.527   6.325 -0.1495  2.2375  0.2103
    7CHTO   O64 2614   6.532   3.402   6.155 -0.2668 -1.1715  0.4199
    7CHTO  C104 2615   6.421   3.441   6.072 -0.1090  0.3043 -0.2136
    7CHTO  H191 2616   6.329   3.455   6.128 -0.3670  1.5085 -0.9105
    7CHTO  C108 2617   6.396   3.321   5.977 -0.2542 -0.3898  0.6287
    7CHTO   O71 2618   6.349   3.213   6.049  0.1752  0.2012 -0.3929
    7CHTO  H171 2619   6.255   3.220   6.051  0.2887  1.5347  1.1496
    7CHTO   O62 2620   6.693   3.438   6.306  0.2666 -0.1312  0.3206
    7CHTO   C91 2621   6.661   3.350   6.414 -0.2101  0.4098  0.8266
    7CHTO  H178 2622   6.594   3.401   6.484  1.4910  0.8643  2.1637
    7CHTO   C92 2623   6.795   3.330   6.500  0.1237  0.7927 -0.0146
    7CHTO  H179 2624   6.838   3.432   6.504  0.0340  0.7699  1.8383
    7CHTO   O66 2625   6.777   3.296   6.643  0.4501 -0.5123 -0.6042
    7CHTO  H166 2626   6.744   3.366   6.697 -1.6026 -1.4346 -0.6098
    7CHTO   C93 2627   6.897   3.230   6.439  0.0641 -0.6747 -0.2107
    7CHTO  H180 2628   6.968   3.205   6.518 -0.2037 -2.6946 -0.5772
    7CHTO   N16 2629   6.984   3.286   6.330 -0.4367  0.1975  0.3374
    7CHTO  H172 2630   7.036   3.205   6.283 -3.9153 -0.5475 -2.4122
    7CHTO  H173 2631   6.925   3.336   6.255  1.8783 -2.0029 -3.0494
    7CHTO   C94 2632   6.824   3.096   6.396  0.1065 -0.4804 -0.1166
    7CHTO  H181 2633   6.826   3.085   6.288  1.1061  0.3055 -0.1842
    7CHTO   O61 2634   6.684   3.096   6.433  0.4638 -0.3751  0.1774
    7CHTO   C95 2635   6.601   3.207   6.386 -0.0689  0.1121  0.2889
    7CHTO  H182 2636   6.582   3.193   6.280  1.1892 -2.3736  0.3683
    7CHTO  C106 2637   6.458   3.186   6.453  1.1318  0.0730 -0.2922
    7CHTO   O69 2638   6.367   3.287   6.398  0.4603 -0.4494 -0.4806
    7CHTO  H169 2639   6.396   3.370   6.429 -1.1361  0.5547 -1.5955
    7CHTO   O63 2640   6.885   2.965   6.456  0.4766 -0.2351  0.3382
    7CHTO   C96 2641   6.911   2.963   6.596 -0.5718 -0.4012 -0.4289
    7CHTO  H183 2642   6.874   3.054   6.644 -2.6517 -0.8400 -1.1332
    7CHTO   C98 2643   7.062   2.942   6.634  0.6566  0.3873 -0.3338
    7CHTO  H185 2644   7.127   3.015   6.585  1.8487 -0.2687  0.2597
    7CHTO   O67 2645   7.071   2.962   6.773 -0.2321  0.2203  0.6243
    7CHTO  H167 2646   7.159   2.985   6.798 -0.5815  1.3518  0.8453
    7CHTO  C102 2647   7.114   2.799   6.598  0.3425 -0.4579 -0.7118
    7CHTO  H189 2648   7.203   2.782   6.660  2.0114 -2.2575 -3.4821
    7CHTO   N18 2649   7.161   2.777   6.461  0.4463 -0.2538 -0.1868
    7CHTO  H176 2650   7.255   2.725   6.466  1.0944  0.9864  0.8755
    7CHTO  H177 2651   7.184   2.871   6.414  0.9420 -0.1530  0.2512
    7CHTO  C105 2652   7.007   2.690   6.640 -0.4828  0.1372  0.1055
    7CHTO  H192 2653   6.967   2.639   6.553  0.7059  0.4603 -0.6368
    7CHTO   O65 2654   6.900   2.744   6.720 -0.0923 -0.0199  0.0922
    7CHTO  C100 2655   6.820   2.841   6.645  0.4441  0.0710 -0.9752
    7CHTO  H187 2656   6.778   2.782   6.562 -2.1367  0.9482 -0.3405
    7CHTO  C107 2657   6.702   2.890   6.732  0.3400 -0.5630  0.3391
    7CHTO   O70 2658   6.606   2.972   6.671  0.3215  0.4953  0.7527
    7CHTO  H170 2659   6.531   2.991   6.722 -1.8857 -0.8083 -1.8805
    7CHTO   O57 2660   7.093   2.593   6.732 -0.4872 -0.1605  0.2228
    7CHTO   C85 2661   7.126   2.458   6.685 -0.2471  0.0956  0.4750
    7CHTO  H157 2662   7.143   2.467   6.576 -0.4578  1.6541  0.5554
    7CHTO   C83 2663   7.007   2.355   6.699  0.1561 -0.2068  0.4841
    7CHTO  H155 2664   6.921   2.396   6.647  0.0993  0.2196  0.9145
    7CHTO   O56 2665   6.961   2.355   6.837  0.3914  0.5437  0.2958
    7CHTO  H135 2666   6.985   2.433   6.883  1.3556  0.8835 -0.7525
    7CHTO   C81 2667   7.047   2.212   6.634 -0.7051  0.0232  0.0252
    7CHTO  H153 2668   7.083   2.230   6.533  0.7858  2.3795  0.9119
    7CHTO   N14 2669   6.932   2.117   6.617 -0.6696  0.1512 -0.1432
    7CHTO  H141 2670   6.968   2.018   6.596 -0.8646  0.2182 -0.8188
    7CHTO  H142 2671   6.853   2.116   6.689  0.9676 -0.7533  1.6807
    7CHTO   C79 2672   7.169   2.152   6.715  0.4685  0.0545 -0.5571
    7CHTO  H151 2673   7.206   2.075   6.648  0.0644 -0.8421  0.2497
    7CHTO   O52 2674   7.283   2.250   6.721 -0.1087 -0.3640 -0.1382
    7CHTO   C86 2675   7.252   2.391   6.750  0.1667  0.6059  0.4281
    7CHTO  H158 2676   7.250   2.389   6.861  0.1726  0.1674  0.4240
    7CHTO   C90 2677   7.381   2.470   6.712  0.3260 -0.4670  0.4180
    7CHTO   O60 2678   7.498   2.446   6.800  0.4139  0.3262  0.5444
    7CHTO  H138 2679   7.485   2.462   6.892 -0.2205  0.7840  0.3816
    7CHTO   O50 2680   7.131   2.095   6.842  0.0908  0.9031  0.1399
    7CHTO   C73 2681   7.156   2.017   6.961 -0.1045 -0.6438 -0.5914
    7CHTO  H145 2682   7.262   1.994   6.977  0.2720  1.6831  0.4670
    7CHTO   C74 2683   7.082   1.877   6.932  0.8933 -0.0883  0.1370
    7CHTO  H146 2684   7.115   1.844   6.833  0.2400 -0.9132  0.1885
    7CHTO   O54 2685   7.120   1.773   7.023  0.6521 -0.5791  0.6241
    7CHTO  H133 2686   7.102   1.687   6.991  2.3177 -1.7168  2.6093
    7CHTO   C75 2687   6.928   1.907   6.928  0.8524  0.0260 -0.4568
    7CHTO  H147 2688   6.916   1.982   6.849  0.4398  2.5222  1.9099
    7CHTO   N13 2689   6.847   1.794   6.887 -0.7296 -0.3694 -0.4292
    7CHTO  H139 2690   6.887   1.698   6.917  0.1978  0.6422  1.6120
    7CHTO  H140 2691   6.755   1.807   6.942  0.4801  0.7809  1.4017
    7CHTO   C76 2692   6.881   1.979   7.067  0.4513 -0.5416 -0.1666
    7CHTO  H148 2693   6.879   1.910   7.151 -1.4207  0.1543  0.3842
    7CHTO   O49 2694   6.964   2.096   7.101  0.5325 -0.1620 -0.5402
    7CHTO   C77 2695   7.105   2.088   7.091 -1.0857  0.5426  0.3332
    7CHTO  H149 2696   7.140   2.026   7.173  0.4097 -0.0045 -0.6953
    7CHTO   C88 2697   7.162   2.231   7.103 -0.1036 -0.3051 -0.0687
    7CHTO   O58 2698   7.293   2.232   7.119 -0.4367 -0.2557  0.3976
    7CHTO  H136 2699   7.336   2.194   7.044  0.8816 -1.5030  1.7617
    7CHTO   O51 2700   6.749   2.028   7.040  0.1737  0.3827  0.0543
    7CHTO   C78 2701   6.643   2.009   7.158  0.0830  0.2789 -0.1588
    7CHTO  H150 2702   6.693   1.945   7.234 -1.6446 -3.1498 -1.7754
    7CHTO   C80 2703   6.521   1.929   7.102 -0.8552 -0.2435  0.0156
    7CHTO  H152 2704   6.477   1.979   7.013 -2.5414 -1.0604  0.3545
    7CHTO   O55 2705   6.575   1.801   7.057 -0.6956 -0.3933 -0.3996
    7CHTO  H134 2706   6.523   1.776   6.983 -0.1303  0.3683 -1.0666
    7CHTO   C84 2707   6.412   1.912   7.217  0.4023  0.6277 -0.3727
    7CHTO  H156 2708   6.465   1.851   7.290 -0.1553 -0.6910 -1.0750
    7CHTO   N15 2709   6.281   1.840   7.186 -0.2303  0.0626 -0.3832
    7CHTO  H143 2710   6.297   1.750   7.129  0.8481  0.4153 -0.6552
    7CHTO  H144 2711   6.223   1.907   7.126 -2.6516 -1.6657 -0.0454
    7CHTO   C87 2712   6.382   2.059   7.274 -0.0331  0.0883 -0.2314
    7CHTO  H159 2713   6.336   2.122   7.197  4.3552  1.4087 -1.9394
    7CHTO   O53 2714   6.514   2.113   7.318 -0.0330 -0.7687  0.1827
    7CHTO   C82 2715   6.609   2.148   7.215 -0.1773  0.2888 -0.2577
    7CHTO  H154 2716   6.569   2.223   7.147 -1.0942  1.5794  1.6611
    7CHTO   C89 2717   6.724   2.217   7.297 -0.0544  0.3147  0.3007
    7CHTO   O59 2718   6.693   2.348   7.341  0.0815 -0.3346 -0.1984
    7CHTO  H137 2719   6.623   2.347   7.403  1.9890  2.0492  2.1466
    7CHTO   O45 2720   6.291   2.054   7.402  0.1705 -0.2032 -0.5234
    7CHTO   C67 2721   6.222   2.176   7.436 -0.3225 -0.4946  0.5590
    7CHTO  H124 2722   6.290   2.261   7.421 -1.2076  0.0882 -0.1989
    7CHTO   C65 2723   6.096   2.207   7.354  0.6409  0.1102  0.5744
    7CHTO  H122 2724   6.049   2.115   7.320 -0.0892  0.5578  0.3556
    7CHTO   O44 2725   6.152   2.285   7.242  0.3170 -0.7002  0.0031
    7CHTO  H102 2726   6.131   2.242   7.162 -0.6619  1.8106 -1.1428
    7CHTO   C63 2727   5.976   2.276   7.420  0.2452 -0.1031  0.2201
    7CHTO  H120 2728   5.922   2.203   7.481  1.4150 -1.8385 -0.7558
    7CHTO   N11 2729   5.864   2.323   7.327  0.2773  0.0022 -0.2302
    7CHTO  H108 2730   5.896   2.414   7.281  2.7006 -0.2011  0.9801
    7CHTO  H109 2731   5.771   2.347   7.374 -0.5201  0.1605 -1.8599
    7CHTO   C61 2732   6.034   2.384   7.519  0.2953 -0.1379  0.5666
    7CHTO  H118 2733   5.943   2.415   7.574 -0.9486 -0.1835 -1.4259
    7CHTO   O40 2734   6.115   2.329   7.613 -0.0924  0.1468  0.6997
    7CHTO   C68 2735   6.181   2.193   7.589  0.3551 -0.0049 -0.5594
    7CHTO  H125 2736   6.096   2.123   7.603 -0.7093  1.1134 -1.3426
    7CHTO   C72 2737   6.298   2.143   7.690 -0.4114  0.2555 -0.0841
    7CHTO   O48 2738   6.341   2.005   7.682  0.2147  0.3383 -0.2171
    7CHTO  H105 2739   6.265   1.952   7.669  0.0744  0.8646 -1.6608
    7CHTO   O38 2740   6.110   2.499   7.461 -0.3171 -0.7626 -0.0921
    7CHTO   C55 2741   6.084   2.624   7.523  0.2302 -0.0888  0.3740
    7CHTO  H112 2742   6.052   2.612   7.628 -0.0176  1.0763  0.4433
    7CHTO   C56 2743   5.978   2.703   7.434  0.4812 -0.1822  0.1018
    7CHTO  H113 2744   6.008   2.677   7.331  0.5868 -0.5616  0.2291
    7CHTO   O42 2745   5.855   2.634   7.451  0.4493 -0.8013 -0.3014
    7CHTO  H100 2746   5.792   2.687   7.407  0.4852 -2.2007 -2.1177
    7CHTO   C57 2747   5.979   2.859   7.477 -0.2069 -0.3910 -0.1343
    7CHTO  H114 2748   5.944   2.867   7.580  2.3532 -1.0279  0.8335
    7CHTO   N10 2749   5.899   2.936   7.380  0.2638  0.9092  0.4188
    7CHTO  H106 2750   5.941   2.931   7.280 -1.9615  2.3143 -0.6090
    7CHTO  H107 2751   5.795   2.909   7.372  0.7792 -0.9581 -0.3266
    7CHTO   C58 2752   6.126   2.915   7.490  0.5476  0.5761 -0.1965
    7CHTO  H115 2753   6.168   2.938   7.390  1.4812  0.7232  0.2214
    7CHTO   O37 2754   6.210   2.834   7.569  0.3524  0.2517 -0.1088
    7CHTO   C59 2755   6.223   2.700   7.516 -0.2147 -0.2007 -0.0087
    7CHTO  H116 2756   6.265   2.703   7.415  0.0504  3.0453  0.1497
    7CHTO   C70 2757   6.326   2.641   7.613 -0.0726  0.1064 -0.4449
    7CHTO   O46 2758   6.366   2.505   7.589 -0.1457  0.4324  0.7966
    7CHTO  H103 2759   6.452   2.488   7.622  0.0820  0.0300  0.0131
    7CHTO   O39 2760   6.116   3.047   7.571 -0.1231  0.2096 -0.4303
    7CHTO   C60 2761   6.200   3.166   7.535 -0.6754  0.3091  0.5360
    7CHTO  H117 2762   6.274   3.129   7.465 -0.3876 -1.1234  1.5758
    7CHTO   C62 2763   6.113   3.285   7.483 -0.0358 -0.0200 -0.0238
    7CHTO  H119 2764   6.061   3.236   7.398  1.5914 -2.7072  0.4802
    7CHTO   O43 2765   6.007   3.306   7.575 -0.3228  0.2885  0.5354
    7CHTO  H101 2766   5.987   3.397   7.561 -3.1684 -0.4732 -0.7544
    7CHTO   C66 2767   6.201   3.412   7.436  0.1737 -0.0675 -0.0088
    7CHTO  H123 2768   6.279   3.375   7.370 -0.4297 -1.0920 -0.1546
    7CHTO   N12 2769   6.113   3.525   7.381  0.3482  0.0083  0.5161
    7CHTO  H110 2770   6.151   3.573   7.293  1.8671 -2.3326 -0.1425
    7CHTO  H111 2771   6.013   3.487   7.363  0.1698  0.5304  0.3844
    7CHTO   C69 2772   6.295   3.460   7.546 -0.5929  0.3714 -0.4205
    7CHTO  H126 2773   6.247   3.512   7.632  0.0885 -0.9784  0.7942
    7CHTO   O41 2774   6.374   3.327   7.607  0.2612 -0.1881  0.0748
    7CHTO   C64 2775   6.284   3.214   7.657  0.6642  0.0296 -0.1748
    7CHTO  H121 2776   6.209   3.248   7.731 -0.6748 -2.5320 -0.3255
    7CHTO   C71 2777   6.380   3.112   7.721  0.6256  0.2526  0.1601
    7CHTO   O47 2778   6.441   3.160   7.836  0.0303 -0.2912  1.0883
    7CHTO  H104 2779   6.476   3.094   7.893 -2.3675 -1.3247  1.3987
    7CHTO   O34 2780   6.394   3.548   7.495 -0.1678 -0.1588  0.5709
    7CHTO   C49 2781   6.511   3.640   7.545  0.5608  0.3844 -1.0582
    7CHTO   H91 2782   6.475   3.742   7.554 -0.1778 -0.0182  0.7168
    7CHTO   C47 2783   6.608   3.643   7.421 -0.2998 -0.2896 -0.0236
    7CHTO   H89 2784   6.690   3.713   7.447 -0.3732 -1.1924  2.8465
    7CHTO   O33 2785   6.539   3.691   7.307 -0.1828 -0.0935  0.3744
    7CHTO   H70 2786   6.484   3.630   7.260 -0.3113  0.3248 -0.0238
    7CHTO   C45 2787   6.674   3.499   7.391 -0.1863  0.7816  0.7045
    7CHTO   H87 2788   6.601   3.434   7.339  0.1478  0.7653  0.2488
    7CHTO    N8 2789   6.788   3.526   7.305 -0.1685  0.7291 -0.0675
    7CHTO   H75 2790   6.875   3.479   7.349 -0.7905 -0.5771 -0.2157
    7CHTO   H76 2791   6.762   3.475   7.213 -0.7849 -1.0054  1.0398
    7CHTO   C43 2792   6.692   3.417   7.531 -0.1366  0.1062  0.2473
    7CHTO   H85 2793   6.606   3.351   7.543 -0.8539  0.6059 -1.8823
    7CHTO   O29 2794   6.709   3.508   7.643 -0.4299  0.0332 -0.3052
    7CHTO   C50 2795   6.594   3.592   7.670  0.8961 -0.8223  0.0062
    7CHTO   H92 2796   6.528   3.533   7.735 -0.3532 -1.2287 -1.5806
    7CHTO   C54 2797   6.628   3.706   7.757 -0.2023  0.6218  0.0518
    7CHTO   O36 2798   6.732   3.782   7.702 -0.3409 -0.0247 -0.9002
    7CHTO   H72 2799   6.811   3.742   7.672  0.5854  1.8409 -1.0437
    7CHTO   O27 2800   6.808   3.330   7.533 -0.7123 -0.5852 -0.1052
    7CHTO   C37 2801   6.821   3.218   7.618 -0.0775 -0.1383  0.2884
    7CHTO   H79 2802   6.757   3.223   7.707  1.0107 -0.4812  1.1032
    7CHTO   C38 2803   6.763   3.086   7.539  0.0973  0.1566  0.1621
    7CHTO   H80 2804   6.791   3.089   7.433 -1.6089 -0.5397 -0.3213
    7CHTO   O31 2805   6.620   3.098   7.538 -0.1315  0.5347 -0.0544
    7CHTO   H68 2806   6.591   3.184   7.514 -0.0321  0.9143  1.1919
    7CHTO   C39 2807   6.816   2.948   7.601  0.1254  0.6961  0.3911
    7CHTO   H81 2808   6.764   2.936   7.696 -2.4409  0.3502 -1.0169
    7CHTO    N7 2809   6.789   2.836   7.508 -0.4397  0.1054  0.1928
    7CHTO   H73 2810   6.836   2.863   7.415  0.5262  1.3607  1.0142
    7CHTO   H74 2811   6.818   2.741   7.551 -0.1424 -0.6511 -1.6579
    7CHTO   C40 2812   6.966   2.954   7.634  0.1504 -0.3186  0.3364
    7CHTO   H82 2813   7.018   2.968   7.539  0.5226 -1.1698  0.4093
    7CHTO   O26 2814   6.987   3.072   7.722  0.3330 -0.1969 -0.1297
    7CHTO   C41 2815   6.976   3.196   7.656 -0.4524 -0.7739  0.1015
    7CHTO   H83 2816   7.048   3.203   7.573  0.5900 -3.8161  0.6909
    7CHTO   C52 2817   7.014   3.305   7.758  0.4930 -0.2677 -0.3016
    7CHTO   O35 2818   7.146   3.268   7.812  0.5394 -0.4934 -0.1192
    7CHTO   H71 2819   7.195   3.342   7.780 -0.2561  1.2047  2.4152
    7CHTO   O28 2820   7.021   2.845   7.710 -0.2444  0.2739 -0.1795
    7CHTO   C42 2821   7.156   2.792   7.680 -0.4883 -0.5136 -0.0646
    7CHTO   H84 2822   7.174   2.717   7.757 -1.3224 -0.5560  0.0910
    7CHTO   C44 2823   7.274   2.884   7.693 -0.2069 -0.1673 -1.0204
    7CHTO   H86 2824   7.254   2.971   7.630 -0.8162 -0.3482 -1.0743
    7CHTO   O32 2825   7.268   2.934   7.834  0.2097 -0.8204  0.5161
    7CHTO   H69 2826   7.296   2.867   7.893 -0.7897 -0.3708  1.5076
    7CHTO   C48 2827   7.407   2.820   7.650  0.4595  0.0514  1.6094
    7CHTO   H90 2828   7.428   2.732   7.711  1.8442 -0.5378  0.3340
    7CHTO    N9 2829   7.522   2.907   7.684 -0.0777  0.6199  0.3488
    7CHTO   H77 2830   7.492   3.003   7.645 -0.4565  1.3706  2.4142
    7CHTO   H78 2831   7.610   2.875   7.631 -0.0968  0.5258  0.3751
    7CHTO   C51 2832   7.393   2.786   7.495  0.5925  0.7367  0.0380
    7CHTO   H93 2833   7.350   2.868   7.437 -1.4896 -1.0955 -1.1302
    7CHTO   O30 2834   7.302   2.674   7.501  0.1919 -0.5725 -0.1016
    7CHTO   C46 2835   7.155   2.721   7.545  0.2779  1.0064  0.9702
    7CHTO   H88 2836   7.110   2.785   7.470  0.4065  0.7253  0.6509
    7CHTO   C53 2837   7.078   2.586   7.552 -1.0868  1.2768  0.9629
    7CHTO   O72 2838   7.083   2.526   7.420 -0.6473 -0.9274  0.4592
    7CHTO  H199 2839   7.001   2.482   7.404 -0.7779 -0.3965 -0.3866
    7CHTO   O22 2840   7.512   2.731   7.437  0.5590 -0.4110  0.4998
    7CHTO   C31 2841   7.554   2.759   7.299  0.3661 -0.1405  0.4332
    7CHTO   H59 2842   7.648   2.703   7.283  0.5139  0.4856 -0.9351
    7CHTO   C29 2843   7.453   2.710   7.186 -0.7679 -0.1217 -0.3185
    7CHTO   H57 2844   7.355   2.745   7.223 -0.6909 -0.7076  0.4539
    7CHTO   O21 2845   7.440   2.569   7.184  0.3381  0.2724 -0.1471
    7CHTO   H37 2846   7.521   2.537   7.149  0.7023 -1.2523  2.0158
    7CHTO   C27 2847   7.486   2.768   7.042 -0.2595 -0.0180  0.9782
    7CHTO   H55 2848   7.572   2.712   7.002 -0.1670  1.7326 -1.3739
    7CHTO    N5 2849   7.367   2.761   6.948  0.0752 -0.0299  0.1665
    7CHTO   H43 2850   7.292   2.819   6.998  0.9388 -0.1702  1.6382
    7CHTO   H44 2851   7.393   2.779   6.845  0.8165  1.1413  0.5564
    7CHTO   C25 2852   7.539   2.918   7.048  0.5879  0.3771 -0.0460
    7CHTO   H53 2853   7.453   2.986   7.060  1.6910  1.7583  0.0842
    7CHTO   O17 2854   7.640   2.939   7.149 -0.0563 -0.4774 -0.5080
    7CHTO   C32 2855   7.593   2.906   7.277 -0.4112 -0.4291  0.3512
    7CHTO   H60 2856   7.505   2.969   7.296 -0.2497 -0.3053  0.6962
    7CHTO   C36 2857   7.714   2.951   7.374  1.2159  0.0581 -0.0952
    7CHTO   O25 2858   7.709   3.093   7.379 -0.1317 -0.2144 -0.3804
    7CHTO   H40 2859   7.760   3.116   7.454  0.2332 -0.8397 -0.4344
    7CHTO   O15 2860   7.605   2.956   6.915  0.0834  0.2496  0.2306
    7CHTO   C19 2861   7.582   3.074   6.836 -0.0844  0.1424  0.1850
    7CHTO   H47 2862   7.666   3.082   6.765 -0.8663  0.2662 -0.7287
    7CHTO   C20 2863   7.460   3.054   6.748  0.0503 -0.2686  0.1003
    7CHTO   H48 2864   7.368   3.036   6.805 -1.0351  0.1773 -1.4556
    7CHTO   O19 2865   7.478   2.928   6.679 -0.0188 -0.0672  0.0207
    7CHTO   H35 2866   7.400   2.893   6.642  0.8998 -2.1895  0.0391
    7CHTO   C21 2867   7.460   3.172   6.641  0.4076 -0.3371 -0.4471
    7CHTO   H49 2868   7.554   3.172   6.587  1.2829 -2.7524  1.0080
    7CHTO    N4 2869   7.362   3.147   6.536 -0.3642 -1.1975  0.2155
    7CHTO   H41 2870   7.395   3.193   6.444 -0.3636  1.8199  1.6711
    7CHTO   H42 2871   7.340   3.042   6.524 -1.9178 -0.9050  0.3895
    7CHTO   C22 2872   7.436   3.304   6.715 -0.0823 -0.2449  0.7498
    7CHTO   H50 2873   7.334   3.304   6.755 -0.2614 -0.0247  0.2982
    7CHTO   O14 2874   7.530   3.320   6.822  0.9288 -0.1600  0.4487
    7CHTO   C23 2875   7.558   3.207   6.902  0.5094  0.2869 -0.6352
    7CHTO   H51 2876   7.485   3.200   6.984  1.2625 -1.6915 -0.1177
    7CHTO   C34 2877   7.691   3.244   6.975 -0.2645 -0.7867  1.3576
    7CHTO   O23 2878   7.667   3.363   7.049 -0.8403  0.3447  0.3664
    7CHTO   H38 2879   7.738   3.371   7.109 -0.6020  2.7293 -0.2160
    7CHTO   O16 2880   7.453   3.431   6.637 -0.6492 -0.3516  0.1265
    7CHTO   C24 2881   7.343   3.547   6.676 -0.0494  0.0169  0.7048
    7CHTO   H52 2882   7.291   3.526   6.769  0.6555  1.0531  1.3463
    7CHTO   C26 2883   7.234   3.553   6.568 -0.5507  1.1787  0.6277
    7CHTO   H54 2884   7.277   3.575   6.468 -1.1162  1.0648  0.3554
    7CHTO   O20 2885   7.166   3.428   6.572  0.0210  0.7888  0.4194
    7CHTO   H36 2886   7.123   3.405   6.492  2.7588 -1.8356 -0.3936
    7CHTO   C30 2887   7.131   3.662   6.611 -0.2905 -0.1741  0.0838
    7CHTO   H58 2888   7.092   3.652   6.713  0.3235 -0.2287  0.3124
    7CHTO    N6 2889   7.011   3.671   6.522  0.3165  0.0999 -0.7541
    7CHTO   H45 2890   6.964   3.573   6.522 -0.5423  0.4001  3.8535
    7CHTO   H46 2891   7.041   3.689   6.420  1.7606 -0.6878 -0.4907
    7CHTO   C33 2892   7.213   3.798   6.616  0.3505  0.0582 -0.2313
    7CHTO   H61 2893   7.255   3.829   6.519  1.1368  1.8079  0.6352
    7CHTO   O18 2894   7.320   3.786   6.713  0.1964  0.0852  0.2881
    7CHTO   C28 2895   7.424   3.682   6.695  0.1481  0.3097  0.2915
    7CHTO   H56 2896   7.486   3.707   6.609 -1.8175  1.3269 -0.8669
    7CHTO   C35 2897   7.532   3.678   6.817 -0.7580 -0.6779  0.3805
    7CHTO   O24 2898   7.474   3.618   6.931  0.0536 -0.7220  0.4234
    7CHTO   H39 2899   7.540   3.609   6.997  1.1266  1.0812 -0.3552
    7CHTO    O9 2900   7.134   3.913   6.650  1.1381 -0.0125  0.0784
    7CHTO   C13 2901   7.187   4.064   6.622 -0.1473 -0.0928  0.7792
    7CHTO   H26 2902   7.283   4.066   6.566  0.7362 -0.2133  2.2784
    7CHTO   C11 2903   7.197   4.144   6.760 -0.0655  1.1155  0.1760
    7CHTO   H24 2904   7.284   4.106   6.814  0.8943  0.5070 -1.7485
    7CHTO    O8 2905   7.076   4.132   6.844 -0.2909 -0.6754 -0.5649
    7CHTO    H3 2906   7.068   4.042   6.868 -0.1745 -1.0388 -1.8643
    7CHTO    C9 2907   7.231   4.292   6.729  0.0035 -0.1590  0.8662
    7CHTO   H22 2908   7.333   4.290   6.687  0.0225 -3.2004  0.9621
    7CHTO    N2 2909   7.262   4.372   6.850 -0.9935 -0.2345 -0.7280
    7CHTO   H10 2910   7.176   4.401   6.909  0.2715  0.6262  0.7529
    7CHTO   H11 2911   7.310   4.467   6.829 -0.4336 -0.1437  0.8702
    7CHTO    C7 2912   7.119   4.357   6.635  0.0136 -0.8752  0.2000
    7CHTO   H20 2913   7.158   4.456   6.606 -2.4797 -0.0058 -0.2676
    7CHTO    O4 2914   7.108   4.281   6.509 -0.4087 -0.0012 -0.0542
    7CHTO   C14 2915   7.092   4.138   6.519 -0.0838 -0.4896  0.3629
    7CHTO   H27 2916   7.119   4.104   6.417 -0.8940  1.0030 -0.3648
    7CHTO   C18 2917   6.943   4.096   6.543  0.6033  0.1902 -0.3317
    7CHTO   O13 2918   6.868   4.136   6.422  0.5027  0.2746  0.0138
    7CHTO    H7 2919   6.921   4.169   6.352  0.5600 -1.8726 -1.0039
    7CHTO    O2 2920   6.962   4.359   6.711 -0.0076  0.1704 -0.3675
    7CHTO    C1 2921   6.930   4.471   6.799 -0.9931  0.1811 -0.3869
    7CHTO   H14 2922   7.022   4.523   6.832 -2.8380  3.1444  0.2738
    7CHTO    C2 2923   6.853   4.421   6.933  0.0767  0.0160  0.5293
    7CHTO   H15 2924   6.791   4.338   6.896  0.5196 -0.6512  1.2746
    7CHTO    O6 2925   6.949   4.370   7.024  0.1286 -0.3313 -0.2453
    7CHTO    H1 2926   6.949   4.421   7.102  3.4332  0.2951 -0.5893
    7CHTO    C3 2927   6.759   4.536   6.993 -0.0028 -0.5189 -0.1566
    7CHTO   H16 2928   6.823   4.610   7.045  1.1003 -0.1092 -2.0519
    7CHTO    N1 2929   6.671   4.482   7.106 -0.0793  0.1781 -0.0333
    7CHTO    H8 2930   6.582   4.423   7.095  1.6040 -2.4157 -0.1958
    7CHTO    H9 2931   6.654   4.561   7.177 -2.1201 -0.2812  0.0129
    7CHTO    C4 2932   6.685   4.622   6.886  0.3199  0.1875 -0.2464
    7CHTO   H17 2933   6.614   4.556   6.837 -0.5067 -0.4949  1.8271
    7CHTO    O1 2934   6.766   4.671   6.778  0.2977  0.2523 -0.3920
    7CHTO    C5 2935   6.838   4.565   6.709 -0.3394 -0.0639 -0.1428
    7CHTO   H18 2936   6.765   4.498   6.664 -2.7802  0.5728  2.7439
    7CHTO   C16 2937   6.917   4.625   6.579 -0.3567  0.0282 -0.4334
    7CHTO   O11 2938   6.825   4.678   6.484  0.9966 -0.2135 -0.1703
    7CHTO    H5 2939   6.749   4.623   6.493  0.2118  1.0083  0.7696
    7CHTO    O3 2940   6.632   4.742   6.952  0.2258  0.1838  0.2894
    7CHTO    C6 2941   6.509   4.793   6.885 -0.3874 -0.3403  0.2481
    7CHTO   H19 2942   6.518   4.772   6.778  0.2126 -0.8120  0.3850
    7CHTO    C8 2943   6.376   4.732   6.944  0.0738 -0.2291  0.4458
    7CHTO   H21 2944   6.371   4.769   7.047 -0.0587 -0.3935  0.4999
    7CHTO    O7 2945   6.382   4.588   6.938  0.6187 -0.9626 -0.4546
    7CHTO    H2 2946   6.466   4.547   6.939  0.1244 -1.9967  1.3563
    7CHTO   C12 2947   6.252   4.792   6.871 -0.0191 -0.0465  0.0021
    7CHTO   H25 2948   6.263   4.760   6.765  0.3215  1.6782 -0.4903
    7CHTO    N3 2949   6.118   4.746   6.926 -0.2252 -0.4539 -0.4489
    7CHTO   H12 2950   6.085   4.783   7.022  3.1529  1.5191  0.0641
    7CHTO   H13 2951   6.110   4.639   6.928 -2.4277 -0.3024  0.2699
    7CHTO   C15 2952   6.257   4.947   6.872  0.0951  0.1012  0.7069
    7CHTO   H28 2953   6.228   4.986   6.970 -1.2912  0.3922  0.2018
    7CHTO   O10 2954   6.142   5.029   6.759  0.2626  0.3806  0.4350
    7CHTO    H4 2955   6.103   4.970   6.697 -0.4674  1.8726 -0.5525
    7CHTO    O5 2956   6.383   4.993   6.827  0.4330  0.0406  0.0554
    7CHTO   C10 2957   6.497   4.943   6.900  0.2194 -0.8555  0.5635
    7CHTO   H23 2958   6.487   4.963   7.007 -1.0666  0.8724  0.1404
    7CHTO   C17 2959   6.623   5.014   6.837  0.6419  0.6353  0.3395
    7CHTO   O12 2960   6.619   5.157   6.838  0.2707  0.3373  0.1063
    7CHTO    H6 2961   6.616   5.196   6.923 -0.9911 -1.2126  0.7903
    8CHTO  H203 2962   7.350   7.994   1.765 -0.6352  0.2403  0.7186
    8CHTO   O82 2963   7.286   7.973   1.700  0.1364  0.3247 -0.0770
    8CHTO  C123 2964   7.153   7.990   1.764 -0.4052  0.2633 -0.4332
    8CHTO  H227 2965   7.150   7.938   1.861 -0.5754  0.3561 -0.3889
    8CHTO   O77 2966   7.156   8.136   1.789  0.4674 -0.4993  0.1033
    8CHTO  C118 2967   7.034   8.184   1.850  0.4361  0.2533  0.2008
    8CHTO  H222 2968   7.026   8.132   1.947  1.0872 -0.9673 -0.3923
    8CHTO  C125 2969   7.054   8.334   1.884  0.6233  0.1093  0.3575
    8CHTO   O84 2970   7.076   8.405   1.767  0.2910  0.8118  0.1134
    8CHTO  H205 2971   7.160   8.448   1.768  0.4714  0.5104 -1.1294
    8CHTO  C114 2972   6.911   8.152   1.765 -0.0508 -0.2712 -0.6575
    8CHTO  H218 2973   6.931   8.197   1.668  1.8936  0.1761 -0.0601
    8CHTO  C116 2974   6.899   7.996   1.734 -0.1707 -0.2781  0.1441
    8CHTO  H220 2975   6.870   7.944   1.827 -0.5582  2.4503  1.6071
    8CHTO   O79 2976   6.782   7.973   1.647 -0.5061  0.3305  0.2934
    8CHTO  H201 2977   6.751   7.884   1.647 -0.0357  0.1636  0.2987
    8CHTO  C120 2978   7.034   7.946   1.669 -0.0817  0.1164  0.3448
    8CHTO  H224 2979   7.051   7.989   1.568  0.9199 -0.4420  0.2723
    8CHTO   N21 2980   7.022   7.797   1.637 -0.0205 -1.1439 -0.4838
    8CHTO  H211 2981   7.121   7.755   1.628 -0.0687 -1.5132  0.6348
    8CHTO  H212 2982   6.965   7.785   1.546  1.6927 -0.2417 -1.7206
    8CHTO   O75 2983   6.800   8.211   1.837  0.0688 -0.2424  0.3915
    8CHTO  C112 2984   6.714   8.286   1.738  0.7035  0.4258  0.1490
    8CHTO  H216 2985   6.697   8.225   1.648 -3.4964  0.0965  1.0488
    8CHTO   O73 2986   6.793   8.404   1.706  0.3183 -0.6533  0.0563
    8CHTO  C113 2987   6.741   8.481   1.596  0.5543  0.0899 -0.0230
    8CHTO  H217 2988   6.734   8.423   1.502 -2.9072 -0.8204  0.7378
    8CHTO  C124 2989   6.844   8.586   1.573 -0.1265  0.2939 -0.0603
    8CHTO   O83 2990   6.863   8.662   1.688  0.3783 -0.1123  0.4293
    8CHTO  H204 2991   6.932   8.723   1.668 -1.2208  1.3529 -0.7508
    8CHTO  C109 2992   6.596   8.529   1.643 -0.2599  0.0002  0.3025
    8CHTO  H213 2993   6.615   8.597   1.727  3.3939  1.1284 -1.3243
    8CHTO  C110 2994   6.500   8.414   1.686 -0.1984  0.3166 -0.1704
    8CHTO  H214 2995   6.476   8.353   1.599 -1.3941 -1.1601  1.1565
    8CHTO   O78 2996   6.375   8.468   1.734 -0.7304  0.5045  0.3032
    8CHTO  H200 2997   6.332   8.411   1.794  0.5162 -1.1571 -0.3427
    8CHTO  C111 2998   6.569   8.319   1.790  0.6966 -0.2076  0.7705
    8CHTO  H215 2999   6.582   8.375   1.884 -1.2938  1.3898  0.1320
    8CHTO   N19 3000   6.490   8.196   1.821 -1.0176 -0.1813  0.0734
    8CHTO  H207 3001   6.409   8.225   1.887  0.3591 -0.3978  1.9286
    8CHTO  H208 3002   6.454   8.153   1.729  3.9750 -1.9874 -1.1744
    8CHTO   O74 3003   6.531   8.606   1.533 -0.2399 -1.0166  0.0746
    8CHTO  C115 3004   6.469   8.734   1.580  0.4241  0.3380 -0.1661
    8CHTO  H219 3005   6.420   8.723   1.677  1.6887  2.6315  0.7573
    8CHTO   O76 3006   6.572   8.844   1.600 -0.5679 -0.0595 -0.2392
    8CHTO  C122 3007   6.643   8.878   1.485 -0.7036 -0.5148  0.2484
    8CHTO  H226 3008   6.717   8.799   1.470 -1.6642 -1.2641 -0.5484
    8CHTO  C126 3009   6.729   9.014   1.505  0.1472 -0.0994 -0.1992
    8CHTO   O85 3010   6.654   9.124   1.555  0.1633  0.5933  0.5182
    8CHTO  H206 3011   6.712   9.197   1.562 -1.1397  1.7766 -0.5470
    8CHTO  C121 3012   6.555   8.889   1.354  0.7845 -1.2928 -0.2795
    8CHTO  H225 3013   6.583   8.976   1.291  1.9434 -1.9242 -0.6394
    8CHTO   O81 3014   6.569   8.786   1.263  0.0614 -0.2293 -0.6513
    8CHTO  H202 3015   6.587   8.708   1.311  1.7895 -0.8351 -2.2419
    8CHTO  C119 3016   6.410   8.902   1.402 -0.0018  0.0673  0.2188
    8CHTO  H223 3017   6.407   8.984   1.473 -1.2330 -0.0899  0.3623
    8CHTO  C117 3018   6.364   8.777   1.472 -0.8480 -0.2432  0.3375
    8CHTO  H221 3019   6.358   8.691   1.404 -1.2421  1.2977 -1.6220
    8CHTO   N20 3020   6.225   8.790   1.529  0.4042 -0.3241  0.0984
    8CHTO  H209 3021   6.155   8.711   1.506 -1.2798  1.1047  0.2894
    8CHTO  H210 3022   6.177   8.882   1.501 -0.6961 -0.5378  1.2189
    8CHTO   O80 3023   6.318   8.958   1.285 -0.5407 -0.1060 -0.5471
    8CHTO  C103 3024   6.258   9.116   1.298 -0.5863  0.1936  0.0929
    8CHTO  H190 3025   6.155   9.124   1.264 -0.1064  1.1107 -1.2005
    8CHTO  C101 3026   6.248   9.192   1.442  0.6240 -0.0760  0.4914
    8CHTO  H188 3027   6.342   9.205   1.497  1.0117  1.4180 -0.4897
    8CHTO   O68 3028   6.159   9.117   1.524 -0.0612 -0.0498 -0.1430
    8CHTO  H168 3029   6.073   9.150   1.506  0.3435  1.1583  0.0670
    8CHTO   C99 3030   6.189   9.345   1.423  0.5252 -0.2865  0.5479
    8CHTO  H186 3031   6.089   9.342   1.375  0.5356  1.8526  0.3264
    8CHTO   N17 3032   6.195   9.422   1.551 -0.1715  0.1685  0.2255
    8CHTO  H174 3033   6.102   9.436   1.604  0.3151 -0.4641  1.2602
    8CHTO  H175 3034   6.261   9.376   1.624  1.1914 -0.7123 -1.5285
    8CHTO   C97 3035   6.272   9.404   1.302  0.6969 -0.1574 -0.3846
    8CHTO  H184 3036   6.372   9.426   1.341  0.2520  1.1887  0.0579
    8CHTO   O64 3037   6.275   9.327   1.189  0.2001 -0.4512 -0.6736
    8CHTO  C104 3038   6.347   9.208   1.205 -0.0437 -0.1492 -0.1199
    8CHTO  H191 3039   6.448   9.212   1.248  0.1681  0.5534 -0.6713
    8CHTO  C108 3040   6.369   9.140   1.071  0.0651 -0.8948 -0.4491
    8CHTO   O71 3041   6.253   9.095   0.997 -0.0554  0.4801 -0.0705
    8CHTO  H171 3042   6.181   9.071   1.052 -0.4332  0.7393 -0.4515
    8CHTO   O62 3043   6.214   9.527   1.264 -0.1098  0.6728  0.8028
    8CHTO   C91 3044   6.301   9.632   1.222  0.3329 -0.2697  0.3886
    8CHTO  H178 3045   6.397   9.617   1.271  0.2529 -2.2668 -0.0270
    8CHTO   C92 3046   6.248   9.770   1.280 -0.5064  0.6481 -0.7453
    8CHTO  H179 3047   6.141   9.784   1.258 -1.2753 -2.8666  0.4028
    8CHTO   O66 3048   6.242   9.771   1.422  0.1829  0.7072  0.1551
    8CHTO  H166 3049   6.214   9.689   1.457 -1.2290  1.5616  1.0844
    8CHTO   C93 3050   6.330   9.896   1.236  0.4605  0.1483 -0.3940
    8CHTO  H180 3051   6.421   9.904   1.297 -0.9959 -0.8179  2.0049
    8CHTO   N16 3052   6.250  10.013   1.260  0.2856 -0.0077 -0.1010
    8CHTO  H172 3053   6.157  10.004   1.205  1.2247 -2.2055 -1.3651
    8CHTO  H173 3054   6.224  10.018   1.365 -0.0815  1.0546 -0.2315
    8CHTO   C94 3055   6.362   9.883   1.082  0.2851 -0.6914  0.0819
    8CHTO  H181 3056   6.270   9.891   1.023 -1.4383  0.3983  2.7829
    8CHTO   O61 3057   6.416   9.759   1.041  0.3470  0.1200  0.4230
    8CHTO   C95 3058   6.331   9.649   1.071  0.3614  0.2185  0.3509
    8CHTO  H182 3059   6.239   9.658   1.012 -0.4114 -0.6307  1.4126
    8CHTO  C106 3060   6.406   9.530   1.007 -0.2943  0.2289  0.4966
    8CHTO   O69 3061   6.432   9.542   0.866 -0.6257 -0.0544 -0.0022
    8CHTO  H169 3062   6.356   9.580   0.828 -0.2340  2.0865  1.2857
    8CHTO   O63 3063   6.466   9.993   1.048  0.1768 -0.6926  0.3263
    8CHTO   C96 3064   6.479  10.013   0.903 -0.6332  0.1504 -0.2261
    8CHTO  H183 3065   6.421   9.940   0.846  0.0884 -1.6064  1.2654
    8CHTO   C98 3066   6.627  10.000   0.851 -0.0443 -0.1208  0.4291
    8CHTO  H185 3067   6.696  10.056   0.916  1.1380  0.5029 -1.3157
    8CHTO   O67 3068   6.664   9.863   0.871  0.4003  0.4448  0.0682
    8CHTO  H167 3069   6.750   9.854   0.835 -0.4474 -1.7501 -1.4832
    8CHTO  C102 3070   6.639  10.038   0.694 -0.0160 -0.2627  0.5862
    8CHTO  H189 3071   6.586   9.959   0.639 -0.4709  0.6588 -0.3282
    8CHTO   N18 3072   6.778  10.026   0.642  0.2278  0.6909 -0.3968
    8CHTO  H176 3073   6.852  10.082   0.697  0.0784  0.1973  0.3197
    8CHTO  H177 3074   6.774  10.055   0.538 -1.2723  0.7737 -0.3336
    8CHTO  C105 3075   6.568  10.174   0.665  0.5451 -0.4985  0.0931
    8CHTO  H192 3076   6.622  10.256   0.713  0.1603 -0.5018  0.5364
    8CHTO   O65 3077   6.441  10.185   0.723 -0.1943  0.0925  0.0653
    8CHTO  C100 3078   6.431  10.160   0.867 -0.0998 -0.3683 -0.2770
    8CHTO  H187 3079   6.506  10.230   0.907 -1.5677  0.9234  0.2652
    8CHTO  C107 3080   6.281  10.200   0.924  0.3000 -0.3638 -0.3629
    8CHTO   O70 3081   6.235  10.331   0.886 -0.0125  0.6281 -0.5531
    8CHTO  H170 3082   6.270  10.391   0.949  1.5780 -0.8568  0.0054
    8CHTO   O57 3083   6.551  10.192   0.504  0.4284  0.1164  0.3668
    8CHTO   C85 3084   6.633  10.292   0.436 -0.2668 -0.1519 -0.1993
    8CHTO  H157 3085   6.729  10.281   0.490 -0.1680  1.6880  0.0373
    8CHTO   C83 3086   6.576  10.431   0.471 -0.3064 -0.3911 -0.4269
    8CHTO  H155 3087   6.586  10.444   0.579 -0.3792 -1.9187 -0.2242
    8CHTO   O56 3088   6.441  10.436   0.435  0.2613  0.6316  0.4396
    8CHTO  H135 3089   6.434  10.449   0.343  0.1292 -0.5188  0.2848
    8CHTO   C81 3090   6.669  10.535   0.403 -0.3814  0.1623  0.7661
    8CHTO  H153 3091   6.773  10.517   0.432 -1.2020 -0.9471  3.1644
    8CHTO   N14 3092   6.641  10.675   0.449 -0.3819 -0.7250 -0.7385
    8CHTO  H141 3093   6.553  10.699   0.393 -0.1141  0.6219 -0.5985
    8CHTO  H142 3094   6.723  10.732   0.412  0.7769 -2.1465 -0.3907
    8CHTO   C79 3095   6.670  10.518   0.246 -0.2860  0.8114 -0.2390
    8CHTO  H151 3096   6.749  10.582   0.208 -0.3154  0.4510 -0.9206
    8CHTO   O52 3097   6.712  10.385   0.210  0.0548 -0.1539  0.3821
    8CHTO   C86 3098   6.647  10.277   0.280 -0.0951 -0.2867  0.4831
    8CHTO  H158 3099   6.550  10.267   0.228  0.9545  0.9733 -1.7716
    8CHTO   C90 3100   6.730  10.146   0.249 -0.1381  0.4721  0.0304
    8CHTO   O60 3101   6.865  10.139   0.301  0.4736 -0.7831 -0.3473
    8CHTO  H138 3102   6.905  10.061   0.268  0.6460 -1.4613  1.4320
    8CHTO   O50 3103   6.544  10.553   0.197 -0.0729 -0.4561 -0.5390
    8CHTO   C73 3104   6.439  10.591   0.103  0.1418 -0.7917 -0.5701
    8CHTO  H145 3105   6.478  10.601   0.000 -1.8046 -0.9343 -1.3478
    8CHTO   C74 3106   6.375  10.731   0.138  0.2008 -0.1002  0.0771
    8CHTO  H146 3107   6.455  10.807   0.144 -0.0793  0.0092  2.9550
    8CHTO   O54 3108   6.298  10.766   0.031  0.2887  0.6440  0.0184
    8CHTO  H133 3109   6.331  10.833  -0.026 -0.3068 -0.3816 -1.5767
    8CHTO   C75 3110   6.294  10.719   0.274 -0.2617  0.7441  0.0536
    8CHTO  H147 3111   6.366  10.697   0.355 -3.7635 -1.7858  2.6334
    8CHTO   N13 3112   6.235  10.848   0.322  0.7329 -0.1162  0.0735
    8CHTO  H139 3113   6.181  10.831   0.414 -0.5923  0.6396 -0.5485
    8CHTO  H140 3114   6.170  10.886   0.245 -0.2150  3.2288  2.3819
    8CHTO   C76 3115   6.190  10.600   0.276  0.5803 -0.5904  0.4142
    8CHTO  H148 3116   6.099  10.630   0.225  1.5103  1.4854 -0.0585
    8CHTO   O49 3117   6.249  10.474   0.222  0.2379  0.5024 -0.3596
    8CHTO   C77 3118   6.322  10.491   0.094  1.3895  0.6015 -0.3535
    8CHTO  H149 3119   6.249  10.529   0.022 -0.9720 -0.3363  1.4447
    8CHTO   C88 3120   6.368  10.353   0.047  0.5566  0.1504  0.0644
    8CHTO   O58 3121   6.273  10.247   0.080 -0.4040  0.1416 -0.1586
    8CHTO  H136 3122   6.304  10.162   0.058 -0.0581  0.4959 -1.0461
    8CHTO   O51 3123   6.145  10.551   0.431  0.4368  0.1010 -0.3897
    8CHTO   C78 3124   6.023  10.502   0.450  0.1333 -0.2683 -0.5384
    8CHTO  H150 3125   5.984  10.453   0.359 -1.3089 -2.7028  1.3370
    8CHTO   C80 3126   5.915  10.607   0.499  0.4138  0.2533 -0.1099
    8CHTO  H152 3127   5.967  10.675   0.570  1.7376 -0.4781 -0.3617
    8CHTO   O55 3128   5.878  10.673   0.383 -0.3119  0.4446  0.3699
    8CHTO  H134 3129   5.886  10.766   0.397 -1.7218  0.7401 -0.7340
    8CHTO   C84 3130   5.784  10.549   0.566  0.0907  0.3568  0.2579
    8CHTO  H156 3131   5.723  10.501   0.490  0.6907 -0.8210  0.5217
    8CHTO   N15 3132   5.690  10.653   0.619 -0.2287 -0.1625  0.0259
    8CHTO  H143 3133   5.610  10.591   0.653 -0.0694 -0.7125 -0.6065
    8CHTO  H144 3134   5.656  10.711   0.536  0.1844  1.1316  0.7460
    8CHTO   C87 3135   5.830  10.443   0.671 -0.0839  0.4220  0.0067
    8CHTO  H159 3136   5.887  10.493   0.749 -1.2914 -0.4787  1.4987
    8CHTO   O53 3137   5.908  10.339   0.592 -0.1500 -0.6481 -0.1306
    8CHTO   C82 3138   6.032  10.399   0.557  0.4059  0.2021  0.8607
    8CHTO  H154 3139   6.082  10.436   0.646  1.7393 -1.1478  0.6845
    8CHTO   C89 3140   6.117  10.280   0.502  0.0530  0.0022  0.4720
    8CHTO   O59 3141   6.120  10.172   0.593 -0.5267 -0.0147  0.4127
    8CHTO  H137 3142   6.039  10.124   0.586 -0.9990  0.3726  2.8938
    8CHTO   O45 3143   5.686  10.373   0.743 -0.0416 -0.3083 -0.1485
    8CHTO   C67 3144   5.713  10.268   0.839 -0.4967  0.3363  0.4090
    8CHTO  H124 3145   5.795  10.205   0.806 -1.3382 -0.2559 -0.5578
    8CHTO   C65 3146   5.750  10.322   0.984 -0.4671 -0.0634  0.5778
    8CHTO  H122 3147   5.715  10.425   0.990  1.3774  0.6672 -0.9350
    8CHTO   O44 3148   5.893  10.309   0.997 -0.0885 -0.0287  0.3438
    8CHTO  H102 3149   5.945  10.343   0.926 -0.2897 -2.6144 -1.0943
    8CHTO   C63 3150   5.674  10.244   1.100 -0.1917  0.0506 -0.2824
    8CHTO  H120 3151   5.574  10.286   1.111  1.0094  2.5961  1.2048
    8CHTO   N11 3152   5.720  10.265   1.239  0.2104 -0.1810  0.0398
    8CHTO  H108 3153   5.650  10.290   1.316 -2.0753 -0.5797 -1.8518
    8CHTO  H109 3154   5.795  10.199   1.277  2.8198  2.5805 -0.1431
    8CHTO   C61 3155   5.663  10.083   1.060  0.0604  0.5986 -0.6767
    8CHTO  H118 3156   5.593  10.036   1.131  1.9210 -2.3167 -0.7232
    8CHTO   O40 3157   5.605  10.063   0.932 -0.1014  0.9579 -0.5869
    8CHTO   C68 3158   5.587  10.172   0.844 -0.1523 -1.1840  0.0663
    8CHTO  H125 3159   5.497  10.226   0.880  0.3275 -0.7432  0.6273
    8CHTO   C72 3160   5.564  10.116   0.700 -0.3515 -0.6627 -0.0690
    8CHTO   O48 3161   5.507  10.203   0.601  0.0922 -0.1567 -0.0299
    8CHTO  H105 3162   5.492  10.157   0.521 -1.2657  1.8142 -0.9546
    8CHTO   O38 3163   5.785  10.009   1.046 -0.3851 -0.0105 -0.2270
    8CHTO   C55 3164   5.789   9.863   1.045 -0.3842  1.0917 -0.2237
    8CHTO  H112 3165   5.702   9.828   0.988 -0.5236 -0.5255  0.9200
    8CHTO   C56 3166   5.796   9.790   1.184  0.0364  0.0359  0.3095
    8CHTO  H113 3167   5.877   9.833   1.244  1.5547  0.1252 -1.7699
    8CHTO   O42 3168   5.674   9.827   1.248 -0.2827  0.7106  0.3275
    8CHTO  H100 3169   5.684   9.908   1.294  0.0419  0.7765  0.1335
    8CHTO   C57 3170   5.806   9.631   1.169 -0.4554  0.7050  0.1149
    8CHTO  H114 3171   5.723   9.595   1.108 -0.1591  3.3726 -1.9436
    8CHTO   N10 3172   5.807   9.557   1.302  0.2271 -0.4414  0.0689
    8CHTO  H106 3173   5.740   9.612   1.367 -1.4651 -0.7768 -1.3392
    8CHTO  H107 3174   5.764   9.458   1.296 -0.2255 -0.1451 -1.9150
    8CHTO   C58 3175   5.938   9.604   1.090 -0.0263  0.2312  0.2871
    8CHTO  H115 3176   6.024   9.644   1.147 -0.7794  1.3895  0.6252
    8CHTO   O37 3177   5.935   9.679   0.961  0.8419  0.1665 -0.2677
    8CHTO   C59 3178   5.919   9.818   0.965  0.0886  0.1817 -0.6013
    8CHTO  H116 3179   6.011   9.855   1.012 -0.2577 -2.4328  2.2636
    8CHTO   C70 3180   5.919   9.873   0.825  0.3594 -0.4605  0.0382
    8CHTO   O46 3181   6.040   9.848   0.752  0.0405 -0.2422 -0.2061
    8CHTO  H103 3182   6.040   9.761   0.716  1.6330  0.3743 -1.7477
    8CHTO   O39 3183   5.951   9.457   1.049 -0.3108 -0.2991  0.7310
    8CHTO   C60 3184   5.919   9.415   0.911 -0.3716 -0.3071  0.2340
    8CHTO  H117 3185   5.842   9.482   0.873  1.1307  0.9287 -0.6938
    8CHTO   C62 3186   6.037   9.435   0.816 -0.6519 -0.3613  0.3443
    8CHTO  H119 3187   6.071   9.540   0.825  0.3112 -0.7815  1.6950
    8CHTO   O43 3188   6.148   9.353   0.859 -0.2470  0.0231  0.1968
    8CHTO  H101 3189   6.224   9.364   0.805 -0.0994  0.8850  0.5755
    8CHTO   C66 3190   5.988   9.413   0.664 -0.1304  0.1184 -0.4250
    8CHTO  H123 3191   5.899   9.473   0.644 -0.2165  0.5808  1.2765
    8CHTO   N12 3192   6.084   9.459   0.557  0.7275  0.3167  0.5906
    8CHTO  H110 3193   6.078   9.393   0.472  3.0915 -0.5362  1.0310
    8CHTO  H111 3194   6.184   9.455   0.599  1.4723  3.2817 -0.7766
    8CHTO   C69 3195   5.955   9.262   0.649 -0.7148 -0.1228  0.1937
    8CHTO  H126 3196   6.046   9.204   0.676 -2.1258 -1.4546  2.2209
    8CHTO   O41 3197   5.846   9.230   0.767 -0.0620  0.0590  0.1130
    8CHTO   C64 3198   5.865   9.272   0.905  0.3559  0.4542  0.1706
    8CHTO  H121 3199   5.938   9.205   0.955  2.1753  0.3394 -2.5204
    8CHTO   C71 3200   5.726   9.255   0.988  0.2125  0.5275  0.2436
    8CHTO   O47 3201   5.630   9.344   0.937 -0.2937 -0.3486  0.0390
    8CHTO  H104 3202   5.605   9.308   0.854 -1.6304 -2.5678  1.3557
    8CHTO   O34 3203   5.913   9.212   0.520  0.0041  0.2786  0.3950
    8CHTO   C49 3204   5.758   9.158   0.495 -1.1738  0.6461 -0.3697
    8CHTO   H91 3205   5.745   9.063   0.546 -0.4842  0.1545 -1.1030
    8CHTO   C47 3206   5.750   9.130   0.346 -0.2849 -0.1425 -0.8748
    8CHTO   H89 3207   5.659   9.071   0.321  0.7643 -2.2632  0.1383
    8CHTO   O33 3208   5.867   9.054   0.311 -0.0173 -0.1404  0.5273
    8CHTO   H70 3209   5.846   8.969   0.280  1.5076 -0.5072  0.4291
    8CHTO   C45 3210   5.763   9.274   0.264 -0.8135 -0.3393  0.5274
    8CHTO   H87 3211   5.872   9.287   0.253 -1.1703  1.3662 -1.2876
    8CHTO    N8 3212   5.707   9.261   0.126  0.1128 -0.1386 -0.5632
    8CHTO   H75 3213   5.603   9.292   0.124  0.0879 -0.0996  0.8520
    8CHTO   H76 3214   5.755   9.327   0.057  0.4531  0.0790 -0.1222
    8CHTO   C43 3215   5.720   9.396   0.353  0.3550  0.3568 -0.0970
    8CHTO   H85 3216   5.806   9.431   0.410  0.8138  1.9843 -1.7138
    8CHTO   O29 3217   5.611   9.356   0.432 -0.3312  0.3546 -0.7488
    8CHTO   C50 3218   5.642   9.261   0.534 -0.1620 -0.8531  0.6957
    8CHTO   H92 3219   5.672   9.319   0.623 -0.4366 -0.4707  0.5368
    8CHTO   C54 3220   5.499   9.199   0.569 -0.1191 -0.6323  0.6051
    8CHTO   O36 3221   5.499   9.094   0.666  0.2465 -0.0392  0.7087
    8CHTO   H72 3222   5.516   9.122   0.754 -0.7572 -0.2340  0.9767
    8CHTO   O27 3223   5.688   9.518   0.280 -1.0382 -0.0272  0.7387
    8CHTO   C37 3224   5.627   9.645   0.313  0.1965 -0.2849 -0.6845
    8CHTO   H79 3225   5.553   9.632   0.393 -1.0783  2.2196 -1.4140
    8CHTO   C38 3226   5.729   9.750   0.363 -0.0718  0.7129  0.1111
    8CHTO   H80 3227   5.810   9.763   0.289 -1.8178 -1.4325 -2.2715
    8CHTO   O31 3228   5.785   9.700   0.486  0.0770  0.6903 -0.5722
    8CHTO   H68 3229   5.859   9.644   0.468  0.6240  0.1570  3.0889
    8CHTO   C39 3230   5.667   9.893   0.378  0.2702 -0.6065 -0.2717
    8CHTO   H81 3231   5.597   9.879   0.460 -1.7813  0.2689 -1.8391
    8CHTO    N7 3232   5.764   9.997   0.433 -0.3075 -0.1416 -0.1028
    8CHTO   H73 3233   5.731  10.096   0.405 -1.0218  0.2278  2.0010
    8CHTO   H74 3234   5.864   9.981   0.396  0.0275  0.7418  0.4063
    8CHTO   C40 3235   5.578   9.935   0.252 -0.3364  0.2925 -0.2185
    8CHTO   H82 3236   5.637   9.964   0.165  1.0476 -1.1047  0.2147
    8CHTO   O26 3237   5.482   9.829   0.217  0.0580  0.4288  0.3696
    8CHTO   C41 3238   5.548   9.702   0.188 -0.7003 -0.6876  1.0951
    8CHTO   H83 3239   5.618   9.724   0.106 -2.1135  0.0849  0.0683
    8CHTO   C52 3240   5.442   9.594   0.150 -0.4461  0.1312  0.5110
    8CHTO   O35 3241   5.342   9.593   0.247  0.2764 -0.0842  0.3476
    8CHTO   H71 3242   5.348   9.521   0.307  0.5344  0.7306  1.3158
    8CHTO   O28 3243   5.482  10.039   0.288 -0.4869 -0.3379 -0.0606
    8CHTO   C42 3244   5.460  10.144   0.183 -0.7649 -1.1649 -0.7581
    8CHTO   H84 3245   5.377  10.203   0.221 -0.3001 -1.2322  0.4080
    8CHTO   C44 3246   5.411  10.082   0.046  0.0394 -0.7323  0.5303
    8CHTO   H86 3247   5.483  10.009   0.010  1.0253  0.2455  0.4837
    8CHTO   O32 3248   5.283  10.014   0.068  0.1213 -0.5593  0.6539
    8CHTO   H69 3249   5.307   9.926   0.088 -0.4997 -0.4075  2.0917
    8CHTO   C48 3250   5.394  10.192  -0.069  0.6794  0.5265 -0.1774
    8CHTO   H90 3251   5.305  10.254  -0.057 -0.0716 -0.1553 -1.8760
    8CHTO    N9 3252   5.375  10.125  -0.200  0.1609 -0.6836 -0.5270
    8CHTO   H77 3253   5.397  10.190  -0.283  0.1641 -0.5189 -0.3965
    8CHTO   H78 3254   5.284  10.067  -0.197 -2.1540  2.8955  0.4357
    8CHTO   C51 3255   5.517  10.293  -0.066  0.1452  0.2990 -0.3500
    8CHTO   H93 3256   5.604  10.234  -0.098 -0.1769 -1.0628  1.2175
    8CHTO   O30 3257   5.535  10.342   0.068  0.2295  0.0112  0.4560
    8CHTO   C46 3258   5.579  10.246   0.166 -0.8750 -0.6791  0.6343
    8CHTO   H88 3259   5.662  10.194   0.119 -1.1735 -0.2960 -0.3266
    8CHTO   C53 3260   5.635  10.322   0.281  0.8600 -0.9142  0.1682
    8CHTO   O72 3261   5.762  10.393   0.249  0.2340 -0.7723  0.0332
    8CHTO  H199 3262   5.782  10.464   0.306  2.4815  0.8779 -2.7035
    8CHTO   O22 3263   5.504  10.408  -0.155 -0.4356  1.1445 -0.2339
    8CHTO   C31 3264   5.626  10.483  -0.197 -1.0690 -0.5034 -0.1233
    8CHTO   H59 3265   5.593  10.574  -0.252  1.6655  0.8511  0.3663
    8CHTO   C29 3266   5.722  10.531  -0.085 -0.1029  0.1400 -0.1042
    8CHTO   H57 3267   5.754  10.435  -0.041 -0.6002 -0.9752 -2.0722
    8CHTO   O21 3268   5.651  10.607   0.017  0.1566 -0.5561 -0.3755
    8CHTO   H37 3269   5.624  10.695  -0.000  0.2665 -0.3588  0.4314
    8CHTO   C27 3270   5.846  10.605  -0.145 -0.5131  0.2411 -0.1969
    8CHTO   H55 3271   5.818  10.696  -0.201 -0.1381 -0.4477 -1.5342
    8CHTO    N5 3272   5.943  10.645  -0.042 -0.5211 -0.2656 -0.2930
    8CHTO   H43 3273   5.909  10.716   0.032  1.3001 -1.1338  1.4223
    8CHTO   H44 3274   5.998  10.557  -0.013 -1.5873 -1.2162 -1.0899
    8CHTO   C25 3275   5.914  10.517  -0.255  0.1754 -0.1819  0.0659
    8CHTO   H53 3276   5.963  10.430  -0.210  0.0971 -1.2616 -1.9136
    8CHTO   O17 3277   5.815  10.471  -0.354 -0.3825 -0.6916 -0.5979
    8CHTO   C32 3278   5.697  10.403  -0.307  0.3735  0.4230 -0.5870
    8CHTO   H60 3279   5.738  10.311  -0.265 -0.4065  0.6906  0.7691
    8CHTO   C36 3280   5.613  10.364  -0.432  0.2446 -0.2789 -0.3031
    8CHTO   O25 3281   5.579  10.481  -0.512  0.1405  0.0571 -0.2685
    8CHTO   H40 3282   5.497  10.511  -0.478  1.1225  3.6967 -0.9673
    8CHTO   O15 3283   6.031  10.601  -0.336  0.5368 -0.9694 -0.2271
    8CHTO   C19 3284   6.168  10.580  -0.364 -0.6669 -0.5122  0.2535
    8CHTO   H47 3285   6.170  10.582  -0.474 -0.8066  1.9081  0.2777
    8CHTO   C20 3286   6.266  10.694  -0.319 -0.1706 -0.1342 -0.3443
    8CHTO   H48 3287   6.264  10.710  -0.210  0.3111 -1.4713 -0.1290
    8CHTO   O19 3288   6.223  10.816  -0.381 -0.2480 -0.0959  0.2970
    8CHTO   H35 3289   6.161  10.863  -0.328  1.0292  1.3725  0.4996
    8CHTO   C21 3290   6.409  10.657  -0.366  0.6375 -0.6551  0.9636
    8CHTO   H49 3291   6.404  10.645  -0.474 -1.8079 -0.2890  1.0037
    8CHTO    N4 3292   6.513  10.756  -0.335 -0.9886  0.2742 -1.3474
    8CHTO   H41 3293   6.507  10.761  -0.228 -1.7183 -0.7121 -1.3296
    8CHTO   H42 3294   6.610  10.715  -0.358 -0.4452  0.0348  1.2305
    8CHTO   C22 3295   6.438  10.524  -0.295 -0.2664  0.0040  0.1376
    8CHTO   H50 3296   6.415  10.527  -0.188 -0.0618  1.2482  0.1484
    8CHTO   O14 3297   6.355  10.431  -0.361  0.4349 -0.3819 -0.2782
    8CHTO   C23 3298   6.217  10.436  -0.327 -0.4752  0.8567 -0.3550
    8CHTO   H51 3299   6.216  10.419  -0.218 -0.0485  0.3757 -0.4230
    8CHTO   C34 3300   6.140  10.326  -0.406  0.1556 -0.1030  0.1320
    8CHTO   O23 3301   6.181  10.189  -0.390  0.0717  0.0373  0.0174
    8CHTO   H38 3302   6.147  10.151  -0.311 -0.5379  2.7318  1.1019
    8CHTO   O16 3303   6.568  10.472  -0.332  0.4481 -0.0665 -0.2292
    8CHTO   C24 3304   6.625  10.372  -0.222  0.0799 -0.1086 -0.3038
    8CHTO   H52 3305   6.559  10.358  -0.137 -0.6722 -0.9466 -1.0235
    8CHTO   C26 3306   6.765  10.435  -0.191 -0.0948 -0.2376 -0.1818
    8CHTO   H54 3307   6.815  10.464  -0.286 -0.3127  2.1066  0.3958
    8CHTO   O20 3308   6.751  10.558  -0.120  0.4973 -0.7343 -0.3837
    8CHTO   H36 3309   6.685  10.604  -0.169  0.1235 -0.7964  0.0508
    8CHTO   C30 3310   6.854  10.330  -0.108 -0.1217  0.6061  0.7570
    8CHTO   H58 3311   6.804  10.315  -0.011 -1.5566 -1.5955 -0.2765
    8CHTO    N6 3312   6.998  10.379  -0.085 -0.0430  0.1363 -0.0200
    8CHTO   H45 3313   7.055  10.392  -0.175  0.3797 -0.9925  0.0732
    8CHTO   H46 3314   7.041  10.300  -0.025 -0.8135  1.0272  1.7440
    8CHTO   C33 3315   6.849  10.196  -0.183  0.0060  0.5906 -0.5010
    8CHTO   H61 3316   6.891  10.210  -0.283  0.8409  0.2130 -0.2112
    8CHTO   O18 3317   6.713  10.148  -0.196 -0.5240  0.1660  0.3566
    8CHTO   C28 3318   6.640  10.235  -0.290 -0.9796 -0.2885  0.8329
    8CHTO   H56 3319   6.691  10.246  -0.386 -0.1358 -1.0660  1.1892
    8CHTO   C35 3320   6.504  10.172  -0.323 -0.3712  0.3940  0.4251
    8CHTO   O24 3321   6.511  10.074  -0.427 -0.2110  0.5689  0.0339
    8CHTO   H39 3322   6.422  10.058  -0.453 -0.5227  1.2250  0.6907
    8CHTO    O9 3323   6.932  10.096  -0.119  0.5481  0.4987  0.2640
    8CHTO   C13 3324   6.939   9.954  -0.216  0.6419 -0.0187 -0.0217
    8CHTO   H26 3325   6.916   9.981  -0.321  1.2684  0.4448 -0.0432
    8CHTO   C11 3326   6.827   9.849  -0.158  0.4833 -0.5753  0.1544
    8CHTO   H24 3327   6.733   9.892  -0.194  1.1739  1.5661  0.7599
    8CHTO    O8 3328   6.816   9.837  -0.013 -0.1870  0.0826  0.1198
    8CHTO    H3 3329   6.764   9.760   0.001  0.4195 -0.7052 -1.7980
    8CHTO    C9 3330   6.864   9.716  -0.227  0.0223  0.0738 -0.5502
    8CHTO   H22 3331   6.881   9.736  -0.333  4.2587 -2.0859 -0.3503
    8CHTO    N2 3332   6.755   9.616  -0.237 -0.4690  0.0900  0.4388
    8CHTO   H10 3333   6.719   9.606  -0.338 -0.0960  1.7810  0.1156
    8CHTO   H11 3334   6.766   9.519  -0.190  3.3730 -0.0630 -0.5993
    8CHTO    C7 3335   6.997   9.662  -0.166 -0.3183 -0.8294 -0.1050
    8CHTO   H20 3336   7.037   9.591  -0.241 -0.7903  0.1344 -1.2723
    8CHTO    O4 3337   7.100   9.766  -0.148 -0.1509 -0.2451  0.3882
    8CHTO   C14 3338   7.088   9.891  -0.219 -0.6935 -0.4400 -0.1536
    8CHTO   H27 3339   7.120   9.883  -0.325  0.6060 -1.1434  0.2701
    8CHTO   C18 3340   7.200   9.982  -0.149 -0.0179 -0.4014  0.2343
    8CHTO   O13 3341   7.220  10.101  -0.219 -0.0535  0.0545 -0.0661
    8CHTO    H7 3342   7.273  10.081  -0.294 -1.0616 -0.0710 -0.7517
    8CHTO    O2 3343   6.985   9.576  -0.014  0.0734 -0.4631  0.6347
    8CHTO    C1 3344   7.083   9.477   0.021 -1.0038  0.7227 -0.6050
    8CHTO   H14 3345   7.076   9.457   0.130  0.8447 -0.3323 -0.6598
    8CHTO    C2 3346   7.233   9.515  -0.011  0.7909  0.1359  0.1714
    8CHTO   H15 3347   7.253   9.522  -0.119 -0.1948  0.9111  0.0327
    8CHTO    O6 3348   7.258   9.648   0.041 -0.6523 -0.3328  0.1213
    8CHTO    H1 3349   7.255   9.651   0.135  0.3260  2.0927  0.0854
    8CHTO    C3 3350   7.322   9.403   0.048 -0.8046  0.0341 -0.0685
    8CHTO   H16 3351   7.315   9.398   0.157 -1.9685  2.4281  0.0100
    8CHTO    N1 3352   7.467   9.422   0.017  0.2086 -0.3019 -0.6097
    8CHTO    H8 3353   7.501   9.500   0.083 -1.4017  0.6481 -0.8789
    8CHTO    H9 3354   7.522   9.330   0.032 -1.0714 -0.8102  1.1838
    8CHTO    C4 3355   7.274   9.260  -0.008 -0.3757 -0.7521  0.1423
    8CHTO   H17 3356   7.300   9.261  -0.113 -2.1697  0.5960 -0.3085
    8CHTO    O1 3357   7.138   9.234   0.008 -0.0735  0.0067  0.1101
    8CHTO    C5 3358   7.060   9.340  -0.049  0.4577  0.1955 -0.1611
    8CHTO   H18 3359   7.081   9.344  -0.156 -2.5227 -0.7947 -0.8313
    8CHTO   C16 3360   6.916   9.290  -0.030  0.1950  0.0343 -0.0493
    8CHTO   O11 3361   6.878   9.286   0.109  0.7071 -0.0742 -0.0490
    8CHTO    H5 3362   6.870   9.371   0.147  0.9402 -0.1676  0.2075
    8CHTO    O3 3363   7.348   9.153   0.069  0.3995  0.5671 -0.4089
    8CHTO    C6 3364   7.343   9.018   0.011  0.1434  0.2723  0.0556
    8CHTO   H19 3365   7.257   8.986  -0.048  0.1849 -0.7323  0.5291
    8CHTO    C8 3366   7.471   9.009  -0.076 -0.3623  0.0926  0.5137
    8CHTO   H21 3367   7.558   9.054  -0.027  1.7785 -1.0940 -2.0321
    8CHTO    O7 3368   7.463   9.081  -0.202  0.2834  0.5740 -0.8224
    8CHTO    H2 3369   7.439   9.169  -0.182 -0.3481 -0.0338  1.1846
    8CHTO   C12 3370   7.510   8.861  -0.106  0.1208  0.1902  0.2648
    8CHTO   H25 3371   7.443   8.818  -0.183  1.9829 -0.3036 -1.1119
    8CHTO    N3 3372   7.652   8.847  -0.164 -0.2483 -0.5798 -0.3946
    8CHTO   H12 3373   7.641   8.883  -0.265 -1.4131 -0.5161 -0.2431
    8CHTO   H13 3374   7.676   8.742  -0.167 -0.7125 -0.7115  0.3858
    8CHTO   C15 3375   7.486   8.772   0.023 -0.8438 -0.0538  0.6509
    8CHTO   H28 3376   7.563   8.791   0.098  0.2653 -0.4963 -0.3689
    8CHTO   O10 3377   7.468   8.635  -0.013  0.2179 -0.6445 -0.1793
    8CHTO    H4 3378   7.543   8.606  -0.061  0.9308  0.1004  0.4711
    8CHTO    O5 3379   7.354   8.794   0.078 -0.1566 -0.3004 -0.0408
    8CHTO   C10 3380   7.350   8.926   0.131 -0.5128  0.1611  0.1849
    8CHTO   H23 3381   7.437   8.943   0.195 -0.9002  0.3443  0.6693
    8CHTO   C17 3382   7.230   8.932   0.223  0.0404 -0.3383 -0.1231
    8CHTO   O12 3383   7.256   8.863   0.342  0.0486 -0.2344 -0.0108
    8CHTO    H6 3384   7.206   8.906   0.408 -2.7439 -1.3651 -1.3306
    9CHTO  H203 3385   6.953   5.495   5.795 -0.7105 -1.0286  0.7800
    9CHTO   O82 3386   6.959   5.409   5.756 -0.3572 -0.7602  0.2238
    9CHTO  C123 3387   7.088   5.397   5.697  0.9080 -0.3041  0.1405
    9CHTO  H227 3388   7.165   5.432   5.767  0.2241  0.0645  0.7140
    9CHTO   O77 3389   7.104   5.259   5.682 -0.9536 -0.3040  0.0367
    9CHTO  C118 3390   7.229   5.221   5.616 -0.0569  0.1917  0.8440
    9CHTO  H222 3391   7.319   5.245   5.674  0.7815 -0.3010 -0.2336
    9CHTO  C125 3392   7.217   5.060   5.616 -0.4440 -0.2937 -0.1477
    9CHTO   O84 3393   7.104   5.005   5.546 -0.0972  0.2244  0.2800
    9CHTO  H205 3394   7.068   4.938   5.601 -3.1772  1.0622 -0.5780
    9CHTO  C114 3395   7.244   5.281   5.477  1.0602 -0.4344  0.1526
    9CHTO  H218 3396   7.155   5.249   5.421  0.0374  1.3430  0.7174
    9CHTO  C116 3397   7.229   5.441   5.477 -0.3051 -0.3594 -0.3730
    9CHTO  H220 3398   7.318   5.482   5.530 -1.9304  0.0620  2.1162
    9CHTO   O79 3399   7.242   5.488   5.341 -0.3320  0.2097 -0.7443
    9CHTO  H201 3400   7.181   5.456   5.277 -0.3097 -0.9438 -0.2018
    9CHTO  C120 3401   7.099   5.477   5.559  0.0354  0.4934 -0.2053
    9CHTO  H224 3402   7.015   5.446   5.494 -0.3329  0.4683  0.2808
    9CHTO   N21 3403   7.085   5.620   5.594 -0.1049 -0.1171 -0.2875
    9CHTO  H211 3404   7.184   5.663   5.597 -0.3678  0.5161 -0.5324
    9CHTO  H212 3405   7.031   5.633   5.687 -1.0186 -1.1764 -0.6625
    9CHTO   O75 3406   7.366   5.235   5.419  0.1429  0.5375  0.3538
    9CHTO  C112 3407   7.337   5.150   5.276  0.4318  0.3035 -0.2553
    9CHTO  H216 3408   7.249   5.197   5.229 -0.8776 -0.8959  0.9452
    9CHTO   O73 3409   7.306   5.014   5.310  0.3265 -0.3862 -0.2920
    9CHTO  C113 3410   7.279   4.938   5.195  0.6733  0.9913  0.1845
    9CHTO  H217 3411   7.201   4.984   5.131  2.6463  3.0036 -0.8521
    9CHTO  C124 3412   7.223   4.793   5.224  0.4126  0.0410 -0.1152
    9CHTO   O83 3413   7.083   4.786   5.254 -0.3009  0.0868 -0.6734
    9CHTO  H204 3414   7.067   4.697   5.276  0.6430 -0.2256 -1.2214
    9CHTO  C109 3415   7.406   4.927   5.111  0.1089 -0.4022  0.0696
    9CHTO  H213 3416   7.484   4.884   5.175  0.0095 -0.1827  0.3390
    9CHTO  C110 3417   7.459   5.067   5.072 -0.6265 -0.0687  1.2985
    9CHTO  H214 3418   7.389   5.104   4.997  0.7159  0.8674  0.4724
    9CHTO   O78 3419   7.594   5.059   5.017  0.0046 -0.0232 -0.0188
    9CHTO  H200 3420   7.604   5.052   4.924 -3.5862 -1.4889 -0.4173
    9CHTO  C111 3421   7.468   5.161   5.193 -0.1164 -0.6758  0.0301
    9CHTO  H215 3422   7.554   5.134   5.255  0.7203 -0.1619 -0.8974
    9CHTO   N19 3423   7.486   5.304   5.153 -0.3741 -0.7161 -0.2233
    9CHTO  H207 3424   7.488   5.307   5.045 -1.3293 -2.7747 -0.3238
    9CHTO  H208 3425   7.589   5.330   5.171 -0.6894  1.3474 -1.2094
    9CHTO   O74 3426   7.381   4.833   5.001  0.1609 -0.0093  0.1267
    9CHTO  C115 3427   7.504   4.755   4.940 -0.0618  0.3444 -0.0503
    9CHTO  H219 3428   7.599   4.796   4.974  1.3367 -1.2344 -1.9455
    9CHTO   O76 3429   7.512   4.578   5.002 -0.3389 -0.1671  0.2350
    9CHTO  C122 3430   7.401   4.509   4.945 -0.7036  0.1976  0.7012
    9CHTO  H226 3431   7.312   4.550   4.992 -1.3237  0.8562 -0.9964
    9CHTO  C126 3432   7.419   4.363   4.987 -0.2733  0.4015  0.2461
    9CHTO   O85 3433   7.424   4.339   5.126 -0.1125 -0.4837 -0.4115
    9CHTO  H206 3434   7.464   4.255   5.135 -0.4387 -0.6097 -0.1261
    9CHTO  C121 3435   7.395   4.522   4.792 -0.2381 -0.0298 -0.0576
    9CHTO  H225 3436   7.488   4.478   4.749 -0.6987 -1.3349  0.2398
    9CHTO   O81 3437   7.295   4.435   4.745  0.1807 -0.5054  0.4449
    9CHTO  H202 3438   7.327   4.379   4.677 -0.3665 -0.2104 -0.0574
    9CHTO  C119 3439   7.375   4.666   4.747 -0.3192 -0.5265  0.6446
    9CHTO  H223 3440   7.387   4.670   4.639  0.8914  0.4919  0.8062
    9CHTO  C117 3441   7.488   4.767   4.788  0.4292 -0.0279 -0.2236
    9CHTO  H221 3442   7.474   4.873   4.765  2.0794  0.5970  1.4540
    9CHTO   N20 3443   7.622   4.729   4.718 -0.8534 -0.4594  0.7717
    9CHTO  H209 3444   7.708   4.734   4.784  1.5186 -0.9287 -2.1526
    9CHTO  H210 3445   7.640   4.796   4.635 -1.2451  0.1971  1.2110
    9CHTO   O80 3446   7.215   4.715   4.770 -0.0139  0.3158  0.2339
    9CHTO  C103 3447   7.162   4.867   4.709  0.2190 -0.2396 -0.1858
    9CHTO  H190 3448   7.190   4.943   4.781 -2.3315  2.6688 -2.1172
    9CHTO  C101 3449   7.199   4.920   4.562  0.5144 -0.0494 -0.3791
    9CHTO  H188 3450   7.187   4.836   4.494  2.2109 -0.9180  0.3603
    9CHTO   O68 3451   7.327   4.958   4.570  0.4572  0.7548  0.0103
    9CHTO  H168 3452   7.379   4.887   4.603 -0.7498  1.0854  2.7210
    9CHTO   C99 3453   7.105   5.042   4.521  0.2554  0.0790 -0.2828
    9CHTO  H186 3454   7.115   5.124   4.595  1.3855 -0.1440 -0.1760
    9CHTO   N17 3455   7.129   5.096   4.384 -0.2354 -0.0604  0.2521
    9CHTO  H174 3456   7.094   5.028   4.308  2.3605  0.4217 -1.4612
    9CHTO  H175 3457   7.085   5.194   4.374  1.7493  0.9741  1.4252
    9CHTO   C97 3458   6.962   4.989   4.535  0.4058 -0.1321  0.2064
    9CHTO  H184 3459   6.959   4.899   4.472  1.6380 -0.7460  0.9959
    9CHTO   O64 3460   6.936   4.959   4.672  0.2312 -0.8381 -0.0527
    9CHTO  C104 3461   7.008   4.846   4.722 -0.2310  0.1298 -0.3061
    9CHTO  H191 3462   6.978   4.762   4.659 -0.9415 -1.0578  1.5541
    9CHTO  C108 3463   6.962   4.811   4.865 -0.1429 -0.3004  0.0962
    9CHTO   O71 3464   7.007   4.914   4.957 -0.1129  0.2629 -0.1331
    9CHTO  H171 3465   6.977   4.894   5.044 -2.2071 -0.2951 -0.9446
    9CHTO   O62 3466   6.862   5.095   4.498 -0.3128 -0.4138  0.5530
    9CHTO   C91 3467   6.741   5.057   4.434 -0.2964 -0.0924 -0.4051
    9CHTO  H178 3468   6.776   4.999   4.348  2.1210 -1.1705  1.2483
    9CHTO   C92 3469   6.685   5.184   4.378  0.3649 -0.5827 -0.3428
    9CHTO  H179 3470   6.764   5.249   4.337 -0.6691  0.3633 -0.8550
    9CHTO   O66 3471   6.598   5.147   4.272  0.3812  0.0137  0.0105
    9CHTO  H166 3472   6.535   5.211   4.245 -3.1534 -2.6799  1.5271
    9CHTO   C93 3473   6.597   5.269   4.483 -0.5173 -0.2696 -0.6019
    9CHTO  H180 3474   6.533   5.335   4.423 -1.0321  1.1453  1.4483
    9CHTO   N16 3475   6.675   5.358   4.574  0.2868  0.5790  1.1352
    9CHTO  H172 3476   6.736   5.408   4.501 -0.0049  0.5773  0.8859
    9CHTO  H173 3477   6.604   5.432   4.610 -1.1808  0.4861 -1.4636
    9CHTO   C94 3478   6.499   5.173   4.566 -0.1197 -0.8386 -0.1604
    9CHTO  H181 3479   6.516   5.178   4.674 -1.7121  1.3987  0.0066
    9CHTO   O61 3480   6.509   5.042   4.523  0.6044  0.0646  0.0816
    9CHTO   C95 3481   6.642   4.991   4.542  0.0574  0.9797 -0.0676
    9CHTO  H182 3482   6.676   5.005   4.644 -0.9502  0.0255  0.4126
    9CHTO  C106 3483   6.619   4.838   4.525 -0.8176  0.8308  0.2562
    9CHTO   O69 3484   6.738   4.765   4.560 -0.0296 -0.1079  0.3530
    9CHTO  H169 3485   6.723   4.676   4.536 -0.0068 -0.4374  1.5226
    9CHTO   O63 3486   6.329   5.222   4.541  0.3539  0.4703  0.0844
    9CHTO   C96 3487   6.240   5.223   4.661 -0.3500 -0.3751  0.4568
    9CHTO  H183 3488   6.305   5.266   4.737 -0.6562  0.1277  0.4405
    9CHTO   C98 3489   6.180   5.092   4.712  0.0197 -0.1158  0.1841
    9CHTO  H185 3490   6.132   5.032   4.633 -0.0798  1.3514 -0.8861
    9CHTO   O67 3491   6.291   5.010   4.751  0.1120  0.0164 -0.4756
    9CHTO  H167 3492   6.318   5.031   4.839  1.5871 -0.8053 -0.7195
    9CHTO  C102 3493   6.070   5.104   4.830 -0.0251 -0.0740  0.7134
    9CHTO  H189 3494   6.123   5.118   4.925  0.7091 -1.0519  0.4581
    9CHTO   N18 3495   6.001   4.973   4.849 -1.0929 -0.7824 -0.1598
    9CHTO  H176 3496   5.916   4.985   4.915 -0.3743  0.1373  0.6183
    9CHTO  H177 3497   5.959   4.937   4.757 -0.2371 -0.0294 -0.8527
    9CHTO  C105 3498   5.972   5.221   4.797 -0.5357 -0.3488 -0.4671
    9CHTO  H192 3499   5.904   5.181   4.721 -2.7829 -0.2809  1.4642
    9CHTO   O65 3500   6.053   5.335   4.765  0.4531  0.5960  0.5683
    9CHTO  C100 3501   6.123   5.327   4.639 -0.1350 -0.0040 -0.1562
    9CHTO  H187 3502   6.047   5.299   4.564  0.3427 -0.7939 -0.3522
    9CHTO  C107 3503   6.165   5.473   4.601  0.2527  0.2483 -0.1389
    9CHTO   O70 3504   6.232   5.491   4.476 -0.7610  0.3573  0.3110
    9CHTO  H170 3505   6.280   5.571   4.485  1.6179 -1.2283  2.7582
    9CHTO   O57 3506   5.882   5.254   4.922 -0.3455 -0.2554 -0.0050
    9CHTO   C85 3507   5.747   5.306   4.914  0.1906  0.1667  0.8206
    9CHTO  H157 3508   5.683   5.234   4.859  0.3724 -0.2635  1.1686
    9CHTO   C83 3509   5.737   5.443   4.829 -0.0885  0.3554  0.2446
    9CHTO  H155 3510   5.768   5.428   4.725 -0.1007  0.5390  0.2125
    9CHTO   O56 3511   5.848   5.525   4.882 -0.0040 -0.1878 -0.0729
    9CHTO  H135 3512   5.908   5.555   4.817 -0.7638  2.1695  0.2783
    9CHTO   C81 3513   5.601   5.516   4.837  0.5429  0.3528 -0.4378
    9CHTO  H153 3514   5.522   5.447   4.809  0.1370 -0.5108  2.6101
    9CHTO   N14 3515   5.581   5.627   4.739 -0.1043  0.5609 -0.1763
    9CHTO  H141 3516   5.517   5.584   4.665 -0.8561 -1.9790  1.8985
    9CHTO  H142 3517   5.544   5.719   4.781 -1.0289  1.2395 -2.4230
    9CHTO   C79 3518   5.578   5.551   4.989 -0.0877 -0.5800  0.0527
    9CHTO  H151 3519   5.479   5.594   5.002 -0.1205 -0.3436 -0.9872
    9CHTO   O52 3520   5.564   5.425   5.068  0.7111 -1.1804 -0.0781
    9CHTO   C86 3521   5.685   5.342   5.061 -0.1772  0.2805 -0.1101
    9CHTO  H158 3522   5.758   5.399   5.122  0.5358 -0.5843 -0.1549
    9CHTO   C90 3523   5.678   5.205   5.127 -0.3455  0.2402  0.1200
    9CHTO   O60 3524   5.690   5.216   5.269 -0.1087 -0.0242  0.2529
    9CHTO  H138 3525   5.642   5.148   5.311 -2.0990 -0.9843 -3.4158
    9CHTO   O50 3526   5.675   5.638   5.043 -0.6666 -0.2362  0.4430
    9CHTO   C73 3527   5.720   5.769   5.084  0.2447 -0.8676 -0.1775
    9CHTO  H145 3528   5.646   5.820   5.147  1.2105  0.8808 -0.4175
    9CHTO   C74 3529   5.741   5.863   4.959 -0.3800 -0.2147  0.4978
    9CHTO  H146 3530   5.649   5.848   4.901  0.4554  0.4601 -1.0111
    9CHTO   O54 3531   5.734   6.008   4.997 -0.5599  0.9984 -0.2355
    9CHTO  H133 3532   5.817   6.047   4.979 -0.1863  0.0750 -0.5705
    9CHTO   C75 3533   5.867   5.819   4.875 -0.0001  0.0979 -0.5456
    9CHTO  H147 3534   5.839   5.735   4.809 -0.8674 -1.9296  2.3219
    9CHTO   N13 3535   5.903   5.914   4.769 -0.6036 -0.3669 -0.2781
    9CHTO  H139 3536   5.986   5.874   4.713  1.2441  2.8604  0.0226
    9CHTO  H140 3537   5.932   6.003   4.823 -0.4410 -1.1578  0.9793
    9CHTO   C76 3538   5.993   5.792   4.966 -1.1007 -0.4901 -0.0785
    9CHTO  H148 3539   6.031   5.889   4.998  0.4307 -0.1299 -2.8360
    9CHTO   O49 3540   5.960   5.711   5.085 -0.0554  0.2799  0.6154
    9CHTO   C77 3541   5.851   5.761   5.164 -0.9290  0.1357 -0.1716
    9CHTO  H149 3542   5.881   5.859   5.200  1.0846 -0.1939 -0.8735
    9CHTO   C88 3543   5.826   5.670   5.287  0.1249  0.0248 -0.3043
    9CHTO   O58 3544   5.921   5.674   5.375  0.7848  0.0926  0.4891
    9CHTO  H136 3545   5.911   5.735   5.446 -0.6984 -0.1489  0.5114
    9CHTO   O51 3546   6.106   5.697   4.878 -0.3634 -0.2976 -0.2197
    9CHTO   C78 3547   6.256   5.720   4.931  0.3783  0.1684 -0.2982
    9CHTO  H150 3548   6.261   5.766   5.032  1.3646  0.7065 -0.5900
    9CHTO   C80 3549   6.332   5.817   4.837  0.0671  0.0822 -1.0680
    9CHTO  H152 3550   6.335   5.770   4.736 -2.5415  1.3715 -1.7843
    9CHTO   O55 3551   6.258   5.941   4.839 -0.1317 -0.2592 -0.0542
    9CHTO  H134 3552   6.280   5.980   4.756 -0.0309  2.0180  0.9913
    9CHTO   C84 3553   6.479   5.834   4.896  0.3461  0.6679 -0.2952
    9CHTO  H156 3554   6.464   5.885   4.991  1.0052 -0.5045  0.4467
    9CHTO   N15 3555   6.560   5.929   4.814  0.2736  0.7660 -0.3035
    9CHTO  H143 3556   6.505   6.019   4.798  1.2820  1.4065 -0.1678
    9CHTO  H144 3557   6.649   5.948   4.870  2.3026 -2.1880 -2.3648
    9CHTO   C87 3558   6.547   5.697   4.907  0.1068 -1.0758 -0.2654
    9CHTO  H159 3559   6.546   5.650   4.808 -1.7705 -2.6500  0.4704
    9CHTO   O53 3560   6.457   5.615   5.001  0.0032  0.0498  0.1472
    9CHTO   C82 3561   6.330   5.583   4.944 -0.0796 -0.3481 -0.0568
    9CHTO  H154 3562   6.338   5.522   4.854 -2.0372 -1.4793  0.5010
    9CHTO   C89 3563   6.250   5.497   5.051  0.0770  0.3991  0.0204
    9CHTO   O59 3564   6.330   5.381   5.089  0.3716 -0.5155 -0.1323
    9CHTO  H137 3565   6.268   5.313   5.105  1.3688 -2.1762 -2.9235
    9CHTO   O45 3566   6.674   5.710   4.976 -0.3430 -0.1063  0.1534
    9CHTO   C67 3567   6.736   5.596   5.027 -0.7081  0.5825  0.3341
    9CHTO  H124 3568   6.659   5.547   5.086  0.6017  0.6169  2.1079
    9CHTO   C65 3569   6.793   5.492   4.920  0.7470 -0.3881 -0.1044
    9CHTO  H122 3570   6.834   5.544   4.834  1.5600  2.3619  1.8814
    9CHTO   O44 3571   6.680   5.416   4.884 -0.5446 -0.1646  0.2184
    9CHTO  H102 3572   6.699   5.324   4.893 -0.3210 -0.0353  1.0737
    9CHTO   C63 3573   6.918   5.405   4.968 -0.1214  0.0647  0.4161
    9CHTO  H120 3574   7.007   5.467   4.958  0.3467 -0.6786 -0.1818
    9CHTO   N11 3575   6.952   5.282   4.877 -0.3777 -1.0395 -0.7928
    9CHTO  H108 3576   7.051   5.250   4.904 -0.9609 -1.2146  1.2237
    9CHTO  H109 3577   6.876   5.208   4.874 -1.6119  0.2477 -1.7403
    9CHTO   C61 3578   6.904   5.379   5.122  0.4788  0.0824 -0.0892
    9CHTO  H118 3579   6.989   5.321   5.161  1.2887  1.0084 -0.4717
    9CHTO   O40 3580   6.900   5.507   5.199  0.0362  0.3303  0.1629
    9CHTO   C68 3581   6.845   5.627   5.133 -0.9850 -0.3944 -0.3513
    9CHTO  H125 3582   6.918   5.676   5.065 -1.4411 -1.7094 -1.8133
    9CHTO   C72 3583   6.806   5.730   5.241 -0.3045 -0.5268 -0.3500
    9CHTO   O48 3584   6.778   5.862   5.185 -0.0358 -0.3199  0.3160
    9CHTO  H105 3585   6.861   5.906   5.194  1.1022 -2.0012 -1.5979
    9CHTO   O38 3586   6.786   5.295   5.153 -0.6869  0.0188  0.2547
    9CHTO   C55 3587   6.769   5.252   5.286 -0.1989  0.0200 -0.1545
    9CHTO  H112 3588   6.829   5.317   5.353 -0.5036  0.1919 -0.0479
    9CHTO   C56 3589   6.798   5.097   5.303 -0.3137  0.1162  0.0829
    9CHTO  H113 3590   6.730   5.040   5.238  1.8900 -0.8695 -1.4089
    9CHTO   O42 3591   6.930   5.062   5.253 -0.5603 -0.3121 -0.2957
    9CHTO  H100 3592   6.926   4.975   5.220 -0.8266 -1.4348  2.5856
    9CHTO   C57 3593   6.768   5.048   5.450  0.3013  0.5787  0.2592
    9CHTO  H114 3594   6.835   5.106   5.513 -0.2064  1.4692 -0.0118
    9CHTO   N10 3595   6.789   4.903   5.464 -0.0508  0.2763  0.4204
    9CHTO  H106 3596   6.719   4.859   5.533  0.2793 -1.0863 -0.0948
    9CHTO  H107 3597   6.889   4.885   5.501 -0.2912 -1.6571  0.1685
    9CHTO   C58 3598   6.623   5.087   5.488 -0.3871 -0.7959  0.0335
    9CHTO  H115 3599   6.546   5.031   5.430  0.9708 -0.8053 -1.8114
    9CHTO   O37 3600   6.600   5.224   5.464 -0.0833 -0.5750  0.2031
    9CHTO   C59 3601   6.619   5.278   5.328  0.1428  0.7880 -0.2908
    9CHTO  H116 3602   6.560   5.226   5.253  0.4707  0.0597 -0.0464
    9CHTO   C70 3603   6.578   5.417   5.320 -0.1559 -0.2253 -0.0909
    9CHTO   O46 3604   6.631   5.496   5.421 -0.4907 -0.1755 -0.3414
    9CHTO  H103 3605   6.563   5.552   5.455  0.8727  1.5688 -0.4275
    9CHTO   O39 3606   6.603   5.082   5.663  0.2009  0.2647  0.3124
    9CHTO   C60 3607   6.468   5.089   5.709  0.4644  0.3918 -0.2503
    9CHTO  H117 3608   6.413   5.163   5.651 -0.6108  0.2309  0.5772
    9CHTO   C62 3609   6.393   4.959   5.670 -0.0542  0.3416 -0.0670
    9CHTO  H119 3610   6.405   4.949   5.560  0.4312 -2.3157  0.2056
    9CHTO   O43 3611   6.454   4.847   5.730 -0.2756 -0.4746  0.0928
    9CHTO  H101 3612   6.538   4.852   5.689  0.3187 -0.2210  1.3355
    9CHTO   C66 3613   6.239   4.961   5.718  0.3518 -0.0573  0.1208
    9CHTO  H123 3614   6.189   5.040   5.662  1.0705  0.5365  0.3110
    9CHTO   N12 3615   6.166   4.839   5.676  0.1295 -0.3970 -0.3069
    9CHTO  H110 3616   6.180   4.826   5.570 -2.2803 -0.5169 -0.6528
    9CHTO  H111 3617   6.061   4.861   5.692 -0.0803 -0.3477 -1.6731
    9CHTO   C69 3618   6.231   4.985   5.874  0.8927  0.1059  0.3454
    9CHTO  H126 3619   6.290   4.911   5.932  0.8997  0.0448  0.2616
    9CHTO   O41 3620   6.285   5.124   5.908  0.2240  0.0241 -0.2152
    9CHTO   C64 3621   6.451   5.134   5.864 -0.3146  0.1758  0.2801
    9CHTO  H121 3622   6.502   5.067   5.937 -1.2003 -0.3066  0.4560
    9CHTO   C71 3623   6.492   5.279   5.880 -0.2091  0.0539  0.4476
    9CHTO   O47 3624   6.481   5.331   6.016  0.5318 -0.5872 -0.2521
    9CHTO  H104 3625   6.482   5.424   6.016 -2.4996 -0.4786  2.2742
    9CHTO   O34 3626   6.092   4.972   5.918  0.1718  0.0407  0.2393
    9CHTO   C49 3627   5.982   4.949   6.037  0.3582  0.9368 -0.2314
    9CHTO   H91 3628   5.884   4.977   5.999 -0.2310 -0.0085  0.5860
    9CHTO   C47 3629   6.010   5.040   6.161  0.0321 -0.0746  0.4095
    9CHTO   H89 3630   5.913   5.048   6.215 -1.1524  1.6397 -1.8962
    9CHTO   O33 3631   6.042   5.173   6.110  0.2304 -0.5070 -0.2850
    9CHTO   H70 3632   5.989   5.242   6.147 -1.9003 -0.8196 -2.6312
    9CHTO   C45 3633   6.130   4.993   6.244  0.2181  0.3157  0.1517
    9CHTO   H87 3634   6.214   5.053   6.206  1.1415  0.2732  2.0315
    9CHTO    N8 3635   6.111   5.026   6.393  0.2935 -0.6325  0.4139
    9CHTO   H75 3636   6.131   5.130   6.415  0.3167  0.0282 -2.4627
    9CHTO   H76 3637   6.016   4.993   6.431  0.0777 -0.6954 -0.1807
    9CHTO   C43 3638   6.175   4.842   6.202 -0.1592  0.1691  0.2100
    9CHTO   H85 3639   6.222   4.855   6.105 -0.6823  0.2119 -0.0401
    9CHTO   O29 3640   6.062   4.758   6.192  0.2790 -0.4149 -0.1125
    9CHTO   C50 3641   5.969   4.806   6.086 -0.2323  0.8016  0.3737
    9CHTO   H92 3642   5.998   4.742   6.002  0.5362  1.6205  0.0060
    9CHTO   C54 3643   5.825   4.772   6.125 -0.2214  0.2699  0.3720
    9CHTO   O36 3644   5.732   4.786   6.014 -0.3605  0.2627  0.5006
    9CHTO   H72 3645   5.668   4.717   6.006  0.1523 -0.3366  1.4647
    9CHTO   O27 3646   6.279   4.780   6.281 -0.0220 -0.8993 -0.2065
    9CHTO   C37 3647   6.421   4.780   6.267 -0.0204 -0.8511 -0.8608
    9CHTO   H79 3648   6.451   4.681   6.304 -2.9138 -1.7184 -0.7537
    9CHTO   C38 3649   6.467   4.773   6.118 -0.0422 -0.0443 -0.1445
    9CHTO   H80 3650   6.413   4.851   6.063 -1.2317 -1.6210 -1.2685
    9CHTO   O31 3651   6.429   4.643   6.061 -0.1739 -0.3333  0.9075
    9CHTO   H68 3652   6.446   4.580   6.129 -1.4534 -0.2427  1.3113
    9CHTO   C39 3653   6.621   4.798   6.102  0.1380  0.2923  0.0196
    9CHTO   H81 3654   6.668   4.710   6.144 -2.0721 -2.1561 -2.4010
    9CHTO    N7 3655   6.665   4.797   5.958 -0.0785  0.3900 -0.1162
    9CHTO   H73 3656   6.741   4.721   5.949  1.1678  1.4005  1.6235
    9CHTO   H74 3657   6.700   4.897   5.939 -0.4464  0.5827  0.2175
    9CHTO   C40 3658   6.658   4.921   6.188  0.1577  0.5204 -0.3407
    9CHTO   H82 3659   6.607   5.010   6.152  2.0098  1.2815 -1.1492
    9CHTO   O26 3660   6.628   4.893   6.329 -0.3524  0.8592  0.1933
    9CHTO   C41 3661   6.488   4.896   6.351  0.0030 -0.3420  0.0112
    9CHTO   H83 3662   6.450   4.999   6.338 -0.2892 -0.2685  1.4319
    9CHTO   C52 3663   6.473   4.858   6.504 -0.0205 -0.0049 -0.5874
    9CHTO   O35 3664   6.349   4.886   6.558  0.2321 -0.1476 -0.9312
    9CHTO   H71 3665   6.370   4.894   6.648 -2.3008 -1.1301 -0.1919
    9CHTO   O28 3666   6.795   4.951   6.184 -0.3634 -0.4418  0.1307
    9CHTO   C42 3667   6.849   5.087   6.208 -0.9631  0.3112  0.3516
    9CHTO   H84 3668   6.957   5.075   6.211 -1.1481 -1.5197  0.5455
    9CHTO   C44 3669   6.812   5.152   6.345  0.3565  0.1513  0.4738
    9CHTO   H86 3670   6.704   5.160   6.346  0.2257 -0.8836 -1.9528
    9CHTO   O32 3671   6.860   5.063   6.450 -0.7469  0.2507 -0.0690
    9CHTO   H69 3672   6.823   4.977   6.446 -0.3362  0.0511  0.3535
    9CHTO   C48 3673   6.871   5.299   6.356  0.2697  0.3424 -0.4618
    9CHTO   H90 3674   6.979   5.302   6.341  0.5224 -0.5524  1.0428
    9CHTO    N9 3675   6.837   5.350   6.499 -0.0580 -0.1116 -0.4070
    9CHTO   H77 3676   6.745   5.406   6.486 -0.8928 -1.2234  0.5172
    9CHTO   H78 3677   6.911   5.412   6.546 -1.8244  0.7898  1.2584
    9CHTO   C51 3678   6.816   5.385   6.236  0.7610  0.1830  0.0588
    9CHTO   H93 3679   6.707   5.390   6.236  0.7821  0.6679 -0.1462
    9CHTO   O30 3680   6.867   5.324   6.118  0.0050  0.4124  0.1876
    9CHTO   C46 3681   6.807   5.187   6.088 -0.6625 -0.0669 -0.2176
    9CHTO   H88 3682   6.699   5.199   6.088 -0.6625  0.2180  1.9466
    9CHTO   C53 3683   6.851   5.139   5.950 -0.1840  0.0529  0.3391
    9CHTO   O72 3684   6.985   5.096   5.953  0.0307 -0.4169 -0.3996
    9CHTO  H199 3685   7.020   5.109   5.867 -2.3566 -2.2786 -1.7024
    9CHTO   O22 3686   6.863   5.523   6.235 -0.2544  0.2872  0.4222
    9CHTO   C31 3687   6.801   5.631   6.160 -0.1270  0.1403  0.6606
    9CHTO   H59 3688   6.867   5.719   6.175  0.2821 -0.3306  1.6846
    9CHTO   C29 3689   6.808   5.597   6.007  0.3461  0.2920 -0.2604
    9CHTO   H57 3690   6.766   5.496   5.995  2.3099 -0.2771 -2.5236
    9CHTO   O21 3691   6.942   5.593   5.966 -0.9701 -0.3643 -0.5017
    9CHTO   H37 3692   6.980   5.677   5.980  1.1323 -1.5482  1.0214
    9CHTO   C27 3693   6.722   5.697   5.919 -0.0298  1.0297  0.4726
    9CHTO   H55 3694   6.765   5.797   5.931  0.1329  0.8298  1.6158
    9CHTO    N5 3695   6.722   5.657   5.777  0.2531  0.1784 -0.1213
    9CHTO   H43 3696   6.822   5.660   5.736  0.3054 -0.3476 -0.0442
    9CHTO   H44 3697   6.682   5.557   5.767 -0.7647  0.7059 -1.4279
    9CHTO   C25 3698   6.575   5.706   5.985 -0.0625 -0.3874  0.1558
    9CHTO   H53 3699   6.534   5.606   6.002 -2.5327  0.1043 -2.4730
    9CHTO   O17 3700   6.596   5.771   6.118  0.3871 -0.1736 -0.2146
    9CHTO   C32 3701   6.656   5.674   6.210 -0.1342 -0.0829 -0.2915
    9CHTO   H60 3702   6.595   5.584   6.221 -0.9650  0.5283  0.1392
    9CHTO   C36 3703   6.663   5.741   6.348 -0.6089 -0.3661 -0.0810
    9CHTO   O25 3704   6.689   5.639   6.445 -0.0319 -0.2863  0.3803
    9CHTO   H40 3705   6.659   5.672   6.527  0.3445  1.3755 -0.1378
    9CHTO   O15 3706   6.484   5.800   5.916  0.0936  0.1154  0.1058
    9CHTO   C19 3707   6.352   5.764   5.862 -0.0297  1.0001  0.5201
    9CHTO   H47 3708   6.305   5.856   5.826  0.2287  0.6732 -0.6775
    9CHTO   C20 3709   6.368   5.675   5.738 -0.0323 -0.1064  0.3400
    9CHTO   H48 3710   6.428   5.585   5.759 -0.5415 -0.2425  1.2432
    9CHTO   O19 3711   6.433   5.766   5.643 -0.4137 -0.0521  0.0806
    9CHTO   H35 3712   6.494   5.730   5.582 -0.3633  1.2257 -0.6483
    9CHTO   C21 3713   6.224   5.634   5.679  0.2964  0.2174 -0.1473
    9CHTO   H49 3714   6.171   5.727   5.659 -2.2248 -0.6349  2.3633
    9CHTO    N4 3715   6.231   5.559   5.553  0.3772 -0.3010  0.5298
    9CHTO   H41 3716   6.236   5.453   5.572  0.1504 -0.4817 -0.3709
    9CHTO   H42 3717   6.328   5.589   5.515 -0.0631  1.1983  0.5299
    9CHTO   C22 3718   6.153   5.564   5.796 -0.1844  0.4588  0.1804
    9CHTO   H50 3719   6.207   5.476   5.831 -0.8535 -0.2488 -0.5481
    9CHTO   O14 3720   6.138   5.656   5.907 -0.6658 -0.0629  0.0966
    9CHTO   C23 3721   6.264   5.694   5.965  0.1915  0.7069  0.0767
    9CHTO   H51 3722   6.317   5.613   6.017  1.2503  0.3781 -1.5101
    9CHTO   C34 3723   6.239   5.797   6.080  0.0894  0.1706 -0.0564
    9CHTO   O23 3724   6.183   5.734   6.186 -0.3070  0.1812  0.3532
    9CHTO   H38 3725   6.149   5.649   6.165  0.7947 -0.2320  0.1652
    9CHTO   O16 3726   6.020   5.530   5.760 -0.1011 -0.1876 -0.5111
    9CHTO   C24 3727   5.954   5.395   5.834  0.1901  0.3899 -0.4396
    9CHTO   H52 3728   6.019   5.354   5.911 -0.4809 -0.3548 -0.2608
    9CHTO   C26 3729   5.922   5.285   5.729 -0.1097 -0.1426 -0.3314
    9CHTO   H54 3730   5.870   5.333   5.643  1.3928  2.1273 -0.0261
    9CHTO   O20 3731   6.045   5.231   5.682 -0.7173  0.0167 -0.0961
    9CHTO   H36 3732   6.048   5.231   5.588  1.0158  4.0945 -0.1795
    9CHTO   C30 3733   5.829   5.171   5.777 -0.2341 -0.0376  0.0973
    9CHTO   H58 3734   5.878   5.111   5.855 -2.3493 -1.3739  0.4382
    9CHTO    N6 3735   5.789   5.075   5.665 -0.1592 -0.4398  0.0213
    9CHTO   H45 3736   5.722   5.119   5.592 -1.1534 -0.3238  0.9855
    9CHTO   H46 3737   5.762   4.974   5.689  1.5295 -1.2305 -1.3061
    9CHTO   C33 3738   5.710   5.235   5.854 -0.3872  0.0032 -0.2337
    9CHTO   H61 3739   5.650   5.297   5.786  0.4015 -0.2271 -1.1456
    9CHTO   O18 3740   5.759   5.322   5.955  0.2015 -0.4332  0.0507
    9CHTO   C28 3741   5.828   5.435   5.907 -0.4850  0.0755  0.1101
    9CHTO   H56 3742   5.775   5.500   5.837  0.4389  1.6379  0.8319
    9CHTO   C35 3743   5.867   5.519   6.033 -0.4343  0.2848  0.2390
    9CHTO   O24 3744   5.763   5.566   6.119 -0.2614 -0.4959 -0.1241
    9CHTO   H39 3745   5.770   5.659   6.120 -0.1486 -0.5040  0.7720
    9CHTO    O9 3746   5.622   5.136   5.909 -0.3396  0.3753 -0.4699
    9CHTO   C13 3747   5.454   5.153   5.878  0.3912  0.7813  0.2783
    9CHTO   H26 3748   5.434   5.158   5.769  2.5949  0.7355 -0.1426
    9CHTO   C11 3749   5.387   5.280   5.957 -0.4795 -0.4374  0.4646
    9CHTO   H24 3750   5.377   5.367   5.891 -1.2761 -0.0248  1.1284
    9CHTO    O8 3751   5.476   5.324   6.063 -0.3031 -0.5998 -0.3824
    9CHTO    H3 3752   5.455   5.414   6.077 -0.0183 -0.3889 -1.2486
    9CHTO    C9 3753   5.254   5.238   6.019  0.3202  1.2577 -0.3625
    9CHTO   H22 3754   5.188   5.210   5.936 -0.2120  2.6488 -0.4373
    9CHTO    N2 3755   5.173   5.353   6.065  0.1522 -0.3460  0.1825
    9CHTO   H10 3756   5.106   5.384   5.985 -1.4419 -0.9523  1.2504
    9CHTO   H11 3757   5.229   5.438   6.100 -1.8200  1.4893 -0.9743
    9CHTO    C7 3758   5.280   5.121   6.118  0.4038 -0.5316  0.0317
    9CHTO   H20 3759   5.183   5.094   6.166  1.1019  0.7346  2.1851
    9CHTO    O4 3760   5.339   5.009   6.055  0.4768 -0.1049  0.8459
    9CHTO   C14 3761   5.376   5.025   5.920 -0.0503  0.5103  0.0685
    9CHTO   H27 3762   5.286   5.026   5.855  1.0892  1.1225 -1.5172
    9CHTO   C18 3763   5.447   4.892   5.881  0.1317  0.0219 -0.0780
    9CHTO   O13 3764   5.360   4.783   5.903 -0.0261 -0.0052 -0.1901
    9CHTO    H7 3765   5.406   4.712   5.944 -4.3159 -1.7640  1.8379
    9CHTO    O2 3766   5.365   5.164   6.232  0.2616  0.1334  0.1039
    9CHTO    C1 3767   5.377   5.072   6.341  0.4839 -0.1309 -0.0100
    9CHTO   H14 3768   5.377   4.969   6.298  2.9638  0.4248 -1.4842
    9CHTO    C2 3769   5.266   5.078   6.451  0.7814  0.2407  0.0787
    9CHTO   H15 3770   5.267   5.182   6.484  0.2104  0.4932 -0.6628
    9CHTO    O6 3771   5.127   5.056   6.404 -0.7524 -0.1278  0.7073
    9CHTO    H1 3772   5.071   5.095   6.468 -0.5547  0.2918  0.6238
    9CHTO    C3 3773   5.288   4.975   6.569  0.2520  0.1232  0.8291
    9CHTO   H16 3774   5.275   4.870   6.539  1.6018  1.1762 -3.7953
    9CHTO    N1 3775   5.195   5.010   6.683  0.0059 -0.2274 -0.4874
    9CHTO    H8 3776   5.097   5.035   6.647  0.7392  0.5444 -2.0020
    9CHTO    H9 3777   5.191   4.921   6.745  0.8782  0.8176  1.1093
    9CHTO    C4 3778   5.438   4.989   6.616  0.1118 -0.4540  0.6712
    9CHTO   H17 3779   5.450   5.085   6.666 -1.8833  0.3276 -0.2812
    9CHTO    O1 3780   5.535   4.983   6.507  0.2824 -0.3487  0.0924
    9CHTO    C5 3781   5.518   5.085   6.411  0.0874 -0.2591 -0.4057
    9CHTO   H18 3782   5.515   5.177   6.469  0.2048 -2.6127  3.4898
    9CHTO   C16 3783   5.653   5.082   6.339  0.5025  0.5965  0.2496
    9CHTO   O11 3784   5.690   5.210   6.289 -0.3192 -0.0133  0.3684
    9CHTO    H5 3785   5.776   5.192   6.257 -0.8262  0.1205 -1.1001
    9CHTO    O3 3786   5.472   4.884   6.707 -0.2925 -0.0560  0.3983
    9CHTO    C6 3787   5.578   4.914   6.798 -0.1527  0.0655 -1.0275
    9CHTO   H19 3788   5.624   5.010   6.774  1.5771 -0.8497 -1.4541
    9CHTO    C8 3789   5.524   4.931   6.939 -0.0417  0.7057  0.2569
    9CHTO   H21 3790   5.477   4.838   6.972 -0.0997  1.1558  1.4635
    9CHTO    O7 3791   5.439   5.047   6.933  0.6387 -0.2661 -0.4961
    9CHTO    H2 3792   5.432   5.086   7.018  0.9843 -0.7435 -0.2407
    9CHTO   C12 3793   5.649   4.949   7.036  0.4236 -0.0816  0.2685
    9CHTO   H25 3794   5.717   5.028   6.997 -0.6928  0.5371 -0.4388
    9CHTO    N3 3795   5.608   4.998   7.174 -0.2704  0.1436 -0.3467
    9CHTO   H12 3796   5.556   5.090   7.193 -0.0300  0.2667 -0.2829
    9CHTO   H13 3797   5.695   5.006   7.238 -0.4526 -0.4065 -0.0272
    9CHTO   C15 3798   5.731   4.819   7.044  0.3129 -0.2848  0.1063
    9CHTO   H28 3799   5.673   4.733   7.077  1.5327 -1.4467 -0.7444
    9CHTO   O10 3800   5.855   4.831   7.106  0.2252 -0.7278 -0.0264
    9CHTO    H4 3801   5.835   4.836   7.197 -0.4576  1.3531 -0.2668
    9CHTO    O5 3802   5.779   4.785   6.912  0.2686  0.0155 -0.0695
    9CHTO   C10 3803   5.694   4.804   6.796 -0.3943 -0.6926  0.6263
    9CHTO   H23 3804   5.657   4.705   6.768  1.6880 -1.2260 -0.2844
    9CHTO   C17 3805   5.790   4.845   6.688 -0.4090  0.3179  0.2043
    9CHTO   O12 3806   5.858   4.967   6.723 -0.6434  0.3330  0.1964
    9CHTO    H6 3807   5.846   5.034   6.658 -0.4686  0.2191  0.0444
   10CHTO  H203 3808   5.843   7.363   6.010  0.6167 -0.6082  0.7240
   10CHTO   O82 3809   5.771   7.303   6.016  0.1824 -0.2153 -0.3653
   10CHTO  C123 3810   5.638   7.356   6.041 -0.2244  0.1094  0.5320
   10CHTO  H227 3811   5.611   7.430   5.964  1.1030  0.7230  0.6215
   10CHTO   O77 3812   5.563   7.229   6.032  0.1436 -0.0759 -0.2844
   10CHTO  C118 3813   5.423   7.243   6.067 -0.8637  0.0463 -0.2827
   10CHTO  H222 3814   5.392   7.324   5.998  1.4426  0.7726 -0.4856
   10CHTO  C125 3815   5.356   7.108   6.022 -0.5822  0.7025  0.2436
   10CHTO   O84 3816   5.213   7.119   5.997 -0.6504 -0.0249 -0.2218
   10CHTO  H205 3817   5.170   7.153   6.073  1.3429  0.5298  0.6667
   10CHTO  C114 3818   5.411   7.280   6.216 -0.6584  0.3915 -0.1844
   10CHTO  H218 3819   5.463   7.204   6.274  0.2583  1.3008  0.2041
   10CHTO  C116 3820   5.482   7.421   6.239 -0.2370  0.3861  0.2462
   10CHTO  H220 3821   5.424   7.499   6.186  0.1363  0.3759 -0.1930
   10CHTO   O79 3822   5.483   7.448   6.383  0.1943 -0.7398 -0.5553
   10CHTO  H201 3823   5.565   7.448   6.428  0.7720 -0.2168 -1.5838
   10CHTO  C120 3824   5.634   7.411   6.187 -0.0773  0.3987 -0.1651
   10CHTO  H224 3825   5.677   7.341   6.260 -2.4969  0.3047  1.2380
   10CHTO   N21 3826   5.715   7.535   6.208 -0.0624  0.8081  0.6276
   10CHTO  H211 3827   5.731   7.593   6.118  1.9695 -0.5906  0.0656
   10CHTO  H212 3828   5.805   7.518   6.264 -1.0322  0.8890  2.2448
   10CHTO   O75 3829   5.271   7.288   6.249  0.3786  0.7264 -0.8678
   10CHTO  C112 3830   5.226   7.233   6.400  0.5456 -0.4897  0.0094
   10CHTO  H216 3831   5.269   7.308   6.468  1.9685 -0.0912 -1.3078
   10CHTO   O73 3832   5.291   7.101   6.422  0.6579 -0.3112  0.2498
   10CHTO  C113 3833   5.247   7.037   6.540 -0.4947  0.5001  0.3049
   10CHTO  H217 3834   5.253   7.104   6.628  1.2173  0.3970  0.2768
   10CHTO  C124 3835   5.334   6.915   6.573 -0.2599  0.1693 -0.2056
   10CHTO   O83 3836   5.454   6.959   6.627 -0.1489  0.1209  0.1974
   10CHTO  H204 3837   5.505   6.889   6.663 -1.1014 -0.0177  1.2683
   10CHTO  C109 3838   5.099   6.999   6.532 -0.7228 -0.7891  0.2101
   10CHTO  H213 3839   5.086   6.934   6.444  2.6946  0.2984 -1.1729
   10CHTO  C110 3840   5.015   7.133   6.519  0.3245  0.5768  0.8492
   10CHTO  H214 3841   5.021   7.174   6.620 -3.3458 -1.1780  1.8671
   10CHTO   O78 3842   4.880   7.093   6.498  0.0418  0.1899  0.2318
   10CHTO  H200 3843   4.881   7.055   6.412  0.3218  2.0503 -0.6037
   10CHTO  C111 3844   5.070   7.223   6.404 -0.0756  0.1467  0.7655
   10CHTO  H215 3845   5.037   7.182   6.307 -0.9593  2.4680  0.0297
   10CHTO   N19 3846   5.000   7.351   6.417 -0.0594  0.0229  0.3023
   10CHTO  H207 3847   5.036   7.429   6.351  0.4763 -0.0575  0.4961
   10CHTO  H208 3848   5.030   7.390   6.513 -1.4989  0.2949  0.6522
   10CHTO   O74 3849   5.054   6.930   6.654  0.0850 -0.2261  0.4736
   10CHTO  C115 3850   4.987   6.791   6.645 -0.3922  0.7704 -0.4561
   10CHTO  H219 3851   4.963   6.765   6.542 -1.7583  1.2030 -0.2540
   10CHTO   O76 3852   5.093   6.675   6.699 -0.2561 -0.3780 -0.3437
   10CHTO  C122 3853   5.125   6.712   6.835  0.2962 -0.0082 -0.0653
   10CHTO  H226 3854   5.176   6.808   6.835  0.8263 -0.2737 -1.3868
   10CHTO  C126 3855   5.235   6.610   6.890 -0.4554 -0.2582  0.1723
   10CHTO   O85 3856   5.204   6.474   6.852  0.0743 -0.2056 -0.6499
   10CHTO  H206 3857   5.135   6.444   6.907  0.4890  3.3869  2.0139
   10CHTO  C121 3858   5.001   6.699   6.931  0.1868 -0.1553 -0.3733
   10CHTO  H225 3859   5.011   6.606   6.990  0.6688 -0.7911 -1.4526
   10CHTO   O81 3860   5.013   6.814   7.017 -0.6301 -0.7656  0.0736
   10CHTO  H202 3861   4.951   6.822   7.087  0.6523  0.9341  1.0609
   10CHTO  C119 3862   4.863   6.698   6.846 -0.3753 -0.5097 -0.4446
   10CHTO  H223 3863   4.864   6.599   6.802  0.2132 -1.1633  0.9963
   10CHTO  C117 3864   4.857   6.804   6.732  0.2099 -0.4321 -0.4208
   10CHTO  H221 3865   4.847   6.908   6.764 -0.5188 -0.6476  0.0798
   10CHTO   N20 3866   4.736   6.787   6.645 -0.3034  0.5195  0.1899
   10CHTO  H209 3867   4.715   6.861   6.569 -1.7717  1.0925  1.1273
   10CHTO  H210 3868   4.651   6.799   6.711  0.3916 -3.6275  1.9989
   10CHTO   O80 3869   4.723   6.677   6.943 -0.3284 -0.1502 -0.2545
   10CHTO  C103 3870   4.633   6.562   6.915 -0.6930  0.2766 -0.5741
   10CHTO  H190 3871   4.621   6.543   6.808 -2.1265 -2.6348  0.0550
   10CHTO  C101 3872   4.672   6.431   7.001 -0.1542 -0.2658 -0.1685
   10CHTO  H188 3873   4.680   6.470   7.102 -2.4894  1.9048 -0.7659
   10CHTO   O68 3874   4.820   6.386   6.963 -0.1419  0.2557 -0.0827
   10CHTO  H168 3875   4.873   6.359   7.036  0.0067  0.5458 -0.0820
   10CHTO   C99 3876   4.560   6.314   7.013  0.4525  0.4745 -0.3653
   10CHTO  H186 3877   4.533   6.276   6.912 -0.0514 -0.3044  0.0537
   10CHTO   N17 3878   4.592   6.194   7.099  0.0610  0.3268  0.5870
   10CHTO  H174 3879   4.506   6.143   7.139 -0.2409  0.7309  0.4589
   10CHTO  H175 3880   4.681   6.137   7.075 -1.5432 -0.9531 -2.5020
   10CHTO   C97 3881   4.439   6.389   7.063 -0.4882 -0.0135 -0.2830
   10CHTO  H184 3882   4.465   6.421   7.165  1.3736  0.8166 -0.9978
   10CHTO   O64 3883   4.397   6.498   6.981 -0.5004  0.0282  0.7939
   10CHTO  C104 3884   4.490   6.602   6.966  0.4255  0.0584 -1.2501
   10CHTO  H191 3885   4.503   6.654   7.061 -0.0847 -0.9380 -0.6320
   10CHTO  C108 3886   4.437   6.703   6.875 -0.6074  0.2119 -0.1446
   10CHTO   O71 3887   4.302   6.745   6.898  0.2067  0.0639  0.1049
   10CHTO  H171 3888   4.244   6.684   6.940 -1.0028 -0.0640 -1.6983
   10CHTO   O62 3889   4.326   6.303   7.067 -0.1703  0.1019 -0.3249
   10CHTO   C91 3890   4.219   6.344   7.150  0.4746 -0.4479 -0.5758
   10CHTO  H178 3891   4.249   6.435   7.202  0.6338  0.5094 -2.3003
   10CHTO   C92 3892   4.190   6.236   7.262  0.0890 -0.1058  0.7912
   10CHTO  H179 3893   4.156   6.141   7.219  1.9931 -0.7796  0.7179
   10CHTO   O66 3894   4.316   6.222   7.338 -0.2884  0.6442 -0.4106
   10CHTO  H166 3895   4.373   6.155   7.305  0.4895  0.5485  1.1276
   10CHTO   C93 3896   4.080   6.280   7.367 -0.0411 -0.4015 -0.1236
   10CHTO  H180 3897   4.138   6.347   7.432 -0.2161 -0.7650  0.4125
   10CHTO   N16 3898   4.029   6.170   7.459  0.6520 -0.5376  0.1034
   10CHTO  H172 3899   3.990   6.214   7.550 -0.1040 -0.9048 -0.0360
   10CHTO  H173 3900   4.107   6.100   7.485  0.3573 -0.0975  2.3520
   10CHTO   C94 3901   3.957   6.349   7.297 -0.9021 -0.5289 -0.0319
   10CHTO  H181 3902   3.880   6.279   7.266 -0.9016 -0.5947  0.1131
   10CHTO   O61 3903   3.990   6.430   7.184  0.0167 -0.0566 -0.3561
   10CHTO   C95 3904   4.076   6.365   7.088 -0.1464  1.1104 -0.2851
   10CHTO  H182 3905   4.030   6.269   7.063 -1.9096  2.4631 -2.5284
   10CHTO  C106 3906   4.076   6.459   6.969 -0.3042  0.4221  0.9669
   10CHTO   O69 3907   4.130   6.388   6.851  0.5050 -0.0944  0.0254
   10CHTO  H169 3908   4.094   6.304   6.832  1.4432 -0.6087  0.4818
   10CHTO   O63 3909   3.873   6.446   7.417 -0.5885 -0.0493  0.2305
   10CHTO   C96 3910   3.962   6.571   7.448 -0.3692 -0.5283  0.6315
   10CHTO  H183 3911   4.028   6.573   7.362 -1.3407 -0.3552 -0.1296
   10CHTO   C98 3912   4.033   6.560   7.583 -0.2959 -0.2584 -0.2227
   10CHTO  H185 3913   4.053   6.454   7.609 -2.0889 -0.0474  2.1613
   10CHTO   O67 3914   4.158   6.623   7.565 -0.0162  0.9038  0.0003
   10CHTO  H167 3915   4.211   6.571   7.508 -0.9499  0.1390 -0.1655
   10CHTO  C102 3916   3.965   6.638   7.705  0.2263 -0.9995  0.7603
   10CHTO  H189 3917   4.046   6.665   7.774  0.5868  0.3070 -0.1550
   10CHTO   N18 3918   3.864   6.558   7.780  0.2408  0.7718  0.2312
   10CHTO  H176 3919   3.883   6.568   7.886  1.8932  2.3423 -0.1742
   10CHTO  H177 3920   3.852   6.456   7.749  0.9146  0.0703  2.2196
   10CHTO  C105 3921   3.912   6.778   7.656 -0.0595  0.3020 -0.1643
   10CHTO  H192 3922   3.816   6.801   7.702 -1.0773 -2.2507 -0.9276
   10CHTO   O65 3923   3.897   6.801   7.512 -0.8140 -0.5731  0.0667
   10CHTO  C100 3924   3.859   6.691   7.431 -0.2710  0.4651 -0.3516
   10CHTO  H187 3925   3.758   6.664   7.464 -0.2487  0.2959 -0.4250
   10CHTO  C107 3926   3.851   6.742   7.290  0.0478 -0.0058  0.1134
   10CHTO   O70 3927   3.726   6.788   7.249 -0.6063 -0.5243 -0.4881
   10CHTO  H170 3928   3.719   6.872   7.292  0.9230 -0.6478  0.0292
   10CHTO   O57 3929   4.022   6.876   7.709 -0.3760  0.2518 -0.0516
   10CHTO   C85 3930   4.006   7.023   7.704 -0.1090  0.2058  0.2005
   10CHTO  H157 3931   3.909   7.041   7.653 -1.7425 -0.4657  2.9636
   10CHTO   C83 3932   4.110   7.078   7.592  0.4199 -0.1772 -0.0443
   10CHTO  H155 3933   4.090   7.035   7.494  1.5552 -0.1728 -0.2882
   10CHTO   O56 3934   4.234   7.030   7.633  0.4868 -0.0187 -0.1271
   10CHTO  H135 3935   4.284   7.005   7.558  0.6255 -1.7248  0.5278
   10CHTO   C81 3936   4.110   7.234   7.581 -0.5365 -0.4216  0.3300
   10CHTO  H153 3937   4.011   7.263   7.545  0.1151  1.8583  0.2606
   10CHTO   N14 3938   4.188   7.283   7.465 -0.5435 -0.2758  0.5739
   10CHTO  H141 3939   4.292   7.276   7.490 -0.3109  1.2830  0.1059
   10CHTO  H142 3940   4.166   7.234   7.373  3.1054  0.2821 -0.6595
   10CHTO   C79 3941   4.139   7.300   7.723 -1.2358  0.5039  0.1190
   10CHTO  H151 3942   4.136   7.408   7.709  0.3983  0.3812 -1.3508
   10CHTO   O52 3943   4.037   7.257   7.824 -0.3397  0.0437  0.0392
   10CHTO   C86 3944   4.021   7.112   7.835 -0.0732 -1.0682 -0.1905
   10CHTO  H158 3945   4.103   7.078   7.902 -0.7875 -0.4954  0.9867
   10CHTO   C90 3946   3.889   7.077   7.919  0.0112  0.4033  0.3339
   10CHTO   O60 3947   3.883   6.942   7.957 -0.0608  0.7921  0.3849
   10CHTO  H138 3948   3.844   6.893   7.887 -0.2571  5.0281 -2.6867
   10CHTO   O50 3949   4.276   7.281   7.765 -0.2526  0.1155  0.1182
   10CHTO   C73 3950   4.396   7.275   7.842  0.2057  0.1549 -0.7981
   10CHTO  H145 3951   4.465   7.219   7.776  2.7993  1.2286  0.9500
   10CHTO   C74 3952   4.382   7.202   7.977  0.0884 -0.4559 -0.2168
   10CHTO  H146 3953   4.335   7.104   7.957 -1.6454  0.0839  1.1389
   10CHTO   O54 3954   4.514   7.178   8.028 -0.4460  0.2422 -0.1128
   10CHTO  H133 3955   4.509   7.131   8.110  0.3442  0.6443  0.1667
   10CHTO   C75 3956   4.296   7.285   8.079  0.4623  0.0601 -0.7481
   10CHTO  H147 3957   4.193   7.288   8.042  0.0539  0.3770  0.4141
   10CHTO   N13 3958   4.287   7.217   8.214 -0.1717  0.1167  0.3567
   10CHTO  H139 3959   4.200   7.261   8.258 -0.5878  0.5624 -0.8824
   10CHTO  H140 3960   4.371   7.251   8.273 -1.0711  1.7407  0.7130
   10CHTO   C76 3961   4.364   7.427   8.094 -0.0633  0.1836  0.2051
   10CHTO  H148 3962   4.462   7.416   8.141 -0.1796  0.1878  0.4526
   10CHTO   O49 3963   4.383   7.492   7.960 -0.0279  0.2323  0.3834
   10CHTO   C77 3964   4.450   7.411   7.858  0.1380 -0.3519 -0.3766
   10CHTO  H149 3965   4.552   7.411   7.895 -1.1584  0.4300  3.4149
   10CHTO   C88 3966   4.454   7.482   7.720 -0.0085 -0.1358 -0.5800
   10CHTO   O58 3967   4.519   7.583   7.710 -0.2186  0.1458 -0.0940
   10CHTO  H136 3968   4.460   7.654   7.696 -1.3132 -1.2622 -3.0509
   10CHTO   O51 3969   4.292   7.524   8.178  0.0587 -0.2501  0.2169
   10CHTO   C78 3970   4.396   7.645   8.248  0.8490  0.2320 -0.0277
   10CHTO  H150 3971   4.497   7.657   8.206  0.3576 -1.6789 -1.8122
   10CHTO   C80 3972   4.417   7.609   8.396  0.3791  0.0610 -0.6048
   10CHTO  H152 3973   4.318   7.594   8.444  0.9169  0.4068  0.6276
   10CHTO   O55 3974   4.484   7.487   8.386 -0.0269  0.0076 -0.0632
   10CHTO  H134 3975   4.502   7.441   8.466 -0.4202 -0.5266 -0.2737
   10CHTO   C84 3976   4.501   7.726   8.470 -0.1633  0.0217  0.1204
   10CHTO  H156 3977   4.602   7.729   8.428  0.5567  2.0254  1.8965
   10CHTO   N15 3978   4.527   7.695   8.612 -0.1717  0.2298  0.1407
   10CHTO  H143 3979   4.612   7.735   8.664  1.4139 -4.9512  1.8665
   10CHTO  H144 3980   4.439   7.724   8.666  0.6556 -0.4384  1.9082
   10CHTO   C87 3981   4.436   7.863   8.443  0.2046  0.1694  0.3019
   10CHTO  H159 3982   4.346   7.857   8.504  0.7864 -0.8654  1.0803
   10CHTO   O53 3983   4.417   7.882   8.300  0.4705 -1.1787 -0.2687
   10CHTO   C82 3984   4.331   7.782   8.238 -0.0584 -0.4560  0.2472
   10CHTO  H154 3985   4.234   7.792   8.286 -1.7148 -1.5807 -2.7613
   10CHTO   C89 3986   4.313   7.823   8.096 -0.0447  0.4692 -0.0015
   10CHTO   O59 3987   4.236   7.949   8.078 -0.2526  0.4747  0.0047
   10CHTO  H137 3988   4.165   7.957   8.139  0.0642 -0.2215  0.4702
   10CHTO   O45 3989   4.548   7.985   8.482  1.0124  0.0023 -0.2283
   10CHTO   C67 3990   4.487   8.107   8.527  0.5888 -0.0016  0.3425
   10CHTO  H124 3991   4.385   8.113   8.489  1.6309  2.5903 -2.2571
   10CHTO   C65 3992   4.495   8.121   8.680 -0.8824 -0.2900 -0.0252
   10CHTO  H122 3993   4.448   8.031   8.721 -2.0625  0.3097 -0.0261
   10CHTO   O44 3994   4.428   8.237   8.733 -0.2580  0.1914  0.0583
   10CHTO  H102 3995   4.356   8.268   8.681  0.5221  2.4792  0.2757
   10CHTO   C63 3996   4.649   8.118   8.723  0.4234 -0.3664  0.4388
   10CHTO  H120 3997   4.701   8.032   8.681 -1.3631 -0.3810 -1.8826
   10CHTO   N11 3998   4.683   8.104   8.869  0.4608  0.2877  0.4519
   10CHTO  H108 3999   4.620   8.032   8.917  1.2512  0.9561  2.5526
   10CHTO  H109 4000   4.789   8.092   8.877  0.5134 -0.2598 -0.8998
   10CHTO   C61 4001   4.723   8.248   8.657 -0.7564  0.9837 -0.2961
   10CHTO  H118 4002   4.832   8.233   8.662 -0.7882  0.3060 -1.5685
   10CHTO   O40 4003   4.693   8.262   8.512 -0.4797 -0.3646 -0.4264
   10CHTO   C68 4004   4.563   8.228   8.454  0.8522 -0.5351 -0.4192
   10CHTO  H125 4005   4.579   8.207   8.347 -0.8221 -0.4038 -0.7093
   10CHTO   C72 4006   4.477   8.355   8.454 -0.1081 -0.6328 -0.4692
   10CHTO   O48 4007   4.344   8.327   8.422 -0.5618  0.3836  0.8245
   10CHTO  H105 4008   4.283   8.376   8.473 -0.4710 -0.8292  2.1227
   10CHTO   O38 4009   4.694   8.379   8.711  0.8786 -0.1415 -0.2533
   10CHTO   C55 4010   4.812   8.458   8.749 -0.5404 -0.1748 -0.2008
   10CHTO  H112 4011   4.895   8.433   8.682 -1.2408  0.3205 -1.2586
   10CHTO   C56 4012   4.848   8.429   8.904  0.0227 -0.3108 -0.0810
   10CHTO  H113 4013   4.759   8.433   8.969  1.5002  0.8187  1.9468
   10CHTO   O42 4014   4.913   8.302   8.921  0.1745  0.2970  0.0216
   10CHTO  H100 4015   4.905   8.276   9.011  0.9774  1.2067  0.3589
   10CHTO   C57 4016   4.959   8.539   8.950  0.1489  0.2531 -0.4323
   10CHTO  H114 4017   5.055   8.504   8.911  2.0785 -0.0962  4.2364
   10CHTO   N10 4018   4.994   8.545   9.098  0.0385  0.1460 -0.0089
   10CHTO  H106 4019   5.087   8.595   9.119 -0.4195  1.3260 -0.7719
   10CHTO  H107 4020   4.997   8.444   9.137 -0.3308  0.9648  2.2124
   10CHTO   C58 4021   4.928   8.680   8.895 -0.7404  0.1859  0.0821
   10CHTO  H115 4022   4.840   8.724   8.945 -1.4362  0.6269 -1.4849
   10CHTO   O37 4023   4.900   8.691   8.753  0.4874  0.4674 -0.7354
   10CHTO   C59 4024   4.786   8.613   8.715  0.5257  0.0005 -0.4322
   10CHTO  H116 4025   4.689   8.644   8.753 -0.7367 -1.9106 -2.0097
   10CHTO   C70 4026   4.780   8.639   8.563  0.2498  0.1495 -0.6038
   10CHTO   O46 4027   4.779   8.770   8.515 -0.6037  0.1240  0.3792
   10CHTO  H103 4028   4.698   8.786   8.471 -0.3277 -0.9949 -0.5283
   10CHTO   O39 4029   5.076   8.785   8.921  0.2852  0.2268  0.1002
   10CHTO   C60 4030   5.039   8.919   8.940 -0.1531  0.6481  0.1590
   10CHTO  H117 4031   4.930   8.921   8.945 -0.2198 -0.1166 -0.7364
   10CHTO   C62 4032   5.075   8.956   9.080 -0.4133  0.9000  0.1912
   10CHTO  H119 4033   5.042   8.873   9.146 -2.1135  2.1947  1.0218
   10CHTO   O43 4034   5.215   8.955   9.081 -0.1260 -0.1883 -0.1590
   10CHTO  H101 4035   5.246   8.871   9.107 -0.5593 -0.1892  0.3725
   10CHTO   C66 4036   5.012   9.101   9.116  0.0999  0.3849  0.1746
   10CHTO  H123 4037   4.906   9.094   9.095  0.2495 -1.2182 -0.1748
   10CHTO   N12 4038   5.027   9.134   9.259 -1.3431  0.5978 -0.6170
   10CHTO  H110 4039   5.072   9.059   9.321 -1.2307  2.5061  1.6844
   10CHTO  H111 4040   4.927   9.153   9.297 -2.0370 -2.7662 -0.6558
   10CHTO   C69 4041   5.076   9.207   9.022 -0.0146  0.1310  0.4547
   10CHTO  H126 4042   5.186   9.214   9.038 -0.1691  0.2455  1.5367
   10CHTO   O41 4043   5.042   9.167   8.860 -0.4255 -0.2262 -0.0122
   10CHTO   C64 4044   5.078   9.019   8.830 -0.1627  0.4762 -0.1847
   10CHTO  H121 4045   5.188   9.012   8.819  0.1482  1.7931  1.8396
   10CHTO   C71 4046   5.024   8.987   8.686  0.3459  0.2175  0.3768
   10CHTO   O47 4047   4.880   8.978   8.699 -0.4148  0.5260  0.4698
   10CHTO  H104 4048   4.856   8.919   8.768  1.6184  0.1675  0.8956
   10CHTO   O34 4049   5.008   9.356   9.057 -0.1837  0.0177  0.0142
   10CHTO   C49 4050   5.097   9.490   9.035  0.8569  0.0240 -0.0181
   10CHTO   H91 4051   5.184   9.476   9.099  0.8152 -0.0550  0.0196
   10CHTO   C47 4052   5.016   9.613   9.086  0.0791  0.3233  0.4624
   10CHTO   H89 4053   5.096   9.689   9.103  1.2346 -0.5723 -0.9441
   10CHTO   O33 4054   4.971   9.575   9.213  0.3570 -0.3621  0.1168
   10CHTO   H70 4055   5.025   9.612   9.281 -2.7479  3.2041  0.8186
   10CHTO   C45 4056   4.910   9.652   8.978  0.4347  0.8489 -0.7997
   10CHTO   H87 4057   4.849   9.562   8.961  2.9502 -0.9099 -0.9067
   10CHTO    N8 4058   4.830   9.766   9.032 -0.7315  0.0331  0.4919
   10CHTO   H75 4059   4.727   9.734   9.036 -0.4098 -1.0301  0.5763
   10CHTO   H76 4060   4.850   9.855   8.974  2.1624  0.3369  1.8478
   10CHTO   C43 4061   4.980   9.687   8.837 -0.3860  0.1923  0.9431
   10CHTO   H85 4062   4.904   9.717   8.764  0.5353 -4.4360 -2.1063
   10CHTO   O29 4063   5.058   9.579   8.792  0.0965  0.6052  0.1646
   10CHTO   C50 4064   5.150   9.509   8.887  0.2769 -0.2827  0.0652
   10CHTO   H92 4065   5.174   9.410   8.845  1.1475 -0.1940  0.3407
   10CHTO   C54 4066   5.288   9.591   8.877  0.3710  0.3773  0.3076
   10CHTO   O36 4067   5.389   9.523   8.953  0.0193  0.2448  0.2464
   10CHTO   H72 4068   5.468   9.529   8.903  1.2092  0.6060  2.1147
   10CHTO   O27 4069   5.064   9.803   8.840 -0.2236 -0.0190 -0.6138
   10CHTO   C37 4070   5.124   9.915   8.766 -0.7240  0.6259  0.0015
   10CHTO   H79 4071   5.227   9.892   8.735 -1.5171 -0.6102 -1.8360
   10CHTO   C38 4072   5.046   9.949   8.636  0.7097  1.0049  0.4518
   10CHTO   H80 4073   4.941   9.967   8.666 -0.0062  1.1933 -2.0064
   10CHTO   O31 4074   5.050   9.834   8.544  0.3724 -0.5082  0.2081
   10CHTO   H68 4075   5.108   9.854   8.473 -1.0768  2.2237 -0.2722
   10CHTO   C39 4076   5.088  10.081   8.568 -0.6664 -0.1869 -0.7207
   10CHTO   H81 4077   5.181  10.054   8.519 -0.9046  1.7665 -2.2852
   10CHTO    N7 4078   5.000  10.129   8.454  0.1091  0.3325 -0.2182
   10CHTO   H73 4079   4.906  10.159   8.497 -0.4893 -1.5736 -0.1402
   10CHTO   H74 4080   5.040  10.215   8.402 -0.3403 -0.2671 -1.5685
   10CHTO   C40 4081   5.121  10.198   8.668 -0.1911  0.3176  0.2394
   10CHTO   H82 4082   5.034  10.260   8.692  0.1226  0.3181  1.4266
   10CHTO   O26 4083   5.187  10.159   8.788 -0.0471 -0.4891  0.1262
   10CHTO   C41 4084   5.115  10.045   8.859  0.2541  0.0563  0.7244
   10CHTO   H83 4085   5.010  10.073   8.874  0.3152  0.8482 -0.2646
   10CHTO   C52 4086   5.190  10.026   8.989 -0.1396  0.0652  0.2898
   10CHTO   O35 4087   5.102   9.976   9.102  0.2442 -0.1688  0.3215
   10CHTO   H71 4088   5.037   9.923   9.059  0.6060  0.6059 -1.2282
   10CHTO   O28 4089   5.226  10.279   8.612  0.0105 -0.0199  0.2353
   10CHTO   C42 4090   5.232  10.426   8.612 -0.0736  0.8197  0.9064
   10CHTO   H84 4091   5.129  10.457   8.629 -0.8583 -1.2018 -0.1276
   10CHTO   C44 4092   5.265  10.489   8.473  0.3828  0.1084 -0.3470
   10CHTO   H86 4093   5.366  10.463   8.441  0.0675  1.8605 -2.9736
   10CHTO   O32 4094   5.180  10.433   8.370 -0.7638 -0.6217  0.0134
   10CHTO   H69 4095   5.210  10.476   8.292 -1.1729  0.8084  0.6248
   10CHTO   C48 4096   5.258  10.646   8.466 -0.0400 -0.1555 -0.1874
   10CHTO   H90 4097   5.154  10.672   8.484 -0.3222 -2.1308  1.2275
   10CHTO    N9 4098   5.292  10.707   8.334  0.6594 -0.1617 -0.2476
   10CHTO   H77 4099   5.307  10.810   8.363  0.1181 -0.3542  0.7450
   10CHTO   H78 4100   5.375  10.652   8.292  1.2912  0.3331  0.3432
   10CHTO   C51 4101   5.336  10.709   8.594  0.1572 -0.1726  0.1802
   10CHTO   H93 4102   5.442  10.694   8.570 -0.5972 -1.4187 -2.5327
   10CHTO   O30 4103   5.304  10.652   8.714 -0.2879  0.0869  0.2290
   10CHTO   C46 4104   5.318  10.498   8.721 -0.2263  0.2904 -0.6476
   10CHTO   H88 4105   5.424  10.480   8.699  0.9725  3.4516  2.1714
   10CHTO   C53 4106   5.275  10.447   8.864 -0.6112  0.5181  0.1643
   10CHTO   O72 4107   5.350  10.514   8.967 -0.3920  0.3746 -0.0518
   10CHTO  H199 4108   5.359  10.454   9.038 -4.2811 -1.4666 -0.9463
   10CHTO   O22 4109   5.302  10.849   8.612 -0.3399  0.6751  0.5453
   10CHTO   C31 4110   5.410  10.944   8.653  1.3085  0.1746 -0.6883
   10CHTO   H59 4111   5.459  10.890   8.736 -2.5787 -0.7550  1.1155
   10CHTO   C29 4112   5.519  10.974   8.550  0.7500  0.4325  0.2992
   10CHTO   H57 4113   5.473  11.035   8.471 -0.0704  0.2012  0.5902
   10CHTO   O21 4114   5.563  10.860   8.479 -0.0957 -0.4998  0.0620
   10CHTO   H37 4115   5.502  10.789   8.465 -0.8656  0.4279 -1.3408
   10CHTO   C27 4116   5.637  11.059   8.616 -0.3743 -0.2818  0.5955
   10CHTO   H55 4117   5.694  10.998   8.688  2.0555 -0.3718 -1.3200
   10CHTO    N5 4118   5.734  11.102   8.505  0.2658 -0.4853 -0.5249
   10CHTO   H43 4119   5.770  11.017   8.448 -2.0607 -0.3696 -2.2164
   10CHTO   H44 4120   5.690  11.164   8.428  0.8425  0.0755 -0.4047
   10CHTO   C25 4121   5.579  11.181   8.690  0.1941  0.0639  0.4252
   10CHTO   H53 4122   5.531  11.246   8.615  0.7117 -0.4514 -0.3594
   10CHTO   O17 4123   5.476  11.126   8.786  0.7391 -0.3089 -0.3077
   10CHTO   C32 4124   5.357  11.071   8.720 -0.2141  0.4589  0.6780
   10CHTO   H60 4125   5.322  11.139   8.642 -1.1824  0.6600  1.2808
   10CHTO   C36 4126   5.248  11.060   8.828  0.6850  0.0226  0.4630
   10CHTO   O25 4127   5.212  11.181   8.890  0.5259 -0.1760 -0.0916
   10CHTO   H40 4128   5.292  11.224   8.913 -0.4164  1.0687  0.8968
   10CHTO   O15 4129   5.692  11.267   8.770 -0.6086  0.2916 -0.1281
   10CHTO   C19 4130   5.682  11.399   8.817 -0.8150  0.5434  0.4430
   10CHTO   H47 4131   5.602  11.445   8.758 -0.6298 -3.0214 -2.7766
   10CHTO   C20 4132   5.647  11.408   8.970  0.1336  0.5575 -0.5616
   10CHTO   H48 4133   5.718  11.353   9.033  0.4661  0.9660 -0.5756
   10CHTO   O19 4134   5.512  11.355   8.999  0.7943  0.3573  0.0195
   10CHTO   H35 4135   5.514  11.261   9.004  3.5523  0.3915  0.4429
   10CHTO   C21 4136   5.642  11.558   9.007 -0.5300 -0.3599 -0.6691
   10CHTO   H49 4137   5.563  11.603   8.946 -1.1756 -0.9696 -0.3038
   10CHTO    N4 4138   5.617  11.567   9.153 -0.2167  0.0375  0.7035
   10CHTO   H41 4139   5.522  11.600   9.192 -0.6905  0.6798 -0.9507
   10CHTO   H42 4140   5.652  11.484   9.213 -0.1661  1.2511  2.4138
   10CHTO   C22 4141   5.778  11.626   8.963  0.7478  0.5060  0.6309
   10CHTO   H50 4142   5.862  11.587   9.022 -2.6811 -3.7334  3.0138
   10CHTO   O14 4143   5.804  11.607   8.825  0.7961 -0.5575 -0.1039
   10CHTO   C23 4144   5.817  11.470   8.793 -0.5567 -0.6300 -0.1626
   10CHTO   H51 4145   5.898  11.438   8.860  1.9558  2.1388 -1.7149
   10CHTO   C34 4146   5.873  11.460   8.649  0.1703  0.6174 -0.5706
   10CHTO   O23 4147   5.790  11.511   8.549  0.1245  0.0998 -0.4029
   10CHTO   H38 4148   5.826  11.507   8.462  0.7278 -1.4115 -0.0980
   10CHTO   O16 4149   5.756  11.761   8.985  0.1949 -0.3671 -0.6322
   10CHTO   C24 4150   5.874  11.837   9.029 -0.0805  0.4032 -0.0266
   10CHTO   H52 4151   5.966  11.781   9.016 -0.4740 -0.9749  2.7083
   10CHTO   C26 4152   5.864  11.872   9.185 -0.0071 -0.2095 -0.4611
   10CHTO   H54 4153   5.757  11.886   9.213 -0.3701 -3.9603  0.2403
   10CHTO   O20 4154   5.906  11.751   9.252  0.0236  1.0902  0.1684
   10CHTO   H36 4155   5.850  11.679   9.232 -0.0578  0.4349  2.6777
   10CHTO   C30 4156   5.953  11.991   9.233 -0.2293  0.3233 -1.1425
   10CHTO   H58 4157   6.057  11.959   9.242 -0.7307 -1.0582 -0.0812
   10CHTO    N6 4158   5.921  12.035   9.370  0.0567 -0.5857 -0.0232
   10CHTO   H45 4159   5.834  11.981   9.405  0.7410 -1.6367  0.0903
   10CHTO   H46 4160   6.007  12.009   9.430  1.3055  0.1551 -1.4705
   10CHTO   C33 4161   5.960  12.107   9.128  0.2346  0.8847 -0.6451
   10CHTO   H61 4162   5.869  12.167   9.113 -0.1559  0.1713 -1.1640
   10CHTO   O18 4163   5.986  12.051   8.999 -0.0030 -0.5951 -0.1314
   10CHTO   C28 4164   5.885  11.970   8.942  0.1397 -0.9311 -0.2482
   10CHTO   H56 4165   5.783  12.008   8.930  0.1968 -1.4520 -2.5923
   10CHTO   C35 4166   5.933  11.938   8.795  0.3387 -0.2162  0.1173
   10CHTO   O24 4167   6.042  11.854   8.787  0.3331 -0.0194 -0.2026
   10CHTO   H39 4168   6.048  11.805   8.866 -2.4231 -0.0323  0.0356
   10CHTO    O9 4169   6.058  12.202   9.168 -0.6054  0.2133 -0.0918
   10CHTO   C13 4170   6.016  12.354   9.166 -0.4147 -0.8668 -0.3623
   10CHTO   H26 4171   5.909  12.364   9.193  0.6415  1.1214  3.5288
   10CHTO   C11 4172   6.053  12.425   9.028 -0.7537 -0.4635 -0.2615
   10CHTO   H24 4173   6.002  12.367   8.949 -0.1260 -3.0228  1.1828
   10CHTO    O8 4174   6.193  12.402   9.000 -0.4340  0.2725  0.1909
   10CHTO    H3 4175   6.198  12.324   8.949 -0.8830  1.1379 -1.1944
   10CHTO    C9 4176   6.010  12.578   9.032 -0.2155 -0.2688  0.1968
   10CHTO   H22 4177   5.900  12.579   9.037 -0.1713 -2.3402  3.5103
   10CHTO    N2 4178   6.040  12.653   8.906  0.3170 -0.3180  0.2211
   10CHTO   H10 4179   6.022  12.759   8.919 -1.1209 -0.5584  0.3070
   10CHTO   H11 4180   5.980  12.621   8.821 -0.8383 -0.8936  1.2421
   10CHTO    C7 4181   6.052  12.649   9.168 -0.1875 -0.5126  0.2833
   10CHTO   H20 4182   5.955  12.659   9.221  0.9365  0.6484  2.1764
   10CHTO    O4 4183   6.139  12.559   9.242 -0.2777  0.0727  0.4607
   10CHTO   C14 4184   6.082  12.433   9.284  0.2041  0.3090 -0.4664
   10CHTO   H27 4185   5.999  12.455   9.355 -0.6933 -2.3767 -0.6438
   10CHTO   C18 4186   6.184  12.351   9.368  0.2976 -0.0526  0.2062
   10CHTO   O13 4187   6.238  12.436   9.472  0.0546  0.1850 -0.1900
   10CHTO    H7 4188   6.175  12.452   9.539 -2.3523 -1.7952 -1.8675
   10CHTO    O2 4189   6.120  12.788   9.150  0.4531  0.3568  0.8693
   10CHTO    C1 4190   6.081  12.873   9.253  0.0196 -0.0466 -0.0153
   10CHTO   H14 4191   6.008  12.831   9.325  1.4250 -0.9633  0.8954
   10CHTO    C2 4192   6.025  13.017   9.192 -0.2645 -0.1784 -0.3275
   10CHTO   H15 4193   6.098  13.052   9.118  1.8307 -0.1194  1.7026
   10CHTO    O6 4194   5.900  12.985   9.135 -0.5275 -0.3582 -0.4121
   10CHTO    H1 4195   5.880  13.030   9.055 -1.1692 -0.7248 -0.4671
   10CHTO    C3 4196   6.004  13.123   9.319  0.0309 -0.2865 -0.2077
   10CHTO   H16 4197   5.912  13.091   9.371 -1.3872  1.0510 -1.8317
   10CHTO    N1 4198   5.968  13.263   9.267 -0.1807  0.4023  0.1664
   10CHTO    H8 4199   6.061  13.303   9.228  0.9492 -0.8248  1.5135
   10CHTO    H9 4200   5.935  13.326   9.348  0.0322 -0.1225  0.6597
   10CHTO    C4 4201   6.124  13.125   9.426  0.7437  0.2067  0.7209
   10CHTO   H17 4202   6.211  13.174   9.382  0.0959  0.1346 -0.6733
   10CHTO    O1 4203   6.158  12.989   9.464 -0.0945  0.0408 -0.0262
   10CHTO    C5 4204   6.202  12.906   9.353 -0.3509  0.4004 -0.2286
   10CHTO   H18 4205   6.272  12.965   9.295 -2.9763  3.8494 -0.0008
   10CHTO   C16 4206   6.271  12.774   9.407  0.1580 -0.3600 -0.2282
   10CHTO   O11 4207   6.368  12.715   9.326  0.1749 -0.1359 -0.0332
   10CHTO    H5 4208   6.405  12.779   9.267  1.7552 -0.1476  0.9110
   10CHTO    O3 4209   6.079  13.194   9.547 -0.3383 -0.7489  0.2996
   10CHTO    C6 4210   6.178  13.269   9.631  0.0321 -0.0561  0.4338
   10CHTO   H19 4211   6.278  13.279   9.588 -0.5275 -1.2548 -1.2061
   10CHTO    C8 4212   6.137  13.417   9.639  0.1768  0.2581 -0.3026
   10CHTO   H21 4213   6.034  13.429   9.671  0.9164  1.8372  1.5710
   10CHTO    O7 4214   6.147  13.465   9.509 -0.2290 -0.2282 -0.0394
   10CHTO    H2 4215   6.234  13.487   9.481 -0.3725 -0.8726 -1.0318
   10CHTO   C12 4216   6.235  13.498   9.738 -0.0252  0.0271 -0.2730
   10CHTO   H25 4217   6.336  13.491   9.694 -0.2822  0.8257 -1.0168
   10CHTO    N3 4218   6.200  13.646   9.747  0.4366  0.2751  0.0577
   10CHTO   H12 4219   6.211  13.695   9.843 -3.6396  0.9740  0.2571
   10CHTO   H13 4220   6.215  13.712   9.663  0.1234  0.6662  0.3107
   10CHTO   C15 4221   6.237  13.428   9.876 -0.3590 -0.3697  0.0072
   10CHTO   H28 4222   6.136  13.425   9.917 -0.1997 -0.0308  0.4210
   10CHTO   O10 4223   6.339  13.496   9.985  0.5145  0.1938 -0.5821
   10CHTO    H4 4224   6.430  13.489   9.963  0.2297 -2.6537 -0.9514
   10CHTO    O5 4225   6.284  13.292   9.853 -0.8672  0.3464 -0.0419
   10CHTO   C10 4226   6.199  13.212   9.776  0.1636 -0.1641  0.3614
   10CHTO   H23 4227   6.106  13.208   9.833  0.0739 -1.1733  0.1489
   10CHTO   C17 4228   6.255  13.069   9.783  0.4064  0.3541 -0.0404
   10CHTO   O12 4229   6.391  13.072   9.737 -0.2875  0.7690 -0.2359
   10CHTO    H6 4230   6.452  13.102   9.802 -0.0170 -0.0557 -0.1002
   11CHTO  H203 4231   7.453   6.488   2.329 -2.4228 -0.8206  1.3889
   11CHTO   O82 4232   7.443   6.578   2.356  0.2109 -0.1757  0.3591
   11CHTO  C123 4233   7.303   6.610   2.351  0.4463  0.4986 -0.2018
   11CHTO  H227 4234   7.293   6.720   2.349 -1.2246  0.3528 -0.6864
   11CHTO   O77 4235   7.264   6.561   2.222 -0.3356 -0.2241  0.3100
   11CHTO  C118 4236   7.131   6.600   2.179  0.0674  0.3606 -0.4157
   11CHTO  H222 4237   7.125   6.710   2.174  0.1376  0.3486 -0.7217
   11CHTO  C125 4238   7.105   6.545   2.043  0.0917  0.3396  0.2750
   11CHTO   O84 4239   7.199   6.570   1.944  0.3485  0.1933  0.2060
   11CHTO  H205 4240   7.268   6.506   1.951  1.1916  1.3913  3.4168
   11CHTO  C114 4241   7.033   6.545   2.283  0.3163  0.0437 -0.4167
   11CHTO  H218 4242   7.028   6.436   2.270 -1.0168 -0.1407  1.4990
   11CHTO  C116 4243   7.071   6.585   2.428 -0.4557  0.0169  0.6628
   11CHTO  H220 4244   7.077   6.695   2.439  1.3481  0.0925 -0.8739
   11CHTO   O79 4245   6.981   6.525   2.518  0.0622 -0.2339  0.0286
   11CHTO  H201 4246   6.895   6.555   2.496 -0.1656 -1.7117 -1.2172
   11CHTO  C120 4247   7.216   6.544   2.464  0.0826  1.2295 -0.6409
   11CHTO  H224 4248   7.218   6.433   2.458 -3.0460  1.1591 -1.2657
   11CHTO   N21 4249   7.256   6.579   2.600 -0.0929 -0.0057  0.3789
   11CHTO  H211 4250   7.295   6.680   2.598  1.8244 -0.6799  1.8356
   11CHTO  H212 4251   7.170   6.570   2.664 -1.1274  1.2232 -0.8086
   11CHTO   O75 4252   6.904   6.598   2.241  0.1999  0.2844  0.2421
   11CHTO  C112 4253   6.787   6.487   2.249  0.2671  0.4242  0.0300
   11CHTO  H216 4254   6.810   6.411   2.325 -1.5532 -0.9095 -0.7296
   11CHTO   O73 4255   6.779   6.430   2.118  0.0570 -0.1314  0.1007
   11CHTO  C113 4256   6.686   6.328   2.108  0.2517  0.7753 -0.1708
   11CHTO  H217 4257   6.704   6.238   2.170 -2.0617 -0.6575 -1.5028
   11CHTO  C124 4258   6.699   6.285   1.959  0.7530 -0.3922  0.0942
   11CHTO   O83 4259   6.635   6.156   1.934  0.0598 -0.0165 -0.4130
   11CHTO  H204 4260   6.700   6.092   1.913  0.6552  0.3012  0.4005
   11CHTO  C109 4261   6.541   6.384   2.144 -0.4080 -0.0447  0.0530
   11CHTO  H213 4262   6.521   6.469   2.077  0.5538  2.6113  3.0152
   11CHTO  C110 4263   6.537   6.449   2.288  0.3004 -0.1437  0.4904
   11CHTO  H214 4264   6.553   6.375   2.366  0.0709  0.4508  1.0998
   11CHTO   O78 4265   6.401   6.499   2.302 -0.6188 -0.0178  0.4885
   11CHTO  H200 4266   6.347   6.423   2.314  0.9775 -1.1532  0.5964
   11CHTO  C111 4267   6.654   6.553   2.295 -0.2232  0.0677  0.3320
   11CHTO  H215 4268   6.630   6.638   2.229 -0.7612 -0.7569 -0.5377
   11CHTO   N19 4269   6.668   6.608   2.436 -0.3711 -0.5123  0.2848
   11CHTO  H207 4270   6.758   6.568   2.481 -0.6655  0.1641  1.4957
   11CHTO  H208 4271   6.592   6.581   2.508 -0.1111 -1.8768  0.0531
   11CHTO   O74 4272   6.428   6.287   2.137 -0.7741  0.8161  0.2635
   11CHTO  C115 4273   6.339   6.279   2.014 -0.1081  0.5599 -0.0215
   11CHTO  H219 4274   6.385   6.319   1.924 -1.2597  0.0514 -0.8499
   11CHTO   O76 4275   6.294   6.137   1.981 -0.2451 -0.4978 -0.4881
   11CHTO  C122 4276   6.208   6.081   2.072  0.5273 -0.1744  0.1376
   11CHTO  H226 4277   6.257   6.082   2.170 -1.7855 -1.3047  1.3306
   11CHTO  C126 4278   6.193   5.931   2.035  0.1634 -0.5661  0.4041
   11CHTO   O85 4279   6.180   5.913   1.891 -0.1173  0.5992  0.6685
   11CHTO  H206 4280   6.208   5.828   1.864  0.8150  0.1442  2.8928
   11CHTO  C121 4281   6.069   6.154   2.089 -0.3445  0.1419  0.3888
   11CHTO  H225 4282   5.989   6.093   2.042 -1.6139  0.7110  1.7694
   11CHTO   O81 4283   6.037   6.156   2.230 -0.1208 -0.3047 -0.0176
   11CHTO  H202 4284   5.985   6.081   2.249  0.5258 -0.7368  0.0555
   11CHTO  C119 4285   6.073   6.295   2.022  0.6036 -0.0772  0.0781
   11CHTO  H223 4286   6.065   6.271   1.916  0.8565  2.0829 -0.4439
   11CHTO  C117 4287   6.210   6.376   2.042  0.0417 -0.5639  0.1181
   11CHTO  H221 4288   6.230   6.419   2.140  0.3106  0.3369 -0.3317
   11CHTO   N20 4289   6.212   6.497   1.946  0.3530 -0.1323  0.0707
   11CHTO  H209 4290   6.300   6.487   1.884 -0.7793  0.4937 -1.6863
   11CHTO  H210 4291   6.194   6.585   2.005 -2.8880 -0.9715  0.4493
   11CHTO   O80 4292   5.929   6.385   2.041  0.0338  0.1034  0.2625
   11CHTO  C103 4293   5.895   6.464   2.192  0.2400  0.3329  0.1579
   11CHTO  H190 4294   5.856   6.394   2.266 -0.6496 -0.0252 -0.6324
   11CHTO  C101 4295   6.005   6.551   2.254 -0.0162 -0.1251 -0.1264
   11CHTO  H188 4296   6.057   6.590   2.167 -1.8840 -0.0499 -1.2515
   11CHTO   O68 4297   6.096   6.458   2.336  0.3224  0.3607  0.0833
   11CHTO  H168 4298   6.063   6.439   2.421  1.8681  0.7078  0.7812
   11CHTO   C99 4299   5.960   6.675   2.344 -0.2600  0.1438  0.2327
   11CHTO  H186 4300   5.933   6.635   2.444 -2.8853 -1.2470 -0.9851
   11CHTO   N17 4301   6.065   6.778   2.368  0.1791 -0.3378  0.6793
   11CHTO  H174 4302   6.101   6.776   2.470 -0.6459  2.3962  1.0587
   11CHTO  H175 4303   6.145   6.763   2.297 -0.2256 -0.5778  0.2769
   11CHTO   C97 4304   5.840   6.746   2.280  0.7075 -0.9330 -0.7637
   11CHTO  H184 4305   5.868   6.801   2.188  0.1991  2.8716  1.2714
   11CHTO   O64 4306   5.739   6.645   2.252 -0.9295 -0.3559 -0.1373
   11CHTO  C104 4307   5.773   6.555   2.148 -0.0765  0.1237  0.0999
   11CHTO  H191 4308   5.802   6.610   2.058  0.5656  1.2521  0.9930
   11CHTO  C108 4309   5.653   6.469   2.108 -0.6797  0.3586 -0.4729
   11CHTO   O71 4310   5.549   6.546   2.042  0.6494  0.3241 -0.1755
   11CHTO  H171 4311   5.468   6.499   2.049  1.2827 -0.8799 -0.7457
   11CHTO   O62 4312   5.776   6.834   2.375 -0.4535  0.0238  0.6221
   11CHTO   C91 4313   5.652   6.902   2.344 -0.2171 -0.2296 -0.1310
   11CHTO  H178 4314   5.577   6.827   2.319 -0.2695  0.0717 -0.9016
   11CHTO   C92 4315   5.676   7.017   2.235 -0.0198 -0.9355 -0.2868
   11CHTO  H179 4316   5.746   6.979   2.159  1.4755  2.9294 -0.9557
   11CHTO   O66 4317   5.552   7.039   2.168  0.0644  0.6399  0.0615
   11CHTO  H166 4318   5.508   6.957   2.154  1.5283 -0.2635  0.6529
   11CHTO   C93 4319   5.738   7.151   2.293 -0.3485 -0.1612  0.3736
   11CHTO  H180 4320   5.736   7.234   2.221 -1.3499  0.0874  0.6863
   11CHTO   N16 4321   5.886   7.140   2.324  0.0041  0.1557 -0.2841
   11CHTO  H172 4322   5.929   7.044   2.300  0.0327 -0.2809  1.4475
   11CHTO  H173 4323   5.901   7.149   2.431 -3.0623  0.8614  0.1500
   11CHTO   C94 4324   5.652   7.190   2.418 -0.4403  0.1671  0.4906
   11CHTO  H181 4325   5.712   7.204   2.508 -1.6703 -2.5036  1.7772
   11CHTO   O61 4326   5.544   7.097   2.459 -0.4480  0.2908 -0.7631
   11CHTO   C95 4327   5.592   6.964   2.478 -0.0499 -0.1034  0.3593
   11CHTO  H182 4328   5.677   6.970   2.547  1.1772  0.7791 -1.1786
   11CHTO  C106 4329   5.476   6.872   2.534 -0.0864 -0.6341 -0.2737
   11CHTO   O69 4330   5.451   6.902   2.671 -0.3388  0.0226 -0.2593
   11CHTO  H169 4331   5.365   6.940   2.677  0.3915  1.6312  0.3005
   11CHTO   O63 4332   5.576   7.305   2.383  0.2487 -0.3192  0.1796
   11CHTO   C96 4333   5.585   7.443   2.499  0.2414  0.4412 -0.0678
   11CHTO  H183 4334   5.584   7.406   2.601 -1.9858  3.0484  0.9220
   11CHTO   C98 4335   5.458   7.530   2.492 -0.1564 -0.6697  0.4516
   11CHTO  H185 4336   5.369   7.472   2.521 -0.5821  0.1912  0.8664
   11CHTO   O67 4337   5.472   7.636   2.591  0.1600  0.1415 -0.1503
   11CHTO  H167 4338   5.502   7.601   2.673 -0.2283  0.0592 -0.0430
   11CHTO  C102 4339   5.448   7.600   2.353  0.1715  1.0032 -0.1501
   11CHTO  H189 4340   5.379   7.684   2.364  0.4064  1.3371 -1.1718
   11CHTO   N18 4341   5.399   7.516   2.239 -0.0438 -0.1597  0.0172
   11CHTO  H176 4342   5.350   7.589   2.176 -0.5099  1.0384  1.7254
   11CHTO  H177 4343   5.483   7.472   2.186 -0.1021 -1.0639  0.6762
   11CHTO  C105 4344   5.578   7.678   2.322 -0.4016  0.1256  0.4002
   11CHTO  H192 4345   5.628   7.636   2.235  1.2030  0.7099  1.0213
   11CHTO   O65 4346   5.681   7.664   2.421  0.6463 -0.1295  0.2617
   11CHTO  C100 4347   5.712   7.531   2.454  0.0768 -0.1695  0.4538
   11CHTO  H187 4348   5.752   7.486   2.362 -0.9674 -0.3548  0.0851
   11CHTO  C107 4349   5.822   7.524   2.569  0.4362 -0.2616  0.2089
   11CHTO   O70 4350   5.791   7.602   2.682 -0.2756 -0.1182  0.1637
   11CHTO  H170 4351   5.770   7.692   2.670  0.7637  0.2136  0.7782
   11CHTO   O57 4352   5.535   7.836   2.302 -0.0162 -0.5851 -0.2582
   11CHTO   C85 4353   5.556   7.922   2.186 -0.0225 -0.2062  0.0534
   11CHTO  H157 4354   5.504   8.017   2.210 -0.1294  0.3524 -2.2535
   11CHTO   C83 4355   5.485   7.874   2.052  0.2909  0.5743 -0.2947
   11CHTO  H155 4356   5.378   7.875   2.069  0.3584  0.1642  0.1960
   11CHTO   O56 4357   5.518   7.734   2.019  0.2194  0.0724 -0.2874
   11CHTO  H135 4358   5.478   7.672   2.077  0.0118 -1.8826 -2.4315
   11CHTO   C81 4359   5.525   7.974   1.938  0.7560  0.6425 -0.2821
   11CHTO  H153 4360   5.487   8.071   1.970  0.3835  0.9355 -1.5958
   11CHTO   N14 4361   5.442   7.950   1.815  0.1719  0.2984  0.4057
   11CHTO  H141 4362   5.425   7.844   1.810 -1.8131  0.5405  1.5695
   11CHTO  H142 4363   5.501   7.972   1.729  2.0709  1.5677  2.0082
   11CHTO   C79 4364   5.680   7.981   1.915  0.4600 -0.0642  0.9473
   11CHTO  H151 4365   5.691   8.062   1.843 -2.5347 -1.5889 -1.3262
   11CHTO   O52 4366   5.746   8.016   2.043  0.5600 -0.7628  0.0873
   11CHTO   C86 4367   5.708   7.945   2.164  0.1204 -0.3718 -0.3421
   11CHTO  H158 4368   5.759   7.848   2.150  1.0374  0.0221  0.1774
   11CHTO   C90 4369   5.771   8.021   2.290  0.2500  0.2677  0.3792
   11CHTO   O60 4370   5.721   8.151   2.303  0.1540  0.4385  0.3354
   11CHTO  H138 4371   5.766   8.201   2.368  2.5451  0.0242 -0.9694
   11CHTO   O50 4372   5.733   7.853   1.876 -0.0096  0.5070 -0.0398
   11CHTO   C73 4373   5.859   7.832   1.815  0.0014 -0.1130 -0.2600
   11CHTO  H145 4374   5.933   7.904   1.850 -0.4008  0.1775 -0.0006
   11CHTO   C74 4375   5.837   7.847   1.658  0.0137 -0.4406  0.2051
   11CHTO  H146 4376   5.807   7.950   1.637 -1.7977 -0.8639  0.6247
   11CHTO   O54 4377   5.970   7.837   1.603 -0.0449 -0.3761  0.0474
   11CHTO  H133 4378   5.970   7.844   1.510 -2.8316  2.6870  0.1802
   11CHTO   C75 4379   5.731   7.744   1.604 -0.2882  0.1172 -0.4989
   11CHTO  H147 4380   5.636   7.760   1.657 -0.6768 -0.9292 -0.8619
   11CHTO   N13 4381   5.699   7.759   1.462 -0.6934 -0.4560 -0.3008
   11CHTO  H139 4382   5.627   7.836   1.442 -0.3261  0.0540  0.3294
   11CHTO  H140 4383   5.653   7.667   1.428  0.2313 -0.1324 -2.5421
   11CHTO   C76 4384   5.798   7.599   1.640  0.0110  0.2496 -0.4794
   11CHTO  H148 4385   5.884   7.585   1.574 -0.4295  1.4720 -1.3219
   11CHTO   O49 4386   5.849   7.581   1.777 -0.4777 -0.3192  0.1494
   11CHTO   C77 4387   5.920   7.693   1.839 -0.6091 -0.2539 -0.6277
   11CHTO  H149 4388   6.023   7.688   1.802 -0.5837  1.1115 -0.7543
   11CHTO   C88 4389   5.930   7.646   1.990  0.1672 -0.5768 -0.0156
   11CHTO   O58 4390   5.982   7.767   2.083  0.1700  0.0370  0.4228
   11CHTO  H136 4391   6.025   7.832   2.031 -0.6838 -0.7201 -1.2766
   11CHTO   O51 4392   5.696   7.478   1.628  0.3051  0.5786  0.4521
   11CHTO   C78 4393   5.760   7.341   1.633  0.0987 -0.0656 -0.6865
   11CHTO  H150 4394   5.867   7.344   1.663 -0.1749 -0.8360  0.3848
   11CHTO   C80 4395   5.745   7.262   1.502 -0.0282 -0.1486  0.1728
   11CHTO  H152 4396   5.637   7.245   1.482 -0.1882  2.6899 -1.5760
   11CHTO   O55 4397   5.805   7.342   1.409 -0.4115 -0.1716  0.0709
   11CHTO  H134 4398   5.742   7.398   1.368  0.3222 -0.6961 -1.8617
   11CHTO   C84 4399   5.817   7.123   1.524 -0.3891  0.3892 -0.3258
   11CHTO  H156 4400   5.915   7.144   1.566 -2.4542  4.5448  2.7737
   11CHTO   N15 4401   5.828   7.051   1.396  0.3644 -0.1019 -0.5458
   11CHTO  H143 4402   5.930   7.027   1.374 -0.3107 -0.9138 -2.8799
   11CHTO  H144 4403   5.774   6.958   1.395  0.1773  0.0233 -2.5267
   11CHTO   C87 4404   5.751   7.047   1.639 -0.5191 -0.3682 -0.1878
   11CHTO  H159 4405   5.650   7.035   1.602 -0.4775  1.2590 -0.8805
   11CHTO   O53 4406   5.750   7.127   1.765 -0.4914 -0.1780  0.3527
   11CHTO   C82 4407   5.688   7.257   1.745 -0.3553  0.8635  0.0846
   11CHTO  H154 4408   5.584   7.243   1.715  0.2076 -0.4314 -1.2833
   11CHTO   C89 4409   5.687   7.324   1.889 -0.2118  0.1887 -0.1568
   11CHTO   O59 4410   5.593   7.248   1.964 -0.1734  0.1091 -0.1957
   11CHTO  H137 4411   5.634   7.174   2.004  0.2810  0.2019 -0.4856
   11CHTO   O45 4412   5.820   6.911   1.682  0.0223 -0.3408  0.5029
   11CHTO   C67 4413   5.963   6.920   1.704  0.5257 -0.1770  0.4657
   11CHTO  H124 4414   6.003   6.972   1.616  1.8959  1.3574  1.9634
   11CHTO   C65 4415   6.011   6.998   1.833 -0.2193 -0.4315  0.2722
   11CHTO  H122 4416   5.928   7.009   1.903  0.5193  0.1667  1.0519
   11CHTO   O44 4417   6.039   7.128   1.793 -0.1675 -0.4039  0.5645
   11CHTO  H102 4418   5.962   7.176   1.770  0.6743  0.0267 -1.4828
   11CHTO   C63 4419   6.130   6.920   1.901  0.2121  0.0191 -0.6927
   11CHTO  H120 4420   6.097   6.825   1.944  0.5884  0.2641  0.1687
   11CHTO   N11 4421   6.176   6.990   2.025  0.2399  1.2798 -0.1182
   11CHTO  H108 4422   6.190   6.919   2.104 -0.7732  1.3992  0.1725
   11CHTO  H109 4423   6.269   7.037   2.004  0.8181 -0.7509 -2.3016
   11CHTO   C61 4424   6.227   6.875   1.791 -0.4562 -0.0475  0.1516
   11CHTO  H118 4425   6.306   6.819   1.844 -0.7156  0.5101  1.1436
   11CHTO   O40 4426   6.168   6.780   1.697  0.5164  0.8380 -0.1541
   11CHTO   C68 4427   6.021   6.769   1.695  0.1047  0.3695  0.5415
   11CHTO  H125 4428   5.991   6.712   1.785  0.8150 -1.8069 -0.5564
   11CHTO   C72 4429   5.979   6.679   1.570  0.0445  0.1074  0.6905
   11CHTO   O48 4430   6.005   6.746   1.441 -0.4839 -0.2040 -0.4852
   11CHTO  H105 4431   6.097   6.766   1.441 -0.0779 -1.9912 -2.3509
   11CHTO   O38 4432   6.275   6.991   1.718  0.1577 -0.1676 -0.3589
   11CHTO   C55 4433   6.412   6.991   1.676  1.3588 -0.1176 -0.4278
   11CHTO  H112 4434   6.456   6.891   1.673 -0.6036 -0.9901 -1.1911
   11CHTO   C56 4435   6.493   7.089   1.764  0.1019  0.3372 -0.2304
   11CHTO  H113 4436   6.449   7.189   1.754  0.1807  0.1526 -2.5768
   11CHTO   O42 4437   6.496   7.053   1.901  0.3583 -0.2741  0.0331
   11CHTO  H100 4438   6.407   7.040   1.926  0.0915 -0.9070 -1.1881
   11CHTO   C57 4439   6.643   7.107   1.712 -0.1361 -0.5641 -0.3281
   11CHTO  H114 4440   6.691   7.016   1.746  5.0033  2.3921  0.9196
   11CHTO   N10 4441   6.705   7.230   1.771  0.9220  0.0173 -0.5480
   11CHTO  H106 4442   6.745   7.211   1.870  1.9515 -0.2699 -1.0109
   11CHTO  H107 4443   6.635   7.312   1.775  0.2840 -0.5318 -0.2184
   11CHTO   C58 4444   6.644   7.110   1.555  0.0433 -0.8334  0.6631
   11CHTO  H115 4445   6.613   7.213   1.528 -0.8817 -1.8580 -2.3637
   11CHTO   O37 4446   6.555   7.018   1.492 -0.4320  0.4851  0.0326
   11CHTO   C59 4447   6.419   7.043   1.531 -0.0191 -0.0091  0.0952
   11CHTO  H116 4448   6.394   7.149   1.522  0.8248  0.2200  0.3425
   11CHTO   C70 4449   6.331   6.962   1.425  0.8014  0.0558  0.4628
   11CHTO   O46 4450   6.371   6.978   1.285  0.4301 -0.3400  0.7441
   11CHTO  H103 4451   6.409   6.894   1.266 -0.4512 -0.9123  1.4808
   11CHTO   O39 4452   6.791   7.079   1.504  1.0031  0.0999 -0.2382
   11CHTO   C60 4453   6.828   7.140   1.375 -0.2499  0.1143 -0.6726
   11CHTO  H117 4454   6.737   7.184   1.334 -1.2662 -1.5816 -0.2750
   11CHTO   C62 4455   6.933   7.259   1.385  0.6224  0.6833 -0.5886
   11CHTO  H119 4456   6.873   7.338   1.435  0.8021 -0.9809  2.3640
   11CHTO   O43 4457   7.043   7.222   1.471  0.2980  0.4194 -0.1282
   11CHTO  H101 4458   7.022   7.220   1.562 -1.8397  1.2112 -0.5775
   11CHTO   C66 4459   6.973   7.307   1.239  0.1213  0.6011  0.3908
   11CHTO  H123 4460   6.880   7.328   1.187  0.0535  1.4414  0.8470
   11CHTO   N12 4461   7.054   7.435   1.242 -0.3017  0.0877 -0.4720
   11CHTO  H110 4462   7.080   7.451   1.346 -0.5303 -2.7312  0.0780
   11CHTO  H111 4463   7.145   7.431   1.185 -0.1817  1.2772 -0.3789
   11CHTO   C69 4464   7.037   7.187   1.169  0.0320 -0.2701  0.1650
   11CHTO  H126 4465   7.113   7.141   1.235 -1.0689 -1.7315  0.4437
   11CHTO   O41 4466   6.925   7.084   1.149 -0.1564  0.0737  0.4177
   11CHTO   C64 4467   6.875   7.029   1.284 -0.0810  0.6593  0.2257
   11CHTO  H121 4468   6.951   6.970   1.340 -0.4914  0.4932  0.6197
   11CHTO   C71 4469   6.754   6.929   1.252  0.4274 -0.4249 -0.0368
   11CHTO   O47 4470   6.800   6.811   1.187 -0.7342  0.5912 -0.3289
   11CHTO  H104 4471   6.786   6.743   1.251 -1.3717  0.7115 -0.3375
   11CHTO   O34 4472   7.104   7.220   1.023  0.0444 -0.3974 -0.1458
   11CHTO   C49 4473   7.189   7.120   0.937 -0.0664  0.7602 -0.1608
   11CHTO   H91 4474   7.273   7.082   0.995 -0.9315 -1.0063 -0.0490
   11CHTO   C47 4475   7.239   7.193   0.812  0.4284  0.1475  0.5487
   11CHTO   H89 4476   7.310   7.118   0.771  0.5967 -0.5429  2.0695
   11CHTO   O33 4477   7.311   7.305   0.853  0.2860  0.0600  0.6808
   11CHTO   H70 4478   7.389   7.276   0.896  1.2708  1.4289 -0.1508
   11CHTO   C45 4479   7.125   7.240   0.718  0.5704 -0.2886  0.1274
   11CHTO   H87 4480   7.095   7.339   0.757  0.9225  0.7272 -2.1006
   11CHTO    N8 4481   7.168   7.257   0.575 -0.4649  0.6400 -0.0993
   11CHTO   H75 4482   7.078   7.276   0.518 -0.6920  1.4912  0.5176
   11CHTO   H76 4483   7.213   7.163   0.548  1.4126  1.8194 -1.1858
   11CHTO   C43 4484   6.995   7.139   0.737 -0.3296  0.2701 -0.3676
   11CHTO   H85 4485   6.934   7.171   0.822  2.0974 -3.2674  2.8530
   11CHTO   O29 4486   7.037   7.002   0.760  0.3860 -0.3368  1.3075
   11CHTO   C50 4487   7.106   6.995   0.886  0.0915  0.9067  0.0564
   11CHTO   H92 4488   7.015   6.979   0.946 -0.6129  1.0055 -0.9739
   11CHTO   C54 4489   7.195   6.876   0.907 -0.3090 -0.0684 -0.3834
   11CHTO   O36 4490   7.120   6.753   0.902  0.1412 -0.4065 -0.3486
   11CHTO   H72 4491   7.036   6.762   0.942  0.8736  1.5737  0.8286
   11CHTO   O27 4492   6.900   7.147   0.628 -0.2803 -0.3244 -0.1552
   11CHTO   C37 4493   6.792   7.052   0.592  0.0178 -0.0351 -0.3535
   11CHTO   H79 4494   6.811   6.949   0.626 -0.1897  1.0482  3.3344
   11CHTO   C38 4495   6.659   7.085   0.678 -0.5373  0.6812 -0.3650
   11CHTO   H80 4496   6.625   7.187   0.656  0.3629  1.1608  0.3722
   11CHTO   O31 4497   6.699   7.068   0.818 -0.0684 -0.1791 -0.1620
   11CHTO   H68 4498   6.632   7.091   0.880  0.2024  0.8913 -0.2563
   11CHTO   C39 4499   6.548   6.974   0.645 -0.8259 -0.4115 -0.5900
   11CHTO   H81 4500   6.574   6.877   0.689 -1.6126  0.0059  0.8262
   11CHTO    N7 4501   6.418   7.003   0.709  0.5439 -0.0885  0.7339
   11CHTO   H73 4502   6.354   6.920   0.684 -0.0525  0.5968  0.0143
   11CHTO   H74 4503   6.435   6.991   0.815 -1.2083  1.6847  1.2251
   11CHTO   C40 4504   6.534   6.949   0.491 -0.2351 -0.4841 -0.6640
   11CHTO   H82 4505   6.474   7.019   0.433 -1.7199 -1.5915 -0.5024
   11CHTO   O26 4506   6.665   6.939   0.441  0.1935 -0.0843  0.1689
   11CHTO   C41 4507   6.755   7.052   0.447 -0.3545  0.3414  0.0899
   11CHTO   H83 4508   6.705   7.141   0.407  0.7063  0.9355  0.0791
   11CHTO   C52 4509   6.877   7.021   0.361  0.3950  0.2870  0.4433
   11CHTO   O35 4510   6.949   7.161   0.341 -0.5366 -0.1557  0.2946
   11CHTO   H71 4511   7.003   7.149   0.266 -1.0775 -1.6814  0.1427
   11CHTO   O28 4512   6.486   6.821   0.453  0.6505 -0.1111 -0.2321
   11CHTO   C42 4513   6.394   6.812   0.338  0.3181 -0.0581 -0.1373
   11CHTO   H84 4514   6.435   6.886   0.268 -1.7858  1.1265 -0.1483
   11CHTO   C44 4515   6.243   6.852   0.360 -0.4096  0.2956 -0.1515
   11CHTO   H86 4516   6.200   6.782   0.433  0.9270 -0.3555  0.0299
   11CHTO   O32 4517   6.241   6.988   0.418 -0.3947 -0.0039  0.2300
   11CHTO   H69 4518   6.313   7.043   0.391  1.4088 -1.4957  1.7985
   11CHTO   C48 4519   6.153   6.835   0.239 -0.4314  0.1762 -0.6348
   11CHTO   H90 4520   6.183   6.905   0.160 -0.5224  0.6996 -0.2089
   11CHTO    N9 4521   6.011   6.877   0.272 -0.2008  0.0497  0.0285
   11CHTO   H77 4522   6.003   6.937   0.362 -1.8105  0.8784 -0.6574
   11CHTO   H78 4523   5.966   6.921   0.185 -0.4417 -1.0288 -0.4038
   11CHTO   C51 4524   6.175   6.686   0.200 -0.0834  0.2716 -0.7313
   11CHTO   H93 4525   6.141   6.619   0.279 -0.7841 -0.3144 -1.5149
   11CHTO   O30 4526   6.311   6.658   0.161  0.1043 -0.1856 -0.2601
   11CHTO   C46 4527   6.401   6.670   0.276 -0.4673  0.1483 -0.0922
   11CHTO   H88 4528   6.376   6.593   0.348  0.6426  1.1192  1.3486
   11CHTO   C53 4529   6.540   6.645   0.224 -0.0633  0.4683  0.8639
   11CHTO   O72 4530   6.568   6.503   0.223  0.3180 -0.4658 -0.4050
   11CHTO  H199 4531   6.652   6.485   0.186  1.0063  0.3648  0.7113
   11CHTO   O22 4532   6.101   6.667   0.080 -0.1689 -0.0456  0.5610
   11CHTO   C31 4533   6.031   6.541   0.050 -0.1693 -1.1464  0.4094
   11CHTO   H59 4534   6.065   6.470   0.129  1.0191 -2.7244 -1.4492
   11CHTO   C29 4535   5.877   6.549   0.065  0.0489  0.2544 -0.0272
   11CHTO   H57 4536   5.844   6.638   0.011  0.6822 -0.5802 -1.8271
   11CHTO   O21 4537   5.855   6.585   0.196 -0.2819  0.0176 -0.3278
   11CHTO   H37 4538   5.882   6.673   0.215 -0.1325 -0.1216  0.1196
   11CHTO   C27 4539   5.806   6.419   0.023 -0.2243  0.3272 -0.6948
   11CHTO   H55 4540   5.828   6.348   0.105 -2.8298  1.6498  1.2349
   11CHTO    N5 4541   5.659   6.425   0.012 -0.4015  0.8168  0.0043
   11CHTO   H43 4542   5.607   6.407   0.105  0.8010  0.2530  0.5788
   11CHTO   H44 4543   5.632   6.526  -0.018  0.1360  0.3510 -2.0794
   11CHTO   C25 4544   5.864   6.365  -0.109  0.0719 -0.6598  0.4243
   11CHTO   H53 4545   5.837   6.433  -0.191  2.4390 -1.0017 -0.6823
   11CHTO   O17 4546   6.006   6.355  -0.103 -0.3959  0.5069  0.0961
   11CHTO   C32 4547   6.079   6.474  -0.084 -0.2677 -0.2008  0.4594
   11CHTO   H60 4548   6.069   6.547  -0.164  0.2884  1.5230  1.9292
   11CHTO   C36 4549   6.228   6.419  -0.077  0.0224 -0.4199 -0.2638
   11CHTO   O25 4550   6.273   6.364  -0.205 -0.3132 -0.1285 -0.4775
   11CHTO   H40 4551   6.361   6.333  -0.194 -0.3397  0.0666  0.3457
   11CHTO   O15 4552   5.821   6.229  -0.145  0.2365  0.5391  0.4905
   11CHTO   C19 4553   5.805   6.099  -0.208  0.3528  0.1593  0.0809
   11CHTO   H47 4554   5.865   6.031  -0.145  0.0147  0.6514  0.9422
   11CHTO   C20 4555   5.653   6.051  -0.207  0.0862 -0.5333 -0.0410
   11CHTO   H48 4556   5.590   6.118  -0.268 -0.1783 -0.3431  0.4340
   11CHTO   O19 4557   5.598   6.065  -0.075  0.1956  0.3972  0.4725
   11CHTO   H35 4558   5.639   6.005  -0.015 -1.0633 -0.5638  0.4054
   11CHTO   C21 4559   5.636   5.905  -0.269 -0.0015 -0.2915 -0.2224
   11CHTO   H49 4560   5.704   5.841  -0.213  1.3069  0.9077 -0.3758
   11CHTO    N4 4561   5.500   5.854  -0.263  0.6044  0.3689 -0.0952
   11CHTO   H41 4562   5.425   5.923  -0.297  0.3297  0.3480  0.4638
   11CHTO   H42 4563   5.492   5.759  -0.313  2.3696 -0.0517  0.3813
   11CHTO   C22 4564   5.703   5.904  -0.412  0.3005 -0.7857 -0.8826
   11CHTO   H50 4565   5.637   5.961  -0.478 -0.6545  0.4282  1.0635
   11CHTO   O14 4566   5.839   5.947  -0.399  0.1932  0.1192  0.1754
   11CHTO   C23 4567   5.859   6.084  -0.354 -0.0900  0.1277  0.5878
   11CHTO   H51 4568   5.805   6.150  -0.422 -0.5029  0.3218  1.1049
   11CHTO   C34 4569   6.011   6.102  -0.359 -0.1317  0.1579 -0.2808
   11CHTO   O23 4570   6.048   6.241  -0.380 -0.0833 -0.0875 -0.0725
   11CHTO   H38 4571   6.137   6.237  -0.350 -0.1889 -0.7142  0.1682
   11CHTO   O16 4572   5.706   5.769  -0.464 -0.0282 -0.4175 -0.4651
   11CHTO   C24 4573   5.708   5.762  -0.623 -0.7597 -0.1666  0.5720
   11CHTO   H52 4574   5.694   5.859  -0.671 -0.3462 -0.9357 -1.1373
   11CHTO   C26 4575   5.589   5.673  -0.668  0.4560  0.5784  0.2979
   11CHTO   H54 4576   5.592   5.576  -0.613 -0.5257 -0.0537 -0.7500
   11CHTO   O20 4577   5.474   5.738  -0.620 -0.5273  0.0757  0.0309
   11CHTO   H36 4578   5.438   5.711  -0.538  1.4616 -1.0119  0.5867
   11CHTO   C30 4579   5.586   5.645  -0.819 -0.0698 -0.0211  0.0342
   11CHTO   H58 4580   5.557   5.740  -0.868  2.2175  0.2634 -0.8545
   11CHTO    N6 4581   5.480   5.547  -0.849  0.2757  0.4541 -0.4332
   11CHTO   H45 4582   5.391   5.582  -0.799  1.7196  2.3428  0.8952
   11CHTO   H46 4583   5.460   5.536  -0.955  1.3349 -0.8344 -0.5129
   11CHTO   C33 4584   5.732   5.607  -0.873 -0.1616  0.0795 -0.5539
   11CHTO   H61 4585   5.769   5.507  -0.846 -1.6335 -0.6102 -1.0326
   11CHTO   O18 4586   5.821   5.706  -0.822 -0.0329  0.4579  0.2636
   11CHTO   C28 4587   5.841   5.714  -0.677  0.3114  0.5679 -0.2409
   11CHTO   H56 4588   5.863   5.616  -0.635  0.7056  1.3683  1.4522
   11CHTO   C35 4589   5.965   5.799  -0.650  0.2096 -0.0529  0.2941
   11CHTO   O24 4590   5.980   5.938  -0.691  0.4872  0.6811  0.0701
   11CHTO   H39 4591   5.912   5.983  -0.645 -0.6728 -0.5104 -0.4427
   11CHTO    O9 4592   5.732   5.604  -1.016 -0.3561  0.1859 -0.4202
   11CHTO   C13 4593   5.733   5.752  -1.094 -0.1718  0.3413  0.1518
   11CHTO   H26 4594   5.735   5.830  -1.015  0.2255  2.7343 -2.1331
   11CHTO   C11 4595   5.607   5.773  -1.188  0.4173  0.1790  0.0716
   11CHTO   H24 4596   5.515   5.788  -1.129  1.3812 -0.0611  1.6667
   11CHTO    O8 4597   5.581   5.649  -1.263  0.0668 -0.5474 -0.0355
   11CHTO    H3 4598   5.634   5.647  -1.340  2.1354 -1.0998  1.3519
   11CHTO    C9 4599   5.633   5.898  -1.277  0.1969  0.6539 -0.1357
   11CHTO   H22 4600   5.651   5.981  -1.206 -0.3112 -1.4416  2.5454
   11CHTO    N2 4601   5.520   5.934  -1.364 -0.2551  0.2242 -0.3332
   11CHTO   H10 4602   5.505   5.853  -1.434  0.6019  0.0834 -0.3499
   11CHTO   H11 4603   5.551   6.024  -1.415  0.6204  0.0359 -0.1373
   11CHTO    C7 4604   5.766   5.869  -1.362  0.2590  0.1795 -0.1812
   11CHTO   H20 4605   5.823   5.962  -1.341 -1.6009  2.3101 -3.8821
   11CHTO    O4 4606   5.834   5.754  -1.318 -0.1187 -0.3797 -0.5548
   11CHTO   C14 4607   5.862   5.760  -1.179 -0.0223 -0.0939 -0.1836
   11CHTO   H27 4608   5.912   5.857  -1.159  0.2283 -0.0250 -1.1547
   11CHTO   C18 4609   5.972   5.648  -1.161 -0.7930 -0.2771  0.6178
   11CHTO   O13 4610   6.023   5.634  -1.027 -1.0412  0.2130 -0.1314
   11CHTO    H7 4611   5.951   5.600  -0.977 -1.1137  0.1264 -0.2963
   11CHTO    O2 4612   5.762   5.862  -1.528 -0.0486  0.0686  0.3186
   11CHTO    C1 4613   5.856   5.950  -1.591  0.6491 -0.4713  0.6094
   11CHTO   H14 4614   5.888   6.022  -1.513 -1.9781  1.2886  0.1035
   11CHTO    C2 4615   5.786   6.027  -1.707  0.3692 -0.8921 -0.2740
   11CHTO   H15 4616   5.757   5.956  -1.787  1.7111 -0.7159 -0.9296
   11CHTO    O6 4617   5.666   6.096  -1.673 -0.3536  0.3317 -0.1960
   11CHTO    H1 4618   5.678   6.182  -1.639  1.0774  0.1942 -0.3385
   11CHTO    C3 4619   5.894   6.135  -1.762 -0.1418 -0.2449 -0.1165
   11CHTO   H16 4620   5.912   6.205  -1.678 -0.8426 -0.8095  0.5118
   11CHTO    N1 4621   5.851   6.222  -1.875 -0.1653 -0.1894  0.1395
   11CHTO    H8 4622   5.922   6.245  -1.952  0.3071  0.2255  0.6915
   11CHTO    H9 4623   5.765   6.176  -1.922  0.3424 -0.9121 -0.0908
   11CHTO    C4 4624   6.028   6.066  -1.806 -0.2086  0.0736 -0.1409
   11CHTO   H17 4625   6.012   6.010  -1.898  0.0604  2.0520 -1.4142
   11CHTO    O1 4626   6.075   5.974  -1.708 -0.0530  0.5434  0.4539
   11CHTO    C5 4627   5.974   5.882  -1.656  0.2254  0.4319  0.0526
   11CHTO   H18 4628   5.926   5.825  -1.735 -0.1719  2.2505 -1.0402
   11CHTO   C16 4629   6.053   5.779  -1.560 -0.4411  0.5142  0.3833
   11CHTO   O11 4630   6.173   5.732  -1.625  0.0027 -0.0865  0.2443
   11CHTO    H5 4631   6.231   5.802  -1.647  1.8019 -1.9328 -1.1699
   11CHTO    O3 4632   6.142   6.149  -1.811  0.2422  0.2758  0.4146
   11CHTO    C6 4633   6.248   6.118  -1.915  0.3707 -0.0634 -0.1533
   11CHTO   H19 4634   6.227   6.030  -1.976 -3.0720  0.5588  0.0447
   11CHTO    C8 4635   6.259   6.234  -2.021  0.2989 -0.1259 -0.3070
   11CHTO   H21 4636   6.295   6.323  -1.970  2.8221 -1.5696  0.4810
   11CHTO    O7 4637   6.128   6.266  -2.082  0.1101  0.5805 -0.3825
   11CHTO    H2 4638   6.108   6.201  -2.146 -0.1641 -2.3076  2.5095
   11CHTO   C12 4639   6.371   6.183  -2.128 -0.3343 -0.0608 -0.1307
   11CHTO   H25 4640   6.325   6.092  -2.171 -0.9272  0.4187 -0.5043
   11CHTO    N3 4641   6.386   6.274  -2.243 -0.0473 -0.4682  0.2436
   11CHTO   H12 4642   6.488   6.296  -2.273 -0.8712  1.0363 -1.5561
   11CHTO   H13 4643   6.328   6.239  -2.328 -0.2285  1.8115 -0.6165
   11CHTO   C15 4644   6.503   6.148  -2.057 -0.0138  0.1393 -0.2422
   11CHTO   H28 4645   6.554   6.232  -2.009 -3.3764  1.5767  0.9724
   11CHTO   O10 4646   6.600   6.083  -2.139 -0.3852 -0.3276  0.4657
   11CHTO    H4 4647   6.667   6.035  -2.094 -0.9804 -2.1369 -0.5008
   11CHTO    O5 4648   6.488   6.052  -1.950 -0.2244  0.5167 -0.0417
   11CHTO   C10 4649   6.389   6.097  -1.853 -0.0886  0.6999 -0.4221
   11CHTO   H23 4650   6.410   6.202  -1.835 -2.5503  1.1148  0.1507
   11CHTO   C17 4651   6.395   6.023  -1.716 -0.2686 -0.3534  0.2018
   11CHTO   O12 4652   6.409   5.883  -1.737 -0.4958  0.4289  0.7083
   11CHTO    H6 4653   6.429   5.864  -1.827 -1.7272 -0.3938  0.6093
   12CHTO  H203 4654   5.786   2.980   6.841 -0.9735  1.4774  1.8996
   12CHTO   O82 4655   5.706   2.942   6.812  0.1689  0.3141  0.2441
   12CHTO  C123 4656   5.699   2.795   6.843 -0.1572  0.0408 -0.9159
   12CHTO  H227 4657   5.606   2.754   6.801  0.4916 -0.8617 -1.5020
   12CHTO   O77 4658   5.802   2.723   6.779 -0.5583 -0.4152  0.2289
   12CHTO  C118 4659   5.770   2.584   6.767  0.0530 -0.4281 -0.0011
   12CHTO  H222 4660   5.669   2.576   6.724  0.2773  0.3885 -0.6994
   12CHTO  C125 4661   5.876   2.515   6.670  0.5911  0.0787 -0.2730
   12CHTO   O84 4662   6.007   2.526   6.739  0.4512 -0.0093  0.4375
   12CHTO  H205 4663   6.024   2.453   6.795  0.7395  0.1405  0.5532
   12CHTO  C114 4664   5.765   2.521   6.911  0.1202  0.0866 -0.0784
   12CHTO  H218 4665   5.865   2.522   6.953 -0.0091  0.6048  0.2286
   12CHTO  C116 4666   5.672   2.594   7.012 -0.2572  0.0434 -0.3771
   12CHTO  H220 4667   5.564   2.576   6.993  0.0234 -2.2133  0.0025
   12CHTO   O79 4668   5.699   2.534   7.140  0.1889  0.1118  0.5992
   12CHTO  H201 4669   5.623   2.486   7.165  0.5737  0.4175  2.4002
   12CHTO  C120 4670   5.704   2.751   6.997 -0.2321 -0.1367  0.2763
   12CHTO  H224 4671   5.811   2.768   7.023 -0.0494 -0.0894 -0.4950
   12CHTO   N21 4672   5.614   2.833   7.086 -0.4057  0.2391 -0.2932
   12CHTO  H211 4673   5.675   2.915   7.119  0.6946 -2.2081  4.1292
   12CHTO  H212 4674   5.583   2.772   7.170 -0.7112  1.6537  0.6206
   12CHTO   O75 4675   5.725   2.387   6.894 -1.2160  0.0399 -0.1186
   12CHTO  C112 4676   5.817   2.274   6.958  0.3541  0.1567 -0.2187
   12CHTO  H216 4677   5.843   2.311   7.059 -1.7536  0.5604  0.1973
   12CHTO   O73 4678   5.935   2.257   6.877  0.3111 -0.4145 -0.3888
   12CHTO  C113 4679   6.021   2.142   6.911 -0.6855 -0.3670  0.2714
   12CHTO  H217 4680   6.056   2.157   7.016  0.8098  0.1774 -0.2938
   12CHTO  C124 4681   6.136   2.158   6.814 -0.4318  0.5614  0.4905
   12CHTO   O83 4682   6.089   2.153   6.676  0.4702  0.3734  0.4967
   12CHTO  H204 4683   6.162   2.191   6.631  1.4315 -0.8804  0.9282
   12CHTO  C109 4684   5.941   2.009   6.903 -0.2690  0.1519  0.4546
   12CHTO  H213 4685   5.902   2.003   6.801  2.0153 -4.4004 -0.2623
   12CHTO  C110 4686   5.811   2.024   7.000 -0.0138  0.3420 -0.1021
   12CHTO  H214 4687   5.835   2.037   7.105 -1.7030 -1.3920  0.5232
   12CHTO   O78 4688   5.754   1.891   6.995 -0.0137  0.4655 -1.0413
   12CHTO  H200 4689   5.662   1.908   7.005 -0.4283 -1.5740 -1.2699
   12CHTO  C111 4690   5.728   2.142   6.953  0.2766 -0.2231  0.2720
   12CHTO  H215 4691   5.701   2.133   6.846  0.5973 -1.4595  0.2985
   12CHTO   N19 4692   5.594   2.149   7.019  0.9606 -0.0447  0.1902
   12CHTO  H207 4693   5.597   2.190   7.119  2.6978 -1.9752  0.9752
   12CHTO  H208 4694   5.518   2.187   6.953 -1.4240 -3.1220  1.0268
   12CHTO   O74 4695   6.028   1.894   6.934  1.1014 -0.5006  0.1330
   12CHTO  C115 4696   6.001   1.784   6.836 -0.0081 -0.7731 -0.4970
   12CHTO  H219 4697   5.900   1.796   6.795 -0.4404 -1.4284  0.3656
   12CHTO   O76 4698   6.099   1.797   6.719  0.3684 -0.0377  0.5608
   12CHTO  C122 4699   6.231   1.742   6.752 -0.2554 -0.2235 -0.5516
   12CHTO  H226 4700   6.268   1.800   6.836 -1.6255 -0.0179 -0.0758
   12CHTO  C126 4701   6.322   1.784   6.631 -0.2975 -0.0868 -0.5536
   12CHTO   O85 4702   6.298   1.922   6.586  0.2066 -0.6387 -0.1862
   12CHTO  H206 4703   6.244   1.916   6.509  0.9192 -0.4200 -0.7025
   12CHTO  C121 4704   6.236   1.593   6.804 -0.3649  0.4226  0.4170
   12CHTO  H225 4705   6.284   1.526   6.729 -0.9759  0.2837  0.1458
   12CHTO   O81 4706   6.326   1.581   6.916  0.3727  0.2280  0.0288
   12CHTO  H202 4707   6.295   1.583   7.004  0.1781 -0.8713 -0.0106
   12CHTO  C119 4708   6.094   1.543   6.825  0.0588 -0.1222  0.2646
   12CHTO  H223 4709   6.045   1.548   6.728  0.1273  1.5841  0.3059
   12CHTO  C117 4710   6.002   1.647   6.908  0.6617  0.8981  0.2339
   12CHTO  H221 4711   6.030   1.663   7.012 -0.4223 -1.4479  0.9185
   12CHTO   N20 4712   5.862   1.583   6.920  0.0960  0.0275 -0.2688
   12CHTO  H209 4713   5.879   1.477   6.928 -2.0284 -0.3975 -1.2333
   12CHTO  H210 4714   5.800   1.595   6.833  0.4188  0.3828 -0.4457
   12CHTO   O80 4715   6.089   1.385   6.863  0.2059  0.7019 -0.1879
   12CHTO  C103 4716   6.192   1.322   6.989  0.2633 -0.1849 -0.3926
   12CHTO  H190 4717   6.295   1.349   6.965  0.2902 -0.6548 -0.8164
   12CHTO  C101 4718   6.156   1.361   7.136 -0.1820  0.3707 -0.0232
   12CHTO  H188 4719   6.048   1.371   7.145 -0.0416  1.5257  0.5456
   12CHTO   O68 4720   6.207   1.499   7.168 -0.2163  0.1231  0.1858
   12CHTO  H168 4721   6.294   1.504   7.133 -0.0804  0.6559  0.6029
   12CHTO   C99 4722   6.220   1.257   7.238 -0.4275 -0.7721 -0.0954
   12CHTO  H186 4723   6.330   1.256   7.221 -0.6884 -0.6182 -1.8323
   12CHTO   N17 4724   6.200   1.285   7.384  0.2374 -0.4567 -0.4783
   12CHTO  H174 4725   6.171   1.389   7.392  1.1899 -0.3273  1.7190
   12CHTO  H175 4726   6.287   1.257   7.442 -0.9299 -2.1124  0.5164
   12CHTO   C97 4727   6.172   1.115   7.191  0.0136  0.5192 -0.8306
   12CHTO  H184 4728   6.062   1.108   7.193  0.0783 -0.2623  0.5057
   12CHTO   O64 4729   6.226   1.077   7.066  1.2030  0.0314 -0.0368
   12CHTO  C104 4730   6.176   1.161   6.963  0.1979 -0.2699 -0.0913
   12CHTO  H191 4731   6.070   1.139   6.953  0.2305  0.3991 -2.0729
   12CHTO  C108 4732   6.247   1.108   6.835 -0.5513  0.2310 -0.2398
   12CHTO   O71 4733   6.185   0.980   6.804 -0.6898 -0.3593  0.3078
   12CHTO  H171 4734   6.217   0.915   6.864 -0.9494 -3.2314 -2.5360
   12CHTO   O62 4735   6.216   1.002   7.266  0.3256 -0.5923 -0.2893
   12CHTO   C91 4736   6.155   0.869   7.265  0.2854 -0.4199 -0.0795
   12CHTO  H178 4737   6.105   0.865   7.168  1.0782 -0.7677 -0.4781
   12CHTO   C92 4738   6.052   0.853   7.382  0.0289 -0.3642 -0.3037
   12CHTO  H179 4739   6.104   0.884   7.474 -1.4240  0.4107  0.2648
   12CHTO   O66 4740   5.942   0.945   7.357 -0.4820  0.4906 -0.2602
   12CHTO  H166 4741   5.961   1.027   7.399  0.6192 -0.2385  0.7067
   12CHTO   C93 4742   5.993   0.714   7.400 -0.3319 -0.0838 -0.5418
   12CHTO  H180 4743   5.913   0.705   7.326 -1.1359 -0.5134  0.3701
   12CHTO   N16 4744   5.928   0.692   7.527 -0.5590 -0.0365  0.1276
   12CHTO  H172 4745   5.838   0.751   7.535 -1.2618 -0.9440 -1.0075
   12CHTO  H173 4746   5.998   0.714   7.606 -0.5461  0.2812  0.0275
   12CHTO   C94 4747   6.105   0.593   7.381  0.1132  0.4096 -0.1202
   12CHTO  H181 4748   6.171   0.577   7.466 -0.1126  0.6541  0.1025
   12CHTO   O61 4749   6.188   0.624   7.265 -0.6114  0.2561 -0.4328
   12CHTO   C95 4750   6.257   0.749   7.269 -0.0071  0.0230  0.2477
   12CHTO  H182 4751   6.326   0.756   7.353 -0.7990 -1.2132  1.0265
   12CHTO  C106 4752   6.341   0.754   7.142  0.1734 -0.3549 -0.3661
   12CHTO   O69 4753   6.450   0.841   7.153  0.6108  0.2114  0.0344
   12CHTO  H169 4754   6.500   0.822   7.076 -1.3185 -2.9029 -0.5484
   12CHTO   O63 4755   6.042   0.445   7.345 -0.4694 -0.2282  0.0022
   12CHTO   C96 4756   6.100   0.334   7.409 -0.0032 -0.5565  0.2013
   12CHTO  H183 4757   6.136   0.366   7.507  2.2862 -0.5567 -0.6165
   12CHTO   C98 4758   6.226   0.271   7.340  0.2321 -0.5032 -0.1703
   12CHTO  H185 4759   6.210   0.252   7.233  0.2494 -0.7385 -0.1311
   12CHTO   O67 4760   6.332   0.374   7.346 -0.3792 -0.4342 -0.7883
   12CHTO  H167 4761   6.307   0.459   7.316 -1.7698 -0.9634 -1.1516
   12CHTO  C102 4762   6.279   0.139   7.416  0.3077  0.5132  0.0604
   12CHTO  H189 4763   6.325   0.177   7.508 -2.7210  1.2365  1.3621
   12CHTO   N18 4764   6.385   0.059   7.350  0.3797  0.3904 -0.1976
   12CHTO  H176 4765   6.484   0.062   7.396  1.1361  1.4943 -1.8685
   12CHTO  H177 4766   6.352  -0.042   7.328 -1.2498  1.1356 -1.1529
   12CHTO  C105 4767   6.166   0.049   7.469  0.4963  0.0146  0.1735
   12CHTO  H192 4768   6.135  -0.019   7.389 -0.7776  1.2283 -0.3885
   12CHTO   O65 4769   6.047   0.117   7.513  0.2492  0.1243  0.3318
   12CHTO  C100 4770   5.992   0.217   7.426  1.1934  0.5868  0.4395
   12CHTO  H187 4771   5.966   0.169   7.331  0.2891  2.0554 -0.0581
   12CHTO  C107 4772   5.850   0.262   7.480  0.3145 -0.0763  0.5582
   12CHTO   O70 4773   5.786   0.357   7.392 -0.3146 -0.2412 -0.1420
   12CHTO  H170 4774   5.709   0.394   7.430  0.3822  0.3469  0.7316
   12CHTO   O57 4775   6.219  -0.042   7.581 -0.5038 -0.1192 -0.0343
   12CHTO   C85 4776   6.157  -0.167   7.623 -0.0127  0.5369  0.2658
   12CHTO  H157 4777   6.177  -0.246   7.548 -1.7598  0.8776 -0.5962
   12CHTO   C83 4778   6.003  -0.161   7.628  0.3409  0.2076  0.1175
   12CHTO  H155 4779   5.968  -0.145   7.526  2.0278 -1.4632 -0.7586
   12CHTO   O56 4780   5.956  -0.051   7.705 -0.5700 -0.5510  0.3962
   12CHTO  H135 4781   5.969   0.027   7.654 -0.0440 -1.2125 -0.5028
   12CHTO   C81 4782   5.955  -0.303   7.673 -0.1721  0.2963  0.1338
   12CHTO  H153 4783   6.006  -0.380   7.616  1.1638  1.8390 -0.8273
   12CHTO   N14 4784   5.811  -0.328   7.649  0.2440  0.6575  0.1008
   12CHTO  H141 4785   5.789  -0.419   7.701  0.5837  1.0289  0.9059
   12CHTO  H142 4786   5.756  -0.251   7.699  0.1220  0.4805  0.2427
   12CHTO   C79 4787   6.002  -0.318   7.825  0.7253 -0.3740  0.2996
   12CHTO  H151 4788   5.971  -0.419   7.854 -1.8056  0.4035  0.4514
   12CHTO   O52 4789   6.153  -0.323   7.831 -0.3836  0.4052  0.1427
   12CHTO   C86 4790   6.215  -0.208   7.768  0.4151 -0.3948 -0.3822
   12CHTO  H158 4791   6.207  -0.126   7.843 -0.4945 -1.4228  0.6492
   12CHTO   C90 4792   6.363  -0.237   7.755  1.1684 -0.0892  0.2551
   12CHTO   O60 4793   6.425  -0.210   7.884  0.1435  0.6519  0.0956
   12CHTO  H138 4794   6.433  -0.117   7.894 -0.0660  0.6878 -0.0549
   12CHTO   O50 4795   5.948  -0.223   7.921 -0.3872 -0.1858  0.3964
   12CHTO   C73 4796   5.864  -0.195   8.033 -0.1640  0.9143  0.1305
   12CHTO  H145 4797   5.762  -0.233   8.018  0.7779 -1.0939 -1.4122
   12CHTO   C74 4798   5.851  -0.033   8.052  0.5607  0.6416  0.7161
   12CHTO  H146 4799   5.819   0.013   7.958 -3.0311 -1.2054  0.9664
   12CHTO   O54 4800   5.747  -0.021   8.149  0.0951 -1.0053 -0.1196
   12CHTO  H133 4801   5.684  -0.090   8.156 -1.3060  0.3621  1.3214
   12CHTO   C75 4802   5.985   0.026   8.103 -0.0091 -0.0755  0.0791
   12CHTO  H147 4803   6.062   0.011   8.026  0.5224  2.4336  0.0808
   12CHTO   N13 4804   5.979   0.171   8.121 -0.7427  0.2478  0.0443
   12CHTO  H139 4805   5.909   0.200   8.198 -0.2400  0.6235  0.3626
   12CHTO  H140 4806   5.951   0.225   8.032 -0.2738 -0.6133 -0.6246
   12CHTO   C76 4807   6.034  -0.046   8.237  0.6425  0.3392  0.1595
   12CHTO  H148 4808   5.960  -0.038   8.317 -1.4527 -0.9216 -1.6069
   12CHTO   O49 4809   6.045  -0.192   8.207 -0.0703 -0.2548 -0.3073
   12CHTO   C77 4810   5.919  -0.253   8.166 -0.1615  0.2198  0.2861
   12CHTO  H149 4811   5.853  -0.234   8.250 -0.3249  1.0621 -0.0256
   12CHTO   C88 4812   5.939  -0.405   8.159 -0.6158 -0.6742 -0.1950
   12CHTO   O58 4813   5.920  -0.456   8.282  0.0354  0.2088  0.5958
   12CHTO  H136 4814   5.959  -0.541   8.273  0.5226  0.3689  1.1687
   12CHTO   O51 4815   6.190  -0.001   8.288 -0.2045  0.0110 -0.1491
   12CHTO   C78 4816   6.281  -0.106   8.366 -0.1090 -0.1160  1.1827
   12CHTO  H150 4817   6.272  -0.207   8.321  0.8980  1.6378 -3.2028
   12CHTO   C80 4818   6.240  -0.110   8.518  0.4906 -0.4635  0.0982
   12CHTO  H152 4819   6.232  -0.003   8.548  0.1407 -0.5995  0.4954
   12CHTO   O55 4820   6.104  -0.159   8.532  0.3544  0.0309 -0.1506
   12CHTO  H134 4821   6.098  -0.249   8.505  0.3066 -0.3253  1.0117
   12CHTO   C84 4822   6.343  -0.190   8.607 -0.2952  0.2386 -0.7237
   12CHTO  H156 4823   6.334  -0.297   8.588 -1.6178  0.7026 -2.8930
   12CHTO   N15 4824   6.305  -0.173   8.753  0.4422  0.0637 -0.2509
   12CHTO  H143 4825   6.311  -0.071   8.785 -0.7443  0.1203 -0.1698
   12CHTO  H144 4826   6.373  -0.233   8.810  0.2462  1.1076  1.1190
   12CHTO   C87 4827   6.484  -0.141   8.565  0.0561  0.1754 -0.2892
   12CHTO  H159 4828   6.490  -0.039   8.605  0.4441  0.1335 -0.2359
   12CHTO   O53 4829   6.515  -0.156   8.432  0.1347 -0.1247 -0.0813
   12CHTO   C82 4830   6.431  -0.071   8.356 -0.2203 -0.4379 -0.4182
   12CHTO  H154 4831   6.448   0.034   8.379  1.2663 -0.4144 -1.5409
   12CHTO   C89 4832   6.474  -0.087   8.211  0.4177  0.5860 -0.2822
   12CHTO   O59 4833   6.437   0.017   8.121 -0.9488  0.0722 -0.2038
   12CHTO  H137 4834   6.370   0.071   8.160 -2.0202 -1.0648 -0.4377
   12CHTO   O45 4835   6.593  -0.218   8.659 -0.4887  0.4755 -0.2257
   12CHTO   C67 4836   6.654  -0.335   8.601 -0.1670  0.6668 -0.0805
   12CHTO  H124 4837   6.577  -0.396   8.555  0.0363  0.1062  0.3131
   12CHTO   C65 4838   6.761  -0.304   8.495 -0.4119  0.0091  0.1775
   12CHTO  H122 4839   6.733  -0.221   8.429 -0.5419 -0.2040 -0.0370
   12CHTO   O44 4840   6.776  -0.428   8.416  0.0511  0.0231 -0.3972
   12CHTO  H102 4841   6.795  -0.502   8.471  0.6555  0.5926  0.1711
   12CHTO   C63 4842   6.901  -0.263   8.564  0.5320 -0.2366  0.3545
   12CHTO  H120 4843   6.884  -0.180   8.633  2.4126 -0.2812  0.8971
   12CHTO   N11 4844   7.007  -0.198   8.480  0.2665 -0.4492  0.0666
   12CHTO  H108 4845   7.090  -0.165   8.539 -0.4171 -0.1634  0.8741
   12CHTO  H109 4846   6.964  -0.131   8.409  2.7775 -0.7789 -1.8201
   12CHTO   C61 4847   6.958  -0.369   8.657  0.3592  0.7447  0.5562
   12CHTO  H118 4848   7.030  -0.327   8.730 -1.3997  0.6926  2.3577
   12CHTO   O40 4849   6.855  -0.424   8.737  0.1729  0.0293  0.1746
   12CHTO   C68 4850   6.712  -0.416   8.726 -0.0777 -0.0613 -0.7578
   12CHTO  H125 4851   6.675  -0.363   8.816  1.0327 -2.1266  0.9616
   12CHTO   C72 4852   6.656  -0.555   8.734  0.0889  0.3752  0.4159
   12CHTO   O48 4853   6.512  -0.557   8.716 -0.6440 -0.0838 -0.9595
   12CHTO  H105 4854   6.473  -0.592   8.794 -1.9938 -1.3893 -2.1874
   12CHTO   O38 4855   7.026  -0.474   8.578 -0.3614 -0.2125 -0.6653
   12CHTO   C55 4856   7.140  -0.540   8.648  0.3157  0.3264  0.3421
   12CHTO  H112 4857   7.119  -0.556   8.755 -1.7162 -3.2088 -0.5353
   12CHTO   C56 4858   7.276  -0.469   8.627 -0.3195 -0.2587 -1.1076
   12CHTO  H113 4859   7.296  -0.454   8.520 -1.2253 -0.7464 -1.3534
   12CHTO   O42 4860   7.273  -0.333   8.671  0.1098 -0.1610  0.0472
   12CHTO  H100 4861   7.361  -0.302   8.672  0.7709 -1.9984  1.7831
   12CHTO   C57 4862   7.395  -0.534   8.699 -0.3553 -0.4256 -0.8662
   12CHTO  H114 4863   7.373  -0.533   8.806 -1.4777  1.1020 -1.1106
   12CHTO   N10 4864   7.528  -0.470   8.683  0.1696  0.3974 -0.0627
   12CHTO  H106 4865   7.533  -0.397   8.762 -3.0928  0.1999  0.4281
   12CHTO  H107 4866   7.609  -0.540   8.690 -0.4088 -0.4072 -1.1255
   12CHTO   C58 4867   7.390  -0.685   8.643 -0.2805  0.6188  0.2368
   12CHTO  H115 4868   7.417  -0.691   8.536 -1.7781 -1.0090 -0.0636
   12CHTO   O37 4869   7.259  -0.745   8.666  0.3365  0.9773  0.2704
   12CHTO   C59 4870   7.155  -0.689   8.594  0.0209  0.2971  0.4274
   12CHTO  H116 4871   7.185  -0.683   8.490 -1.9750  0.7994 -0.1196
   12CHTO   C70 4872   7.027  -0.766   8.617 -0.4978  0.0538  0.1830
   12CHTO   O46 4873   6.962  -0.752   8.746 -0.4639 -0.2586  0.1498
   12CHTO  H103 4874   6.880  -0.797   8.737 -0.1167 -0.5956 -1.3693
   12CHTO   O39 4875   7.489  -0.782   8.727  0.0384 -0.2972 -0.4684
   12CHTO   C60 4876   7.546  -0.890   8.652  0.4908  0.1741 -0.0225
   12CHTO  H117 4877   7.481  -0.917   8.569  0.8130  1.4868 -0.7188
   12CHTO   C62 4878   7.684  -0.852   8.591  0.3802 -0.5755 -0.0130
   12CHTO  H119 4879   7.669  -0.761   8.529 -0.8219 -1.5026 -1.1061
   12CHTO   O43 4880   7.772  -0.838   8.707 -0.3407  0.5890  0.3592
   12CHTO  H101 4881   7.862  -0.853   8.685 -0.3797 -0.1151  0.6588
   12CHTO   C66 4882   7.734  -0.972   8.493  0.6266 -0.7368 -0.1122
   12CHTO  H123 4883   7.661  -0.985   8.413  1.3963 -0.1546 -0.9137
   12CHTO   N12 4884   7.853  -0.928   8.419  0.2803  0.5282  0.2405
   12CHTO  H110 4885   7.836  -0.855   8.341  2.4346  1.6176  0.7485
   12CHTO  H111 4886   7.920  -0.884   8.491 -2.0485  0.5135  2.4778
   12CHTO   C69 4887   7.765  -1.109   8.566  0.1591  0.9514  0.2319
   12CHTO  H126 4888   7.842  -1.109   8.646 -1.5221  1.3280  1.8694
   12CHTO   O41 4889   7.623  -1.156   8.651 -0.7156 -0.1361 -0.7895
   12CHTO   C64 4890   7.560  -1.019   8.736 -0.2462 -0.4966 -0.1995
   12CHTO  H121 4891   7.621  -0.997   8.826 -1.2985  0.1324  0.3728
   12CHTO   C71 4892   7.424  -1.068   8.804 -0.2379 -0.2924 -0.3077
   12CHTO   O47 4893   7.465  -1.149   8.911  0.3346  0.0432 -0.4609
   12CHTO  H104 4894   7.491  -1.087   8.976 -1.2925 -0.2060  0.4801
   12CHTO   O34 4895   7.795  -1.216   8.475  1.0014 -0.1023 -0.2369
   12CHTO   C49 4896   7.903  -1.338   8.489  0.5640 -0.4110  0.2252
   12CHTO   H91 4897   8.004  -1.297   8.490  0.9314 -1.2812  0.2308
   12CHTO   C47 4898   7.874  -1.445   8.380 -0.0538 -1.2725 -0.2121
   12CHTO   H89 4899   7.955  -1.521   8.384 -0.5630 -2.0111 -2.8474
   12CHTO   O33 4900   7.885  -1.375   8.251 -0.2964  0.3740  0.3913
   12CHTO   H70 4901   7.872  -1.440   8.185  0.2395  1.9098 -1.2638
   12CHTO   C45 4902   7.735  -1.515   8.403  0.3762 -0.0477  0.2413
   12CHTO   H87 4903   7.660  -1.460   8.345  1.2601  1.2361  0.3007
   12CHTO    N8 4904   7.743  -1.658   8.356 -0.3659 -0.0894 -0.2314
   12CHTO   H75 4905   7.653  -1.712   8.383 -0.4569  1.3792  2.5872
   12CHTO   H76 4906   7.767  -1.650   8.251  1.4002  1.5447  0.2585
   12CHTO   C43 4907   7.676  -1.486   8.555  0.1747  0.6503 -0.1068
   12CHTO   H85 4908   7.632  -1.386   8.549 -2.4010 -0.5618 -2.6646
   12CHTO   O29 4909   7.785  -1.497   8.648  0.1732 -0.2599 -0.6517
   12CHTO   C50 4910   7.889  -1.400   8.630 -0.3512 -0.4443  0.2140
   12CHTO   H92 4911   7.874  -1.322   8.706  0.7277 -0.8261  0.8257
   12CHTO   C54 4912   8.012  -1.485   8.678  0.4200 -0.2574 -0.2426
   12CHTO   O36 4913   8.123  -1.395   8.702  0.2070  0.3099  0.2101
   12CHTO   H72 4914   8.179  -1.438   8.764 -0.3225 -0.0857  0.4187
   12CHTO   O27 4915   7.569  -1.571   8.591 -0.3297 -0.2495 -0.0045
   12CHTO   C37 4916   7.440  -1.584   8.646 -0.8215  0.2082 -0.4994
   12CHTO   H79 4917   7.419  -1.691   8.654  2.2393 -0.5121 -1.4417
   12CHTO   C38 4918   7.435  -1.521   8.796 -0.5601  0.2473 -0.3609
   12CHTO   H80 4919   7.472  -1.417   8.793 -1.4346  0.5521 -0.7403
   12CHTO   O31 4920   7.520  -1.599   8.881  0.0556 -0.5018 -0.1251
   12CHTO   H68 4921   7.516  -1.569   8.970 -1.5091  0.6805 -0.5695
   12CHTO   C39 4922   7.287  -1.514   8.848 -0.2742  0.8365 -0.5571
   12CHTO   H81 4923   7.257  -1.617   8.868  1.8537  0.5870  1.5936
   12CHTO    N7 4924   7.280  -1.447   8.981  0.3417  0.2986  0.6308
   12CHTO   H73 4925   7.200  -1.480   9.045  0.2190  4.6282  2.8632
   12CHTO   H74 4926   7.276  -1.339   8.972  2.3989  0.2952 -0.6131
   12CHTO   C40 4927   7.197  -1.440   8.742  0.5783  0.0011  0.2330
   12CHTO   H82 4928   7.230  -1.336   8.738  1.9885 -0.4309  0.4648
   12CHTO   O26 4929   7.201  -1.500   8.612 -0.1531 -0.2915 -0.0866
   12CHTO   C41 4930   7.341  -1.506   8.556  0.2951  0.0163 -0.5226
   12CHTO   H83 4931   7.380  -1.404   8.539  0.3268  0.0689 -0.1348
   12CHTO   C52 4932   7.330  -1.575   8.413  0.0433 -0.0356  0.5491
   12CHTO   O35 4933   7.229  -1.508   8.335 -0.4204  0.2010 -0.2944
   12CHTO   H71 4934   7.268  -1.431   8.298  0.0412  0.0935 -0.0435
   12CHTO   O28 4935   7.056  -1.441   8.774 -0.1889 -0.3174 -0.3285
   12CHTO   C42 4936   6.952  -1.348   8.717  0.8701  1.3039 -0.4705
   12CHTO   H84 4937   6.857  -1.386   8.755  1.1628  1.2084  0.1789
   12CHTO   C44 4938   6.942  -1.356   8.563  1.0598 -0.1580 -0.1165
   12CHTO   H86 4939   7.041  -1.342   8.519  0.6942 -1.6666 -1.4252
   12CHTO   O32 4940   6.901  -1.488   8.540  0.1278  0.0569 -0.2298
   12CHTO   H69 4941   6.812  -1.496   8.567  0.1818  1.7314  0.5347
   12CHTO   C48 4942   6.830  -1.251   8.504  0.3808 -0.0564 -0.1182
   12CHTO   H90 4943   6.731  -1.275   8.542  0.5072  0.9235  0.8539
   12CHTO    N9 4944   6.822  -1.277   8.355 -0.4572 -0.3520 -0.8362
   12CHTO   H77 4945   6.797  -1.381   8.347 -0.3210 -0.4185 -0.3870
   12CHTO   H78 4946   6.918  -1.265   8.308  0.0215  0.6553  0.3602
   12CHTO   C51 4947   6.865  -1.103   8.547  0.0617 -0.0799  0.1566
   12CHTO   H93 4948   6.962  -1.070   8.511  0.7275  0.5335  2.3798
   12CHTO   O30 4949   6.861  -1.106   8.692 -0.8265  0.1324  0.3103
   12CHTO   C46 4950   6.970  -1.204   8.763  0.4452  0.0594  0.1262
   12CHTO   H88 4951   7.074  -1.183   8.739  0.4432  0.2732  0.3012
   12CHTO   C53 4952   6.961  -1.208   8.909  0.9554  0.8054 -0.3304
   12CHTO   O72 4953   6.814  -1.219   8.944  0.5690  0.3452 -0.7286
   12CHTO  H199 4954   6.804  -1.203   9.036  1.8887  0.3045 -0.5669
   12CHTO   O22 4955   6.769  -1.002   8.512 -0.2466  0.4053  0.4469
   12CHTO   C31 4956   6.631  -0.995   8.512  0.1763  0.3475  0.6208
   12CHTO   H59 4957   6.583  -1.092   8.488 -1.7942  1.8752 -1.7311
   12CHTO   C29 4958   6.574  -0.947   8.654  0.1239  0.3767  0.5667
   12CHTO   H57 4959   6.629  -0.855   8.680  0.5293  0.4991 -0.6689
   12CHTO   O21 4960   6.602  -1.048   8.752 -0.3796  0.3383  0.2823
   12CHTO   H37 4961   6.629  -1.005   8.831  1.8393 -0.0817 -0.2084
   12CHTO   C27 4962   6.416  -0.912   8.638  0.4555  0.5555 -0.0082
   12CHTO   H55 4963   6.363  -1.007   8.620  1.3429 -0.2446  1.5868
   12CHTO    N5 4964   6.372  -0.860   8.769  0.4457  0.4985 -0.2889
   12CHTO   H43 4965   6.266  -0.847   8.786  0.6150  1.6609 -0.1095
   12CHTO   H44 4966   6.414  -0.916   8.851 -0.0600 -0.7418 -0.8550
   12CHTO   C25 4967   6.398  -0.812   8.518 -0.2610 -0.3374  0.4632
   12CHTO   H53 4968   6.471  -0.731   8.535 -0.4468 -0.4341  1.7921
   12CHTO   O17 4969   6.440  -0.887   8.404 -0.2037 -0.2208  0.3018
   12CHTO   C32 4970   6.583  -0.900   8.399 -0.1013  0.7365  0.3767
   12CHTO   H60 4971   6.624  -0.800   8.414  0.6193 -0.1474  5.0124
   12CHTO   C36 4972   6.624  -0.947   8.260  0.2696  0.8444  0.1755
   12CHTO   O25 4973   6.556  -0.866   8.163 -0.6098 -0.0753 -0.1509
   12CHTO   H40 4974   6.463  -0.881   8.165 -0.4194 -1.6698 -2.3719
   12CHTO   O15 4975   6.244  -0.759   8.494 -0.5552 -0.0841 -0.2839
   12CHTO   C19 4976   6.211  -0.689   8.370 -0.5046 -0.2243 -0.5471
   12CHTO   H47 4977   6.116  -0.636   8.387 -0.7253 -0.7648 -0.0850
   12CHTO   C20 4978   6.317  -0.582   8.319 -0.0705 -0.1479 -0.3187
   12CHTO   H48 4979   6.416  -0.626   8.296  0.8172  1.0537  1.1216
   12CHTO   O19 4980   6.337  -0.482   8.423  0.0841  0.9770 -0.1867
   12CHTO   H35 4981   6.419  -0.438   8.412 -0.5975  2.4968  0.7528
   12CHTO   C21 4982   6.268  -0.514   8.183 -0.3815 -0.1585 -0.3354
   12CHTO   H49 4983   6.202  -0.431   8.207  1.0444  0.3062  2.0538
   12CHTO    N4 4984   6.376  -0.440   8.119 -0.1605 -0.3491 -0.2555
   12CHTO   H41 4985   6.471  -0.446   8.171 -0.4284  3.6961  0.9138
   12CHTO   H42 4986   6.379  -0.443   8.011  0.6519 -2.2229 -0.2014
   12CHTO   C22 4987   6.212  -0.617   8.085  0.1888  0.3158  0.2517
   12CHTO   H50 4988   6.293  -0.671   8.036 -0.5665 -0.8838  0.3130
   12CHTO   O14 4989   6.131  -0.719   8.143 -0.0070 -0.5746 -0.0323
   12CHTO   C23 4990   6.192  -0.788   8.253 -0.0026  0.2692  0.3452
   12CHTO   H51 4991   6.286  -0.831   8.214 -0.5049 -1.4621  0.9833
   12CHTO   C34 4992   6.092  -0.905   8.273  1.0802 -0.5028  0.1349
   12CHTO   O23 4993   6.137  -0.991   8.377 -0.3368  0.2096  0.0419
   12CHTO   H38 4994   6.063  -1.027   8.423 -0.8195 -1.6431 -2.0891
   12CHTO   O16 4995   6.128  -0.565   7.973 -0.5348  0.5396  0.4466
   12CHTO   C24 4996   6.138  -0.695   7.843 -0.3905  0.0227 -0.1271
   12CHTO   H52 4997   6.172  -0.791   7.883  0.2138 -0.1509 -1.0527
   12CHTO   C26 4998   6.226  -0.646   7.725  0.0332  0.1884 -0.2124
   12CHTO   H54 4999   6.183  -0.549   7.692  1.8117  0.7036 -1.0834
   12CHTO   O20 5000   6.358  -0.612   7.777  0.2121 -0.1349 -0.2642
   12CHTO   H36 5001   6.426  -0.675   7.760  0.1190 -0.3602  0.1876
   12CHTO   C30 5002   6.234  -0.749   7.611 -0.1470 -0.4080  0.1050
   12CHTO   H58 5003   6.275  -0.839   7.658 -1.4772  0.1732  2.4137
   12CHTO    N6 5004   6.328  -0.708   7.499 -0.0479 -0.0936  0.9282
   12CHTO   H45 5005   6.268  -0.687   7.412 -0.1344 -1.0519  0.7519
   12CHTO   H46 5006   6.384  -0.618   7.518 -0.8308  0.7578 -0.6657
   12CHTO   C33 5007   6.090  -0.776   7.563  0.7007 -0.5890  0.1609
   12CHTO   H61 5008   6.056  -0.680   7.521 -0.6945 -1.2928 -0.3521
   12CHTO   O18 5009   6.000  -0.809   7.667  0.8120  0.4502 -0.2865
   12CHTO   C28 5010   5.995  -0.721   7.781 -0.1638 -0.3764 -0.8234
   12CHTO   H56 5011   5.944  -0.628   7.759  0.4377  0.2358  0.3308
   12CHTO   C35 5012   5.902  -0.792   7.887  0.1896 -0.4820 -0.1358
   12CHTO   O24 5013   5.781  -0.850   7.819  0.1488 -0.1791  0.4833
   12CHTO   H39 5014   5.726  -0.872   7.892 -1.2176  2.3435  0.2738
   12CHTO    O9 5015   6.076  -0.870   7.454  0.0479  0.0007 -0.1734
   12CHTO   C13 5016   6.077  -1.013   7.505 -0.1445 -0.0194  0.4636
   12CHTO   H26 5017   6.111  -1.009   7.611 -2.0962  1.9297  1.0557
   12CHTO   C11 5018   6.179  -1.094   7.411  0.3606 -0.6261 -0.6400
   12CHTO   H24 5019   6.279  -1.048   7.414  0.4984 -1.0117  2.1404
   12CHTO    O8 5020   6.130  -1.104   7.278  0.1393 -0.3199  0.6996
   12CHTO    H3 5021   6.201  -1.126   7.221  0.5441  2.9570 -0.1374
   12CHTO    C9 5022   6.195  -1.235   7.479  0.0867 -0.3782  0.2366
   12CHTO   H22 5023   6.209  -1.214   7.586 -1.5736 -0.9286  0.5778
   12CHTO    N2 5024   6.309  -1.315   7.421 -0.1052 -0.0265 -0.7968
   12CHTO   H10 5025   6.319  -1.417   7.453 -1.1020 -0.4392 -1.7918
   12CHTO   H11 5026   6.404  -1.264   7.433  0.3247 -0.8179 -0.7835
   12CHTO    C7 5027   6.053  -1.303   7.470  0.4385  0.0399 -0.2518
   12CHTO   H20 5028   6.073  -1.397   7.526  1.5193  0.4458  0.0652
   12CHTO    O4 5029   5.941  -1.224   7.529 -0.7499  0.2155 -0.4447
   12CHTO   C14 5030   5.931  -1.081   7.505 -0.3066  0.1814  0.1128
   12CHTO   H27 5031   5.869  -1.043   7.590 -0.8468  1.2127 -0.7312
   12CHTO   C18 5032   5.847  -1.054   7.374  0.2052  0.3893 -0.2524
   12CHTO   O13 5033   5.808  -0.916   7.383 -0.1652 -0.0986  0.0617
   12CHTO    H7 5034   5.728  -0.897   7.429  0.8569  2.0029  1.0077
   12CHTO    O2 5035   6.003  -1.351   7.316  0.3826  0.1702  0.6720
   12CHTO    C1 5036   5.955  -1.482   7.303 -0.8454  0.2565  0.0149
   12CHTO   H14 5037   5.919  -1.515   7.403 -0.4026 -0.6876 -0.1313
   12CHTO    C2 5038   6.070  -1.594   7.253 -0.7112  0.0956 -0.5790
   12CHTO   H15 5039   6.104  -1.560   7.154  1.7608  0.0883  0.2244
   12CHTO    O6 5040   6.174  -1.586   7.349  0.4710  0.0156  0.0732
   12CHTO    H1 5041   6.252  -1.563   7.302  0.3595 -1.0230 -0.6502
   12CHTO    C3 5042   5.994  -1.733   7.245 -0.9775 -0.5468  0.2929
   12CHTO   H16 5043   5.961  -1.769   7.344 -1.4939 -2.8322 -0.6852
   12CHTO    N1 5044   6.092  -1.834   7.198 -1.1805 -0.2113  0.5978
   12CHTO    H8 5045   6.147  -1.816   7.107  0.7365 -1.0999  1.5505
   12CHTO    H9 5046   6.162  -1.863   7.275 -2.3132 -0.3578  1.5890
   12CHTO    C4 5047   5.867  -1.722   7.152 -0.0174 -0.4211 -0.7649
   12CHTO   H17 5048   5.902  -1.705   7.050  5.1514 -3.6572  0.2403
   12CHTO    O1 5049   5.780  -1.619   7.202  0.4541  0.2221  0.6049
   12CHTO    C5 5050   5.839  -1.483   7.207 -0.3702 -0.1427 -0.0512
   12CHTO   H18 5051   5.883  -1.463   7.109 -0.3924 -1.2649 -0.2967
   12CHTO   C16 5052   5.721  -1.383   7.228 -0.3686  0.0217 -0.3900
   12CHTO   O11 5053   5.635  -1.379   7.115 -0.0951 -0.3038 -0.4491
   12CHTO    H5 5054   5.586  -1.457   7.099  0.4436 -1.0068  1.1434
   12CHTO    O3 5055   5.794  -1.849   7.163 -0.6484  0.1029 -0.0086
   12CHTO    C6 5056   5.702  -1.880   7.051  0.0002  0.3795 -0.0266
   12CHTO   H19 5057   5.693  -1.802   6.975  0.5615  0.0805 -0.4020
   12CHTO    C8 5058   5.749  -2.008   6.965 -0.1786 -0.5835 -0.1353
   12CHTO   H21 5059   5.772  -2.091   7.032  2.0702 -0.9585 -1.3035
   12CHTO    O7 5060   5.870  -1.974   6.908 -0.1697  0.0047  0.2582
   12CHTO    H2 5061   5.901  -2.044   6.853 -0.2059  1.6254 -1.9135
   12CHTO   C12 5062   5.645  -2.056   6.858 -0.2777  0.2804 -0.2769
   12CHTO   H25 5063   5.621  -1.976   6.784 -3.1840  0.0737  0.3743
   12CHTO    N3 5064   5.689  -2.171   6.777 -0.2389  0.0978  0.1078
   12CHTO   H12 5065   5.696  -2.257   6.842  0.0555  0.4262  0.5159
   12CHTO   H13 5066   5.630  -2.193   6.690  0.1760  0.5182 -0.2813
   12CHTO   C15 5067   5.511  -2.079   6.937 -0.2324  0.3116  0.0866
   12CHTO   H28 5068   5.524  -2.156   7.013  0.1046 -0.6274 -0.9149
   12CHTO   O10 5069   5.384  -2.121   6.834 -0.0323  0.3818  0.4957
   12CHTO    H4 5070   5.390  -2.056   6.766  0.8783  1.7327  1.8336
   12CHTO    O5 5071   5.476  -1.952   6.995 -0.2582  0.4187  0.0391
   12CHTO   C10 5072   5.557  -1.904   7.106 -0.2565  0.4416 -0.4533
   12CHTO   H23 5073   5.571  -1.977   7.185 -0.5646  0.5526 -0.2957
   12CHTO   C17 5074   5.488  -1.779   7.159  0.1587 -0.2267 -0.3951
   12CHTO   O12 5075   5.352  -1.806   7.196  0.2450 -0.2585 -0.2292
   12CHTO    H6 5076   5.349  -1.883   7.249 -0.4055  0.3473  0.6255
   13CHTO  H203 5077   7.081   5.168   3.203 -2.4604 -0.1010 -0.1804
   13CHTO   O82 5078   7.062   5.205   3.287  0.2014  0.0333  0.3996
   13CHTO  C123 5079   7.012   5.344   3.277  0.5311  1.2979  0.0022
   13CHTO  H227 5080   7.082   5.398   3.212  2.0594 -0.9772 -0.2793
   13CHTO   O77 5081   6.879   5.335   3.209  0.2755 -0.1458  0.2083
   13CHTO  C118 5082   6.810   5.463   3.191  0.0034  0.1831 -0.1717
   13CHTO  H222 5083   6.862   5.519   3.111  1.0165 -0.9789 -0.3345
   13CHTO  C125 5084   6.668   5.437   3.147  0.5910 -0.2155  0.1121
   13CHTO   O84 5085   6.650   5.366   3.020 -0.2963 -0.0038  0.4443
   13CHTO  H205 5086   6.559   5.369   2.999 -0.2119 -0.0398  0.0713
   13CHTO  C114 5087   6.809   5.555   3.317  0.3503  0.8883 -0.3855
   13CHTO  H218 5088   6.743   5.512   3.392  0.9894  0.3854 -0.1098
   13CHTO  C116 5089   6.948   5.568   3.382 -0.1046 -0.3170  0.8701
   13CHTO  H220 5090   7.018   5.620   3.313  1.2596  0.1938  2.6188
   13CHTO   O79 5091   6.943   5.655   3.497  0.2463  0.0979  0.2609
   13CHTO  H201 5092   6.951   5.747   3.479  0.8939  0.2893  1.4472
   13CHTO  C120 5093   7.010   5.421   3.412  0.1903  0.4603 -0.3786
   13CHTO  H224 5094   6.952   5.369   3.491  1.6134 -0.9920 -0.2650
   13CHTO   N21 5095   7.151   5.447   3.464 -0.5138 -0.2287 -0.0475
   13CHTO  H211 5096   7.225   5.441   3.386 -1.6271  2.1394 -1.3475
   13CHTO  H212 5097   7.178   5.376   3.540 -1.3710 -0.1859  0.3053
   13CHTO   O75 5098   6.763   5.682   3.267  0.0739  0.1521 -0.0650
   13CHTO  C112 5099   6.686   5.786   3.379  0.0916 -0.7649  0.2492
   13CHTO  H216 5100   6.762   5.825   3.449 -1.3442  0.2438  1.2680
   13CHTO   O73 5101   6.588   5.711   3.444  0.1229  0.4796  0.3877
   13CHTO  C113 5102   6.511   5.782   3.547  0.2833  0.2472  0.2736
   13CHTO  H217 5103   6.584   5.804   3.627  0.4143 -2.4731  0.9533
   13CHTO  C124 5104   6.428   5.678   3.617 -0.2192  0.6396 -0.6454
   13CHTO   O83 5105   6.501   5.568   3.671  0.5076 -0.0683 -0.0025
   13CHTO  H204 5106   6.499   5.568   3.765 -0.3239 -1.4118  0.0028
   13CHTO  C109 5107   6.440   5.904   3.493  0.1510 -0.6252 -0.1583
   13CHTO  H213 5108   6.356   5.868   3.431  0.1318 -1.5967  0.4150
   13CHTO  C110 5109   6.538   5.992   3.403  0.6610 -0.6287 -0.0444
   13CHTO  H214 5110   6.612   6.033   3.471  0.9730  0.2237 -0.8922
   13CHTO   O78 5111   6.466   6.103   3.349 -0.3684 -0.0645 -0.9070
   13CHTO  H200 5112   6.521   6.159   3.298 -0.0862  1.8206  1.3835
   13CHTO  C111 5113   6.612   5.901   3.300 -0.4484  0.6638  0.3707
   13CHTO  H215 5114   6.539   5.849   3.236 -0.3757 -0.6547  1.3361
   13CHTO   N19 5115   6.714   5.972   3.216 -0.5427 -0.0823 -0.2140
   13CHTO  H207 5116   6.785   6.025   3.279 -0.7106 -1.1558  0.9038
   13CHTO  H208 5117   6.756   5.896   3.153 -0.3258  1.3967 -1.8983
   13CHTO   O74 5118   6.393   5.991   3.605  0.7402  0.0833  0.4062
   13CHTO  C115 5119   6.242   5.963   3.691 -0.3861  0.3649 -0.3567
   13CHTO  H219 5120   6.176   5.896   3.637 -0.3470 -0.0368  0.0903
   13CHTO   O76 5121   6.272   5.890   3.842 -0.5313  0.2705  0.2973
   13CHTO  C122 5122   6.148   5.879   3.917 -0.4229 -0.1344 -0.4695
   13CHTO  H226 5123   6.187   5.842   4.012 -0.3371  1.8401  0.2971
   13CHTO  C126 5124   6.065   5.763   3.858 -0.0055  0.4511 -0.0050
   13CHTO   O85 5125   6.116   5.633   3.877  0.1288 -0.4815 -0.2698
   13CHTO  H206 5126   6.055   5.565   3.896 -0.2591 -0.5417 -1.6385
   13CHTO  C121 5127   6.084   6.026   3.931  0.5432  0.0705 -0.9203
   13CHTO  H225 5128   5.989   6.017   3.987 -0.6746 -0.9051 -3.0858
   13CHTO   O81 5129   6.171   6.114   4.011 -0.2439  0.4625 -0.0575
   13CHTO  H202 5130   6.158   6.085   4.099  0.2832 -1.3223 -0.5596
   13CHTO  C119 5131   6.050   6.093   3.789  0.3798 -0.2156 -0.2137
   13CHTO  H223 5132   5.975   6.024   3.751 -0.5593 -0.0414  1.2660
   13CHTO  C117 5133   6.178   6.105   3.695  0.1225 -0.2280 -0.1731
   13CHTO  H221 5134   6.257   6.177   3.717  0.1304  0.3346 -1.9313
   13CHTO   N20 5135   6.134   6.157   3.557  0.2233  0.5919 -0.3504
   13CHTO  H209 5136   6.216   6.192   3.496 -0.1770  2.3340  0.0864
   13CHTO  H210 5137   6.070   6.091   3.501 -0.4969  1.9432 -1.1421
   13CHTO   O80 5138   5.958   6.255   3.800  0.1947 -0.2246 -0.6763
   13CHTO  C103 5139   5.808   6.262   3.786 -0.0372  0.3055  0.0846
   13CHTO  H190 5140   5.772   6.362   3.765 -2.6048 -0.2011  1.7554
   13CHTO  C101 5141   5.735   6.175   3.678 -0.7276 -0.0164 -0.4420
   13CHTO  H188 5142   5.759   6.071   3.698  0.9915  0.6033  0.8489
   13CHTO   O68 5143   5.783   6.198   3.548 -0.4163  0.2059  0.0700
   13CHTO  H168 5144   5.722   6.151   3.494  0.5470 -2.6296  1.3822
   13CHTO   C99 5145   5.571   6.204   3.694  0.3042  0.0196 -0.0359
   13CHTO  H186 5146   5.563   6.314   3.676  0.3426  0.0388  0.0624
   13CHTO   N17 5147   5.473   6.143   3.596  0.2122 -0.7044  0.2318
   13CHTO  H174 5148   5.469   6.190   3.499 -1.9642 -2.6153 -0.6584
   13CHTO  H175 5149   5.374   6.134   3.636  0.1174  0.9060  0.3589
   13CHTO   C97 5150   5.516   6.178   3.845  0.1753  0.1538  0.1617
   13CHTO  H184 5151   5.512   6.070   3.866 -1.6023  0.9391  4.3722
   13CHTO   O64 5152   5.604   6.245   3.937  0.3669  1.5269 -0.0066
   13CHTO  C104 5153   5.748   6.225   3.933  0.0351  0.1699 -0.6926
   13CHTO  H191 5154   5.772   6.122   3.958 -1.2106  0.6222  2.6424
   13CHTO  C108 5155   5.799   6.307   4.051 -0.3658 -0.2163  0.1674
   13CHTO   O71 5156   5.818   6.443   4.025  0.2422 -0.1780 -0.7380
   13CHTO  H171 5157   5.820   6.464   3.934  0.4193  1.0420 -0.4618
   13CHTO   O62 5158   5.394   6.245   3.871 -0.3836  0.4101  0.0751
   13CHTO   C91 5159   5.308   6.169   3.967  0.8455  0.3961  0.1848
   13CHTO  H178 5160   5.348   6.073   3.998  0.5560 -0.2916 -1.5259
   13CHTO   C92 5161   5.175   6.128   3.887 -0.6935  0.7934 -0.5175
   13CHTO  H179 5162   5.140   6.214   3.827 -2.5674  1.1829  1.0878
   13CHTO   O66 5163   5.216   6.035   3.785  0.2351 -0.3104  0.7231
   13CHTO  H166 5164   5.161   6.037   3.709  0.8036 -1.9245  0.2388
   13CHTO   C93 5165   5.068   6.070   3.985  0.0210 -0.1466 -0.5140
   13CHTO  H180 5166   5.105   5.968   4.001  1.5598  0.5624  0.6292
   13CHTO   N16 5167   4.931   6.067   3.928  0.9843  0.7685 -0.1942
   13CHTO  H172 5168   4.883   5.974   3.954  0.1489  1.6185  1.3672
   13CHTO  H173 5169   4.871   6.145   3.972  1.3819  0.1075  1.5379
   13CHTO   C94 5170   5.053   6.143   4.128  0.5736 -0.3773  0.4148
   13CHTO  H181 5171   4.984   6.227   4.123  0.1438 -0.7124  0.6697
   13CHTO   O61 5172   5.177   6.188   4.178  0.2070 -0.4492  0.1109
   13CHTO   C95 5173   5.260   6.262   4.085 -0.2070  0.1880  0.2852
   13CHTO  H182 5174   5.210   6.351   4.047  0.5160  0.5923  0.2703
   13CHTO  C106 5175   5.370   6.335   4.166  0.1441  0.0873  0.3007
   13CHTO   O69 5176   5.307   6.413   4.274  0.1865 -0.2752 -0.5881
   13CHTO  H169 5177   5.262   6.356   4.332  1.5482 -0.1096  0.6760
   13CHTO   O63 5178   5.012   6.032   4.232 -0.1232  0.2586 -0.3736
   13CHTO   C96 5179   4.909   6.080   4.343  0.3365 -0.4393  0.6983
   13CHTO  H183 5180   4.866   6.178   4.322  2.1790  1.0833  3.6181
   13CHTO   C98 5181   4.977   6.085   4.484  0.3089  0.5621  0.0190
   13CHTO  H185 5182   5.065   6.150   4.475 -0.6956  1.9856  0.3211
   13CHTO   O67 5183   4.894   6.162   4.569  0.1920 -0.7913 -0.3383
   13CHTO  H167 5184   4.926   6.178   4.655 -1.3746  1.3569 -0.1162
   13CHTO  C102 5185   5.014   5.949   4.546  0.8165 -0.3425 -0.1657
   13CHTO  H189 5186   5.043   5.972   4.650 -1.1183  0.2277  0.2728
   13CHTO   N18 5187   5.126   5.874   4.488 -0.6653  0.9359  0.1702
   13CHTO  H176 5188   5.142   5.788   4.551 -1.8493  1.7416  1.5908
   13CHTO  H177 5189   5.215   5.935   4.485 -0.4657  0.6083 -1.3439
   13CHTO  C105 5190   4.888   5.857   4.547  0.2740 -0.7594  0.0410
   13CHTO  H192 5191   4.918   5.754   4.566 -1.2147 -1.7175 -2.6639
   13CHTO   O65 5192   4.825   5.860   4.416 -0.1066 -0.1723 -0.2467
   13CHTO  C100 5193   4.790   5.976   4.337 -0.0827  0.2904  0.1238
   13CHTO  H187 5194   4.763   5.953   4.233 -0.5375  1.0315  0.0768
   13CHTO  C107 5195   4.662   6.032   4.397 -0.4086 -0.8935 -0.3906
   13CHTO   O70 5196   4.605   6.115   4.300 -0.6560 -0.1454  0.9054
   13CHTO  H170 5197   4.570   6.194   4.337 -1.7526 -0.9117  1.5320
   13CHTO   O57 5198   4.799   5.901   4.660  0.2057 -0.0806 -0.0295
   13CHTO   C85 5199   4.822   5.832   4.788  0.8420  0.0000 -0.3478
   13CHTO  H157 5200   4.915   5.772   4.781  1.6289  1.1235  0.1994
   13CHTO   C83 5201   4.708   5.723   4.803 -0.0623  0.2779  0.2258
   13CHTO  H155 5202   4.722   5.651   4.723 -2.0868  1.7414 -1.4997
   13CHTO   O56 5203   4.586   5.792   4.774 -0.0941 -0.3873 -0.0753
   13CHTO  H135 5204   4.580   5.849   4.849  0.9454  0.0665 -0.3341
   13CHTO   C81 5205   4.716   5.653   4.938  0.5910 -0.3781  0.0922
   13CHTO  H153 5206   4.806   5.593   4.946  1.9723  1.5804 -0.5123
   13CHTO   N14 5207   4.598   5.562   4.955 -0.3684  0.2455  0.3534
   13CHTO  H141 5208   4.514   5.624   4.978  0.5604  1.6908 -0.0755
   13CHTO  H142 5209   4.571   5.498   4.873  1.2952  0.9716 -0.7799
   13CHTO   C79 5210   4.725   5.760   5.059 -0.1845 -0.3702  0.6601
   13CHTO  H151 5211   4.741   5.699   5.148 -0.2667 -0.9070  0.3101
   13CHTO   O52 5212   4.828   5.858   5.039 -0.4895  0.4130 -0.1214
   13CHTO   C86 5213   4.820   5.927   4.911  0.3436  0.3968 -0.3994
   13CHTO  H158 5214   4.724   5.982   4.915  0.4438  0.5880 -0.6556
   13CHTO   C90 5215   4.939   6.030   4.904 -0.0269 -0.0841 -0.2281
   13CHTO   O60 5216   4.928   6.129   5.003  0.1502  0.2910 -0.5452
   13CHTO  H138 5217   5.004   6.183   4.992  0.1459  0.1661 -1.2401
   13CHTO   O50 5218   4.603   5.833   5.098  0.0737  0.3903  0.2625
   13CHTO   C73 5219   4.506   5.903   5.170  0.2035  0.2409 -0.0017
   13CHTO  H145 5220   4.407   5.898   5.123  1.2711 -0.7054 -2.2167
   13CHTO   C74 5221   4.551   6.057   5.189 -0.7496 -0.2309  0.0645
   13CHTO  H146 5222   4.564   6.096   5.087  0.4400 -0.6546  0.0512
   13CHTO   O54 5223   4.453   6.140   5.248 -0.0707 -0.1068  0.0430
   13CHTO  H133 5224   4.469   6.168   5.337 -1.1326 -0.3335  0.3095
   13CHTO   C75 5225   4.689   6.056   5.263  0.3065  0.5152 -0.1479
   13CHTO  H147 5226   4.762   6.002   5.201  0.4196  3.1283 -2.4016
   13CHTO   N13 5227   4.746   6.189   5.279  0.8095  0.7533  1.1613
   13CHTO  H139 5228   4.668   6.260   5.303 -0.5713 -0.8803  1.6168
   13CHTO  H140 5229   4.816   6.224   5.205 -1.6838  0.5025 -1.4023
   13CHTO   C76 5230   4.680   5.970   5.393 -0.1424  0.2912  0.4924
   13CHTO  H148 5231   4.605   6.019   5.455 -0.0493  1.3792 -0.2387
   13CHTO   O49 5232   4.629   5.840   5.371 -0.0057  0.0547 -0.2181
   13CHTO   C77 5233   4.500   5.834   5.309  0.3388  0.2359  0.8997
   13CHTO  H149 5234   4.423   5.886   5.366 -0.4174  1.0535 -0.8533
   13CHTO   C88 5235   4.447   5.689   5.300 -0.2083 -0.0849  0.1869
   13CHTO   O58 5236   4.430   5.634   5.426  0.0468 -0.7964 -1.0798
   13CHTO  H136 5237   4.416   5.542   5.432  0.8919 -0.8325  0.5118
   13CHTO   O51 5238   4.842   5.928   5.465  0.6434  0.7171 -0.7014
   13CHTO   C78 5239   4.847   5.939   5.603 -0.3463 -1.1905  0.0726
   13CHTO  H150 5240   4.747   5.966   5.643  0.6647  0.7815  1.3539
   13CHTO   C80 5241   4.941   6.064   5.639 -0.3946  0.2745  0.1660
   13CHTO  H152 5242   5.020   6.070   5.562 -0.3534  2.3837  0.3515
   13CHTO   O55 5243   4.871   6.190   5.624 -0.2033  0.0396  0.3527
   13CHTO  H134 5244   4.808   6.172   5.557 -2.3883 -1.3684  2.6783
   13CHTO   C84 5245   5.010   6.066   5.781 -0.1236 -0.2635  0.1184
   13CHTO  H156 5246   4.932   6.072   5.856  1.1416  1.4520  1.3226
   13CHTO   N15 5247   5.104   6.180   5.801 -0.0732 -0.0397 -0.0969
   13CHTO  H143 5248   5.061   6.277   5.788  1.3123  0.6785  0.5015
   13CHTO  H144 5249   5.147   6.174   5.899 -1.7154  0.3334  0.6555
   13CHTO   C87 5250   5.064   5.926   5.806 -0.4709  0.5197 -0.3080
   13CHTO  H159 5251   5.129   5.902   5.722 -0.4595  0.0891 -0.1806
   13CHTO   O53 5252   4.936   5.828   5.794  0.0228  0.0375 -0.5066
   13CHTO   C82 5253   4.904   5.806   5.656 -0.6010  1.3522 -0.8893
   13CHTO  H154 5254   4.990   5.772   5.599 -1.5220  0.6967 -1.9186
   13CHTO   C89 5255   4.800   5.687   5.649  0.0662  0.6170  0.3303
   13CHTO   O59 5256   4.841   5.565   5.709 -0.5745 -0.0331 -0.1124
   13CHTO  H137 5257   4.835   5.498   5.643  0.6685 -0.9520  0.6892
   13CHTO   O45 5258   5.139   5.898   5.945 -0.0526 -0.5528  0.8316
   13CHTO   C67 5259   5.285   5.901   5.941 -0.1492  0.1900 -0.2830
   13CHTO  H124 5260   5.323   5.946   5.849  0.0711  0.4403 -0.0704
   13CHTO   C65 5261   5.342   5.983   6.064 -0.1262  0.2294  0.2665
   13CHTO  H122 5262   5.259   5.987   6.135  0.5479  1.7747  0.9686
   13CHTO   O44 5263   5.353   6.115   6.020 -0.2831 -0.2756  0.9018
   13CHTO  H102 5264   5.435   6.127   5.976 -1.4611  1.3143 -0.8928
   13CHTO   C63 5265   5.463   5.910   6.126 -0.7632  0.0860  0.2253
   13CHTO  H120 5266   5.423   5.824   6.180  0.3725 -1.1974 -0.9330
   13CHTO   N11 5267   5.541   5.993   6.229 -0.3405 -0.0972  0.4058
   13CHTO  H108 5268   5.477   6.035   6.303  1.0895  0.6646  1.2324
   13CHTO  H109 5269   5.609   6.065   6.186  0.6451 -1.4341 -0.3174
   13CHTO   C61 5270   5.557   5.853   6.013  0.3827 -0.7418 -0.6531
   13CHTO  H118 5271   5.641   5.807   6.068  0.6819 -1.0011 -1.3219
   13CHTO   O40 5272   5.487   5.746   5.944  0.1640  0.2585  0.2618
   13CHTO   C68 5273   5.341   5.751   5.950  0.0491 -0.2279 -0.4565
   13CHTO  H125 5274   5.319   5.697   6.045 -0.3859 -1.8972 -1.4673
   13CHTO   C72 5275   5.293   5.659   5.841  0.6084  0.6211  0.2835
   13CHTO   O48 5276   5.162   5.594   5.863 -0.1130  0.3313  0.2987
   13CHTO  H105 5277   5.093   5.647   5.827 -0.4839  0.0340  0.5694
   13CHTO   O38 5278   5.613   5.954   5.933 -0.1103  0.1320 -0.7893
   13CHTO   C55 5279   5.715   5.925   5.835  0.0788 -0.4789 -0.2703
   13CHTO  H112 5280   5.731   5.822   5.801  1.0432  0.6992 -3.4968
   13CHTO   C56 5281   5.853   5.994   5.882  0.3032  0.1480  0.1786
   13CHTO  H113 5282   5.823   6.098   5.900  0.2328 -0.1396  1.8508
   13CHTO   O42 5283   5.900   5.947   6.009  0.0631  0.0627 -0.3939
   13CHTO  H100 5284   5.934   5.860   5.999  0.2390 -0.0271  0.9051
   13CHTO   C57 5285   5.966   5.978   5.768 -0.1224 -0.7791  0.7414
   13CHTO  H114 5286   5.981   5.870   5.760 -0.5845 -0.8165  0.3316
   13CHTO   N10 5287   6.097   6.045   5.800 -0.5900  0.0468 -0.0688
   13CHTO  H106 5288   6.174   5.989   5.750 -1.0960 -1.6921  1.0527
   13CHTO  H107 5289   6.096   6.148   5.767  0.5004  0.0158 -0.2153
   13CHTO   C58 5290   5.912   6.030   5.633  0.0445 -0.3433 -0.8389
   13CHTO  H115 5291   5.907   6.141   5.638  1.2331 -0.3145 -0.3862
   13CHTO   O37 5292   5.783   5.980   5.600 -0.1539 -0.3589 -0.0373
   13CHTO   C59 5293   5.683   5.998   5.700  0.5282  0.1012 -0.1121
   13CHTO  H116 5294   5.678   6.107   5.710 -2.5646  0.2115 -2.1460
   13CHTO   C70 5295   5.559   5.933   5.639 -0.0608  0.0835 -0.0596
   13CHTO   O46 5296   5.511   5.997   5.519  0.0132 -0.2482  0.2814
   13CHTO  H103 5297   5.445   5.941   5.481 -1.4664  0.4379  1.8045
   13CHTO   O39 5298   5.996   5.968   5.517 -0.1691  0.7550 -0.0475
   13CHTO   C60 5299   6.100   6.025   5.432 -0.1093  0.3384  0.7016
   13CHTO  H117 5300   6.161   6.102   5.478  0.8406  0.8745 -1.4139
   13CHTO   C62 5301   6.211   5.918   5.391  0.1079 -0.5905 -0.0362
   13CHTO  H119 5302   6.234   5.871   5.489 -0.5413  2.1136  1.4676
   13CHTO   O43 5303   6.150   5.821   5.304  0.0312  0.0000  0.5198
   13CHTO  H101 5304   6.077   5.784   5.351  0.1782 -1.4879 -0.4067
   13CHTO   C66 5305   6.341   5.987   5.334 -0.6418 -0.2140 -0.1415
   13CHTO  H123 5306   6.375   6.065   5.402  0.2462 -0.0157 -0.7973
   13CHTO   N12 5307   6.453   5.890   5.303 -0.1390  0.1317 -0.7283
   13CHTO  H110 5308   6.538   5.953   5.279 -0.9446  1.7472  0.5507
   13CHTO  H111 5309   6.478   5.836   5.393  2.0294  0.7539 -0.9222
   13CHTO   C69 5310   6.301   6.069   5.204  0.6588  0.1916 -0.3752
   13CHTO  H126 5311   6.279   6.004   5.117  0.2516  0.7012 -0.6571
   13CHTO   O41 5312   6.152   6.160   5.218 -0.4316  0.0938 -0.7036
   13CHTO   C64 5313   6.038   6.086   5.303 -1.0340  0.7615  0.0327
   13CHTO  H121 5314   5.986   6.014   5.237  1.5845 -0.7126 -0.5158
   13CHTO   C71 5315   5.941   6.196   5.346 -0.5229 -0.7090 -0.4757
   13CHTO   O47 5316   5.922   6.290   5.245  0.0560 -0.8806  0.2520
   13CHTO  H104 5317   5.838   6.330   5.254 -0.1398 -0.7329 -1.9853
   13CHTO   O34 5318   6.427   6.171   5.173 -0.2180  0.4214 -0.5333
   13CHTO   C49 5319   6.500   6.280   5.098  0.7004 -0.1979  0.3409
   13CHTO   H91 5320   6.539   6.237   5.006  0.3300  0.1702  0.0066
   13CHTO   C47 5321   6.619   6.333   5.180 -0.0394  0.1161 -0.4752
   13CHTO   H89 5322   6.664   6.413   5.118  0.1439  2.3406  2.3922
   13CHTO   O33 5323   6.713   6.231   5.197  0.3854 -0.1003  0.1304
   13CHTO   H70 5324   6.666   6.149   5.203  2.4981 -1.5429 -1.9596
   13CHTO   C45 5325   6.573   6.397   5.324 -0.3367  0.1883  0.5418
   13CHTO   H87 5326   6.585   6.321   5.402  2.6944 -1.0707 -1.0480
   13CHTO    N8 5327   6.662   6.512   5.353 -0.2023  0.8330 -0.0179
   13CHTO   H75 5328   6.605   6.603   5.345 -0.0206  0.8378 -1.4869
   13CHTO   H76 5329   6.711   6.502   5.448 -1.0727  0.6176  0.4151
   13CHTO   C43 5330   6.413   6.430   5.312 -0.0681 -0.0780 -0.1565
   13CHTO   H85 5331   6.361   6.337   5.333 -1.5389  0.8739  0.4948
   13CHTO   O29 5332   6.374   6.481   5.184 -0.1440 -0.6500 -0.3700
   13CHTO   C50 5333   6.408   6.401   5.073 -0.5009  0.9460  0.8626
   13CHTO   H92 5334   6.311   6.363   5.037 -0.1140 -0.0994  0.9118
   13CHTO   C54 5335   6.458   6.485   4.956 -0.5343 -0.7932 -0.2878
   13CHTO   O36 5336   6.427   6.443   4.822  0.6216  0.4419 -0.5963
   13CHTO   H72 5337   6.338   6.412   4.814 -0.9408  4.1150  1.0981
   13CHTO   O27 5338   6.370   6.509   5.421 -0.1135  0.7793 -0.3782
   13CHTO   C37 5339   6.262   6.552   5.516  0.4161  0.0353  0.1443
   13CHTO   H79 5340   6.180   6.584   5.450  1.6344  1.4046 -0.7584
   13CHTO   C38 5341   6.216   6.449   5.616  0.5136  0.4260 -0.7552
   13CHTO   H80 5342   6.298   6.412   5.679 -2.3171 -0.3884  2.6194
   13CHTO   O31 5343   6.152   6.345   5.537 -0.4267  0.0626  0.3872
   13CHTO   H68 5344   6.163   6.264   5.584  0.0440 -1.1399 -1.7450
   13CHTO   C39 5345   6.115   6.514   5.723 -0.4242 -0.1036  0.3710
   13CHTO   H81 5346   6.018   6.534   5.678 -0.5313  1.0341  1.0892
   13CHTO    N7 5347   6.074   6.416   5.833  0.3174  0.0788  0.1318
   13CHTO   H73 5348   6.088   6.314   5.799 -0.3149  0.5544 -1.6034
   13CHTO   H74 5349   6.149   6.428   5.910  0.7439  0.0826 -0.2766
   13CHTO   C40 5350   6.164   6.654   5.785  0.5060 -0.3836 -0.2342
   13CHTO   H82 5351   6.235   6.647   5.868 -0.4306 -1.5605  0.4742
   13CHTO   O26 5352   6.217   6.738   5.685  0.2840 -0.2308 -0.3165
   13CHTO   C41 5353   6.316   6.680   5.591  0.1657  0.1304  0.2729
   13CHTO   H83 5354   6.404   6.646   5.648  0.0773 -3.2817 -1.5003
   13CHTO   C52 5355   6.353   6.805   5.507 -0.3773 -0.0250  0.0919
   13CHTO   O35 5356   6.449   6.801   5.401  0.4442 -0.1721  0.0190
   13CHTO   H71 5357   6.498   6.881   5.395 -0.6053  0.4473 -0.5612
   13CHTO   O28 5358   6.057   6.737   5.819 -0.0746  0.2844 -0.0089
   13CHTO   C42 5359   6.076   6.828   5.938  0.1555  0.3804 -0.1655
   13CHTO   H84 5360   5.994   6.900   5.936 -0.1565  0.0161 -0.5914
   13CHTO   C44 5361   6.206   6.914   5.931  1.2540 -0.1665 -0.3555
   13CHTO   H86 5362   6.292   6.848   5.920  0.2080 -1.8806  1.3354
   13CHTO   O32 5363   6.193   6.996   5.813  0.6185 -0.0060  0.0751
   13CHTO   H69 5364   6.204   6.948   5.733 -2.1393 -1.4385  0.4942
   13CHTO   C48 5365   6.241   7.009   6.059  0.2244 -0.3824 -0.1285
   13CHTO   H90 5366   6.191   7.105   6.047 -0.8040 -1.0116 -0.9762
   13CHTO    N9 5367   6.385   7.044   6.058 -0.0153 -0.0259  0.3861
   13CHTO   H77 5368   6.439   7.022   5.967  1.6180  0.8028  1.1258
   13CHTO   H78 5369   6.392   7.151   6.067  3.6543 -0.2620  1.3883
   13CHTO   C51 5370   6.188   6.938   6.196 -0.1075 -0.0887  0.1246
   13CHTO   H93 5371   6.267   6.872   6.232 -0.5617  0.2347  1.7436
   13CHTO   O30 5372   6.064   6.869   6.186  0.3934 -0.1074  0.2146
   13CHTO   C46 5373   6.079   6.765   6.080  0.5638  0.1141  0.5851
   13CHTO   H88 5374   6.173   6.711   6.094 -0.3731 -0.7012  4.0146
   13CHTO   C53 5375   5.963   6.658   6.102 -0.0591  0.6117 -0.1389
   13CHTO   O72 5376   5.983   6.570   6.215 -0.1462  0.1750  1.0745
   13CHTO  H199 5377   5.903   6.564   6.263 -1.2007 -0.7946 -0.7481
   13CHTO   O22 5378   6.176   7.036   6.300  0.4135 -0.0693 -0.2622
   13CHTO   C31 5379   6.139   7.010   6.444  0.5078  0.0700 -0.2309
   13CHTO   H59 5380   6.100   6.907   6.446  2.3637 -0.6690 -1.0210
   13CHTO   C29 5381   6.255   7.013   6.542  0.1926 -0.1026  0.1851
   13CHTO   H57 5382   6.286   7.117   6.555  0.2385 -0.0130 -0.6080
   13CHTO   O21 5383   6.372   6.944   6.493  0.1963  0.2240 -0.5150
   13CHTO   H37 5384   6.349   6.853   6.487 -0.3017  0.1309  2.1788
   13CHTO   C27 5385   6.193   6.956   6.682 -0.0602  1.0310  0.1980
   13CHTO   H55 5386   6.150   6.856   6.667 -0.8710  0.9815  2.6755
   13CHTO    N5 5387   6.300   6.945   6.784 -0.0506 -0.3718  0.1139
   13CHTO   H43 5388   6.337   7.044   6.805 -0.2753  0.0338 -1.3214
   13CHTO   H44 5389   6.267   6.895   6.873  1.4416 -1.1657  0.2433
   13CHTO   C25 5390   6.082   7.051   6.725  0.0570  0.1763  0.3386
   13CHTO   H53 5391   6.127   7.151   6.738 -0.2845  0.5267 -1.0452
   13CHTO   O17 5392   5.981   7.049   6.621 -0.0708 -0.0855 -0.0036
   13CHTO   C32 5393   6.025   7.101   6.494  0.0678 -0.9260 -0.0111
   13CHTO   H60 5394   6.065   7.201   6.512 -2.2352  0.2097 -1.0013
   13CHTO   C36 5395   5.907   7.120   6.391 -0.1138 -0.3859  0.4308
   13CHTO   O25 5396   5.944   7.185   6.265 -0.3443 -0.4863 -0.3278
   13CHTO   H40 5397   6.032   7.176   6.232 -0.9885 -1.7057 -1.7837
   13CHTO   O15 5398   6.002   7.021   6.860 -0.1143  0.0895  0.0315
   13CHTO   C19 5399   5.895   7.100   6.913  0.4575  0.0507  0.5786
   13CHTO   H47 5400   5.888   7.074   7.020 -3.2194 -0.5905  0.2465
   13CHTO   C20 5401   5.920   7.253   6.901  0.7701 -0.6173 -0.1713
   13CHTO   H48 5402   5.931   7.287   6.797 -0.9870 -0.7316 -0.4001
   13CHTO   O19 5403   6.037   7.295   6.982  0.6372 -0.5515  0.9852
   13CHTO   H35 5404   6.057   7.386   6.989 -0.6044 -0.4402  3.8834
   13CHTO   C21 5405   5.796   7.335   6.961 -0.5309  0.3762 -0.0022
   13CHTO   H49 5406   5.797   7.317   7.069  2.1286 -2.1308 -0.3777
   13CHTO    N4 5407   5.805   7.480   6.935 -0.1395 -0.3546 -0.3964
   13CHTO   H41 5408   5.704   7.518   6.945  0.1721  0.9018 -1.8427
   13CHTO   H42 5409   5.864   7.524   7.014 -0.3328  0.5419 -0.7401
   13CHTO   C22 5410   5.662   7.278   6.914  0.0184 -0.1298 -0.0136
   13CHTO   H50 5411   5.645   7.299   6.808 -0.5057  3.4324  0.7426
   13CHTO   O14 5412   5.655   7.139   6.936  0.0552 -0.3483  0.0644
   13CHTO   C23 5413   5.756   7.056   6.861  0.7709 -0.3146  0.1911
   13CHTO   H51 5414   5.746   7.071   6.753 -0.5681 -1.2383  0.1737
   13CHTO   C34 5415   5.740   6.910   6.892  0.3568 -0.4321  0.4225
   13CHTO   O23 5416   5.643   6.830   6.826 -0.3424  0.6259 -0.5852
   13CHTO   H38 5417   5.680   6.784   6.753  1.1241 -0.0436  0.5375
   13CHTO   O16 5418   5.557   7.334   6.998  0.0645 -0.8316  0.0773
   13CHTO   C24 5419   5.406   7.349   6.920  0.5528  0.3092 -0.0557
   13CHTO   H52 5420   5.407   7.317   6.816 -1.3705  0.5468 -0.1688
   13CHTO   C26 5421   5.355   7.496   6.927  0.3257 -0.5399  0.4434
   13CHTO   H54 5422   5.356   7.530   7.033 -1.0162  0.2796  0.2094
   13CHTO   O20 5423   5.457   7.580   6.865 -0.4497 -0.2924  0.7893
   13CHTO   H36 5424   5.492   7.642   6.927 -2.0589  1.1519  0.3198
   13CHTO   C30 5425   5.214   7.505   6.862 -0.1401 -0.1071  0.3956
   13CHTO   H58 5426   5.215   7.501   6.752  0.6346 -0.6834  0.4193
   13CHTO    N6 5427   5.160   7.645   6.870  0.4394 -0.0267  0.0182
   13CHTO   H45 5428   5.065   7.662   6.917 -0.4650 -1.1844 -1.3638
   13CHTO   H46 5429   5.164   7.702   6.778  0.4829 -1.1532 -0.6756
   13CHTO   C33 5430   5.114   7.402   6.926 -0.3122 -0.5715  0.5805
   13CHTO   H61 5431   5.085   7.429   7.029 -0.6590 -1.5956  0.7551
   13CHTO   O18 5432   5.170   7.271   6.926 -0.0583  0.0392 -0.2746
   13CHTO   C28 5433   5.299   7.257   6.989 -0.1907  0.1696  0.6674
   13CHTO   H56 5434   5.295   7.279   7.096  0.5274 -0.8373  0.9058
   13CHTO   C35 5435   5.330   7.110   6.994  0.6756 -0.6618  0.2617
   13CHTO   O24 5436   5.361   7.061   6.869 -0.7846  0.0379  0.8612
   13CHTO   H39 5437   5.379   6.969   6.872  2.2672  0.6113  1.7132
   13CHTO    O9 5438   4.988   7.403   6.852 -0.4879  0.4862  0.2007
   13CHTO   C13 5439   4.868   7.380   6.954 -0.3835 -0.3843  0.1457
   13CHTO   H26 5440   4.893   7.434   7.048  1.3744 -2.3602  0.8375
   13CHTO   C11 5441   4.853   7.228   6.980 -0.6801 -0.1075 -0.2787
   13CHTO   H24 5442   4.937   7.186   7.038 -1.1664 -1.5916 -0.6344
   13CHTO    O8 5443   4.867   7.153   6.857  0.1072  0.6248  0.5149
   13CHTO    H3 5444   4.954   7.160   6.821 -0.5039  0.2069 -1.0804
   13CHTO    C9 5445   4.715   7.200   7.049  0.0430 -0.0844  0.2765
   13CHTO   H22 5446   4.717   7.270   7.134  0.0107  0.3602 -0.0881
   13CHTO    N2 5447   4.706   7.062   7.103  0.3071 -0.2438 -0.2338
   13CHTO   H10 5448   4.635   7.055   7.184 -0.8472  0.9819 -1.1029
   13CHTO   H11 5449   4.684   6.988   7.027 -1.6198  0.9624 -0.8916
   13CHTO    C7 5450   4.593   7.248   6.963 -0.5485  0.4651  0.0462
   13CHTO   H20 5451   4.521   7.283   7.040  0.4660  1.3789  0.5916
   13CHTO    O4 5452   4.635   7.351   6.863  0.4474  0.3819  0.3798
   13CHTO   C14 5453   4.735   7.447   6.896  0.5892  0.5073 -0.0149
   13CHTO   H27 5454   4.696   7.506   6.981  1.1989 -1.4694  1.6916
   13CHTO   C18 5455   4.757   7.548   6.777  0.0056  0.6939  0.4086
   13CHTO   O13 5456   4.639   7.629   6.753 -0.3287  0.2026  0.5503
   13CHTO    H7 5457   4.604   7.667   6.831  1.2329 -0.3239  1.5271
   13CHTO    O2 5458   4.503   7.117   6.872  0.5259 -0.0392  0.4131
   13CHTO    C1 5459   4.365   7.138   6.842  0.1247 -0.3088 -0.3720
   13CHTO   H14 5460   4.350   7.248   6.838 -0.4212 -0.4418 -2.2228
   13CHTO    C2 5461   4.268   7.075   6.954 -0.3723  0.1721  0.4064
   13CHTO   H15 5462   4.304   6.973   6.975  0.2668  0.6533  1.7359
   13CHTO    O6 5463   4.273   7.149   7.073 -0.6076  0.2938 -0.5315
   13CHTO    H1 5464   4.257   7.096   7.149 -1.3291  0.8055 -0.3176
   13CHTO    C3 5465   4.115   7.057   6.897 -0.1224  0.4136  0.0127
   13CHTO   H16 5466   4.069   7.156   6.880  0.2677  0.8163  1.2619
   13CHTO    N1 5467   4.025   6.980   6.979 -0.2547  0.1187 -0.5036
   13CHTO    H8 5468   4.015   7.035   7.072  0.1333  1.5139 -1.2740
   13CHTO    H9 5469   3.928   6.977   6.930 -0.7930 -0.7165  0.6001
   13CHTO    C4 5470   4.118   6.992   6.753  0.2401  0.8729  0.5581
   13CHTO   H17 5471   4.162   6.892   6.751 -0.8059  0.4173  0.2355
   13CHTO    O1 5472   4.193   7.084   6.672 -0.1116  0.3439 -0.1673
   13CHTO    C5 5473   4.332   7.080   6.701  0.2383 -0.0806  0.6858
   13CHTO   H18 5474   4.374   6.979   6.698 -2.2291 -1.1005 -1.3234
   13CHTO   C16 5475   4.408   7.172   6.596  0.2819 -0.4432  0.1117
   13CHTO   O11 5476   4.416   7.115   6.465 -0.9703 -0.4150 -0.3151
   13CHTO    H5 5477   4.479   7.165   6.416 -0.0509 -1.8020 -0.5907
   13CHTO    O3 5478   3.990   6.984   6.681  0.5855  0.5373 -0.1562
   13CHTO    C6 5479   3.986   6.881   6.578 -0.2071 -0.3898  0.9208
   13CHTO   H19 5480   4.082   6.853   6.534 -0.8585 -0.8766 -0.1980
   13CHTO    C8 5481   3.924   6.745   6.635  0.0674  0.4098 -0.0409
   13CHTO   H21 5482   3.821   6.766   6.664  0.1269  1.1738 -0.3566
   13CHTO    O7 5483   4.000   6.693   6.746 -0.2483 -0.0740 -0.3720
   13CHTO    H2 5484   3.983   6.723   6.834  0.8896 -0.2697 -0.0810
   13CHTO   C12 5485   3.916   6.634   6.518 -0.0248 -0.4328  0.7095
   13CHTO   H25 5486   4.021   6.613   6.489 -0.7048 -1.6967 -0.9248
   13CHTO    N3 5487   3.854   6.499   6.563 -0.3490  0.0452 -0.6419
   13CHTO   H12 5488   3.929   6.462   6.630  1.0521  1.8342 -1.1634
   13CHTO   H13 5489   3.831   6.429   6.484 -0.0660  0.6477 -1.2628
   13CHTO   C15 5490   3.851   6.699   6.387  0.0450 -0.3086 -0.3293
   13CHTO   H28 5491   3.742   6.705   6.381  0.0014  0.2715  0.9008
   13CHTO   O10 5492   3.890   6.628   6.266 -0.5060 -0.3038 -0.2331
   13CHTO    H4 5493   3.823   6.636   6.201 -0.1457  0.7507 -0.4901
   13CHTO    O5 5494   3.908   6.822   6.354 -0.4351  0.2832 -0.1180
   13CHTO   C10 5495   3.896   6.926   6.461 -0.0808  1.2583  0.2829
   13CHTO   H23 5496   3.790   6.932   6.487 -0.4166 -1.7179 -0.2714
   13CHTO   C17 5497   3.939   7.058   6.392 -0.0393  0.0664 -0.6825
   13CHTO   O12 5498   3.845   7.086   6.287  0.2918  0.7736 -0.3757
   13CHTO    H6 5499   3.886   7.061   6.207 -0.8662  3.3658 -1.8203
   14CHTO  H203 5500   5.302   6.351   4.836  0.3368 -0.9123  0.2963
   14CHTO   O82 5501   5.253   6.299   4.897 -1.0833  0.4981  0.3828
   14CHTO  C123 5502   5.336   6.203   4.972 -0.0131 -0.4241 -0.2450
   14CHTO  H227 5503   5.431   6.250   5.002  0.3045 -0.8216 -0.6290
   14CHTO   O77 5504   5.251   6.180   5.087 -0.3039 -0.1013  0.0276
   14CHTO  C118 5505   5.310   6.083   5.181  0.0992  0.3516  0.5565
   14CHTO  H222 5506   5.415   6.100   5.209  0.2917 -0.1236  0.1285
   14CHTO  C125 5507   5.223   6.089   5.312 -0.3508 -0.1433  0.0039
   14CHTO   O84 5508   5.082   6.055   5.281  0.0337 -0.2495  0.0985
   14CHTO  H205 5509   5.088   5.967   5.250 -1.0230  0.0729 -1.0604
   14CHTO  C114 5510   5.309   5.949   5.106 -0.0144  0.4270 -0.2451
   14CHTO  H218 5511   5.205   5.922   5.084  0.6799  0.3414 -3.8503
   14CHTO  C116 5512   5.390   5.955   4.968 -0.4503 -0.6542  0.7507
   14CHTO  H220 5513   5.497   5.960   4.998  0.5100 -1.6515 -2.3237
   14CHTO   O79 5514   5.381   5.823   4.908  0.4121 -0.1041  0.4421
   14CHTO  H201 5515   5.291   5.812   4.883  0.3523  0.3773  0.4506
   14CHTO  C120 5516   5.350   6.074   4.883  0.7146 -0.7509 -0.1904
   14CHTO  H224 5517   5.253   6.036   4.844  0.8858 -0.3016 -1.0561
   14CHTO   N21 5518   5.445   6.085   4.772 -0.1243 -0.0477  0.2017
   14CHTO  H211 5519   5.489   5.990   4.746  4.5306  1.5819  1.4979
   14CHTO  H212 5520   5.397   6.128   4.686  0.8600 -0.1198 -0.3957
   14CHTO   O75 5521   5.373   5.858   5.196  0.5141 -0.3756  0.2474
   14CHTO  C112 5522   5.317   5.696   5.224  0.0620 -0.0117 -0.3774
   14CHTO  H216 5523   5.403   5.631   5.247  2.4570  1.7557 -3.7971
   14CHTO   O73 5524   5.244   5.651   5.110  0.2891  0.3980  0.0523
   14CHTO  C113 5525   5.222   5.510   5.103 -1.0351 -0.0556 -0.7320
   14CHTO  H217 5526   5.315   5.454   5.123 -0.0739  1.0709 -1.9933
   14CHTO  C124 5527   5.171   5.467   4.969  0.1994 -0.8023  0.3182
   14CHTO   O83 5528   5.264   5.509   4.869  0.0931  0.0701  0.2832
   14CHTO  H204 5529   5.350   5.483   4.895  0.0825 -0.4019 -0.1424
   14CHTO  C109 5530   5.119   5.491   5.218 -0.4507 -0.2434  0.3534
   14CHTO  H213 5531   5.027   5.544   5.191  0.2990 -0.3542 -2.5818
   14CHTO  C110 5532   5.173   5.543   5.352  0.5085  0.1944 -0.3589
   14CHTO  H214 5533   5.253   5.474   5.380  1.4914  1.4090 -0.1426
   14CHTO   O78 5534   5.071   5.528   5.456 -1.2163 -0.1741  0.2081
   14CHTO  H200 5535   5.088   5.588   5.526  1.2856 -0.2154 -0.2910
   14CHTO  C111 5536   5.226   5.688   5.347 -0.1531 -0.5160 -0.2078
   14CHTO  H215 5537   5.141   5.756   5.329 -0.9494 -1.0397  1.3971
   14CHTO   N19 5538   5.294   5.736   5.471  0.5134 -0.3960 -0.1250
   14CHTO  H207 5539   5.390   5.689   5.481  0.2275 -0.9608 -0.0557
   14CHTO  H208 5540   5.229   5.723   5.556  0.5167 -1.3605 -0.2749
   14CHTO   O74 5541   5.096   5.350   5.231 -0.3655  0.5984  0.5309
   14CHTO  C115 5542   4.956   5.292   5.158 -0.0136  0.2054  0.1205
   14CHTO  H219 5543   4.904   5.370   5.102 -0.3378  0.0922  0.2646
   14CHTO   O76 5544   4.988   5.179   5.050  0.1290 -0.5417  0.4670
   14CHTO  C122 5545   4.887   5.115   4.984  0.0939 -0.0317  0.4409
   14CHTO  H226 5546   4.930   5.031   4.931  0.6085  0.9632 -0.7478
   14CHTO  C126 5547   4.830   5.210   4.872 -0.4778  0.2265  0.0479
   14CHTO   O85 5548   4.929   5.239   4.777  0.0177 -0.4408 -0.4480
   14CHTO  H206 5549   5.001   5.278   4.822  0.5039 -0.7726 -0.9349
   14CHTO  C121 5550   4.770   5.065   5.078 -0.1091 -0.4661 -0.1358
   14CHTO  H225 5551   4.682   5.049   5.012  0.5499  0.2674 -1.2058
   14CHTO   O81 5552   4.817   4.944   5.137 -0.1971  0.1527  0.5187
   14CHTO  H202 5553   4.868   4.958   5.215  1.2082 -1.4105 -0.0836
   14CHTO  C119 5554   4.736   5.172   5.184  0.6199  0.7050 -0.7460
   14CHTO  H223 5555   4.695   5.255   5.125  0.0841 -0.3646 -1.9028
   14CHTO  C117 5556   4.862   5.228   5.263 -0.0057 -0.4322  0.0960
   14CHTO  H221 5557   4.920   5.160   5.325 -0.1678 -0.6734 -0.0158
   14CHTO   N20 5558   4.817   5.342   5.352 -0.5267  0.7406 -0.3111
   14CHTO  H209 5559   4.731   5.393   5.311 -1.2347 -0.9284 -0.9497
   14CHTO  H210 5560   4.815   5.320   5.458 -0.2651 -0.8556 -0.6240
   14CHTO   O80 5561   4.608   5.130   5.279  0.1903  0.6608  0.1479
   14CHTO  C103 5562   4.479   5.225   5.270 -0.3830 -0.0958  0.4242
   14CHTO  H190 5563   4.501   5.324   5.230 -4.9551  0.0026 -2.2056
   14CHTO  C101 5564   4.357   5.180   5.181  0.3397 -0.5248  0.7728
   14CHTO  H188 5565   4.316   5.089   5.224 -3.7722 -0.8067 -3.3722
   14CHTO   O68 5566   4.411   5.140   5.037  0.1129  0.1764  0.4218
   14CHTO  H168 5567   4.369   5.058   5.018  0.6816 -0.2287  0.8947
   14CHTO   C99 5568   4.257   5.299   5.176  0.1669  0.6103 -0.6051
   14CHTO  H186 5569   4.310   5.389   5.139 -0.9641  0.9319 -1.4508
   14CHTO   N17 5570   4.141   5.272   5.083  0.0347 -0.9689 -0.1779
   14CHTO  H174 5571   4.157   5.333   4.996  0.3326  1.1093  1.2713
   14CHTO  H175 5572   4.134   5.167   5.058 -0.6961 -1.3283  1.4040
   14CHTO   C97 5573   4.205   5.333   5.322 -0.1063  0.6222  0.3812
   14CHTO  H184 5574   4.145   5.247   5.354  1.9235 -0.8221  0.3974
   14CHTO   O64 5575   4.311   5.358   5.410  0.1857  0.5326 -0.0118
   14CHTO  C104 5576   4.413   5.255   5.419  0.1356  0.1012 -0.1807
   14CHTO  H191 5577   4.382   5.157   5.456  2.0995 -0.7224 -0.6254
   14CHTO  C108 5578   4.527   5.306   5.517 -0.1250  0.0284 -0.8293
   14CHTO   O71 5579   4.476   5.317   5.652  0.0860  0.8733  1.2869
   14CHTO  H171 5580   4.493   5.234   5.695 -2.7914 -1.7592 -2.3851
   14CHTO   O62 5581   4.128   5.451   5.317 -0.3335 -0.1473  0.1422
   14CHTO   C91 5582   4.053   5.488   5.436  0.0557  0.1589  0.0255
   14CHTO  H178 5583   4.060   5.406   5.508 -0.8063 -1.1352 -1.3516
   14CHTO   C92 5584   3.904   5.491   5.374  0.1570  0.1793 -0.2305
   14CHTO  H179 5585   3.889   5.398   5.317 -1.6056  1.2176 -1.5130
   14CHTO   O66 5586   3.809   5.486   5.480 -0.3440  0.0640 -0.5404
   14CHTO  H166 5587   3.724   5.469   5.446 -0.7386  1.0890 -0.0763
   14CHTO   C93 5588   3.880   5.622   5.279 -0.5334  0.1496  0.0162
   14CHTO  H180 5589   3.778   5.660   5.288 -0.6768 -0.2710  0.1773
   14CHTO   N16 5590   3.889   5.588   5.137 -0.3115 -0.0564  0.6895
   14CHTO  H172 5591   3.803   5.619   5.080  2.2116  0.3852 -3.0209
   14CHTO  H173 5592   3.897   5.481   5.123  0.3718  0.2013 -0.9006
   14CHTO   C94 5593   3.984   5.738   5.324 -0.0553  0.6153 -0.0229
   14CHTO  H181 5594   4.082   5.726   5.279 -0.0256  0.1430  0.1693
   14CHTO   O61 5595   4.009   5.727   5.466 -0.2597  0.1204  0.1507
   14CHTO   C95 5596   4.094   5.621   5.512 -0.3042 -0.1639 -0.1192
   14CHTO  H182 5597   4.198   5.650   5.496 -0.3502  0.7405  1.1350
   14CHTO  C106 5598   4.073   5.612   5.667  0.8151  0.0085 -0.3678
   14CHTO   O69 5599   4.133   5.733   5.723  0.0982  0.1642 -0.7402
   14CHTO  H169 5600   4.082   5.781   5.785  0.6597 -0.7322  0.4410
   14CHTO   O63 5601   3.929   5.876   5.297 -0.1940  0.4223 -0.3177
   14CHTO   C96 5602   3.991   5.957   5.181 -0.2514  0.1270 -0.3577
   14CHTO  H183 5603   3.924   6.041   5.162 -0.9083  0.4333  2.9026
   14CHTO   C98 5604   4.005   5.895   5.040  0.6081 -0.0664 -0.1182
   14CHTO  H185 5605   4.053   5.796   5.045 -0.7246 -0.8461 -1.9623
   14CHTO   O67 5606   3.871   5.858   5.003 -1.1092  0.2387  0.0066
   14CHTO  H167 5607   3.805   5.921   4.980 -0.8328  1.3129  2.0399
   14CHTO  C102 5608   4.070   5.985   4.930 -0.0417 -0.2130  0.2775
   14CHTO  H189 5609   3.997   6.066   4.916 -2.1820 -1.7874  2.0300
   14CHTO   N18 5610   4.092   5.930   4.792 -0.4213 -0.2966 -0.1315
   14CHTO  H176 5611   4.151   6.000   4.735  1.7311 -0.6474  1.5711
   14CHTO  H177 5612   3.997   5.924   4.742 -1.0186  1.6619  0.6954
   14CHTO  C105 5613   4.204   6.039   4.993 -0.3588  0.4836  0.5433
   14CHTO  H192 5614   4.273   5.955   4.999  1.2916  1.6478 -1.7552
   14CHTO   O65 5615   4.180   6.099   5.120 -0.3441 -0.6307  0.0461
   14CHTO  C100 5616   4.129   6.018   5.226 -1.1276 -0.6706 -0.0573
   14CHTO  H187 5617   4.193   5.929   5.236  0.9671  0.6945 -0.9520
   14CHTO  C107 5618   4.129   6.100   5.354  0.0920  0.3379  0.1461
   14CHTO   O70 5619   4.108   6.008   5.467  0.0761  0.2206 -0.2841
   14CHTO  H170 5620   4.116   6.056   5.548 -0.7113 -0.8851  0.4692
   14CHTO   O57 5621   4.256   6.163   4.872 -0.3342 -0.1691 -0.8534
   14CHTO   C85 5622   4.388   6.180   4.829 -0.1514 -0.0250  0.6384
   14CHTO  H157 5623   4.443   6.086   4.852  1.7426  0.7253 -0.6923
   14CHTO   C83 5624   4.461   6.294   4.905 -0.0011 -0.0747 -0.4195
   14CHTO  H155 5625   4.459   6.288   5.014 -0.9113  0.0602 -0.4201
   14CHTO   O56 5626   4.376   6.405   4.885  0.2028 -0.1831  0.1166
   14CHTO  H135 5627   4.424   6.485   4.894  0.4319 -0.4551  1.3489
   14CHTO   C81 5628   4.605   6.303   4.852 -0.0133  0.4580 -0.6750
   14CHTO  H153 5629   4.648   6.202   4.852 -2.5621 -0.6673 -1.0067
   14CHTO   N14 5630   4.690   6.387   4.936 -0.3566 -0.3649  0.1628
   14CHTO  H141 5631   4.687   6.353   5.038 -1.8852 -0.3168  0.1398
   14CHTO  H142 5632   4.789   6.404   4.899 -0.7833 -3.3369 -2.5407
   14CHTO   C79 5633   4.606   6.351   4.697 -0.5053 -0.0875 -0.2027
   14CHTO  H151 5634   4.708   6.342   4.659 -0.3857  1.0817 -0.1963
   14CHTO   O52 5635   4.528   6.242   4.625 -0.0238  0.1376 -0.7129
   14CHTO   C86 5636   4.394   6.211   4.676 -0.2833  0.2391 -0.6606
   14CHTO  H158 5637   4.340   6.305   4.652  0.8514  0.6955 -1.4745
   14CHTO   C90 5638   4.333   6.106   4.581  0.8182  0.1576  0.0779
   14CHTO   O60 5639   4.396   5.976   4.601  0.3350  0.0674 -0.2074
   14CHTO  H138 5640   4.449   5.966   4.678 -0.1339  1.5340  0.3301
   14CHTO   O50 5641   4.556   6.480   4.663  0.5395  0.6446 -0.2885
   14CHTO   C73 5642   4.507   6.609   4.610 -0.4394  0.0630 -0.0903
   14CHTO  H145 5643   4.462   6.662   4.694  2.0892 -0.4282  1.6338
   14CHTO   C74 5644   4.403   6.566   4.494 -0.7906 -0.0157 -0.1618
   14CHTO  H146 5645   4.329   6.497   4.537 -0.0801  0.2180  1.4656
   14CHTO   O54 5646   4.335   6.686   4.452 -0.4276 -0.1888 -0.3602
   14CHTO  H133 5647   4.273   6.711   4.518 -0.9488  0.0845 -0.9552
   14CHTO   C75 5648   4.491   6.496   4.378 -0.3396  0.5368  0.0156
   14CHTO  H147 5649   4.531   6.400   4.413 -1.8637 -0.9142 -2.1039
   14CHTO   N13 5650   4.403   6.458   4.267  0.3101  1.2105 -0.7147
   14CHTO  H139 5651   4.446   6.464   4.168  1.7554  0.4083 -0.1415
   14CHTO  H140 5652   4.334   6.377   4.286  1.8895  0.2285  0.9293
   14CHTO   C76 5653   4.612   6.591   4.340 -0.1606 -0.1543 -0.0889
   14CHTO  H148 5654   4.569   6.682   4.298 -2.0886 -0.5910  0.8721
   14CHTO   O49 5655   4.694   6.615   4.456 -0.0334  0.3039 -0.4725
   14CHTO   C77 5656   4.630   6.688   4.560 -0.0679  0.1382 -0.5534
   14CHTO  H149 5657   4.602   6.790   4.533 -2.9029 -0.2057  0.8767
   14CHTO   C88 5658   4.743   6.705   4.667  0.5815  0.1049 -0.0991
   14CHTO   O58 5659   4.843   6.795   4.614  0.1258 -0.1762 -0.2469
   14CHTO  H136 5660   4.913   6.793   4.677  0.9458  1.4636 -1.0976
   14CHTO   O51 5661   4.704   6.519   4.238 -0.8813  0.4372  0.3089
   14CHTO   C78 5662   4.837   6.600   4.191 -0.1295  0.1823 -0.3246
   14CHTO  H150 5663   4.864   6.679   4.263 -0.0798 -1.5204  1.5887
   14CHTO   C80 5664   4.818   6.654   4.052 -0.0985 -0.1344  0.0903
   14CHTO  H152 5665   4.786   6.572   3.985 -3.3185  1.3497 -0.2554
   14CHTO   O55 5666   4.707   6.743   4.055 -0.2658 -0.0249  0.4370
   14CHTO  H134 5667   4.734   6.831   4.075 -1.5905  0.0675  1.8256
   14CHTO   C84 5668   4.940   6.733   4.000 -0.6060  0.0491 -0.5495
   14CHTO  H156 5669   4.959   6.817   4.067  0.4031 -1.2265  0.8075
   14CHTO   N15 5670   4.927   6.786   3.859 -0.2594 -0.1695  0.5442
   14CHTO  H143 5671   4.988   6.873   3.843  0.9724 -0.9327  1.0083
   14CHTO  H144 5672   4.954   6.714   3.785  0.3055 -0.2248  0.8012
   14CHTO   C87 5673   5.069   6.652   4.020 -0.9426  0.7836  0.1747
   14CHTO  H159 5674   5.061   6.577   3.941 -0.9927  0.8029  0.1634
   14CHTO   O53 5675   5.070   6.585   4.173 -0.1065 -0.3169  0.2893
   14CHTO   C82 5676   4.957   6.503   4.198  0.3136 -0.3496 -0.4153
   14CHTO  H154 5677   4.959   6.426   4.121 -0.0508 -2.0665  1.2582
   14CHTO   C89 5678   4.977   6.425   4.332 -0.2315 -0.3609 -0.1063
   14CHTO   O59 5679   4.996   6.510   4.449 -0.2114 -0.0584  0.0136
   14CHTO  H137 5680   4.978   6.467   4.530  0.7815 -0.5458 -0.0099
   14CHTO   O45 5681   5.201   6.750   4.005  0.6236  0.5023  0.2562
   14CHTO   C67 5682   5.303   6.676   3.932  0.0846 -0.3666 -0.0599
   14CHTO  H124 5683   5.316   6.579   3.981 -1.2005 -0.6493 -0.2508
   14CHTO   C65 5684   5.269   6.654   3.778 -0.0280  0.2880 -0.2900
   14CHTO  H122 5685   5.165   6.684   3.769  0.7066  2.7873 -0.8633
   14CHTO   O44 5686   5.282   6.511   3.753  0.2585 -0.0542  0.0047
   14CHTO  H102 5687   5.236   6.480   3.677  0.5117  2.2356 -1.1311
   14CHTO   C63 5688   5.349   6.754   3.682  1.0410 -0.1248  0.3049
   14CHTO  H120 5689   5.322   6.858   3.702 -2.1566 -0.6718 -0.9771
   14CHTO   N11 5690   5.314   6.749   3.541 -0.6047  0.0411 -0.0266
   14CHTO  H108 5691   5.338   6.648   3.517 -2.6442 -0.4288 -0.1490
   14CHTO  H109 5692   5.211   6.762   3.519 -0.8774 -1.4450  0.3267
   14CHTO   C61 5693   5.505   6.742   3.720  1.0905 -0.3609 -0.1957
   14CHTO  H118 5694   5.552   6.836   3.686 -0.1921  0.5463  0.4909
   14CHTO   O40 5695   5.535   6.721   3.857  0.1557  0.1132 -0.5138
   14CHTO   C68 5696   5.437   6.757   3.960  0.1786  0.3442 -0.0356
   14CHTO  H125 5697   5.401   6.862   3.958  0.5251  0.4618 -0.1617
   14CHTO   C72 5698   5.492   6.736   4.102 -0.0509  0.0346  0.4908
   14CHTO   O48 5699   5.543   6.602   4.109  0.0764  0.5042 -0.4177
   14CHTO  H105 5700   5.554   6.580   4.200  2.9207 -0.3393 -0.8982
   14CHTO   O38 5701   5.573   6.623   3.671 -0.3178 -0.1647  0.0857
   14CHTO   C55 5702   5.677   6.643   3.567 -0.1660  0.2343 -0.2274
   14CHTO  H112 5703   5.679   6.743   3.522 -1.7389  0.7381  0.8057
   14CHTO   C56 5704   5.650   6.536   3.460  0.0570  0.0835  0.1805
   14CHTO  H113 5705   5.673   6.445   3.518 -1.1960 -0.6990 -0.4950
   14CHTO   O42 5706   5.510   6.524   3.415  0.3432  0.0538 -0.2059
   14CHTO  H100 5707   5.499   6.592   3.350 -2.6145 -2.9368 -3.0376
   14CHTO   C57 5708   5.764   6.558   3.341  0.6498  0.5745 -0.5260
   14CHTO  H114 5709   5.738   6.652   3.292  0.7538 -0.3597 -2.3998
   14CHTO   N10 5710   5.760   6.456   3.233 -0.6934 -0.0714  0.0020
   14CHTO  H106 5711   5.688   6.475   3.155 -1.3874 -1.0280  0.3960
   14CHTO  H107 5712   5.861   6.466   3.198 -0.8472 -1.3099 -0.8229
   14CHTO   C58 5713   5.910   6.574   3.403  0.6518 -0.3513 -0.4401
   14CHTO  H115 5714   5.941   6.471   3.429  0.8484  0.2691  1.9179
   14CHTO   O37 5715   5.911   6.654   3.519 -0.2204 -0.3080  0.1165
   14CHTO   C59 5716   5.817   6.618   3.621  0.2201 -0.1363  0.4990
   14CHTO  H116 5717   5.836   6.515   3.648  0.2495 -0.5014 -0.8848
   14CHTO   C70 5718   5.843   6.702   3.750 -0.7814  0.1670 -0.7083
   14CHTO   O46 5719   5.974   6.677   3.811  0.6781  0.0962 -0.2202
   14CHTO  H103 5720   5.995   6.743   3.874  1.1400 -2.3937  2.3566
   14CHTO   O39 5721   6.009   6.644   3.282  0.4245 -0.2580 -0.1112
   14CHTO   C60 5722   6.140   6.607   3.271 -0.9227 -0.3241  0.1705
   14CHTO  H117 5723   6.183   6.677   3.200 -3.3649  0.8374 -0.2162
   14CHTO   C62 5724   6.221   6.632   3.402  0.4919  0.0192  0.0969
   14CHTO  H119 5725   6.194   6.736   3.430  0.3934 -0.0524  0.2720
   14CHTO   O43 5726   6.175   6.551   3.514 -0.6581  0.2800 -0.2920
   14CHTO  H101 5727   6.111   6.600   3.562  0.0300 -1.2195  2.2753
   14CHTO   C66 5728   6.376   6.639   3.371 -0.1183  0.0458 -0.6499
   14CHTO  H123 5729   6.396   6.715   3.296 -2.1528  1.5926  0.3126
   14CHTO   N12 5730   6.456   6.675   3.499 -0.0732  0.4060 -0.6987
   14CHTO  H110 5731   6.473   6.782   3.511  1.5535 -0.0200  1.2066
   14CHTO  H111 5732   6.405   6.644   3.589  0.8356 -0.5413 -0.5048
   14CHTO   C69 5733   6.431   6.500   3.317 -0.6409  0.4623 -0.0293
   14CHTO  H126 5734   6.437   6.418   3.392  0.2971  0.9937  0.4799
   14CHTO   O41 5735   6.324   6.437   3.206 -0.4657 -0.1933 -0.6070
   14CHTO   C64 5736   6.168   6.461   3.229 -0.2718  0.2414  0.3339
   14CHTO  H121 5737   6.127   6.394   3.307 -0.5891  1.8077  1.5560
   14CHTO   C71 5738   6.096   6.439   3.098  0.0734 -0.6535 -0.5056
   14CHTO   O47 5739   6.086   6.301   3.055  0.5717 -0.4086  0.7346
   14CHTO  H104 5740   6.163   6.259   3.086 -0.4922 -3.5522 -0.7395
   14CHTO   O34 5741   6.573   6.524   3.251  0.5889 -0.1794 -0.1163
   14CHTO   C49 5742   6.666   6.433   3.154 -0.0491  0.5267  0.0361
   14CHTO   H91 5743   6.719   6.361   3.215 -2.5078  0.7867  2.5921
   14CHTO   C47 5744   6.766   6.532   3.100  0.1744  0.7114  0.0239
   14CHTO   H89 5745   6.838   6.458   3.058 -0.4017  0.5927 -0.7820
   14CHTO   O33 5746   6.826   6.599   3.208  0.3714  0.8800  0.3357
   14CHTO   H70 5747   6.778   6.637   3.279 -0.0121 -0.1222  0.6203
   14CHTO   C45 5748   6.704   6.631   2.982  0.1798  0.6219 -0.1112
   14CHTO   H87 5749   6.694   6.731   3.028  0.2989  0.8535 -0.5927
   14CHTO    N8 5750   6.804   6.642   2.874  0.0080  0.3172  0.3509
   14CHTO   H75 5751   6.907   6.655   2.905 -0.3608 -1.0676  2.2289
   14CHTO   H76 5752   6.800   6.558   2.806  1.2055  0.2801  0.2995
   14CHTO   C43 5753   6.558   6.576   2.941  0.2456 -0.7534  0.4489
   14CHTO   H85 5754   6.491   6.621   3.014  1.9497  0.0205  1.5693
   14CHTO   O29 5755   6.544   6.433   2.933 -0.2447 -0.8779 -0.6570
   14CHTO   C50 5756   6.594   6.354   3.041  0.7166  0.1493  0.0212
   14CHTO   H92 5757   6.506   6.308   3.089 -0.0369  0.0128 -1.4568
   14CHTO   C54 5758   6.656   6.220   2.998 -0.7144  0.1212  0.0330
   14CHTO   O36 5759   6.763   6.263   2.911  0.4921  0.6208 -0.0381
   14CHTO   H72 5760   6.731   6.282   2.825  1.9776 -0.8717 -0.9632
   14CHTO   O27 5761   6.507   6.641   2.822  0.4396  0.5378  0.7711
   14CHTO   C37 5762   6.388   6.652   2.742 -0.2235 -0.1011 -0.0645
   14CHTO   H79 5763   6.408   6.657   2.634 -1.8989  2.1296 -0.3032
   14CHTO   C38 5764   6.301   6.520   2.752 -0.2278  0.0478  0.9209
   14CHTO   H80 5765   6.306   6.487   2.857  1.6228 -1.6359  0.3260
   14CHTO   O31 5766   6.377   6.417   2.681  0.6544  0.3431  0.6199
   14CHTO   H68 5767   6.467   6.441   2.669  0.7613 -0.5789 -0.4947
   14CHTO   C39 5768   6.152   6.549   2.696 -0.4571  0.5167 -0.4720
   14CHTO   H81 5769   6.164   6.562   2.588 -0.1035 -0.6526 -0.5795
   14CHTO    N7 5770   6.075   6.428   2.718 -0.1700  0.1420 -0.6918
   14CHTO   H73 5771   6.029   6.429   2.816 -0.3008 -0.5082 -0.7416
   14CHTO   H74 5772   6.101   6.336   2.668 -1.0942 -0.7491  0.4386
   14CHTO   C40 5773   6.089   6.681   2.757  0.1754 -0.1129  0.5573
   14CHTO   H82 5774   6.073   6.688   2.864  1.2190 -0.9158  0.7792
   14CHTO   O26 5775   6.184   6.785   2.709  0.8443 -0.0276 -0.0389
   14CHTO   C41 5776   6.307   6.781   2.791  0.6489  0.3576  0.1848
   14CHTO   H83 5777   6.297   6.772   2.901  2.9793  0.6887  0.4438
   14CHTO   C52 5778   6.388   6.909   2.763 -0.0438 -0.4630 -0.3918
   14CHTO   O35 5779   6.490   6.911   2.873  0.1222 -0.1606  0.6555
   14CHTO   H71 5780   6.565   6.962   2.847  1.1575 -0.5411  2.7494
   14CHTO   O28 5781   5.964   6.718   2.693 -0.4048  0.1054  0.6095
   14CHTO   C42 5782   5.879   6.812   2.755 -0.1581 -0.3514  0.6138
   14CHTO   H84 5783   5.801   6.816   2.678  0.4450 -1.5013 -0.0747
   14CHTO   C44 5784   5.924   6.956   2.771  0.6293 -0.4220  0.0155
   14CHTO   H86 5785   6.015   6.955   2.832  0.3411  0.5271  0.4664
   14CHTO   O32 5786   5.974   7.002   2.645 -0.4581  0.1670  0.0454
   14CHTO   H69 5787   5.908   7.019   2.581 -0.0860  0.6556 -0.2117
   14CHTO   C48 5788   5.814   7.054   2.841 -0.0589  0.2131 -0.8533
   14CHTO   H90 5789   5.729   7.057   2.773  0.5290  1.2395 -1.5612
   14CHTO    N9 5790   5.858   7.195   2.857  0.0835  0.7830  0.0483
   14CHTO   H77 5791   5.938   7.191   2.929 -0.5368  0.1060  0.7152
   14CHTO   H78 5792   5.892   7.236   2.763 -0.5198 -0.5798 -0.7961
   14CHTO   C51 5793   5.768   6.981   2.968 -0.5518 -0.2282  0.0456
   14CHTO   H93 5794   5.849   6.980   3.041  0.1384  1.4196 -0.6879
   14CHTO   O30 5795   5.727   6.851   2.936 -0.2780  0.0242  0.1708
   14CHTO   C46 5796   5.810   6.766   2.881  0.2333 -0.4290 -0.3099
   14CHTO   H88 5797   5.891   6.751   2.951  0.9359  2.7551 -0.3441
   14CHTO   C53 5798   5.740   6.630   2.870 -0.6437 -0.0203 -0.2601
   14CHTO   O72 5799   5.621   6.613   2.794  0.0879 -0.0733 -0.1978
   14CHTO  H199 5800   5.640   6.618   2.702  0.5520 -1.0277 -0.1560
   14CHTO   O22 5801   5.653   7.041   3.028 -0.3372 -0.0496  0.1265
   14CHTO   C31 5802   5.649   7.056   3.179 -0.8024 -0.7135 -0.1850
   14CHTO   H59 5803   5.725   6.987   3.219 -1.7012 -0.2742  2.3333
   14CHTO   C29 5804   5.689   7.195   3.230 -0.2276  0.3984  0.2364
   14CHTO   H57 5805   5.621   7.266   3.182  0.1661 -0.1300 -1.1481
   14CHTO   O21 5806   5.818   7.229   3.179 -0.0037  0.0491 -0.2631
   14CHTO   H37 5807   5.813   7.236   3.085 -2.9644 -1.1275 -0.2730
   14CHTO   C27 5808   5.676   7.212   3.386  0.2696  0.5494 -0.2151
   14CHTO   H55 5809   5.747   7.145   3.436 -0.8508 -0.1073  0.5051
   14CHTO    N5 5810   5.707   7.355   3.426  0.6461  0.0400  0.0919
   14CHTO   H43 5811   5.809   7.387   3.413  0.6701 -0.4066 -0.8513
   14CHTO   H44 5812   5.628   7.409   3.376 -0.8164 -1.0403  1.2115
   14CHTO   C25 5813   5.531   7.167   3.433 -0.1750 -0.2918 -0.4892
   14CHTO   H53 5814   5.458   7.243   3.400  0.1093 -0.2613 -1.0647
   14CHTO   O17 5815   5.496   7.033   3.381 -0.0367 -0.4950 -0.1545
   14CHTO   C32 5816   5.512   7.011   3.239  0.4878 -0.2631 -0.2215
   14CHTO   H60 5817   5.440   7.070   3.182  0.2411  0.0574  0.4178
   14CHTO   C36 5818   5.478   6.866   3.213 -0.0049 -0.1082 -0.0978
   14CHTO   O25 5819   5.330   6.852   3.215 -0.1370  0.0753  0.2210
   14CHTO   H40 5820   5.299   6.867   3.302 -0.4841 -0.4009  0.1782
   14CHTO   O15 5821   5.528   7.152   3.615  0.4514  0.5546  0.0991
   14CHTO   C19 5822   5.515   7.138   3.759 -0.1608  0.4089 -0.5298
   14CHTO   H47 5823   5.501   7.030   3.766  1.6696  0.2476  0.9773
   14CHTO   C20 5824   5.651   7.178   3.841 -0.4350 -0.0886 -0.2901
   14CHTO   H48 5825   5.690   7.278   3.815 -0.4167 -0.6193 -2.3845
   14CHTO   O19 5826   5.763   7.091   3.795  0.5292 -0.5798 -0.1090
   14CHTO   H35 5827   5.839   7.144   3.782 -0.3635  1.1497  1.3889
   14CHTO   C21 5828   5.623   7.158   3.997 -0.2081 -0.2205  0.0457
   14CHTO   H49 5829   5.641   7.053   4.022  0.6272  0.0272  0.4979
   14CHTO    N4 5830   5.737   7.237   4.051 -0.0723  0.1527 -0.2075
   14CHTO   H41 5831   5.708   7.275   4.148  0.1565  0.1687 -0.1445
   14CHTO   H42 5832   5.825   7.175   4.058 -0.2793 -0.1435 -0.2450
   14CHTO   C22 5833   5.485   7.213   4.036  0.1100  0.0305 -0.4080
   14CHTO   H50 5834   5.500   7.321   4.029 -0.3566 -0.0022 -2.0660
   14CHTO   O14 5835   5.375   7.167   3.951  0.5062  0.0417 -0.4045
   14CHTO   C23 5836   5.386   7.202   3.815 -0.1210 -0.4495  0.3255
   14CHTO   H51 5837   5.387   7.311   3.808  1.7618 -0.3998  1.1337
   14CHTO   C34 5838   5.262   7.149   3.739 -0.6626  1.1685  0.0421
   14CHTO   O23 5839   5.137   7.197   3.794  0.3365 -0.9684 -0.0263
   14CHTO   H38 5840   5.068   7.173   3.735  0.8991  1.7027 -1.8398
   14CHTO   O16 5841   5.460   7.170   4.171 -0.3314  0.2613 -0.4874
   14CHTO   C24 5842   5.337   7.242   4.261  0.3420  0.0307  0.0302
   14CHTO   H52 5843   5.266   7.299   4.201 -0.6322  0.8445  1.8931
   14CHTO   C26 5844   5.399   7.343   4.361 -0.1654  0.5898  0.1260
   14CHTO   H54 5845   5.485   7.293   4.409  0.0957 -0.2723 -1.1933
   14CHTO   O20 5846   5.452   7.451   4.276  0.5433 -0.0763 -0.1599
   14CHTO   H36 5847   5.529   7.486   4.316 -0.4129  0.5094  1.2335
   14CHTO   C30 5848   5.287   7.389   4.462 -0.3605 -0.2766 -0.4008
   14CHTO   H58 5849   5.210   7.445   4.408 -0.8481  0.1210  0.7077
   14CHTO    N6 5850   5.359   7.476   4.558 -0.6214  0.2340 -0.0578
   14CHTO   H45 5851   5.319   7.575   4.572 -0.6829  0.1358  0.4549
   14CHTO   H46 5852   5.382   7.432   4.654  1.3604  1.3987  0.0206
   14CHTO   C33 5853   5.217   7.268   4.528 -0.2906  0.4555  0.0731
   14CHTO   H61 5854   5.288   7.209   4.588  0.9655 -1.3079 -2.9749
   14CHTO   O18 5855   5.167   7.180   4.422 -0.2212 -0.0926 -0.1478
   14CHTO   C28 5856   5.261   7.130   4.331  0.8770  0.3094 -0.4656
   14CHTO   H56 5857   5.335   7.068   4.382  0.5286  1.2471  1.2246
   14CHTO   C35 5858   5.188   7.054   4.226 -0.2373 -0.5207 -0.4456
   14CHTO   O24 5859   5.125   6.932   4.278  0.3918 -0.0573 -0.0226
   14CHTO   H39 5860   5.169   6.855   4.247  1.3811  0.9071 -1.0828
   14CHTO    O9 5861   5.109   7.311   4.615 -0.1146 -0.3373 -0.0115
   14CHTO   C13 5862   5.058   7.168   4.702  0.0541 -0.2635  0.3636
   14CHTO   H26 5863   5.067   7.080   4.635 -1.8591  0.4851 -0.9257
   14CHTO   C11 5864   4.903   7.191   4.748  0.1603 -0.7534 -0.2219
   14CHTO   H24 5865   4.827   7.189   4.669  0.0470 -0.1741 -0.1305
   14CHTO    O8 5866   4.887   7.325   4.805 -0.0871 -0.1523  0.8385
   14CHTO    H3 5867   4.959   7.381   4.782 -1.0714  1.4683  1.6038
   14CHTO    C9 5868   4.863   7.083   4.849 -0.2909 -0.1288 -0.8374
   14CHTO   H22 5869   4.893   6.987   4.806 -0.0247  0.0289 -1.0122
   14CHTO    N2 5870   4.721   7.067   4.874  0.1979 -0.3653  0.0723
   14CHTO   H10 5871   4.689   6.964   4.865 -0.0459 -0.1917 -1.1299
   14CHTO   H11 5872   4.660   7.145   4.830  2.0524 -0.7241 -3.2812
   14CHTO    C7 5873   4.959   7.083   4.970 -0.4402  0.7045  0.8197
   14CHTO   H20 5874   4.935   6.999   5.039  1.4102  0.7717  1.5846
   14CHTO    O4 5875   5.099   7.070   4.930 -0.0816  0.1137  0.0046
   14CHTO   C14 5876   5.157   7.156   4.829 -0.0686 -0.2154 -0.0061
   14CHTO   H27 5877   5.255   7.115   4.797 -1.0131 -0.7159 -2.3644
   14CHTO   C18 5878   5.187   7.300   4.891  0.1410  0.6793 -0.1058
   14CHTO   O13 5879   5.297   7.311   4.981 -0.4518  0.1659 -0.0273
   14CHTO    H7 5880   5.277   7.268   5.062 -0.6457 -0.5339 -0.4371
   14CHTO    O2 5881   4.941   7.222   5.072  0.1643  0.3828  0.1921
   14CHTO    C1 5882   4.922   7.193   5.214  0.4124  0.0326 -0.2816
   14CHTO   H14 5883   4.928   7.082   5.218  0.0369 -0.0141 -0.9284
   14CHTO    C2 5884   4.785   7.230   5.286  0.3620 -0.5506 -0.5676
   14CHTO   H15 5885   4.767   7.339   5.281  0.8079 -0.3320  1.9418
   14CHTO    O6 5886   4.676   7.170   5.223  0.4881 -0.4510 -0.4633
   14CHTO    H1 5887   4.679   7.206   5.137 -1.4743  0.6653 -0.0897
   14CHTO    C3 5888   4.785   7.193   5.442 -0.3998 -0.4001  0.0172
   14CHTO   H16 5889   4.778   7.084   5.451 -2.5847 -0.1143  2.2289
   14CHTO    N1 5890   4.663   7.248   5.509  0.0249 -0.0314 -0.3126
   14CHTO    H8 5891   4.634   7.178   5.586  0.9046  1.1537  1.1234
   14CHTO    H9 5892   4.701   7.331   5.567  0.1400  0.3523 -0.9299
   14CHTO    C4 5893   4.928   7.235   5.505  0.3593  0.2579  0.0942
   14CHTO   H17 5894   4.938   7.344   5.515 -1.0964  0.4779 -0.7675
   14CHTO    O1 5895   5.039   7.189   5.431 -0.2361 -0.6334 -0.0234
   14CHTO    C5 5896   5.044   7.238   5.293 -0.0809  0.3263  0.1562
   14CHTO   H18 5897   5.050   7.346   5.294  3.1194  0.1789 -0.0440
   14CHTO   C16 5898   5.177   7.188   5.246  0.0525  0.0673 -0.4865
   14CHTO   O11 5899   5.185   7.043   5.233  0.3420 -0.1118 -0.3752
   14CHTO    H5 5900   5.236   7.024   5.157  0.5847 -2.9153  0.4186
   14CHTO    O3 5901   4.941   7.179   5.636  0.4241 -0.4402  0.8345
   14CHTO    C6 5902   4.984   7.238   5.760 -0.3309  0.5500  0.1315
   14CHTO   H19 5903   5.064   7.177   5.801 -0.6639 -0.8700 -1.2895
   14CHTO    C8 5904   5.044   7.388   5.748 -0.2686  0.2549  0.0381
   14CHTO   H21 5905   4.967   7.450   5.704 -0.3282  1.6164  1.9818
   14CHTO    O7 5906   5.166   7.396   5.665 -0.3977  0.2394  0.3607
   14CHTO    H2 5907   5.164   7.339   5.591  1.3836  0.0292  0.4666
   14CHTO   C12 5908   5.070   7.457   5.887  0.4881  0.3469 -0.4281
   14CHTO   H25 5909   5.159   7.412   5.935  0.9470 -0.8318 -2.3056
   14CHTO    N3 5910   5.093   7.604   5.874  0.5414 -0.1329  0.1585
   14CHTO   H12 5911   5.175   7.621   5.805  0.4397  0.4923  0.1924
   14CHTO   H13 5912   5.126   7.635   5.972  0.0987  1.7886 -0.2695
   14CHTO   C15 5913   4.939   7.430   5.976  0.1032  0.0237  0.4307
   14CHTO   H28 5914   4.847   7.472   5.936  0.3180  0.7188  0.6444
   14CHTO   O10 5915   4.953   7.476   6.120 -0.0243  0.1841  0.1156
   14CHTO    H4 5916   4.898   7.435   6.184  1.1330 -0.6880  0.5570
   14CHTO    O5 5917   4.913   7.287   5.988  0.1833  0.2173  0.1018
   14CHTO   C10 5918   4.864   7.224   5.866 -0.5315  0.1665  0.1879
   14CHTO   H23 5919   4.774   7.272   5.829 -0.3220 -0.4769 -1.1905
   14CHTO   C17 5920   4.833   7.075   5.900  0.6125  0.4660  0.1186
   14CHTO   O12 5921   4.731   7.021   5.816  0.4003  0.0123  0.0917
   14CHTO    H6 5922   4.751   6.941   5.772 -0.4033 -0.7945  1.1845
   15CHTO  H203 5923   5.396   5.976   4.341  1.6197  1.2574  0.1513
   15CHTO   O82 5924   5.377   5.982   4.250  0.1054 -1.0360  0.2766
   15CHTO  C123 5925   5.406   5.858   4.190  0.0822 -0.0546 -0.0285
   15CHTO  H227 5926   5.428   5.789   4.273 -2.7221  0.7904  1.5075
   15CHTO   O77 5927   5.278   5.815   4.141  0.0022  0.1232  0.5197
   15CHTO  C118 5928   5.277   5.687   4.076 -0.1320  0.5166 -0.5028
   15CHTO  H222 5929   5.285   5.613   4.157  2.6488 -0.1741 -1.3360
   15CHTO  C125 5930   5.138   5.675   4.014 -0.5307 -0.5009  0.2661
   15CHTO   O84 5931   5.030   5.664   4.111  0.3936  0.2422  0.6333
   15CHTO  H205 5932   5.036   5.578   4.147  0.0785  0.3159  0.8696
   15CHTO  C114 5933   5.387   5.664   3.973 -0.6592  0.1447  0.3878
   15CHTO  H218 5934   5.363   5.727   3.888 -0.4411  0.7891  0.7944
   15CHTO  C116 5935   5.525   5.721   4.021 -0.1639 -0.6945 -0.1314
   15CHTO  H220 5936   5.573   5.655   4.097 -1.1144 -0.5190  0.6329
   15CHTO   O79 5937   5.610   5.715   3.911  0.4251 -0.2965  0.4417
   15CHTO  H201 5938   5.671   5.645   3.926 -1.0555 -1.6544  0.2683
   15CHTO  C120 5939   5.509   5.863   4.084 -0.0944  0.2331 -0.4110
   15CHTO  H224 5940   5.468   5.920   3.998 -2.3240 -0.3093  0.2332
   15CHTO   N21 5941   5.638   5.923   4.131 -0.3525 -0.1327 -0.4321
   15CHTO  H211 5942   5.659   5.914   4.237 -2.4583  2.9943  0.3256
   15CHTO  H212 5943   5.657   6.023   4.095 -0.0648  0.9768  2.6019
   15CHTO   O75 5944   5.380   5.524   3.945 -0.8692  0.2998 -0.2219
   15CHTO  C112 5945   5.471   5.421   4.014 -0.8901 -0.4393  0.1959
   15CHTO  H216 5946   5.497   5.446   4.118  0.7806  1.8637 -0.7323
   15CHTO   O73 5947   5.589   5.422   3.933  0.0054 -0.0892 -0.4096
   15CHTO  C113 5948   5.693   5.334   3.971 -0.3254 -0.4972 -0.3427
   15CHTO  H217 5949   5.734   5.345   4.074 -2.0355  0.9641  0.2018
   15CHTO  C124 5950   5.813   5.373   3.880  0.4659  0.2644 -0.4634
   15CHTO   O83 5951   5.936   5.320   3.932 -0.3454 -0.4980 -0.3489
   15CHTO  H204 5952   5.938   5.226   3.931 -1.1281 -0.5308  0.5782
   15CHTO  C109 5953   5.652   5.185   3.950  0.3246 -0.1353 -0.2440
   15CHTO  H213 5954   5.660   5.170   3.841 -1.1179  0.8054 -0.4937
   15CHTO  C110 5955   5.503   5.162   4.003  0.4235 -0.0522 -0.6141
   15CHTO  H214 5956   5.506   5.140   4.110  0.1717 -0.0220 -0.6000
   15CHTO   O78 5957   5.454   5.038   3.949 -0.1538  0.6451 -0.2737
   15CHTO  H200 5958   5.492   4.961   3.987 -1.3854 -0.4582 -1.1832
   15CHTO  C111 5959   5.398   5.279   3.989  0.0526 -0.7995  0.6297
   15CHTO  H215 5960   5.367   5.285   3.884  1.1019  3.0875  0.4582
   15CHTO   N19 5961   5.274   5.263   4.071 -0.0282  0.2702 -0.7336
   15CHTO  H207 5962   5.243   5.363   4.096 -1.9674 -0.6646  0.6833
   15CHTO  H208 5963   5.211   5.196   4.014 -0.7412  0.6552 -0.4017
   15CHTO   O74 5964   5.745   5.086   4.010  0.3174 -0.1624 -0.5174
   15CHTO  C115 5965   5.755   4.947   3.906 -0.9312 -0.1394 -0.1069
   15CHTO  H219 5966   5.663   4.933   3.850 -0.5285  1.1674 -1.1198
   15CHTO   O76 5967   5.877   4.962   3.797  0.4138  0.3882 -0.2611
   15CHTO  C122 5968   5.962   4.853   3.770  0.4523  0.1770  0.6288
   15CHTO  H226 5969   6.064   4.879   3.801  1.1705 -1.4948 -0.3067
   15CHTO  C126 5970   5.973   4.837   3.620 -0.2579  0.2504 -0.2291
   15CHTO   O85 5971   5.845   4.826   3.557 -0.1989 -0.2510 -0.4248
   15CHTO  H206 5972   5.820   4.737   3.569 -1.3193  0.3770  2.2832
   15CHTO  C121 5973   5.934   4.710   3.835  0.3929  0.2629 -0.4245
   15CHTO  H225 5974   5.912   4.637   3.754 -2.5694  1.1364 -0.4886
   15CHTO   O81 5975   6.047   4.667   3.907  0.3322  0.3115 -0.6024
   15CHTO  H202 5976   6.042   4.584   3.950  0.1817  0.7455  0.2311
   15CHTO  C119 5977   5.801   4.709   3.918 -0.1939  0.1578  0.3454
   15CHTO  H223 5978   5.717   4.701   3.850  1.4364 -1.7016 -1.5425
   15CHTO  C117 5979   5.778   4.833   4.006 -0.6483 -0.2170  0.1116
   15CHTO  H221 5980   5.866   4.861   4.063  0.0134 -0.9041 -0.5437
   15CHTO   N20 5981   5.660   4.823   4.105  0.4951  0.3728 -0.4736
   15CHTO  H209 5982   5.660   4.899   4.182  0.8523 -0.5073  0.4021
   15CHTO  H210 5983   5.568   4.838   4.051  0.2030  0.3372  0.0037
   15CHTO   O80 5984   5.794   4.573   3.988 -0.3334  0.1476  0.0554
   15CHTO  C103 5985   5.680   4.448   3.936  0.5229 -0.4511  0.3382
   15CHTO  H190 5986   5.702   4.363   4.001 -0.4702 -0.7554  0.2749
   15CHTO  C101 5987   5.520   4.471   3.956 -0.3291  0.0320  0.2647
   15CHTO  H188 5988   5.502   4.568   3.909 -2.7652 -0.7973 -0.5718
   15CHTO   O68 5989   5.478   4.481   4.099 -0.8741  0.3397  0.8061
   15CHTO  H168 5990   5.410   4.544   4.088 -0.2563  1.2391  1.9427
   15CHTO   C99 5991   5.440   4.359   3.875 -0.2707  0.2042  0.4119
   15CHTO  H186 5992   5.455   4.260   3.924  0.9903  0.1062 -0.1558
   15CHTO   N17 5993   5.294   4.380   3.872 -0.3598  0.5083  0.1477
   15CHTO  H174 5994   5.247   4.388   3.969 -1.5214 -0.5823 -0.3085
   15CHTO  H175 5995   5.270   4.464   3.808  0.6064  0.0387 -0.8518
   15CHTO   C97 5996   5.502   4.344   3.733 -0.2721  0.0480  0.1749
   15CHTO  H184 5997   5.487   4.437   3.677 -0.1544 -0.8931 -1.4304
   15CHTO   O64 5998   5.639   4.311   3.740 -0.4095 -0.1496 -0.1413
   15CHTO  C104 5999   5.730   4.408   3.784 -0.2381  0.3150 -0.3032
   15CHTO  H191 6000   5.728   4.500   3.726  2.0359  0.6232  0.0383
   15CHTO  C108 6001   5.873   4.359   3.779  0.0284  0.7481 -0.2911
   15CHTO   O71 6002   5.903   4.232   3.838  0.7692 -0.1087  0.1702
   15CHTO  H171 6003   5.907   4.166   3.771 -1.8852  0.1394 -0.2774
   15CHTO   O62 6004   5.454   4.227   3.670 -0.0858 -0.0889 -0.3198
   15CHTO   C91 6005   5.363   4.257   3.565 -0.0295  0.2135  0.6382
   15CHTO  H178 6006   5.330   4.361   3.571  0.1636  0.2006  1.9300
   15CHTO   C92 6007   5.237   4.169   3.577 -0.6796 -1.0723 -0.4362
   15CHTO  H179 6008   5.216   4.167   3.685  0.0761  0.4493 -0.2397
   15CHTO   O66 6009   5.126   4.229   3.512 -0.3890  0.8492  0.1919
   15CHTO  H166 6010   5.151   4.280   3.437 -1.4802  0.0513 -0.7406
   15CHTO   C93 6011   5.253   4.028   3.509  0.7877 -0.8448  0.0359
   15CHTO  H180 6012   5.153   3.983   3.507  0.1573  0.5683 -1.1205
   15CHTO   N16 6013   5.337   3.938   3.584 -0.2213  0.3429 -0.0524
   15CHTO  H172 6014   5.278   3.864   3.635  0.1672  0.7529  1.0032
   15CHTO  H173 6015   5.423   3.979   3.635  0.6471  1.6715 -2.5100
   15CHTO   C94 6016   5.290   4.043   3.357 -0.1838  0.5770  0.2917
   15CHTO  H181 6017   5.373   3.979   3.327 -1.8388 -0.9964 -0.9980
   15CHTO   O61 6018   5.332   4.184   3.325  0.0401 -0.3151 -0.2734
   15CHTO   C95 6019   5.429   4.238   3.417  0.4175 -0.0539  0.5149
   15CHTO  H182 6020   5.512   4.168   3.417  0.1248 -0.4096 -0.2171
   15CHTO  C106 6021   5.493   4.373   3.371 -0.3834  0.2587  0.1020
   15CHTO   O69 6022   5.554   4.352   3.248 -0.5535 -0.2894 -0.0746
   15CHTO  H169 6023   5.638   4.393   3.237  0.6963 -2.3143  1.8026
   15CHTO   O63 6024   5.169   4.000   3.268  0.4193 -0.0520 -0.4252
   15CHTO   C96 6025   5.224   3.946   3.129 -0.1879 -0.1016 -0.3360
   15CHTO  H183 6026   5.333   3.950   3.132 -0.1274 -0.5337 -1.5787
   15CHTO   C98 6027   5.171   4.045   3.024  0.4976 -0.1345 -0.2159
   15CHTO  H185 6028   5.064   4.067   3.036  0.6263  0.3408  0.0976
   15CHTO   O67 6029   5.233   4.172   3.053 -0.1309 -0.9418 -0.2029
   15CHTO  H167 6030   5.187   4.217   3.121  0.9459  1.9686 -1.3055
   15CHTO  C102 6031   5.207   4.005   2.871  0.3104 -0.8282  0.7092
   15CHTO  H189 6032   5.316   4.016   2.860  0.0147  0.0125 -1.7353
   15CHTO   N18 6033   5.151   4.083   2.760 -0.5563  0.3579  0.6460
   15CHTO  H176 6034   5.198   4.181   2.760  0.8439 -0.3089  0.0949
   15CHTO  H177 6035   5.044   4.084   2.743 -0.4144  0.1427 -0.2980
   15CHTO  C105 6036   5.162   3.855   2.856 -0.3815 -0.5462 -0.3869
   15CHTO  H192 6037   5.054   3.851   2.867 -0.3048 -0.1819  0.5559
   15CHTO   O65 6038   5.221   3.774   2.957 -0.2839 -0.1006 -0.4687
   15CHTO  C100 6039   5.171   3.802   3.089  0.1108 -0.4814  0.2913
   15CHTO  H187 6040   5.062   3.800   3.086  0.1316 -2.3499  0.3270
   15CHTO  C107 6041   5.217   3.688   3.185 -0.5346  0.1595  0.1839
   15CHTO   O70 6042   5.178   3.723   3.318  0.4935  0.0926  0.0517
   15CHTO  H170 6043   5.129   3.648   3.348 -1.5322  0.8694 -1.1448
   15CHTO   O57 6044   5.228   3.793   2.707 -0.7665  0.7071 -0.0265
   15CHTO   C85 6045   5.189   3.669   2.647  0.3753 -0.3592 -0.0860
   15CHTO  H157 6046   5.108   3.631   2.713  0.5404  0.5405  0.6522
   15CHTO   C83 6047   5.303   3.557   2.662  0.4207  0.2845 -0.3615
   15CHTO  H155 6048   5.323   3.540   2.768 -1.2182  0.6731  0.0261
   15CHTO   O56 6049   5.424   3.597   2.588 -0.1061  0.6791  0.5649
   15CHTO  H135 6050   5.498   3.565   2.635  1.0325  1.7602 -0.4493
   15CHTO   C81 6051   5.236   3.429   2.614  0.0412 -0.1695  0.4267
   15CHTO  H153 6052   5.139   3.427   2.664  1.1917  0.4850  2.7779
   15CHTO   N14 6053   5.306   3.309   2.665 -0.4011  1.0515 -0.6733
   15CHTO  H141 6054   5.291   3.309   2.771 -0.9617  0.9057 -0.7492
   15CHTO  H142 6055   5.271   3.218   2.620 -1.6749  1.9528 -1.5706
   15CHTO   C79 6056   5.205   3.437   2.454 -0.0834  0.1345  0.4546
   15CHTO  H151 6057   5.146   3.350   2.427 -1.5923  1.2292  0.1002
   15CHTO   O52 6058   5.105   3.546   2.435 -0.2231  0.5063 -0.8826
   15CHTO   C86 6059   5.141   3.675   2.487 -0.3442 -0.0577 -0.1713
   15CHTO  H158 6060   5.217   3.719   2.419 -2.1187  1.1090 -1.4388
   15CHTO   C90 6061   5.021   3.763   2.480 -0.5901 -0.1989 -0.4315
   15CHTO   O60 6062   5.035   3.900   2.511  0.3085 -0.1308  0.2454
   15CHTO  H138 6063   5.100   3.925   2.574  0.6941  0.1889 -0.2850
   15CHTO   O50 6064   5.317   3.459   2.373  0.2692  0.4042  0.3342
   15CHTO   C73 6065   5.332   3.439   2.225 -0.0614  0.2827 -0.1241
   15CHTO  H145 6066   5.245   3.475   2.169 -0.7819  2.3563  2.2402
   15CHTO   C74 6067   5.347   3.286   2.196 -0.2307  0.2116  0.1610
   15CHTO  H146 6068   5.259   3.233   2.236 -0.3912  0.5948  0.3076
   15CHTO   O54 6069   5.348   3.255   2.059  0.0460  0.0722 -0.2718
   15CHTO  H133 6070   5.428   3.281   2.019  1.6061 -0.3654  2.4818
   15CHTO   C75 6071   5.482   3.231   2.268  0.5655  0.2673 -0.0067
   15CHTO  H147 6072   5.480   3.250   2.377 -1.9768  1.9032 -0.3013
   15CHTO   N13 6073   5.508   3.081   2.262  0.2139  0.2305  0.0989
   15CHTO  H139 6074   5.611   3.065   2.291  0.0527 -0.5061  0.2694
   15CHTO  H140 6075   5.491   3.057   2.158  0.1774 -5.4643  1.2563
   15CHTO   C76 6076   5.605   3.323   2.223 -0.2580  0.1390 -0.4262
   15CHTO  H148 6077   5.608   3.310   2.115 -1.7603 -1.0572 -0.3446
   15CHTO   O49 6078   5.581   3.461   2.254  0.3100  0.4923  0.5573
   15CHTO   C77 6079   5.462   3.513   2.183  0.4446  0.3727 -0.6220
   15CHTO  H149 6080   5.474   3.496   2.076  1.5936  0.9895 -0.6069
   15CHTO   C88 6081   5.442   3.668   2.203  0.5661  0.4557  0.7343
   15CHTO   O58 6082   5.556   3.756   2.148  0.2214  0.0598  0.5293
   15CHTO  H136 6083   5.567   3.742   2.055  0.4111  2.2597  0.1992
   15CHTO   O51 6084   5.747   3.280   2.315  0.0264 -0.1598  0.2768
   15CHTO   C78 6085   5.874   3.310   2.264  0.9984 -0.2308  0.8615
   15CHTO  H150 6086   5.865   3.394   2.192 -1.1104 -1.9792 -1.0116
   15CHTO   C80 6087   5.933   3.186   2.196 -0.7267  0.0519  0.0501
   15CHTO  H152 6088   5.945   3.104   2.270  1.6672 -0.1522 -0.5313
   15CHTO   O55 6089   5.848   3.140   2.089  0.1748  0.2093 -0.2821
   15CHTO  H134 6090   5.757   3.133   2.110  0.5555 -2.1152  0.6847
   15CHTO   C84 6091   6.082   3.213   2.149 -0.6363  0.9305  0.7975
   15CHTO  H156 6092   6.085   3.293   2.075 -1.2968 -0.8454 -1.2200
   15CHTO   N15 6093   6.152   3.092   2.089 -0.3161 -0.2226  0.4402
   15CHTO  H143 6094   6.093   3.068   2.003 -0.3622 -2.7881  1.1493
   15CHTO  H144 6095   6.253   3.116   2.062  0.3954 -3.8863 -0.3069
   15CHTO   C87 6096   6.165   3.262   2.266  0.3546  0.1300  0.0153
   15CHTO  H159 6097   6.172   3.192   2.349  0.7073 -0.3335 -0.4058
   15CHTO   O53 6098   6.088   3.391   2.313  0.4758 -0.2622 -0.3195
   15CHTO   C82 6099   5.961   3.372   2.375  0.1204 -0.6134 -0.0900
   15CHTO  H154 6100   5.970   3.307   2.462 -0.7266  0.8510  1.1201
   15CHTO   C89 6101   5.909   3.509   2.422  0.1106 -0.1590 -0.5740
   15CHTO   O59 6102   5.782   3.494   2.477  0.4040  0.1200 -0.3589
   15CHTO  H137 6103   5.778   3.535   2.561 -1.9459 -0.2808 -0.2442
   15CHTO   O45 6104   6.306   3.315   2.196 -1.0423  0.0414  0.9867
   15CHTO   C67 6105   6.403   3.365   2.287 -0.4047 -0.2363  0.2892
   15CHTO  H124 6106   6.341   3.395   2.372  1.2858 -0.5138  1.6445
   15CHTO   C65 6107   6.513   3.256   2.333  0.5048 -0.1774 -0.1453
   15CHTO  H122 6108   6.541   3.192   2.250  1.4558  0.1459 -0.0764
   15CHTO   O44 6109   6.444   3.181   2.444  0.1460  0.0402  0.1362
   15CHTO  H102 6110   6.427   3.246   2.509 -5.2490 -1.1332  0.1390
   15CHTO   C63 6111   6.657   3.325   2.359  0.3610 -0.0768 -0.0470
   15CHTO  H120 6112   6.714   3.339   2.268  1.3744  2.7697  0.9651
   15CHTO   N11 6113   6.754   3.235   2.429 -0.2944 -0.5606 -0.3490
   15CHTO  H108 6114   6.760   3.135   2.391  1.0108 -0.5220 -0.2553
   15CHTO  H109 6115   6.851   3.279   2.418 -2.0457  3.7776  0.3793
   15CHTO   C61 6116   6.634   3.468   2.425  0.2554 -0.1401  0.7692
   15CHTO  H118 6117   6.732   3.513   2.443  0.5687 -1.0275  1.2648
   15CHTO   O40 6118   6.555   3.556   2.342 -0.0401  0.6305  0.2124
   15CHTO   C68 6119   6.480   3.498   2.236  0.1503  0.0942 -0.5355
   15CHTO  H125 6120   6.551   3.472   2.155 -1.1244 -0.8920 -1.3662
   15CHTO   C72 6121   6.388   3.594   2.178  0.2217  0.4919  0.0398
   15CHTO   O48 6122   6.454   3.704   2.112  0.2285 -0.3000 -0.0258
   15CHTO  H105 6123   6.489   3.760   2.179 -2.6602  1.8921 -0.2299
   15CHTO   O38 6124   6.575   3.463   2.561  0.3912  0.1303  0.2091
   15CHTO   C55 6125   6.566   3.589   2.635 -0.3183  0.3781 -0.6294
   15CHTO  H112 6126   6.596   3.673   2.569  0.4050 -2.3020 -3.8735
   15CHTO   C56 6127   6.667   3.576   2.756  0.3973  0.1376 -0.6900
   15CHTO  H113 6128   6.644   3.484   2.812  2.8217 -0.6710 -0.9647
   15CHTO   O42 6129   6.806   3.562   2.703  0.3916 -0.6301 -0.1911
   15CHTO  H100 6130   6.860   3.525   2.770 -1.3383  0.9646  2.1950
   15CHTO   C57 6131   6.660   3.702   2.851 -0.3412  0.0982 -0.5048
   15CHTO  H114 6132   6.702   3.787   2.797  2.0071  0.4079  1.7072
   15CHTO   N10 6133   6.739   3.688   2.974 -0.4356  0.1129 -0.7074
   15CHTO  H106 6134   6.734   3.584   3.001 -0.4854 -0.1882 -1.8406
   15CHTO  H107 6135   6.844   3.709   2.960 -0.5793  2.0065  0.7300
   15CHTO   C58 6136   6.512   3.725   2.883 -0.0143 -0.4308 -0.3118
   15CHTO  H115 6137   6.480   3.651   2.960 -0.4011  0.1541  0.0871
   15CHTO   O37 6138   6.417   3.725   2.770 -0.4758 -0.4676 -0.6363
   15CHTO   C59 6139   6.416   3.605   2.690  0.0678 -0.2010  0.6171
   15CHTO  H116 6140   6.380   3.523   2.753  1.6034 -1.3039  0.0972
   15CHTO   C70 6141   6.310   3.608   2.578  0.0186 -0.2176 -0.3343
   15CHTO   O46 6142   6.310   3.724   2.493  0.4922 -0.2367 -0.0418
   15CHTO  H103 6143   6.278   3.705   2.407 -0.9178 -0.3302  0.4931
   15CHTO   O39 6144   6.503   3.876   2.940  0.5500 -0.3094 -0.1627
   15CHTO   C60 6145   6.397   3.887   3.037  0.7792  0.1206 -0.3354
   15CHTO  H117 6146   6.316   3.818   3.013  0.9160 -0.7962  1.7464
   15CHTO   C62 6147   6.433   3.859   3.185 -0.8177  0.0702  0.3404
   15CHTO  H119 6148   6.472   3.756   3.198 -1.3715 -0.2677 -0.6297
   15CHTO   O43 6149   6.554   3.941   3.218  0.3943 -0.3745 -0.1185
   15CHTO  H101 6150   6.554   3.964   3.309  0.5540  2.9689 -0.9136
   15CHTO   C66 6151   6.306   3.878   3.280  0.4648 -0.3671  0.7607
   15CHTO  H123 6152   6.221   3.816   3.251 -0.5967  0.9732  0.9800
   15CHTO   N12 6153   6.342   3.837   3.416  0.1331 -0.4263  0.9642
   15CHTO  H110 6154   6.443   3.803   3.433  0.8731  0.9510 -0.5587
   15CHTO  H111 6155   6.264   3.771   3.451  0.1342 -0.4607  0.9017
   15CHTO   C69 6156   6.273   4.030   3.282  0.5044  0.2780 -1.0613
   15CHTO  H126 6157   6.355   4.085   3.334  0.0182  0.2549 -0.2664
   15CHTO   O41 6158   6.245   4.090   3.126  0.0850 -0.3616 -0.1917
   15CHTO   C64 6159   6.347   4.034   3.011 -0.2700  0.2281  0.3318
   15CHTO  H121 6160   6.435   4.102   3.004  0.1982  0.1204  4.2387
   15CHTO   C71 6161   6.270   4.042   2.876 -0.3543  0.1209  0.1165
   15CHTO   O47 6162   6.155   3.952   2.870 -0.4632  0.0878 -0.2478
   15CHTO  H104 6163   6.141   3.935   2.779 -0.6556  0.5469 -0.3072
   15CHTO   O34 6164   6.127   4.052   3.359 -0.4672 -0.8168  0.4150
   15CHTO   C49 6165   6.042   4.141   3.432 -0.6413  0.2358 -0.7240
   15CHTO   H91 6166   6.111   4.190   3.501 -1.2924  0.8414 -0.4983
   15CHTO   C47 6167   5.941   4.048   3.505 -0.4441  0.0572  0.0491
   15CHTO   H89 6168   5.876   4.119   3.560  0.4839 -0.1568  1.4392
   15CHTO   O33 6169   6.005   3.960   3.601  0.0014 -0.0744  0.3015
   15CHTO   H70 6170   6.091   3.987   3.629  1.4501 -2.5960 -1.4906
   15CHTO   C45 6171   5.844   3.971   3.400 -0.3806 -0.1784  0.2667
   15CHTO   H87 6172   5.895   3.880   3.367  0.0197  0.1260  0.0372
   15CHTO    N8 6173   5.710   3.940   3.467 -0.0940  0.0236 -0.0481
   15CHTO   H75 6174   5.649   3.878   3.402 -0.5585  0.7095 -0.2669
   15CHTO   H76 6175   5.672   4.041   3.465 -1.3981 -0.4763 -0.7139
   15CHTO   C43 6176   5.836   4.056   3.266 -0.3541  0.1486  0.3497
   15CHTO   H85 6177   5.920   4.017   3.209 -1.0506  0.6219 -1.0188
   15CHTO   O29 6178   5.844   4.199   3.294 -0.4027  0.6703  0.2942
   15CHTO   C50 6179   5.970   4.245   3.348  0.3169 -0.2812  0.2184
   15CHTO   H92 6180   6.036   4.276   3.266  0.4065 -0.7669  0.1012
   15CHTO   C54 6181   5.946   4.382   3.431 -0.1026 -0.8802  0.0782
   15CHTO   O36 6182   5.855   4.463   3.364  0.2216 -0.2694  0.5446
   15CHTO   H72 6183   5.879   4.466   3.274  1.1997 -2.2236  0.7117
   15CHTO   O27 6184   5.718   4.027   3.183  0.3807  0.1843  0.3585
   15CHTO   C37 6185   5.711   3.967   3.054  0.1760  0.2662  0.2874
   15CHTO   H79 6186   5.809   3.938   3.014 -0.7341 -2.1495 -0.2909
   15CHTO   C38 6187   5.625   3.837   3.054  0.8592 -0.4445  0.0013
   15CHTO   H80 6188   5.524   3.870   3.081  1.4174  1.6997 -0.4486
   15CHTO   O31 6189   5.679   3.752   3.159  0.1065 -0.4318  0.2216
   15CHTO   H68 6190   5.767   3.724   3.140 -0.1959 -2.2701  1.3558
   15CHTO   C39 6191   5.636   3.778   2.911  0.9954 -0.3149 -0.6277
   15CHTO   H81 6192   5.742   3.764   2.888  1.2032  2.0700 -1.2528
   15CHTO    N7 6193   5.586   3.643   2.889  0.1057 -0.3551 -0.3400
   15CHTO   H73 6194   5.634   3.591   2.971 -0.1686  0.2591  0.2190
   15CHTO   H74 6195   5.478   3.647   2.893  0.0251 -1.1965 -1.3457
   15CHTO   C40 6196   5.583   3.885   2.804 -0.0789  0.0626  0.2600
   15CHTO   H82 6197   5.474   3.889   2.807 -0.0205  2.1254  0.3963
   15CHTO   O26 6198   5.649   4.014   2.820 -0.7943  0.3538  0.1807
   15CHTO   C41 6199   5.640   4.066   2.956 -0.4358  0.2734  0.2897
   15CHTO   H83 6200   5.537   4.076   2.991 -1.1827 -0.9556 -1.4730
   15CHTO   C52 6201   5.713   4.202   2.952 -0.3567 -0.3196 -0.7860
   15CHTO   O35 6202   5.851   4.179   2.902  0.1736 -0.2869 -0.1902
   15CHTO   H71 6203   5.906   4.255   2.911  1.9321 -1.4219 -1.1001
   15CHTO   O28 6204   5.610   3.847   2.671  0.0868 -0.2075  0.0208
   15CHTO   C42 6205   5.682   3.908   2.558  0.0808  1.0255 -0.4874
   15CHTO   H84 6206   5.662   3.836   2.479  0.3338  0.0588  0.3124
   15CHTO   C44 6207   5.837   3.907   2.576  0.6805 -0.1048 -0.3696
   15CHTO   H86 6208   5.864   3.969   2.662  3.1762 -1.6390  0.0049
   15CHTO   O32 6209   5.872   3.778   2.613 -0.3051  0.1911 -0.2928
   15CHTO   H69 6210   5.837   3.712   2.556  0.7716 -2.3553  1.8907
   15CHTO   C48 6211   5.913   3.960   2.443 -0.6080 -0.7442  0.1954
   15CHTO   H90 6212   5.895   3.887   2.364 -1.2390 -1.0000  0.5746
   15CHTO    N9 6213   6.061   3.962   2.457  0.3318 -0.3004  0.3805
   15CHTO   H77 6214   6.096   3.977   2.356  1.1305  1.2980  0.8867
   15CHTO   H78 6215   6.093   4.039   2.526  1.0973  0.3402 -0.6835
   15CHTO   C51 6216   5.851   4.098   2.408 -0.1579  0.4903 -0.2665
   15CHTO   H93 6217   5.875   4.161   2.494  1.3598 -0.6462  0.1613
   15CHTO   O30 6218   5.711   4.074   2.387 -0.0777 -0.4299  0.0666
   15CHTO   C46 6219   5.630   4.041   2.511  0.3611  0.0092  0.5832
   15CHTO   H88 6220   5.643   4.116   2.590 -0.3683 -0.6106  1.3023
   15CHTO   C53 6221   5.485   4.042   2.461  0.5402  0.0905  0.7090
   15CHTO   O72 6222   5.442   3.938   2.380 -0.3870  0.1726 -0.1009
   15CHTO  H199 6223   5.468   3.851   2.401 -0.9262 -1.0288 -3.8937
   15CHTO   O22 6224   5.901   4.161   2.283  0.1244 -0.3033  0.0337
   15CHTO   C31 6225   5.896   4.308   2.272  0.1206  0.3303  0.5824
   15CHTO   H59 6226   5.904   4.332   2.164  1.0100  0.8798  0.7694
   15CHTO   C29 6227   5.774   4.383   2.322 -0.3376 -0.1969  0.3334
   15CHTO   H57 6228   5.760   4.348   2.425 -0.9558 -1.9985 -0.3509
   15CHTO   O21 6229   5.661   4.327   2.252 -0.0102 -0.0255  0.3433
   15CHTO   H37 6230   5.587   4.371   2.288  1.3624  1.7530  1.1275
   15CHTO   C27 6231   5.783   4.534   2.314  0.2256 -0.1772  0.9285
   15CHTO   H55 6232   5.784   4.562   2.208 -0.8934 -1.0094  0.6932
   15CHTO    N5 6233   5.670   4.609   2.386 -0.1246  0.6058 -0.7772
   15CHTO   H43 6234   5.627   4.684   2.323 -0.2756  0.4400 -0.8712
   15CHTO   H44 6235   5.592   4.541   2.416  1.1236 -1.7752 -2.7287
   15CHTO   C25 6236   5.925   4.573   2.390 -0.4099 -0.2780 -0.5259
   15CHTO   H53 6237   5.912   4.543   2.496 -1.1810 -0.0505 -0.5483
   15CHTO   O17 6238   6.037   4.508   2.327 -0.1463  0.1083  0.4065
   15CHTO   C32 6239   6.031   4.366   2.337  0.2088  0.5077 -0.3262
   15CHTO   H60 6240   6.031   4.333   2.441 -0.6945  0.2295 -0.4128
   15CHTO   C36 6241   6.150   4.294   2.275  0.0747  0.1290  0.2375
   15CHTO   O25 6242   6.155   4.302   2.132  0.3510  0.5421  0.3836
   15CHTO   H40 6243   6.240   4.271   2.107  0.0713  0.2650 -0.2074
   15CHTO   O15 6244   5.944   4.726   2.394 -0.3617 -0.2193 -0.0973
   15CHTO   C19 6245   5.981   4.847   2.465 -0.1497 -0.2956  0.3164
   15CHTO   H47 6246   6.053   4.900   2.400 -0.3947 -0.8008 -0.3790
   15CHTO   C20 6247   5.859   4.948   2.485 -0.6173  0.2229  0.1095
   15CHTO   H48 6248   5.769   4.895   2.519  0.3428 -1.3078  0.3089
   15CHTO   O19 6249   5.834   5.007   2.354 -0.4543 -0.2615 -0.3912
   15CHTO   H35 6250   5.759   5.061   2.346  0.1485  1.0051  2.0699
   15CHTO   C21 6251   5.887   5.075   2.584 -0.8638  0.5442 -0.3676
   15CHTO   H49 6252   5.959   5.144   2.539 -0.1911  0.0456 -0.0611
   15CHTO    N4 6253   5.757   5.150   2.617  0.3232 -0.4663  0.5189
   15CHTO   H41 6254   5.729   5.229   2.550  0.9482  0.0376  0.8449
   15CHTO   H42 6255   5.675   5.081   2.630  0.3377 -0.3254  1.3740
   15CHTO   C22 6256   5.954   5.021   2.716 -0.0714  0.4199  0.1786
   15CHTO   H50 6257   5.898   4.952   2.779  0.5687 -0.6693 -0.4408
   15CHTO   O14 6258   6.075   4.956   2.674  0.1483  0.2624 -0.3854
   15CHTO   C23 6259   6.053   4.831   2.603 -0.3018 -0.4490  1.1650
   15CHTO   H51 6260   5.997   4.763   2.669 -0.5892 -0.6854  0.6861
   15CHTO   C34 6261   6.186   4.763   2.583 -0.0641  0.2398  0.1724
   15CHTO   O23 6262   6.278   4.855   2.515 -0.6356  0.0306  0.8415
   15CHTO   H38 6263   6.266   4.839   2.423 -2.7571  0.9514  0.9276
   15CHTO   O16 6264   5.995   5.126   2.799 -0.0900  0.1481 -0.3275
   15CHTO   C24 6265   6.071   5.074   2.943  0.4721  0.1820  0.2723
   15CHTO   H52 6266   6.099   4.968   2.939  3.1004  0.9100 -4.1764
   15CHTO   C26 6267   5.977   5.111   3.055  0.8804  0.5657  0.2819
   15CHTO   H54 6268   5.963   5.221   3.052  0.2132  0.5204  1.4410
   15CHTO   O20 6269   5.850   5.050   3.041 -0.4672 -0.5158  0.3993
   15CHTO   H36 6270   5.805   5.036   3.121 -0.5155  2.8910  1.0184
   15CHTO   C30 6271   6.040   5.074   3.194 -1.7425  0.3195 -0.4207
   15CHTO   H58 6272   6.052   4.966   3.211  3.3902  1.1756  2.4839
   15CHTO    N6 6273   5.953   5.114   3.309  0.1580  0.9509  0.0051
   15CHTO   H45 6274   5.934   5.029   3.372  2.9641  0.0148 -0.3215
   15CHTO   H46 6275   5.861   5.156   3.272  1.5492  2.8856 -1.3768
   15CHTO   C33 6276   6.185   5.129   3.205  0.2528  0.2159  0.2196
   15CHTO   H61 6277   6.174   5.235   3.231 -2.2115  0.1055 -0.2682
   15CHTO   O18 6278   6.263   5.121   3.084  0.2538  0.3471  0.0198
   15CHTO   C28 6279   6.199   5.161   2.964 -0.0231 -0.0338  1.1580
   15CHTO   H56 6280   6.170   5.266   2.964  2.3458  0.7957 -3.6307
   15CHTO   C35 6281   6.290   5.157   2.837 -0.5901  0.1637 -0.8445
   15CHTO   O24 6282   6.409   5.240   2.843  0.0973  0.5696  0.3327
   15CHTO   H39 6283   6.394   5.328   2.812 -0.7272 -0.1296 -1.3439
   15CHTO    O9 6284   6.256   5.077   3.322  0.4170 -0.5024 -0.1842
   15CHTO   C13 6285   6.410   5.111   3.329  0.6117 -0.2128  0.0486
   15CHTO   H26 6286   6.426   5.215   3.294  1.4909 -0.7641 -1.2033
   15CHTO   C11 6287   6.504   5.008   3.248 -0.1480  0.4370  0.5181
   15CHTO   H24 6288   6.477   5.018   3.141  1.2237  0.0390  0.1199
   15CHTO    O8 6289   6.472   4.872   3.284  0.3608 -0.1001  0.0586
   15CHTO    H3 6290   6.509   4.840   3.364 -0.6727  0.8280  0.9229
   15CHTO    C9 6291   6.656   5.039   3.270 -0.0175 -0.0330 -0.3613
   15CHTO   H22 6292   6.668   5.145   3.242 -1.6303 -0.1564 -1.6311
   15CHTO    N2 6293   6.747   4.973   3.171  0.2267  0.1289  0.4238
   15CHTO   H10 6294   6.703   4.971   3.073  0.7556 -1.0547  0.1995
   15CHTO   H11 6295   6.846   5.015   3.176  0.8844 -1.4233  1.0322
   15CHTO    C7 6296   6.688   5.024   3.420  0.2083  0.2618  0.6400
   15CHTO   H20 6297   6.740   5.117   3.449 -1.4322  0.9178  1.5335
   15CHTO    O4 6298   6.575   5.017   3.502 -0.0010  0.0638 -0.1231
   15CHTO   C14 6299   6.470   5.112   3.478 -0.8159 -0.3936 -0.0599
   15CHTO   H27 6300   6.520   5.209   3.498  1.6128 -2.1542  2.8154
   15CHTO   C18 6301   6.361   5.097   3.587 -0.2778  0.2805  0.3242
   15CHTO   O13 6302   6.303   4.964   3.595 -0.1060 -0.8817 -0.4301
   15CHTO    H7 6303   6.372   4.920   3.640 -2.2368 -1.6893  2.2062
   15CHTO    O2 6304   6.783   4.900   3.454 -0.1675  0.3473  0.6293
   15CHTO    C1 6305   6.836   4.878   3.589 -0.0922  0.1500  0.1616
   15CHTO   H14 6306   6.769   4.927   3.663 -0.3173 -0.0402  0.0837
   15CHTO    C2 6307   6.986   4.938   3.606  0.2315 -0.4923  0.5753
   15CHTO   H15 6308   7.048   4.909   3.521 -0.4899  1.0803 -0.5120
   15CHTO    O6 6309   6.973   5.083   3.598 -0.0293 -0.5710 -0.8851
   15CHTO    H1 6310   7.053   5.130   3.590 -1.4168  2.5249  2.1644
   15CHTO    C3 6311   7.051   4.893   3.750  0.1817  0.0279  0.2341
   15CHTO   H16 6312   6.992   4.945   3.827 -1.5493 -1.3932 -0.0817
   15CHTO    N1 6313   7.197   4.930   3.769  0.1982 -0.4044 -0.3948
   15CHTO    H8 6314   7.211   5.031   3.734  0.6031  0.6046  2.4953
   15CHTO    H9 6315   7.225   4.922   3.873  1.5661 -1.4304 -0.8213
   15CHTO    C4 6316   7.026   4.738   3.776 -0.2480  0.0861  0.2440
   15CHTO   H17 6317   7.083   4.685   3.699 -0.2329 -1.1417  1.0835
   15CHTO    O1 6318   6.889   4.705   3.763  0.2517 -0.3704  0.3820
   15CHTO    C5 6319   6.829   4.728   3.630  0.3574  0.4418  0.0790
   15CHTO   H18 6320   6.874   4.672   3.548 -2.3735  0.6968 -1.6429
   15CHTO   C16 6321   6.684   4.681   3.639 -0.4642 -0.5965  0.9108
   15CHTO   O11 6322   6.666   4.542   3.617 -0.2697  0.2391 -0.1718
   15CHTO    H5 6323   6.698   4.513   3.534  0.0529  0.1272 -0.0076
   15CHTO    O3 6324   7.056   4.700   3.914  0.0787 -0.3370  0.5862
   15CHTO    C6 6325   7.071   4.571   3.978 -0.3238  0.9280 -0.2113
   15CHTO   H19 6326   6.979   4.555   4.035 -0.2243  0.3234 -0.2186
   15CHTO    C8 6327   7.108   4.458   3.872  0.8547  0.0172 -0.0479
   15CHTO   H21 6328   7.202   4.485   3.823 -0.5141  4.2839 -0.5934
   15CHTO    O7 6329   6.994   4.443   3.783  0.2891  0.2561  0.9676
   15CHTO    H2 6330   7.001   4.363   3.735  0.4817  2.3416 -2.7457
   15CHTO   C12 6331   7.147   4.319   3.944 -0.9597  0.2387 -0.3148
   15CHTO   H25 6332   7.062   4.272   3.996  0.9857 -1.7115  1.2147
   15CHTO    N3 6333   7.190   4.217   3.840 -0.1620  0.3260  0.3798
   15CHTO   H12 6334   7.192   4.238   3.734  0.2155 -0.2529  0.2686
   15CHTO   H13 6335   7.273   4.163   3.884  0.0121  1.4034  1.3934
   15CHTO   C15 6336   7.262   4.348   4.056  0.4127  0.1602 -0.5340
   15CHTO   H28 6337   7.363   4.364   4.019  0.0437 -0.2291 -1.7302
   15CHTO   O10 6338   7.286   4.224   4.161  0.1507  0.5768 -0.1863
   15CHTO    H4 6339   7.271   4.141   4.119 -0.0591  0.5037  0.0241
   15CHTO    O5 6340   7.227   4.454   4.145  0.3381  0.1063  0.1308
   15CHTO   C10 6341   7.187   4.577   4.083 -0.3273 -0.6565  0.3717
   15CHTO   H23 6342   7.274   4.606   4.024  0.7342 -1.3405  1.5833
   15CHTO   C17 6343   7.178   4.684   4.192  0.3210 -0.3434  0.4529
   15CHTO   O12 6344   7.181   4.813   4.132  0.1696 -0.1683 -0.3420
   15CHTO    H6 6345   7.268   4.834   4.105  0.6612 -0.8112  0.7315
   16CHTO  H203 6346   5.198   4.836   2.577  0.3769  0.1935 -0.7954
   16CHTO   O82 6347   5.254   4.762   2.562 -0.1387 -0.5036  0.5576
   16CHTO  C123 6348   5.348   4.729   2.662  0.0663  0.7291  0.0366
   16CHTO  H227 6349   5.288   4.701   2.750 -0.3391 -1.6582 -0.9598
   16CHTO   O77 6350   5.440   4.612   2.626  0.2370 -0.3164  0.2949
   16CHTO  C118 6351   5.506   4.562   2.744  0.2376 -0.6177 -0.0155
   16CHTO  H222 6352   5.433   4.524   2.817  0.6663 -1.2397  0.0981
   16CHTO  C125 6353   5.580   4.432   2.689  0.1111 -0.0784 -0.9574
   16CHTO   O84 6354   5.490   4.338   2.632  0.1474 -0.4005  0.2143
   16CHTO  H205 6355   5.537   4.264   2.599 -0.1129  0.0203 -1.1216
   16CHTO  C114 6356   5.598   4.672   2.801 -0.2312  0.3062 -0.4929
   16CHTO  H218 6357   5.682   4.683   2.732  0.8597  0.6257  0.8606
   16CHTO  C116 6358   5.526   4.805   2.818  0.1433  0.5733 -0.0285
   16CHTO  H220 6359   5.455   4.791   2.903 -1.5709  3.0641 -0.9908
   16CHTO   O79 6360   5.627   4.898   2.856  0.6789  0.1478 -0.1961
   16CHTO  H201 6361   5.603   4.984   2.829  0.0999 -0.3197 -1.2047
   16CHTO  C120 6362   5.441   4.846   2.693 -0.6024 -0.6297 -0.2012
   16CHTO  H224 6363   5.516   4.861   2.612 -2.4435 -0.1266 -1.8653
   16CHTO   N21 6364   5.371   4.972   2.731  0.5424  0.4220  0.1375
   16CHTO  H211 6365   5.427   5.040   2.795 -0.3775  1.7940 -0.5010
   16CHTO  H212 6366   5.377   5.032   2.642 -0.4915  2.1770  1.2179
   16CHTO   O75 6367   5.654   4.623   2.925  0.6409  0.8062  0.1339
   16CHTO  C112 6368   5.807   4.654   2.948  0.1820  0.3630  0.0593
   16CHTO  H216 6369   5.833   4.754   2.912 -0.6821  0.6915  0.3125
   16CHTO   O73 6370   5.880   4.548   2.882 -0.4149 -0.0526  0.0893
   16CHTO  C113 6371   6.025   4.549   2.901  0.2174 -0.3780  0.3743
   16CHTO  H217 6372   6.066   4.639   2.849 -0.9402 -1.1481 -1.9614
   16CHTO  C124 6373   6.072   4.426   2.824  0.1578 -0.2731  0.1024
   16CHTO   O83 6374   6.019   4.403   2.689 -0.4071 -0.9273  0.1705
   16CHTO  H204 6375   6.019   4.479   2.633  1.5368 -0.3008  0.9672
   16CHTO  C109 6376   6.067   4.551   3.049  0.2922 -0.3654 -0.1032
   16CHTO  H213 6377   6.026   4.457   3.089  0.6982  0.2310  1.7874
   16CHTO  C110 6378   6.002   4.669   3.124 -0.1334 -0.2677  0.7453
   16CHTO  H214 6379   6.029   4.757   3.065  1.7715  0.0251  1.9934
   16CHTO   O78 6380   6.061   4.673   3.259  0.0460  0.4203  1.0157
   16CHTO  H200 6381   6.026   4.602   3.308 -1.8475 -0.4566 -1.5149
   16CHTO  C111 6382   5.845   4.655   3.104 -0.0359  0.1045  0.1858
   16CHTO  H215 6383   5.812   4.560   3.150 -1.2159  0.5240  0.2361
   16CHTO   N19 6384   5.777   4.761   3.180 -0.0616  0.5523  0.3141
   16CHTO  H207 6385   5.815   4.769   3.281 -1.4296 -1.1689  0.9852
   16CHTO  H208 6386   5.669   4.752   3.178  0.0185 -0.7419  1.2766
   16CHTO   O74 6387   6.214   4.556   3.061 -0.5277 -0.8828  0.6235
   16CHTO  C115 6388   6.300   4.422   3.115 -0.2640  0.0862  0.3891
   16CHTO  H219 6389   6.234   4.341   3.147 -0.4715 -0.4040 -1.2480
   16CHTO   O76 6390   6.390   4.360   2.996  0.0734 -0.4245 -0.2463
   16CHTO  C122 6391   6.523   4.414   2.987 -0.0726 -0.6648 -0.5515
   16CHTO  H226 6392   6.514   4.513   2.943  1.7595  0.8370  2.2822
   16CHTO  C126 6393   6.611   4.335   2.891 -0.2299  0.5732  0.1520
   16CHTO   O85 6394   6.732   4.409   2.870 -0.5781 -0.0707 -0.2691
   16CHTO  H206 6395   6.750   4.428   2.779 -1.2533 -1.0061 -0.6058
   16CHTO  C121 6396   6.600   4.422   3.133 -0.1508  0.9966 -0.5509
   16CHTO  H225 6397   6.686   4.352   3.134 -1.1948 -0.2871  0.5847
   16CHTO   O81 6398   6.658   4.553   3.157 -0.3850  0.2489 -0.8955
   16CHTO  H202 6399   6.586   4.613   3.158 -0.5425  0.0577 -0.4250
   16CHTO  C119 6400   6.509   4.376   3.244 -1.5145 -0.0891 -0.7314
   16CHTO  H223 6401   6.485   4.272   3.221 -0.3301 -0.9097  1.5127
   16CHTO  C117 6402   6.382   4.465   3.242 -0.2769 -0.2627 -0.6167
   16CHTO  H221 6403   6.394   4.573   3.232 -1.1556 -0.1217 -0.1708
   16CHTO   N20 6404   6.296   4.455   3.369  0.3010  0.4294 -0.0889
   16CHTO  H209 6405   6.367   4.485   3.444 -1.0889 -0.1982  1.5241
   16CHTO  H210 6406   6.217   4.528   3.365 -0.3045 -0.1599  0.9835
   16CHTO   O80 6407   6.585   4.355   3.400 -0.2125  0.1448  0.2189
   16CHTO  C103 6408   6.617   4.221   3.442 -0.7337 -0.1162  0.0252
   16CHTO  H190 6409   6.555   4.146   3.393  0.2400 -0.3581 -0.8530
   16CHTO  C101 6410   6.771   4.171   3.416 -0.2497  0.5497 -0.5184
   16CHTO  H188 6411   6.843   4.232   3.471 -0.2964  0.0221  0.1399
   16CHTO   O68 6412   6.787   4.170   3.274 -0.1490  0.3734  0.1757
   16CHTO  H168 6413   6.817   4.253   3.242 -0.4793  0.9610  1.3354
   16CHTO   C99 6414   6.790   4.030   3.468  1.3877  0.3510 -0.2791
   16CHTO  H186 6415   6.718   3.957   3.426 -0.6872  0.6992  2.4743
   16CHTO   N17 6416   6.928   3.968   3.454  0.5163  0.0615 -0.2000
   16CHTO  H174 6417   6.973   3.974   3.356 -1.4039  0.0569 -1.0918
   16CHTO  H175 6418   7.001   4.006   3.525  0.3962 -0.1949  0.0616
   16CHTO   C97 6419   6.752   4.030   3.621 -0.2381 -0.1269 -0.2714
   16CHTO  H184 6420   6.831   4.085   3.674 -1.1569  0.3571  0.6244
   16CHTO   O64 6421   6.622   4.086   3.643  0.4315 -0.6637 -0.4152
   16CHTO  C104 6422   6.593   4.216   3.594 -0.4594  0.8307 -0.7156
   16CHTO  H191 6423   6.665   4.278   3.647  0.1613 -0.3846 -0.1132
   16CHTO  C108 6424   6.455   4.259   3.646  0.0004 -0.3852  0.1738
   16CHTO   O71 6425   6.351   4.164   3.612  0.2001 -0.4020  0.2970
   16CHTO  H171 6426   6.320   4.178   3.524  0.5605 -0.1756  0.2021
   16CHTO   O62 6427   6.738   3.901   3.677 -0.0421  0.1469  0.0511
   16CHTO   C91 6428   6.796   3.866   3.798  0.0647  0.1856 -0.4530
   16CHTO  H178 6429   6.904   3.859   3.784 -0.2368 -0.7637 -2.5499
   16CHTO   C92 6430   6.742   3.727   3.825  0.3939  0.4222  0.0066
   16CHTO  H179 6431   6.765   3.655   3.745  0.7319  0.0049  0.4746
   16CHTO   O66 6432   6.826   3.666   3.928 -0.0686 -0.6582  0.0772
   16CHTO  H166 6433   6.803   3.694   4.014  0.0329  1.6422 -0.5983
   16CHTO   C93 6434   6.584   3.726   3.871  0.0172 -0.3293  0.9460
   16CHTO  H180 6435   6.562   3.640   3.936 -4.0418 -0.7131 -0.8343
   16CHTO   N16 6436   6.485   3.709   3.761 -0.6638 -0.1737  0.0089
   16CHTO  H172 6437   6.442   3.610   3.761  0.4536 -0.6803 -1.4192
   16CHTO  H173 6438   6.526   3.735   3.665 -1.8199  1.7428  0.0090
   16CHTO   C94 6439   6.547   3.857   3.949  0.1271 -0.4389 -0.9159
   16CHTO  H181 6440   6.502   3.934   3.886  0.8636  1.1648  0.4936
   16CHTO   O61 6441   6.667   3.908   4.017  0.0545  0.0845  0.2582
   16CHTO   C95 6442   6.762   3.967   3.921  0.1924 -0.2800  0.1341
   16CHTO  H182 6443   6.721   4.060   3.880  0.7341 -0.1778 -0.1914
   16CHTO  C106 6444   6.888   4.007   4.002  0.3756  0.0605  0.4029
   16CHTO   O69 6445   6.979   3.901   4.030 -0.0888  0.4476 -0.2161
   16CHTO  H169 6446   7.063   3.920   4.068  0.8700  0.4664 -2.2553
   16CHTO   O63 6447   6.463   3.829   4.076  0.1479 -0.2921 -0.1608
   16CHTO   C96 6448   6.314   3.773   4.054  0.7309  0.6918  0.3444
   16CHTO  H183 6449   6.324   3.673   4.014  0.6031  0.0416  1.8983
   16CHTO   C98 6450   6.222   3.860   3.962  0.6677  0.1553  0.5013
   16CHTO  H185 6451   6.275   3.875   3.867  0.7908  2.2059  0.8758
   16CHTO   O67 6452   6.102   3.782   3.935 -0.0828 -0.0533  0.6567
   16CHTO  H167 6453   6.084   3.766   3.844  0.0748  0.2375  0.5767
   16CHTO  C102 6454   6.176   3.998   4.035  0.8386 -0.3230 -0.3363
   16CHTO  H189 6455   6.085   4.034   3.986  1.6136  0.2508 -1.3687
   16CHTO   N18 6456   6.270   4.111   4.032  0.5530 -0.4848  0.1525
   16CHTO  H176 6457   6.274   4.145   3.930  0.4520  0.8885  0.5990
   16CHTO  H177 6458   6.373   4.083   4.053  0.7208  0.1919  0.2531
   16CHTO  C105 6459   6.141   3.967   4.192  0.0129  0.5861 -0.0206
   16CHTO  H192 6460   6.219   4.003   4.258 -0.4385  0.8474  0.3745
   16CHTO   O65 6461   6.120   3.827   4.206 -0.5202 -0.2179 -0.5422
   16CHTO  C100 6462   6.241   3.753   4.195 -0.4629 -0.0715  0.3263
   16CHTO  H187 6463   6.307   3.781   4.279  0.5245  0.7394 -0.7119
   16CHTO  C107 6464   6.197   3.604   4.206  0.6515  0.1990 -0.2937
   16CHTO   O70 6465   6.142   3.584   4.336 -0.3030 -0.0383 -0.3553
   16CHTO  H170 6466   6.088   3.657   4.358 -0.4179 -0.2525  0.0815
   16CHTO   O57 6467   6.004   4.031   4.223 -0.0717 -1.3479 -0.7284
   16CHTO   C85 6468   5.959   4.170   4.207  0.9195  0.1502 -0.1805
   16CHTO  H157 6469   5.990   4.206   4.107 -1.6005  0.1499 -0.9819
   16CHTO   C83 6470   6.040   4.264   4.301 -0.8465 -0.5676  0.7038
   16CHTO  H155 6471   6.143   4.261   4.265 -0.1605  1.1053  2.4338
   16CHTO   O56 6472   6.052   4.209   4.429  0.4394 -0.1592 -0.4724
   16CHTO  H135 6473   6.048   4.115   4.427  0.6820 -0.1734 -0.3001
   16CHTO   C81 6474   5.986   4.407   4.278  0.1704  0.4105  0.0413
   16CHTO  H153 6475   5.987   4.422   4.170 -1.3702 -3.2623 -0.5804
   16CHTO   N14 6476   6.074   4.502   4.343  0.3369  0.1552  0.5207
   16CHTO  H141 6477   6.095   4.577   4.270  0.1435 -1.3134 -1.0876
   16CHTO  H142 6478   6.165   4.468   4.387  0.3007 -2.6292 -1.4225
   16CHTO   C79 6479   5.840   4.425   4.334 -0.0574  0.1759  0.5664
   16CHTO  H151 6480   5.802   4.522   4.306 -0.8313 -0.6088 -1.1452
   16CHTO   O52 6481   5.764   4.335   4.243  0.6659  0.0572 -0.5174
   16CHTO   C86 6482   5.809   4.190   4.235  0.2214 -1.4171  0.8725
   16CHTO  H158 6483   5.788   4.150   4.337 -2.2164  1.9313  1.7841
   16CHTO   C90 6484   5.728   4.102   4.140 -0.4651 -0.1163  0.1731
   16CHTO   O60 6485   5.586   4.118   4.143  0.4160  0.3944 -0.5409
   16CHTO  H138 6486   5.564   4.201   4.106 -0.7791  0.4960  0.3838
   16CHTO   O50 6487   5.816   4.396   4.471  0.0843  0.4628 -0.3144
   16CHTO   C73 6488   5.765   4.353   4.598  0.0882  0.5844 -0.4021
   16CHTO  H145 6489   5.846   4.308   4.657 -1.3005 -2.1346 -0.5336
   16CHTO   C74 6490   5.653   4.234   4.594 -0.1222  0.9892  0.0481
   16CHTO  H146 6491   5.703   4.158   4.532 -1.3128  1.3030 -1.3355
   16CHTO   O54 6492   5.634   4.194   4.731 -0.1385 -0.1750 -0.0572
   16CHTO  H133 6493   5.547   4.159   4.733 -0.6184  0.5009 -4.1648
   16CHTO   C75 6494   5.525   4.296   4.517 -0.2186  0.0639  0.9259
   16CHTO  H147 6495   5.559   4.319   4.415 -1.8574 -2.1951 -0.1646
   16CHTO   N13 6496   5.424   4.195   4.493 -0.1316  0.0214 -0.4175
   16CHTO  H139 6497   5.458   4.101   4.453 -1.7239 -0.4409 -0.7509
   16CHTO  H140 6498   5.387   4.180   4.594 -0.2480  0.1208 -0.4456
   16CHTO   C76 6499   5.482   4.428   4.607 -0.5427  0.4573 -0.1136
   16CHTO  H148 6500   5.460   4.389   4.706 -1.4002  0.4188 -0.3133
   16CHTO   O49 6501   5.593   4.524   4.614  0.8943 -0.1011  0.2087
   16CHTO   C77 6502   5.713   4.480   4.676  0.4743  0.1422 -0.3625
   16CHTO  H149 6503   5.683   4.450   4.776 -2.4148  1.3492 -0.8204
   16CHTO   C88 6504   5.809   4.599   4.694 -0.6040  0.3883  0.8008
   16CHTO   O58 6505   5.909   4.570   4.746  0.1328  0.1795  0.2661
   16CHTO  H136 6506   5.942   4.635   4.805  2.2488 -0.0179 -0.6463
   16CHTO   O51 6507   5.358   4.485   4.529  0.5024  0.0163  0.1934
   16CHTO   C78 6508   5.319   4.616   4.585 -0.2641 -0.5238  0.2265
   16CHTO  H150 6509   5.408   4.682   4.585 -0.1941 -0.6177 -0.1127
   16CHTO   C80 6510   5.247   4.625   4.727 -0.1931 -0.0056  0.6106
   16CHTO  H152 6511   5.153   4.566   4.736  0.1270 -0.6611 -0.3211
   16CHTO   O55 6512   5.348   4.580   4.823  0.1708  0.5776  0.0062
   16CHTO  H134 6513   5.405   4.526   4.771  0.3107  0.4466  0.2950
   16CHTO   C84 6514   5.210   4.773   4.778  0.6736 -0.1505  0.3987
   16CHTO  H156 6515   5.302   4.829   4.793 -0.4039  1.9692 -0.7046
   16CHTO   N15 6516   5.134   4.773   4.907 -0.2202 -0.6904 -0.3891
   16CHTO  H143 6517   5.192   4.751   4.994  1.1749 -0.2268 -1.1972
   16CHTO  H144 6518   5.084   4.867   4.918 -0.6773 -0.8848 -0.7760
   16CHTO   C87 6519   5.124   4.841   4.664 -0.1286 -0.8607 -0.0352
   16CHTO  H159 6520   5.028   4.791   4.663 -0.4408 -0.2623 -0.0104
   16CHTO   O53 6521   5.204   4.822   4.513  0.2895  0.5851  0.3711
   16CHTO   C82 6522   5.227   4.684   4.484 -0.1113  0.7907 -0.9122
   16CHTO  H154 6523   5.127   4.640   4.480  0.2007  0.0769 -0.6525
   16CHTO   C89 6524   5.280   4.674   4.344 -0.2347  0.0194 -0.4029
   16CHTO   O59 6525   5.203   4.746   4.250  1.2085  0.3584 -0.1321
   16CHTO  H137 6526   5.123   4.710   4.218  1.0069  0.8171 -0.1527
   16CHTO   O45 6527   5.110   5.004   4.698 -0.2223 -0.3704 -0.7542
   16CHTO   C67 6528   5.207   5.098   4.649 -0.1813  0.1255  0.5647
   16CHTO  H124 6529   5.284   5.032   4.609 -0.4671 -1.0975  1.9726
   16CHTO   C65 6530   5.156   5.182   4.528 -0.2820  0.0477 -0.6525
   16CHTO  H122 6531   5.048   5.186   4.545 -0.4427 -0.5833 -1.4644
   16CHTO   O44 6532   5.172   5.091   4.414 -0.3326  0.0016 -0.1772
   16CHTO  H102 6533   5.200   5.133   4.335  0.6233  0.2246  0.2795
   16CHTO   C63 6534   5.221   5.325   4.522 -0.0154  0.9546  0.5401
   16CHTO  H120 6535   5.179   5.388   4.600  1.7169  2.6954  0.1141
   16CHTO   N11 6536   5.187   5.408   4.403 -0.1973  0.6364  0.2853
   16CHTO  H108 6537   5.268   5.416   4.333  0.3049 -0.4443  0.7267
   16CHTO  H109 6538   5.102   5.368   4.352  0.3107 -1.0422  0.7145
   16CHTO   C61 6539   5.374   5.321   4.565 -0.3765  0.5652  0.1901
   16CHTO  H118 6540   5.416   5.422   4.570  2.1786 -0.4633  0.4557
   16CHTO   O40 6541   5.384   5.262   4.699  0.2511  0.1635  0.1822
   16CHTO   C68 6542   5.274   5.184   4.757  0.8032 -0.0419 -0.0603
   16CHTO  H125 6543   5.199   5.252   4.801  1.1301 -1.1587  2.3053
   16CHTO   C72 6544   5.343   5.111   4.875  0.2447 -0.1524  0.5122
   16CHTO   O48 6545   5.357   5.177   4.999 -0.3357 -0.1813  0.0208
   16CHTO  H105 6546   5.273   5.208   5.025 -0.0254  1.0194 -0.3744
   16CHTO   O38 6547   5.451   5.248   4.465 -0.3859  0.3436 -0.0152
   16CHTO   C55 6548   5.596   5.242   4.485  0.4745  0.3463 -0.2073
   16CHTO  H112 6549   5.618   5.259   4.591  0.3898  1.2860 -0.3353
   16CHTO   C56 6550   5.664   5.350   4.387  0.2012  0.7920  0.5186
   16CHTO  H113 6551   5.630   5.322   4.286  0.9935  0.3500  0.3677
   16CHTO   O42 6552   5.603   5.473   4.419 -0.4089  0.4109  0.0586
   16CHTO  H100 6553   5.653   5.509   4.490  0.8601 -1.7205  0.3074
   16CHTO   C57 6554   5.817   5.335   4.402 -0.1787  0.2364  0.2405
   16CHTO  H114 6555   5.842   5.361   4.505  1.0236  3.2561 -0.7655
   16CHTO   N10 6556   5.888   5.436   4.321  0.0156  0.3954  0.1362
   16CHTO  H106 6557   5.977   5.463   4.376  0.5885 -1.1022 -0.0151
   16CHTO  H107 6558   5.913   5.411   4.219 -0.4158 -1.7909  0.5355
   16CHTO   C58 6559   5.860   5.186   4.374  0.0718 -0.0451  0.7885
   16CHTO  H115 6560   5.832   5.167   4.268  1.0724 -0.9655  0.6793
   16CHTO   O37 6561   5.792   5.093   4.461 -0.2716  0.1159  0.5973
   16CHTO   C59 6562   5.649   5.103   4.440 -0.9953 -0.3452  0.9220
   16CHTO  H116 6563   5.620   5.078   4.339  0.3423  1.1983  0.1236
   16CHTO   C70 6564   5.573   5.002   4.532 -0.6043 -0.1579 -0.3474
   16CHTO   O46 6565   5.578   4.865   4.481 -0.4316  0.3385 -0.5612
   16CHTO  H103 6566   5.668   4.841   4.474 -0.2357  0.3934  1.3760
   16CHTO   O39 6567   6.013   5.165   4.383 -0.4662 -0.0726 -0.2599
   16CHTO   C60 6568   6.073   5.112   4.266 -0.2712 -0.0400  0.1147
   16CHTO  H117 6569   5.995   5.059   4.212  0.7441 -0.9733 -0.4513
   16CHTO   C62 6570   6.150   5.215   4.168 -0.0269 -0.3595 -0.8371
   16CHTO  H119 6571   6.074   5.286   4.130  0.2948  0.8677  0.7568
   16CHTO   O43 6572   6.252   5.282   4.232 -0.2659 -0.7175  0.0269
   16CHTO  H101 6573   6.220   5.352   4.286 -0.4282 -0.7757  0.0063
   16CHTO   C66 6574   6.209   5.126   4.044  0.4188  0.0819 -0.4130
   16CHTO  H123 6575   6.131   5.061   4.005 -1.9462  2.0261  0.8814
   16CHTO   N12 6576   6.264   5.218   3.935 -0.3393 -0.6367 -0.7897
   16CHTO  H110 6577   6.180   5.261   3.884 -0.5598 -0.4580 -0.2726
   16CHTO  H111 6578   6.322   5.300   3.974 -2.2116  1.2939 -1.9946
   16CHTO   C69 6579   6.313   5.030   4.109  0.3258 -0.5239  0.0155
   16CHTO  H126 6580   6.393   5.076   4.170 -1.3290 -0.4743  2.1920
   16CHTO   O41 6581   6.260   4.942   4.219  0.7538 -0.4513  0.1385
   16CHTO   C64 6582   6.174   5.003   4.320 -0.1232  0.4211  0.0401
   16CHTO  H121 6583   6.243   5.051   4.392 -0.2234  1.7860 -0.7413
   16CHTO   C71 6584   6.112   4.888   4.389  0.1629 -0.0591 -0.2052
   16CHTO   O47 6585   6.022   4.828   4.296 -0.2178 -0.1300  0.1227
   16CHTO  H104 6586   6.063   4.768   4.237 -1.4729 -1.2856  0.3840
   16CHTO   O34 6587   6.373   4.923   3.990  0.3360  0.4031  0.7606
   16CHTO   C49 6588   6.497   4.828   3.981 -0.3075  0.0481  0.7747
   16CHTO   H91 6589   6.564   4.882   3.914 -0.1844 -0.7103  0.2849
   16CHTO   C47 6590   6.444   4.695   3.926  0.1962 -0.5309  0.6935
   16CHTO   H89 6591   6.533   4.634   3.904  0.6709  0.1476  0.7124
   16CHTO   O33 6592   6.374   4.725   3.804  0.6548 -0.3468 -0.1181
   16CHTO   H70 6593   6.328   4.653   3.765 -0.1457 -1.0836  2.1289
   16CHTO   C45 6594   6.341   4.618   4.033 -0.2691 -0.4265 -0.1554
   16CHTO   H87 6595   6.247   4.673   4.047  0.4665  0.1650  2.9641
   16CHTO    N8 6596   6.306   4.483   3.983  0.6368 -0.0299  0.5209
   16CHTO   H75 6597   6.244   4.485   3.894  0.3696  0.4002  0.7148
   16CHTO   H76 6598   6.397   4.426   3.969  0.4327 -0.2197 -0.0480
   16CHTO   C43 6599   6.415   4.617   4.184 -0.0874 -0.3211  0.1790
   16CHTO   H85 6600   6.341   4.593   4.260 -0.9708  1.4494 -0.1006
   16CHTO   O29 6601   6.481   4.735   4.210  0.5935 -0.1631 -0.3585
   16CHTO   C50 6602   6.564   4.810   4.118 -0.0013  0.7176 -0.5037
   16CHTO   H92 6603   6.587   4.906   4.167 -0.0514  0.3748  0.1993
   16CHTO   C54 6604   6.704   4.747   4.108  0.3724  0.5550  0.0781
   16CHTO   O36 6605   6.782   4.739   4.232  0.1480 -0.4641 -0.1130
   16CHTO   H72 6606   6.728   4.757   4.306  1.8877 -1.3042  1.4011
   16CHTO   O27 6607   6.504   4.504   4.205 -0.0105  0.6799 -0.4846
   16CHTO   C37 6608   6.575   4.427   4.304 -0.2294 -0.1039 -0.3683
   16CHTO   H79 6609   6.660   4.488   4.338 -0.7626  0.5909 -0.2573
   16CHTO   C38 6610   6.496   4.392   4.432 -0.3544  0.0627 -0.0550
   16CHTO   H80 6611   6.402   4.343   4.403  0.0941 -1.0428  0.3077
   16CHTO   O31 6612   6.468   4.517   4.501  0.3214 -0.6336  0.0604
   16CHTO   H68 6613   6.545   4.542   4.547  0.5600  0.5122 -0.9422
   16CHTO   C39 6614   6.577   4.296   4.528  0.1169  0.4087 -0.3165
   16CHTO   H81 6615   6.666   4.347   4.563  0.2382 -1.8789  2.8526
   16CHTO    N7 6616   6.497   4.254   4.650  0.3959 -0.2527 -0.5113
   16CHTO   H73 6617   6.545   4.276   4.744 -2.2467 -2.4277  1.4514
   16CHTO   H74 6618   6.402   4.305   4.652 -0.7221 -2.2774  1.9385
   16CHTO   C40 6619   6.632   4.169   4.447 -0.3094 -0.2721 -0.4321
   16CHTO   H82 6620   6.553   4.101   4.416  0.1868 -1.5337  1.0096
   16CHTO   O26 6621   6.707   4.225   4.340 -0.2418 -0.0751 -0.6402
   16CHTO   C41 6622   6.632   4.301   4.241 -0.0758  0.1325  0.2194
   16CHTO   H83 6623   6.549   4.233   4.218  3.1685 -3.2839 -2.0718
   16CHTO   C52 6624   6.710   4.322   4.113 -0.2138  0.3060  0.4758
   16CHTO   O35 6625   6.837   4.409   4.148 -0.0104  0.3046  0.5035
   16CHTO   H71 6626   6.901   4.412   4.079 -0.7734 -0.7036 -0.2750
   16CHTO   O28 6627   6.728   4.085   4.518  0.0403  0.1631 -0.4119
   16CHTO   C42 6628   6.697   3.941   4.558 -0.4230 -0.0087  0.1212
   16CHTO   H84 6629   6.793   3.890   4.554 -0.9892 -0.9534 -2.1315
   16CHTO   C44 6630   6.606   3.861   4.468 -0.8382  0.9252  0.1744
   16CHTO   H86 6631   6.503   3.898   4.472 -1.6936 -1.1389 -1.6930
   16CHTO   O32 6632   6.647   3.880   4.331  0.2269 -0.4277 -0.3851
   16CHTO   H69 6633   6.633   3.970   4.311  0.8226 -0.0577  0.8086
   16CHTO   C48 6634   6.600   3.711   4.510 -0.5807  0.9202 -0.1306
   16CHTO   H90 6635   6.702   3.678   4.496 -0.5591  0.3750  1.2083
   16CHTO    N9 6636   6.505   3.632   4.427 -0.1772 -0.0088 -0.3108
   16CHTO   H77 6637   6.492   3.535   4.473  0.0319  0.2783  0.3533
   16CHTO   H78 6638   6.527   3.633   4.321  0.3038  3.2762 -0.2315
   16CHTO   C51 6639   6.549   3.705   4.658  0.3183 -0.4860 -0.0126
   16CHTO   H93 6640   6.447   3.743   4.660 -0.8393 -3.3143 -1.9904
   16CHTO   O30 6641   6.635   3.784   4.738  0.5870 -0.6867 -0.2662
   16CHTO   C46 6642   6.653   3.940   4.704 -0.1824  0.0016  0.1301
   16CHTO   H88 6643   6.562   3.999   4.708 -0.3240 -0.1029 -1.3987
   16CHTO   C53 6644   6.762   3.988   4.803 -0.0513  0.6601  0.1919
   16CHTO   O72 6645   6.695   3.998   4.924  0.0788 -0.3140  0.1951
   16CHTO  H199 6646   6.747   3.971   4.997  2.5752 -1.0422 -1.7829
   16CHTO   O22 6647   6.556   3.574   4.719  0.4210 -0.4202 -0.4193
   16CHTO   C31 6648   6.485   3.534   4.846 -0.2817 -0.0251 -0.1411
   16CHTO   H59 6649   6.504   3.425   4.856 -0.9641 -0.2080 -0.7454
   16CHTO   C29 6650   6.537   3.605   4.976  0.0247  0.5333  0.9460
   16CHTO   H57 6651   6.542   3.713   4.955 -1.9432  0.6467  0.9765
   16CHTO   O21 6652   6.672   3.549   5.000 -0.1169  0.0099  0.1472
   16CHTO   H37 6653   6.731   3.622   5.004  0.1228 -0.2498  1.6505
   16CHTO   C27 6654   6.446   3.587   5.093 -0.1583 -0.0456 -0.2259
   16CHTO   H55 6655   6.449   3.481   5.122  1.0285 -0.1122 -0.5695
   16CHTO    N5 6656   6.487   3.671   5.210  0.1441 -0.2587 -0.5936
   16CHTO   H43 6657   6.430   3.652   5.299 -1.9047  3.0654 -1.0889
   16CHTO   H44 6658   6.515   3.771   5.180  0.3978  0.1752  1.0676
   16CHTO   C25 6659   6.297   3.606   5.052 -0.4279  0.9200 -0.8731
   16CHTO   H53 6660   6.284   3.711   5.023  2.9411  1.5560 -0.3143
   16CHTO   O17 6661   6.256   3.520   4.942 -0.1494  0.2430 -0.2053
   16CHTO   C32 6662   6.327   3.545   4.821  0.3839  1.2956  0.9333
   16CHTO   H60 6663   6.299   3.647   4.797 -0.0993  0.8554 -0.4038
   16CHTO   C36 6664   6.280   3.451   4.713 -0.3784 -0.0156  0.2612
   16CHTO   O25 6665   6.141   3.470   4.681 -0.2150 -0.3611  0.0160
   16CHTO   H40 6666   6.098   3.386   4.688 -1.1843  0.1113 -0.2105
   16CHTO   O15 6667   6.208   3.577   5.171  0.3388  0.4785 -0.1299
   16CHTO   C19 6668   6.142   3.604   5.307  0.2334  1.2134 -0.2264
   16CHTO   H47 6669   6.214   3.663   5.366 -0.1412  0.0389  1.4371
   16CHTO   C20 6670   6.014   3.698   5.282  0.3243 -0.4886 -0.1027
   16CHTO   H48 6671   5.947   3.655   5.207 -0.7432  1.4774 -0.2986
   16CHTO   O19 6672   6.065   3.825   5.234  0.3269 -0.0605 -0.4145
   16CHTO   H35 6673   5.988   3.868   5.201 -1.1826 -3.0353 -0.9595
   16CHTO   C21 6674   5.928   3.725   5.418  0.1065 -0.5512 -0.2551
   16CHTO   H49 6675   5.989   3.788   5.481  1.6212 -0.4477 -1.8011
   16CHTO    N4 6676   5.804   3.801   5.389  0.2507  0.2504  0.0452
   16CHTO   H41 6677   5.789   3.817   5.284  0.1772  0.0110  0.0183
   16CHTO   H42 6678   5.794   3.895   5.441 -2.5687 -1.2442  2.4023
   16CHTO   C22 6679   5.918   3.592   5.497  0.0213  0.1546  0.2713
   16CHTO   H50 6680   5.857   3.526   5.437 -0.4468  0.4056  0.4695
   16CHTO   O14 6681   6.046   3.535   5.517  0.2141  0.5522  0.5139
   16CHTO   C23 6682   6.112   3.481   5.400 -0.2336 -0.5861  0.4999
   16CHTO   H51 6683   6.043   3.413   5.350 -1.6758  1.2623 -0.0677
   16CHTO   C34 6684   6.250   3.417   5.436 -0.1002 -0.0209  0.1588
   16CHTO   O23 6685   6.307   3.326   5.339 -0.4008  0.2204  0.5079
   16CHTO   H38 6686   6.328   3.368   5.258 -0.3944  1.4217  1.1292
   16CHTO   O16 6687   5.857   3.604   5.630  0.5320 -0.1227 -0.7214
   16CHTO   C24 6688   5.784   3.472   5.677  0.1408  0.3678  0.3337
   16CHTO   H52 6689   5.792   3.390   5.605  1.2919  0.0405  0.8085
   16CHTO   C26 6690   5.635   3.499   5.704 -0.2381  0.3121 -0.3497
   16CHTO   H54 6691   5.630   3.587   5.772  0.8720  0.4560 -0.4433
   16CHTO   O20 6692   5.586   3.524   5.576 -0.0389 -0.3154 -0.1610
   16CHTO   H36 6693   5.511   3.580   5.585  0.3939  0.2268  0.0998
   16CHTO   C30 6694   5.564   3.383   5.780 -0.5343  0.0828  0.0277
   16CHTO   H58 6695   5.551   3.298   5.711  0.6167  0.3047 -0.4830
   16CHTO    N6 6696   5.427   3.422   5.820  0.0305 -0.4531 -0.1919
   16CHTO   H45 6697   5.358   3.339   5.823  0.4788 -0.7938  0.6424
   16CHTO   H46 6698   5.432   3.469   5.917  3.0948  0.0827 -0.5685
   16CHTO   C33 6699   5.650   3.339   5.905 -0.1554  0.6523  0.1628
   16CHTO   H61 6700   5.662   3.426   5.971 -0.1246  0.5454  0.2990
   16CHTO   O18 6701   5.779   3.302   5.854 -0.0337 -0.0059 -0.8085
   16CHTO   C28 6702   5.848   3.419   5.814  0.0329  0.1427 -0.0283
   16CHTO   H56 6703   5.848   3.504   5.882 -0.3044  1.0458 -1.1379
   16CHTO   C35 6704   5.987   3.372   5.782  0.4814 -0.2100 -0.1205
   16CHTO   O24 6705   6.073   3.362   5.894 -0.5178  0.2390 -0.1137
   16CHTO   H39 6706   6.152   3.316   5.878 -0.7228 -0.0431 -0.3137
   16CHTO    O9 6707   5.590   3.229   5.981 -0.1518  0.0470  0.4692
   16CHTO   C13 6708   5.639   3.242   6.142  0.9004  0.5511  0.7280
   16CHTO   H26 6709   5.569   3.309   6.196 -2.9135 -1.2240 -1.8256
   16CHTO   C11 6710   5.793   3.278   6.158  0.5936 -0.8087 -0.3934
   16CHTO   H24 6711   5.811   3.380   6.121  1.9546 -0.2141  1.7963
   16CHTO    O8 6712   5.877   3.194   6.084 -0.4669 -0.0550 -0.0474
   16CHTO    H3 6713   5.886   3.233   6.000  0.1088  2.1174  0.9913
   16CHTO    C9 6714   5.831   3.285   6.310  0.2075  0.4054  0.2991
   16CHTO   H22 6715   5.756   3.343   6.365 -0.0233  0.2880  0.1112
   16CHTO    N2 6716   5.956   3.362   6.324 -0.2961  0.7203  0.0681
   16CHTO   H10 6717   6.041   3.323   6.268  0.5355  0.4389  1.4997
   16CHTO   H11 6718   5.943   3.463   6.289 -0.6488  0.6589  0.0182
   16CHTO    C7 6719   5.835   3.139   6.366  0.1002 -0.3004  0.3622
   16CHTO   H20 6720   5.828   3.150   6.477 -0.0408  0.6062  0.2666
   16CHTO    O4 6721   5.718   3.069   6.323 -0.5032  0.4639 -0.9027
   16CHTO   C14 6722   5.622   3.106   6.227 -0.2085 -0.4466  0.1532
   16CHTO   H27 6723   5.527   3.115   6.283 -0.3673 -0.6755 -0.0809
   16CHTO   C18 6724   5.604   2.987   6.127  0.2049  0.2446  0.0172
   16CHTO   O13 6725   5.553   2.875   6.199 -0.2054  0.7959  0.3301
   16CHTO    H7 6726   5.616   2.814   6.231  0.3901  0.1071 -2.0588
   16CHTO    O2 6727   5.982   3.053   6.327 -0.1833  0.1524 -0.2878
   16CHTO    C1 6728   6.003   2.926   6.401  0.3691 -0.9559 -0.3008
   16CHTO   H14 6729   5.905   2.875   6.413  1.2813 -2.4422  1.0887
   16CHTO    C2 6730   6.063   2.957   6.542 -0.2284 -0.1535 -0.5005
   16CHTO   H15 6731   6.152   3.020   6.527 -0.6446  0.5555 -0.0305
   16CHTO    O6 6732   5.963   3.030   6.616  0.3343  0.2473 -0.0620
   16CHTO    H1 6733   5.981   3.120   6.634 -0.5297  0.3825  0.1488
   16CHTO    C3 6734   6.106   2.823   6.607  0.2270 -0.1416 -0.3596
   16CHTO   H16 6735   6.024   2.762   6.645 -0.0735  0.7723  0.4906
   16CHTO    N1 6736   6.193   2.832   6.733 -0.0596  0.1683  0.1691
   16CHTO    H8 6737   6.295   2.852   6.701  0.2511 -1.4481  0.0766
   16CHTO    H9 6738   6.150   2.917   6.783  1.3996  0.2963  1.2320
   16CHTO    C4 6739   6.182   2.739   6.492 -0.3373 -0.2245  0.0740
   16CHTO   H17 6740   6.273   2.795   6.466 -0.6304 -0.4068 -1.3970
   16CHTO    O1 6741   6.100   2.721   6.374  0.7537  0.1369  0.2849
   16CHTO    C5 6742   6.085   2.840   6.304 -0.0144  0.2008  0.3242
   16CHTO   H18 6743   6.183   2.884   6.291  0.2328 -0.2935  0.5055
   16CHTO   C16 6744   6.015   2.816   6.168  0.0202 -0.5066  0.4732
   16CHTO   O11 6745   5.878   2.768   6.186  0.6717 -0.8236  0.6880
   16CHTO    H5 6746   5.824   2.819   6.244  1.0357  0.7505 -0.3346
   16CHTO    O3 6747   6.210   2.601   6.535  0.3813 -0.2732 -0.3600
   16CHTO    C6 6748   6.305   2.518   6.459 -0.3661  0.0865  0.0856
   16CHTO   H19 6749   6.316   2.549   6.355  0.8851 -1.7317 -0.3431
   16CHTO    C8 6750   6.445   2.531   6.529 -0.4200  0.2117 -1.1991
   16CHTO   H21 6751   6.436   2.491   6.630  0.5502  0.0981 -1.1606
   16CHTO    O7 6752   6.480   2.675   6.533 -0.0718 -0.5719 -0.2846
   16CHTO    H2 6753   6.563   2.681   6.577  0.3617  1.1703 -1.2840
   16CHTO   C12 6754   6.553   2.440   6.458 -0.2794 -0.1585  0.4659
   16CHTO   H25 6755   6.563   2.479   6.355  1.9444  0.1136  0.7556
   16CHTO    N3 6756   6.685   2.445   6.513  0.1026  0.2755 -0.4133
   16CHTO   H12 6757   6.725   2.536   6.470  1.7680 -0.9070 -1.4455
   16CHTO   H13 6758   6.747   2.358   6.495 -1.5762 -1.5816  2.4597
   16CHTO   C15 6759   6.495   2.289   6.453 -0.6033  0.2305 -0.0285
   16CHTO   H28 6760   6.480   2.246   6.552  1.1901  1.5264  0.8374
   16CHTO   O10 6761   6.584   2.201   6.353 -0.0060 -0.3008 -0.1203
   16CHTO    H4 6762   6.528   2.152   6.296  0.3024 -0.4525 -0.2954
   16CHTO    O5 6763   6.363   2.290   6.392  0.4547 -0.2380 -0.1560
   16CHTO   C10 6764   6.264   2.368   6.459 -0.0948  0.5045  0.7728
   16CHTO   H23 6765   6.247   2.334   6.561 -1.3326 -1.6668 -0.1036
   16CHTO   C17 6766   6.126   2.365   6.387 -0.4942  0.1982 -0.1330
   16CHTO   O12 6767   6.076   2.238   6.357 -1.0317 -0.3602 -0.6070
   16CHTO    H6 6768   6.142   2.175   6.374 -0.1125  0.2205 -1.8907
   17CHTO  H203 6769   6.600   5.963   6.719 -2.5041 -0.6246 -1.6917
   17CHTO   O82 6770   6.582   5.901   6.787  0.3573  0.2827 -0.0172
   17CHTO  C123 6771   6.499   5.961   6.885 -0.1119  0.1475 -0.1309
   17CHTO  H227 6772   6.539   6.061   6.909 -0.2855 -0.0266  0.9165
   17CHTO   O77 6773   6.359   5.979   6.834  0.2339 -0.1853  0.2662
   17CHTO  C118 6774   6.275   6.053   6.922 -0.2899  0.1584  0.2702
   17CHTO  H222 6775   6.312   6.155   6.940  2.7016 -0.6205 -1.2329
   17CHTO  C125 6776   6.133   6.060   6.857  0.1799  0.1518  0.5122
   17CHTO   O84 6777   6.139   6.135   6.734 -0.8307 -0.8184 -0.6133
   17CHTO  H205 6778   6.164   6.073   6.669  0.8384 -1.1175  0.3023
   17CHTO  C114 6779   6.259   5.955   7.046 -0.9393  0.0472  0.4132
   17CHTO  H218 6780   6.220   5.859   7.013  0.4373 -0.1892 -0.5796
   17CHTO  C116 6781   6.396   5.932   7.117 -0.1769  0.1933 -0.0731
   17CHTO  H220 6782   6.430   6.018   7.178  1.5185 -1.4906  1.4531
   17CHTO   O79 6783   6.378   5.824   7.218 -0.5633 -0.9162  0.2887
   17CHTO  H201 6784   6.456   5.809   7.268  1.6288  0.1347 -2.7043
   17CHTO  C120 6785   6.499   5.876   7.018 -0.4676 -0.3538  0.3556
   17CHTO  H224 6786   6.475   5.769   7.002  0.2388 -0.5611  0.6517
   17CHTO   N21 6787   6.631   5.875   7.086 -0.2582  0.4346 -0.4855
   17CHTO  H211 6788   6.697   5.954   7.050  1.9654 -1.0087  0.3017
   17CHTO  H212 6789   6.682   5.782   7.064 -2.5589 -1.1095  0.5364
   17CHTO   O75 6790   6.168   6.010   7.139  0.6587 -0.2971  0.4170
   17CHTO  C112 6791   6.196   6.179   7.214 -0.2593 -0.1894  0.3143
   17CHTO  H216 6792   6.225   6.243   7.130 -2.9963 -0.3842 -0.8260
   17CHTO   O73 6793   6.299   6.171   7.313  0.7274 -0.4124 -0.2057
   17CHTO  C113 6794   6.317   6.308   7.365 -0.1389  0.1257  0.4436
   17CHTO  H217 6795   6.350   6.365   7.276 -1.3713 -1.1177 -0.8259
   17CHTO  C124 6796   6.438   6.306   7.466  0.2698  0.2026  0.3585
   17CHTO   O83 6797   6.411   6.242   7.592 -0.2156 -1.1428 -0.0085
   17CHTO  H204 6798   6.466   6.269   7.664  0.7424 -0.6098 -0.9267
   17CHTO  C109 6799   6.188   6.376   7.436 -0.0900  0.0198  0.4024
   17CHTO  H213 6800   6.163   6.313   7.523 -0.7953  0.9648  0.8849
   17CHTO  C110 6801   6.077   6.371   7.336  0.3955  0.2162 -0.0218
   17CHTO  H214 6802   6.083   6.449   7.261 -2.7443  0.7874  0.2495
   17CHTO   O78 6803   5.955   6.402   7.410  0.2262  0.2587 -0.0899
   17CHTO  H200 6804   5.920   6.325   7.451  1.8629 -1.2689 -1.4750
   17CHTO  C111 6805   6.061   6.229   7.271  0.5943 -0.0709  0.1058
   17CHTO  H215 6806   6.032   6.155   7.348 -2.3018  0.6387 -0.2430
   17CHTO   N19 6807   5.958   6.220   7.163  0.0531  0.4199 -0.1033
   17CHTO  H207 6808   5.901   6.310   7.144 -1.7951 -0.9094 -1.0339
   17CHTO  H208 6809   5.912   6.123   7.149  1.3052 -0.1772 -0.1257
   17CHTO   O74 6810   6.217   6.513   7.480 -0.0567  0.2079  0.0817
   17CHTO  C115 6811   6.224   6.526   7.641 -0.0052 -0.4517  0.8679
   17CHTO  H219 6812   6.161   6.447   7.683 -0.0552 -0.9796 -0.1883
   17CHTO   O76 6813   6.365   6.497   7.696  0.0978 -0.1070 -0.3306
   17CHTO  C122 6814   6.458   6.607   7.666 -0.3657 -0.6759  0.2839
   17CHTO  H226 6815   6.482   6.622   7.561  1.7614 -0.5213  0.7619
   17CHTO  C126 6816   6.592   6.577   7.739 -0.2695 -0.2959 -0.0031
   17CHTO   O85 6817   6.693   6.665   7.674  0.1211  0.3179 -0.4718
   17CHTO  H206 6818   6.707   6.633   7.587 -1.3296 -0.4497 -0.4410
   17CHTO  C121 6819   6.401   6.748   7.710 -0.0998  0.1799 -0.9627
   17CHTO  H225 6820   6.466   6.799   7.783  0.4201  0.2925 -1.5057
   17CHTO   O81 6821   6.394   6.832   7.589 -0.1891 -0.7023 -0.6504
   17CHTO  H202 6822   6.449   6.813   7.516  1.6957 -0.4854  0.6744
   17CHTO  C119 6823   6.263   6.738   7.770  0.2272  0.0030 -1.2639
   17CHTO  H223 6824   6.271   6.678   7.861  0.4434  0.7143 -0.8073
   17CHTO  C117 6825   6.163   6.669   7.673  0.3978  0.1067 -0.5295
   17CHTO  H221 6826   6.145   6.725   7.581 -2.2990  2.2297  1.1837
   17CHTO   N20 6827   6.027   6.656   7.737  0.3258  0.2657  0.1747
   17CHTO  H209 6828   6.016   6.583   7.816  1.7464 -0.2217 -0.0565
   17CHTO  H210 6829   5.950   6.636   7.664  0.8335  0.4801 -0.4310
   17CHTO   O80 6830   6.221   6.872   7.834 -0.3589  0.3988 -0.5822
   17CHTO  C103 6831   6.245   6.904   7.994  0.8492 -0.6884 -0.5174
   17CHTO  H190 6832   6.189   6.833   8.055 -1.9115  1.9764  0.1990
   17CHTO  C101 6833   6.393   6.884   8.040  0.3082 -0.3730 -0.0217
   17CHTO  H188 6834   6.457   6.914   7.957 -2.1214 -0.4703 -1.9873
   17CHTO   O68 6835   6.437   6.736   8.094  0.4119 -0.2963 -0.4568
   17CHTO  H168 6836   6.379   6.674   8.055  0.8989 -2.1737  1.6743
   17CHTO   C99 6837   6.426   6.978   8.164  0.2485  0.3900 -0.8167
   17CHTO  H186 6838   6.387   6.934   8.258 -0.7126  0.4759 -1.1687
   17CHTO   N17 6839   6.575   6.984   8.189 -0.8280  0.1213  0.0582
   17CHTO  H174 6840   6.595   6.980   8.295 -1.3168  0.5233  0.1686
   17CHTO  H175 6841   6.622   7.065   8.136  1.9057 -1.2863  0.2506
   17CHTO   C97 6842   6.367   7.119   8.155 -0.0479 -0.2972  0.6952
   17CHTO  H184 6843   6.415   7.160   8.065 -1.1204 -1.8944 -0.6322
   17CHTO   O64 6844   6.226   7.113   8.139  0.0100 -0.0446 -0.3668
   17CHTO  C104 6845   6.181   7.048   8.016 -0.4403 -0.1060  0.5125
   17CHTO  H191 6846   6.205   7.123   7.940 -2.2550 -0.8249 -0.8232
   17CHTO  C108 6847   6.032   7.036   8.011  0.9261 -0.0193 -0.0714
   17CHTO   O71 6848   5.971   6.956   8.112  0.4233  0.5447 -0.4558
   17CHTO  H171 6849   5.971   6.863   8.095 -0.6211  0.7586 -1.6724
   17CHTO   O62 6850   6.380   7.206   8.268  0.0466  0.2448 -0.2915
   17CHTO   C91 6851   6.468   7.320   8.263 -0.0057 -0.0504 -0.5975
   17CHTO  H178 6852   6.544   7.306   8.186  0.4320 -0.6981 -0.0585
   17CHTO   C92 6853   6.555   7.334   8.392 -0.0543  0.2552  0.3679
   17CHTO  H179 6854   6.593   7.237   8.427  0.5654  0.3542 -0.0169
   17CHTO   O66 6855   6.668   7.420   8.373 -0.2274 -0.0505  0.2303
   17CHTO  H166 6856   6.671   7.462   8.289 -2.3708  0.1437  0.2045
   17CHTO   C93 6857   6.460   7.391   8.511 -0.5309 -0.1979  0.3017
   17CHTO  H180 6858   6.521   7.440   8.588 -3.0725  0.9517  1.6715
   17CHTO   N16 6859   6.379   7.288   8.583 -0.3018 -0.2478 -0.4421
   17CHTO  H172 6860   6.274   7.303   8.561 -0.3632  0.3268  0.2384
   17CHTO  H173 6861   6.400   7.290   8.689 -1.9319  0.1980 -0.1068
   17CHTO   C94 6862   6.372   7.507   8.456 -0.1377  0.2647 -0.2534
   17CHTO  H181 6863   6.267   7.476   8.446 -0.2140 -0.5157  2.4836
   17CHTO   O61 6864   6.403   7.556   8.325 -0.0173 -0.6321  0.2147
   17CHTO   C95 6865   6.387   7.453   8.230 -0.3756  0.4799 -0.6854
   17CHTO  H182 6866   6.280   7.429   8.226 -0.4448  0.4615  1.1523
   17CHTO  C106 6867   6.431   7.521   8.091 -0.1330  0.0836 -0.2065
   17CHTO   O69 6868   6.394   7.428   7.986 -0.5866 -0.1858 -0.0458
   17CHTO  H169 6869   6.455   7.357   7.978  0.5903  0.8217 -0.2820
   17CHTO   O63 6870   6.374   7.641   8.568  0.0315 -0.1005 -0.0549
   17CHTO   C96 6871   6.257   7.668   8.622 -0.4096  1.0739 -0.0842
   17CHTO  H183 6872   6.204   7.574   8.634  2.4212 -0.5367  0.2783
   17CHTO   C98 6873   6.175   7.771   8.550 -0.1911 -0.0286 -0.3455
   17CHTO  H185 6874   6.232   7.865   8.536  0.0108 -0.2963 -1.3522
   17CHTO   O67 6875   6.155   7.724   8.419  0.2526 -0.1574  0.1163
   17CHTO  H167 6876   6.079   7.756   8.374  0.8495  0.8386 -0.1868
   17CHTO  C102 6877   6.044   7.810   8.624 -0.0781  0.2309 -0.1450
   17CHTO  H189 6878   5.975   7.725   8.613 -0.6416  0.9508 -2.7584
   17CHTO   N18 6879   5.973   7.927   8.574  0.2155  0.4453  0.6442
   17CHTO  H176 6880   6.041   8.011   8.587  1.1390  0.1818 -2.0577
   17CHTO  H177 6881   5.884   7.940   8.633 -0.9981  0.5029 -1.1784
   17CHTO  C105 6882   6.061   7.820   8.778 -0.0063  0.1027 -0.4869
   17CHTO  H192 6883   6.102   7.918   8.802 -2.5382  0.4183  2.8630
   17CHTO   O65 6884   6.147   7.719   8.832  0.5233  0.1123 -0.2236
   17CHTO  C100 6885   6.278   7.719   8.773 -0.0485  0.3554  0.2647
   17CHTO  H187 6886   6.321   7.820   8.770  0.0643  0.2938 -0.1907
   17CHTO  C107 6887   6.384   7.636   8.855  0.9806  0.0790  0.4872
   17CHTO   O70 6888   6.349   7.493   8.854  0.0003  0.4872 -0.6061
   17CHTO  H170 6889   6.286   7.487   8.923  0.6443 -0.3291 -0.0784
   17CHTO   O57 6890   5.917   7.797   8.855 -0.5381 -0.5376  0.2289
   17CHTO   C85 6891   5.854   7.903   8.941  0.2203 -0.3799  0.3014
   17CHTO  H157 6892   5.890   8.002   8.905 -0.8916  0.1783  0.7046
   17CHTO   C83 6893   5.920   7.877   9.078 -0.3996 -0.0270  0.0962
   17CHTO  H155 6894   6.027   7.899   9.081 -0.0258 -1.7933  0.7774
   17CHTO   O56 6895   5.916   7.738   9.114 -0.1391 -0.1939  0.0370
   17CHTO  H135 6896   5.827   7.715   9.135 -0.5686  1.4420  0.1123
   17CHTO   C81 6897   5.849   7.970   9.181  0.5967  0.6758  0.0657
   17CHTO  H153 6898   5.849   8.072   9.140 -0.9052  0.0438 -1.6020
   17CHTO   N14 6899   5.927   7.987   9.308  0.2784  0.1971  0.4822
   17CHTO  H141 6900   5.877   7.952   9.397  0.6988 -0.8230  0.3279
   17CHTO  H142 6901   5.953   8.090   9.322 -0.5966  0.2903  1.4910
   17CHTO   C79 6902   5.697   7.930   9.194  0.2902  1.0101 -0.5550
   17CHTO  H151 6903   5.657   7.986   9.278  1.0770 -0.5135  0.8567
   17CHTO   O52 6904   5.640   7.977   9.070 -0.5889 -0.0552  0.5823
   17CHTO   C86 6905   5.697   7.898   8.946 -0.7205 -0.1589  0.2365
   17CHTO  H158 6906   5.665   7.793   8.958  1.2796 -0.7206  0.8855
   17CHTO   C90 6907   5.625   7.950   8.820 -0.2561  0.5001  0.2662
   17CHTO   O60 6908   5.666   7.875   8.706  0.4894 -0.5065  0.1805
   17CHTO  H138 6909   5.597   7.885   8.644  0.3609  0.1670  0.4263
   17CHTO   O50 6910   5.669   7.791   9.228 -0.0857 -0.4807  0.7708
   17CHTO   C73 6911   5.558   7.712   9.278  0.3945  0.0039 -0.6887
   17CHTO  H145 6912   5.507   7.770   9.356 -1.1961 -2.1557 -0.1043
   17CHTO   C74 6913   5.617   7.583   9.346  0.2155  0.5109 -0.1965
   17CHTO  H146 6914   5.695   7.623   9.413  1.6185 -0.0772 -1.4537
   17CHTO   O54 6915   5.511   7.523   9.425 -0.1050  0.0190 -0.3337
   17CHTO  H133 6916   5.535   7.439   9.460  0.2917 -0.2482 -1.2274
   17CHTO   C75 6917   5.675   7.487   9.237  0.5830  0.1728  0.6148
   17CHTO  H147 6918   5.767   7.533   9.197 -0.1059  1.9193  1.0309
   17CHTO   N13 6919   5.721   7.351   9.287  0.2349  0.6868  0.4286
   17CHTO  H139 6920   5.774   7.375   9.378  1.4653 -0.3822  0.0127
   17CHTO  H140 6921   5.792   7.303   9.221 -0.3563  0.8055 -0.2876
   17CHTO   C76 6922   5.567   7.465   9.121  0.0671  0.5412 -0.5866
   17CHTO  H148 6923   5.487   7.401   9.158 -1.4260  1.8959 -1.4397
   17CHTO   O49 6924   5.518   7.592   9.065 -0.0801  0.2025 -0.5811
   17CHTO   C77 6925   5.463   7.678   9.166  0.3927 -0.1530 -0.0205
   17CHTO  H149 6926   5.382   7.619   9.211  1.0673 -1.4345 -0.4615
   17CHTO   C88 6927   5.395   7.803   9.109  0.0792 -0.3395  0.5218
   17CHTO   O58 6928   5.275   7.747   9.025 -0.2252  0.4380 -0.4035
   17CHTO  H136 6929   5.295   7.690   8.953  0.1312 -0.5551  0.4653
   17CHTO   O51 6930   5.643   7.405   8.994  0.0976  0.2652 -0.5223
   17CHTO   C78 6931   5.529   7.324   8.885 -0.0857 -0.0365 -0.4796
   17CHTO  H150 6932   5.428   7.357   8.918 -0.0270  0.1200 -0.4550
   17CHTO   C80 6933   5.542   7.177   8.920  0.1533 -0.0227 -0.2990
   17CHTO  H152 6934   5.643   7.143   8.888 -0.8227 -2.7748 -0.4877
   17CHTO   O55 6935   5.532   7.164   9.061 -0.1231  0.0466 -0.3099
   17CHTO  H134 6936   5.611   7.140   9.106 -0.8545  0.9609  1.5448
   17CHTO   C84 6937   5.436   7.099   8.845 -0.1104  0.0953  0.2208
   17CHTO  H156 6938   5.340   7.138   8.879 -0.1968  1.7267 -1.7628
   17CHTO   N15 6939   5.436   6.948   8.882 -0.2234  0.0596  0.1399
   17CHTO  H143 6940   5.353   6.887   8.851 -1.2049  0.6033  1.6501
   17CHTO  H144 6941   5.451   6.936   8.987  0.3047  2.6821  0.3852
   17CHTO   C87 6942   5.473   7.117   8.696 -0.5555 -0.6441 -0.5367
   17CHTO  H159 6943   5.575   7.084   8.676 -0.7519  0.0151 -2.7872
   17CHTO   O53 6944   5.470   7.261   8.656  0.4345 -0.1552 -0.2563
   17CHTO   C82 6945   5.557   7.344   8.737  0.0288  0.1302  0.5655
   17CHTO  H154 6946   5.660   7.314   8.714 -0.4878 -2.0977  1.0872
   17CHTO   C89 6947   5.542   7.491   8.697  0.1694 -0.6129  0.2956
   17CHTO   O59 6948   5.414   7.545   8.724 -0.0115 -0.6085  0.1926
   17CHTO  H137 6949   5.349   7.486   8.690 -1.3137 -0.1029  1.7637
   17CHTO   O45 6950   5.375   7.042   8.585  0.5052  0.0466  0.1118
   17CHTO   C67 6951   5.441   6.932   8.531 -0.9285 -0.3652  0.3144
   17CHTO  H124 6952   5.509   6.886   8.603 -0.4855 -0.7208 -0.3320
   17CHTO   C65 6953   5.323   6.834   8.490 -0.0255 -0.5180  0.4253
   17CHTO  H122 6954   5.255   6.841   8.575 -1.1319  1.6913 -0.6017
   17CHTO   O44 6955   5.372   6.700   8.477 -0.2785 -0.0168 -0.0868
   17CHTO  H102 6956   5.302   6.637   8.473 -1.5621  1.3758 -0.1408
   17CHTO   C63 6957   5.238   6.896   8.371 -0.4063  0.0560 -0.4978
   17CHTO  H120 6958   5.199   6.992   8.405  0.2294 -0.0829  0.6280
   17CHTO   N11 6959   5.114   6.827   8.338 -0.2071  0.1123  0.1955
   17CHTO  H108 6960   5.058   6.890   8.273  1.2083  0.6466 -0.5200
   17CHTO  H109 6961   5.138   6.732   8.296  2.6938  0.2235  1.4430
   17CHTO   C61 6962   5.336   6.918   8.241 -0.3208  0.5282 -0.1024
   17CHTO  H118 6963   5.277   6.977   8.169 -0.7715  1.5168  1.0531
   17CHTO   O40 6964   5.452   7.000   8.274  0.3951  0.0134 -0.4227
   17CHTO   C68 6965   5.530   6.963   8.393  0.0823  0.4422 -0.3516
   17CHTO  H125 6966   5.593   7.052   8.413  0.5320  0.7830 -3.1737
   17CHTO   C72 6967   5.627   6.841   8.358  0.5040 -0.4920 -0.6669
   17CHTO   O48 6968   5.744   6.863   8.279 -0.8052  0.3388  0.2623
   17CHTO  H105 6969   5.735   6.825   8.194  2.3269 -0.3862  0.2190
   17CHTO   O38 6970   5.382   6.788   8.190 -0.6659  0.4819  0.6667
   17CHTO   C55 6971   5.413   6.779   8.049 -0.4030 -1.1389  0.2063
   17CHTO  H112 6972   5.471   6.687   8.037  1.5736  0.2560 -1.1204
   17CHTO   C56 6973   5.487   6.908   7.985 -0.0548  0.9652 -0.7256
   17CHTO  H113 6974   5.429   6.998   8.014 -0.8315  0.0472  0.6021
   17CHTO   O42 6975   5.620   6.913   8.049  0.2037  0.3031  0.4087
   17CHTO  H100 6976   5.669   6.834   8.041 -0.0272 -0.1667  3.1488
   17CHTO   C57 6977   5.498   6.887   7.829 -0.2185  0.0980  0.2937
   17CHTO  H114 6978   5.574   6.814   7.800 -0.9487  0.1881 -1.9644
   17CHTO   N10 6979   5.546   7.007   7.759 -0.1041  0.4879 -0.0226
   17CHTO  H106 6980   5.459   7.069   7.741 -0.4226  0.3305  0.9427
   17CHTO  H107 6981   5.598   6.983   7.668  0.7724  1.8886  0.0762
   17CHTO   C58 6982   5.364   6.846   7.771  0.4572  0.0841  0.1101
   17CHTO  H115 6983   5.290   6.929   7.778  0.6792  0.2137  0.8915
   17CHTO   O37 6984   5.323   6.727   7.842 -0.1029 -0.5827 -0.2602
   17CHTO   C59 6985   5.280   6.752   7.971  0.0759  1.0064 -0.2194
   17CHTO  H116 6986   5.213   6.838   7.962 -0.2518  0.7153 -0.5237
   17CHTO   C70 6987   5.216   6.628   8.034  0.1885 -0.2739  0.1872
   17CHTO   O46 6988   5.096   6.600   7.970 -0.1189 -0.5281 -0.5967
   17CHTO  H103 6989   5.029   6.614   8.035  0.7388 -0.4991  0.3032
   17CHTO   O39 6990   5.359   6.802   7.612  0.3817 -0.1571 -0.1235
   17CHTO   C60 6991   5.230   6.823   7.547  0.0018 -0.4549 -0.0219
   17CHTO  H117 6992   5.154   6.851   7.620  0.0443 -2.4352  0.8035
   17CHTO   C62 6993   5.239   6.941   7.438 -0.9464  0.3418  0.3017
   17CHTO  H119 6994   5.267   7.033   7.493 -1.8512  1.2208 -0.6612
   17CHTO   O43 6995   5.339   6.901   7.345  0.0303 -0.1139 -0.0374
   17CHTO  H101 6996   5.301   6.880   7.262  1.2908 -0.4067 -0.5501
   17CHTO   C66 6997   5.091   6.958   7.379  0.0739  0.5935  0.4766
   17CHTO  H123 6998   5.026   6.997   7.458 -0.9383  0.1162 -0.1049
   17CHTO   N12 6999   5.089   7.061   7.273 -0.1688  0.0563  0.8719
   17CHTO  H110 7000   5.188   7.063   7.229  0.1803 -0.6088  1.6120
   17CHTO  H111 7001   5.061   7.156   7.314  0.5090  0.6397  0.0105
   17CHTO   C69 7002   5.040   6.817   7.326  0.2833 -0.1816  0.0508
   17CHTO  H126 7003   5.099   6.783   7.238  1.3059 -0.1433  0.7018
   17CHTO   O41 7004   5.046   6.709   7.425  0.8643  0.5125 -0.0754
   17CHTO   C64 7005   5.183   6.689   7.483  0.5465  0.4063 -0.3172
   17CHTO  H121 7006   5.253   6.644   7.409 -2.2563  0.9919 -3.4275
   17CHTO   C71 7007   5.176   6.590   7.596  0.8333  0.4585 -0.4017
   17CHTO   O47 7008   5.145   6.464   7.545 -0.4709  0.2064 -0.1142
   17CHTO  H104 7009   5.142   6.404   7.617 -0.0697 -0.4264 -0.6205
   17CHTO   O34 7010   4.877   6.828   7.291  0.1354 -0.3914  0.2269
   17CHTO   C49 7011   4.722   6.839   7.367 -0.4799 -0.4751 -0.4628
   17CHTO   H91 7012   4.685   6.942   7.368  1.8091  0.3899 -1.2686
   17CHTO   C47 7013   4.733   6.811   7.519  0.8473  0.2662  0.4231
   17CHTO   H89 7014   4.636   6.842   7.564 -0.2703 -2.3635 -0.0505
   17CHTO   O33 7015   4.838   6.887   7.585 -0.2471 -0.1559  0.2046
   17CHTO   H70 7016   4.831   6.893   7.678  1.8825 -0.7704  0.4370
   17CHTO   C45 7017   4.757   6.651   7.544 -0.2162  0.3308  0.4265
   17CHTO   H87 7018   4.864   6.638   7.569 -0.4554 -0.3607  1.1250
   17CHTO    N8 7019   4.673   6.611   7.666 -0.0561  0.1309  0.5466
   17CHTO   H75 7020   4.572   6.647   7.654  0.0701 -0.4892 -2.8305
   17CHTO   H76 7021   4.672   6.503   7.677  0.6233 -0.1623 -2.1224
   17CHTO   C43 7022   4.738   6.566   7.412 -0.0398 -0.0640  0.0248
   17CHTO   H85 7023   4.829   6.583   7.356  0.0476  0.6242  0.3624
   17CHTO   O29 7024   4.622   6.602   7.349  0.0687  0.5278 -0.0483
   17CHTO   C50 7025   4.623   6.743   7.313 -0.0835 -0.7206 -0.2904
   17CHTO   H92 7026   4.626   6.743   7.203  1.7017 -3.8091 -0.2875
   17CHTO   C54 7027   4.483   6.806   7.335 -0.4600 -0.1779 -0.2906
   17CHTO   O36 7028   4.378   6.773   7.245  0.1230 -0.0587 -0.0165
   17CHTO   H72 7029   4.310   6.720   7.281  2.8211 -1.1360  3.8564
   17CHTO   O27 7030   4.726   6.425   7.444 -0.3717  0.1729  0.5073
   17CHTO   C37 7031   4.821   6.328   7.492 -0.6621  0.8403  0.0881
   17CHTO   H79 7032   4.895   6.381   7.553  0.9376 -0.0028 -1.0715
   17CHTO   C38 7033   4.771   6.207   7.587 -0.3612 -0.8310  0.6777
   17CHTO   H80 7034   4.695   6.150   7.532  0.0943 -1.0826  0.3103
   17CHTO   O31 7035   4.715   6.273   7.701 -0.1449  0.1581 -0.1978
   17CHTO   H68 7036   4.622   6.263   7.690 -0.4809  1.1705  1.4994
   17CHTO   C39 7037   4.885   6.105   7.631 -0.4961  0.6603 -1.0164
   17CHTO   H81 7038   4.947   6.169   7.693 -2.4406 -0.0189  1.7146
   17CHTO    N7 7039   4.853   5.991   7.725 -0.0338  0.4173  0.2363
   17CHTO   H73 7040   4.941   5.962   7.780  1.0787  0.1783 -1.6175
   17CHTO   H74 7041   4.813   5.902   7.679 -0.8732  0.0353  1.6941
   17CHTO   C40 7042   4.958   6.058   7.500  0.3303  0.4368 -0.4444
   17CHTO   H82 7043   4.900   5.985   7.443 -0.0901  0.7787 -0.4543
   17CHTO   O26 7044   4.994   6.171   7.418 -0.1081  0.5564 -0.0048
   17CHTO   C41 7045   4.893   6.267   7.371  1.3063 -0.2614 -0.1374
   17CHTO   H83 7046   4.827   6.216   7.299 -0.9083  1.6669  0.4736
   17CHTO   C52 7047   4.976   6.361   7.280 -0.2831 -0.3692 -0.2035
   17CHTO   O35 7048   5.028   6.305   7.164 -1.0142 -0.2568 -0.3067
   17CHTO   H71 7049   5.117   6.330   7.147 -1.3717  1.9795  0.8682
   17CHTO   O28 7050   5.080   5.986   7.525 -0.0311 -0.1608  0.5612
   17CHTO   C42 7051   5.214   6.037   7.559  0.5146 -0.3588  0.6148
   17CHTO   H84 7052   5.265   5.941   7.571 -3.0079 -2.3348  0.4531
   17CHTO   C44 7053   5.241   6.123   7.680  0.1989  0.3983 -0.0038
   17CHTO   H86 7054   5.165   6.201   7.687 -2.8967 -2.2599 -2.4902
   17CHTO   O32 7055   5.221   6.035   7.796  0.6850 -0.6325 -0.6451
   17CHTO   H69 7056   5.272   6.064   7.869 -1.4958  2.0849 -0.1123
   17CHTO   C48 7057   5.379   6.190   7.691 -0.2377 -0.0835 -0.8594
   17CHTO   H90 7058   5.445   6.118   7.740 -1.1732  1.5920  3.0550
   17CHTO    N9 7059   5.378   6.296   7.796  0.0962 -0.0746  0.1507
   17CHTO   H77 7060   5.279   6.320   7.833 -0.5759 -1.0468 -0.9782
   17CHTO   H78 7061   5.438   6.279   7.884  0.2780  1.3497  0.3227
   17CHTO   C51 7062   5.431   6.241   7.557 -0.1799 -0.6699  0.2545
   17CHTO   H93 7063   5.366   6.323   7.528 -1.1756 -0.7640  2.1479
   17CHTO   O30 7064   5.424   6.132   7.468 -0.5330 -0.0736 -0.3075
   17CHTO   C46 7065   5.279   6.107   7.438  0.1229  0.4169 -0.2698
   17CHTO   H88 7066   5.230   6.204   7.425 -3.1733 -0.9858  1.0793
   17CHTO   C53 7067   5.271   6.035   7.304  0.3805  0.4506  0.1064
   17CHTO   O72 7068   5.318   5.900   7.300  0.2804  0.0958  0.2580
   17CHTO  H199 7069   5.409   5.899   7.274  0.4432 -0.5320  0.8419
   17CHTO   O22 7070   5.576   6.281   7.555  0.7581  0.1159 -0.3254
   17CHTO   C31 7071   5.624   6.410   7.503 -0.2384  0.5043  0.0556
   17CHTO   H59 7072   5.732   6.390   7.486 -0.4902 -1.3031  0.4998
   17CHTO   C29 7073   5.560   6.446   7.368  0.3447  0.1118 -0.1529
   17CHTO   H57 7074   5.453   6.471   7.376 -0.0931 -2.0222  1.2478
   17CHTO   O21 7075   5.577   6.329   7.288  0.3501 -0.5658  0.3004
   17CHTO   H37 7076   5.507   6.270   7.307  0.2001 -0.2967  0.5984
   17CHTO   C27 7077   5.642   6.564   7.303  0.4103 -0.1433 -0.0733
   17CHTO   H55 7078   5.749   6.540   7.296  0.2087 -0.4473 -2.1664
   17CHTO    N5 7079   5.592   6.607   7.166 -0.1400  0.1705 -0.6348
   17CHTO   H43 7080   5.594   6.515   7.109  0.9490  1.1225 -2.1454
   17CHTO   H44 7081   5.656   6.685   7.128  0.2953  0.5288  0.7817
   17CHTO   C25 7082   5.638   6.677   7.409 -0.3751 -0.2321  0.2510
   17CHTO   H53 7083   5.538   6.721   7.414  0.4519  1.8417 -0.6312
   17CHTO   O17 7084   5.685   6.640   7.539 -1.3004 -0.6789  0.1137
   17CHTO   C32 7085   5.613   6.526   7.600 -0.3526  0.1838 -0.1041
   17CHTO   H60 7086   5.509   6.553   7.619 -0.1511  0.2824  0.8584
   17CHTO   C36 7087   5.675   6.478   7.736  0.2369  1.4406  0.2875
   17CHTO   O25 7088   5.674   6.576   7.837  0.7943  0.1267  0.2445
   17CHTO   H40 7089   5.719   6.545   7.913 -2.0828 -0.5015  1.7600
   17CHTO   O15 7090   5.740   6.807   7.355  0.1236  1.0150 -0.0744
   17CHTO   C19 7091   5.761   6.957   7.355 -0.6423  0.1530  0.2555
   17CHTO   H47 7092   5.830   6.978   7.271  0.3382 -2.3764  0.3706
   17CHTO   C20 7093   5.631   7.029   7.318  0.1634 -0.2206  0.3612
   17CHTO   H48 7094   5.542   6.999   7.375 -1.6094  2.2298 -1.0201
   17CHTO   O19 7095   5.588   6.995   7.186 -0.4075  0.4962 -0.6612
   17CHTO   H35 7096   5.495   7.005   7.181 -1.0012 -3.3908  0.6184
   17CHTO   C21 7097   5.647   7.186   7.335  0.6764 -0.0523 -0.0149
   17CHTO   H49 7098   5.713   7.221   7.256 -0.8314  0.4885 -1.0317
   17CHTO    N4 7099   5.517   7.262   7.328 -0.3432  0.1218  0.2484
   17CHTO   H41 7100   5.523   7.350   7.265 -0.5235  1.8595  2.5969
   17CHTO   H42 7101   5.479   7.291   7.424 -1.6744 -1.2452  0.1453
   17CHTO   C22 7102   5.727   7.224   7.461  0.5426 -0.4904 -0.0546
   17CHTO   H50 7103   5.651   7.207   7.537  0.5147  2.4975  0.6358
   17CHTO   O14 7104   5.853   7.157   7.466 -0.0429  0.7040  0.1492
   17CHTO   C23 7105   5.825   7.015   7.480  0.6286 -0.6001 -0.1496
   17CHTO   H51 7106   5.754   7.008   7.563 -1.3997  1.4827 -1.6646
   17CHTO   C34 7107   5.953   6.944   7.524  0.3031 -0.8132 -0.1015
   17CHTO   O23 7108   5.987   6.988   7.658 -0.2550 -0.3441 -0.4476
   17CHTO   H38 7109   6.061   6.941   7.692 -0.1577  1.0410  1.3061
   17CHTO   O16 7110   5.766   7.360   7.469 -0.0007 -0.3707 -0.2885
   17CHTO   C24 7111   5.789   7.399   7.628 -0.1588 -0.2515 -0.1934
   17CHTO   H52 7112   5.770   7.315   7.694 -2.6823  1.5578  1.4773
   17CHTO   C26 7113   5.692   7.519   7.655  0.2583 -0.5011 -0.6073
   17CHTO   H54 7114   5.707   7.600   7.580  1.4558 -1.7770 -1.7586
   17CHTO   O20 7115   5.559   7.470   7.636  0.5717 -0.1826  0.3547
   17CHTO   H36 7116   5.521   7.491   7.553  0.7652 -1.2375 -0.0138
   17CHTO   C30 7117   5.702   7.569   7.801 -0.0360 -0.1612 -0.1466
   17CHTO   H58 7118   5.650   7.501   7.870 -0.0571 -2.3329 -2.2354
   17CHTO    N6 7119   5.621   7.694   7.824  0.1277 -0.2744 -0.5639
   17CHTO   H45 7120   5.618   7.730   7.926  0.3259  1.0303 -1.0074
   17CHTO   H46 7121   5.665   7.772   7.764  2.2674 -2.0220 -1.3089
   17CHTO   C33 7122   5.856   7.584   7.836 -0.0006  0.3041  0.6839
   17CHTO   H61 7123   5.902   7.673   7.790  0.1565 -0.5781 -0.8982
   17CHTO   O18 7124   5.933   7.467   7.795  0.2398 -0.1936 -0.4268
   17CHTO   C28 7125   5.935   7.445   7.652  0.9094  0.2270  0.1573
   17CHTO   H56 7126   5.957   7.544   7.612  0.7174  0.0849 -0.3037
   17CHTO   C35 7127   6.052   7.348   7.613  0.0808 -0.2417  0.7525
   17CHTO   O24 7128   6.081   7.340   7.475 -0.3954 -0.3510  0.2666
   17CHTO   H39 7129   6.151   7.278   7.462 -1.0544 -1.6656  2.6481
   17CHTO    O9 7130   5.874   7.611   7.974  0.0890 -0.2168 -0.2553
   17CHTO   C13 7131   5.982   7.542   8.052  0.2129  0.3253 -0.0679
   17CHTO   H26 7132   6.071   7.533   7.986  1.9888  0.0410  2.2772
   17CHTO   C11 7133   5.942   7.411   8.126  0.6497  0.3912 -0.3440
   17CHTO   H24 7134   6.021   7.335   8.123 -1.0368 -1.3662 -0.9428
   17CHTO    O8 7135   5.833   7.353   8.052  0.3188  0.1856  0.1705
   17CHTO    H3 7136   5.839   7.260   8.067 -4.0472 -0.1728  0.1849
   17CHTO    C9 7137   5.916   7.430   8.279 -0.2640  0.3844 -0.3156
   17CHTO   H22 7138   6.015   7.447   8.324 -0.9051  0.3051  1.1529
   17CHTO    N2 7139   5.873   7.310   8.352  0.9286 -0.5787 -0.4530
   17CHTO   H10 7140   5.896   7.316   8.457  0.6137  1.4474 -0.4977
   17CHTO   H11 7141   5.768   7.289   8.339  0.7416  0.1482 -0.0874
   17CHTO    C7 7142   5.829   7.559   8.285 -0.1358  0.2281 -0.3759
   17CHTO   H20 7143   5.814   7.587   8.392 -0.4805  1.0234 -0.6299
   17CHTO    O4 7144   5.902   7.673   8.240 -0.2281 -0.5162  0.0848
   17CHTO   C14 7145   6.021   7.651   8.159 -0.3636 -0.4904  0.0602
   17CHTO   H27 7146   6.106   7.616   8.222  0.1817  0.2239 -0.2746
   17CHTO   C18 7147   6.067   7.773   8.088 -0.1706 -0.1208 -0.6964
   17CHTO   O13 7148   6.116   7.877   8.170  0.0331 -0.2597  0.0426
   17CHTO    H7 7149   6.126   7.950   8.112 -1.6060 -0.0800 -0.0439
   17CHTO    O2 7150   5.690   7.551   8.204  0.2009 -0.0187 -0.0917
   17CHTO    C1 7151   5.567   7.543   8.288 -0.1915 -0.2638  0.1631
   17CHTO   H14 7152   5.597   7.511   8.390 -0.1963  0.7308  0.4809
   17CHTO    C2 7153   5.473   7.436   8.218 -0.4197  0.2375 -0.5005
   17CHTO   H15 7154   5.471   7.463   8.112 -1.2564 -0.8309 -0.7691
   17CHTO    O6 7155   5.531   7.311   8.233  0.3662 -0.0792  0.4718
   17CHTO    H1 7156   5.478   7.252   8.183 -0.4211  1.5443 -0.6438
   17CHTO    C3 7157   5.323   7.441   8.268 -0.3327 -0.5361  0.5494
   17CHTO   H16 7158   5.320   7.408   8.373  0.6848 -0.6341  0.5522
   17CHTO    N1 7159   5.227   7.358   8.193 -0.1208 -0.2941 -0.2102
   17CHTO    H8 7160   5.158   7.415   8.133 -1.6677 -1.1351  0.7253
   17CHTO    H9 7161   5.280   7.290   8.127 -0.7856 -0.0021 -1.0476
   17CHTO    C4 7162   5.269   7.586   8.271  0.1745  0.1303 -0.3029
   17CHTO   H17 7163   5.244   7.618   8.169 -3.2772 -1.0393  0.0996
   17CHTO    O1 7164   5.361   7.675   8.335 -0.1524  0.0053  0.2898
   17CHTO    C5 7165   5.499   7.679   8.282 -0.3754  0.2019 -0.0818
   17CHTO   H18 7166   5.503   7.703   8.175 -1.1318  1.5776  0.1906
   17CHTO   C16 7167   5.583   7.792   8.362 -0.2750 -0.0386  0.5086
   17CHTO   O11 7168   5.514   7.913   8.356  0.1167  0.3423  0.0738
   17CHTO    H5 7169   5.528   7.943   8.268  1.0640 -2.8614 -0.9735
   17CHTO    O3 7170   5.152   7.594   8.353  0.4752  0.3473  0.1598
   17CHTO    C6 7171   5.093   7.722   8.361  0.6635  0.0366 -0.2660
   17CHTO   H19 7172   5.158   7.805   8.333 -0.4831  0.5182 -1.5438
   17CHTO    C8 7173   4.979   7.730   8.258  0.0156  0.1866 -0.2192
   17CHTO   H21 7174   4.909   7.648   8.275 -1.0837  0.6128 -2.4634
   17CHTO    O7 7175   5.037   7.731   8.123 -0.0003  0.2977  0.5266
   17CHTO    H2 7176   5.121   7.772   8.123 -0.1369  0.6723 -2.0924
   17CHTO   C12 7177   4.899   7.861   8.281 -0.0444  0.0025 -0.1700
   17CHTO   H25 7178   4.951   7.949   8.239 -1.1752  2.0953  2.6432
   17CHTO    N3 7179   4.773   7.850   8.198  0.0905 -0.0103 -0.1018
   17CHTO   H12 7180   4.722   7.763   8.238  0.1376  0.5170  1.1334
   17CHTO   H13 7181   4.708   7.936   8.201  0.4573  0.2528  0.3960
   17CHTO   C15 7182   4.865   7.895   8.435  0.3386 -0.0612  0.8464
   17CHTO   H28 7183   4.776   7.853   8.481  0.3026  0.9003  1.6535
   17CHTO   O10 7184   4.854   8.041   8.446  0.4966 -0.0279 -0.2013
   17CHTO    H4 7185   4.793   8.070   8.381 -1.9299  0.1873  2.1086
   17CHTO    O5 7186   4.980   7.874   8.522  0.4051  0.0515  0.2994
   17CHTO   C10 7187   5.041   7.750   8.504 -0.3795  0.8842 -1.1492
   17CHTO   H23 7188   4.963   7.676   8.523  1.6707 -0.8527  0.8237
   17CHTO   C17 7189   5.150   7.727   8.614  0.2574 -0.0867  0.6498
   17CHTO   O12 7190   5.254   7.834   8.620  0.4288 -0.5050 -0.4054
   17CHTO    H6 7191   5.274   7.864   8.707  1.4806 -0.5524 -0.6215
   18CHTO  H203 7192   5.859   8.528   1.838 -0.0602  0.9932 -0.3986
   18CHTO   O82 7193   5.937   8.519   1.788  0.4443  0.3931  0.4881
   18CHTO  C123 7194   5.946   8.393   1.718 -0.6057  0.3999  0.1802
   18CHTO  H227 7195   5.845   8.366   1.685 -0.3485  2.6493 -2.7075
   18CHTO   O77 7196   6.022   8.425   1.596  0.2471 -0.1233 -0.2616
   18CHTO  C118 7197   6.054   8.316   1.510  0.1227  0.6686  0.2860
   18CHTO  H222 7198   5.965   8.252   1.507  0.1641  0.5477  1.4790
   18CHTO  C125 7199   6.096   8.364   1.364  0.7500 -0.4507 -0.7470
   18CHTO   O84 7200   6.095   8.254   1.275  0.2594 -0.8693 -0.0266
   18CHTO  H205 7201   6.154   8.186   1.300  0.4396 -0.7608 -0.1581
   18CHTO  C114 7202   6.157   8.225   1.584 -0.0561 -0.9801  0.4500
   18CHTO  H218 7203   6.235   8.286   1.630 -3.0210 -0.4327  4.9958
   18CHTO  C116 7204   6.077   8.159   1.707  0.3159  0.4963  0.0530
   18CHTO  H220 7205   5.984   8.110   1.672 -0.9181  2.0002  1.1637
   18CHTO   O79 7206   6.158   8.063   1.779 -0.1620 -0.7434 -0.2669
   18CHTO  H201 7207   6.107   8.046   1.856  1.1420  2.1928  1.3208
   18CHTO  C120 7208   6.029   8.280   1.799  0.2593 -0.1449 -0.3138
   18CHTO  H224 7209   6.126   8.321   1.833  1.7233 -2.9758 -0.9599
   18CHTO   N21 7210   5.949   8.245   1.918  0.0558  0.0041 -0.1353
   18CHTO  H211 7211   6.006   8.248   2.009  0.2023 -0.7780 -0.1960
   18CHTO  H212 7212   5.890   8.156   1.903 -1.9672  1.4250 -0.8662
   18CHTO   O75 7213   6.207   8.132   1.488 -0.2778  0.3913 -0.5415
   18CHTO  C112 7214   6.361   8.122   1.459 -0.0977  0.4730  0.2070
   18CHTO  H216 7215   6.414   8.129   1.555 -2.4271 -2.0149  1.7479
   18CHTO   O73 7216   6.393   8.226   1.369  0.5412 -0.1879  0.0122
   18CHTO  C113 7217   6.531   8.233   1.330 -0.0720 -0.0616 -0.2391
   18CHTO  H217 7218   6.595   8.236   1.420 -0.3549  3.0492 -0.1034
   18CHTO  C124 7219   6.533   8.366   1.255 -0.0230 -0.5908 -0.4891
   18CHTO   O83 7220   6.658   8.387   1.195 -0.0162  0.4200  0.0037
   18CHTO  H204 7221   6.678   8.479   1.195  1.1364  0.1837  1.6917
   18CHTO  C109 7222   6.581   8.108   1.255  0.3533 -0.1549  0.1868
   18CHTO  H213 7223   6.531   8.109   1.157 -0.3820 -2.6412  0.4928
   18CHTO  C110 7224   6.540   7.972   1.332 -0.3691 -0.2175 -0.2378
   18CHTO  H214 7225   6.609   7.941   1.410  0.5661 -2.1096 -1.7836
   18CHTO   O78 7226   6.540   7.872   1.232 -0.4584 -0.3525  0.1638
   18CHTO  H200 7227   6.617   7.843   1.188  0.3392  0.5600  0.9359
   18CHTO  C111 7228   6.394   7.981   1.390  0.5145  0.5427  0.4170
   18CHTO  H215 7229   6.324   7.967   1.306  0.6312 -2.0541  0.7181
   18CHTO   N19 7230   6.360   7.877   1.491 -0.1695 -0.2716 -0.1259
   18CHTO  H207 7231   6.255   7.882   1.516 -0.0907 -1.9927  0.5922
   18CHTO  H208 7232   6.412   7.907   1.581 -0.7008  0.4932 -0.0637
   18CHTO   O74 7233   6.727   8.121   1.235 -0.2299  0.0932 -0.6209
   18CHTO  C115 7234   6.786   8.048   1.103  0.3854 -0.2116 -0.5132
   18CHTO  H219 7235   6.729   7.959   1.076 -1.9121  1.2383 -0.6256
   18CHTO   O76 7236   6.771   8.129   0.988  0.4941 -0.3428 -0.3221
   18CHTO  C122 7237   6.864   8.239   0.971 -0.2281  0.2113  0.0747
   18CHTO  H226 7238   6.844   8.311   1.049 -0.0545 -0.4603  0.7431
   18CHTO  C126 7239   6.824   8.312   0.839  0.0161 -0.2258  0.4225
   18CHTO   O85 7240   6.847   8.235   0.723  0.2747  0.2101 -0.1403
   18CHTO  H206 7241   6.771   8.195   0.686  0.6523 -0.1903 -0.4927
   18CHTO  C121 7242   7.020   8.191   0.974  0.9144  0.3424 -0.1296
   18CHTO  H225 7243   7.055   8.201   0.869 -2.7363 -1.4985 -1.5839
   18CHTO   O81 7244   7.084   8.285   1.058 -0.5383  0.3537 -0.1705
   18CHTO  H202 7245   7.096   8.367   1.013  0.2771 -0.6252 -1.7681
   18CHTO  C119 7246   7.030   8.051   1.026 -0.8197  0.2832  0.1781
   18CHTO  H223 7247   7.005   7.990   0.939  0.1075 -1.3130  0.9962
   18CHTO  C117 7248   6.939   8.014   1.144 -0.1813  0.1983 -0.1882
   18CHTO  H221 7249   6.953   8.057   1.243 -1.4242 -1.3889  0.6950
   18CHTO   N20 7250   6.949   7.868   1.166 -0.2898 -0.4361  0.8407
   18CHTO  H209 7251   6.990   7.837   1.261 -1.7681 -2.7846  0.7751
   18CHTO  H210 7252   6.865   7.807   1.136 -0.3546  0.8864 -1.7388
   18CHTO   O80 7253   7.189   8.017   1.043  0.2665 -0.4186  0.0841
   18CHTO  C103 7254   7.279   7.922   0.925 -0.8465  0.4316  0.7716
   18CHTO  H190 7255   7.374   7.899   0.973  0.9725  2.8511 -1.5544
   18CHTO  C101 7256   7.215   7.795   0.868  0.2310 -0.0087  0.1558
   18CHTO  H188 7257   7.108   7.814   0.858 -0.0984 -0.5690  2.2877
   18CHTO   O68 7258   7.227   7.679   1.008 -0.3663 -0.2080 -0.3072
   18CHTO  H168 7259   7.258   7.595   0.981 -1.6693 -0.2122 -1.8849
   18CHTO   C99 7260   7.283   7.739   0.738  0.2516 -0.3333  0.0169
   18CHTO  H186 7261   7.387   7.713   0.766  0.7830  0.2082 -1.3727
   18CHTO   N17 7262   7.226   7.615   0.681 -0.1420  0.1876 -0.3418
   18CHTO  H174 7263   7.230   7.528   0.745 -1.0922 -0.0303 -0.5786
   18CHTO  H175 7264   7.264   7.593   0.583 -1.2518  1.4645 -1.0705
   18CHTO   C97 7265   7.285   7.852   0.642 -0.0650 -0.3665 -0.1985
   18CHTO  H184 7266   7.179   7.877   0.633 -0.6279 -1.7662  2.0853
   18CHTO   O64 7267   7.361   7.959   0.692  0.3239 -0.4001 -0.2292
   18CHTO  C104 7268   7.310   8.026   0.807 -0.3882  0.1110  0.4896
   18CHTO  H191 7269   7.220   8.084   0.790 -0.2176  0.7827  1.8090
   18CHTO  C108 7270   7.411   8.130   0.856  0.1672 -0.1347  0.1678
   18CHTO   O71 7271   7.341   8.229   0.929  0.9793 -0.4904  0.1703
   18CHTO  H171 7272   7.273   8.256   0.869  0.7265 -1.3667  0.0573
   18CHTO   O62 7273   7.354   7.828   0.518  0.3529  0.0749  0.1241
   18CHTO   C91 7274   7.284   7.849   0.393  0.5620 -0.3224  0.1393
   18CHTO  H178 7275   7.188   7.799   0.403  0.8894 -0.7590  1.1580
   18CHTO   C92 7276   7.359   7.763   0.291 -0.5570  0.2299  0.0184
   18CHTO  H179 7277   7.466   7.783   0.305 -0.6966  1.1076 -0.1606
   18CHTO   O66 7278   7.333   7.631   0.334 -0.1211  0.1491  0.2966
   18CHTO  H166 7279   7.399   7.576   0.295 -1.1916 -1.9373  1.3670
   18CHTO   C93 7280   7.318   7.778   0.137  0.0103 -0.0352  0.1861
   18CHTO  H180 7281   7.226   7.723   0.117 -1.2075  1.1910  2.3107
   18CHTO   N16 7282   7.425   7.716   0.044  0.0547  0.8367 -0.2357
   18CHTO  H172 7283   7.393   7.627  -0.008  1.7757 -0.5105  0.9489
   18CHTO  H173 7284   7.455   7.787  -0.032 -2.5309  2.2043 -0.0518
   18CHTO   C94 7285   7.297   7.927   0.096 -0.2178 -0.0955  0.1571
   18CHTO  H181 7286   7.392   7.979   0.082 -0.5930  0.2890 -1.0220
   18CHTO   O61 7287   7.229   7.995   0.201  0.0332  0.0815  0.0246
   18CHTO   C95 7288   7.267   8.001   0.337  0.2153  0.7248  0.5869
   18CHTO  H182 7289   7.365   8.048   0.346 -0.0570  2.0617 -2.6955
   18CHTO  C106 7290   7.159   8.077   0.414 -0.1849  0.1447  0.4021
   18CHTO   O69 7291   7.204   8.130   0.538 -0.2374 -0.2036 -0.2252
   18CHTO  H169 7292   7.132   8.177   0.577 -1.6414 -1.4917 -1.1967
   18CHTO   O63 7293   7.203   7.943  -0.037  0.0048 -0.2079  0.2338
   18CHTO   C96 7294   7.210   8.068  -0.117  0.5477 -0.0861  0.3171
   18CHTO  H183 7295   7.153   8.058  -0.209  1.3042  1.8827 -0.3967
   18CHTO   C98 7296   7.355   8.112  -0.153 -0.0783  0.0048 -0.0309
   18CHTO  H185 7297   7.414   8.130  -0.062 -2.9646 -0.6444  2.0643
   18CHTO   O67 7298   7.414   8.001  -0.223  0.3611 -0.0822 -0.6003
   18CHTO  H167 7299   7.447   7.938  -0.162  0.6894  1.5039  0.9091
   18CHTO  C102 7300   7.350   8.248  -0.248 -0.0279  0.1731  0.0388
   18CHTO  H189 7301   7.302   8.216  -0.341 -0.6060 -0.1098  0.4266
   18CHTO   N18 7302   7.480   8.311  -0.288  0.4166 -0.6747  0.2064
   18CHTO  H176 7303   7.538   8.352  -0.207  0.5455  2.1439 -1.2680
   18CHTO  H177 7304   7.537   8.242  -0.349 -1.2832 -1.4159 -0.5758
   18CHTO  C105 7305   7.256   8.358  -0.182 -0.0415 -0.2293 -0.4076
   18CHTO  H192 7306   7.308   8.410  -0.101 -0.3256  1.3882 -1.2463
   18CHTO   O65 7307   7.132   8.303  -0.135 -0.6982  0.0121  0.0549
   18CHTO  C100 7308   7.139   8.190  -0.046 -0.0417  0.2108 -0.3112
   18CHTO  H187 7309   7.200   8.216   0.041  0.0263 -0.2433 -0.2230
   18CHTO  C107 7310   6.998   8.157  -0.006  0.2116  0.4668 -0.0502
   18CHTO   O70 7311   6.955   8.258   0.083  0.3356  0.0843 -0.0096
   18CHTO  H170 7312   6.870   8.293   0.064  0.8510  1.9533  0.9971
   18CHTO   O57 7313   7.220   8.468  -0.307 -0.1103  0.1714 -0.6984
   18CHTO   C85 7314   7.221   8.612  -0.301 -0.0887  0.3003 -0.2117
   18CHTO  H157 7315   7.325   8.627  -0.266  0.4872 -0.6130 -1.4770
   18CHTO   C83 7316   7.101   8.663  -0.197 -0.9052 -0.2616 -0.2322
   18CHTO  H155 7317   7.138   8.644  -0.096  1.1713  0.1425 -0.8820
   18CHTO   O56 7318   6.985   8.591  -0.221 -0.2433  0.3213 -0.4275
   18CHTO  H135 7319   6.919   8.605  -0.156 -1.0569 -2.1356 -0.6716
   18CHTO   C81 7320   7.088   8.816  -0.210 -0.2854 -0.5831 -0.6061
   18CHTO  H153 7321   7.186   8.858  -0.189 -1.2538  2.1030 -1.2269
   18CHTO   N14 7322   6.998   8.882  -0.117  0.1118 -0.8543 -0.2743
   18CHTO  H141 7323   6.924   8.810  -0.087 -1.3490  0.6309 -0.2127
   18CHTO  H142 7324   7.060   8.910  -0.035  1.2574 -1.5602 -0.8856
   18CHTO   C79 7325   7.047   8.857  -0.354 -0.4159  0.2282 -0.3683
   18CHTO  H151 7326   7.041   8.966  -0.363 -1.6800  0.0302 -2.1687
   18CHTO   O52 7327   7.162   8.820  -0.439  0.1797 -0.3758 -0.6035
   18CHTO   C86 7328   7.197   8.681  -0.446  0.0549 -0.0601 -0.4990
   18CHTO  H158 7329   7.116   8.630  -0.503 -0.4152  1.2875 -1.0463
   18CHTO   C90 7330   7.327   8.666  -0.526  0.5349 -0.7657  0.2565
   18CHTO   O60 7331   7.432   8.754  -0.478 -0.1361 -0.4387  0.5127
   18CHTO  H138 7332   7.400   8.842  -0.486 -0.9963 -1.0479 -3.3537
   18CHTO   O50 7333   6.928   8.801  -0.407 -0.1717 -0.3294  0.3303
   18CHTO   C73 7334   6.848   8.804  -0.525  0.4231  0.5712 -0.2132
   18CHTO  H145 7335   6.908   8.780  -0.614 -1.7565 -2.1853 -1.0116
   18CHTO   C74 7336   6.772   8.943  -0.550  0.2025 -0.2710  0.7242
   18CHTO  H146 7337   6.853   9.016  -0.564 -0.0238 -0.1785 -0.1343
   18CHTO   O54 7338   6.696   8.935  -0.671  0.0439 -0.6788  0.1007
   18CHTO  H133 7339   6.653   9.017  -0.686  1.7821  0.6808  2.2138
   18CHTO   C75 7340   6.681   8.975  -0.423 -0.2135  0.3617 -0.0815
   18CHTO  H147 7341   6.749   8.987  -0.337  0.6480  3.2906 -1.1275
   18CHTO   N13 7342   6.616   9.105  -0.438 -0.2655 -0.3240 -0.3536
   18CHTO  H139 7343   6.593   9.149  -0.342  0.8952  1.0778 -0.7145
   18CHTO  H140 7344   6.521   9.096  -0.491 -1.3887 -2.4702  1.9367
   18CHTO   C76 7345   6.580   8.849  -0.390  0.5890  1.1310 -0.7223
   18CHTO  H148 7346   6.505   8.846  -0.469 -1.0680  1.7853  0.7947
   18CHTO   O49 7347   6.652   8.717  -0.396 -0.3656  0.4360  0.2513
   18CHTO   C77 7348   6.741   8.693  -0.508  0.5432 -0.1459  0.4951
   18CHTO  H149 7349   6.685   8.676  -0.600  1.0453 -0.3676  0.2283
   18CHTO   C88 7350   6.815   8.560  -0.486  0.1470 -0.0489  0.3166
   18CHTO   O58 7351   6.705   8.452  -0.498 -0.2063  0.6716  0.3956
   18CHTO  H136 7352   6.631   8.452  -0.441 -1.6953  0.3916 -1.4923
   18CHTO   O51 7353   6.514   8.872  -0.247  0.1215 -0.6529 -0.2115
   18CHTO   C78 7354   6.373   8.782  -0.226 -0.9148  1.1252 -0.4116
   18CHTO  H150 7355   6.379   8.687  -0.284 -2.7763  1.9452 -1.9797
   18CHTO   C80 7356   6.249   8.858  -0.278 -0.3212 -0.4700  0.7084
   18CHTO  H152 7357   6.238   8.947  -0.214 -0.0598 -0.5329  0.8398
   18CHTO   O55 7358   6.274   8.897  -0.411  0.1047  0.3612  0.3637
   18CHTO  H134 7359   6.196   8.936  -0.445  0.0903 -0.4663 -0.5722
   18CHTO   C84 7360   6.125   8.771  -0.260  0.6553 -0.4581  0.2390
   18CHTO  H156 7361   6.126   8.670  -0.302  1.1558 -1.1125  1.7813
   18CHTO   N15 7362   6.000   8.830  -0.312 -0.2871 -0.0068  0.3624
   18CHTO  H143 7363   5.969   8.919  -0.262 -0.2132  2.1085 -3.1908
   18CHTO  H144 7364   6.012   8.860  -0.414  1.0733  2.3691  1.1880
   18CHTO   C87 7365   6.112   8.740  -0.108  0.0530 -0.1846  0.3176
   18CHTO  H159 7366   6.111   8.834  -0.052  1.9216 -0.5306  0.9491
   18CHTO   O53 7367   6.233   8.665  -0.059 -0.1500 -0.6573 -0.1119
   18CHTO   C82 7368   6.353   8.745  -0.080 -0.3933 -0.5857  0.3157
   18CHTO  H154 7369   6.338   8.838  -0.024  0.5213 -0.9107  1.1081
   18CHTO   C89 7370   6.472   8.678  -0.022 -0.1655 -0.4374 -0.3901
   18CHTO   O59 7371   6.445   8.634   0.115  0.0346 -0.3739  0.4272
   18CHTO  H137 7372   6.445   8.709   0.171  0.7101 -1.1166  1.4465
   18CHTO   O45 7373   5.995   8.637  -0.077 -0.0931 -0.0090 -0.0435
   18CHTO   C67 7374   5.962   8.638   0.061 -0.2983 -0.2886  0.1985
   18CHTO  H124 7375   6.030   8.701   0.118  1.3343  0.7111 -2.7425
   18CHTO   C65 7376   5.819   8.710   0.069 -0.3493 -0.6172 -0.8641
   18CHTO  H122 7377   5.770   8.690  -0.026  0.0197  1.8934 -1.6188
   18CHTO   O44 7378   5.849   8.847   0.083 -0.5679  0.2187 -0.9710
   18CHTO  H102 7379   5.858   8.893   0.002 -1.8771 -0.8132 -1.7039
   18CHTO   C63 7380   5.740   8.650   0.197  0.5324 -0.5332 -0.3606
   18CHTO  H120 7381   5.690   8.559   0.164 -0.8520  0.3513 -0.7429
   18CHTO   N11 7382   5.623   8.731   0.247  0.5411  0.4565 -0.2212
   18CHTO  H108 7383   5.571   8.787   0.172 -2.0820 -1.7577 -0.1579
   18CHTO  H109 7384   5.656   8.798   0.323  1.0593  0.9387 -0.8699
   18CHTO   C61 7385   5.838   8.605   0.312 -0.7086 -0.1007 -0.5296
   18CHTO  H118 7386   5.773   8.568   0.394 -0.4139 -1.3619 -0.8468
   18CHTO   O40 7387   5.922   8.492   0.276 -0.5346  0.2434 -0.1512
   18CHTO   C68 7388   5.967   8.494   0.138  0.4095 -0.2393  0.3207
   18CHTO  H125 7389   5.896   8.428   0.086 -1.1379  0.1171  1.9333
   18CHTO   C72 7390   6.107   8.427   0.139 -0.3163 -0.9360 -0.1718
   18CHTO   O48 7391   6.165   8.411   0.009 -0.2313 -0.2068 -0.1229
   18CHTO  H105 7392   6.244   8.361   0.023 -0.9221 -1.2312  0.1593
   18CHTO   O38 7393   5.910   8.720   0.355 -0.1382  0.2221 -0.1450
   18CHTO   C55 7394   5.979   8.720   0.485 -0.0275 -0.5728  0.2577
   18CHTO  H112 7395   5.993   8.615   0.517  0.0404  0.0026  2.2018
   18CHTO   C56 7396   5.895   8.801   0.583 -0.4804  0.0053 -0.8384
   18CHTO  H113 7397   5.886   8.902   0.540 -0.7730 -0.1855 -1.2226
   18CHTO   O42 7398   5.763   8.752   0.584  0.5104 -0.2698  0.0872
   18CHTO  H100 7399   5.713   8.767   0.506  0.2559 -0.4025  0.2232
   18CHTO   C57 7400   5.958   8.807   0.727 -0.4689 -0.1849 -0.0157
   18CHTO  H114 7401   5.972   8.705   0.764  0.0384 -0.2104 -0.2884
   18CHTO   N10 7402   5.883   8.878   0.836  0.0416 -0.3299  0.8016
   18CHTO  H106 7403   5.834   8.960   0.787  2.0564 -0.5382 -1.6521
   18CHTO  H107 7404   5.807   8.808   0.871  1.1887 -1.5251  0.9548
   18CHTO   C58 7405   6.098   8.875   0.712 -0.0566  0.8496 -0.0639
   18CHTO  H115 7406   6.077   8.981   0.686 -0.0328 -0.0155 -3.9368
   18CHTO   O37 7407   6.171   8.815   0.600 -0.8564 -0.0567  0.2381
   18CHTO   C59 7408   6.114   8.791   0.470 -0.0964  0.0670  0.3337
   18CHTO  H116 7409   6.103   8.884   0.414  0.3362 -0.1605 -0.1269
   18CHTO   C70 7410   6.209   8.706   0.384  0.0705 -0.5013 -0.7819
   18CHTO   O46 7411   6.252   8.589   0.453 -1.0793  0.3807  0.4657
   18CHTO  H103 7412   6.179   8.541   0.487 -0.1625 -1.9001 -0.6655
   18CHTO   O39 7413   6.208   8.855   0.840  0.1109  0.1004  0.1803
   18CHTO   C60 7414   6.273   8.723   0.850  0.1177  0.5243  0.2322
   18CHTO  H117 7415   6.205   8.653   0.803  0.7950  1.2448 -1.8932
   18CHTO   C62 7416   6.415   8.720   0.776 -0.2241 -0.2207  0.2515
   18CHTO  H119 7417   6.400   8.763   0.675 -0.5849  1.0098  0.8188
   18CHTO   O43 7418   6.509   8.804   0.840  0.1882  0.1689 -0.4045
   18CHTO  H101 7419   6.476   8.891   0.853 -3.1613 -1.0970  0.1371
   18CHTO   C66 7420   6.466   8.570   0.771 -0.5749  0.1857  0.2637
   18CHTO  H123 7421   6.391   8.503   0.729  0.5244 -0.2863 -0.9916
   18CHTO   N12 7422   6.575   8.555   0.669 -0.4626  1.2061  0.0549
   18CHTO  H110 7423   6.619   8.456   0.667  1.2781  1.8893  2.4873
   18CHTO  H111 7424   6.647   8.636   0.673  0.5637  0.3715 -1.0706
   18CHTO   C69 7425   6.491   8.508   0.903  0.8981  0.3752 -0.1782
   18CHTO  H126 7426   6.577   8.540   0.967 -0.2512  1.7394  0.6959
   18CHTO   O41 7427   6.360   8.545   1.003 -0.2769  0.0258  0.0051
   18CHTO   C64 7428   6.289   8.684   1.000 -0.8340  0.1367  0.3799
   18CHTO  H121 7429   6.352   8.760   1.051 -0.2126 -0.2991  0.2720
   18CHTO   C71 7430   6.140   8.685   1.064  0.2070 -0.5091 -0.1235
   18CHTO   O47 7431   6.131   8.634   1.196  0.0237 -0.2322  0.6469
   18CHTO  H104 7432   6.069   8.566   1.177  0.5373 -0.3492 -0.6801
   18CHTO   O34 7433   6.494   8.350   0.880  0.2417 -1.0518 -0.1385
   18CHTO   C49 7434   6.448   8.187   0.835  0.5542  0.3664  0.2113
   18CHTO   H91 7435   6.526   8.120   0.869 -1.2725 -0.7905  2.2732
   18CHTO   C47 7436   6.431   8.171   0.682  0.6924  0.7519  0.2802
   18CHTO   H89 7437   6.419   8.062   0.666  1.3427  0.8484 -0.8657
   18CHTO   O33 7438   6.550   8.219   0.616  0.2269 -0.1468 -0.6402
   18CHTO   H70 7439   6.627   8.208   0.668 -0.3777 -1.8221 -0.0857
   18CHTO   C45 7440   6.300   8.251   0.626 -0.8082  0.2800 -0.2867
   18CHTO   H87 7441   6.333   8.352   0.596  1.6573 -1.0151 -2.1891
   18CHTO    N8 7442   6.248   8.173   0.507  0.4615 -0.0518 -0.4712
   18CHTO   H75 7443   6.316   8.157   0.425 -0.6106  1.2944 -1.6514
   18CHTO   H76 7444   6.144   8.187   0.480  0.7966 -0.9917 -2.3071
   18CHTO   C43 7445   6.189   8.270   0.746  0.9668  0.6371 -1.0071
   18CHTO   H85 7446   6.224   8.355   0.804 -0.4151  0.1106  0.6482
   18CHTO   O29 7447   6.186   8.144   0.825 -0.1545  0.2221 -0.0732
   18CHTO   C50 7448   6.306   8.138   0.902 -0.4604  0.4486 -0.2677
   18CHTO   H92 7449   6.295   8.218   0.978  0.3996  0.7249 -0.4224
   18CHTO   C54 7450   6.320   8.010   0.992 -0.1502  0.1216 -0.3021
   18CHTO   O36 7451   6.326   7.890   0.910 -0.2818 -0.0593 -0.1661
   18CHTO   H72 7452   6.382   7.830   0.957 -0.6435 -1.0006 -0.9326
   18CHTO   O27 7453   6.057   8.307   0.701 -0.2125  0.1436  0.6466
   18CHTO   C37 7454   5.935   8.325   0.767 -0.1198 -0.2107  0.8196
   18CHTO   H79 7455   5.909   8.231   0.818 -0.7352 -0.1334  0.6524
   18CHTO   C38 7456   5.943   8.426   0.890  0.2711 -0.0696  0.0268
   18CHTO   H80 7457   5.992   8.521   0.862 -0.0701 -0.0391 -0.4779
   18CHTO   O31 7458   6.025   8.361   0.983  0.6448  0.5443  0.1975
   18CHTO   H68 7459   6.114   8.360   0.953  1.2386 -1.2338  1.8510
   18CHTO   C39 7460   5.798   8.447   0.941  0.1865  0.6446  0.0002
   18CHTO   H81 7461   5.773   8.347   0.978  1.3005  0.0652 -0.7735
   18CHTO    N7 7462   5.789   8.547   1.056  0.2139  0.1000 -0.6417
   18CHTO   H73 7463   5.868   8.527   1.127 -0.9426 -0.4566  0.5071
   18CHTO   H74 7464   5.793   8.651   1.026 -0.7133  0.8582  1.6940
   18CHTO   C40 7465   5.694   8.467   0.829 -0.0669  0.8034 -0.7575
   18CHTO   H82 7466   5.724   8.563   0.785  1.0030  0.9393  0.2548
   18CHTO   O26 7467   5.696   8.357   0.730 -0.4691 -0.0487 -0.3814
   18CHTO   C41 7468   5.822   8.364   0.667  0.2295  0.1667  0.2507
   18CHTO   H83 7469   5.846   8.461   0.621  1.0934 -0.0484  0.2411
   18CHTO   C52 7470   5.814   8.272   0.540 -0.9001  0.4050  0.0184
   18CHTO   O35 7471   5.709   8.312   0.441  0.0163  0.0650  0.8540
   18CHTO   H71 7472   5.679   8.401   0.442 -1.8242 -0.4675 -1.8138
   18CHTO   O28 7473   5.557   8.478   0.883  0.1764 -0.1672 -0.3049
   18CHTO   C42 7474   5.427   8.467   0.802 -0.1645 -0.6112 -0.7310
   18CHTO   H84 7475   5.346   8.500   0.867 -0.1665  1.1971 -1.6350
   18CHTO   C44 7476   5.389   8.320   0.768 -0.6070 -0.5073 -0.2955
   18CHTO   H86 7477   5.476   8.268   0.728  1.7492  2.7516  0.4262
   18CHTO   O32 7478   5.352   8.257   0.895 -0.0262  0.1633 -0.0883
   18CHTO   H69 7479   5.263   8.270   0.920 -0.1882 -0.4102 -0.3688
   18CHTO   C48 7480   5.265   8.299   0.669 -0.4992 -0.5104  0.0315
   18CHTO   H90 7481   5.172   8.307   0.725  0.5566  1.4833  1.5565
   18CHTO    N9 7482   5.259   8.149   0.629  0.4318  0.4053 -0.5905
   18CHTO   H77 7483   5.172   8.135   0.567  1.4666 -1.4368 -1.6856
   18CHTO   H78 7484   5.273   8.080   0.711  0.8937  1.7435  0.4782
   18CHTO   C51 7485   5.274   8.398   0.552  0.1134 -0.2043  0.3649
   18CHTO   H93 7486   5.366   8.361   0.506 -0.2937 -1.2825  0.4226
   18CHTO   O30 7487   5.283   8.537   0.601  0.1560  0.7803  0.2320
   18CHTO   C46 7488   5.423   8.555   0.672  0.3668  0.5977  0.3844
   18CHTO   H88 7489   5.508   8.524   0.611 -0.4612  2.4121 -1.7473
   18CHTO   C53 7490   5.444   8.702   0.706  0.4405 -0.2170  0.2273
   18CHTO   O72 7491   5.432   8.792   0.597 -0.5164  0.0370  0.1364
   18CHTO  H199 7492   5.509   8.786   0.544  0.7791  1.0757  1.8175
   18CHTO   O22 7493   5.160   8.402   0.470 -0.3137 -0.2960  0.4700
   18CHTO   C31 7494   5.160   8.437   0.327 -0.3206 -1.0164 -0.2210
   18CHTO   H59 7495   5.054   8.435   0.295 -0.8161 -0.1647  1.3285
   18CHTO   C29 7496   5.208   8.582   0.302 -0.1026 -0.1709  0.0174
   18CHTO   H57 7497   5.306   8.591   0.350  0.6152 -2.6432 -0.9313
   18CHTO   O21 7498   5.128   8.675   0.373 -0.5516 -0.4583  0.1514
   18CHTO   H37 7499   5.141   8.759   0.333 -0.2979 -0.9305 -0.7806
   18CHTO   C27 7500   5.224   8.612   0.147 -0.0763  0.3055 -0.0047
   18CHTO   H55 7501   5.121   8.605   0.110 -0.4925 -0.4135  1.2692
   18CHTO    N5 7502   5.279   8.747   0.111 -0.3022  0.4616 -0.1923
   18CHTO   H43 7503   5.215   8.823   0.153 -0.1849 -0.0446  0.9095
   18CHTO   H44 7504   5.384   8.760   0.133 -0.3747 -0.3387  0.6813
   18CHTO   C25 7505   5.317   8.491   0.080  0.3173 -0.6974 -0.2489
   18CHTO   H53 7506   5.413   8.487   0.133  1.1083 -1.0089 -1.6727
   18CHTO   O17 7507   5.250   8.368   0.102 -0.0517 -0.1518  0.5123
   18CHTO   C32 7508   5.233   8.326   0.238 -0.6858  0.1092  0.3891
   18CHTO   H60 7509   5.334   8.307   0.275 -0.7672 -1.9012 -0.3384
   18CHTO   C36 7510   5.155   8.193   0.252  0.4700  0.1902  0.2263
   18CHTO   O25 7511   5.230   8.085   0.193 -0.4728 -0.0766  0.2134
   18CHTO   H40 7512   5.314   8.091   0.233 -1.6657 -0.9929  3.0205
   18CHTO   O15 7513   5.353   8.518  -0.068 -0.2298  0.4147 -0.1070
   18CHTO   C19 7514   5.450   8.451  -0.157  0.2615  0.2207 -0.6251
   18CHTO   H47 7515   5.391   8.381  -0.218  1.7259 -2.4319  0.9345
   18CHTO   C20 7516   5.526   8.556  -0.246  0.0506 -0.3372  0.3731
   18CHTO   H48 7517   5.590   8.623  -0.186 -0.1075  2.1550 -2.1249
   18CHTO   O19 7518   5.421   8.617  -0.323  0.4311 -0.3536  0.0783
   18CHTO   H35 7519   5.444   8.687  -0.382  1.9121 -1.2980 -0.4742
   18CHTO   C21 7520   5.631   8.497  -0.343 -0.2578 -0.8543  0.1692
   18CHTO   H49 7521   5.580   8.419  -0.400  0.5878 -0.7459 -0.7422
   18CHTO    N4 7522   5.697   8.594  -0.436  0.1232 -0.0995  0.1610
   18CHTO   H41 7523   5.738   8.681  -0.387  1.0918 -0.7498  0.5076
   18CHTO   H42 7524   5.621   8.628  -0.506 -0.5604  0.3238  1.0971
   18CHTO   C22 7525   5.729   8.412  -0.257 -0.7578  0.0057 -0.3092
   18CHTO   H50 7526   5.791   8.481  -0.199 -1.4709  0.0258  0.4325
   18CHTO   O14 7527   5.664   8.316  -0.173 -0.2472 -0.1735 -0.3858
   18CHTO   C23 7528   5.566   8.366  -0.081  0.7864 -0.1639  0.3301
   18CHTO   H51 7529   5.617   8.427  -0.005 -0.0194 -0.3083  0.9984
   18CHTO   C34 7530   5.508   8.242  -0.012  0.0746 -0.0686  0.4661
   18CHTO   O23 7531   5.597   8.177   0.076 -0.2387 -0.3380  0.3276
   18CHTO   H38 7532   5.546   8.106   0.111  0.9233 -1.5813 -0.4420
   18CHTO   O16 7533   5.818   8.329  -0.333 -0.2581  0.2222  0.2956
   18CHTO   C24 7534   5.980   8.325  -0.280 -0.1356  0.4137 -0.0230
   18CHTO   H52 7535   5.995   8.382  -0.188 -1.7060 -0.8522  1.0555
   18CHTO   C26 7536   6.076   8.377  -0.390  0.4625 -0.4465 -0.5518
   18CHTO   H54 7537   6.074   8.302  -0.471  1.2943  0.2552 -1.2245
   18CHTO   O20 7538   6.028   8.506  -0.444 -0.4493 -0.2656 -0.7188
   18CHTO   H36 7539   5.935   8.498  -0.458 -1.1616 -0.3289  3.3361
   18CHTO   C30 7540   6.224   8.383  -0.329 -0.2939  0.2169  0.3814
   18CHTO   H58 7541   6.222   8.447  -0.240  1.0598 -0.6105  1.0169
   18CHTO    N6 7542   6.322   8.455  -0.417 -0.1429 -0.1221 -0.1201
   18CHTO   H45 7543   6.419   8.429  -0.376  0.0075  1.7244  0.7638
   18CHTO   H46 7544   6.320   8.424  -0.520  0.2798  0.0874 -0.1921
   18CHTO   C33 7545   6.263   8.237  -0.283 -0.3154  0.3649 -0.2649
   18CHTO   H61 7546   6.271   8.169  -0.368  1.0747 -0.4407  0.4985
   18CHTO   O18 7547   6.161   8.187  -0.195 -0.4510  0.4936 -1.0028
   18CHTO   C28 7548   6.018   8.180  -0.233 -0.3179  0.3719  0.4130
   18CHTO   H56 7549   6.008   8.115  -0.319 -0.2318  1.6053 -0.5517
   18CHTO   C35 7550   5.929   8.138  -0.112 -0.6205 -0.2064  0.2264
   18CHTO   O24 7551   5.809   8.068  -0.149 -0.2022 -0.0250 -0.1921
   18CHTO   H39 7552   5.822   7.978  -0.173  2.4224 -0.0026  1.0348
   18CHTO    O9 7553   6.395   8.237  -0.219  0.0200 -0.3025  0.1071
   18CHTO   C13 7554   6.521   8.152  -0.276  0.3346  0.5565  0.3787
   18CHTO   H26 7555   6.549   8.194  -0.375  1.2139  2.0381  1.2370
   18CHTO   C11 7556   6.482   8.001  -0.283  0.3755  0.1687 -0.4969
   18CHTO   H24 7557   6.428   7.988  -0.377 -1.0817 -2.3134  0.6393
   18CHTO    O8 7558   6.393   7.971  -0.174  0.6224 -0.2588 -0.0835
   18CHTO    H3 7559   6.314   7.932  -0.206  0.0790 -0.3772  1.3749
   18CHTO    C9 7560   6.615   7.918  -0.277  1.1220 -0.7003 -0.3866
   18CHTO   H22 7561   6.677   7.954  -0.360  1.9586 -0.4527  0.3341
   18CHTO    N2 7562   6.584   7.787  -0.319  0.0264  0.5807  0.0365
   18CHTO   H10 7563   6.557   7.724  -0.236  2.6030  0.3982  0.7726
   18CHTO   H11 7564   6.672   7.742  -0.363 -0.3332 -0.8444  0.7218
   18CHTO    C7 7565   6.689   7.939  -0.144 -0.3980 -0.0814 -0.3567
   18CHTO   H20 7566   6.795   7.927  -0.175  0.3130  3.0614  0.6820
   18CHTO    O4 7567   6.662   8.068  -0.086 -0.4699 -0.1787  0.1120
   18CHTO   C14 7568   6.649   8.167  -0.182 -0.9875 -0.1588 -0.5590
   18CHTO   H27 7569   6.738   8.159  -0.248  0.8190  2.1513  1.4783
   18CHTO   C18 7570   6.664   8.303  -0.102 -0.2117  0.2353 -0.4111
   18CHTO   O13 7571   6.667   8.411  -0.203  0.1921  0.1874  0.2307
   18CHTO    H7 7572   6.583   8.412  -0.244  0.5284 -1.2439 -0.5419
   18CHTO    O2 7573   6.657   7.826  -0.025 -0.1716 -0.5568 -0.0273
   18CHTO    C1 7574   6.740   7.829   0.090  0.2808 -0.1689 -0.0221
   18CHTO   H14 7575   6.796   7.924   0.105 -0.0177 -0.5112  3.5867
   18CHTO    C2 7576   6.843   7.707   0.086  0.0707  0.0121  0.6403
   18CHTO   H15 7577   6.790   7.614   0.059 -1.7602  1.3146 -0.3986
   18CHTO    O6 7578   6.941   7.730  -0.016  0.0160  0.3407 -0.5090
   18CHTO    H1 7579   6.983   7.811   0.009  0.2634  0.7238 -2.1107
   18CHTO    C3 7580   6.923   7.692   0.224  0.0778 -0.1498  0.2285
   18CHTO   H16 7581   6.992   7.775   0.248 -1.1386  2.2382 -4.0171
   18CHTO    N1 7582   7.009   7.567   0.226 -0.7270 -0.5444 -0.1835
   18CHTO    H8 7583   7.056   7.564   0.323 -1.1226  1.2057  0.0732
   18CHTO    H9 7584   6.962   7.470   0.213  1.0290 -1.6370  1.4195
   18CHTO    C4 7585   6.814   7.690   0.335 -0.5133  0.1580 -0.0845
   18CHTO   H17 7586   6.748   7.606   0.316  2.4002 -2.2052 -0.0498
   18CHTO    O1 7587   6.729   7.808   0.327  0.5375 -0.4079  0.2544
   18CHTO    C5 7588   6.650   7.828   0.208 -0.0674 -0.0452 -0.3663
   18CHTO   H18 7589   6.589   7.738   0.205 -1.2183  0.5761  2.7059
   18CHTO   C16 7590   6.564   7.954   0.214 -0.3070 -0.3544 -0.3364
   18CHTO   O11 7591   6.471   7.963   0.320 -0.0818  0.1847  0.0570
   18CHTO    H5 7592   6.419   8.040   0.310  0.8636  0.7499 -0.5834
   18CHTO    O3 7593   6.877   7.697   0.462 -0.4164  0.4400 -0.4483
   18CHTO    C6 7594   6.796   7.687   0.577  0.1828  0.0887  0.1140
   18CHTO   H19 7595   6.692   7.706   0.552  0.2489  0.7628  0.3254
   18CHTO    C8 7596   6.807   7.545   0.645  0.3072 -0.6085 -0.2339
   18CHTO   H21 7597   6.912   7.522   0.658 -0.1462 -2.8983 -0.5176
   18CHTO    O7 7598   6.750   7.445   0.555 -0.6451 -0.3649 -0.1401
   18CHTO    H2 7599   6.772   7.451   0.464 -0.8859 -0.1608 -0.1836
   18CHTO   C12 7600   6.735   7.543   0.780 -0.1520  0.2477  0.1670
   18CHTO   H25 7601   6.626   7.554   0.763 -0.6190  1.0105  3.4120
   18CHTO    N3 7602   6.750   7.408   0.850 -0.1155 -0.4260  0.0959
   18CHTO   H12 7603   6.835   7.403   0.916 -0.8542 -0.3370  1.0778
   18CHTO   H13 7604   6.657   7.368   0.890 -0.1860 -0.3707 -0.0120
   18CHTO   C15 7605   6.783   7.656   0.868  0.5358  0.7612 -0.4516
   18CHTO   H28 7606   6.886   7.647   0.902  0.1037 -1.0421  0.4351
   18CHTO   O10 7607   6.690   7.678   1.003 -0.5652  0.6258 -0.3741
   18CHTO    H4 7608   6.730   7.633   1.075 -0.4821 -0.9335 -1.3710
   18CHTO    O5 7609   6.764   7.777   0.802  0.0092 -1.0368 -0.1909
   18CHTO   C10 7610   6.830   7.801   0.673  0.3494 -0.0108 -0.8901
   18CHTO   H23 7611   6.939   7.807   0.683  0.4229 -1.7486 -0.3500
   18CHTO   C17 7612   6.785   7.937   0.621  0.1645  0.4131 -0.5631
   18CHTO   O12 7613   6.642   7.932   0.607  0.3340  0.2153  0.7496
   18CHTO    H6 7614   6.604   7.967   0.684  2.0993 -0.3296  1.8994
   19CHTO  H203 7615   5.895   9.264   1.769  2.3990 -1.2526 -1.1209
   19CHTO   O82 7616   5.903   9.339   1.714 -0.2151  0.0727  0.2247
   19CHTO  C123 7617   5.830   9.322   1.595  0.4409  0.0400 -0.4486
   19CHTO  H227 7618   5.855   9.411   1.535  2.5618 -0.6460 -0.6345
   19CHTO   O77 7619   5.894   9.211   1.536  0.1132  0.5473 -0.0114
   19CHTO  C118 7620   5.830   9.174   1.416  0.8880  0.4233 -0.2082
   19CHTO  H222 7621   5.817   9.259   1.346 -0.9291  0.3518  0.0012
   19CHTO  C125 7622   5.905   9.062   1.347 -0.0535 -0.4804  0.0738
   19CHTO   O84 7623   5.921   8.940   1.427  0.6347  0.1236 -0.4014
   19CHTO  H205 7624   5.993   8.948   1.486  2.5939 -0.3122 -2.6295
   19CHTO  C114 7625   5.685   9.127   1.448 -0.0449 -0.6059 -0.4043
   19CHTO  H218 7626   5.688   9.045   1.520  1.6488 -0.1891  0.0167
   19CHTO  C116 7627   5.595   9.241   1.514  0.1652  0.6182  0.6990
   19CHTO  H220 7628   5.563   9.310   1.434 -0.8265 -0.0034  0.5433
   19CHTO   O79 7629   5.477   9.174   1.554  0.1970 -0.4660 -0.1480
   19CHTO  H201 7630   5.404   9.232   1.550  1.1613  0.9071  1.4504
   19CHTO  C120 7631   5.669   9.303   1.633 -0.5128  0.2022  0.0281
   19CHTO  H224 7632   5.657   9.227   1.714 -1.6723 -0.6697 -0.9412
   19CHTO   N21 7633   5.602   9.427   1.676  0.2731 -0.0444 -0.2882
   19CHTO  H211 7634   5.530   9.412   1.754  1.0574 -1.3596  0.2054
   19CHTO  H212 7635   5.560   9.481   1.592 -1.0087 -1.8637 -0.8559
   19CHTO   O75 7636   5.632   9.085   1.322 -0.0276 -0.0346 -0.6899
   19CHTO  C112 7637   5.536   8.946   1.341 -0.7258  1.1029 -0.1607
   19CHTO  H216 7638   5.447   8.965   1.403 -0.7847  1.6855 -0.4197
   19CHTO   O73 7639   5.622   8.843   1.396  0.2453  0.4117  0.5266
   19CHTO  C113 7640   5.554   8.725   1.440 -0.4870  1.0607  0.4931
   19CHTO  H217 7641   5.468   8.748   1.507 -2.5966  0.3788 -1.9366
   19CHTO  C124 7642   5.660   8.638   1.507  1.1717 -0.6549 -0.6670
   19CHTO   O83 7643   5.722   8.712   1.614  1.0014  0.1925 -0.5046
   19CHTO  H204 7644   5.771   8.653   1.668 -0.5192  0.7215  1.4978
   19CHTO  C109 7645   5.509   8.651   1.311 -0.3192 -0.4136 -0.2576
   19CHTO  H213 7646   5.603   8.618   1.265 -1.5344 -1.8815 -1.7680
   19CHTO  C110 7647   5.420   8.754   1.225  0.2435  0.4774  0.4215
   19CHTO  H214 7648   5.325   8.772   1.276  0.9583  0.0882  1.9034
   19CHTO   O78 7649   5.391   8.693   1.098 -0.8091 -0.2329 -0.1654
   19CHTO  H200 7650   5.301   8.695   1.075 -0.3153 -1.0217 -2.3041
   19CHTO  C111 7651   5.482   8.894   1.204  0.0729 -0.1742 -0.4741
   19CHTO  H215 7652   5.573   8.886   1.143  2.5457  1.1669  2.8623
   19CHTO   N19 7653   5.394   8.998   1.143 -0.6899 -0.0374  0.6163
   19CHTO  H207 7654   5.308   9.018   1.206 -1.6649 -1.6203 -0.1816
   19CHTO  H208 7655   5.446   9.092   1.153 -0.2202 -0.1562 -0.6009
   19CHTO   O74 7656   5.424   8.541   1.353  0.3452  0.6901  0.0360
   19CHTO  C115 7657   5.387   8.435   1.241 -0.8740  0.4268  0.1410
   19CHTO  H219 7658   5.368   8.482   1.145 -1.0450 -1.0964 -0.5810
   19CHTO   O76 7659   5.503   8.334   1.220 -0.0061  0.4586 -0.1457
   19CHTO  C122 7660   5.523   8.254   1.339 -0.9929  0.3016 -0.0143
   19CHTO  H226 7661   5.552   8.326   1.416 -2.5745  1.5536 -0.5618
   19CHTO  C126 7662   5.653   8.164   1.316 -0.4438 -0.6916 -0.2167
   19CHTO   O85 7663   5.773   8.229   1.280  0.1550  0.4828  0.2895
   19CHTO  H206 7664   5.762   8.267   1.195 -2.3020  2.3379  1.3960
   19CHTO  C121 7665   5.400   8.155   1.364  0.5118  0.1637  0.4419
   19CHTO  H225 7666   5.430   8.055   1.327 -0.4628  0.2790 -0.6994
   19CHTO   O81 7667   5.365   8.137   1.503 -0.7889 -0.2595  0.1075
   19CHTO  H202 7668   5.278   8.102   1.515 -2.7072  3.0537 -3.1545
   19CHTO  C119 7669   5.277   8.200   1.279  0.5893  0.3299  0.0236
   19CHTO  H223 7670   5.306   8.181   1.176  0.4975 -3.4918  0.6456
   19CHTO  C117 7671   5.252   8.360   1.282 -0.0947 -0.2775  0.3455
   19CHTO  H221 7672   5.236   8.396   1.384  0.0754 -1.1295  0.6857
   19CHTO   N20 7673   5.135   8.411   1.203  0.4498  0.4076 -0.0678
   19CHTO  H209 7674   5.160   8.395   1.099 -0.9262 -0.2316 -0.3157
   19CHTO  H210 7675   5.045   8.365   1.241  0.5750  1.7263  1.8551
   19CHTO   O80 7676   5.163   8.094   1.298  0.2750 -0.0509 -0.7215
   19CHTO  C103 7677   5.182   7.947   1.225 -1.4188  0.6626  0.0810
   19CHTO  H190 7678   5.269   7.950   1.159 -2.5887 -4.0067 -1.8607
   19CHTO  C101 7679   5.180   7.821   1.323  0.0794  0.0998  0.5595
   19CHTO  H188 7680   5.094   7.819   1.390 -0.2174 -3.2671  0.2009
   19CHTO   O68 7681   5.312   7.824   1.402  0.4251  1.0024  0.1001
   19CHTO  H168 7682   5.314   7.812   1.495  0.9214  1.2502  0.1207
   19CHTO   C99 7683   5.166   7.685   1.236 -0.1708  0.0578  0.4838
   19CHTO  H186 7684   5.258   7.686   1.174 -0.3921 -0.9520  0.1271
   19CHTO   N17 7685   5.173   7.561   1.324 -0.2421  0.1616 -0.2504
   19CHTO  H174 7686   5.188   7.586   1.428 -0.0607  0.6489 -0.3952
   19CHTO  H175 7687   5.238   7.486   1.281 -1.2946  0.0881 -1.7859
   19CHTO   C97 7688   5.047   7.686   1.138  0.6721  0.4122  0.3835
   19CHTO  H184 7689   4.961   7.687   1.207  1.0006 -0.1904  0.8041
   19CHTO   O64 7690   5.052   7.807   1.059 -0.2369  0.3920 -0.4313
   19CHTO  C104 7691   5.051   7.928   1.128 -0.2553  0.1963  0.0198
   19CHTO  H191 7692   4.963   7.942   1.191  0.5204  0.1052  1.1251
   19CHTO  C108 7693   5.033   8.038   1.023 -0.1571  0.1995 -0.2696
   19CHTO   O71 7694   5.146   8.038   0.935 -0.1402 -0.3538 -0.3742
   19CHTO  H171 7695   5.166   7.955   0.897  2.6315 -0.4332  1.0774
   19CHTO   O62 7696   5.034   7.570   1.050  0.1207 -1.0726 -0.0442
   19CHTO   C91 7697   4.913   7.558   0.973  0.5929  0.5303 -0.3830
   19CHTO  H178 7698   4.835   7.617   1.020  1.6897  1.5592  0.1654
   19CHTO   C92 7699   4.868   7.403   0.972 -0.5045 -0.2619  0.5006
   19CHTO  H179 7700   4.879   7.366   1.075 -1.8795  0.7057  0.9990
   19CHTO   O66 7701   4.728   7.403   0.945  0.0901  0.1031 -0.1400
   19CHTO  H166 7702   4.682   7.424   1.024  1.7784  0.7754  0.6838
   19CHTO   C93 7703   4.940   7.319   0.859  0.3310  0.3160  0.2283
   19CHTO  H180 7704   4.881   7.228   0.840  0.3346  0.6835 -1.7005
   19CHTO   N16 7705   5.070   7.266   0.908 -0.2719 -0.0182  0.2292
   19CHTO  H172 7706   5.107   7.336   0.981  0.1846  0.5834 -0.5647
   19CHTO  H173 7707   5.139   7.266   0.825 -0.7686  4.1345 -0.2888
   19CHTO   C94 7708   4.956   7.402   0.720 -0.0838  0.4430 -0.0752
   19CHTO  H181 7709   5.060   7.417   0.690 -0.0517 -0.7771 -0.5781
   19CHTO   O61 7710   4.906   7.532   0.721 -0.2903 -0.3402  0.2574
   19CHTO   C95 7711   4.934   7.618   0.830 -0.0862  0.3519 -0.1419
   19CHTO  H182 7712   5.038   7.650   0.824  0.0415 -0.1527 -0.6593
   19CHTO  C106 7713   4.854   7.753   0.808 -0.1323  0.5258 -0.1916
   19CHTO   O69 7714   4.931   7.837   0.718 -0.5962  0.6274  0.3372
   19CHTO  H169 7715   5.000   7.792   0.673 -0.9637 -1.4163  1.7974
   19CHTO   O63 7716   4.887   7.316   0.614 -0.3662 -0.5374  0.1107
   19CHTO   C96 7717   4.995   7.255   0.502  0.2945 -0.1476  0.3468
   19CHTO  H183 7718   5.087   7.232   0.555  0.6160  1.8449  0.6954
   19CHTO   C98 7719   5.018   7.350   0.381 -0.6281 -0.3578 -0.1633
   19CHTO  H185 7720   5.037   7.448   0.428 -1.8560  0.1365 -0.6708
   19CHTO   O67 7721   5.148   7.303   0.325 -0.2785  0.1188  0.2635
   19CHTO  H167 7722   5.148   7.310   0.231 -1.6687 -1.4790  0.1183
   19CHTO  C102 7723   4.904   7.348   0.272 -0.8603 -0.2040  0.3215
   19CHTO  H189 7724   4.951   7.400   0.187 -1.3642 -0.8481 -0.3585
   19CHTO   N18 7725   4.777   7.419   0.292 -0.1455  0.1638 -0.3512
   19CHTO  H176 7726   4.696   7.356   0.326 -0.9032  0.3518 -1.7673
   19CHTO  H177 7727   4.743   7.467   0.201  2.4462  2.8159  0.0038
   19CHTO  C105 7728   4.884   7.202   0.229 -0.6785  0.0315  0.2622
   19CHTO  H192 7729   4.779   7.172   0.232 -0.1872 -1.6898  1.7062
   19CHTO   O65 7730   4.955   7.108   0.303  0.2792 -0.0599  0.3682
   19CHTO  C100 7731   4.938   7.115   0.448  0.2055  0.1670 -0.3960
   19CHTO  H187 7732   4.829   7.105   0.462  0.1605 -0.1753 -0.9448
   19CHTO  C107 7733   5.006   6.998   0.523 -0.4090 -0.0043 -0.8469
   19CHTO   O70 7734   4.999   6.875   0.449  0.2012 -0.2889  0.2363
   19CHTO  H170 7735   5.037   6.877   0.363  2.5255 -0.0387  1.2568
   19CHTO   O57 7736   4.924   7.198   0.081 -0.1938 -0.0148  0.0508
   19CHTO   C85 7737   4.841   7.170  -0.035 -0.2428 -0.3018 -0.0822
   19CHTO  H157 7738   4.744   7.127  -0.003 -0.9976  0.7329 -0.9654
   19CHTO   C83 7739   4.912   7.051  -0.108  0.4837 -0.1771  0.5629
   19CHTO  H155 7740   4.927   6.968  -0.039  0.1620  0.7098  1.7075
   19CHTO   O56 7741   5.048   7.080  -0.146  0.1904  0.4738  0.1497
   19CHTO  H135 7742   5.092   7.010  -0.190 -2.0362  0.1944 -1.7326
   19CHTO   C81 7743   4.830   7.006  -0.232  0.3315  0.4364 -0.3925
   19CHTO  H153 7744   4.731   6.975  -0.197 -0.4026  2.7288 -0.3134
   19CHTO   N14 7745   4.887   6.890  -0.305  0.3366 -0.0006 -0.5881
   19CHTO  H141 7746   4.864   6.798  -0.256  0.5861 -1.4605 -3.1045
   19CHTO  H142 7747   4.845   6.885  -0.403  1.5887 -0.9063 -1.1016
   19CHTO   C79 7748   4.811   7.130  -0.330 -0.5216 -0.0942  0.0317
   19CHTO  H151 7749   4.732   7.101  -0.400 -0.6859 -1.4118  0.7361
   19CHTO   O52 7750   4.755   7.243  -0.255  0.4372 -0.2095  0.6430
   19CHTO   C86 7751   4.823   7.291  -0.141 -0.6126  0.0680  0.4785
   19CHTO  H158 7752   4.921   7.325  -0.180 -0.9468  1.0680  0.4892
   19CHTO   C90 7753   4.751   7.423  -0.095 -0.1099  0.1371  0.3997
   19CHTO   O60 7754   4.807   7.541  -0.154  0.5630 -0.0476 -0.3661
   19CHTO  H138 7755   4.783   7.557  -0.243 -0.8365 -1.5270 -0.2729
   19CHTO   O50 7756   4.920   7.182  -0.415  0.2291  0.7164 -0.3909
   19CHTO   C73 7757   4.990   7.221  -0.534  0.0650  0.5620  0.1121
   19CHTO  H145 7758   4.992   7.136  -0.604 -0.6605 -0.0759  0.8446
   19CHTO   C74 7759   5.139   7.257  -0.510 -0.3153  0.8624 -0.0287
   19CHTO  H146 7760   5.176   7.164  -0.464 -1.5796 -0.3760 -1.4507
   19CHTO   O54 7761   5.203   7.286  -0.635  0.4274  0.3990  0.1817
   19CHTO  H133 7762   5.243   7.205  -0.659  0.8061  1.1013 -1.6574
   19CHTO   C75 7763   5.135   7.381  -0.410 -0.7369 -0.2730 -0.0038
   19CHTO  H147 7764   5.084   7.347  -0.318  0.4704  0.7144  1.0516
   19CHTO   N13 7765   5.278   7.408  -0.368  0.2152  0.3506 -0.0837
   19CHTO  H139 7766   5.284   7.428  -0.262  1.4470 -0.3802 -0.0020
   19CHTO  H140 7767   5.315   7.494  -0.421  2.6314 -0.4594  0.2286
   19CHTO   C76 7768   5.046   7.505  -0.472 -0.0377  0.1573  0.9187
   19CHTO  H148 7769   5.089   7.544  -0.565 -1.1715  0.6839  0.6043
   19CHTO   O49 7770   4.914   7.446  -0.498  0.8805  0.0822 -0.1781
   19CHTO   C77 7771   4.918   7.343  -0.604  0.1271  0.4532 -0.1617
   19CHTO  H149 7772   4.976   7.371  -0.691  0.1145 -0.5992 -0.5157
   19CHTO   C88 7773   4.777   7.311  -0.655 -0.3334  0.2285  0.1248
   19CHTO   O58 7774   4.789   7.224  -0.778 -0.3709  0.1205 -0.1422
   19CHTO  H136 7775   4.844   7.149  -0.764 -2.2878 -0.6849  3.5314
   19CHTO   O51 7776   5.019   7.630  -0.365  0.1622 -0.7221 -0.5848
   19CHTO   C78 7777   5.061   7.792  -0.412 -0.8953  0.1733 -0.3290
   19CHTO  H150 7778   5.070   7.800  -0.522 -0.2368 -1.1358 -0.3759
   19CHTO   C80 7779   5.205   7.827  -0.355 -0.2332  0.9359  0.2270
   19CHTO  H152 7780   5.213   7.785  -0.253 -3.4781 -0.6729 -0.1047
   19CHTO   O55 7781   5.294   7.747  -0.440 -0.0195 -0.3809  0.6723
   19CHTO  H134 7782   5.266   7.662  -0.468 -1.4877  0.6663 -1.2065
   19CHTO   C84 7783   5.231   7.983  -0.362 -0.0793  0.0487 -0.8736
   19CHTO  H156 7784   5.234   8.005  -0.469  1.9940 -0.9893 -1.0649
   19CHTO   N15 7785   5.363   8.011  -0.298 -0.2647  0.6069 -0.2040
   19CHTO  H143 7786   5.372   7.995  -0.193  0.5785 -1.1025 -0.5286
   19CHTO  H144 7787   5.449   7.977  -0.353  0.0153  2.3544 -0.9013
   19CHTO   C87 7788   5.115   8.067  -0.298  0.2020 -0.3549  0.8391
   19CHTO  H159 7789   5.105   8.043  -0.192 -0.6979 -0.7208  0.6755
   19CHTO   O53 7790   4.987   8.024  -0.377 -0.3337 -0.2752  0.0065
   19CHTO   C82 7791   4.952   7.891  -0.356  0.0147  0.1643  0.2012
   19CHTO  H154 7792   4.934   7.880  -0.249  1.0883  2.4787  0.6499
   19CHTO   C89 7793   4.818   7.859  -0.429 -0.2801 -0.6211 -0.7116
   19CHTO   O59 7794   4.722   7.951  -0.380  0.3798 -0.6908  0.6669
   19CHTO  H137 7795   4.735   8.037  -0.414  1.9414 -1.5464 -1.0341
   19CHTO   O45 7796   5.143   8.226  -0.305 -0.2653  0.3886  0.2691
   19CHTO   C67 7797   5.017   8.297  -0.272 -0.1444 -0.0696  0.1034
   19CHTO  H124 7798   4.935   8.244  -0.321 -1.2327 -0.4463  2.2771
   19CHTO   C65 7799   4.986   8.289  -0.118  0.6557 -1.0732  0.3813
   19CHTO  H122 7800   5.086   8.276  -0.076  1.2888 -1.0258 -1.0545
   19CHTO   O44 7801   4.917   8.168  -0.084 -0.1095  0.1653 -0.2049
   19CHTO  H102 7802   4.971   8.092  -0.097  0.4993  0.4336  0.7602
   19CHTO   C63 7803   4.922   8.423  -0.058 -0.6676  0.3380 -0.8328
   19CHTO  H120 7804   5.002   8.496  -0.051 -0.6630  0.2116  0.6134
   19CHTO   N11 7805   4.873   8.420   0.083  0.3385  0.0686 -0.0133
   19CHTO  H108 7806   4.862   8.522   0.113  1.3415  0.3311 -0.4874
   19CHTO  H109 7807   4.780   8.375   0.108  0.8976  0.8830  3.8514
   19CHTO   C61 7808   4.814   8.472  -0.164 -0.5965  0.1043 -0.7197
   19CHTO  H118 7809   4.769   8.560  -0.115  3.3009  1.3822  0.7159
   19CHTO   O40 7810   4.876   8.517  -0.295 -0.7471  0.2925 -0.1775
   19CHTO   C68 7811   5.013   8.452  -0.323  0.0939 -0.1918 -0.1978
   19CHTO  H125 7812   5.093   8.505  -0.266  0.0548 -0.6862  0.3165
   19CHTO   C72 7813   5.037   8.472  -0.468 -0.4374 -0.5061  0.0241
   19CHTO   O48 7814   5.165   8.430  -0.519  0.2381  0.0725  0.1092
   19CHTO  H105 7815   5.164   8.437  -0.612  0.0421 -1.9849 -0.0680
   19CHTO   O38 7816   4.728   8.360  -0.194 -0.6658  0.5024  0.5174
   19CHTO   C55 7817   4.603   8.389  -0.260  0.4110  0.1503  0.0710
   19CHTO  H112 7818   4.592   8.490  -0.300 -1.6657 -0.6881 -1.6161
   19CHTO   C56 7819   4.483   8.364  -0.158 -0.1123  0.0399 -0.1904
   19CHTO  H113 7820   4.492   8.266  -0.109 -0.4936 -0.1100 -0.4160
   19CHTO   O42 7821   4.497   8.467  -0.055 -0.0930 -0.0189  0.4443
   19CHTO  H100 7822   4.450   8.464   0.026 -0.1114 -1.2170  0.4044
   19CHTO   C57 7823   4.340   8.363  -0.226  0.0016  0.8927  0.0044
   19CHTO  H114 7824   4.331   8.465  -0.264 -0.5151  1.2704  1.1243
   19CHTO   N10 7825   4.228   8.338  -0.134 -0.1031  0.6897 -0.0766
   19CHTO  H106 7826   4.136   8.388  -0.160 -0.1757  1.2327  1.2279
   19CHTO  H107 7827   4.207   8.232  -0.129 -0.0564  0.7584  1.9657
   19CHTO   C58 7828   4.352   8.262  -0.343 -0.3370  0.1263 -0.1342
   19CHTO  H115 7829   4.379   8.163  -0.300  0.9336  0.5387  0.0310
   19CHTO   O37 7830   4.452   8.291  -0.441  0.5065 -0.8052 -0.3427
   19CHTO   C59 7831   4.587   8.299  -0.392 -0.2513 -0.0200 -0.2028
   19CHTO  H116 7832   4.616   8.197  -0.367 -1.7385 -0.4043  0.0320
   19CHTO   C70 7833   4.663   8.343  -0.517 -0.0547  0.0578  1.0649
   19CHTO   O46 7834   4.676   8.480  -0.530 -0.3230 -0.0678 -0.6011
   19CHTO  H103 7835   4.596   8.527  -0.521 -0.5601 -0.4417 -0.7451
   19CHTO   O39 7836   4.220   8.262  -0.415  0.5233 -0.2033 -0.1372
   19CHTO   C60 7837   4.201   8.157  -0.511  0.1827 -0.5249  0.2969
   19CHTO  H117 7838   4.291   8.142  -0.570  0.1704 -1.4725  0.5223
   19CHTO   C62 7839   4.170   8.019  -0.447 -1.2208 -0.3083 -0.4163
   19CHTO  H119 7840   4.257   7.986  -0.386 -0.7770 -0.4037 -1.0872
   19CHTO   O43 7841   4.058   8.023  -0.356  0.4341  0.1373  0.0457
   19CHTO  H101 7842   4.067   8.093  -0.294  3.5864 -0.6808  0.6040
   19CHTO   C66 7843   4.146   7.905  -0.561 -0.7781 -0.3487  0.0197
   19CHTO  H123 7844   4.236   7.892  -0.620  0.3008 -2.0225  1.9750
   19CHTO   N12 7845   4.119   7.763  -0.519 -0.3018  0.1665  0.2404
   19CHTO  H110 7846   4.022   7.729  -0.551 -1.5134  2.9016  0.8686
   19CHTO  H111 7847   4.154   7.739  -0.420 -2.3355 -2.6037  0.3304
   19CHTO   C69 7848   4.036   7.949  -0.660  0.4722  0.7610  0.3235
   19CHTO  H126 7849   3.938   7.957  -0.609  0.5337 -0.5029  0.6493
   19CHTO   O41 7850   4.069   8.087  -0.715  0.2343  0.0307 -0.1276
   19CHTO   C64 7851   4.089   8.189  -0.617  0.3520 -0.3101 -0.0191
   19CHTO  H121 7852   4.001   8.203  -0.551 -0.1277 -3.0890 -0.0283
   19CHTO   C71 7853   4.126   8.319  -0.700 -0.3132 -0.3702 -0.0233
   19CHTO   O47 7854   4.251   8.316  -0.769  0.1802 -0.1003  0.1251
   19CHTO  H104 7855   4.263   8.404  -0.800 -1.9154  0.6956  1.4587
   19CHTO   O34 7856   4.030   7.839  -0.783  0.7539  0.1834 -0.4585
   19CHTO   C49 7857   4.012   7.857  -0.921 -0.1519 -0.5206  0.0450
   19CHTO   H91 7858   3.920   7.913  -0.935  0.2878 -0.0819 -1.1517
   19CHTO   C47 7859   3.992   7.718  -0.980  0.1369  0.7611  0.1836
   19CHTO   H89 7860   3.959   7.734  -1.085 -1.8152 -1.5680  0.3942
   19CHTO   O33 7861   3.882   7.655  -0.912  0.8111 -0.4026 -0.6113
   19CHTO   H70 7862   3.918   7.581  -0.868 -0.0961 -1.2643 -1.2885
   19CHTO   C45 7863   4.130   7.627  -0.985  0.6979  0.2679 -0.3469
   19CHTO   H87 7864   4.135   7.582  -0.885  3.1489  1.3185  0.0442
   19CHTO    N8 7865   4.103   7.519  -1.082 -0.6477 -0.4884 -0.7338
   19CHTO   H75 7866   4.130   7.557  -1.179 -1.5638 -0.2875 -0.9130
   19CHTO   H76 7867   4.169   7.439  -1.051 -1.8716 -1.4026 -0.4834
   19CHTO   C43 7868   4.256   7.731  -1.017  0.2983  1.0308 -0.4596
   19CHTO   H85 7869   4.297   7.745  -0.917  0.0373 -3.1136  0.2836
   19CHTO   O29 7870   4.207   7.849  -1.079 -0.2110  0.1425  0.3710
   19CHTO   C50 7871   4.129   7.927  -0.989 -0.1794 -0.3550 -0.0718
   19CHTO   H92 7872   4.200   7.953  -0.908  0.1595  0.9901 -0.7809
   19CHTO   C54 7873   4.080   8.057  -1.059  0.1085 -0.3873 -0.0692
   19CHTO   O36 7874   4.194   8.121  -1.122  0.2961 -0.1986 -0.0806
   19CHTO   H72 7875   4.180   8.214  -1.113  2.2482  0.0944  0.2883
   19CHTO   O27 7876   4.368   7.675  -1.098  0.6467  0.2081 -0.9806
   19CHTO   C37 7877   4.511   7.684  -1.119 -0.0563  0.6776 -0.4443
   19CHTO   H79 7878   4.545   7.613  -1.195 -1.2174 -0.3214 -0.0576
   19CHTO   C38 7879   4.551   7.826  -1.161  0.1484 -0.0547 -0.0858
   19CHTO   H80 7880   4.508   7.895  -1.087  0.4704  1.1772 -1.0069
   19CHTO   O31 7881   4.487   7.845  -1.290 -0.4814  0.0817 -0.2333
   19CHTO   H68 7882   4.404   7.887  -1.279 -2.1609 -2.9307 -1.0291
   19CHTO   C39 7883   4.702   7.855  -1.164 -0.0960  0.4194 -0.0892
   19CHTO   H81 7884   4.740   7.785  -1.238 -2.3779 -0.3389 -0.5693
   19CHTO    N7 7885   4.735   7.998  -1.192 -0.2397  0.5863 -0.8639
   19CHTO   H73 7886   4.644   8.055  -1.182 -1.3439 -1.4537  1.0460
   19CHTO   H74 7887   4.771   7.998  -1.294  2.3526 -2.4831 -0.0335
   19CHTO   C40 7888   4.765   7.804  -1.028  0.2741  0.1103 -0.6821
   19CHTO   H82 7889   4.730   7.866  -0.945 -0.7040 -0.1522 -0.8949
   19CHTO   O26 7890   4.730   7.668  -1.005 -0.2565  0.0652  0.7009
   19CHTO   C41 7891   4.584   7.647  -0.986 -0.5411  0.4582  0.1514
   19CHTO   H83 7892   4.550   7.715  -0.906  0.0293  1.2138 -0.2433
   19CHTO   C52 7893   4.566   7.501  -0.940 -0.2518 -0.2773 -0.0731
   19CHTO   O35 7894   4.418   7.465  -0.922 -0.0661  0.0952 -0.1812
   19CHTO   H71 7895   4.393   7.405  -0.854  1.0747 -0.4082 -0.1928
   19CHTO   O28 7896   4.907   7.806  -1.030  0.1367 -0.3117  0.1938
   19CHTO   C42 7897   4.990   7.823  -0.915 -0.4204  0.3545  0.2143
   19CHTO   H84 7898   4.929   7.790  -0.831  0.6632  1.0046  1.2817
   19CHTO   C44 7899   5.024   7.969  -0.891 -0.1839 -0.0162 -0.3690
   19CHTO   H86 7900   5.073   8.012  -0.978  2.7737 -0.5882  0.9527
   19CHTO   O32 7901   4.902   8.044  -0.874  0.2140 -0.8885 -0.2532
   19CHTO   H69 7902   4.920   8.129  -0.908 -0.6907 -0.4814  0.2833
   19CHTO   C48 7903   5.125   7.991  -0.770  0.3019 -0.3822  0.0039
   19CHTO   H90 7904   5.073   7.951  -0.683  2.1627 -2.6838  0.1175
   19CHTO    N9 7905   5.165   8.136  -0.755 -0.3645  0.3256 -0.2100
   19CHTO   H77 7906   5.088   8.201  -0.715 -0.3782  0.3803 -0.3247
   19CHTO   H78 7907   5.181   8.173  -0.855  0.5337  0.3152 -0.0728
   19CHTO   C51 7908   5.247   7.896  -0.793 -0.2911  0.5744 -0.0628
   19CHTO   H93 7909   5.293   7.922  -0.888 -1.4101 -0.5788 -0.9304
   19CHTO   O30 7910   5.199   7.759  -0.793 -0.3114 -0.3469  0.3745
   19CHTO   C46 7911   5.115   7.735  -0.919  0.8238  0.0648 -0.4943
   19CHTO   H88 7912   5.172   7.758  -1.009  1.3183 -2.3215 -0.8354
   19CHTO   C53 7913   5.077   7.588  -0.915  0.0237  0.0924  0.4690
   19CHTO   O72 7914   5.192   7.496  -0.919  0.0986 -0.7590 -0.1848
   19CHTO  H199 7915   5.190   7.444  -0.998  2.8977 -0.4007 -0.5602
   19CHTO   O22 7916   5.348   7.899  -0.687  0.4589 -0.2028  0.5519
   19CHTO   C31 7917   5.488   7.940  -0.726 -0.1873 -0.2847  0.2474
   19CHTO   H59 7918   5.472   8.005  -0.815 -0.5188  0.5172  0.8888
   19CHTO   C29 7919   5.563   8.025  -0.618  0.2210 -0.1622  0.8937
   19CHTO   H57 7920   5.577   7.973  -0.522 -1.7621 -1.8713  0.3013
   19CHTO   O21 7921   5.484   8.145  -0.601 -0.4466  0.3091 -0.4752
   19CHTO   H37 7922   5.412   8.140  -0.541 -0.6507  0.1993 -0.7248
   19CHTO   C27 7923   5.705   8.058  -0.682  0.3555 -0.2141  0.2348
   19CHTO   H55 7924   5.696   8.090  -0.787  1.6868 -0.9649 -0.1191
   19CHTO    N5 7925   5.785   8.160  -0.615  0.5451  0.1868 -0.3028
   19CHTO   H43 7926   5.815   8.146  -0.512 -1.1766  1.1867  0.3468
   19CHTO   H44 7927   5.886   8.179  -0.649  1.6151  0.6640  2.9220
   19CHTO   C25 7928   5.782   7.931  -0.710 -0.2403  0.1336 -0.7944
   19CHTO   H53 7929   5.778   7.864  -0.623 -0.1412  0.5928 -0.4357
   19CHTO   O17 7930   5.703   7.864  -0.812  0.3063 -0.2147 -0.0643
   19CHTO   C32 7931   5.573   7.820  -0.779 -0.5918 -0.0520 -0.1280
   19CHTO   H60 7932   5.582   7.748  -0.697 -1.3013 -0.6895 -0.6041
   19CHTO   C36 7933   5.509   7.732  -0.891 -0.3266  0.4883  0.1711
   19CHTO   O25 7934   5.595   7.619  -0.924 -0.2804 -0.3572 -0.0140
   19CHTO   H40 7935   5.591   7.615  -1.017 -1.5952  0.1800  0.0068
   19CHTO   O15 7936   5.932   7.950  -0.761 -0.5602 -0.3787  0.3557
   19CHTO   C19 7937   6.057   7.886  -0.736  0.4837 -0.2508 -0.7248
   19CHTO   H47 7938   6.133   7.963  -0.750 -0.7976  1.0338 -0.7650
   19CHTO   C20 7939   6.083   7.833  -0.591  1.0922  0.1230 -0.1780
   19CHTO   H48 7940   6.014   7.752  -0.565  2.4116 -0.8879  0.2145
   19CHTO   O19 7941   6.065   7.950  -0.505  0.2339  0.2756  0.5847
   19CHTO   H35 7942   5.984   7.995  -0.517  0.8140  1.0825 -0.3597
   19CHTO   C21 7943   6.226   7.772  -0.569 -0.0099  0.1439 -0.1715
   19CHTO   H49 7944   6.300   7.852  -0.561  0.4069 -0.2292 -0.2767
   19CHTO    N4 7945   6.237   7.700  -0.440  0.0281 -0.0284  0.1994
   19CHTO   H41 7946   6.301   7.751  -0.369 -0.5011 -0.3117  0.8848
   19CHTO   H42 7947   6.265   7.596  -0.441  0.5063  0.0984 -0.5456
   19CHTO   C22 7948   6.269   7.679  -0.691  0.5368 -1.2833  0.0585
   19CHTO   H50 7949   6.223   7.581  -0.684  0.4287 -1.1443  1.4280
   19CHTO   O14 7950   6.233   7.743  -0.817  0.2757  0.2830  0.2221
   19CHTO   C23 7951   6.095   7.771  -0.834 -0.2413  0.9705 -0.1999
   19CHTO   H51 7952   6.039   7.678  -0.818 -0.0108  1.4026  3.3623
   19CHTO   C34 7953   6.072   7.807  -0.981 -0.8518  0.5456 -0.4081
   19CHTO   O23 7954   6.093   7.687  -1.058 -0.1240 -0.2611 -0.1711
   19CHTO   H38 7955   6.185   7.670  -1.055 -0.5011 -2.3699  0.1670
   19CHTO   O16 7956   6.413   7.657  -0.688  0.8755  0.1138 -0.0076
   19CHTO   C24 7957   6.480   7.517  -0.775 -0.2289 -0.8895  0.2538
   19CHTO   H52 7958   6.588   7.528  -0.784 -0.1809 -0.8061  0.8894
   19CHTO   C26 7959   6.417   7.513  -0.913 -0.5929 -0.1105  0.7973
   19CHTO   H54 7960   6.307   7.508  -0.905 -0.6397 -1.1204 -0.2837
   19CHTO   O20 7961   6.467   7.622  -0.987  0.6750  0.3088  0.8263
   19CHTO   H36 7962   6.434   7.616  -1.074 -1.3229 -1.7909  1.6899
   19CHTO   C30 7963   6.456   7.378  -0.978  0.4111 -0.2204  0.0426
   19CHTO   H58 7964   6.564   7.387  -1.000  0.1800 -0.3754 -1.1826
   19CHTO    N6 7965   6.385   7.365  -1.107 -0.4521 -0.5573 -0.1504
   19CHTO   H45 7966   6.425   7.425  -1.188 -1.8245  0.5163 -0.0517
   19CHTO   H46 7967   6.385   7.261  -1.135  0.5906 -1.4020  2.8216
   19CHTO   C33 7968   6.433   7.257  -0.885 -0.2263  0.3819 -0.4781
   19CHTO   H61 7969   6.326   7.238  -0.871  0.0581 -0.6172  0.3987
   19CHTO   O18 7970   6.494   7.279  -0.757 -0.4549 -0.6651  0.3115
   19CHTO   C28 7971   6.449   7.395  -0.689 -0.1589  0.0205  0.0805
   19CHTO   H56 7972   6.340   7.396  -0.678 -0.2499 -0.1466 -0.7727
   19CHTO   C35 7973   6.511   7.400  -0.543 -0.3665  0.3757  0.3200
   19CHTO   O24 7974   6.455   7.286  -0.477  0.1365 -0.4521 -0.7704
   19CHTO   H39 7975   6.517   7.251  -0.417 -1.9697  0.1561  1.8371
   19CHTO    O9 7976   6.496   7.139  -0.950  0.6572  0.9388 -0.4979
   19CHTO   C13 7977   6.457   6.993  -0.893 -0.1206  0.5124  0.2871
   19CHTO   H26 7978   6.487   6.990  -0.786 -0.9282 -0.5787  0.4869
   19CHTO   C11 7979   6.547   6.890  -0.977 -0.3506  0.4975  0.3713
   19CHTO   H24 7980   6.652   6.909  -0.952 -0.0892 -0.8335  0.3170
   19CHTO    O8 7981   6.528   6.917  -1.119  0.2872  0.1069 -0.3753
   19CHTO    H3 7982   6.552   7.005  -1.139  0.0858  0.4744  0.9683
   19CHTO    C9 7983   6.518   6.748  -0.936  0.0475 -0.2353  0.4106
   19CHTO   H22 7984   6.540   6.741  -0.829  2.3438  2.2058  0.1414
   19CHTO    N2 7985   6.608   6.646  -0.989  0.0082  0.3991 -0.8435
   19CHTO   H10 7986   6.571   6.597  -1.078  0.4228  0.7211 -1.1927
   19CHTO   H11 7987   6.625   6.570  -0.914 -1.5522  2.3382  1.5129
   19CHTO    C7 7988   6.365   6.720  -0.953 -0.4207  0.3693  0.7707
   19CHTO   H20 7989   6.354   6.616  -0.916 -0.1927 -1.0259 -2.8284
   19CHTO    O4 7990   6.280   6.819  -0.876 -0.4046 -0.1605  0.0761
   19CHTO   C14 7991   6.305   6.956  -0.899  0.3697 -0.2849 -0.1784
   19CHTO   H27 7992   6.248   7.005  -0.818  0.2629 -1.3606  0.4077
   19CHTO   C18 7993   6.234   6.995  -1.028  0.1044 -0.2599 -0.6140
   19CHTO   O13 7994   6.090   7.011  -1.009  0.0543 -1.0168 -0.0939
   19CHTO    H7 7995   6.052   7.039  -1.090  0.9006 -1.3159 -0.6040
   19CHTO    O2 7996   6.314   6.710  -1.113  0.1104 -0.4313 -0.1888
   19CHTO    C1 7997   6.233   6.602  -1.151 -0.5291  0.4473  0.4385
   19CHTO   H14 7998   6.221   6.537  -1.062 -1.3341  0.7296  0.5368
   19CHTO    C2 7999   6.306   6.523  -1.276 -0.4445  0.2040  0.3963
   19CHTO   H15 8000   6.344   6.611  -1.330 -0.8717  1.1065  1.5656
   19CHTO    O6 8001   6.409   6.435  -1.234 -0.5533 -0.3077 -0.4644
   19CHTO    H1 8002   6.453   6.424  -1.316  0.0224 -0.4607 -0.1407
   19CHTO    C3 8003   6.204   6.448  -1.371  0.3228  0.5667  0.3103
   19CHTO   H16 8004   6.177   6.360  -1.311  0.8675  0.3508  0.2404
   19CHTO    N1 8005   6.276   6.408  -1.500  0.2523 -0.3123 -0.5143
   19CHTO    H8 8006   6.204   6.371  -1.572 -1.1491 -0.3170  0.8715
   19CHTO    H9 8007   6.360   6.342  -1.486  0.9407  0.4205 -1.0737
   19CHTO    C4 8008   6.074   6.535  -1.390 -0.6968 -0.1586  0.6015
   19CHTO   H17 8009   6.105   6.627  -1.438 -0.0459 -0.3083  0.7315
   19CHTO    O1 8010   6.005   6.567  -1.266 -0.3483  0.5388  0.0869
   19CHTO    C5 8011   6.085   6.651  -1.176 -0.5901 -0.1974  0.0534
   19CHTO   H18 8012   6.095   6.744  -1.232 -0.3022 -0.0940  0.2706
   19CHTO   C16 8013   6.009   6.681  -1.040  0.1176 -0.8382  0.2378
   19CHTO   O11 8014   5.897   6.772  -1.056 -0.3382  0.1039  0.0446
   19CHTO    H5 8015   5.821   6.718  -1.048 -2.0994  2.3323 -1.1512
   19CHTO    O3 8016   5.972   6.475  -1.475  0.0098  0.2415 -0.2436
   19CHTO    C6 8017   5.843   6.539  -1.502  0.2699 -0.0526  0.3206
   19CHTO   H19 8018   5.812   6.600  -1.417 -2.3893 -1.4935  0.4609
   19CHTO    C8 8019   5.849   6.634  -1.631  0.6250  0.3148 -0.2864
   19CHTO   H21 8020   5.895   6.577  -1.713 -1.1384 -1.1915 -0.2645
   19CHTO    O7 8021   5.929   6.750  -1.605  0.1439  0.3791  0.1429
   19CHTO    H2 8022   6.021   6.732  -1.597  0.1711  0.8614  1.0496
   19CHTO   C12 8023   5.699   6.670  -1.675 -0.7164 -0.1780  0.3962
   19CHTO   H25 8024   5.658   6.733  -1.594 -1.2488 -2.4530  1.9316
   19CHTO    N3 8025   5.702   6.755  -1.805 -0.1203 -0.2292 -0.5477
   19CHTO   H12 8026   5.770   6.839  -1.800  0.1095 -0.4390 -0.1311
   19CHTO   H13 8027   5.718   6.689  -1.889 -1.7714  0.5567 -1.5104
   19CHTO   C15 8028   5.607   6.543  -1.681  0.0938 -0.5110  0.1789
   19CHTO   H28 8029   5.632   6.477  -1.763  1.8913 -0.5065  0.7090
   19CHTO   O10 8030   5.467   6.581  -1.699  0.3019 -0.0974  0.0156
   19CHTO    H4 8031   5.454   6.581  -1.792  1.5513  0.5922 -0.1801
   19CHTO    O5 8032   5.610   6.476  -1.550  1.1070 -0.6897  0.2845
   19CHTO   C10 8033   5.737   6.426  -1.513 -0.1131 -0.0064 -0.4859
   19CHTO   H23 8034   5.771   6.354  -1.587 -2.7691  0.1350 -1.9175
   19CHTO   C17 8035   5.720   6.356  -1.374  0.0222 -0.0589  0.2127
   19CHTO   O12 8036   5.621   6.252  -1.395  0.0626  0.6216 -0.7204
   19CHTO    H6 8037   5.666   6.178  -1.431 -0.1030  0.5469 -0.7739
   20CHTO  H203 8038   5.744   1.876   7.405  1.7907  0.2272 -0.0063
   20CHTO   O82 8039   5.724   1.863   7.496  0.0487 -0.2475 -0.4351
   20CHTO  C123 8040   5.644   1.957   7.565  0.0996 -0.6372 -0.8103
   20CHTO  H227 8041   5.577   1.897   7.628  0.6219 -0.9475 -0.5440
   20CHTO   O77 8042   5.721   2.024   7.663 -0.1588  0.5491 -0.0161
   20CHTO  C118 8043   5.650   2.109   7.753  0.3906  0.0703 -0.3162
   20CHTO  H222 8044   5.572   2.043   7.794  0.4807 -0.5902 -1.2046
   20CHTO  C125 8045   5.745   2.151   7.869  0.2534  0.4247 -0.0774
   20CHTO   O84 8046   5.846   2.234   7.811  0.1942  0.2835 -0.4385
   20CHTO  H205 8047   5.798   2.307   7.776  1.0167  1.8190  1.5154
   20CHTO  C114 8048   5.599   2.227   7.672  0.0356  0.4502  0.2220
   20CHTO  H218 8049   5.683   2.280   7.628 -0.5670  0.7053 -0.6357
   20CHTO  C116 8050   5.495   2.171   7.572 -0.6534  0.2782  0.4883
   20CHTO  H220 8051   5.412   2.119   7.624 -1.3368 -1.2938 -2.0998
   20CHTO   O79 8052   5.450   2.281   7.495  0.1121  0.0437  0.2221
   20CHTO  H201 8053   5.385   2.329   7.542 -1.6423 -1.4937 -0.5729
   20CHTO  C120 8054   5.564   2.063   7.476  0.0018 -0.1500  0.1572
   20CHTO  H224 8055   5.643   2.120   7.424 -0.1070 -0.4881 -0.3849
   20CHTO   N21 8056   5.475   2.003   7.367  0.3823 -0.0074 -0.0504
   20CHTO  H211 8057   5.424   1.918   7.411 -1.6327 -0.0911 -2.4649
   20CHTO  H212 8058   5.523   1.986   7.271 -0.6732 -0.1145 -0.5626
   20CHTO   O75 8059   5.535   2.319   7.766 -0.1432 -0.3995  0.2107
   20CHTO  C112 8060   5.572   2.469   7.721 -0.1267 -0.3078 -0.3763
   20CHTO  H216 8061   5.587   2.476   7.612 -0.9926 -1.9642 -0.6295
   20CHTO   O73 8062   5.695   2.503   7.790 -0.2663 -0.4804  0.2093
   20CHTO  C113 8063   5.740   2.638   7.775 -0.4703  0.4174  0.4201
   20CHTO  H217 8064   5.766   2.663   7.670 -0.0401  0.5294  0.5522
   20CHTO  C124 8065   5.871   2.650   7.852  0.7660  0.8477  0.0264
   20CHTO   O83 8066   5.868   2.647   7.992  0.0695 -0.1361 -0.1435
   20CHTO  H204 8067   5.865   2.737   8.018  1.3827  0.0039 -0.4752
   20CHTO  C109 8068   5.628   2.736   7.824  0.1207  0.5702  0.5476
   20CHTO  H213 8069   5.616   2.720   7.932  0.7845 -0.4744  0.4793
   20CHTO  C110 8070   5.498   2.708   7.738  0.4082 -0.4394  0.2157
   20CHTO  H214 8071   5.509   2.729   7.632 -3.4599  0.1043 -0.1535
   20CHTO   O78 8072   5.399   2.804   7.792 -0.1249 -0.0007 -0.0508
   20CHTO  H200 8073   5.355   2.847   7.721 -0.1116 -3.2416 -2.1409
   20CHTO  C111 8074   5.453   2.561   7.767  0.2749  0.0288 -0.4513
   20CHTO  H215 8075   5.441   2.536   7.874  0.3184  0.7162 -0.2881
   20CHTO   N19 8076   5.324   2.527   7.699  0.2335 -0.4390  0.2783
   20CHTO  H207 8077   5.340   2.535   7.593  1.3791  1.5224  0.5735
   20CHTO  H208 8078   5.291   2.428   7.729 -1.4002  0.1958  0.6215
   20CHTO   O74 8079   5.658   2.875   7.810 -0.0084 -0.0047 -0.0792
   20CHTO  C115 8080   5.663   2.957   7.944 -0.1630  0.3692 -0.2041
   20CHTO  H219 8081   5.601   2.914   8.022 -2.0558  2.1653 -0.6733
   20CHTO   O76 8082   5.827   2.955   8.007 -0.0981 -0.0997 -0.3275
   20CHTO  C122 8083   5.915   3.006   7.904 -0.2801  0.3305  0.2587
   20CHTO  H226 8084   5.923   2.920   7.837  1.3977  0.9316 -0.3121
   20CHTO  C126 8085   6.060   3.029   7.965  0.3479  0.3301  0.3612
   20CHTO   O85 8086   6.063   3.138   8.056 -0.2596 -0.3420 -0.2198
   20CHTO  H206 8087   6.051   3.221   8.014 -0.0883  1.1592  2.5145
   20CHTO  C121 8088   5.856   3.131   7.819 -0.2326  0.3654 -0.1161
   20CHTO  H225 8089   5.936   3.207   7.813 -0.7650  0.8842 -0.6805
   20CHTO   O81 8090   5.833   3.099   7.682  0.4563  0.1551  0.5723
   20CHTO  H202 8091   5.824   3.178   7.632 -1.7581  0.0955  0.8334
   20CHTO  C119 8092   5.736   3.201   7.886 -0.4792 -0.6192  0.1993
   20CHTO  H223 8093   5.780   3.240   7.978 -0.7772  1.0842 -0.3566
   20CHTO  C117 8094   5.614   3.102   7.903  0.0176  0.0103 -0.3834
   20CHTO  H221 8095   5.552   3.095   7.814 -0.4289 -3.0052  0.1255
   20CHTO   N20 8096   5.521   3.148   8.007  0.0866  0.0260 -0.0990
   20CHTO  H209 8097   5.414   3.129   8.002  0.5029 -2.4961 -0.0963
   20CHTO  H210 8098   5.559   3.176   8.104 -0.8348 -1.9271  0.8606
   20CHTO   O80 8099   5.693   3.345   7.817  0.4493  0.0305 -0.0631
   20CHTO  C103 8100   5.776   3.492   7.860 -0.2846  0.2565 -0.5769
   20CHTO  H190 8101   5.739   3.538   7.952 -2.7787 -0.4869 -1.1703
   20CHTO  C101 8102   5.938   3.477   7.874 -0.4663 -0.0529 -0.8108
   20CHTO  H188 8103   5.976   3.407   7.800  1.4837 -1.4706  1.4382
   20CHTO   O68 8104   5.969   3.392   8.019 -0.2490  0.3868 -0.0090
   20CHTO  H168 8105   6.055   3.409   8.051  0.2079 -1.5447 -0.1349
   20CHTO   C99 8106   6.014   3.618   7.877 -0.0366 -0.0212  0.1138
   20CHTO  H186 8107   5.985   3.678   7.966  0.4633 -1.5417  1.3320
   20CHTO   N17 8108   6.161   3.609   7.880 -0.2361 -0.4228  0.3827
   20CHTO  H174 8109   6.197   3.541   7.804  0.3385 -0.7003  0.8963
   20CHTO  H175 8110   6.208   3.705   7.873 -1.2180 -0.0133 -0.5914
   20CHTO   C97 8111   5.971   3.695   7.750  0.2323 -0.4664 -0.4004
   20CHTO  H184 8112   6.003   3.638   7.662  2.3634  0.2336 -0.1117
   20CHTO   O64 8113   5.828   3.711   7.760 -0.1487  0.6708 -0.3167
   20CHTO  C104 8114   5.751   3.593   7.747  0.6774  0.0546 -0.1354
   20CHTO  H191 8115   5.765   3.546   7.649 -1.0606 -0.0164 -0.3758
   20CHTO  C108 8116   5.598   3.623   7.753  0.1129 -0.5869 -0.6700
   20CHTO   O71 8117   5.567   3.716   7.643 -0.0891 -0.3042  0.1439
   20CHTO  H171 8118   5.572   3.675   7.559 -0.3331  1.2016 -0.6312
   20CHTO   O62 8119   6.013   3.832   7.739 -0.0595 -0.1257 -0.3736
   20CHTO   C91 8120   5.990   3.881   7.602  0.0094  0.5290  0.6326
   20CHTO  H178 8121   5.937   3.806   7.543  1.3992 -1.2411  1.6301
   20CHTO   C92 8122   6.128   3.905   7.536  0.3565  0.1547  0.3546
   20CHTO  H179 8123   6.187   3.982   7.589 -1.0941  0.1535  2.0047
   20CHTO   O66 8124   6.196   3.778   7.547  0.0639 -0.4803 -0.3129
   20CHTO  H166 8125   6.265   3.763   7.485 -0.6396  1.5121 -1.6377
   20CHTO   C93 8126   6.102   3.933   7.381  0.5422 -0.1721  0.4558
   20CHTO  H180 8127   6.078   3.841   7.326 -0.6041  0.1069  0.4863
   20CHTO   N16 8128   6.231   3.973   7.317  0.0818  0.0720  0.3105
   20CHTO  H172 8129   6.221   4.033   7.227 -1.2437 -0.4414  0.1001
   20CHTO  H173 8130   6.282   3.884   7.283 -1.2971 -1.3090  1.8003
   20CHTO   C94 8131   5.991   4.046   7.355 -0.3134  0.1894  0.3539
   20CHTO  H181 8132   6.026   4.148   7.374 -0.5798  0.1247  1.1933
   20CHTO   O61 8133   5.886   4.035   7.458 -0.3321 -0.0431 -0.5226
   20CHTO   C95 8134   5.923   4.018   7.597  0.0137 -0.1093  0.0521
   20CHTO  H182 8135   5.981   4.102   7.637 -2.2315  1.2009  0.6270
   20CHTO  C106 8136   5.794   4.021   7.683  0.2687  0.1831  0.3570
   20CHTO   O69 8137   5.724   4.151   7.677 -0.0323 -0.0401  0.4004
   20CHTO  H169 8138   5.664   4.157   7.748  0.7980  0.6523  1.0400
   20CHTO   O63 8139   5.932   4.026   7.223 -0.8152  0.2075  0.1946
   20CHTO   C96 8140   5.843   3.896   7.217  0.8460  0.2232 -0.2946
   20CHTO  H183 8141   5.836   3.853   7.317  0.1242  0.0781 -0.4049
   20CHTO   C98 8142   5.906   3.795   7.116 -0.2732  0.0893 -0.1298
   20CHTO  H185 8143   6.015   3.790   7.132 -0.3291  1.6800  0.8838
   20CHTO   O67 8144   5.848   3.660   7.131  0.5512  0.4614  0.0249
   20CHTO  H167 8145   5.903   3.597   7.174  0.2438  1.1160  1.3824
   20CHTO  C102 8146   5.884   3.830   6.954 -0.7455 -0.2441 -0.3185
   20CHTO  H189 8147   5.887   3.734   6.900  2.5215 -0.4989  0.1899
   20CHTO   N18 8148   5.991   3.907   6.892  0.0772 -0.0566 -0.4452
   20CHTO  H176 8149   6.066   3.834   6.866  0.3773  0.2913 -0.5570
   20CHTO  H177 8150   5.962   3.961   6.803 -0.6964  0.5187  0.1437
   20CHTO  C105 8151   5.744   3.888   6.936  0.0060 -0.6181  0.7602
   20CHTO  H192 8152   5.756   3.993   6.911  2.4501 -1.1550 -0.5257
   20CHTO   O65 8153   5.657   3.874   7.049  0.1570  0.1391 -0.4795
   20CHTO  C100 8154   5.704   3.944   7.164  0.1542  0.1583 -0.0882
   20CHTO  H187 8155   5.717   4.048   7.131 -1.8306  1.0858  1.9392
   20CHTO  C107 8156   5.584   3.950   7.264  0.3759 -0.0802  0.2831
   20CHTO   O70 8157   5.614   4.057   7.355  0.2477  0.2516 -0.0388
   20CHTO  H170 8158   5.687   4.020   7.401 -0.3098 -1.2472 -0.3390
   20CHTO   O57 8159   5.691   3.815   6.787 -0.1900 -0.2370  0.2278
   20CHTO   C85 8160   5.566   3.868   6.747 -0.3933 -0.3319 -0.0572
   20CHTO  H157 8161   5.539   3.948   6.818 -0.1812 -0.6226  0.3573
   20CHTO   C83 8162   5.462   3.753   6.769  0.3385 -0.4592 -0.0293
   20CHTO  H155 8163   5.469   3.724   6.873  1.0157 -2.2255 -0.5420
   20CHTO   O56 8164   5.502   3.639   6.699 -0.3731  0.4041 -0.2844
   20CHTO  H135 8165   5.575   3.601   6.743 -2.4748 -3.1395  0.2929
   20CHTO   C81 8166   5.319   3.803   6.732 -0.0184 -0.3206 -0.1799
   20CHTO  H153 8167   5.302   3.895   6.789 -0.0651 -1.1580  1.1638
   20CHTO   N14 8168   5.205   3.724   6.777 -0.0305  0.1809  0.5190
   20CHTO  H141 8169   5.217   3.703   6.882  0.0852 -1.8112  0.1254
   20CHTO  H142 8170   5.120   3.786   6.761 -0.8730 -1.4393 -1.4861
   20CHTO   C79 8171   5.317   3.839   6.574 -0.0724  0.3647 -0.5222
   20CHTO  H151 8172   5.225   3.894   6.553 -0.2427  0.5407  0.6629
   20CHTO   O52 8173   5.423   3.938   6.548  0.4903 -0.2540  0.2474
   20CHTO   C86 8174   5.556   3.917   6.597 -0.1028 -0.7252  0.2122
   20CHTO  H158 8175   5.592   3.836   6.530 -2.5844  1.1776 -3.5917
   20CHTO   C90 8176   5.647   4.040   6.568 -0.4660 -0.0128 -0.5426
   20CHTO   O60 8177   5.782   4.026   6.616 -0.0955 -0.1224 -0.4716
   20CHTO  H138 8178   5.824   4.108   6.598 -1.1436  0.7644  1.0209
   20CHTO   O50 8179   5.334   3.724   6.487  0.0037  0.0542  0.1058
   20CHTO   C73 8180   5.362   3.713   6.351  0.3756 -0.5123 -0.4273
   20CHTO  H145 8181   5.433   3.793   6.329  0.9994 -0.9900 -0.1717
   20CHTO   C74 8182   5.232   3.724   6.270  0.2231 -0.0092  0.1095
   20CHTO  H146 8183   5.189   3.818   6.309 -1.1486  0.0968 -1.6127
   20CHTO   O54 8184   5.266   3.752   6.134  0.2878 -0.0073 -0.1946
   20CHTO  H133 8185   5.322   3.687   6.096 -0.9169 -1.0880 -0.1327
   20CHTO   C75 8186   5.134   3.603   6.286  0.0041  0.8413  0.2732
   20CHTO  H147 8187   5.104   3.603   6.392 -0.3467 -0.7305  0.1913
   20CHTO   N13 8188   5.009   3.614   6.213 -0.6487  0.2960 -0.1766
   20CHTO  H139 8189   4.923   3.579   6.267 -0.1020 -0.0055  0.5041
   20CHTO  H140 8190   4.994   3.720   6.199 -1.8151  0.2916  1.0083
   20CHTO   C76 8191   5.208   3.466   6.252 -0.0778  0.3407 -0.9079
   20CHTO  H148 8192   5.234   3.454   6.146  1.4085 -0.1433 -0.5117
   20CHTO   O49 8193   5.333   3.458   6.330 -0.2554 -0.6186 -0.4737
   20CHTO   C77 8194   5.421   3.571   6.313  0.1637  0.5867 -0.2440
   20CHTO  H149 8195   5.453   3.578   6.209 -2.7679  1.7614 -1.1058
   20CHTO   C88 8196   5.546   3.547   6.396  0.3165 -0.2412  0.1132
   20CHTO   O58 8197   5.649   3.648   6.373 -0.1798 -0.0063  0.0370
   20CHTO  H136 8198   5.645   3.671   6.282  1.0515 -0.8427 -0.2514
   20CHTO   O51 8199   5.114   3.317   6.323 -0.1830 -0.4146  0.0411
   20CHTO   C78 8200   5.172   3.189   6.317 -0.4626  0.0351 -0.4250
   20CHTO  H150 8201   5.281   3.200   6.336 -0.5168 -1.4403  0.8741
   20CHTO   C80 8202   5.147   3.119   6.184 -0.3737  0.2014 -0.0024
   20CHTO  H152 8203   5.037   3.107   6.171 -0.0350 -1.1766 -1.8124
   20CHTO   O55 8204   5.219   3.198   6.091  0.5375 -0.2583 -0.2092
   20CHTO  H134 8205   5.174   3.271   6.053  0.2464 -0.4488 -0.2314
   20CHTO   C84 8206   5.210   2.976   6.182 -0.1203  0.2836  0.1714
   20CHTO  H156 8207   5.319   2.987   6.183 -0.2900  2.1630 -1.0936
   20CHTO   N15 8208   5.188   2.895   6.057  0.0408  0.2713 -0.5234
   20CHTO  H143 8209   5.087   2.912   6.026 -0.5017  1.0306  1.5918
   20CHTO  H144 8210   5.257   2.924   5.980  1.9090 -1.7578  0.3355
   20CHTO   C87 8211   5.177   2.899   6.312 -0.5372  0.0419 -0.3730
   20CHTO  H159 8212   5.073   2.868   6.310 -1.1138  1.8834  0.0196
   20CHTO   O53 8213   5.207   2.991   6.439 -0.4591  0.5331 -0.5547
   20CHTO   C82 8214   5.119   3.097   6.435  0.0892 -0.2658 -0.0422
   20CHTO  H154 8215   5.013   3.074   6.433 -0.3284  1.6074 -0.2983
   20CHTO   C89 8216   5.142   3.183   6.566  0.2282  0.3498 -0.3073
   20CHTO   O59 8217   5.280   3.223   6.579  0.1378  0.2806  0.3019
   20CHTO  H137 8218   5.294   3.237   6.670  3.0865 -0.1545 -0.0278
   20CHTO   O45 8219   5.267   2.746   6.323 -0.2851  0.0194  0.3829
   20CHTO   C67 8220   5.281   2.691   6.454 -0.3045 -0.2565  0.3134
   20CHTO  H124 8221   5.242   2.769   6.520  1.9780  0.8769  0.3647
   20CHTO   C65 8222   5.198   2.560   6.467  0.1780 -0.1852  0.2857
   20CHTO  H122 8223   5.207   2.524   6.364 -1.5773 -0.7742  0.3317
   20CHTO   O44 8224   5.062   2.603   6.497 -0.2646 -0.4116 -0.5039
   20CHTO  H102 8225   5.065   2.627   6.587  1.4279  1.6345 -1.0481
   20CHTO   C63 8226   5.270   2.450   6.551 -0.1701 -0.3503 -0.4062
   20CHTO  H120 8227   5.354   2.407   6.496 -0.2170 -1.2075  0.1709
   20CHTO   N11 8228   5.187   2.328   6.586  0.2498 -0.1187  0.1632
   20CHTO  H108 8229   5.156   2.293   6.490  1.9464 -0.3072 -0.3328
   20CHTO  H109 8230   5.249   2.254   6.632  0.8872  1.1068  1.3163
   20CHTO   C61 8231   5.333   2.516   6.674  0.0085 -0.6299  0.4437
   20CHTO  H118 8232   5.386   2.437   6.731  3.3124  1.7545  0.8192
   20CHTO   O40 8233   5.434   2.611   6.640 -0.1059  0.2164 -0.0936
   20CHTO   C68 8234   5.429   2.661   6.497 -0.3180 -0.3871  0.2650
   20CHTO  H125 8235   5.476   2.587   6.430 -1.5848  1.2853 -2.5409
   20CHTO   C72 8236   5.515   2.788   6.483  0.2362 -0.1810 -0.4219
   20CHTO   O48 8237   5.655   2.754   6.497 -0.2425 -0.0778 -0.4405
   20CHTO  H105 8238   5.708   2.823   6.464  0.4223  0.0961  0.9472
   20CHTO   O38 8239   5.237   2.575   6.764  0.8165 -0.5495  0.1080
   20CHTO   C55 8240   5.292   2.626   6.892 -0.0100 -0.6473 -0.1314
   20CHTO  H112 8241   5.396   2.659   6.876  0.2154 -0.6832  1.2260
   20CHTO   C56 8242   5.283   2.515   7.003 -0.0983 -0.3087  0.0971
   20CHTO  H113 8243   5.183   2.470   6.995 -1.1453  2.2109 -1.8162
   20CHTO   O42 8244   5.366   2.411   6.969 -0.0900 -0.0675 -0.5344
   20CHTO  H100 8245   5.340   2.329   7.008  1.3297 -0.1091  0.3496
   20CHTO   C57 8246   5.302   2.567   7.148 -0.1241 -0.0702  0.1839
   20CHTO  H114 8247   5.406   2.567   7.180 -0.2524  3.1382  0.7638
   20CHTO   N10 8248   5.235   2.477   7.250 -0.1721 -0.4662  0.0603
   20CHTO  H106 8249   5.145   2.434   7.209  0.8622 -2.2066 -0.4158
   20CHTO  H107 8250   5.219   2.513   7.351 -0.2995 -0.9574  0.2191
   20CHTO   C58 8251   5.249   2.710   7.169 -0.3791  0.3630 -0.0455
   20CHTO  H115 8252   5.139   2.698   7.177 -0.2326 -2.0180 -0.9363
   20CHTO   O37 8253   5.279   2.799   7.059 -0.1384  0.6000  0.1183
   20CHTO   C59 8254   5.222   2.759   6.932 -0.4333 -0.1617 -0.2162
   20CHTO  H116 8255   5.115   2.742   6.941 -0.0939 -2.3539  0.1034
   20CHTO   C70 8256   5.252   2.863   6.826 -0.6648 -0.3284  0.6480
   20CHTO   O46 8257   5.393   2.907   6.821 -0.0958 -0.3178 -0.0999
   20CHTO  H103 8258   5.443   2.834   6.790  0.7323  0.8632 -1.6238
   20CHTO   O39 8259   5.311   2.777   7.313 -0.4033 -0.0459 -0.4950
   20CHTO   C60 8260   5.261   2.906   7.345  1.3123 -0.1571 -0.4236
   20CHTO  H117 8261   5.290   2.967   7.259  0.0826 -0.4690 -1.0640
   20CHTO   C62 8262   5.107   2.913   7.367  0.9400  0.1286 -0.0560
   20CHTO  H119 8263   5.060   2.871   7.276 -0.1279  1.1346  0.0230
   20CHTO   O43 8264   5.066   2.822   7.472  0.1503  0.2254  0.0892
   20CHTO  H101 8265   4.978   2.849   7.492  0.1260 -0.2096  0.5547
   20CHTO   C66 8266   5.065   3.063   7.395  0.0567 -0.7406 -0.2605
   20CHTO  H123 8267   5.092   3.119   7.306  0.8514  0.2800  0.6168
   20CHTO   N12 8268   4.917   3.075   7.404  0.0359  0.0990  1.0027
   20CHTO  H110 8269   4.883   3.173   7.374 -1.5310 -0.3419  1.3062
   20CHTO  H111 8270   4.870   3.001   7.341 -2.1465  2.2501  0.0393
   20CHTO   C69 8271   5.145   3.114   7.519  0.2989  0.5409  0.2454
   20CHTO  H126 8272   5.108   3.056   7.606  2.3276  0.0311  0.7921
   20CHTO   O41 8273   5.296   3.083   7.509  0.4162 -0.0525  0.7591
   20CHTO   C64 8274   5.338   2.961   7.466 -0.0330 -0.4913  0.3884
   20CHTO  H121 8275   5.323   2.889   7.549 -3.8571 -2.3421 -1.7525
   20CHTO   C71 8276   5.490   2.973   7.428  0.1127  0.9563  0.9640
   20CHTO   O47 8277   5.575   3.006   7.537  0.0234 -0.1172 -0.1064
   20CHTO  H104 8278   5.665   2.997   7.511 -0.2012  0.6526 -1.1723
   20CHTO   O34 8279   5.118   3.254   7.536  1.0364 -0.2875 -0.3091
   20CHTO   C49 8280   5.137   3.361   7.637 -0.3696  0.4836  0.0627
   20CHTO   H91 8281   5.074   3.347   7.726  1.2804  1.9564  1.4964
   20CHTO   C47 8282   5.104   3.503   7.578 -0.5669 -0.5773 -0.1221
   20CHTO   H89 8283   5.129   3.580   7.654 -2.3535  1.3263 -1.4446
   20CHTO   O33 8284   4.966   3.518   7.557  0.1514 -0.5476  0.2926
   20CHTO   H70 8285   4.944   3.602   7.524 -2.0055 -0.3238  2.1620
   20CHTO   C45 8286   5.194   3.529   7.444  0.4347  0.4270  0.7437
   20CHTO   H87 8287   5.145   3.484   7.356  2.2459  1.8863 -1.0847
   20CHTO    N8 8288   5.204   3.679   7.422  0.3535 -0.1517  0.1225
   20CHTO   H75 8289   5.278   3.724   7.487  0.9612  0.3025 -0.8606
   20CHTO   H76 8290   5.229   3.710   7.321 -0.1913  1.1564  0.3748
   20CHTO   C43 8291   5.333   3.450   7.454 -0.0687 -0.6829  0.0617
   20CHTO   H85 8292   5.301   3.351   7.423 -0.3546 -0.6387  0.2072
   20CHTO   O29 8293   5.380   3.450   7.592  0.4501  0.2234  0.5744
   20CHTO   C50 8294   5.289   3.373   7.676  0.1289 -0.1342  0.3454
   20CHTO   H92 8295   5.337   3.274   7.685  2.6541  0.9549 -0.6856
   20CHTO   C54 8296   5.290   3.422   7.823  0.2002 -0.0422  0.1871
   20CHTO   O36 8297   5.254   3.317   7.917  0.5376 -0.2555  0.0504
   20CHTO   H72 8298   5.177   3.350   7.959  0.0977  0.1988 -1.1056
   20CHTO   O27 8299   5.431   3.496   7.353 -0.7395  0.0886 -0.1367
   20CHTO   C37 8300   5.488   3.405   7.262 -0.0433 -0.3878  0.5458
   20CHTO   H79 8301   5.475   3.300   7.293 -0.8992 -0.1861  0.8730
   20CHTO   C38 8302   5.422   3.404   7.124 -0.4282 -0.0621 -0.0123
   20CHTO   H80 8303   5.415   3.507   7.087 -0.6815 -0.3495 -0.7621
   20CHTO   O31 8304   5.290   3.353   7.144 -0.5367 -0.0091 -0.0708
   20CHTO   H68 8305   5.239   3.411   7.197 -0.4461 -0.8632  0.9651
   20CHTO   C39 8306   5.502   3.314   7.017 -0.5914 -0.1780  0.2768
   20CHTO   H81 8307   5.504   3.210   7.048 -0.8077  0.0395  1.0213
   20CHTO    N7 8308   5.441   3.322   6.879  0.1861  0.3928 -0.0929
   20CHTO   H73 8309   5.346   3.373   6.886 -0.3225 -0.7347  1.5982
   20CHTO   H74 8310   5.422   3.233   6.822  1.0296 -0.3537  0.7750
   20CHTO   C40 8311   5.657   3.344   7.023 -0.3183  0.1324  0.0955
   20CHTO   H82 8312   5.674   3.444   6.982 -0.3891  1.3422  2.8941
   20CHTO   O26 8313   5.702   3.329   7.157  0.0051 -0.3011  0.0681
   20CHTO   C41 8314   5.644   3.430   7.247 -0.7790 -0.2391 -0.0588
   20CHTO   H83 8315   5.653   3.532   7.205 -3.2458  0.7848  1.7545
   20CHTO   C52 8316   5.703   3.427   7.394  0.3347 -0.1504  0.0913
   20CHTO   O35 8317   5.702   3.302   7.462  0.0261  0.1151  0.3376
   20CHTO   H71 8318   5.611   3.277   7.461 -0.4744  1.8619 -2.4478
   20CHTO   O28 8319   5.728   3.252   6.942  0.4687 -0.4267  0.3573
   20CHTO   C42 8320   5.871   3.270   6.906 -0.3046 -0.5488  0.1358
   20CHTO   H84 8321   5.885   3.197   6.825  1.3026 -0.9821  0.7918
   20CHTO   C44 8322   5.970   3.221   7.014  0.4421 -0.8676  0.4798
   20CHTO   H86 8323   5.958   3.282   7.104  1.4280 -3.0165  2.1235
   20CHTO   O32 8324   5.937   3.086   7.051 -0.3187 -0.1111 -0.1843
   20CHTO   H69 8325   5.995   3.052   7.117  0.4741  0.8647 -0.3613
   20CHTO   C48 8326   6.124   3.232   6.973 -1.0545  0.5484 -0.0926
   20CHTO   H90 8327   6.130   3.161   6.890  0.7480  2.7356 -1.8977
   20CHTO    N9 8328   6.228   3.193   7.076  0.1850 -0.1235 -0.0482
   20CHTO   H77 8329   6.220   3.093   7.115 -0.3702  0.2175  0.7295
   20CHTO   H78 8330   6.221   3.261   7.161 -1.0257 -1.0185  0.5829
   20CHTO   C51 8331   6.147   3.378   6.925  0.1377 -0.4098 -0.1378
   20CHTO   H93 8332   6.133   3.453   7.004 -0.1950  0.0783 -0.6560
   20CHTO   O30 8333   6.061   3.406   6.812  0.0550  0.0169 -0.1500
   20CHTO   C46 8334   5.907   3.409   6.853  0.4355 -0.1160 -0.1227
   20CHTO   H88 8335   5.884   3.491   6.921  4.1972 -0.1504  1.3162
   20CHTO   C53 8336   5.826   3.438   6.728  0.2777  0.3483  0.2274
   20CHTO   O72 8337   5.863   3.561   6.676  0.1585 -0.1317  0.4516
   20CHTO  H199 8338   5.906   3.552   6.593  0.4635 -0.2585  0.6194
   20CHTO   O22 8339   6.276   3.396   6.862 -0.5480  0.3210 -0.1721
   20CHTO   C31 8340   6.348   3.520   6.850 -0.1193  0.1756  0.3521
   20CHTO   H59 8341   6.443   3.500   6.797  0.4778  2.7925  0.3682
   20CHTO   C29 8342   6.279   3.633   6.770  0.9630  0.4989  0.1759
   20CHTO   H57 8343   6.184   3.662   6.816 -0.2710  1.1376 -2.7087
   20CHTO   O21 8344   6.236   3.567   6.645  0.0698  0.5738  0.4150
   20CHTO   H37 8345   6.307   3.571   6.583  1.3205  1.9263  1.8583
   20CHTO   C27 8346   6.375   3.764   6.747  0.2621  0.3310  0.8924
   20CHTO   H55 8347   6.462   3.721   6.695 -1.3544 -1.0267 -0.7384
   20CHTO    N5 8348   6.312   3.866   6.659 -0.2125 -0.1539 -0.0240
   20CHTO   H43 8349   6.359   3.864   6.562  0.1653  1.0911  0.1320
   20CHTO   H44 8350   6.310   3.963   6.707  0.4569 -0.1200 -0.0577
   20CHTO   C25 8351   6.421   3.822   6.887 -0.0383  0.2536 -0.1828
   20CHTO   H53 8352   6.336   3.872   6.934 -0.7120 -2.7127  1.9071
   20CHTO   O17 8353   6.444   3.719   6.986  0.1612  0.0616 -0.2743
   20CHTO   C32 8354   6.385   3.585   6.989  0.0713 -0.4864 -0.3100
   20CHTO   H60 8355   6.295   3.591   7.051  0.6708  1.4163  0.4154
   20CHTO   C36 8356   6.483   3.487   7.060  0.6823  0.8753  0.0072
   20CHTO   O25 8357   6.609   3.502   6.998 -0.6440 -0.6088 -0.0723
   20CHTO   H40 8358   6.611   3.460   6.913  0.7237  1.1734 -0.9639
   20CHTO   O15 8359   6.541   3.902   6.875 -0.0848 -0.5361 -0.0849
   20CHTO   C19 8360   6.658   3.941   6.959  0.5186 -0.4733  0.3406
   20CHTO   H47 8361   6.717   4.017   6.906 -1.1211  0.0282 -0.8436
   20CHTO   C20 8362   6.625   3.996   7.093 -0.5864 -0.2878 -0.3668
   20CHTO   H48 8363   6.573   3.926   7.159 -0.2109 -0.4920 -0.2860
   20CHTO   O19 8364   6.529   4.100   7.067 -1.0049  0.0180  0.1240
   20CHTO   H35 8365   6.443   4.069   7.087 -0.6898 -1.1313 -0.2746
   20CHTO   C21 8366   6.752   4.050   7.164 -0.3460  0.3673 -0.0001
   20CHTO   H49 8367   6.800   4.127   7.104  1.6009 -1.6545 -1.1079
   20CHTO    N4 8368   6.726   4.116   7.300  0.0007  0.3466 -0.0097
   20CHTO   H41 8369   6.811   4.108   7.366 -0.6756 -0.6228  0.7567
   20CHTO   H42 8370   6.695   4.219   7.300 -1.7177 -0.1245  2.4726
   20CHTO   C22 8371   6.848   3.926   7.177 -0.0052  0.8540  0.3878
   20CHTO   H50 8372   6.793   3.857   7.241 -1.0679  1.7829  0.4903
   20CHTO   O14 8373   6.878   3.872   7.050  0.4941 -0.1680 -0.7106
   20CHTO   C23 8374   6.758   3.825   6.987  0.1600  0.2713 -0.2137
   20CHTO   H51 8375   6.710   3.749   7.050  2.0133  0.9932  2.1434
   20CHTO   C34 8376   6.807   3.750   6.863  0.3121 -0.3146 -0.3263
   20CHTO   O23 8377   6.882   3.632   6.896 -0.3300 -0.2129  0.1719
   20CHTO   H38 8378   6.976   3.639   6.900 -0.4299  0.6971  1.3224
   20CHTO   O16 8379   6.981   3.940   7.238  0.1872 -0.1232 -0.1635
   20CHTO   C24 8380   7.061   3.798   7.260 -0.4651 -0.6425  0.6091
   20CHTO   H52 8381   7.017   3.718   7.201  0.4294 -1.6559  1.3007
   20CHTO   C26 8382   7.071   3.761   7.412 -0.2313  0.6785 -0.1488
   20CHTO   H54 8383   7.126   3.839   7.468 -1.0902  2.2749 -1.4609
   20CHTO   O20 8384   6.935   3.754   7.468 -0.2614 -0.1997  0.1397
   20CHTO   H36 8385   6.941   3.769   7.560  2.2877 -2.4391  0.3876
   20CHTO   C30 8386   7.146   3.631   7.435  0.0360 -0.1684 -0.7277
   20CHTO   H58 8387   7.088   3.549   7.390 -1.3399  0.8785 -0.8647
   20CHTO    N6 8388   7.174   3.605   7.578 -0.6060 -0.3014 -0.4993
   20CHTO   H45 8389   7.089   3.586   7.642 -1.3356  1.1234 -1.0253
   20CHTO   H46 8390   7.258   3.543   7.606  0.6385  1.2242 -0.7955
   20CHTO   C33 8391   7.280   3.622   7.350 -0.3066  0.2007  0.0660
   20CHTO   H61 8392   7.369   3.659   7.403  0.4549 -2.1427  0.4796
   20CHTO   O18 8393   7.274   3.690   7.220  0.1788 -0.0578  0.4150
   20CHTO   C28 8394   7.202   3.811   7.205 -0.4367  0.8045 -0.0597
   20CHTO   H56 8395   7.256   3.888   7.261  0.3647 -0.1295  0.4853
   20CHTO   C35 8396   7.221   3.855   7.054  0.1724 -0.0706 -0.6630
   20CHTO   O24 8397   7.166   3.754   6.967  0.0100 -0.5176 -0.3383
   20CHTO   H39 8398   7.182   3.773   6.876  0.3836  1.3639  0.0979
   20CHTO    O9 8399   7.307   3.477   7.334  0.2756  0.4472 -0.4583
   20CHTO   C13 8400   7.306   3.383   7.194  0.8052 -0.1426 -0.1810
   20CHTO   H26 8401   7.401   3.388   7.137 -0.2580 -0.1804 -1.9972
   20CHTO   C11 8402   7.187   3.418   7.101  0.0477  0.3214  0.0711
   20CHTO   H24 8403   7.204   3.515   7.053  0.9113  1.1643  2.0114
   20CHTO    O8 8404   7.061   3.437   7.171 -0.2160  0.0953  0.0957
   20CHTO    H3 8405   6.987   3.438   7.113 -0.0898 -0.4996 -0.0798
   20CHTO    C9 8406   7.181   3.310   6.987 -0.2970  0.2621 -0.4994
   20CHTO   H22 8407   7.278   3.319   6.937 -1.2823  0.9563 -2.3398
   20CHTO    N2 8408   7.076   3.338   6.885  0.0095  1.1475  0.5448
   20CHTO   H10 8409   7.094   3.434   6.837  1.6966  1.0687  0.9684
   20CHTO   H11 8410   6.976   3.328   6.923  0.4120 -1.5884  0.9523
   20CHTO    C7 8411   7.173   3.171   7.055 -0.1703  0.1623  0.1477
   20CHTO   H20 8412   7.169   3.099   6.971 -1.8094  0.3006  0.0735
   20CHTO    O4 8413   7.282   3.145   7.140 -0.4466 -0.3611  0.0730
   20CHTO   C14 8414   7.315   3.236   7.242  1.1141  0.1706 -0.4018
   20CHTO   H27 8415   7.421   3.223   7.271  1.2231  0.8680 -0.4864
   20CHTO   C18 8416   7.223   3.212   7.367 -0.1848 -0.1366 -0.0648
   20CHTO   O13 8417   7.233   3.077   7.399  0.1348  0.1585 -0.4060
   20CHTO    H7 8418   7.161   3.028   7.364  0.6955  0.4719 -2.0583
   20CHTO    O2 8419   7.031   3.153   7.136  0.6084 -0.2960  0.2871
   20CHTO    C1 8420   6.964   3.027   7.162 -0.5172  0.7869  0.1649
   20CHTO   H14 8421   6.948   3.019   7.272 -0.7782  0.0340  0.0782
   20CHTO    C2 8422   7.035   2.891   7.116  0.2988  0.2360 -0.4119
   20CHTO   H15 8423   7.048   2.906   7.007  1.9991 -0.7122 -0.3676
   20CHTO    O6 8424   7.166   2.873   7.170  0.3575 -0.5987 -0.5105
   20CHTO    H1 8425   7.223   2.931   7.122  2.1962 -0.3789  1.8736
   20CHTO    C3 8426   6.945   2.763   7.140 -0.6776  0.2302 -0.2413
   20CHTO   H16 8427   6.938   2.746   7.248  1.5814 -0.2268 -0.1472
   20CHTO    N1 8428   6.991   2.631   7.081 -0.6479 -0.6190  0.0671
   20CHTO    H8 8429   7.061   2.646   7.001  1.3571  1.0226  2.0299
   20CHTO    H9 8430   7.037   2.574   7.161 -0.4488 -0.4945  0.0422
   20CHTO    C4 8431   6.798   2.796   7.092 -0.3357  0.4273 -0.0783
   20CHTO   H17 8432   6.790   2.789   6.983  0.1936  0.5592 -0.1244
   20CHTO    O1 8433   6.747   2.923   7.130 -0.1685  0.1275  0.4022
   20CHTO    C5 8434   6.826   3.035   7.089 -0.3380  0.5039  0.8218
   20CHTO   H18 8435   6.844   3.017   6.983 -0.6025 -0.1905  0.8976
   20CHTO   C16 8436   6.739   3.162   7.097  1.3378  0.4384  0.3606
   20CHTO   O11 8437   6.716   3.204   7.229  0.5829 -0.2388 -0.1212
   20CHTO    H5 8438   6.729   3.297   7.224 -1.0120 -0.0176 -0.3713
   20CHTO    O3 8439   6.705   2.697   7.136 -0.1862 -0.6959  0.5064
   20CHTO    C6 8440   6.583   2.676   7.063 -0.0484  0.3705 -0.7900
   20CHTO   H19 8441   6.573   2.740   6.975 -0.0631 -0.6278 -1.5229
   20CHTO    C8 8442   6.578   2.519   7.015 -0.2658 -0.0811  0.1695
   20CHTO   H21 8443   6.600   2.456   7.101 -0.1222  0.9075  0.8611
   20CHTO    O7 8444   6.679   2.508   6.910 -0.1544 -0.0484 -0.1181
   20CHTO    H2 8445   6.643   2.558   6.840 -0.0544  1.2378  0.7243
   20CHTO   C12 8446   6.439   2.495   6.950  0.4078 -0.2836 -0.0032
   20CHTO   H25 8447   6.431   2.575   6.873 -0.6612  1.7155  2.0971
   20CHTO    N3 8448   6.423   2.361   6.884  0.0288  0.3759  0.2193
   20CHTO   H12 8449   6.505   2.334   6.820 -0.3498  0.2331 -0.2028
   20CHTO   H13 8450   6.330   2.355   6.830 -0.3862  2.5949  0.6159
   20CHTO   C15 8451   6.325   2.528   7.052  0.6332 -0.1437  0.8226
   20CHTO   H28 8452   6.348   2.479   7.147  3.2472  0.5582  0.5815
   20CHTO   O10 8453   6.181   2.513   7.017  0.6867 -0.5273 -0.6671
   20CHTO    H4 8454   6.125   2.511   7.093  0.2340  1.5359 -0.9173
   20CHTO    O5 8455   6.337   2.673   7.077  0.3025 -0.4981 -0.2239
   20CHTO   C10 8456   6.461   2.707   7.151  0.5536  0.3627 -0.2367
   20CHTO   H23 8457   6.466   2.650   7.244  0.4169  0.1775 -0.3411
   20CHTO   C17 8458   6.463   2.856   7.200  0.2063 -0.3644 -0.2859
   20CHTO   O12 8459   6.485   2.941   7.086 -0.0612 -0.1845 -0.4005
   20CHTO    H6 8460   6.539   3.016   7.104  0.9937 -1.1591  0.5414
   21GLOH   H03 8461   0.608   5.793   0.832  0.5204  1.5917 -0.2929
   21GLOH    O1 8462   0.587   5.854   0.905 -0.6843 -0.2497  0.9483
   21GLOH    C1 8463   0.441   5.845   0.939 -0.4439  0.7474  0.0203
   21GLOH   H02 8464   0.400   5.761   0.883  2.7359 -1.3745  0.6996
   21GLOH   H08 8465   0.383   5.932   0.909 -0.9327  0.0591 -1.0537
   21GLOH    C2 8466   0.421   5.814   1.090 -0.2317 -0.5336 -0.4905
   21GLOH   H04 8467   0.315   5.803   1.119 -0.7407  1.4423 -1.5239
   21GLOH    O2 8468   0.481   5.692   1.140  0.4262  0.4239  0.0724
   21GLOH   H05 8469   0.516   5.700   1.230 -0.9166  0.1471  0.6144
   21GLOH    C3 8470   0.459   5.942   1.167 -0.4779 -0.1941 -0.0959
   21GLOH   H06 8471   0.379   6.012   1.143  0.1641  0.5857 -0.0278
   21GLOH   H07 8472   0.551   5.983   1.126 -1.5224  0.9059 -1.3757
   21GLOH    O3 8473   0.460   5.928   1.311 -0.1908  0.2907 -0.0893
   21GLOH   H01 8474   0.488   5.840   1.340  2.0178  0.8212 -0.5501
   22GLOH   H03 8475   7.244   8.564   5.387  1.7968  2.7460  2.0375
   22GLOH    O1 8476   7.319   8.503   5.370 -0.6314  0.0363  0.4021
   22GLOH    C1 8477   7.426   8.512   5.474  0.5168  0.2204  0.1082
   22GLOH   H02 8478   7.368   8.497   5.565  1.7375 -0.3605  0.8023
   22GLOH   H08 8479   7.464   8.613   5.460  3.3073 -0.6234  1.3104
   22GLOH    C2 8480   7.538   8.410   5.450  0.3367 -0.2418  0.7310
   22GLOH   H04 8481   7.546   8.402   5.340  1.1941 -0.4874  0.8072
   22GLOH    O2 8482   7.659   8.450   5.510 -0.2534 -0.5455 -0.3304
   22GLOH   H05 8483   7.681   8.400   5.591  1.0892 -0.1346 -0.4212
   22GLOH    C3 8484   7.509   8.269   5.502 -0.1537  1.5139 -1.0526
   22GLOH   H06 8485   7.594   8.203   5.484  0.1668  1.1506  1.5914
   22GLOH   H07 8486   7.424   8.238   5.440 -0.2135 -0.2047 -0.1541
   22GLOH    O3 8487   7.476   8.260   5.643  0.4033 -0.9507  0.3533
   22GLOH   H01 8488   7.495   8.166   5.662 -2.1347 -1.1977  1.8871
   23GLOH   H03 8489   8.399   7.211   3.075 -0.1107 -2.5727  0.5189
   23GLOH    O1 8490   8.359   7.224   3.164  0.4526 -0.6343  0.5214
   23GLOH    C1 8491   8.216   7.198   3.150 -0.4025 -0.4890 -0.0897
   23GLOH   H02 8492   8.201   7.135   3.062  0.0949 -0.7268 -0.0064
   23GLOH   H08 8493   8.171   7.292   3.118  1.2335  0.2077 -0.3888
   23GLOH    C2 8494   8.140   7.151   3.273  0.1078 -0.0235 -0.3449
   23GLOH   H04 8495   8.175   7.212   3.357  0.4718 -0.7828  0.0575
   23GLOH    O2 8496   8.001   7.151   3.260 -0.5266  0.1129 -0.1680
   23GLOH   H05 8497   7.963   7.235   3.291  1.0094  1.0771 -0.8577
   23GLOH    C3 8498   8.187   7.005   3.319 -0.1588 -0.6240  0.6350
   23GLOH   H06 8499   8.146   6.932   3.250  1.0726 -0.1025 -0.6749
   23GLOH   H07 8500   8.141   6.985   3.416 -1.4855 -3.8527 -0.6116
   23GLOH    O3 8501   8.324   6.992   3.328 -0.0944 -0.1730  0.6411
   23GLOH   H01 8502   8.354   6.933   3.257 -0.4452  0.0541  0.3070
   24GLOH   H03 8503   0.776   0.808   0.716 -0.0968 -1.3199  1.8356
   24GLOH    O1 8504   0.681   0.790   0.705 -0.0967 -0.3915  0.0883
   24GLOH    C1 8505   0.615   0.783   0.836  0.4200 -1.0111 -0.0415
   24GLOH   H02 8506   0.631   0.687   0.883  0.1371 -1.1661 -0.2583
   24GLOH   H08 8507   0.511   0.808   0.816  0.1659 -1.9153  0.1587
   24GLOH    C2 8508   0.656   0.891   0.932  0.2155  0.2705 -0.5994
   24GLOH   H04 8509   0.610   0.869   1.029  0.5702 -0.6689 -0.6464
   24GLOH    O2 8510   0.799   0.881   0.955  0.7989  0.8235 -0.3457
   24GLOH   H05 8511   0.827   0.790   0.976 -0.1172  0.5139 -0.4230
   24GLOH    C3 8512   0.618   1.032   0.900  0.5592  0.4833  0.0455
   24GLOH   H06 8513   0.684   1.055   0.817  0.1716  0.5238 -0.2524
   24GLOH   H07 8514   0.647   1.098   0.981  4.9726  1.0355 -1.8354
   24GLOH    O3 8515   0.478   1.050   0.871  0.3261 -0.2596 -0.3402
   24GLOH   H01 8516   0.462   1.146   0.866  0.2641 -0.1771  1.1945
   25GLOH   H03 8517   0.505   3.492   3.816 -0.3226 -2.2524 -3.4740
   25GLOH    O1 8518   0.433   3.441   3.858 -0.4752  0.0857 -0.7483
   25GLOH    C1 8519   0.469   3.305   3.821  0.2997 -0.3370 -0.1471
   25GLOH   H02 8520   0.462   3.233   3.902  0.9742  0.4024  0.5789
   25GLOH   H08 8521   0.574   3.305   3.792  0.2091  3.2683 -0.7442
   25GLOH    C2 8522   0.390   3.247   3.703  0.2787  0.3016  0.1834
   25GLOH   H04 8523   0.407   3.315   3.619 -1.6570  0.7374  0.1192
   25GLOH    O2 8524   0.451   3.119   3.676  0.8210 -0.4076 -0.4048
   25GLOH   H05 8525   0.404   3.072   3.605 -1.6586 -0.2009  1.0059
   25GLOH    C3 8526   0.241   3.258   3.735 -0.2057  0.1787  0.0350
   25GLOH   H06 8527   0.232   3.204   3.829 -0.4119 -2.7730 -1.6173
   25GLOH   H07 8528   0.192   3.210   3.651  1.2411  0.4615 -0.9858
   25GLOH    O3 8529   0.212   3.396   3.736  0.0731 -0.3565 -0.0616
   25GLOH   H01 8530   0.279   3.439   3.792  0.0817  2.1920 -1.9289
   26GLOH   H03 8531   7.452   2.022   3.209 -0.7133  1.6109 -0.3755
   26GLOH    O1 8532   7.358   1.996   3.201 -0.5651  0.8750  0.2486
   26GLOH    C1 8533   7.304   2.013   3.067  0.5756 -0.3038  0.0472
   26GLOH   H02 8534   7.376   1.976   2.995  0.7104 -1.3474  0.6961
   26GLOH   H08 8535   7.289   2.117   3.037  0.9143 -0.4554 -0.6426
   26GLOH    C2 8536   7.172   1.936   3.055 -0.1132  0.2051  0.1658
   26GLOH   H04 8537   7.187   1.827   3.052 -1.0504  0.0561  0.8548
   26GLOH    O2 8538   7.094   1.959   3.168  1.0484 -0.0204  0.1124
   26GLOH   H05 8539   7.144   2.018   3.227  0.9357 -0.5043  0.7056
   26GLOH    C3 8540   7.084   1.977   2.936 -0.1328  0.0842  0.4838
   26GLOH   H06 8541   7.077   2.086   2.937  2.1480  0.2386  1.2476
   26GLOH   H07 8542   6.980   1.946   2.949  0.1496 -0.2353  2.1509
   26GLOH    O3 8543   7.148   1.926   2.816  0.1262  0.3763  0.3507
   26GLOH   H01 8544   7.170   2.007   2.766  1.0783  0.4788  0.9210
   27GLOH   H03 8545   1.411   3.724   5.228  4.5041  0.3075 -1.1311
   27GLOH    O1 8546   1.436   3.670   5.305 -0.3680 -0.5122 -0.0128
   27GLOH    C1 8547   1.556   3.601   5.273 -1.0801  0.6413 -0.8838
   27GLOH   H02 8548   1.642   3.653   5.315  0.4498 -0.4094 -2.6324
   27GLOH   H08 8549   1.579   3.616   5.168  1.1706 -1.5519 -0.7512
   27GLOH    C2 8550   1.548   3.452   5.313  0.7088  0.2200  0.4585
   27GLOH   H04 8551   1.472   3.402   5.251  1.3996 -1.3610  0.8602
   27GLOH    O2 8552   1.669   3.379   5.301 -0.2334  0.1393 -0.2470
   27GLOH   H05 8553   1.644   3.285   5.301  1.3884 -0.3181  1.3137
   27GLOH    C3 8554   1.493   3.438   5.457  0.1808 -0.5135 -0.4431
   27GLOH   H06 8555   1.553   3.491   5.531  1.1083  0.7222 -2.0450
   27GLOH   H07 8556   1.495   3.335   5.493  0.1894 -0.9735 -1.7594
   27GLOH    O3 8557   1.361   3.482   5.466 -0.3457 -0.4789 -0.0595
   27GLOH   H01 8558   1.363   3.570   5.425 -0.6457 -0.2537  0.4121
   28GLOH   H03 8559   6.768   2.460   7.786  2.5357 -0.6141 -0.1195
   28GLOH    O1 8560   6.770   2.507   7.871 -0.2319 -0.7855  0.1004
   28GLOH    C1 8561   6.718   2.643   7.854  0.2814 -0.2974  0.0343
   28GLOH   H02 8562   6.657   2.649   7.764  0.8621  2.4622 -0.2123
   28GLOH   H08 8563   6.796   2.716   7.837  1.6147 -0.7856  3.6361
   28GLOH    C2 8564   6.630   2.700   7.970 -0.1642 -0.0167 -0.3791
   28GLOH   H04 8565   6.691   2.702   8.062 -0.7762 -0.3017  0.0328
   28GLOH    O2 8566   6.588   2.839   7.946  0.2630 -0.0197  0.1551
   28GLOH   H05 8567   6.670   2.891   7.948 -0.1600  0.6978 -0.6630
   28GLOH    C3 8568   6.505   2.620   7.987 -0.7517  0.4622 -0.1029
   28GLOH   H06 8569   6.454   2.616   7.890 -1.2301  1.7201  0.0812
   28GLOH   H07 8570   6.442   2.666   8.063 -1.9191  0.6267 -1.1486
   28GLOH    O3 8571   6.534   2.479   8.023 -0.1546 -0.7199 -0.3909
   28GLOH   H01 8572   6.544   2.473   8.119  1.6105 -1.2720 -0.5954
   29GLOH   H03 8573   3.752   6.637   5.053  0.2601 -0.5126  1.4605
   29GLOH    O1 8574   3.809   6.561   5.033  0.9459  0.3259  0.1215
   29GLOH    C1 8575   3.750   6.486   4.928 -0.9451  0.1021 -0.9774
   29GLOH   H02 8576   3.709   6.550   4.851  2.2324  2.5301 -0.7831
   29GLOH   H08 8577   3.671   6.427   4.974 -0.3529  1.2572  1.6240
   29GLOH    C2 8578   3.844   6.384   4.851  0.0601 -0.6263 -0.0256
   29GLOH   H04 8579   3.868   6.302   4.920 -0.8991 -0.2855  0.7374
   29GLOH    O2 8580   3.765   6.331   4.741  0.7471 -0.1625 -0.5473
   29GLOH   H05 8581   3.712   6.258   4.776 -2.2502  2.6927  1.1133
   29GLOH    C3 8582   3.974   6.448   4.808 -0.5278  0.3819  0.6809
   29GLOH   H06 8583   3.966   6.510   4.719 -1.8049  2.6413  2.3059
   29GLOH   H07 8584   4.038   6.365   4.778  0.5837  1.7100 -0.6507
   29GLOH    O3 8585   4.040   6.517   4.916 -0.1391 -0.3699  0.4275
   29GLOH   H01 8586   3.979   6.531   4.991 -0.4288 -1.5397  0.4273
   30GLOH   H03 8587   8.073   8.227   0.732 -0.1773  0.1499  0.1680
   30GLOH    O1 8588   8.095   8.183   0.648  0.1599  0.0372  0.3154
   30GLOH    C1 8589   8.234   8.208   0.640 -0.0682  0.2111  0.2910
   30GLOH   H02 8590   8.296   8.151   0.709  0.3943  1.9459  1.3208
   30GLOH   H08 8591   8.252   8.315   0.652  1.2452  0.3926 -2.7712
   30GLOH    C2 8592   8.292   8.182   0.500 -0.0172 -0.6578 -0.1279
   30GLOH   H04 8593   8.235   8.243   0.429 -1.7962 -2.1605 -0.0366
   30GLOH    O2 8594   8.435   8.215   0.498 -0.1172 -0.1352  0.2291
   30GLOH   H05 8595   8.489   8.152   0.549 -2.8118 -0.9321  2.2712
   30GLOH    C3 8596   8.268   8.037   0.469  0.1543  0.0027 -0.7050
   30GLOH   H06 8597   8.288   8.021   0.363  0.5548 -1.9138 -0.3610
   30GLOH   H07 8598   8.163   8.010   0.480  0.0085  1.1812  1.1119
   30GLOH    O3 8599   8.349   7.945   0.549 -0.1184 -0.4844 -0.1291
   30GLOH   H01 8600   8.426   7.991   0.587 -0.7425  0.9219 -0.5334
   31GLOH   H03 8601   4.327   8.523   3.896 -0.2289  0.7418  1.4327
   31GLOH    O1 8602   4.407   8.547   3.947  0.4319  0.1060  0.7215
   31GLOH    C1 8603   4.399   8.694   3.960 -0.0417 -0.2439 -0.3118
   31GLOH   H02 8604   4.329   8.733   3.886 -0.9458 -1.1560  0.0520
   31GLOH   H08 8605   4.490   8.742   3.925 -0.6344  1.0243 -0.1397
   31GLOH    C2 8606   4.369   8.742   4.100 -0.0545 -0.8182 -0.4372
   31GLOH   H04 8607   4.397   8.848   4.107 -2.6746 -0.1493  0.3506
   31GLOH    O2 8608   4.224   8.727   4.123 -0.0734  0.2305 -0.0185
   31GLOH   H05 8609   4.197   8.748   4.214  1.3777 -1.6502  0.8774
   31GLOH    C3 8610   4.451   8.657   4.203 -0.1903 -0.3441 -0.1780
   31GLOH   H06 8611   4.557   8.657   4.177 -0.6833 -1.3676 -2.3326
   31GLOH   H07 8612   4.429   8.550   4.202 -2.0083 -0.0091  0.9822
   31GLOH    O3 8613   4.427   8.693   4.342 -0.7818  0.4543  0.2694
   31GLOH   H01 8614   4.456   8.786   4.344 -0.7603  0.6022 -3.7825
   32GLOH   H03 8615   7.061   6.051   1.058 -0.6713 -0.9074 -2.8915
   32GLOH    O1 8616   7.145   6.092   1.029 -0.0983 -0.5123 -0.7272
   32GLOH    C1 8617   7.256   6.022   1.086 -0.5076  0.0274 -0.1817
   32GLOH   H02 8618   7.266   5.921   1.047 -2.1075 -0.4858  0.6971
   32GLOH   H08 8619   7.247   6.007   1.193  0.4862 -2.0989 -0.3845
   32GLOH    C2 8620   7.394   6.089   1.061  0.2719 -0.1116  0.7608
   32GLOH   H04 8621   7.412   6.104   0.954 -1.2460  0.9692  0.6318
   32GLOH    O2 8622   7.400   6.222   1.125 -0.2852  0.1782 -0.0493
   32GLOH   H05 8623   7.311   6.261   1.124  0.9838  3.2191 -1.5714
   32GLOH    C3 8624   7.503   5.990   1.114 -0.5016 -0.1110  0.2709
   32GLOH   H06 8625   7.488   5.891   1.073  0.2793  0.0513 -0.4242
   32GLOH   H07 8626   7.508   5.985   1.223 -0.0871  1.4113  0.3345
   32GLOH    O3 8627   7.636   6.035   1.084  0.3190  0.2887  0.0363
   32GLOH   H01 8628   7.660   6.115   1.134  0.3267 -0.3511  1.0920
   33GLOH   H03 8629   5.918   1.615   1.515 -0.2126  0.5466 -0.0856
   33GLOH    O1 8630   5.864   1.533   1.509  0.0209  0.3744  0.1575
   33GLOH    C1 8631   5.887   1.471   1.378 -0.0764 -0.1373  0.5140
   33GLOH   H02 8632   5.963   1.394   1.375 -0.3994 -0.4464  0.1843
   33GLOH   H08 8633   5.922   1.553   1.315  1.3306 -2.2375 -1.5553
   33GLOH    C2 8634   5.754   1.416   1.323 -0.0685 -0.4696  0.3551
   33GLOH   H04 8635   5.690   1.499   1.291  2.3911  1.1323 -0.5201
   33GLOH    O2 8636   5.793   1.330   1.207 -0.0322  0.5532 -0.2797
   33GLOH   H05 8637   5.858   1.260   1.227  0.3862  0.5384 -1.6214
   33GLOH    C3 8638   5.676   1.342   1.436 -0.0559  0.4656 -0.5377
   33GLOH   H06 8639   5.663   1.407   1.522  1.6923 -0.6444  0.6148
   33GLOH   H07 8640   5.743   1.259   1.459  0.2976  0.8289 -0.2468
   33GLOH    O3 8641   5.546   1.301   1.392 -0.3441  0.3013  0.4226
   33GLOH   H01 8642   5.555   1.265   1.302 -1.4260  0.5211  0.2143
   34GLOH   H03 8643   6.798   0.872   0.129  0.0363 -1.6952 -0.1784
   34GLOH    O1 8644   6.801   0.872   0.226 -0.4267  0.4231 -0.1450
   34GLOH    C1 8645   6.934   0.857   0.266 -0.2921  0.2719  0.3825
   34GLOH   H02 8646   6.959   0.873   0.371  1.4277 -0.3948  0.0960
   34GLOH   H08 8647   6.996   0.938   0.226  1.7534 -1.8398 -0.8809
   34GLOH    C2 8648   7.007   0.731   0.224  0.0228 -0.5536 -0.5820
   34GLOH   H04 8649   6.945   0.647   0.258  0.7445 -0.4196  1.0938
   34GLOH    O2 8650   7.020   0.738   0.081 -0.2598 -0.4972  0.2718
   34GLOH   H05 8651   6.928   0.737   0.048 -0.2603  0.7107  0.2156
   34GLOH    C3 8652   7.135   0.738   0.307 -0.0019  0.8122  0.5003
   34GLOH   H06 8653   7.195   0.648   0.291 -0.0382  0.8165  0.3464
   34GLOH   H07 8654   7.109   0.738   0.413 -0.9902 -0.1687  0.2609
   34GLOH    O3 8655   7.216   0.854   0.302 -0.2230  0.0029 -0.6138
   34GLOH   H01 8656   7.295   0.842   0.359 -0.1469  0.2880 -0.6562
   35GLOH   H03 8657   0.035   7.893   5.095  0.1392 -1.9890 -0.2885
   35GLOH    O1 8658  -0.040   7.858   5.146 -0.5406 -0.2614 -0.0639
   35GLOH    C1 8659  -0.118   7.753   5.078 -0.0925  0.4672 -0.7338
   35GLOH   H02 8660  -0.153   7.783   4.980 -0.4600  1.5806 -0.2755
   35GLOH   H08 8661  -0.200   7.727   5.145  0.2322  2.7395  0.5964
   35GLOH    C2 8662  -0.036   7.622   5.072  0.1294  0.0227 -0.0457
   35GLOH   H04 8663  -0.018   7.595   5.177 -1.9289 -0.7710  0.1063
   35GLOH    O2 8664  -0.114   7.526   4.996 -0.4718  0.6989 -0.2402
   35GLOH   H05 8665  -0.080   7.524   4.905  1.5379 -1.8581  0.5094
   35GLOH    C3 8666   0.106   7.649   5.011 -0.6058 -0.1083  0.3286
   35GLOH   H06 8667   0.147   7.732   5.067 -2.3301  0.2236  1.1116
   35GLOH   H07 8668   0.090   7.683   4.909 -1.5578 -4.4008 -1.0873
   35GLOH    O3 8669   0.188   7.537   5.033 -0.1061  0.1081  0.0235
   35GLOH   H01 8670   0.149   7.462   4.986 -0.4166  0.8945 -0.9976
   36GLOH   H03 8671   3.491   8.332   0.737 -0.1842  0.0634 -0.3036
   36GLOH    O1 8672   3.473   8.249   0.688 -0.3928 -0.1470  0.1250
   36GLOH    C1 8673   3.557   8.258   0.572 -0.0156 -0.2921 -0.0772
   36GLOH   H02 8674   3.533   8.345   0.511 -1.8848  0.7725  2.0852
   36GLOH   H08 8675   3.540   8.173   0.507 -0.4680 -1.3139  1.3585
   36GLOH    C2 8676   3.706   8.278   0.622  0.6936 -0.0529 -0.7216
   36GLOH   H04 8677   3.715   8.373   0.676 -3.9425  0.8495 -1.2562
   36GLOH    O2 8678   3.743   8.163   0.703 -0.0787 -0.3206  0.0837
   36GLOH   H05 8679   3.699   8.085   0.666  1.7713 -1.1559 -0.3863
   36GLOH    C3 8680   3.789   8.280   0.491  0.3466  0.1863  0.1924
   36GLOH   H06 8681   3.761   8.189   0.439  0.0746  0.4508 -0.1215
   36GLOH   H07 8682   3.893   8.269   0.522  0.4614  0.8548  0.0440
   36GLOH    O3 8683   3.773   8.400   0.411 -0.3137  0.6609 -0.4903
   36GLOH   H01 8684   3.692   8.412   0.358  0.0461  1.3416 -0.8921
   37GLOH   H03 8685   5.904   4.468   7.571 -0.6549 -1.5632  0.8954
   37GLOH    O1 8686   5.831   4.491   7.632 -0.7473 -0.0906  0.2486
   37GLOH    C1 8687   5.830   4.633   7.608  0.3589  0.0661 -0.7855
   37GLOH   H02 8688   5.886   4.685   7.686  1.3375  0.8439 -1.9845
   37GLOH   H08 8689   5.731   4.674   7.627  0.7484  1.2600 -1.2637
   37GLOH    C2 8690   5.874   4.684   7.468 -0.0866 -0.5802  0.3909
   37GLOH   H04 8691   5.799   4.652   7.394  1.6532 -0.7584 -1.3291
   37GLOH    O2 8692   5.890   4.827   7.473 -0.0805  0.9327  0.2729
   37GLOH   H05 8693   5.984   4.844   7.456  0.3420 -1.4814  0.0355
   37GLOH    C3 8694   6.005   4.607   7.430 -0.1154  0.7010  0.0778
   37GLOH   H06 8695   6.082   4.642   7.499 -2.3076  1.6343  2.1242
   37GLOH   H07 8696   6.029   4.644   7.331  0.0577 -1.2815 -0.6401
   37GLOH    O3 8697   5.982   4.461   7.428 -0.0155  0.5420  0.2781
   37GLOH   H01 8698   6.071   4.424   7.418  0.4084  1.1633  1.6833
   38GLOH   H03 8699   0.828   0.575   5.296  0.1533  1.7661  1.9377
   38GLOH    O1 8700   0.786   0.520   5.365  0.3012  0.4110  0.9696
   38GLOH    C1 8701   0.716   0.404   5.309  0.2654  0.0493 -0.0543
   38GLOH   H02 8702   0.789   0.331   5.275  0.7032 -0.6482  2.2691
   38GLOH   H08 8703   0.649   0.432   5.227 -1.9496 -0.0545  1.6694
   38GLOH    C2 8704   0.626   0.334   5.412  0.1540 -0.1126 -1.2533
   38GLOH   H04 8705   0.699   0.309   5.491 -1.3565 -0.2945  0.1052
   38GLOH    O2 8706   0.520   0.414   5.467 -0.1479 -0.0956 -0.2671
   38GLOH   H05 8707   0.476   0.471   5.402 -1.5822 -0.3698  0.4467
   38GLOH    C3 8708   0.575   0.198   5.360 -0.6517 -0.3348  0.8681
   38GLOH   H06 8709   0.523   0.148   5.442 -0.8444 -2.0576 -0.2789
   38GLOH   H07 8710   0.655   0.131   5.328  0.1642  0.5447  1.0490
   38GLOH    O3 8711   0.480   0.222   5.251  0.0303  0.5769  0.5434
   38GLOH   H01 8712   0.421   0.297   5.272 -1.4571 -0.4082  0.0091
   39GLOH   H03 8713   3.284   7.497   6.248  1.3925  2.4850 -1.3712
   39GLOH    O1 8714   3.372   7.460   6.226  0.4339 -0.4515 -0.4062
   39GLOH    C1 8715   3.382   7.317   6.201 -0.0650  0.0772  0.0955
   39GLOH   H02 8716   3.460   7.275   6.265  0.4549  0.2197 -0.4395
   39GLOH   H08 8717   3.402   7.304   6.095 -0.9108 -2.3150  0.2116
   39GLOH    C2 8718   3.257   7.233   6.229  0.7313 -0.0760  0.2945
   39GLOH   H04 8719   3.200   7.281   6.310 -1.2241  1.1190 -1.7266
   39GLOH    O2 8720   3.167   7.248   6.115  0.1181 -0.2570 -0.0352
   39GLOH   H05 8721   3.131   7.163   6.085 -0.3019  0.6128 -2.0793
   39GLOH    C3 8722   3.289   7.086   6.262 -0.3751  0.0594 -0.0382
   39GLOH   H06 8723   3.194   7.042   6.293  0.0036  0.0811  1.1949
   39GLOH   H07 8724   3.348   7.079   6.354 -0.5819 -0.5731  0.0482
   39GLOH    O3 8725   3.340   7.016   6.145 -0.3309  1.0887 -0.2182
   39GLOH   H01 8726   3.283   7.032   6.068 -2.8022  3.2110  1.9737
   40GLOH   H03 8727   0.699   4.871   3.665 -1.1791  1.8377 -2.1207
   40GLOH    O1 8728   0.731   4.826   3.584  0.6764 -0.2611 -0.3128
   40GLOH    C1 8729   0.729   4.682   3.608 -0.1112  0.4138 -0.9259
   40GLOH   H02 8730   0.640   4.662   3.668  0.9377  1.6933  1.1489
   40GLOH   H08 8731   0.814   4.654   3.672 -0.5238 -0.5080 -0.7694
   40GLOH    C2 8732   0.736   4.597   3.478  0.2620  0.0506 -0.2138
   40GLOH   H04 8733   0.821   4.631   3.417 -0.2860  0.8724 -0.5315
   40GLOH    O2 8734   0.755   4.461   3.511  0.4907 -0.0645 -0.4031
   40GLOH   H05 8735   0.774   4.408   3.433  0.6078 -0.3639 -0.1709
   40GLOH    C3 8736   0.611   4.633   3.387  0.7346 -0.2610  0.3371
   40GLOH   H06 8737   0.622   4.578   3.293 -0.1270  2.9224 -1.6968
   40GLOH   H07 8738   0.615   4.735   3.350 -0.9339 -0.6990 -1.1040
   40GLOH    O3 8739   0.478   4.620   3.440 -0.4552 -0.8332 -0.0960
   40GLOH   H01 8740   0.467   4.536   3.489 -3.3410 -0.3903  0.1117
   41GLOH   H03 8741   9.960   3.177   4.228 -0.9941  1.0099  1.3539
   41GLOH    O1 8742  10.027   3.238   4.190 -0.2411 -0.7288 -0.1591
   41GLOH    C1 8743  10.152   3.182   4.199 -0.9488  0.4665 -0.2825
   41GLOH   H02 8744  10.204   3.196   4.104 -0.3453  1.8261  0.2300
   41GLOH   H08 8745  10.141   3.074   4.209  1.9745  0.1861  0.5396
   41GLOH    C2 8746  10.239   3.244   4.313  0.3527  0.2367 -0.7591
   41GLOH   H04 8747  10.331   3.184   4.319 -0.0997 -0.3165  0.9975
   41GLOH    O2 8748  10.270   3.382   4.286  0.0686  0.3384 -0.0157
   41GLOH   H05 8749  10.268   3.436   4.367  0.0494 -2.4219  1.8729
   41GLOH    C3 8750  10.159   3.231   4.443 -0.7686 -0.1904 -0.2174
   41GLOH   H06 8751  10.057   3.269   4.443 -0.2386  1.2696 -0.0283
   41GLOH   H07 8752  10.220   3.276   4.521 -0.5509 -1.3155  0.2578
   41GLOH    O3 8753  10.135   3.094   4.478 -0.1358  0.0014 -0.4011
   41GLOH   H01 8754  10.060   3.058   4.428 -2.4398 -1.0246  3.6288
   42GLOH   H03 8755   3.052   7.556   0.143  1.2726  0.1086 -2.0036
   42GLOH    O1 8756   3.053   7.652   0.159 -0.8200 -0.2002  0.3633
   42GLOH    C1 8757   3.146   7.691   0.261  0.0603  0.2103  1.0243
   42GLOH   H02 8758   3.109   7.778   0.315 -1.3392 -0.2578  0.8412
   42GLOH   H08 8759   3.241   7.713   0.212 -0.4659 -3.7142 -2.0100
   42GLOH    C2 8760   3.175   7.589   0.375  0.6360 -0.4689 -0.0812
   42GLOH   H04 8761   3.245   7.637   0.446  0.1408 -1.8999  1.4200
   42GLOH    O2 8762   3.058   7.566   0.458  0.0878 -1.3649  0.5745
   42GLOH   H05 8763   2.985   7.545   0.397  1.4359 -3.3122 -0.4485
   42GLOH    C3 8764   3.231   7.464   0.313 -0.2371 -0.0115 -1.0113
   42GLOH   H06 8765   3.236   7.383   0.386  1.9908 -1.5590 -2.8281
   42GLOH   H07 8766   3.337   7.485   0.297  0.2487 -2.4244 -1.1174
   42GLOH    O3 8767   3.167   7.426   0.195 -0.0769 -0.2103  0.2664
   42GLOH   H01 8768   3.237   7.412   0.129 -0.4862 -1.5029  0.0953
   43GLOH   H03 8769   3.836   8.980   0.851  0.8178 -0.7361  0.1935
   43GLOH    O1 8770   3.787   8.926   0.786  0.1072  0.0859  0.0402
   43GLOH    C1 8771   3.715   8.822   0.846 -0.0717 -0.2854  0.2098
   43GLOH   H02 8772   3.652   8.770   0.773  1.2856 -1.1762 -0.3328
   43GLOH   H08 8773   3.655   8.865   0.926 -1.9839 -0.3226 -1.1550
   43GLOH    C2 8774   3.812   8.714   0.893 -0.1561  1.1380 -0.5829
   43GLOH   H04 8775   3.885   8.753   0.965  1.0709 -0.3963 -0.9862
   43GLOH    O2 8776   3.729   8.607   0.957  0.2555  0.0498  0.8499
   43GLOH   H05 8777   3.786   8.563   1.022 -0.1406  0.6220  1.5924
   43GLOH    C3 8778   3.897   8.651   0.781  0.0436  0.1502  0.5070
   43GLOH   H06 8779   3.827   8.617   0.704  0.4490  1.0399 -0.2661
   43GLOH   H07 8780   3.946   8.566   0.828  0.0575  0.3114  0.7817
   43GLOH    O3 8781   3.997   8.741   0.737 -0.2979 -0.1171  0.0563
   43GLOH   H01 8782   3.977   8.833   0.762 -0.0803 -0.0893  0.1325
   44GLOH   H03 8783   7.113   4.069   0.704  1.6653 -0.5455  0.2401
   44GLOH    O1 8784   7.132   4.026   0.618 -0.4907 -0.5229 -0.2918
   44GLOH    C1 8785   7.177   4.133   0.534  0.1070 -0.1256  0.0054
   44GLOH   H02 8786   7.254   4.107   0.463  0.0184 -0.6567  0.1041
   44GLOH   H08 8787   7.210   4.220   0.591  0.5116 -2.3797  3.3458
   44GLOH    C2 8788   7.070   4.206   0.454  1.0813  0.2152 -0.2028
   44GLOH   H04 8789   7.002   4.259   0.522  0.7085 -1.4428  0.7409
   44GLOH    O2 8790   7.132   4.304   0.371 -0.4686 -0.3827  0.0671
   44GLOH   H05 8791   7.137   4.391   0.415  0.5711 -0.5377  0.2650
   44GLOH    C3 8792   7.004   4.106   0.356 -0.1581  0.6205  0.4385
   44GLOH   H06 8793   7.070   4.061   0.283 -0.2235 -0.8754  1.2725
   44GLOH   H07 8794   6.927   4.164   0.305 -2.3664 -3.5761 -1.2836
   44GLOH    O3 8795   6.945   3.994   0.417  0.3205  0.6689  0.1092
   44GLOH   H01 8796   6.982   3.981   0.506 -0.4479 -1.1542  0.1873
   45GLOH   H03 8797   2.051   4.732   1.658  0.3687 -1.1460  0.7390
   45GLOH    O1 8798   1.955   4.717   1.665  0.1078 -0.1580 -0.6791
   45GLOH    C1 8799   1.888   4.786   1.559 -0.5112  0.3413 -0.0867
   45GLOH   H02 8800   1.816   4.722   1.509  1.8261 -2.5662  0.1523
   45GLOH   H08 8801   1.958   4.799   1.477 -2.4473  1.1000 -1.6679
   45GLOH    C2 8802   1.830   4.924   1.597  0.0665 -0.0791 -0.1930
   45GLOH   H04 8803   1.908   4.987   1.643 -2.3034  1.1020  2.3598
   45GLOH    O2 8804   1.766   4.982   1.481  0.4563 -0.2778 -0.1831
   45GLOH   H05 8805   1.723   5.062   1.514 -0.8675 -1.4381  0.9519
   45GLOH    C3 8806   1.734   4.895   1.715  0.1165  0.1724  0.3865
   45GLOH   H06 8807   1.687   4.983   1.759  1.1857  0.4623  0.9665
   45GLOH   H07 8808   1.785   4.851   1.801 -1.2621 -1.4235  0.4355
   45GLOH    O3 8809   1.628   4.797   1.685 -0.0765  0.2754  0.6600
   45GLOH   H01 8810   1.584   4.837   1.608  1.4009  1.2006  0.2627
   46GLOH   H03 8811   4.626   4.298   4.953 -0.6427 -1.9277 -1.1306
   46GLOH    O1 8812   4.673   4.332   4.875 -0.2918  0.4344  0.0746
   46GLOH    C1 8813   4.818   4.322   4.892 -0.1772  0.2178  0.3300
   46GLOH   H02 8814   4.836   4.237   4.958  0.3139  0.5231  0.5902
   46GLOH   H08 8815   4.843   4.408   4.954  1.7438 -0.5019  0.5748
   46GLOH    C2 8816   4.895   4.330   4.761  0.4828 -0.3581 -0.0811
   46GLOH   H04 8817   5.003   4.346   4.778  0.1639  2.0291 -0.1327
   46GLOH    O2 8818   4.878   4.216   4.680 -0.1455 -0.4083 -0.2077
   46GLOH   H05 8819   4.954   4.196   4.622 -0.5262  1.3382 -1.3567
   46GLOH    C3 8820   4.849   4.459   4.674  0.4421  0.2232  0.4807
   46GLOH   H06 8821   4.749   4.440   4.635  0.7587 -2.3979  0.7929
   46GLOH   H07 8822   4.920   4.454   4.591  0.9685  0.3943  0.9158
   46GLOH    O3 8823   4.853   4.585   4.739 -0.0917 -0.4356  0.0652
   46GLOH   H01 8824   4.842   4.650   4.667  2.0355 -2.4346 -2.1824
   47GLOH   H03 8825   1.541   4.682   5.206 -0.2193  0.7859  0.2840
   47GLOH    O1 8826   1.550   4.652   5.114 -0.1464  0.1275  0.5061
   47GLOH    C1 8827   1.552   4.763   5.018  0.6313 -0.5645  0.3256
   47GLOH   H02 8828   1.654   4.785   4.987 -0.0272  1.0977 -0.6986
   47GLOH   H08 8829   1.526   4.856   5.068  0.0509 -0.5706  0.0364
   47GLOH    C2 8830   1.463   4.740   4.890 -0.1760 -0.5923 -0.1916
   47GLOH   H04 8831   1.355   4.745   4.911 -0.3195 -0.9064 -0.8236
   47GLOH    O2 8832   1.488   4.848   4.792  0.5476 -0.6139 -0.4088
   47GLOH   H05 8833   1.578   4.835   4.756  0.9914 -1.5189  0.9923
   47GLOH    C3 8834   1.495   4.601   4.835 -0.1971 -0.0209  0.2693
   47GLOH   H06 8835   1.457   4.606   4.733  2.3029 -0.0634 -0.6805
   47GLOH   H07 8836   1.435   4.522   4.881 -1.6459  1.2345  0.5808
   47GLOH    O3 8837   1.629   4.565   4.830 -0.1155 -0.1588  0.3425
   47GLOH   H01 8838   1.646   4.484   4.881 -0.1451 -1.7902 -2.1411
   48GLOH   H03 8839   6.974   3.806   0.050  0.5500 -2.2194 -2.7069
   48GLOH    O1 8840   6.997   3.741   0.119 -0.4534  0.0013 -0.2025
   48GLOH    C1 8841   7.134   3.765   0.177  0.2435 -0.0442  0.4573
   48GLOH   H02 8842   7.136   3.871   0.199 -1.7403  0.2768 -0.7309
   48GLOH   H08 8843   7.215   3.746   0.106 -1.0984  1.6287 -1.5948
   48GLOH    C2 8844   7.160   3.680   0.305 -0.2307  0.5028 -0.1913
   48GLOH   H04 8845   7.200   3.583   0.273 -0.5005 -0.8285  3.2216
   48GLOH    O2 8846   7.247   3.759   0.391  0.3784  1.0844 -0.2737
   48GLOH   H05 8847   7.274   3.698   0.462  0.3585 -1.2843 -2.2099
   48GLOH    C3 8848   7.035   3.658   0.390 -0.5710 -0.2862  0.4068
   48GLOH   H06 8849   6.960   3.609   0.327  2.7136 -2.3732 -2.0038
   48GLOH   H07 8850   6.997   3.754   0.424  2.9841  1.2163  0.2917
   48GLOH    O3 8851   7.049   3.564   0.503 -0.0489 -0.1407 -0.2725
   48GLOH   H01 8852   6.957   3.555   0.537 -0.1321  0.4571 -0.3253
   49GLOH   H03 8853   4.405   1.741   1.619  0.5979 -2.3039 -0.0841
   49GLOH    O1 8854   4.438   1.748   1.528 -0.2409  0.5280 -0.2135
   49GLOH    C1 8855   4.382   1.657   1.432 -0.2217  0.5058  0.3666
   49GLOH   H02 8856   4.273   1.652   1.436 -0.2416  1.4927  1.3175
   49GLOH   H08 8857   4.414   1.555   1.450 -0.7391  0.3155  0.2103
   49GLOH    C2 8858   4.417   1.704   1.291  0.3246  0.2064  0.5097
   49GLOH   H04 8859   4.525   1.690   1.275  0.4394  2.1151 -0.5188
   49GLOH    O2 8860   4.360   1.617   1.197 -0.2342 -0.5729  0.6070
   49GLOH   H05 8861   4.334   1.677   1.124  1.3507 -0.0142  0.4911
   49GLOH    C3 8862   4.390   1.847   1.269  0.2986  0.2773  0.3154
   49GLOH   H06 8863   4.286   1.858   1.299  1.0378  1.4608  2.6151
   49GLOH   H07 8864   4.404   1.862   1.162  0.0264  0.6938  0.3353
   49GLOH    O3 8865   4.466   1.928   1.358  0.0287  0.4643  0.8542
   49GLOH   H01 8866   4.475   1.869   1.435  5.1214 -1.3169 -0.9195
   50GLOH   H03 8867   3.556   7.550   0.897  1.9864 -0.5607 -1.8616
   50GLOH    O1 8868   3.590   7.473   0.946  0.2958  0.1672  0.5015
   50GLOH    C1 8869   3.679   7.532   1.048 -0.2184  0.3007  0.3269
   50GLOH   H02 8870   3.712   7.632   1.018  1.2525  0.2516  1.7002
   50GLOH   H08 8871   3.777   7.486   1.057 -0.9173 -0.8891  2.0329
   50GLOH    C2 8872   3.614   7.542   1.191 -0.3905 -0.2324  0.3654
   50GLOH   H04 8873   3.521   7.601   1.195  0.8354  1.7192  1.1177
   50GLOH    O2 8874   3.569   7.411   1.234  0.1375  0.0829 -0.3930
   50GLOH   H05 8875   3.480   7.434   1.266 -0.2387  0.4312 -1.6721
   50GLOH    C3 8876   3.708   7.605   1.292  0.7148  0.0994 -0.6891
   50GLOH   H06 8877   3.797   7.542   1.295 -0.5246 -1.6327  1.6199
   50GLOH   H07 8878   3.646   7.615   1.382  0.7493 -0.3413 -0.6147
   50GLOH    O3 8879   3.757   7.742   1.265 -0.0919  0.6798  0.4030
   50GLOH   H01 8880   3.696   7.791   1.206 -1.4630  0.6666  1.7725
   51GLOH   H03 8881   7.181   0.602   0.915 -2.1458 -0.8399 -0.4412
   51GLOH    O1 8882   7.202   0.525   0.970  0.4740  0.0854 -0.0551
   51GLOH    C1 8883   7.275   0.418   0.913 -0.2746  0.1043  0.0749
   51GLOH   H02 8884   7.259   0.421   0.806  3.6347  1.7290 -0.5482
   51GLOH   H08 8885   7.240   0.321   0.949 -1.1607 -0.6216 -2.6552
   51GLOH    C2 8886   7.429   0.421   0.938 -0.2456 -0.7774 -0.2246
   51GLOH   H04 8887   7.466   0.524   0.933 -0.0199 -0.8023  0.9982
   51GLOH    O2 8888   7.467   0.369   1.064 -0.2578  0.7587  0.0968
   51GLOH   H05 8889   7.537   0.424   1.103  0.6154 -0.0235 -0.3603
   51GLOH    C3 8890   7.489   0.337   0.826  0.5060 -0.2564 -0.2576
   51GLOH   H06 8891   7.598   0.335   0.831  0.4761 -0.1308  0.4291
   51GLOH   H07 8892   7.471   0.390   0.732  0.4125  0.1864  0.0119
   51GLOH    O3 8893   7.446   0.200   0.813 -0.1357 -0.2805 -0.6931
   51GLOH   H01 8894   7.450   0.180   0.718 -0.0157 -1.7168 -0.3999
   52GLOH   H03 8895   7.669   7.731   4.763  0.3348 -0.5148 -0.4687
   52GLOH    O1 8896   7.722   7.792   4.708  0.2689 -0.2297 -0.2189
   52GLOH    C1 8897   7.717   7.930   4.750  0.2099  0.5563 -0.4404
   52GLOH   H02 8898   7.799   7.990   4.710  1.0645 -0.5109 -0.2948
   52GLOH   H08 8899   7.710   7.935   4.858 -0.4247 -0.9439 -0.4032
   52GLOH    C2 8900   7.591   7.996   4.693  0.3620  0.6515 -0.0230
   52GLOH   H04 8901   7.505   7.938   4.730  0.5272 -1.6229 -2.9900
   52GLOH    O2 8902   7.589   8.137   4.730  0.5559  0.0465  0.2130
   52GLOH   H05 8903   7.545   8.188   4.659 -1.0946 -0.2992  0.9565
   52GLOH    C3 8904   7.593   7.990   4.542  0.6388  0.4878  0.5061
   52GLOH   H06 8905   7.666   7.919   4.503 -1.5402 -0.9714 -1.0800
   52GLOH   H07 8906   7.622   8.084   4.498 -0.5963 -0.8435 -3.3629
   52GLOH    O3 8907   7.464   7.961   4.485  0.4134 -0.2226 -0.2853
   52GLOH   H01 8908   7.439   8.030   4.420  1.2797 -0.3918 -0.8184
   53GLOH   H03 8909   4.210   2.673   5.707  0.6359  1.0555  1.1376
   53GLOH    O1 8910   4.262   2.591   5.713 -0.8953 -0.0543 -0.4329
   53GLOH    C1 8911   4.358   2.586   5.614  0.1584 -0.1634  0.6214
   53GLOH   H02 8912   4.422   2.674   5.616  0.7112 -0.5807  2.0016
   53GLOH   H08 8913   4.312   2.564   5.517 -1.2464 -1.7599  1.6184
   53GLOH    C2 8914   4.454   2.469   5.646  0.7404 -0.5601  0.5084
   53GLOH   H04 8915   4.391   2.379   5.649 -0.8144  0.5527  1.9928
   53GLOH    O2 8916   4.552   2.438   5.541  0.3430 -0.3604  0.5357
   53GLOH   H05 8917   4.534   2.483   5.457  2.4816 -3.6560 -1.8034
   53GLOH    C3 8918   4.530   2.479   5.780 -0.7678 -0.3129  0.3678
   53GLOH   H06 8919   4.584   2.574   5.781 -1.2574 -0.0347  0.7652
   53GLOH   H07 8920   4.597   2.394   5.777  0.0814  0.3740 -0.3254
   53GLOH    O3 8921   4.433   2.478   5.880 -0.0890  0.0037 -0.1146
   53GLOH   H01 8922   4.355   2.520   5.838 -0.7620 -0.0524  1.0505
   54GLOH   H03 8923   5.777   4.910   7.543 -0.3812  1.1053 -0.7702
   54GLOH    O1 8924   5.737   4.980   7.598  0.1725  0.4281  0.5378
   54GLOH    C1 8925   5.762   5.108   7.542 -0.1244 -0.2160 -0.6956
   54GLOH   H02 8926   5.742   5.104   7.435 -0.1336 -1.6864 -0.6389
   54GLOH   H08 8927   5.869   5.127   7.541  0.1163 -1.0030  2.6926
   54GLOH    C2 8928   5.672   5.220   7.613  0.0539 -0.1675  0.1567
   54GLOH   H04 8929   5.658   5.188   7.718 -1.1202 -1.7229 -0.4483
   54GLOH    O2 8930   5.718   5.350   7.597  0.3712 -0.0229 -0.0450
   54GLOH   H05 8931   5.790   5.373   7.658 -1.5258  1.5481  1.6793
   54GLOH    C3 8932   5.543   5.202   7.531  0.0752  0.1531 -0.7175
   54GLOH   H06 8933   5.520   5.095   7.523  1.6341 -0.2131 -0.5885
   54GLOH   H07 8934   5.559   5.237   7.429 -3.5363  1.4345 -0.9185
   54GLOH    O3 8935   5.433   5.278   7.587 -0.0682 -0.1387 -0.8181
   54GLOH   H01 8936   5.471   5.334   7.657 -0.3592 -1.1158  0.1267
   55GLOH   H03 8937   4.947   8.521   2.599 -0.5344  0.2490  0.3987
   55GLOH    O1 8938   4.936   8.438   2.650 -0.3402 -0.0930 -0.1143
   55GLOH    C1 8939   4.818   8.455   2.727  0.4498 -0.3313 -0.2969
   55GLOH   H02 8940   4.837   8.519   2.813 -0.7022  1.3286 -1.2504
   55GLOH   H08 8941   4.786   8.357   2.759  0.6292  0.1498  1.3964
   55GLOH    C2 8942   4.690   8.511   2.652 -0.6627 -0.6028  0.2568
   55GLOH   H04 8943   4.631   8.441   2.591 -4.2827  2.2976  0.3209
   55GLOH    O2 8944   4.604   8.554   2.759 -0.1938 -0.3229 -0.1239
   55GLOH   H05 8945   4.547   8.481   2.786 -0.5475 -0.0866 -0.2340
   55GLOH    C3 8946   4.723   8.626   2.558 -0.2771  0.4414 -0.5592
   55GLOH   H06 8947   4.787   8.697   2.612  1.4259 -1.3267 -0.1820
   55GLOH   H07 8948   4.628   8.671   2.530 -0.7762  0.6811  1.4162
   55GLOH    O3 8949   4.787   8.568   2.442 -0.0278 -0.0850 -0.3169
   55GLOH   H01 8950   4.761   8.622   2.365 -1.9929 -0.2830  0.1779
   56GLOH   H03 8951   0.938   7.860   6.585 -1.3730  1.0276 -0.3893
   56GLOH    O1 8952   0.964   7.954   6.591  0.2820  0.5580  0.0868
   56GLOH    C1 8953   0.875   8.025   6.496  0.8061  0.7753 -0.0054
   56GLOH   H02 8954   0.774   7.989   6.513  2.0294 -2.1259  1.6206
   56GLOH   H08 8955   0.902   7.988   6.397  1.4125 -0.4510  0.6075
   56GLOH    C2 8956   0.892   8.181   6.505  0.5241 -0.7058  0.0469
   56GLOH   H04 8957   0.850   8.212   6.601  0.1723 -0.1310 -0.2916
   56GLOH    O2 8958   1.025   8.219   6.498 -0.3000 -0.6687 -0.0392
   56GLOH   H05 8959   1.075   8.157   6.555 -0.5721 -1.1434 -0.3106
   56GLOH    C3 8960   0.814   8.245   6.393 -0.4583  0.3975  0.5147
   56GLOH   H06 8961   0.860   8.219   6.297  1.0054 -3.4307  2.1265
   56GLOH   H07 8962   0.808   8.353   6.404 -3.8181  0.3579 -0.4044
   56GLOH    O3 8963   0.676   8.206   6.383 -0.4881 -0.2590  0.6990
   56GLOH   H01 8964   0.657   8.209   6.287  0.0135  0.6472  0.6238
   57GLOH   H03 8965   1.523   7.743   0.665  2.5453 -1.2044  0.7375
   57GLOH    O1 8966   1.582   7.805   0.618  0.6173  0.0290 -0.0958
   57GLOH    C1 8967   1.611   7.901   0.720 -0.5030  0.1858  0.2584
   57GLOH   H02 8968   1.560   7.997   0.716 -2.1241 -0.5831  1.3745
   57GLOH   H08 8969   1.717   7.927   0.724 -0.2964 -0.5886 -0.0098
   57GLOH    C2 8970   1.586   7.849   0.866  0.2834  0.6369  0.4736
   57GLOH   H04 8971   1.656   7.767   0.886 -2.0048 -1.2239  1.1107
   57GLOH    O2 8972   1.613   7.956   0.960  0.5155  0.3056 -0.9453
   57GLOH   H05 8973   1.660   7.924   1.038 -0.4824  0.3539 -0.3032
   57GLOH    C3 8974   1.444   7.803   0.890 -0.7041  0.3178 -0.3850
   57GLOH   H06 8975   1.379   7.890   0.892  0.6578  1.3336  0.2809
   57GLOH   H07 8976   1.438   7.761   0.991  0.7032 -0.8840 -0.7872
   57GLOH    O3 8977   1.385   7.709   0.794 -0.6568 -0.3692 -0.5271
   57GLOH   H01 8978   1.309   7.658   0.828 -0.9454 -1.2437 -2.4287
   58GLOH   H03 8979   0.848   8.690   0.869  0.7334  0.2457 -1.1617
   58GLOH    O1 8980   0.791   8.612   0.857 -0.3979  0.9328 -0.2834
   58GLOH    C1 8981   0.864   8.493   0.859 -0.2248 -0.0005  0.2539
   58GLOH   H02 8982   0.952   8.502   0.795 -0.3739 -0.8557 -0.0800
   58GLOH   H08 8983   0.804   8.406   0.831 -0.5752 -0.0255  1.0724
   58GLOH    C2 8984   0.909   8.467   1.004  1.4055 -0.1652 -0.3702
   58GLOH   H04 8985   0.963   8.556   1.040  0.4322 -0.6120  2.3015
   58GLOH    O2 8986   0.795   8.455   1.094 -0.2151  0.3941  0.8105
   58GLOH   H05 8987   0.759   8.544   1.110 -2.0658  0.4567 -3.1579
   58GLOH    C3 8988   0.991   8.333   1.017 -0.4123  0.2050  0.9044
   58GLOH   H06 8989   0.929   8.246   0.997  2.6454 -2.2477  1.8339
   58GLOH   H07 8990   1.022   8.312   1.119 -0.2013  1.0894  1.0297
   58GLOH    O3 8991   1.105   8.326   0.930  0.0961 -0.1806  0.5246
   58GLOH   H01 8992   1.174   8.385   0.966  1.8375 -0.2073 -2.6410
   59GLOH   H03 8993   5.798   1.815   6.492  1.0235 -0.1054 -0.1138
   59GLOH    O1 8994   5.789   1.731   6.540 -0.2324  0.1578  0.1182
   59GLOH    C1 8995   5.891   1.639   6.500 -0.0378  1.0279  0.1983
   59GLOH   H02 8996   5.913   1.578   6.587 -1.7321  1.4809  0.9798
   59GLOH   H08 8997   5.975   1.703   6.472  0.1879  0.8817  0.5525
   59GLOH    C2 8998   5.847   1.544   6.387  0.4901  0.0385 -0.1580
   59GLOH   H04 8999   5.840   1.599   6.292 -3.6330  1.1266  0.6951
   59GLOH    O2 9000   5.960   1.463   6.368 -0.3568  0.8853 -0.3342
   59GLOH   H05 9001   5.977   1.395   6.436  2.0745  0.7031 -1.0613
   59GLOH    C3 9002   5.718   1.461   6.403 -0.6154  0.1053  0.2993
   59GLOH   H06 9003   5.634   1.526   6.428 -1.2085 -0.2645 -0.7469
   59GLOH   H07 9004   5.736   1.397   6.489  0.0281 -1.0450 -0.6904
   59GLOH    O3 9005   5.679   1.387   6.288  0.0732  0.1597  0.2094
   59GLOH   H01 9006   5.746   1.318   6.273 -1.7224 -1.9582  1.6028
   60GLOH   H03 9007   1.046   1.066   3.808 -1.5503 -0.3216  3.5693
   60GLOH    O1 9008   1.056   0.969   3.804  0.3446 -0.0744  0.8361
   60GLOH    C1 9009   1.076   0.919   3.937  0.1162  0.3855  0.1671
   60GLOH   H02 9010   0.976   0.912   3.981  0.4066  0.8648  0.9099
   60GLOH   H08 9011   1.129   0.990   4.000 -0.8343  1.1131  0.1665
   60GLOH    C2 9012   1.139   0.776   3.943  0.4562  0.2172  0.0543
   60GLOH   H04 9013   1.234   0.786   3.889 -0.2801 -0.1090 -1.3173
   60GLOH    O2 9014   1.164   0.730   4.081  0.0818  0.4193  0.1371
   60GLOH   H05 9015   1.081   0.711   4.129  1.4950 -0.0025  2.5203
   60GLOH    C3 9016   1.053   0.681   3.856 -0.0019 -0.2039 -0.9316
   60GLOH   H06 9017   0.957   0.671   3.907  1.7787  0.9090  2.8571
   60GLOH   H07 9018   1.100   0.583   3.861  0.7369  0.1523 -0.7592
   60GLOH    O3 9019   1.042   0.732   3.719  0.3587 -0.7770  0.0144
   60GLOH   H01 9020   1.055   0.827   3.736  1.5788 -0.9413  0.0744
   61GLOH   H03 9021   3.278   9.953   3.048  1.1877  0.9790  0.8844
   61GLOH    O1 9022   3.229   9.972   3.130 -0.0765  0.2940  0.3025
   61GLOH    C1 9023   3.286  10.081   3.196 -0.4238  0.1164 -0.0129
   61GLOH   H02 9024   3.230  10.103   3.287 -1.7500 -0.9578 -0.5577
   61GLOH   H08 9025   3.287  10.174   3.138 -0.3398  1.3140  1.8682
   61GLOH    C2 9026   3.428  10.050   3.246  0.0688  0.4158  0.3924
   61GLOH   H04 9027   3.481  10.003   3.162  0.7695  1.1994  0.3860
   61GLOH    O2 9028   3.507  10.167   3.284  0.3920 -0.1394 -0.2372
   61GLOH   H05 9029   3.519  10.232   3.213 -0.9136  0.4684  0.0788
   61GLOH    C3 9030   3.437   9.934   3.348  0.6264 -0.5468  0.1191
   61GLOH   H06 9031   3.544   9.911   3.347  0.8122  0.2724  0.1898
   61GLOH   H07 9032   3.385   9.845   3.314  1.6443 -0.3094 -2.1285
   61GLOH    O3 9033   3.390   9.981   3.480 -0.0258  0.1059  0.2420
   61GLOH   H01 9034   3.342  10.065   3.467  1.7765  1.0365 -0.3966
   62GLOH   H03 9035   0.721   0.663   1.207 -2.2642  1.1040  0.6220
   62GLOH    O1 9036   0.781   0.716   1.263 -0.3304  0.0525 -0.3809
   62GLOH    C1 9037   0.798   0.665   1.399  0.1297  1.0840 -0.2532
   62GLOH   H02 9038   0.704   0.668   1.455  0.0713  1.3067 -0.3619
   62GLOH   H08 9039   0.872   0.718   1.459  2.5979 -1.8929 -0.5421
   62GLOH    C2 9040   0.843   0.514   1.391  0.3055 -0.2340  0.7179
   62GLOH   H04 9041   0.857   0.480   1.495  0.8995 -0.9481  0.4141
   62GLOH    O2 9042   0.751   0.423   1.329 -0.5499  0.2815  0.1565
   62GLOH   H05 9043   0.740   0.345   1.385 -1.2166 -0.5113 -1.0557
   62GLOH    C3 9044   0.983   0.515   1.324  0.3855  0.3145 -0.3804
   62GLOH   H06 9045   0.976   0.576   1.234 -3.6427  0.2348 -0.2305
   62GLOH   H07 9046   1.006   0.416   1.285 -1.0727 -0.9200  1.7078
   62GLOH    O3 9047   1.090   0.564   1.402 -0.0227 -0.0334 -0.5619
   62GLOH   H01 9048   1.095   0.660   1.419 -2.7403  0.4071 -2.0559
   63GLOH   H03 9049   4.545   8.044   2.137 -2.3806  2.5878  0.3037
   63GLOH    O1 9050   4.616   8.109   2.151  0.0249  0.0139  0.4651
   63GLOH    C1 9051   4.648   8.136   2.292 -0.0693  0.8208 -0.0781
   63GLOH   H02 9052   4.722   8.063   2.326 -0.1928  1.6680  2.1136
   63GLOH   H08 9053   4.563   8.137   2.361 -0.0791 -1.9523 -0.0045
   63GLOH    C2 9054   4.722   8.271   2.309  0.3502 -0.1849  0.7561
   63GLOH   H04 9055   4.651   8.352   2.287  0.5488 -0.3146 -0.4332
   63GLOH    O2 9056   4.766   8.293   2.444 -0.2682  0.3999 -0.2159
   63GLOH   H05 9057   4.781   8.387   2.464 -2.0875  0.0834  3.1470
   63GLOH    C3 9058   4.835   8.271   2.201 -0.6854 -0.9363 -0.9303
   63GLOH   H06 9059   4.904   8.351   2.226 -1.2791 -0.5350 -0.5430
   63GLOH   H07 9060   4.800   8.304   2.103 -1.0808  0.5096 -0.3249
   63GLOH    O3 9061   4.902   8.144   2.203  0.5772 -0.1177 -0.0289
   63GLOH   H01 9062   4.901   8.105   2.292 -0.8680  0.8464  0.4092
   64GLOH   H03 9063   6.092   8.788   6.966  1.6837  0.2952 -0.3038
   64GLOH    O1 9064   6.108   8.700   7.005 -0.2588 -0.2845 -0.7495
   64GLOH    C1 9065   6.250   8.680   7.031  0.1890 -0.2536  0.8528
   64GLOH   H02 9066   6.274   8.576   7.050  0.6647 -0.6880 -1.9878
   64GLOH   H08 9067   6.281   8.724   7.126 -2.7645 -1.7577  2.5872
   64GLOH    C2 9068   6.344   8.748   6.927  0.6392  0.1494  0.3327
   64GLOH   H04 9069   6.325   8.696   6.831  0.8416  1.8618 -0.6457
   64GLOH    O2 9070   6.320   8.887   6.919 -0.0128 -0.7574 -0.2149
   64GLOH   H05 9071   6.230   8.899   6.883 -0.3392  1.4785  1.2469
   64GLOH    C3 9072   6.490   8.725   6.970 -0.5057 -0.0170  0.2916
   64GLOH   H06 9073   6.500   8.771   7.068 -0.6890 -0.3724  0.4781
   64GLOH   H07 9074   6.556   8.776   6.900 -0.8420 -1.0541 -0.7958
   64GLOH    O3 9075   6.520   8.585   6.982  0.7796  0.1338 -0.6298
   64GLOH   H01 9076   6.508   8.538   6.898  0.8008 -0.5667 -0.2439
   65GLOH   H03 9077   5.415   2.975   0.693 -1.2549 -2.1989 -3.5181
   65GLOH    O1 9078   5.498   2.924   0.685  0.9145  0.5797 -0.0656
   65GLOH    C1 9079   5.540   2.874   0.820 -0.0026 -0.7017  0.3282
   65GLOH   H02 9080   5.461   2.819   0.871 -0.3688 -1.1901 -0.7367
   65GLOH   H08 9081   5.566   2.952   0.891  0.8948 -1.5984  1.0019
   65GLOH    C2 9082   5.646   2.763   0.798 -0.8687 -0.2482 -0.5932
   65GLOH   H04 9083   5.722   2.806   0.733 -0.5187  0.8875  0.5559
   65GLOH    O2 9084   5.699   2.730   0.936  0.2201 -0.5582  0.3831
   65GLOH   H05 9085   5.679   2.639   0.963 -1.6216  0.0785  1.2066
   65GLOH    C3 9086   5.592   2.634   0.732 -0.3104 -0.3388  0.3332
   65GLOH   H06 9087   5.682   2.578   0.707 -0.2265  0.2308 -0.6391
   65GLOH   H07 9088   5.532   2.658   0.645  0.3013 -1.4444 -0.4010
   65GLOH    O3 9089   5.511   2.545   0.817  0.4397  0.2897  0.4894
   65GLOH   H01 9090   5.434   2.507   0.773  1.6625 -0.2813 -1.2064
   66GLOH   H03 9091   4.453   1.512   5.352  2.2821 -0.2613 -0.7632
   66GLOH    O1 9092   4.466   1.421   5.386  0.2205 -0.1230  0.4485
   66GLOH    C1 9093   4.447   1.417   5.526 -1.0746 -1.0848 -0.0007
   66GLOH   H02 9094   4.397   1.508   5.558  1.6493  0.3364  0.3450
   66GLOH   H08 9095   4.542   1.413   5.579 -0.8791 -0.3310 -0.2764
   66GLOH    C2 9096   4.366   1.298   5.581  0.1407  0.3834 -0.2033
   66GLOH   H04 9097   4.418   1.205   5.556 -0.6148 -0.7058  2.1882
   66GLOH    O2 9098   4.353   1.321   5.725  0.1933 -0.4725 -0.1724
   66GLOH   H05 9099   4.442   1.324   5.765 -0.3842 -0.2791  1.1093
   66GLOH    C3 9100   4.226   1.304   5.520  0.1833  0.6588  0.5052
   66GLOH   H06 9101   4.234   1.295   5.411 -1.7721  2.6300  0.1566
   66GLOH   H07 9102   4.179   1.398   5.549 -3.5701 -1.3108  1.0301
   66GLOH    O3 9103   4.137   1.201   5.578 -0.5928 -0.0615  0.0898
   66GLOH   H01 9104   4.154   1.226   5.671  2.5079 -1.2000 -0.1122
   67GLOH   H03 9105   7.473   5.802   0.239 -0.7770 -1.8451 -0.3174
   67GLOH    O1 9106   7.502   5.786   0.147 -0.1632 -0.7389 -0.3248
   67GLOH    C1 9107   7.480   5.648   0.104 -0.2184 -0.2875 -0.4650
   67GLOH   H02 9108   7.541   5.581   0.166  0.0658 -0.4604 -0.9307
   67GLOH   H08 9109   7.526   5.638   0.006  0.7840  0.4085 -0.0776
   67GLOH    C2 9110   7.334   5.607   0.114  0.6814  0.2840 -0.0333
   67GLOH   H04 9111   7.304   5.609   0.219 -0.0974  0.1756 -0.2480
   67GLOH    O2 9112   7.240   5.695   0.046  0.3629  0.1441  0.4292
   67GLOH   H05 9113   7.153   5.694   0.090  0.3906  1.4164  0.5308
   67GLOH    C3 9114   7.322   5.461   0.059  0.6859 -0.5335 -0.1819
   67GLOH   H06 9115   7.401   5.395   0.095  1.5830 -0.3996 -1.8480
   67GLOH   H07 9116   7.326   5.445  -0.049  2.6414 -3.0033  0.1893
   67GLOH    O3 9117   7.207   5.391   0.113  0.4891  0.0150  0.1816
   67GLOH   H01 9118   7.137   5.386   0.046  2.2265  0.4347 -1.7064
   68GLOH   H03 9119   9.399   4.655   3.707 -1.1191  0.7802  1.0307
   68GLOH    O1 9120   9.462   4.678   3.778 -0.0208 -0.1059  0.3588
   68GLOH    C1 9121   9.521   4.555   3.838  0.1653 -0.0401  0.1013
   68GLOH   H02 9122   9.451   4.472   3.838 -0.2632  0.3246 -0.9658
   68GLOH   H08 9123   9.551   4.575   3.942  0.3158  0.1138  0.0300
   68GLOH    C2 9124   9.649   4.513   3.764  0.5886 -0.0555  0.5661
   68GLOH   H04 9125   9.671   4.416   3.810  0.9584 -0.6721 -0.8927
   68GLOH    O2 9126   9.622   4.488   3.622 -0.2382 -0.1796  0.2557
   68GLOH   H05 9127   9.609   4.394   3.602 -2.3795 -0.5576  3.0788
   68GLOH    C3 9128   9.763   4.614   3.790  0.0131  0.1593  0.6177
   68GLOH   H06 9129   9.736   4.712   3.753 -0.0886 -0.2302 -0.3570
   68GLOH   H07 9130   9.840   4.581   3.720 -0.2609 -1.8691  1.2300
   68GLOH    O3 9131   9.804   4.617   3.932  0.2697 -0.4343  0.1706
   68GLOH   H01 9132   9.771   4.697   3.978  0.9588 -0.1920  0.2399
   69GLOH   H03 9133   1.704   4.596   0.434 -0.2744 -1.4229 -2.3413
   69GLOH    O1 9134   1.627   4.647   0.404  0.0156  0.0399 -0.7026
   69GLOH    C1 9135   1.521   4.566   0.352  0.0028  0.5654 -0.3476
   69GLOH   H02 9136   1.427   4.620   0.341  0.1912  0.9812  0.0211
   69GLOH   H08 9137   1.489   4.490   0.423 -2.1556 -0.3296 -2.2344
   69GLOH    C2 9138   1.570   4.510   0.220 -0.7103 -0.4289 -0.4714
   69GLOH   H04 9139   1.674   4.474   0.229 -0.4915 -0.2181 -1.9391
   69GLOH    O2 9140   1.484   4.400   0.166 -0.2262 -0.4832  0.1201
   69GLOH   H05 9141   1.395   4.438   0.161  0.3499  0.8365 -0.5123
   69GLOH    C3 9142   1.558   4.626   0.119 -0.1378  0.3545 -0.6218
   69GLOH   H06 9143   1.452   4.643   0.104 -0.6433 -2.4009 -0.4298
   69GLOH   H07 9144   1.598   4.597   0.022  2.0807  0.0295  0.3490
   69GLOH    O3 9145   1.621   4.742   0.170  0.2279 -0.2048  0.3768
   69GLOH   H01 9146   1.613   4.730   0.267 -0.5922 -1.4891  0.1595
   70GLOH   H03 9147   7.058   5.870   1.429  0.9660 -1.3613 -0.5150
   70GLOH    O1 9148   6.986   5.804   1.423 -0.2673 -0.0819 -0.2103
   70GLOH    C1 9149   7.022   5.698   1.341 -0.0579  0.1969 -0.1820
   70GLOH   H02 9150   7.115   5.665   1.387 -0.6593 -1.1823  0.0454
   70GLOH   H08 9151   7.060   5.732   1.244 -1.5555  1.2614 -0.4148
   70GLOH    C2 9152   6.914   5.585   1.322 -0.1002  0.2889  0.7806
   70GLOH   H04 9153   6.828   5.632   1.271  1.3330  1.2611 -0.7851
   70GLOH    O2 9154   6.964   5.479   1.239 -0.4970  0.4292 -0.2484
   70GLOH   H05 9155   6.953   5.500   1.145 -1.2565 -0.6031 -0.4003
   70GLOH    C3 9156   6.865   5.531   1.461 -0.2558  0.1008 -0.3400
   70GLOH   H06 9157   6.950   5.484   1.510 -2.1694 -0.9692  2.0282
   70GLOH   H07 9158   6.787   5.454   1.459  0.2538 -0.4493  0.8867
   70GLOH    O3 9159   6.829   5.639   1.551 -0.6181  0.5231  0.0230
   70GLOH   H01 9160   6.890   5.713   1.532  0.8830 -0.1134  2.2053
   71GLOH   H03 9161   3.852   9.080   5.755  0.9248 -0.9506  2.8848
   71GLOH    O1 9162   3.894   8.996   5.729  0.2590 -0.4456  0.0229
   71GLOH    C1 9163   3.926   8.936   5.852  0.0515 -0.1583  0.5065
   71GLOH   H02 9164   3.960   9.000   5.934 -0.9089 -0.6987  1.3309
   71GLOH   H08 9165   4.000   8.859   5.833  0.7330  1.2761 -2.9452
   71GLOH    C2 9166   3.809   8.850   5.905  0.0106  0.0811 -0.0119
   71GLOH   H04 9167   3.841   8.814   6.004  1.9543 -0.9614 -1.0001
   71GLOH    O2 9168   3.686   8.917   5.922 -0.7165 -0.0349  0.1708
   71GLOH   H05 9169   3.657   8.894   6.012  0.0441 -0.5387  0.2923
   71GLOH    C3 9170   3.789   8.710   5.839  0.2459 -0.6086  0.5297
   71GLOH   H06 9171   3.888   8.672   5.817 -0.5422 -1.7301 -1.1882
   71GLOH   H07 9172   3.747   8.732   5.741 -2.2842  1.6771  2.0408
   71GLOH    O3 9173   3.711   8.609   5.895 -0.6022  0.3791  0.1384
   71GLOH   H01 9174   3.730   8.583   5.987  1.7359 -1.7105 -0.8512
   72GLOH   H03 9175   3.265   8.976   1.843  1.6271  0.1196  1.5955
   72GLOH    O1 9176   3.296   8.887   1.816  0.5156  0.2624 -0.2333
   72GLOH    C1 9177   3.313   8.816   1.935  0.1981  0.3606 -0.2670
   72GLOH   H02 9178   3.340   8.879   2.019 -1.5286 -1.4030  1.7041
   72GLOH   H08 9179   3.403   8.757   1.922 -0.5944 -1.1268  0.7656
   72GLOH    C2 9180   3.199   8.717   1.970 -0.3736  0.2112  0.4217
   72GLOH   H04 9181   3.195   8.641   1.891 -0.5870 -2.9645  3.3631
   72GLOH    O2 9182   3.226   8.657   2.100 -0.1150  0.1530  0.7728
   72GLOH   H05 9183   3.194   8.565   2.100 -1.7265  0.6362 -2.4031
   72GLOH    C3 9184   3.070   8.799   1.963  0.1858 -0.4424  0.5784
   72GLOH   H06 9185   3.081   8.902   1.997  0.2459  0.2137 -1.3642
   72GLOH   H07 9186   2.991   8.758   2.026  0.8149 -1.0260  1.0019
   72GLOH    O3 9187   3.025   8.822   1.826 -0.4122  0.0777 -0.9530
   72GLOH   H01 9188   3.085   8.892   1.794  1.2658 -2.1590 -2.8103
   73GLOH   H03 9189   5.481   1.347   4.549 -0.8221 -0.3384  0.2744
   73GLOH    O1 9190   5.495   1.263   4.502 -0.1076  0.1541 -0.3870
   73GLOH    C1 9191   5.504   1.297   4.363  0.4707  0.1140  0.0787
   73GLOH   H02 9192   5.588   1.366   4.351  1.1845 -0.5947  0.8131
   73GLOH   H08 9193   5.408   1.334   4.329  0.5623 -0.5450 -0.9084
   73GLOH    C2 9194   5.529   1.171   4.279 -0.0507 -0.0352 -0.1812
   73GLOH   H04 9195   5.455   1.103   4.325  1.0744  0.2850  2.1831
   73GLOH    O2 9196   5.493   1.190   4.141 -0.1979  0.3745 -0.1928
   73GLOH   H05 9197   5.523   1.110   4.094  1.0318  1.1021 -0.6780
   73GLOH    C3 9198   5.671   1.108   4.296 -0.4207  0.7197  0.0596
   73GLOH   H06 9199   5.740   1.191   4.300 -0.7518  1.0827 -1.7476
   73GLOH   H07 9200   5.697   1.048   4.209 -1.5863 -0.7667  0.6962
   73GLOH    O3 9201   5.679   1.031   4.420  0.0017 -0.2013  0.2989
   73GLOH   H01 9202   5.726   1.089   4.482  1.1733 -1.9949  1.1118
   74GLOH   H03 9203   7.396   5.488   7.805 -0.1388 -0.7241 -2.9816
   74GLOH    O1 9204   7.398   5.391   7.816  0.1308 -0.4363 -0.1161
   74GLOH    C1 9205   7.312   5.347   7.703  0.3853  0.2227 -0.2939
   74GLOH   H02 9206   7.335   5.242   7.682  0.6642  0.1849  0.1720
   74GLOH   H08 9207   7.337   5.405   7.614 -0.8042  0.8387 -0.2329
   74GLOH    C2 9208   7.164   5.364   7.731 -0.0304 -0.1017 -0.1679
   74GLOH   H04 9209   7.142   5.470   7.751  0.0348  0.0130 -0.7041
   74GLOH    O2 9210   7.088   5.312   7.621 -0.0891  0.0655  0.3492
   74GLOH   H05 9211   7.062   5.389   7.568 -0.4685  0.1410  0.6389
   74GLOH    C3 9212   7.132   5.276   7.859 -0.3564 -0.0581 -0.4049
   74GLOH   H06 9213   7.183   5.330   7.938  0.6600 -0.5888 -0.6943
   74GLOH   H07 9214   7.186   5.183   7.847 -0.6854  0.0729 -3.3411
   74GLOH    O3 9215   6.994   5.261   7.898  0.2415 -0.0699  0.0302
   74GLOH   H01 9216   6.947   5.206   7.833  0.4933 -0.0641 -0.1527
   75GLOH   H03 9217   0.418   1.328   6.051  1.1675 -0.0607  0.5719
   75GLOH    O1 9218   0.461   1.323   5.963 -0.1753 -0.4152 -0.0859
   75GLOH    C1 9219   0.591   1.386   5.972  0.3243 -0.7177  0.2269
   75GLOH   H02 9220   0.607   1.433   6.069  0.4477 -0.5669  0.1336
   75GLOH   H08 9221   0.589   1.469   5.902 -0.5411  1.2962  2.5554
   75GLOH    C2 9222   0.712   1.294   5.940  0.2321  0.3387  0.1926
   75GLOH   H04 9223   0.705   1.250   5.839 -1.5949  1.6051 -0.2597
   75GLOH    O2 9224   0.833   1.377   5.946  0.0011  0.6411 -0.1417
   75GLOH   H05 9225   0.905   1.324   5.910 -0.2225 -0.1721  0.6064
   75GLOH    C3 9226   0.714   1.176   6.038  0.0390 -0.4610 -0.4694
   75GLOH   H06 9227   0.615   1.154   6.077  0.5498  0.6020  1.4951
   75GLOH   H07 9228   0.774   1.202   6.125  0.3425  0.2513 -0.8886
   75GLOH    O3 9229   0.771   1.050   5.980 -0.6817 -0.6076  0.1244
   75GLOH   H01 9230   0.850   1.070   5.927  0.1325 -1.0642  1.1550
   76GLOH   H03 9231   6.625   6.937   5.201 -0.5570 -0.5246 -0.7948
   76GLOH    O1 9232   6.547   6.995   5.191  0.0926  0.4212 -0.4159
   76GLOH    C1 9233   6.569   7.054   5.067  0.4805  0.3298  0.0738
   76GLOH   H02 9234   6.515   6.993   4.994  0.4369  2.1892 -1.5078
   76GLOH   H08 9235   6.675   7.057   5.040  0.5388 -1.6579 -0.0047
   76GLOH    C2 9236   6.519   7.200   5.051 -0.8646 -0.1189  0.2164
   76GLOH   H04 9237   6.578   7.263   5.120 -2.1078  0.1067  1.0705
   76GLOH    O2 9238   6.547   7.239   4.918 -0.1187 -0.0475 -0.4685
   76GLOH   H05 9239   6.642   7.258   4.909  0.4576 -0.7511  3.3420
   76GLOH    C3 9240   6.369   7.201   5.086 -0.9624  1.4651 -0.3992
   76GLOH   H06 9241   6.309   7.185   4.997 -2.4626  0.3694  0.8045
   76GLOH   H07 9242   6.338   7.301   5.117 -2.2537  0.8377  0.3577
   76GLOH    O3 9243   6.331   7.106   5.189  0.0001  0.0255 -0.1232
   76GLOH   H01 9244   6.416   7.059   5.197 -1.1994 -2.3762 -1.1180
   77GLOH   H03 9245   4.631   0.593   0.312  0.0415 -1.5927 -1.0373
   77GLOH    O1 9246   4.715   0.571   0.356 -0.0259  0.1756  0.0408
   77GLOH    C1 9247   4.714   0.626   0.490  0.0100 -0.3166 -0.8110
   77GLOH   H02 9248   4.771   0.566   0.561  1.9218  1.7216 -0.5511
   77GLOH   H08 9249   4.614   0.626   0.532  0.6210  1.6059  0.7562
   77GLOH    C2 9250   4.763   0.772   0.504  0.3647 -0.2607 -1.0728
   77GLOH   H04 9251   4.707   0.845   0.444  1.7838  1.7953  0.0502
   77GLOH    O2 9252   4.773   0.812   0.644 -0.1175 -0.2244  0.8000
   77GLOH   H05 9253   4.702   0.875   0.661 -2.1898 -2.2231 -0.2351
   77GLOH    C3 9254   4.908   0.777   0.450  0.4209  0.2805  0.1561
   77GLOH   H06 9255   4.948   0.698   0.513 -0.1555  0.6182  0.9571
   77GLOH   H07 9256   4.962   0.872   0.460 -0.2291  0.5878  0.7298
   77GLOH    O3 9257   4.923   0.731   0.312  0.3503 -0.3196 -0.3086
   77GLOH   H01 9258   4.875   0.646   0.310 -0.7341  0.2670  0.4169
   78GLOH   H03 9259   0.025   7.446   2.906 -0.7349  0.6979  0.5924
   78GLOH    O1 9260   0.110   7.494   2.897 -0.3045 -0.2420 -0.4742
   78GLOH    C1 9261   0.124   7.595   2.988 -0.3887 -0.7929 -0.1327
   78GLOH   H02 9262   0.132   7.547   3.086 -3.1240 -1.8101 -0.3666
   78GLOH   H08 9263   0.031   7.651   2.986  0.7380  1.0766 -0.6711
   78GLOH    C2 9264   0.249   7.683   2.955 -0.2116 -0.3588  0.9659
   78GLOH   H04 9265   0.226   7.730   2.858 -0.3578  0.9833  1.6335
   78GLOH    O2 9266   0.258   7.792   3.044  0.9389  0.3090  0.2695
   78GLOH   H05 9267   0.294   7.866   2.993  2.3582 -0.2426  0.4291
   78GLOH    C3 9268   0.386   7.604   2.958 -0.2331 -0.3565 -0.2363
   78GLOH   H06 9269   0.405   7.575   3.061 -0.2633 -0.4851 -0.2670
   78GLOH   H07 9270   0.464   7.673   2.927 -0.4230  0.5331  1.2209
   78GLOH    O3 9271   0.369   7.487   2.874 -0.2873 -0.4976 -0.3817
   78GLOH   H01 9272   0.274   7.464   2.875  0.1288 -2.2359  0.8108
   79GLOH   H03 9273   3.884   5.243   2.422 -0.2549 -1.3790  0.2826
   79GLOH    O1 9274   3.798   5.285   2.406  0.1085 -0.5292  0.4850
   79GLOH    C1 9275   3.771   5.254   2.266 -0.2521  0.2696 -0.3551
   79GLOH   H02 9276   3.864   5.254   2.209  0.2518  0.4394  0.4601
   79GLOH   H08 9277   3.712   5.335   2.223  0.0898  1.0968  0.6907
   79GLOH    C2 9278   3.694   5.126   2.239 -0.0811  0.4029  0.1976
   79GLOH   H04 9279   3.674   5.109   2.132  1.0809 -2.3032  0.3592
   79GLOH    O2 9280   3.756   5.005   2.288 -0.0425  0.0632  0.0001
   79GLOH   H05 9281   3.726   4.993   2.380  1.3402  1.4573  0.6480
   79GLOH    C3 9282   3.561   5.152   2.305 -0.5887  0.7486  0.1647
   79GLOH   H06 9283   3.571   5.171   2.412  2.3640 -0.2871  0.1207
   79GLOH   H07 9284   3.503   5.060   2.293 -1.4650  1.2161  0.7161
   79GLOH    O3 9285   3.491   5.261   2.254  0.3239  0.1154 -0.2926
   79GLOH   H01 9286   3.396   5.242   2.242  0.6639 -0.7533 -1.8238
   80GLOH   H03 9287   6.385   0.899   5.116 -0.8345 -1.9526  0.2052
   80GLOH    O1 9288   6.382   0.917   5.020 -0.2356  0.0895  0.5618
   80GLOH    C1 9289   6.517   0.905   4.963  0.3804  0.0290  0.1984
   80GLOH   H02 9290   6.518   0.888   4.855 -1.0002  0.1552  0.1609
   80GLOH   H08 9291   6.578   0.832   5.016  0.8413 -0.0067 -0.3827
   80GLOH    C2 9292   6.585   1.039   4.984  0.5373  0.2271 -0.4567
   80GLOH   H04 9293   6.620   1.056   5.087  1.0727  1.3782 -0.8170
   80GLOH    O2 9294   6.714   1.042   4.915  0.0484 -0.3906  0.1871
   80GLOH   H05 9295   6.704   1.020   4.821  0.9907 -0.6092  0.1308
   80GLOH    C3 9296   6.500   1.158   4.941  0.4577 -0.7773 -1.0646
   80GLOH   H06 9297   6.569   1.242   4.938  0.5334 -0.7938  0.0326
   80GLOH   H07 9298   6.418   1.184   5.008  2.7645  1.4362  0.9665
   80GLOH    O3 9299   6.441   1.147   4.809  1.0292  0.2563  0.4759
   80GLOH   H01 9300   6.503   1.092   4.758 -0.1994  1.2844 -2.2066
   81GLOH   H03 9301   1.148   3.100   5.221 -0.0752  0.4508 -0.0450
   81GLOH    O1 9302   1.098   3.141   5.148  0.3142  0.6928 -0.1783
   81GLOH    C1 9303   1.182   3.116   5.037  0.0002  0.6573  0.3593
   81GLOH   H02 9304   1.129   3.119   4.941 -1.0180  1.6950  0.9389
   81GLOH   H08 9305   1.221   3.015   5.034 -1.3222  0.0818  1.7993
   81GLOH    C2 9306   1.304   3.203   5.035  0.4389 -0.1967  0.0518
   81GLOH   H04 9307   1.357   3.170   5.126  1.4677  0.1545 -0.4186
   81GLOH    O2 9308   1.387   3.175   4.918 -0.2058 -0.2760 -0.0788
   81GLOH   H05 9309   1.476   3.210   4.937 -0.4533 -0.0289  0.6475
   81GLOH    C3 9310   1.271   3.356   5.032 -0.2129  0.0942 -0.2985
   81GLOH   H06 9311   1.185   3.373   4.969 -0.9139  0.3273  0.7047
   81GLOH   H07 9312   1.361   3.408   5.000 -1.4334  0.6954 -2.8458
   81GLOH    O3 9313   1.241   3.408   5.159  0.4807 -0.5210 -0.3652
   81GLOH   H01 9314   1.213   3.500   5.141 -2.2740 -1.2198  0.1411
   82GLOH   H03 9315   4.330   7.073   2.528 -0.5527 -1.3458 -0.6764
   82GLOH    O1 9316   4.376   7.033   2.603 -0.2917  0.5209  0.1790
   82GLOH    C1 9317   4.512   7.061   2.578  0.2655 -0.1269  0.2694
   82GLOH   H02 9318   4.565   7.028   2.667  0.6047 -1.2094 -0.3254
   82GLOH   H08 9319   4.539   7.166   2.583 -0.1827 -0.0759  1.5803
   82GLOH    C2 9320   4.578   7.006   2.449 -0.4090  0.5805  0.7526
   82GLOH   H04 9321   4.523   7.044   2.362 -1.8692  2.0647  2.2866
   82GLOH    O2 9322   4.722   7.046   2.437 -0.4414  0.2813  0.0756
   82GLOH   H05 9323   4.758   7.042   2.346 -0.1895  0.1046  0.1827
   82GLOH    C3 9324   4.580   6.853   2.451 -0.1706  0.3294 -0.1749
   82GLOH   H06 9325   4.604   6.813   2.550  2.3332 -0.1322 -0.9299
   82GLOH   H07 9326   4.661   6.817   2.388  0.6174  0.5916  0.6830
   82GLOH    O3 9327   4.454   6.798   2.407 -0.2037 -0.2455  0.2393
   82GLOH   H01 9328   4.446   6.812   2.311  1.3915  0.3062  0.1728
   83GLOH   H03 9329   8.782   6.522   1.023  0.6268 -0.9579 -1.2721
   83GLOH    O1 9330   8.874   6.502   1.047  0.2154 -0.7442  0.5712
   83GLOH    C1 9331   8.926   6.441   0.927 -0.1559 -0.0856  0.0782
   83GLOH   H02 9332   9.035   6.443   0.931 -0.0920 -3.5995  1.9419
   83GLOH   H08 9333   8.898   6.495   0.837 -1.6958 -0.1469  0.5138
   83GLOH    C2 9334   8.901   6.292   0.910  0.4649 -0.5779  0.2497
   83GLOH   H04 9335   8.796   6.285   0.879 -0.3126 -1.3561  2.9140
   83GLOH    O2 9336   8.991   6.235   0.818  0.0416  0.0912 -0.7874
   83GLOH   H05 9337   8.994   6.283   0.734 -1.4620  0.3665 -0.6905
   83GLOH    C3 9338   8.914   6.222   1.046 -0.2782  0.5761 -0.3791
   83GLOH   H06 9339   9.010   6.239   1.095  0.7149 -1.6637 -1.4519
   83GLOH   H07 9340   8.917   6.115   1.023  1.2616  0.0566  1.9902
   83GLOH    O3 9341   8.809   6.249   1.140  0.0753  0.1332  0.0861
   83GLOH   H01 9342   8.723   6.204   1.129  0.0549 -0.0951  1.1071
   84GLOH   H03 9343   9.985   3.612   3.995 -1.2286  0.6405 -0.1874
   84GLOH    O1 9344  10.015   3.680   3.932  0.2241 -0.0682 -0.2838
   84GLOH    C1 9345   9.968   3.808   3.973 -0.4131 -0.1363 -0.0670
   84GLOH   H02 9346   9.972   3.809   4.082  0.5344 -0.5255 -0.0949
   84GLOH   H08 9347   9.863   3.821   3.947 -0.2783 -0.8181 -0.9873
   84GLOH    C2 9348  10.049   3.920   3.909  0.4566 -0.1108  0.1066
   84GLOH   H04 9349  10.032   3.925   3.800  0.4130 -1.7223  0.0360
   84GLOH    O2 9350  10.021   4.043   3.977 -0.1848  0.0065 -0.2357
   84GLOH   H05 9351  10.069   4.040   4.062  1.2402  4.4120 -0.7255
   84GLOH    C3 9352  10.199   3.886   3.919  0.3833 -0.0828 -0.1167
   84GLOH   H06 9353  10.237   3.892   4.021  2.0054 -1.7075 -0.6002
   84GLOH   H07 9354  10.238   3.962   3.851  0.1848  0.2678  0.1622
   84GLOH    O3 9355  10.231   3.760   3.859 -0.7810  0.4819  0.2259
   84GLOH   H01 9356  10.159   3.698   3.882 -0.4870  0.4811  1.1411
   85GLOH   H03 9357   9.047   7.743   1.885 -0.3469 -0.6911  0.2458
   85GLOH    O1 9358   9.112   7.728   1.956  0.0812 -0.0996 -0.0130
   85GLOH    C1 9359   9.105   7.589   1.999 -0.8134 -0.5947 -0.0267
   85GLOH   H02 9360   9.202   7.565   2.042 -1.1869  0.0360  1.1925
   85GLOH   H08 9361   9.091   7.518   1.918 -0.5572 -0.7477  0.0636
   85GLOH    C2 9362   9.014   7.561   2.119 -0.1522  0.2665  0.1183
   85GLOH   H04 9363   8.911   7.588   2.090 -0.4897 -2.3724 -1.3468
   85GLOH    O2 9364   9.016   7.423   2.156  0.0818 -0.2574 -0.3331
   85GLOH   H05 9365   8.949   7.375   2.106 -0.0719 -0.6111  0.2116
   85GLOH    C3 9366   9.051   7.642   2.242  0.2057 -0.2088 -0.5459
   85GLOH   H06 9367   8.991   7.621   2.331 -0.3287  0.8799 -0.6455
   85GLOH   H07 9368   9.034   7.748   2.226 -1.3467 -0.3344  0.2245
   85GLOH    O3 9369   9.194   7.619   2.265 -0.8986  0.0006 -0.0102
   85GLOH   H01 9370   9.232   7.705   2.291  0.4366 -1.4334  3.0675
   86GLOH   H03 9371   4.180   2.897   5.841 -0.8354 -1.1004  0.5131
   86GLOH    O1 9372   4.244   2.865   5.775 -0.5166  0.8126 -0.1398
   86GLOH    C1 9373   4.382   2.890   5.821 -0.3342  0.3749 -0.6667
   86GLOH   H02 9374   4.457   2.816   5.793  1.3130  1.4058  0.9875
   86GLOH   H08 9375   4.384   2.912   5.927  2.7946  0.0055 -0.6026
   86GLOH    C2 9376   4.422   3.027   5.758  0.3735 -0.6527 -0.2797
   86GLOH   H04 9377   4.345   3.096   5.794  2.5246  0.6517  1.9965
   86GLOH    O2 9378   4.556   3.071   5.799  0.9006 -0.3809 -0.2629
   86GLOH   H05 9379   4.562   3.162   5.766  0.9517 -0.4802 -0.5356
   86GLOH    C3 9380   4.407   3.042   5.609  0.2801  0.3182  0.4076
   86GLOH   H06 9381   4.478   2.970   5.569 -0.4070 -0.4799  0.6060
   86GLOH   H07 9382   4.427   3.138   5.562 -0.4037  1.4305  2.3133
   86GLOH    O3 9383   4.276   3.006   5.568  0.2740  0.3275  0.5894
   86GLOH   H01 9384   4.242   2.945   5.636 -0.3824 -0.8348 -0.7426
   87GLOH   H03 9385   0.510   0.632   1.791  1.1863 -0.7913  3.9602
   87GLOH    O1 9386   0.444   0.699   1.819 -0.2450 -0.3871 -0.0599
   87GLOH    C1 9387   0.434   0.812   1.727 -0.2249  0.2267  0.6336
   87GLOH   H02 9388   0.344   0.871   1.741 -0.7169 -0.4234  0.2661
   87GLOH   H08 9389   0.429   0.787   1.621  2.2564  1.3013  0.2220
   87GLOH    C2 9390   0.556   0.907   1.728 -0.3274 -0.7153 -0.2591
   87GLOH   H04 9391   0.657   0.864   1.718 -1.0858 -2.6042  0.0936
   87GLOH    O2 9392   0.544   0.998   1.619 -0.9538  0.0280  0.7408
   87GLOH   H05 9393   0.482   0.969   1.550 -0.4181 -0.6320  0.5386
   87GLOH    C3 9394   0.547   0.982   1.862  0.1483 -0.2436  0.3993
   87GLOH   H06 9395   0.630   1.052   1.866 -0.4640  0.5266 -0.3485
   87GLOH   H07 9396   0.562   0.911   1.943  0.8437  0.2012  0.6675
   87GLOH    O3 9397   0.423   1.055   1.879 -0.3125  0.1917  0.0751
   87GLOH   H01 9398   0.374   1.026   1.958 -0.0054 -0.5028  0.0177
   88GLOH   H03 9399   9.285   5.750   1.953 -0.1595 -0.9283 -2.3441
   88GLOH    O1 9400   9.215   5.817   1.944  0.6800  0.2623 -0.3422
   88GLOH    C1 9401   9.279   5.944   1.978  0.3708 -0.1870 -0.1482
   88GLOH   H02 9402   9.199   6.018   1.985  0.1369 -0.3141 -1.3493
   88GLOH   H08 9403   9.342   5.978   1.897 -0.0593 -0.1429 -0.4682
   88GLOH    C2 9404   9.362   5.935   2.103 -0.4321  1.0094 -0.5317
   88GLOH   H04 9405   9.443   5.861   2.093 -0.0593  1.5527 -1.5432
   88GLOH    O2 9406   9.417   6.068   2.114 -0.1828  0.4107  0.5534
   88GLOH   H05 9407   9.346   6.130   2.088 -0.3879  0.1960  0.6022
   88GLOH    C3 9408   9.263   5.908   2.217 -0.3337 -0.2607 -0.2709
   88GLOH   H06 9409   9.322   5.875   2.302  1.9155 -1.2441 -2.1724
   88GLOH   H07 9410   9.207   5.817   2.194  1.9199 -1.4163 -1.3384
   88GLOH    O3 9411   9.184   6.022   2.256 -0.4208  0.1050  0.0131
   88GLOH   H01 9412   9.092   6.035   2.224  0.3400  1.6875 -1.6315
   89GLOH   H03 9413   7.909   0.039   1.177  2.2541  0.7815 -2.2361
   89GLOH    O1 9414   7.902   0.134   1.197 -0.1232  0.2548 -0.2840
   89GLOH    C1 9415   7.825   0.160   1.311  0.0228  0.6602  0.1224
   89GLOH   H02 9416   7.856   0.253   1.358 -0.6745 -0.1110  2.1616
   89GLOH   H08 9417   7.846   0.076   1.377 -0.0072 -0.3244 -1.1177
   89GLOH    C2 9418   7.668   0.162   1.285  0.3254  0.5071  0.6450
   89GLOH   H04 9419   7.643   0.229   1.201 -2.5039 -1.5973 -0.2847
   89GLOH    O2 9420   7.617   0.035   1.243 -0.0257 -0.0124 -1.0153
   89GLOH   H05 9421   7.642  -0.032   1.309  0.9302  2.8310  1.6659
   89GLOH    C3 9422   7.596   0.235   1.400  0.2042  0.0785 -0.2959
   89GLOH   H06 9423   7.632   0.187   1.491  0.6014 -0.1932 -0.5915
   89GLOH   H07 9424   7.488   0.224   1.401  0.1706  0.3563 -0.8181
   89GLOH    O3 9425   7.631   0.377   1.405  0.3072  0.0525  0.0433
   89GLOH   H01 9426   7.664   0.412   1.320  0.2072  3.9905  1.5081
   90GLOH   H03 9427   1.827   1.045   5.124  1.4787 -1.1059  0.4236
   90GLOH    O1 9428   1.784   0.965   5.091 -0.7508 -0.0273  0.6208
   90GLOH    C1 9429   1.686   0.922   5.183  0.8485  0.1974  0.6578
   90GLOH   H02 9430   1.706   0.966   5.280  0.3253  1.6825  0.1007
   90GLOH   H08 9431   1.687   0.814   5.196 -0.2268 -0.0022 -0.7780
   90GLOH    C2 9432   1.550   0.969   5.126 -0.3605 -0.6291 -0.0205
   90GLOH   H04 9433   1.472   0.933   5.195  1.9140 -0.6634  2.6066
   90GLOH    O2 9434   1.530   1.114   5.113  0.3976 -0.4943 -0.5138
   90GLOH   H05 9435   1.446   1.128   5.067  0.5131 -0.7247 -0.7934
   90GLOH    C3 9436   1.529   0.908   4.982 -0.5596 -0.1178 -0.0216
   90GLOH   H06 9437   1.585   0.815   4.973  0.9558  0.7626  0.0667
   90GLOH   H07 9438   1.568   0.981   4.911 -0.1374  0.5120  0.8426
   90GLOH    O3 9439   1.390   0.887   4.963  0.5275 -0.0447 -0.4798
   90GLOH   H01 9440   1.343   0.971   4.948  0.9777  0.8819  2.8688
   91GLOH   H03 9441   5.310   2.160   2.260 -0.1743 -0.8589  0.2355
   91GLOH    O1 9442   5.400   2.196   2.248 -0.4274 -0.4349 -0.3876
   91GLOH    C1 9443   5.453   2.218   2.382  0.6760  0.4554 -0.3585
   91GLOH   H02 9444   5.397   2.290   2.441 -1.2143  0.5496 -2.2100
   91GLOH   H08 9445   5.554   2.259   2.372  1.2524 -1.1638 -1.4428
   91GLOH    C2 9446   5.472   2.081   2.455 -0.4772  0.7628  0.1992
   91GLOH   H04 9447   5.376   2.029   2.442 -1.5802  2.5461  1.0962
   91GLOH    O2 9448   5.573   1.992   2.399  0.1901  0.1283  0.0459
   91GLOH   H05 9449   5.557   1.978   2.304 -0.4843  2.3288 -0.1744
   91GLOH    C3 9450   5.500   2.095   2.610  0.2572 -0.3516 -0.1333
   91GLOH   H06 9451   5.589   2.154   2.626 -1.3466  1.8092  1.1384
   91GLOH   H07 9452   5.520   1.997   2.654  4.0839  1.3688  2.1817
   91GLOH    O3 9453   5.394   2.166   2.677  0.4835  0.1894  0.3127
   91GLOH   H01 9454   5.381   2.260   2.655 -1.1332  0.1233  0.8759
   92GLOH   H03 9455   2.779   4.352   0.778  0.4180  1.3578  0.9862
   92GLOH    O1 9456   2.860   4.311   0.812  0.0841  0.3046  0.5296
   92GLOH    C1 9457   2.809   4.188   0.866  0.3406  0.1622  0.7443
   92GLOH   H02 9458   2.757   4.195   0.961  0.7667  0.7229  0.9418
   92GLOH   H08 9459   2.891   4.119   0.882  0.4078 -0.0229 -0.3239
   92GLOH    C2 9460   2.713   4.112   0.780 -0.3991  0.6235  1.0687
   92GLOH   H04 9461   2.665   4.037   0.844  0.5288  1.5625  2.9018
   92GLOH    O2 9462   2.595   4.190   0.738 -0.2113  0.4742 -0.0406
   92GLOH   H05 9463   2.515   4.135   0.734 -0.9986  1.6848 -1.3651
   92GLOH    C3 9464   2.784   4.039   0.661 -0.1085  0.3901  0.0625
   92GLOH   H06 9465   2.828   4.120   0.603 -0.3469  0.1709 -0.4344
   92GLOH   H07 9466   2.705   4.005   0.593  1.4527  1.3086 -2.2952
   92GLOH    O3 9467   2.891   3.943   0.697  0.0928 -0.1712 -0.0825
   92GLOH   H01 9468   2.860   3.857   0.661  0.4498  0.0212 -0.8571
   93GLOH   H03 9469   2.883   2.708   4.438 -0.1892  1.8135 -1.5827
   93GLOH    O1 9470   2.861   2.755   4.521 -0.2546 -0.1492 -0.4685
   93GLOH    C1 9471   2.968   2.837   4.581  0.2216 -0.7030  0.0899
   93GLOH   H02 9472   3.040   2.870   4.506 -0.2181  0.6686  0.2472
   93GLOH   H08 9473   3.026   2.773   4.647  0.6875 -2.6994 -2.1741
   93GLOH    C2 9474   2.917   2.961   4.664 -0.1967 -0.3904  0.3229
   93GLOH   H04 9475   3.004   3.008   4.712 -1.0330 -0.0846  1.5640
   93GLOH    O2 9476   2.849   3.061   4.576 -0.2459  0.1540  0.2322
   93GLOH   H05 9477   2.918   3.121   4.542 -1.2568  0.6806 -0.9404
   93GLOH    C3 9478   2.828   2.913   4.787  0.8014 -0.2116 -0.1898
   93GLOH   H06 9479   2.747   2.851   4.749  2.2842 -0.5443 -2.8963
   93GLOH   H07 9480   2.781   2.996   4.839  0.7164  0.4589 -1.3242
   93GLOH    O3 9481   2.904   2.832   4.885  0.0528  0.1487  0.1218
   93GLOH   H01 9482   2.906   2.741   4.851 -0.0158 -0.0690  0.6810
   94GLOH   H03 9483   6.690   1.447   2.605 -2.0067  0.3154 -1.8821
   94GLOH    O1 9484   6.619   1.421   2.666  0.4441 -0.5959  0.6805
   94GLOH    C1 9485   6.683   1.398   2.795 -0.4611 -0.1906 -0.2783
   94GLOH   H02 9486   6.709   1.492   2.842 -0.6584 -1.4850  2.5419
   94GLOH   H08 9487   6.772   1.340   2.770 -0.4492  0.4130 -1.7043
   94GLOH    C2 9488   6.587   1.331   2.893 -1.0514 -0.7170  0.1040
   94GLOH   H04 9489   6.648   1.303   2.980 -0.7116  4.2507  1.6072
   94GLOH    O2 9490   6.484   1.421   2.942 -0.2124 -0.3735 -0.2014
   94GLOH   H05 9491   6.425   1.452   2.871 -1.8133 -1.5238  0.5900
   94GLOH    C3 9492   6.536   1.190   2.844 -0.4664 -0.5421  0.1694
   94GLOH   H06 9493   6.473   1.191   2.755  0.0931 -1.1335 -0.2400
   94GLOH   H07 9494   6.473   1.140   2.918 -0.3068 -0.2137  0.5284
   94GLOH    O3 9495   6.645   1.108   2.828  0.1061  0.0939  0.2110
   94GLOH   H01 9496   6.616   1.015   2.824 -1.7526  0.6669  0.0007
   95GLOH   H03 9497   5.787   1.284   2.797 -0.3132 -0.3124 -0.4034
   95GLOH    O1 9498   5.739   1.369   2.790  0.1320 -0.0938 -0.8190
   95GLOH    C1 9499   5.592   1.358   2.785  0.1414  0.0239  0.2214
   95GLOH   H02 9500   5.548   1.390   2.692  1.2604 -0.7550 -0.5985
   95GLOH   H08 9501   5.546   1.406   2.871  0.8838 -1.4491  1.4783
   95GLOH    C2 9502   5.539   1.212   2.789 -0.3848  0.1887  0.8756
   95GLOH   H04 9503   5.432   1.227   2.768 -0.2242 -1.1443 -1.0827
   95GLOH    O2 9504   5.594   1.135   2.676 -0.2984 -0.5640 -0.4003
   95GLOH   H05 9505   5.535   1.064   2.644 -0.5611 -1.1640  1.3639
   95GLOH    C3 9506   5.555   1.154   2.930 -0.2333  0.0493  0.1267
   95GLOH   H06 9507   5.659   1.131   2.948 -0.8341 -2.0482  1.0707
   95GLOH   H07 9508   5.506   1.058   2.911 -2.3567  1.0380  0.4422
   95GLOH    O3 9509   5.492   1.218   3.048  0.1099  0.1782 -0.0744
   95GLOH   H01 9510   5.501   1.159   3.124  0.6746  0.7014  0.2698
   96GLOH   H03 9511   9.553   1.499   2.438 -1.1905  0.3634 -0.0868
   96GLOH    O1 9512   9.514   1.411   2.451  0.0253 -0.2315 -0.4407
   96GLOH    C1 9513   9.610   1.308   2.411 -0.2234  0.3163 -0.0860
   96GLOH   H02 9514   9.670   1.280   2.497 -0.9476 -3.1982 -0.6399
   96GLOH   H08 9515   9.685   1.354   2.346  0.0164  0.2576  0.1507
   96GLOH    C2 9516   9.547   1.177   2.348 -0.2612  0.0621  0.7389
   96GLOH   H04 9517   9.631   1.112   2.319  0.2584  0.6443  0.9198
   96GLOH    O2 9518   9.458   1.100   2.431 -0.4605 -0.1821 -0.9212
   96GLOH   H05 9519   9.507   1.051   2.499 -0.4631 -0.3713 -1.0546
   96GLOH    C3 9520   9.472   1.224   2.219  0.2329  0.3043 -0.0680
   96GLOH   H06 9521   9.530   1.298   2.164 -1.0445  1.3110 -0.0896
   96GLOH   H07 9522   9.384   1.276   2.257 -0.0441  1.5641 -2.3125
   96GLOH    O3 9523   9.448   1.119   2.120 -0.1800 -0.0619 -0.4665
   96GLOH   H01 9524   9.531   1.072   2.099  0.8082  1.4950 -0.1222
   97GLOH   H03 9525   7.997   6.030   4.648 -0.9276 -2.8268 -1.7439
   97GLOH    O1 9526   7.968   5.973   4.722  0.0652 -0.6126  0.4205
   97GLOH    C1 9527   7.893   5.866   4.657  0.0487  0.0671 -0.0151
   97GLOH   H02 9528   7.953   5.821   4.578  1.3305 -1.0694  1.5848
   97GLOH   H08 9529   7.806   5.914   4.613 -0.1289  0.7447  1.0533
   97GLOH    C2 9530   7.846   5.758   4.762 -1.1243 -0.1718 -0.1527
   97GLOH   H04 9531   7.927   5.725   4.829 -0.3409 -0.4525 -1.2371
   97GLOH    O2 9532   7.749   5.815   4.851  0.0909  0.4076  0.1041
   97GLOH   H05 9533   7.773   5.778   4.938 -0.7331  0.2496  0.2632
   97GLOH    C3 9534   7.783   5.638   4.687  1.0230 -0.3666  0.4602
   97GLOH   H06 9535   7.704   5.679   4.624 -1.0142  1.0313  3.7875
   97GLOH   H07 9536   7.735   5.572   4.759  1.0167 -1.9416 -0.9531
   97GLOH    O3 9537   7.885   5.571   4.603  0.0551  0.2008  0.3701
   97GLOH   H01 9538   7.903   5.618   4.519 -0.8005  0.2356  0.2009
   98GLOH   H03 9539   4.313   8.721   1.059  0.3147 -0.5056  1.4789
   98GLOH    O1 9540   4.356   8.641   1.025 -0.1339  0.1128 -0.6220
   98GLOH    C1 9541   4.280   8.595   0.919  0.7218  0.7152  0.1078
   98GLOH   H02 9542   4.327   8.632   0.828  2.7276 -0.3833  0.6777
   98GLOH   H08 9543   4.178   8.634   0.922  1.5703  2.8999  2.4814
   98GLOH    C2 9544   4.280   8.445   0.889  0.6785 -0.3399  0.2877
   98GLOH   H04 9545   4.275   8.386   0.981  1.1944 -1.3454 -0.3141
   98GLOH    O2 9546   4.165   8.403   0.807 -0.3540 -0.2614 -0.1055
   98GLOH   H05 9547   4.162   8.453   0.724  1.3479  0.0460  0.0039
   98GLOH    C3 9548   4.419   8.409   0.831  0.1515 -0.3982  0.1235
   98GLOH   H06 9549   4.443   8.447   0.732  0.4569  2.0611  1.1045
   98GLOH   H07 9550   4.408   8.302   0.813 -0.9404 -0.1565 -0.6755
   98GLOH    O3 9551   4.525   8.437   0.914  0.6875 -0.0742 -0.0532
   98GLOH   H01 9552   4.518   8.380   0.993 -1.3671  0.6910  0.3504
   99GLOH   H03 9553   2.743   8.983   5.966 -1.0143  0.4234  0.2588
   99GLOH    O1 9554   2.777   8.930   6.040 -0.8078 -0.1689 -0.2544
   99GLOH    C1 9555   2.807   9.016   6.151 -0.7574 -0.0513 -0.1178
   99GLOH   H02 9556   2.827   8.956   6.240 -1.4263 -1.0969 -0.6739
   99GLOH   H08 9557   2.724   9.085   6.165 -1.4713 -0.5625 -1.7445
   99GLOH    C2 9558   2.935   9.104   6.118 -0.2291 -0.3588  0.0279
   99GLOH   H04 9559   2.921   9.161   6.025 -1.9622 -0.4383  0.2163
   99GLOH    O2 9560   2.961   9.188   6.231 -0.6095  0.6405  0.2125
   99GLOH   H05 9561   3.039   9.246   6.219  2.4550 -2.9760  1.6987
   99GLOH    C3 9562   3.059   9.016   6.092 -0.0663  0.3331  0.1976
   99GLOH   H06 9563   3.152   9.072   6.087 -0.2241  0.7238  1.4300
   99GLOH   H07 9564   3.036   8.965   5.998  2.1665  1.1269 -0.7955
   99GLOH    O3 9565   3.071   8.919   6.199 -0.5212 -0.1304 -0.3926
   99GLOH   H01 9566   3.043   8.955   6.285 -0.0946  2.2755 -1.2244
  100GLOH   H03 9567   0.668   2.735   5.916 -2.0674 -1.5638 -0.4088
  100GLOH    O1 9568   0.648   2.798   5.844  0.0714 -0.3015  0.0442
  100GLOH    C1 9569   0.756   2.807   5.750 -0.1773 -0.4047  0.2328
  100GLOH   H02 9570   0.732   2.889   5.683  0.6834  0.3967  0.8916
  100GLOH   H08 9571   0.773   2.723   5.682  1.9864 -0.5765  0.9424
  100GLOH    C2 9572   0.892   2.842   5.813  0.2049 -0.1044 -0.1985
  100GLOH   H04 9573   0.905   2.951   5.803  1.3969 -0.2358 -0.1012
  100GLOH    O2 9574   0.912   2.804   5.950 -0.1193 -0.2835 -0.1570
  100GLOH   H05 9575   0.873   2.718   5.972 -1.9428  0.7954  0.9761
  100GLOH    C3 9576   1.009   2.783   5.729  0.8547 -0.6845  0.7711
  100GLOH   H06 9577   1.018   2.677   5.749  2.8591 -0.7645 -0.4466
  100GLOH   H07 9578   1.107   2.823   5.755 -0.2749  3.3292 -0.5903
  100GLOH    O3 9579   0.986   2.814   5.589 -0.0129  0.0160  0.2172
  100GLOH   H01 9580   1.053   2.776   5.529 -1.1151  1.2695 -1.8856
  101GLOH   H03 9581   4.737   9.461   6.183 -0.4479 -0.0844 -1.6385
  101GLOH    O1 9582   4.653   9.458   6.231  0.3216  0.5686 -0.2216
  101GLOH    C1 9583   4.620   9.321   6.252 -0.4017 -0.6288  0.4110
  101GLOH   H02 9584   4.691   9.279   6.323 -0.3558 -0.9075  0.1973
  101GLOH   H08 9585   4.632   9.269   6.157 -2.0562  0.3718 -0.3782
  101GLOH    C2 9586   4.482   9.303   6.313  0.1171  0.3408  0.0086
  101GLOH   H04 9587   4.418   9.384   6.273  1.1168  0.3953 -1.4958
  101GLOH    O2 9588   4.421   9.185   6.269  0.0198  0.1395 -0.7333
  101GLOH   H05 9589   4.324   9.194   6.272  0.1565  1.4265  1.2057
  101GLOH    C3 9590   4.485   9.314   6.467  0.0708 -0.2131 -0.1210
  101GLOH   H06 9591   4.382   9.329   6.502 -0.0382  0.8640 -0.8770
  101GLOH   H07 9592   4.537   9.406   6.492  0.6122 -0.4708 -0.2964
  101GLOH    O3 9593   4.547   9.206   6.536  0.4278 -0.0082  0.3601
  101GLOH   H01 9594   4.567   9.229   6.629 -0.4859 -0.6797  0.7324
  102GLOH   H03 9595   9.428   4.755   2.960 -1.8433 -1.7112 -1.4848
  102GLOH    O1 9596   9.375   4.788   3.036  0.3289 -0.6629 -0.3833
  102GLOH    C1 9597   9.424   4.904   3.101 -0.1887 -0.5491 -0.2696
  102GLOH   H02 9598   9.451   4.980   3.027 -0.2207 -1.5025 -1.2822
  102GLOH   H08 9599   9.515   4.893   3.159 -0.7349  0.0186  0.7052
  102GLOH    C2 9600   9.323   4.970   3.190  0.7037  0.1222 -0.1262
  102GLOH   H04 9601   9.381   5.050   3.239 -1.7418  3.5679 -2.6363
  102GLOH    O2 9602   9.215   5.042   3.124 -0.0811  0.4882 -0.2027
  102GLOH   H05 9603   9.211   5.136   3.149 -0.6565  0.8750 -1.6773
  102GLOH    C3 9604   9.270   4.871   3.295  0.4485 -0.1522  0.0232
  102GLOH   H06 9605   9.239   4.781   3.243  3.0419  0.4476 -2.6761
  102GLOH   H07 9606   9.187   4.915   3.351  0.5277  0.1761 -0.1180
  102GLOH    O3 9607   9.376   4.832   3.386 -0.6910 -0.2443  0.3020
  102GLOH   H01 9608   9.384   4.902   3.453  3.1594  0.3644 -0.6363
  103GLOH   H03 9609   7.646   6.383   4.687 -0.0215 -0.5979 -1.2774
  103GLOH    O1 9610   7.607   6.295   4.673 -0.5459 -0.4700 -0.6536
  103GLOH    C1 9611   7.682   6.199   4.749 -0.0592 -0.5367  0.6925
  103GLOH   H02 9612   7.764   6.254   4.795 -1.4840  0.7939  1.6819
  103GLOH   H08 9613   7.719   6.118   4.686 -3.1137 -1.1559 -0.3803
  103GLOH    C2 9614   7.608   6.143   4.869  0.3011  0.0763 -0.6641
  103GLOH   H04 9615   7.679   6.077   4.921 -1.6132 -0.6126  1.1366
  103GLOH    O2 9616   7.543   6.251   4.949 -0.0145  0.5786  0.2852
  103GLOH   H05 9617   7.519   6.317   4.882 -1.3832 -0.1894  0.0082
  103GLOH    C3 9618   7.501   6.048   4.800 -0.8174 -0.6636  0.6294
  103GLOH   H06 9619   7.440   6.115   4.740  0.9783  2.1085  1.7486
  103GLOH   H07 9620   7.440   6.019   4.886 -0.9515 -1.6485  0.2068
  103GLOH    O3 9621   7.550   5.933   4.727  0.1597  0.6866 -0.3714
  103GLOH   H01 9622   7.624   5.889   4.774  1.1151 -0.9272 -3.2874
  104GLOH   H03 9623   6.574   0.508   0.754  0.8194  1.0201 -0.0703
  104GLOH    O1 9624   6.652   0.486   0.808 -0.0336 -0.9236  0.4170
  104GLOH    C1 9625   6.769   0.563   0.767  0.1279 -0.3205  0.2625
  104GLOH   H02 9626   6.813   0.582   0.865 -0.0238 -0.5152  0.3706
  104GLOH   H08 9627   6.742   0.657   0.719 -1.0670 -0.5041  0.5619
  104GLOH    C2 9628   6.869   0.474   0.685  0.2808 -0.0674 -0.5687
  104GLOH   H04 9629   6.802   0.415   0.620 -1.3343  1.1180 -0.0353
  104GLOH    O2 9630   6.963   0.556   0.614  0.1339  0.1275  0.3913
  104GLOH   H05 9631   7.039   0.497   0.598  1.0805  0.6434  2.7288
  104GLOH    C3 9632   6.949   0.381   0.781  0.2389  0.5709 -0.8706
  104GLOH   H06 9633   6.877   0.327   0.843  2.4372 -2.4608 -0.7965
  104GLOH   H07 9634   7.018   0.438   0.844 -2.3876 -0.1044  2.8049
  104GLOH    O3 9635   7.023   0.281   0.710  0.6644 -0.2612 -0.5589
  104GLOH   H01 9636   7.047   0.211   0.774  2.0020 -1.5303 -2.3817
  105GLOH   H03 9637   6.414   2.410   7.952  0.6631 -0.5724 -0.4805
  105GLOH    O1 9638   6.330   2.363   7.936  0.3535 -0.1703 -0.0519
  105GLOH    C1 9639   6.225   2.449   7.988  0.5409  0.0856 -0.2396
  105GLOH   H02 9640   6.156   2.464   7.905  3.0758  0.9657 -2.2789
  105GLOH   H08 9641   6.258   2.551   8.011  1.1898  0.0764 -1.0949
  105GLOH    C2 9642   6.148   2.395   8.108  0.1278  0.2107  0.8118
  105GLOH   H04 9643   6.217   2.342   8.175  0.3115 -0.3762  0.1562
  105GLOH    O2 9644   6.080   2.502   8.183 -0.2498  0.1593  0.1163
  105GLOH   H05 9645   6.147   2.551   8.234  0.5846 -1.2415  0.4028
  105GLOH    C3 9646   6.044   2.292   8.052  0.7487 -0.0975 -0.1333
  105GLOH   H06 9647   6.098   2.223   7.987  2.2392  0.8620  0.0603
  105GLOH   H07 9648   5.981   2.345   7.980 -0.5364  0.2805  1.2418
  105GLOH    O3 9649   5.976   2.214   8.151 -0.0281  0.1098  0.5557
  105GLOH   H01 9650   6.017   2.127   8.163  1.5495  0.5554 -1.2286
  106GLOH   H03 9651   4.489   7.778   3.930 -2.6590  0.7626 -0.9018
  106GLOH    O1 9652   4.459   7.745   4.017  0.4310  0.1872 -0.0059
  106GLOH    C1 9653   4.498   7.606   4.039 -0.0005 -0.5062  0.0968
  106GLOH   H02 9654   4.478   7.581   4.143  2.4393  1.4240  1.0850
  106GLOH   H08 9655   4.605   7.587   4.029  0.3173  0.8329  0.9701
  106GLOH    C2 9656   4.419   7.505   3.960  0.5478  0.5902  0.2177
  106GLOH   H04 9657   4.410   7.526   3.852 -2.4116  1.1592  0.5347
  106GLOH    O2 9658   4.480   7.373   3.983  0.2267 -0.3865  0.2676
  106GLOH   H05 9659   4.453   7.323   4.062  0.4429  1.0693  1.2716
  106GLOH    C3 9660   4.271   7.512   4.006  0.0210 -0.7916  0.5459
  106GLOH   H06 9661   4.231   7.614   3.999  0.3557 -0.8292 -3.1582
  106GLOH   H07 9662   4.252   7.487   4.110 -0.1451  1.4643  1.0923
  106GLOH    O3 9663   4.186   7.432   3.919  0.3419 -0.0412 -0.0251
  106GLOH   H01 9664   4.226   7.344   3.916  0.6808 -0.0103  2.4930
  107GLOH   H03 9665   7.985   6.593   4.378  1.9568 -1.7286  3.1643
  107GLOH    O1 9666   8.053   6.660   4.397  0.6739  0.4748  0.3602
  107GLOH    C1 9667   8.056   6.664   4.541  0.5055  1.0299  0.4931
  107GLOH   H02 9668   7.956   6.661   4.584  0.4795 -0.3265  0.3697
  107GLOH   H08 9669   8.107   6.753   4.577  1.3590  0.2910  1.1719
  107GLOH    C2 9670   8.146   6.552   4.607 -0.5256 -0.1902 -1.0213
  107GLOH   H04 9671   8.249   6.577   4.580 -0.7880  2.3322  0.1491
  107GLOH    O2 9672   8.132   6.552   4.755 -0.3253  0.1811  0.0869
  107GLOH   H05 9673   8.222   6.559   4.791  0.8922 -0.7288 -2.6302
  107GLOH    C3 9674   8.110   6.419   4.540 -0.1117  0.3571 -0.6557
  107GLOH   H06 9675   8.159   6.341   4.598  0.1199  0.7873 -0.2727
  107GLOH   H07 9676   8.131   6.427   4.433  1.9704  1.1074 -0.2164
  107GLOH    O3 9677   7.971   6.393   4.561 -0.1491  0.2492  0.1463
  107GLOH   H01 9678   7.927   6.434   4.638 -0.0242  0.2004  0.2444
  108GLOH   H03 9679   4.365   7.457   4.366  0.1734 -0.6914  0.8960
  108GLOH    O1 9680   4.454   7.497   4.369 -0.0776 -0.0454 -0.3118
  108GLOH    C1 9681   4.467   7.575   4.492 -0.4677  0.0380  0.3552
  108GLOH   H02 9682   4.381   7.636   4.521 -1.0060 -0.3985 -0.3286
  108GLOH   H08 9683   4.548   7.644   4.466 -0.7328 -0.0199 -0.6400
  108GLOH    C2 9684   4.508   7.505   4.621  0.3568 -0.6340 -0.5913
  108GLOH   H04 9685   4.494   7.573   4.706 -1.4006  0.3071 -1.6074
  108GLOH    O2 9686   4.424   7.390   4.640  0.3250 -0.2222  0.3214
  108GLOH   H05 9687   4.417   7.365   4.733 -0.4991  1.4093  0.7162
  108GLOH    C3 9688   4.655   7.459   4.613 -0.5557 -0.0856 -0.3505
  108GLOH   H06 9689   4.684   7.414   4.518  0.5263 -1.6527  0.6945
  108GLOH   H07 9690   4.664   7.385   4.693  0.1006  2.4048  1.9710
  108GLOH    O3 9691   4.740   7.569   4.639  0.0687  0.2348 -0.2362
  108GLOH   H01 9692   4.814   7.564   4.576  1.0712 -1.5219  1.0476
  109GLOH   H03 9693   5.000   4.040   0.602 -0.0669  1.2575  0.4011
  109GLOH    O1 9694   5.097   4.038   0.592 -0.1592 -0.1898 -0.3484
  109GLOH    C1 9695   5.143   3.910   0.650 -0.1977 -0.4788 -1.0518
  109GLOH   H02 9696   5.168   3.833   0.577 -0.0638 -0.8011 -0.6616
  109GLOH   H08 9697   5.064   3.872   0.715 -0.9732  0.5990 -1.3361
  109GLOH    C2 9698   5.254   3.924   0.751 -0.0542 -0.0125  0.1231
  109GLOH   H04 9699   5.213   3.970   0.842 -0.1931 -0.6910  0.3989
  109GLOH    O2 9700   5.294   3.792   0.787 -0.3913  0.0528 -0.6534
  109GLOH   H05 9701   5.384   3.791   0.824 -1.1317  0.1263  1.1948
  109GLOH    C3 9702   5.376   4.012   0.703  0.5877 -0.5944  0.0887
  109GLOH   H06 9703   5.450   3.942   0.663  1.7305  0.7792 -0.2270
  109GLOH   H07 9704   5.415   4.057   0.795  1.9853  0.0972 -0.8217
  109GLOH    O3 9705   5.338   4.111   0.604 -0.2955 -0.1343  0.6028
  109GLOH   H01 9706   5.243   4.100   0.582  0.0849 -2.0289 -0.1496
  110GLOH   H03 9707   4.102   9.622   4.050  1.0642 -2.0810 -0.3560
  110GLOH    O1 9708   4.025   9.599   4.104  0.6368  0.5041  0.2317
  110GLOH    C1 9709   4.001   9.716   4.184 -0.0648  0.6388 -0.6111
  110GLOH   H02 9710   3.932   9.692   4.265 -0.7253  0.9940 -1.0728
  110GLOH   H08 9711   3.942   9.787   4.126 -0.8830  0.8714  0.4775
  110GLOH    C2 9712   4.132   9.788   4.235  0.5089  0.1436  0.2194
  110GLOH   H04 9713   4.159   9.853   4.150 -1.8223  0.8966  0.0135
  110GLOH    O2 9714   4.091   9.864   4.353 -0.2514  0.4506  0.2394
  110GLOH   H05 9715   4.164   9.921   4.383  0.2867 -0.8433  1.4671
  110GLOH    C3 9716   4.251   9.686   4.256 -0.3859  0.6205  0.0377
  110GLOH   H06 9717   4.235   9.592   4.202  0.1685  0.0213  0.9102
  110GLOH   H07 9718   4.241   9.650   4.358 -0.8702  1.0714  0.1495
  110GLOH    O3 9719   4.383   9.752   4.229 -0.0928  0.0081  0.3787
  110GLOH   H01 9720   4.411   9.800   4.309  2.2842 -2.3202  1.0184
  111GLOH   H03 9721   8.682   4.848   2.835 -0.0740 -0.3060  0.3786
  111GLOH    O1 9722   8.692   4.751   2.839 -0.2934 -0.3468 -0.0153
  111GLOH    C1 9723   8.709   4.710   2.979 -0.0380  0.3226  0.4783
  111GLOH   H02 9724   8.775   4.775   3.036 -0.1799 -0.0076  1.0185
  111GLOH   H08 9725   8.759   4.613   2.969 -0.6305 -0.1371  1.8407
  111GLOH    C2 9726   8.572   4.694   3.053  0.2310  0.7439 -0.0560
  111GLOH   H04 9727   8.601   4.668   3.156 -0.9108 -0.0505  0.0747
  111GLOH    O2 9728   8.502   4.813   3.067 -0.3369  0.4840 -0.0782
  111GLOH   H05 9729   8.445   4.824   2.988  0.9267 -1.6963 -1.3301
  111GLOH    C3 9730   8.484   4.580   2.989  0.0184  0.3276 -0.1069
  111GLOH   H06 9731   8.442   4.612   2.893 -0.7941 -2.0086 -0.5720
  111GLOH   H07 9732   8.397   4.555   3.051 -0.8085 -0.0021 -1.3696
  111GLOH    O3 9733   8.553   4.459   2.982 -0.1251  0.4714 -0.2852
  111GLOH   H01 9734   8.593   4.441   3.069  0.3150  0.1745 -0.5451
  112GLOH   H03 9735   7.754   9.915   4.778 -0.5335  0.4371  0.8423
  112GLOH    O1 9736   7.831   9.975   4.773 -0.1125 -0.1669  0.0801
  112GLOH    C1 9737   7.854  10.025   4.904  0.0980  0.3599  0.5006
  112GLOH   H02 9738   7.765  10.003   4.963  0.7735  1.8676  2.1544
  112GLOH   H08 9739   7.866  10.134   4.898  2.7106  0.1656  1.2593
  112GLOH    C2 9740   7.978   9.966   4.974  0.2846  0.0098 -0.4343
  112GLOH   H04 9741   8.010   9.881   4.912  2.6892  1.5153 -1.3581
  112GLOH    O2 9742   8.092  10.045   4.985 -0.5727  0.1641  0.1386
  112GLOH   H05 9743   8.174   9.997   4.966  0.1165  1.5557 -0.4992
  112GLOH    C3 9744   7.940   9.919   5.118 -0.1405 -0.5689 -0.7501
  112GLOH   H06 9745   7.883   9.999   5.165  2.1721  1.8381 -1.9073
  112GLOH   H07 9746   8.026   9.893   5.181 -1.5591  0.0452  1.5155
  112GLOH    O3 9747   7.865   9.800   5.102 -0.7108  0.3317 -0.1713
  112GLOH   H01 9748   7.841   9.763   5.189 -1.1717 -2.0771 -1.2759
  113GLOH   H03 9749   6.225   1.812   3.843 -1.2439 -0.9140  0.5106
  113GLOH    O1 9750   6.142   1.862   3.838 -0.3390  0.5602  0.0492
  113GLOH    C1 9751   6.108   1.837   3.701  0.5729  0.1660  0.4050
  113GLOH   H02 9752   6.025   1.899   3.667 -0.0365  0.2806  2.0433
  113GLOH   H08 9753   6.064   1.737   3.695  1.1483 -0.3089  3.4362
  113GLOH    C2 9754   6.233   1.845   3.616 -0.0314  0.3957 -0.5278
  113GLOH   H04 9755   6.302   1.916   3.664  0.7700 -0.6637 -0.0957
  113GLOH    O2 9756   6.288   1.709   3.610  0.0199  0.5188 -0.6951
  113GLOH   H05 9757   6.357   1.702   3.543  1.7341 -1.8336  1.2124
  113GLOH    C3 9758   6.187   1.890   3.473 -0.4581  0.8108  0.5636
  113GLOH   H06 9759   6.134   1.805   3.430 -2.2187  1.1688  1.9344
  113GLOH   H07 9760   6.269   1.908   3.404 -1.5589  1.2101 -0.6702
  113GLOH    O3 9761   6.097   2.004   3.468  0.3757  0.6215 -0.5052
  113GLOH   H01 9762   6.145   2.088   3.481  0.9253  0.2505 -0.1288
  114GLOH   H03 9763   1.324   0.522   6.150  2.2165  1.1811  1.1944
  114GLOH    O1 9764   1.256   0.555   6.211  0.2266  0.5038 -0.5585
  114GLOH    C1 9765   1.144   0.620   6.141 -0.4585 -0.0250 -0.1609
  114GLOH   H02 9766   1.120   0.571   6.047 -0.6246  0.2288 -0.2504
  114GLOH   H08 9767   1.174   0.721   6.113  0.6365 -0.6601 -1.3747
  114GLOH    C2 9768   1.016   0.608   6.227  0.0608  0.2230  0.1920
  114GLOH   H04 9769   1.031   0.649   6.327 -1.9029  0.8240  0.2617
  114GLOH    O2 9770   0.911   0.682   6.162 -0.1879  0.2099  0.4620
  114GLOH   H05 9771   0.825   0.636   6.160 -1.2773  2.0803  1.9471
  114GLOH    C3 9772   0.980   0.461   6.230 -0.4800 -0.0998  0.9661
  114GLOH   H06 9773   0.929   0.427   6.140 -1.4435 -1.5053  2.0219
  114GLOH   H07 9774   0.901   0.450   6.304 -1.5417 -2.4745 -0.4507
  114GLOH    O3 9775   1.088   0.372   6.258  0.4811 -0.7332  0.3856
  114GLOH   H01 9776   1.172   0.421   6.265  0.2518 -0.5593  2.2312
  115GLOH   H03 9777   5.089   5.904   3.152  0.6274 -0.4365 -0.2018
  115GLOH    O1 9778   5.032   5.930   3.077 -0.1587 -0.5881  0.3389
  115GLOH    C1 9779   4.961   5.808   3.034  0.0055 -0.5084  0.1248
  115GLOH   H02 9780   5.027   5.750   2.970  1.2216  1.1346 -0.1486
  115GLOH   H08 9781   4.884   5.839   2.963 -0.6724  0.8533  1.4202
  115GLOH    C2 9782   4.911   5.718   3.146 -0.2854 -0.1157 -1.0241
  115GLOH   H04 9783   4.834   5.769   3.206 -0.5271  0.3522 -1.7271
  115GLOH    O2 9784   4.850   5.595   3.110 -0.7692 -0.3465 -0.2182
  115GLOH   H05 9785   4.795   5.566   3.185 -1.7556  1.2665 -0.2951
  115GLOH    C3 9786   5.029   5.691   3.245 -0.4169 -0.8843 -0.9196
  115GLOH   H06 9787   5.105   5.631   3.194  1.2075  0.2398  0.0946
  115GLOH   H07 9788   4.989   5.644   3.335 -1.0881 -0.5803 -1.0606
  115GLOH    O3 9789   5.099   5.809   3.283 -0.2666  0.2249 -0.0176
  115GLOH   H01 9790   5.053   5.829   3.367 -1.6452 -5.2552  0.6932
  116GLOH   H03 9791   8.610   6.018   1.172 -0.9562 -0.8802 -1.5450
  116GLOH    O1 9792   8.604   6.108   1.135  0.4313  0.1862  0.7356
  116GLOH    C1 9793   8.567   6.099   0.999 -0.2934  0.1313  0.3435
  116GLOH   H02 9794   8.551   5.995   0.973  1.9753 -0.0862 -0.2721
  116GLOH   H08 9795   8.644   6.140   0.934  0.4395 -0.0423  1.0873
  116GLOH    C2 9796   8.434   6.178   0.973  0.3988  0.3553  0.0422
  116GLOH   H04 9797   8.353   6.109   1.002  0.8698 -0.6245 -0.9280
  116GLOH    O2 9798   8.425   6.295   1.051 -0.0888  0.5802  0.1966
  116GLOH   H05 9799   8.462   6.375   1.010  1.6633 -0.9837 -1.3685
  116GLOH    C3 9800   8.420   6.214   0.823  0.4261  0.0960 -0.6060
  116GLOH   H06 9801   8.503   6.277   0.792  0.9909  0.0023  0.6766
  116GLOH   H07 9802   8.321   6.259   0.814 -0.1878 -0.4958  2.4917
  116GLOH    O3 9803   8.430   6.098   0.741  0.0892  0.1618 -0.1119
  116GLOH   H01 9804   8.383   6.020   0.777 -1.6256  0.6859 -1.1124
  117GLOH   H03 9805   4.609   9.497   3.710  0.4401  0.1146 -0.4719
  117GLOH    O1 9806   4.533   9.455   3.665 -0.2278  0.1613  0.5681
  117GLOH    C1 9807   4.580   9.372   3.557  0.3609 -0.0973 -0.0601
  117GLOH   H02 9808   4.673   9.415   3.519  0.8872 -1.6813 -0.5873
  117GLOH   H08 9809   4.508   9.369   3.475 -2.5461  3.0215  2.2000
  117GLOH    C2 9810   4.619   9.233   3.609  0.4716  0.2753  0.2129
  117GLOH   H04 9811   4.667   9.169   3.534 -1.3698  0.3234 -1.0292
  117GLOH    O2 9812   4.722   9.239   3.714  0.0286 -0.0660 -0.0555
  117GLOH   H05 9813   4.797   9.293   3.683  0.6529 -1.1318 -0.4150
  117GLOH    C3 9814   4.498   9.152   3.655  0.1219 -0.3993  0.0523
  117GLOH   H06 9815   4.458   9.210   3.738 -2.2193 -0.2431 -1.1325
  117GLOH   H07 9816   4.530   9.059   3.701 -0.5159 -0.2652  0.7951
  117GLOH    O3 9817   4.385   9.136   3.559  0.3240 -0.0884  0.3878
  117GLOH   H01 9818   4.314   9.106   3.618  0.1248  0.2387  0.3122
  118GLOH   H03 9819   7.220   4.547   7.794 -0.3064 -1.0745 -2.0051
  118GLOH    O1 9820   7.157   4.620   7.780  0.2048 -0.3478 -0.5812
  118GLOH    C1 9821   7.110   4.677   7.903  0.5304 -0.8224  0.8591
  118GLOH   H02 9822   7.001   4.674   7.900  0.5330 -0.1209 -0.2283
  118GLOH   H08 9823   7.137   4.782   7.916 -3.5398  0.4648 -0.4122
  118GLOH    C2 9824   7.161   4.600   8.027 -0.0470 -0.5754  0.1338
  118GLOH   H04 9825   7.128   4.651   8.120  0.1979 -2.0202  1.0200
  118GLOH    O2 9826   7.123   4.463   8.026 -0.4807 -0.1132 -0.2236
  118GLOH   H05 9827   7.133   4.434   8.119  2.9854  2.2614  0.2161
  118GLOH    C3 9828   7.314   4.609   8.044 -0.4781  0.0152  0.2028
  118GLOH   H06 9829   7.364   4.554   7.964 -2.4965  0.0031 -1.0892
  118GLOH   H07 9830   7.330   4.545   8.130 -1.8331  0.5597  0.8678
  118GLOH    O3 9831   7.363   4.744   8.059  0.2509 -0.5778 -0.0076
  118GLOH   H01 9832   7.461   4.739   8.054  0.1919 -1.7183 -0.1890
  119GLOH   H03 9833   7.300   9.142   2.717  1.6806  0.3702 -0.0435
  119GLOH    O1 9834   7.269   9.228   2.682  0.8356 -0.0840 -0.4329
  119GLOH    C1 9835   7.128   9.219   2.645 -0.2453  0.2954  0.3913
  119GLOH   H02 9836   7.120   9.157   2.556 -1.6977  3.3287 -1.6739
  119GLOH   H08 9837   7.107   9.320   2.611 -2.4759 -0.5024 -0.7255
  119GLOH    C2 9838   7.028   9.184   2.752 -0.3659 -0.4604 -0.1555
  119GLOH   H04 9839   6.925   9.202   2.718 -0.7540 -1.8732  0.2589
  119GLOH    O2 9840   7.031   9.037   2.768  0.7654  0.0081  0.0521
  119GLOH   H05 9841   6.964   9.019   2.837 -0.7887  0.7376 -1.2450
  119GLOH    C3 9842   7.051   9.263   2.885  0.3717 -0.3987 -0.6498
  119GLOH   H06 9843   7.158   9.250   2.897  0.6416  1.5820 -0.7922
  119GLOH   H07 9844   6.997   9.221   2.969 -0.5457 -0.6560 -1.3497
  119GLOH    O3 9845   7.024   9.407   2.860 -0.4121 -0.0090  0.0906
  119GLOH   H01 9846   7.016   9.456   2.943  1.8500  1.4164 -0.4845
  120GLOH   H03 9847   2.978   9.603   2.512  1.5213 -0.8794  1.1242
  120GLOH    O1 9848   3.071   9.632   2.521  1.2599  0.3299  0.0815
  120GLOH    C1 9849   3.117   9.585   2.651  0.1536  0.4195  0.0029
  120GLOH   H02 9850   3.216   9.541   2.638 -0.2826 -0.1735 -1.4727
  120GLOH   H08 9851   3.049   9.510   2.691  1.4421  0.4462  2.2932
  120GLOH    C2 9852   3.121   9.701   2.754 -0.6506 -0.0929  0.6087
  120GLOH   H04 9853   3.150   9.657   2.850  0.1478  0.0023  0.4099
  120GLOH    O2 9854   3.215   9.799   2.706 -0.2665 -0.3096 -0.7855
  120GLOH   H05 9855   3.179   9.850   2.631 -1.1172  1.6509  0.8960
  120GLOH    C3 9856   2.980   9.763   2.771  0.3656  0.2308  0.4128
  120GLOH   H06 9857   2.932   9.784   2.676  2.4183 -0.0288 -0.7112
  120GLOH   H07 9858   2.991   9.854   2.831  1.4758  1.6329 -1.8654
  120GLOH    O3 9859   2.897   9.676   2.851 -0.3421 -0.3280  0.1623
  120GLOH   H01 9860   2.944   9.659   2.934 -1.2104 -0.3530  0.6582
  121ACOH    H4 9861   4.690   2.978   2.005 -0.6460  0.3758  0.5434
  121ACOH    O2 9862   4.693   3.030   1.923 -0.2970  0.1139  0.3868
  121ACOH    C2 9863   4.583   3.115   1.934 -0.5993 -0.2485 -0.5112
  121ACOH    O1 9864   4.489   3.113   2.015  0.1308  0.4885 -0.0339
  121ACOH    C1 9865   4.578   3.198   1.811  0.2298  0.0021  0.0227
  121ACOH    H1 9866   4.597   3.138   1.721 -0.4534 -1.2399  0.6978
  121ACOH    H2 9867   4.650   3.279   1.818 -1.3792  1.5850 -1.2517
  121ACOH    H3 9868   4.480   3.246   1.802 -0.3681 -1.3669 -1.0065
  122ACOH    H4 9869   4.635   9.612   0.545  0.0176  0.0239  1.0052
  122ACOH    O2 9870   4.662   9.694   0.500  0.2447 -0.7382 -0.2992
  122ACOH    C2 9871   4.679   9.664   0.367 -0.2396  0.2595  0.7487
  122ACOH    O1 9872   4.675   9.552   0.324  0.4865  0.4591  0.3513
  122ACOH    C1 9873   4.714   9.777   0.283  0.4421 -0.1843 -0.0376
  122ACOH    H1 9874   4.769   9.746   0.195 -0.5996 -0.7584 -0.5002
  122ACOH    H2 9875   4.781   9.843   0.339  1.0825 -0.2704 -0.7097
  122ACOH    H3 9876   4.628   9.836   0.251 -0.0250 -2.1209 -2.4142
  123ACOH    H4 9877   5.326   7.485   5.433 -3.1469 -1.5250  1.1615
  123ACOH    O2 9878   5.385   7.411   5.456  0.0008  0.5066 -0.1702
  123ACOH    C2 9879   5.462   7.391   5.349 -0.1665 -0.0528  0.9485
  123ACOH    O1 9880   5.445   7.448   5.243  0.0604  0.5908 -0.3484
  123ACOH    C1 9881   5.580   7.304   5.381  0.7238  0.7722 -0.3157
  123ACOH    H1 9882   5.576   7.223   5.308  1.4561 -1.6987  2.3159
  123ACOH    H2 9883   5.577   7.268   5.484  2.8585  0.6482 -0.2730
  123ACOH    H3 9884   5.680   7.347   5.371  1.4331 -0.3891  1.5398
  124ACOH    H4 9885   4.844   7.520   4.118  1.3916 -2.8998 -0.6223
  124ACOH    O2 9886   4.930   7.554   4.088  0.4214 -0.1855 -0.4456
  124ACOH    C2 9887   4.975   7.476   3.995 -0.0238 -0.7557 -0.2546
  124ACOH    O1 9888   4.911   7.384   3.944 -0.1246 -0.3167  0.6016
  124ACOH    C1 9889   5.116   7.508   3.955 -0.1142  0.3052 -0.1922
  124ACOH    H1 9890   5.174   7.418   3.975 -0.6282 -0.1073 -0.5358
  124ACOH    H2 9891   5.144   7.589   4.022  1.3553 -0.6986  0.4408
  124ACOH    H3 9892   5.120   7.528   3.848 -0.5720 -0.4262 -0.3535
  125ACOH    H4 9893   6.492   6.582   6.139  1.1490  3.3775  1.6055
  125ACOH    O2 9894   6.412   6.569   6.192  0.3535  0.4279 -0.1829
  125ACOH    C2 9895   6.444   6.611   6.320  0.2287 -0.1056  0.7547
  125ACOH    O1 9896   6.555   6.649   6.346  0.2446  0.1821 -0.2149
  125ACOH    C1 9897   6.323   6.608   6.409 -0.5249  0.5428 -0.8584
  125ACOH    H1 9898   6.269   6.514   6.406 -0.5917  0.5556 -0.1777
  125ACOH    H2 9899   6.258   6.692   6.387  0.2907  1.7179  1.0402
  125ACOH    H3 9900   6.355   6.615   6.513 -3.2455 -0.3922  0.0646
  126ACOH    H4 9901   6.887   5.197   6.979 -0.5710 -0.2354 -1.8506
  126ACOH    O2 9902   6.927   5.120   6.936  0.3372 -0.5068 -0.5475
  126ACOH    C2 9903   6.925   5.016   7.015 -0.2432  0.2558  0.8167
  126ACOH    O1 9904   6.853   4.990   7.109 -0.0394 -0.0050  0.2759
  126ACOH    C1 9905   7.000   4.911   6.944  0.0262 -0.9089 -0.9757
  126ACOH    H1 9906   7.071   4.954   6.874  1.7596 -1.0174  0.6807
  126ACOH    H2 9907   6.920   4.860   6.890 -0.6833 -1.3979  0.4990
  126ACOH    H3 9908   7.036   4.839   7.017  2.3827 -0.2798 -1.5068
  127ACOH    H4 9909   8.851   3.342   1.677 -0.0034  0.0336 -0.2493
  127ACOH    O2 9910   8.795   3.345   1.598 -0.0761 -0.3250 -0.2103
  127ACOH    C2 9911   8.737   3.229   1.582 -0.6103  0.2071  0.1594
  127ACOH    O1 9912   8.765   3.125   1.647 -0.0115  0.2668  0.2443
  127ACOH    C1 9913   8.645   3.238   1.467 -0.3680 -0.2920 -0.5604
  127ACOH    H1 9914   8.701   3.274   1.381  1.7975  1.1497  1.4109
  127ACOH    H2 9915   8.569   3.315   1.484  0.9773  1.4283 -2.1138
  127ACOH    H3 9916   8.591   3.144   1.460 -0.5558 -0.2577  0.4622
  128ACOH    H4 9917   6.744   3.949   1.420 -0.5903  0.4115 -0.4220
  128ACOH    O2 9918   6.699   3.867   1.395  0.6233 -0.3101 -0.2995
  128ACOH    C2 9919   6.634   3.822   1.504  0.9060 -0.5138  0.1812
  128ACOH    O1 9920   6.656   3.857   1.617 -0.1537 -0.2986  0.7128
  128ACOH    C1 9921   6.555   3.698   1.471  0.0817 -0.0393  1.0527
  128ACOH    H1 9922   6.449   3.720   1.482 -0.1179  0.1003 -0.8247
  128ACOH    H2 9923   6.573   3.620   1.544  2.5475  0.0930  0.6293
  128ACOH    H3 9924   6.579   3.658   1.372 -1.5764  0.8176  0.2681
  129ACOH    H4 9925   9.479   4.597   1.436 -0.0209  1.5930 -0.3715
  129ACOH    O2 9926   9.439   4.566   1.519  0.7489  0.2132 -0.4999
  129ACOH    C2 9927   9.380   4.676   1.567  0.5423 -1.1345  0.1671
  129ACOH    O1 9928   9.358   4.781   1.506  0.2707 -0.0453 -0.1357
  129ACOH    C1 9929   9.332   4.655   1.707 -0.5570  0.5224  0.4165
  129ACOH    H1 9930   9.362   4.554   1.734  2.4456  1.2020 -0.1680
  129ACOH    H2 9931   9.223   4.657   1.706 -0.5495  1.0622 -1.1237
  129ACOH    H3 9932   9.378   4.728   1.773  0.6235 -1.0089  1.3279
  130ACOH    H4 9933   8.138   9.255   6.704 -0.5793  1.6996  0.9373
  130ACOH    O2 9934   8.221   9.279   6.749  0.2180  0.3396  0.2225
  130ACOH    C2 9935   8.217   9.393   6.818  0.5040  0.4101 -0.4608
  130ACOH    O1 9936   8.120   9.460   6.849  0.0796  0.1305 -0.6238
  130ACOH    C1 9937   8.359   9.419   6.855  0.6137  0.2857 -0.0884
  130ACOH    H1 9938   8.413   9.443   6.764 -0.1007 -1.0295 -0.8811
  130ACOH    H2 9939   8.402   9.334   6.909 -0.4270  0.2730  0.7301
  130ACOH    H3 9940   8.372   9.503   6.922  1.2534 -0.0002  0.1579
  131ACOH    H4 9941   2.188   1.649   2.785 -1.3245  2.8114 -1.6844
  131ACOH    O2 9942   2.135   1.594   2.725  0.0282 -0.5454  0.0839
  131ACOH    C2 9943   2.115   1.686   2.628 -0.0919  0.1675  0.1991
  131ACOH    O1 9944   2.151   1.803   2.626  0.1677 -0.5980 -0.0396
  131ACOH    C1 9945   2.028   1.625   2.517  0.0757  0.4016 -0.4528
  131ACOH    H1 9946   1.946   1.571   2.565  1.7388 -0.6822  1.2525
  131ACOH    H2 9947   2.085   1.548   2.464 -3.3614 -0.8639 -2.4458
  131ACOH    H3 9948   1.983   1.696   2.448 -1.7035 -0.4795 -0.2364
  132ACOH    H4 9949   5.681   1.694   6.642  0.1757  0.3407 -0.7925
  132ACOH    O2 9950   5.618   1.669   6.711  0.8058  0.5324 -0.1395
  132ACOH    C2 9951   5.491   1.656   6.670 -0.0779  0.2966  0.3612
  132ACOH    O1 9952   5.441   1.702   6.570  0.1485  0.5650 -0.2031
  132ACOH    C1 9953   5.404   1.595   6.774 -0.2312  0.4588 -0.0458
  132ACOH    H1 9954   5.460   1.568   6.863 -0.2892 -0.3035 -0.2308
  132ACOH    H2 9955   5.372   1.503   6.723 -2.3359  0.6154  0.9329
  132ACOH    H3 9956   5.317   1.657   6.797 -1.6587 -1.5227  0.0901
  133ACOH    H4 9957   6.510   9.717   1.523 -0.7629  2.9397 -0.5404
  133ACOH    O2 9958   6.528   9.716   1.428  0.1309 -0.4519 -0.4246
  133ACOH    C2 9959   6.655   9.755   1.416  0.4716 -0.3251 -0.7083
  133ACOH    O1 9960   6.746   9.748   1.495  0.3123 -0.0485 -0.8326
  133ACOH    C1 9961   6.670   9.805   1.278 -0.0412  0.4729  1.0604
  133ACOH    H1 9962   6.678   9.913   1.273 -2.2247  0.6911  1.5805
  133ACOH    H2 9963   6.583   9.777   1.217 -0.0448 -0.5947  1.5440
  133ACOH    H3 9964   6.752   9.744   1.239  0.0166  0.4086  1.2798
  134ACOH    H4 9965   3.551   6.175   5.542 -1.9180 -0.9823 -0.6543
  134ACOH    O2 9966   3.483   6.190   5.610 -0.1603 -0.2477  0.9993
  134ACOH    C2 9967   3.496   6.101   5.711 -0.2852 -0.3304  0.0064
  134ACOH    O1 9968   3.563   6.000   5.711  0.5144  0.2298 -0.1015
  134ACOH    C1 9969   3.394   6.122   5.817  0.5688 -0.7189  0.3391
  134ACOH    H1 9970   3.382   6.028   5.870 -1.4672 -0.0537  1.0796
  134ACOH    H2 9971   3.305   6.175   5.783  1.3714  0.2944 -0.2044
  134ACOH    H3 9972   3.439   6.192   5.888 -0.2545 -0.0293  0.1766
  135ACOH    H4 9973   3.895   6.157   8.178  0.8513 -0.0460 -0.1607
  135ACOH    O2 9974   3.915   6.086   8.115  0.2196  0.3739 -0.8493
  135ACOH    C2 9975   4.039   6.120   8.075 -0.4758 -0.2699 -0.4065
  135ACOH    O1 9976   4.093   6.227   8.101 -0.9418  0.0286 -0.1710
  135ACOH    C1 9977   4.105   6.022   7.990 -0.6215  0.7532 -0.7200
  135ACOH    H1 9978   4.122   6.060   7.889 -1.3145 -1.3541 -1.6693
  135ACOH    H2 9979   4.039   5.935   7.982  0.8165 -0.4840  0.5629
  135ACOH    H3 9980   4.198   5.993   8.039 -0.7538  0.4379 -0.6520
  136ACOH    H4 9981   6.634   3.162   5.703 -1.0869  0.6494  1.1765
  136ACOH    O2 9982   6.684   3.245   5.695 -0.3488  0.1270  0.1900
  136ACOH    C2 9983   6.654   3.288   5.570 -0.0891 -0.0677 -0.4906
  136ACOH    O1 9984   6.576   3.236   5.491 -0.0856 -0.3524 -0.0093
  136ACOH    C1 9985   6.729   3.412   5.532  0.2668  0.1400  0.0729
  136ACOH    H1 9986   6.830   3.424   5.571  1.0121 -1.5225 -1.3053
  136ACOH    H2 9987   6.666   3.500   5.547  0.0104 -0.0925  0.3677
  136ACOH    H3 9988   6.744   3.409   5.424 -0.5198  1.1591 -0.0787
  137ACOH    H4 9989   7.380   5.945   3.931  0.0028  2.3454 -0.0927
  137ACOH    O2 9990   7.289   5.954   3.961 -0.1790  0.2656  0.0509
  137ACOH    C2 9991   7.257   6.081   3.965  0.1757 -0.2471  0.6761
  137ACOH    O1 9992   7.306   6.167   3.894  0.2907  0.1400  0.5463
  137ACOH    C1 9993   7.131   6.110   4.036  0.3303  0.1007  0.6565
  137ACOH    H1 9994   7.150   6.109   4.144  3.6657 -3.0314  0.1418
  137ACOH    H2 9995   7.062   6.029   4.013 -0.1352  0.3930  1.0103
  137ACOH    H3 9996   7.084   6.204   4.010  1.1892  0.3972  0.1494
  138ACOH    H4 9997   7.214   6.384   5.748  2.5595 -3.5186  3.1480
  138ACOH    O2 9998   7.131   6.333   5.741  0.1369  0.5585 -0.1167
  138ACOH    C2 9999   7.118   6.318   5.608  0.0109  0.4337 -0.7996
  138ACOH    O110000   7.199   6.351   5.525  0.6253 -0.7160  0.4339
  138ACOH    C110001   7.004   6.229   5.578 -0.5639  0.5614  0.6738
  138ACOH    H110002   6.913   6.288   5.564 -0.0123  1.6260  1.4477
  138ACOH    H210003   6.992   6.149   5.650 -2.6054  1.2670  1.1563
  138ACOH    H310004   7.028   6.184   5.482 -1.1707  0.1961  0.6950
  139ACOH    H410005   3.062   8.168   2.816  1.1480  0.3356 -0.0090
  139ACOH    O210006   3.084   8.135   2.727 -0.3453  0.0286 -0.2739
  139ACOH    C210007   2.972   8.079   2.679  0.3153 -0.0149  0.9400
  139ACOH    O110008   2.858   8.111   2.715 -0.4992  0.4357  0.1268
  139ACOH    C110009   2.989   8.008   2.550 -0.5033 -0.1505  0.3317
  139ACOH    H110010   3.064   8.056   2.487  0.1618 -1.7908 -0.1474
  139ACOH    H210011   2.891   8.004   2.502 -0.3909 -0.2396  0.1068
  139ACOH    H310012   3.015   7.904   2.569 -1.5326 -0.3641  0.5979
  140ACOH    H410013   5.877   2.725   4.686  1.0631 -1.0175  1.8432
  140ACOH    O210014   5.936   2.673   4.629 -0.4077 -0.5178 -0.2018
  140ACOH    C210015   6.060   2.707   4.681  0.1044  0.9201  0.8454
  140ACOH    O110016   6.090   2.790   4.766  0.7453  0.1219  0.3904
  140ACOH    C110017   6.170   2.637   4.605 -0.2074  0.4466  0.1966
  140ACOH    H110018   6.174   2.535   4.642  1.2981 -0.4233 -2.2425
  140ACOH    H210019   6.263   2.689   4.628  0.7028 -0.8957 -0.3675
  140ACOH    H310020   6.158   2.637   4.497 -1.4465  0.6678  0.3319
  141ACOH    H410021   9.445   9.090   2.454  0.6463 -1.4092  0.2231
  141ACOH    O210022   9.513   9.143   2.410 -0.1439 -0.6407 -0.0956
  141ACOH    C210023   9.618   9.153   2.487  0.2531  0.5449  0.3228
  141ACOH    O110024   9.636   9.095   2.594 -0.0039 -0.0907 -0.5085
  141ACOH    C110025   9.730   9.235   2.428 -0.2105 -0.2442  0.3086
  141ACOH    H110026   9.814   9.246   2.497  0.5640 -1.1089 -0.4864
  141ACOH    H210027   9.694   9.334   2.402  0.0034 -0.5909 -1.3275
  141ACOH    H310028   9.772   9.184   2.341 -2.8862  0.5329 -1.4855
  142ACOH    H410029   5.102   7.387   1.925  0.1165 -0.1647 -0.1748
  142ACOH    O210030   5.169   7.447   1.890  0.0016 -0.0282 -0.1615
  142ACOH    C210031   5.222   7.382   1.792 -0.1074 -0.0047 -0.6860
  142ACOH    O110032   5.215   7.264   1.765  0.3404  0.3236 -0.0021
  142ACOH    C110033   5.300   7.484   1.711  0.6646  0.0662  0.4269
  142ACOH    H110034   5.399   7.491   1.755  1.5335 -0.0585 -1.4908
  142ACOH    H210035   5.249   7.579   1.724 -2.3592 -1.7861  3.1091
  142ACOH    H310036   5.304   7.453   1.607 -1.6922  2.3862 -0.4127
  143ACOH    H410037   8.470   8.449   6.767 -0.6277  0.3688  0.2535
  143ACOH    O210038   8.549   8.504   6.753 -1.0356  0.8751 -0.0671
  143ACOH    C210039   8.560   8.576   6.634  0.1197  0.1729 -0.0594
  143ACOH    O110040   8.474   8.583   6.548  0.1593 -0.5771  0.5175
  143ACOH    C110041   8.703   8.618   6.610  0.4291  0.1048  0.2604
  143ACOH    H110042   8.769   8.538   6.643 -0.6031  0.0389  2.2747
  143ACOH    H210043   8.727   8.700   6.676  1.4244 -0.1709  0.2414
  143ACOH    H310044   8.722   8.640   6.505 -1.3272  1.9013  0.3000
  144ACOH    H410045   7.660   4.114   1.906 -0.4439  0.0842 -0.1258
  144ACOH    O210046   7.715   4.184   1.866 -0.2454  0.0142  0.0265
  144ACOH    C210047   7.685   4.201   1.737 -0.5823  0.4184  0.7112
  144ACOH    O110048   7.588   4.160   1.671 -0.4197 -0.0102 -0.3187
  144ACOH    C110049   7.799   4.273   1.678  0.4732 -0.4246 -0.2385
  144ACOH    H110050   7.893   4.219   1.687  0.7083  0.1407  0.6714
  144ACOH    H210051   7.815   4.362   1.738 -1.8907  0.5970 -1.0498
  144ACOH    H310052   7.775   4.307   1.577 -0.6965 -1.9672 -0.5190
  145ACOH    H410053   4.768   6.633   0.272  2.0438  0.2604  0.0054
  145ACOH    O210054   4.750   6.724   0.245  0.1931  0.0395  0.4349
  145ACOH    C210055   4.653   6.723   0.145 -0.0349 -0.5191  0.7102
  145ACOH    O110056   4.595   6.624   0.111  0.2933 -0.0511  0.4213
  145ACOH    C110057   4.642   6.853   0.085  0.8863 -0.3229  0.1352
  145ACOH    H110058   4.537   6.876   0.073  0.2459 -2.3081  1.6151
  145ACOH    H210059   4.694   6.852  -0.011 -0.5027  0.4942 -0.6369
  145ACOH    H310060   4.691   6.930   0.144 -0.7445  2.0263 -1.4916
  146ACOH    H410061   0.174   0.783   3.365  2.1739  0.6616 -0.1601
  146ACOH    O210062   0.183   0.694   3.327 -0.0705  0.7166 -0.9193
  146ACOH    C210063   0.297   0.643   3.376  0.1607  0.1213  0.4919
  146ACOH    O110064   0.363   0.693   3.469  0.2470  0.2578 -0.0308
  146ACOH    C110065   0.343   0.527   3.306  0.3649  0.5091  0.5806
  146ACOH    H110066   0.259   0.480   3.256 -0.7421  2.6556  0.3824
  146ACOH    H210067   0.380   0.453   3.378 -0.7692  0.1201  0.7688
  146ACOH    H310068   0.423   0.561   3.240  1.0933 -1.7432  0.2474
  147ACOH    H410069   5.052   4.995   2.087 -0.9630  0.3482  1.7908
  147ACOH    O210070   5.058   5.090   2.065 -0.4405 -0.0267  0.2788
  147ACOH    C210071   5.175   5.110   1.995  0.4987 -0.1745  0.4190
  147ACOH    O110072   5.269   5.031   2.001 -0.1943  0.0720  0.0762
  147ACOH    C110073   5.187   5.248   1.961 -0.9025 -0.5472  0.0212
  147ACOH    H110074   5.209   5.299   2.055 -1.7769  1.9877 -1.1034
  147ACOH    H210075   5.093   5.291   1.927 -0.4683 -1.7108 -2.7781
  147ACOH    H310076   5.266   5.276   1.890 -1.9724  1.9141 -0.2394
  148ACOH    H410077   6.023   4.135   1.450 -1.3296 -0.3259 -0.0253
  148ACOH    O210078   6.074   4.058   1.419  0.1756  0.3243  0.7394
  148ACOH    C210079   6.047   4.031   1.294  0.0800 -0.1811 -0.1938
  148ACOH    O110080   5.945   4.063   1.239  0.1974 -0.2548 -0.7231
  148ACOH    C110081   6.101   3.903   1.249  0.3929 -0.6503 -0.3607
  148ACOH    H110082   6.023   3.828   1.264  0.1303 -0.1781  0.6636
  148ACOH    H210083   6.180   3.862   1.311 -0.8954 -1.5234  0.7187
  148ACOH    H310084   6.134   3.914   1.146  3.3704  2.8029  0.8641
  149ACOH    H410085   6.629   6.624   6.528  1.4725 -1.8646 -0.0738
  149ACOH    O210086   6.666   6.635   6.618  1.0419  0.6248 -0.1701
  149ACOH    C210087   6.745   6.521   6.641 -0.0011  0.3061 -0.8070
  149ACOH    O110088   6.746   6.422   6.573  0.0334 -0.1318 -0.3352
  149ACOH    C110089   6.801   6.528   6.781  0.1107 -0.3786  0.0655
  149ACOH    H110090   6.753   6.442   6.829 -1.4581  0.8656  0.8003
  149ACOH    H210091   6.796   6.624   6.833  3.5732  0.8577 -1.7369
  149ACOH    H310092   6.908   6.509   6.776  0.5265  1.9460 -0.1632
  150ACOH    H410093   5.004   3.885   5.456  2.3478 -0.0973  1.9277
  150ACOH    O210094   4.948   3.954   5.494  0.0560 -0.4923 -0.5521
  150ACOH    C210095   4.847   3.981   5.410  0.3998  0.4416 -0.0595
  150ACOH    O110096   4.837   3.940   5.297 -0.2614 -0.2622 -0.7031
  150ACOH    C110097   4.768   4.098   5.464  0.2065  0.1913  0.0236
  150ACOH    H110098   4.695   4.135   5.392  0.7574 -0.9661 -1.1518
  150ACOH    H210099   4.837   4.172   5.504 -0.7915  0.8024  0.6624
  150ACOH    H310100   4.711   4.065   5.552  2.1174  0.1370  1.2757
  151ACOH    H410101   4.598   2.971   5.919 -0.1791 -0.8035 -0.3974
  151ACOH    O210102   4.612   2.911   5.994 -0.9364 -0.0527  0.3540
  151ACOH    C210103   4.697   2.819   5.943 -0.2438 -0.4295 -0.6263
  151ACOH    O110104   4.724   2.799   5.824 -0.2841 -0.2101  0.0942
  151ACOH    C110105   4.719   2.711   6.042 -0.0962 -0.5866 -0.2370
  151ACOH    H110106   4.700   2.757   6.140  0.9132  1.9495 -1.1858
  151ACOH    H210107   4.824   2.685   6.040  0.0667  0.1302 -1.0294
  151ACOH    H310108   4.665   2.617   6.031  0.1924 -0.9411  1.1788
  152ACOH    H410109   1.823   8.134   2.970 -0.6389 -0.1139  0.4437
  152ACOH    O210110   1.817   8.225   3.004 -0.2128  0.0395  0.1157
  152ACOH    C210111   1.688   8.249   3.046 -0.4052 -0.4233  0.3342
  152ACOH    O110112   1.595   8.176   3.024  0.4874  0.0659 -0.6840
  152ACOH    C110113   1.681   8.379   3.113  0.3985 -0.1312 -0.7678
  152ACOH    H110114   1.727   8.363   3.210  0.5910  0.3155 -0.7843
  152ACOH    H210115   1.579   8.414   3.133 -0.8111 -2.9241 -1.7793
  152ACOH    H310116   1.730   8.455   3.052  2.9884 -1.7932 -0.8230
  153ACOH    H410117   0.676   5.211   1.967 -0.3100 -0.8223  3.7481
  153ACOH    O210118   0.769   5.234   1.986  0.4687 -0.3073 -0.1025
  153ACOH    C210119   0.781   5.234   2.119  0.0488 -0.3149  0.5361
  153ACOH    O110120   0.692   5.235   2.206 -0.1999  0.7867 -0.0387
  153ACOH    C110121   0.929   5.240   2.152 -0.0738 -0.0580 -0.5324
  153ACOH    H110122   0.977   5.153   2.108  1.1882  0.7537 -0.7898
  153ACOH    H210123   0.935   5.224   2.259  3.5491  3.3637 -0.1277
  153ACOH    H310124   0.975   5.334   2.121  0.8134 -0.6566 -1.0438
  154ACOH    H410125   0.384   2.894   4.210 -1.1523  0.8456 -1.1432
  154ACOH    O210126   0.308   2.878   4.270 -0.0296  0.9198  0.3214
  154ACOH    C210127   0.248   2.763   4.229  0.7478 -0.1512 -0.2422
  154ACOH    O110128   0.285   2.699   4.133  0.2600 -0.2944  0.3776
  154ACOH    C110129   0.132   2.723   4.316 -0.4216 -0.2210  0.2534
  154ACOH    H110130   0.148   2.745   4.422 -0.8672  0.3295  0.2104
  154ACOH    H210131   0.104   2.618   4.307  0.3973 -0.4966  0.8781
  154ACOH    H310132   0.042   2.781   4.292 -0.9148 -0.5456  1.2703
  155ACOH    H410133   5.599   2.455   0.901  1.7341  1.8931  0.7581
  155ACOH    O210134   5.639   2.424   0.984  0.6142 -0.2663  0.5356
  155ACOH    C210135   5.602   2.292   0.977  0.0631  0.3075 -0.7369
  155ACOH    O110136   5.553   2.228   0.888  0.0421  0.4154  0.1098
  155ACOH    C110137   5.636   2.219   1.102 -0.2917  0.0422 -0.3896
  155ACOH    H110138   5.553   2.230   1.172 -1.1801 -0.6757 -1.3279
  155ACOH    H210139   5.729   2.264   1.140  0.2117  0.1605 -1.7444
  155ACOH    H310140   5.645   2.112   1.085  2.1290  0.2437 -0.5556
  156ACOH    H410141   4.736   7.634   5.280  0.8755 -1.1634  0.7889
  156ACOH    O210142   4.772   7.600   5.197  0.2921  0.5843 -0.1895
  156ACOH    C210143   4.673   7.549   5.132 -0.4319 -0.1315  0.5817
  156ACOH    O110144   4.563   7.544   5.179  0.8217 -0.1875  0.1103
  156ACOH    C110145   4.717   7.480   5.010 -0.2113  0.0149  0.6049
  156ACOH    H110146   4.654   7.516   4.928 -0.8019  1.2946  1.5910
  156ACOH    H210147   4.704   7.374   5.033  0.9139  0.3876  3.0856
  156ACOH    H310148   4.820   7.504   4.987 -0.1231 -1.0612 -0.1408
  157ACOH    H410149   6.565   2.930   1.928 -1.4320  0.6209  1.3171
  157ACOH    O210150   6.495   2.907   1.865 -0.2333  0.3568  0.0600
  157ACOH    C210151   6.538   2.826   1.771 -0.2270 -0.1668 -0.4229
  157ACOH    O110152   6.652   2.817   1.739 -0.4444 -0.4110 -0.0441
  157ACOH    C110153   6.431   2.750   1.712 -0.1501 -0.0378  0.5457
  157ACOH    H110154   6.426   2.747   1.603 -0.3142  0.1592  0.5482
  157ACOH    H210155   6.335   2.796   1.733 -0.3854 -0.5258  0.5526
  157ACOH    H310156   6.427   2.649   1.754  2.1859 -0.9140 -1.1916
  158ACOH    H410157   7.710   7.892   1.727  0.0687 -0.3740 -1.2049
  158ACOH    O210158   7.690   7.972   1.677 -0.1015 -0.1144 -0.7281
  158ACOH    C210159   7.669   8.077   1.760 -0.4287 -0.3925  0.5499
  158ACOH    O110160   7.674   8.081   1.883  0.3628 -0.3076 -0.4883
  158ACOH    C110161   7.623   8.196   1.679 -0.8505 -0.3325  1.3014
  158ACOH    H110162   7.628   8.178   1.572  0.1957  0.5635  1.1851
  158ACOH    H210163   7.675   8.287   1.710 -0.8821  0.2223 -0.2214
  158ACOH    H310164   7.518   8.222   1.697 -0.9144  1.2038 -1.0960
  159ACOH    H410165   4.515   7.519   5.749 -3.0384  1.0937  1.6639
  159ACOH    O210166   4.493   7.425   5.749 -0.0323  0.3291  0.2033
  159ACOH    C210167   4.358   7.409   5.768 -0.3576 -0.1264  0.0117
  159ACOH    O110168   4.275   7.495   5.801 -0.4786 -0.4692  0.1119
  159ACOH    C110169   4.299   7.280   5.724  0.1223 -0.0500 -0.3899
  159ACOH    H110170   4.190   7.284   5.730  0.2429  0.4664  1.7952
  159ACOH    H210171   4.337   7.196   5.782 -0.2911 -0.2190 -0.3646
  159ACOH    H310172   4.326   7.263   5.620  2.0311 -1.0484  0.2355
  160ACOH    H410173   0.723   1.965   4.413 -0.7192 -0.3802  1.4050
  160ACOH    O210174   0.734   1.870   4.396  0.5155  0.1112 -0.7489
  160ACOH    C210175   0.676   1.800   4.502  0.8491  0.4247 -0.8688
  160ACOH    O110176   0.596   1.835   4.588 -0.7449 -0.4170 -1.0294
  160ACOH    C110177   0.723   1.654   4.507  0.2660 -0.6033 -0.5666
  160ACOH    H110178   0.788   1.623   4.425  1.8218 -0.6028  0.6438
  160ACOH    H210179   0.631   1.597   4.493  0.4056 -0.5274 -1.8976
  160ACOH    H310180   0.764   1.636   4.606 -0.3241  0.0420 -0.2051
  161ACOH    H410181   4.122   7.084   0.417 -0.0760  0.2859 -2.2010
  161ACOH    O210182   4.117   7.168   0.464 -0.0941 -0.8658 -0.0955
  161ACOH    C210183   4.241   7.216   0.486 -0.0918  0.1708 -0.3470
  161ACOH    O110184   4.344   7.151   0.481  0.1721 -0.3480  0.5817
  161ACOH    C110185   4.243   7.349   0.544 -0.1321  0.9491  0.0609
  161ACOH    H110186   4.199   7.417   0.471 -1.4623 -2.0535 -2.0089
  161ACOH    H210187   4.345   7.381   0.567  0.7469  0.0633 -2.4266
  161ACOH    H310188   4.175   7.346   0.629 -0.2628 -2.2448 -0.1307
  162ACOH    H410189   4.458   7.653   1.098  0.2389 -1.0967 -1.9707
  162ACOH    O210190   4.468   7.736   1.049 -0.6029  0.1699 -0.0062
  162ACOH    C210191   4.444   7.716   0.920  0.6008  0.9279 -0.1778
  162ACOH    O110192   4.471   7.611   0.864 -0.1241  0.2720  0.3343
  162ACOH    C110193   4.430   7.848   0.850  0.2619  0.2923  0.7315
  162ACOH    H110194   4.330   7.889   0.868 -0.5849 -1.4926  0.1427
  162ACOH    H210195   4.441   7.825   0.744 -3.3287 -1.6107  0.6898
  162ACOH    H310196   4.503   7.923   0.881  1.7872 -1.1694  0.7092
  163ACOH    H410197   6.232   5.185   7.264  1.0490  0.3373  0.1231
  163ACOH    O210198   6.187   5.269   7.285 -0.0324 -0.2795  0.3282
  163ACOH    C210199   6.061   5.248   7.272  0.7198 -0.3723 -0.1640
  163ACOH    O110200   5.999   5.141   7.251  0.5591  0.6547  0.3336
  163ACOH    C110201   5.988   5.363   7.332 -0.4071 -0.1684 -0.6386
  163ACOH    H110202   5.924   5.404   7.254 -1.5368 -0.1635  0.2803
  163ACOH    H210203   6.056   5.438   7.373 -0.7159 -0.4900  0.4767
  163ACOH    H310204   5.931   5.339   7.422  0.5487  1.3819  0.4022
  164ACOH    H410205   4.376   2.363   5.952  1.5532 -1.4841 -0.9446
  164ACOH    O210206   4.344   2.275   5.976 -0.2919 -0.5564  0.0909
  164ACOH    C210207   4.442   2.183   5.975  0.1686 -0.1453 -0.0462
  164ACOH    O110208   4.554   2.200   5.934  0.3861 -0.4052 -0.0249
  164ACOH    C110209   4.404   2.058   6.040 -0.4795 -0.1595 -0.6041
  164ACOH    H110210   4.320   2.014   5.986 -1.1630 -0.9295  1.0596
  164ACOH    H210211   4.372   2.085   6.141 -0.0282 -0.6920 -0.3157
  164ACOH    H310212   4.488   1.989   6.041 -0.3566 -0.0848  3.1672
  165ACOH    H410213   8.591   0.582   1.955  0.4232 -0.4837  0.2325
  165ACOH    O210214   8.673   0.633   1.949 -0.0773  0.3362  0.2821
  165ACOH    C210215   8.647   0.733   1.856  0.4779  0.4911 -0.2300
  165ACOH    O110216   8.534   0.772   1.836  0.0640  0.1193  0.1704
  165ACOH    C110217   8.770   0.818   1.832  0.0386  0.1447  0.0605
  165ACOH    H110218   8.861   0.781   1.880 -0.0545 -0.4573 -0.2199
  165ACOH    H210219   8.762   0.926   1.835  1.0211  0.2826 -1.6854
  165ACOH    H310220   8.802   0.786   1.733 -0.3857  0.5180 -0.1978
  166ACOH    H410221   4.746   4.239   3.667  0.3052 -0.8420  0.0920
  166ACOH    O210222   4.724   4.231   3.762 -0.6553  0.2603 -0.0256
  166ACOH    C210223   4.842   4.214   3.831  0.1430 -0.2934  0.1034
  166ACOH    O110224   4.946   4.171   3.790  0.1389 -0.5751  0.4897
  166ACOH    C110225   4.795   4.207   3.975  0.5287  0.1826 -0.1070
  166ACOH    H110226   4.692   4.170   3.974  1.5973 -2.9981  1.2418
  166ACOH    H210227   4.813   4.308   4.014  2.2675  0.2032 -0.9254
  166ACOH    H310228   4.861   4.135   4.024 -3.5544 -2.7587  1.3192
  167ACOH    H410229   6.909   2.743   6.134  0.2092  0.5294 -0.2996
  167ACOH    O210230   6.994   2.766   6.094  0.2048  0.0824 -0.5659
  167ACOH    C210231   6.958   2.849   5.994 -0.1727 -0.2101  0.8667
  167ACOH    O110232   6.867   2.838   5.918  0.3145  0.5404 -0.6291
  167ACOH    C110233   7.078   2.929   5.957 -0.4787  0.0919 -0.4230
  167ACOH    H110234   7.060   3.014   5.891  1.5678  0.0418 -1.0864
  167ACOH    H210235   7.152   2.863   5.911 -0.1484 -1.9739  2.9241
  167ACOH    H310236   7.129   2.963   6.048  0.8222  1.4539 -1.6286
  168ACOH    H410237   3.504   7.170   5.423 -1.2887 -0.4313  0.3081
  168ACOH    O210238   3.571   7.100   5.435 -0.3080  0.4740  0.2124
  168ACOH    C210239   3.699   7.143   5.438  0.3006 -0.4869  0.0281
  168ACOH    O110240   3.725   7.257   5.407  0.0244  0.7509 -0.2703
  168ACOH    C110241   3.798   7.039   5.480  0.2834 -0.0556 -0.1950
  168ACOH    H110242   3.903   7.069   5.476 -0.5591  3.1495  0.3038
  168ACOH    H210243   3.790   6.963   5.402 -4.3859 -0.0427  0.1733
  168ACOH    H310244   3.786   6.992   5.578  0.0448  1.2245  0.3967
  169ACOH    H410245   4.097   4.647   5.554 -1.2510  1.7707 -0.4001
  169ACOH    O210246   4.164   4.657   5.624 -0.8099  0.1917 -0.5628
  169ACOH    C210247   4.098   4.661   5.734 -0.0238 -0.1780 -0.8570
  169ACOH    O110248   3.985   4.620   5.756  0.1704  0.4436 -0.5454
  169ACOH    C110249   4.160   4.751   5.833  0.3579 -0.0860  0.4653
  169ACOH    H110250   4.172   4.851   5.792  0.4796  0.3599  1.5643
  169ACOH    H210251   4.258   4.712   5.863  0.0155 -0.2678  1.3708
  169ACOH    H310252   4.104   4.758   5.926  0.5335 -0.6794  0.6148
  170ACOH    H410253   3.656   7.156   3.377 -0.3430 -1.5849 -0.2399
  170ACOH    O210254   3.671   7.176   3.283 -0.1450 -0.1627  0.0876
  170ACOH    C210255   3.798   7.155   3.250 -0.0291 -0.7710  0.6300
  170ACOH    O110256   3.892   7.133   3.325  0.6385 -0.3203  0.5874
  170ACOH    C110257   3.808   7.158   3.101 -0.0519  0.0516  0.0094
  170ACOH    H110258   3.757   7.071   3.060  0.4888 -0.0358 -0.4795
  170ACOH    H210259   3.914   7.155   3.076  0.4017  1.0884  1.7368
  170ACOH    H310260   3.754   7.244   3.061 -1.3315  0.0090  1.5759
  171ACOH    H410261   5.334   3.144   5.624 -2.5413  1.7911  0.2565
  171ACOH    O210262   5.297   3.069   5.673  0.4284  0.0376 -0.0235
  171ACOH    C210263   5.406   2.986   5.687  0.3822  0.2673 -0.4160
  171ACOH    O110264   5.519   3.019   5.661  0.1485  0.9074 -1.1456
  171ACOH    C110265   5.377   2.846   5.743 -0.9966 -0.2939 -0.2716
  171ACOH    H110266   5.444   2.832   5.828 -0.4474 -0.2026 -0.6855
  171ACOH    H210267   5.398   2.776   5.662 -0.1751  0.8482 -1.0676
  171ACOH    H310268   5.275   2.842   5.781 -0.2683  0.4524  1.8737
  172ACOH    H410269   6.514   4.266   2.424  0.6758 -0.4007 -0.0978
  172ACOH    O210270   6.506   4.175   2.457  0.1349 -0.0935  0.6256
  172ACOH    C210271   6.603   4.145   2.545 -0.0751 -0.3760  0.1078
  172ACOH    O110272   6.705   4.206   2.566 -0.4803  0.2903 -0.1503
  172ACOH    C110273   6.583   4.006   2.592 -0.2548  0.2482 -0.5779
  172ACOH    H110274   6.675   3.968   2.636  1.2602  3.2676 -1.0076
  172ACOH    H210275   6.566   3.945   2.503  1.2219  0.6201 -1.1365
  172ACOH    H310276   6.503   4.004   2.665 -0.2957  0.2477 -0.6226
  173ACOH    H410277   6.620   1.121   6.980  0.2100  0.0052 -2.1227
  173ACOH    O210278   6.640   1.026   6.991 -0.0845  0.1183 -0.5715
  173ACOH    C210279   6.766   1.036   7.047  0.6617 -0.0370  0.4913
  173ACOH    O110280   6.831   1.135   7.073  0.2218  0.2348  0.3149
  173ACOH    C110281   6.802   0.900   7.104 -0.3804  0.2857 -0.5316
  173ACOH    H110282   6.746   0.820   7.056 -1.4134  0.5873  0.1479
  173ACOH    H210283   6.789   0.906   7.212  0.2177  0.3959 -0.4642
  173ACOH    H310284   6.908   0.878   7.088 -0.2391  1.6069 -1.5551
  174ACOH    H410285   4.023   7.632   0.863  1.2534  0.4779 -1.5247
  174ACOH    O210286   3.952   7.697   0.852 -0.0252 -0.5986  0.0313
  174ACOH    C210287   3.993   7.785   0.949  0.7608 -0.4435 -0.0502
  174ACOH    O110288   4.102   7.803   1.006  0.5961 -0.0172  0.1344
  174ACOH    C110289   3.884   7.879   0.975 -0.0105  0.2829  0.0521
  174ACOH    H110290   3.793   7.819   0.968  0.7152 -0.7101 -1.1275
  174ACOH    H210291   3.890   7.946   0.889  1.8590  0.6085  0.4135
  174ACOH    H310292   3.891   7.929   1.072  1.7806  1.7694 -0.8137
  175ACOH    H410293   5.230   1.204   0.198  0.1056  0.6651 -0.8622
  175ACOH    O210294   5.258   1.129   0.142 -0.0386 -0.1585  0.1571
  175ACOH    C210295   5.358   1.171   0.060  0.2311  0.3778 -0.4792
  175ACOH    O110296   5.408   1.283   0.065  0.4221  0.6101  0.1708
  175ACOH    C110297   5.395   1.065  -0.036 -0.4826  0.5239 -0.0717
  175ACOH    H110298   5.314   1.048  -0.107 -1.7898  0.2837  1.4376
  175ACOH    H210299   5.428   0.973   0.012 -2.0595 -0.2141 -0.3749
  175ACOH    H310300   5.479   1.103  -0.093 -0.5881 -0.1745 -0.6936
  176ACOH    H410301   8.394   3.581   6.354 -1.1001 -0.6522 -0.9140
  176ACOH    O210302   8.376   3.502   6.408  0.2365 -0.0204  0.4829
  176ACOH    C210303   8.475   3.418   6.381  0.2886 -0.4283  0.2120
  176ACOH    O110304   8.570   3.445   6.308 -0.4050 -0.9579  0.2093
  176ACOH    C110305   8.460   3.294   6.462 -0.5778  0.0324 -0.2265
  176ACOH    H110306   8.356   3.260   6.464 -0.3099 -0.7578  1.9986
  176ACOH    H210307   8.492   3.315   6.564 -0.4605  1.9800 -0.6588
  176ACOH    H310308   8.527   3.215   6.426  0.1254  0.2656  0.5701
  177ACOH    H410309   8.136   7.237   4.845 -0.7644 -0.9045  0.2457
  177ACOH    O210310   8.223   7.194   4.847 -0.3100 -0.0284 -0.2816
  177ACOH    C210311   8.286   7.239   4.955 -0.0272  0.0345  0.0251
  177ACOH    O110312   8.239   7.323   5.032 -0.1211 -0.9918  0.0786
  177ACOH    C110313   8.421   7.184   4.962  0.0207 -0.1132 -0.4843
  177ACOH    H110314   8.431   7.103   4.890 -3.3433 -0.0335 -1.1286
  177ACOH    H210315   8.434   7.145   5.063  3.2889  2.4361  0.1887
  177ACOH    H310316   8.493   7.260   4.933  0.8293 -1.4993 -2.1967
  178ACOH    H410317   8.033   5.840   3.608 -1.0996  0.8886  0.1362
  178ACOH    O210318   7.988   5.762   3.645 -0.2279  0.3952  0.1674
  178ACOH    C210319   7.910   5.710   3.551  0.2056  0.0006  0.1829
  178ACOH    O110320   7.887   5.762   3.443 -0.0405 -0.1812 -0.6927
  178ACOH    C110321   7.846   5.578   3.581 -0.0948 -0.5274 -0.2234
  178ACOH    H110322   7.826   5.508   3.500  0.9771 -2.6323  1.2674
  178ACOH    H210323   7.750   5.599   3.627  0.1633 -3.0273  1.5599
  178ACOH    H310324   7.897   5.522   3.660 -1.0668  0.1151  0.8594
  179ACOH    H410325   4.319   4.597   7.511  0.5277  0.7710  1.5909
  179ACOH    O210326   4.233   4.598   7.556 -0.2679 -0.4919  0.1362
  179ACOH    C210327   4.163   4.488   7.512  0.0496 -1.1520  0.1654
  179ACOH    O110328   4.217   4.387   7.473 -0.5636  0.3252  0.4208
  179ACOH    C110329   4.020   4.499   7.551 -0.3783 -0.1020 -0.1213
  179ACOH    H110330   4.009   4.516   7.658  1.3950  0.0498  0.0652
  179ACOH    H210331   3.968   4.407   7.525 -0.8377 -0.0658  0.6743
  179ACOH    H310332   3.977   4.585   7.500  1.8270  0.3300 -1.3341
  180ACOH    H410333   4.685   8.298   1.172  1.9980 -1.7263 -0.8389
  180ACOH    O210334   4.659   8.215   1.215 -0.7292 -0.3516  0.2377
  180ACOH    C210335   4.553   8.169   1.159 -0.1950 -0.3197 -1.1162
  180ACOH    O110336   4.467   8.235   1.101 -0.2734 -0.0825 -0.1820
  180ACOH    C110337   4.539   8.029   1.192 -0.3882  0.0126  0.0638
  180ACOH    H110338   4.498   7.977   1.105  0.3842  1.6536 -1.3194
  180ACOH    H210339   4.463   8.028   1.270  1.2118 -2.6957  1.6852
  180ACOH    H310340   4.632   7.982   1.225 -0.2388  0.8081  0.7788
  181ACOH    H410341   5.550   1.858   1.929 -0.4659 -0.2014 -0.1960
  181ACOH    O210342   5.629   1.801   1.925 -0.2672  0.0959 -0.6062
  181ACOH    C210343   5.621   1.757   2.056 -0.1559  0.0024  0.2951
  181ACOH    O110344   5.575   1.819   2.151 -0.2403 -0.0514  0.0937
  181ACOH    C110345   5.688   1.625   2.080  0.2174  0.3982  0.0145
  181ACOH    H110346   5.612   1.558   2.120 -0.6422  0.9799 -0.6309
  181ACOH    H210347   5.769   1.634   2.152  2.5644  0.0529 -2.5166
  181ACOH    H310348   5.724   1.585   1.985 -0.4337 -1.7984  0.6575
  182ACOH    H410349   6.927   3.391   3.302 -0.2553 -1.0106 -1.6718
  182ACOH    O210350   6.891   3.481   3.315  0.7339 -0.7682 -0.4999
  182ACOH    C210351   6.816   3.476   3.426  0.0725  0.3808 -0.1685
  182ACOH    O110352   6.771   3.371   3.475  0.1053 -0.1073 -0.4564
  182ACOH    C110353   6.771   3.618   3.449 -0.5725  0.8093 -0.0538
  182ACOH    H110354   6.732   3.662   3.357  0.5028  0.4523 -0.6924
  182ACOH    H210355   6.861   3.674   3.472  0.4325 -0.5983 -0.4820
  182ACOH    H310356   6.697   3.632   3.527  0.6918 -0.1890  1.3463
  183ACOH    H410357   7.191   4.408   3.491 -1.0045 -1.2915  0.9565
  183ACOH    O210358   7.113   4.452   3.454  0.3090 -0.1597 -0.5546
  183ACOH    C210359   7.096   4.403   3.330  0.0554  0.3479  0.1189
  183ACOH    O110360   7.152   4.302   3.285  0.0135  0.2779 -0.2838
  183ACOH    C110361   6.975   4.461   3.277  0.2005  0.8117 -0.0928
  183ACOH    H110362   6.927   4.382   3.220 -0.0735  0.2006  0.9761
  183ACOH    H210363   6.995   4.551   3.219  0.5068 -0.2279 -1.6160
  183ACOH    H310364   6.910   4.486   3.361 -0.5834  0.9511 -0.7350
  184ACOH    H410365   5.800   1.275   0.019 -0.1029 -0.1644  0.3322
  184ACOH    O210366   5.841   1.187   0.022  0.3327  0.0030 -0.3296
  184ACOH    C210367   5.855   1.132  -0.098  0.0162  0.1379  0.0746
  184ACOH    O110368   5.825   1.180  -0.207 -0.7861 -0.9188  0.1934
  184ACOH    C110369   5.911   0.996  -0.097 -0.1591 -0.0766 -0.0631
  184ACOH    H110370   5.855   0.946  -0.018  0.2783 -0.1264  0.2159
  184ACOH    H210371   6.014   0.998  -0.061 -0.3136 -0.6081  0.4210
  184ACOH    H310372   5.894   0.941  -0.190  2.9443  0.6828 -1.1588
  185ACOH    H410373   5.554   7.770   2.868 -0.2389  0.1370 -0.7802
  185ACOH    O210374   5.637   7.793   2.912 -0.0747 -0.4434 -0.7858
  185ACOH    C210375   5.706   7.873   2.830  0.0060 -0.3387  0.7897
  185ACOH    O110376   5.668   7.941   2.738  0.0378 -0.1447 -0.5102
  185ACOH    C110377   5.854   7.856   2.857 -0.4441  0.4290 -0.4172
  185ACOH    H110378   5.889   7.940   2.918  0.6374 -0.3435  0.0558
  185ACOH    H210379   5.914   7.863   2.766  2.1353 -1.4897  1.0610
  185ACOH    H310380   5.875   7.769   2.920  1.9935  1.2625 -0.0300
  186ACOH    H410381   0.043   2.132   2.298  1.9790  0.9988  0.0188
  186ACOH    O210382  -0.015   2.188   2.353  0.4869 -0.0144 -0.5233
  186ACOH    C210383  -0.081   2.263   2.263  0.0867  0.5289  0.1483
  186ACOH    O110384  -0.085   2.239   2.145  0.0406  0.4373  0.1534
  186ACOH    C110385  -0.157   2.369   2.329 -0.2271 -0.2628 -0.6216
  186ACOH    H110386  -0.215   2.333   2.414 -0.2176 -0.9245 -0.8941
  186ACOH    H210387  -0.224   2.430   2.268  0.9089  1.9551  0.2611
  186ACOH    H310388  -0.084   2.438   2.372 -2.8495  2.7328 -0.7523
  187ACOH    H410389   3.730   7.519   0.114 -1.4612  0.1661 -0.5998
  187ACOH    O210390   3.747   7.444   0.054 -0.2687 -0.3496  0.3508
  187ACOH    C210391   3.770   7.338   0.134 -0.1608  0.5288  0.5340
  187ACOH    O110392   3.758   7.345   0.255  0.4874  0.6049  0.0136
  187ACOH    C110393   3.800   7.221   0.047  0.1882  0.3170  0.4108
  187ACOH    H110394   3.899   7.184   0.073 -0.0422 -0.1676  0.5932
  187ACOH    H210395   3.789   7.246  -0.058  0.9798 -1.3184 -0.0718
  187ACOH    H310396   3.728   7.141   0.061 -0.1313  0.0939 -2.2606
  188ACOH    H410397   5.252   3.438   4.397 -0.3615  0.2230 -2.4619
  188ACOH    O210398   5.248   3.532   4.420  0.3996 -0.2389 -0.2887
  188ACOH    C210399   5.122   3.582   4.398 -0.4673  0.3432 -0.5194
  188ACOH    O110400   5.037   3.519   4.340  0.3745  0.3145 -0.1035
  188ACOH    C110401   5.112   3.727   4.430 -0.2408 -0.1900  0.0175
  188ACOH    H110402   5.022   3.768   4.385  1.2382  2.3336 -0.7191
  188ACOH    H210403   5.202   3.778   4.396  0.3756 -0.5602  1.0682
  188ACOH    H310404   5.110   3.738   4.538  0.2826 -2.5954  0.3111
  189ACOH    H410405   5.528   7.633   3.954  1.9657  1.3834 -1.9295
  189ACOH    O210406   5.522   7.566   3.883 -0.1487 -0.3094 -0.2157
  189ACOH    C210407   5.513   7.641   3.768 -0.6358  0.5794  0.3532
  189ACOH    O110408   5.516   7.766   3.773 -0.1015  0.3455 -0.7605
  189ACOH    C110409   5.502   7.562   3.641 -0.6385 -0.6377 -0.3982
  189ACOH    H110410   5.463   7.622   3.559  0.6065 -0.1393 -0.6385
  189ACOH    H210411   5.430   7.481   3.657 -1.5479  0.2422  0.0385
  189ACOH    H310412   5.604   7.541   3.609 -0.8087 -1.2558 -0.5448
  190ACOH    H410413   8.105   8.341   0.948 -0.1648 -0.6124  0.1994
  190ACOH    O210414   8.065   8.267   0.898 -0.1709 -0.4186 -0.0865
  190ACOH    C210415   8.073   8.164   0.988 -0.0029 -0.4589 -0.0311
  190ACOH    O110416   8.061   8.177   1.110 -0.2058  0.0184  0.2015
  190ACOH    C110417   8.019   8.042   0.924  0.4133 -1.0443 -0.7175
  190ACOH    H110418   7.914   8.051   0.896  0.2218 -0.2240  0.2598
  190ACOH    H210419   8.021   7.967   1.003 -0.2014  0.5137  0.7953
  190ACOH    H310420   8.082   8.008   0.842  1.1197 -0.3341 -0.4708
  191ACOH    H410421   8.746   7.587   2.685  0.8758 -1.1647  1.8694
  191ACOH    O210422   8.834   7.595   2.644 -0.0639 -0.4474 -0.0999
  191ACOH    C210423   8.912   7.656   2.734  0.3015  0.5373 -0.0215
  191ACOH    O110424   8.880   7.687   2.847 -0.1433 -0.2918 -0.9255
  191ACOH    C110425   9.052   7.693   2.681  0.1420  0.9905  0.8520
  191ACOH    H110426   9.047   7.773   2.607  1.3144  1.1797  0.9626
  191ACOH    H210427   9.107   7.606   2.647  1.2443  0.7761  3.0988
  191ACOH    H310428   9.113   7.717   2.768 -0.2484 -0.9868  1.6822
  192ACOH    H410429   4.433   8.131   7.193 -0.5422 -0.1279 -0.1999
  192ACOH    O210430   4.400   8.061   7.251  0.1120 -0.2297  0.0477
  192ACOH    C210431   4.479   8.060   7.357 -0.3736 -0.3830 -0.3368
  192ACOH    O110432   4.550   8.152   7.391 -0.8231  0.3252 -0.0822
  192ACOH    C110433   4.455   7.944   7.442 -0.1714  0.1416 -0.7842
  192ACOH    H110434   4.371   7.886   7.404  0.0056 -0.3123 -0.4956
  192ACOH    H210435   4.441   7.969   7.548  1.3331  1.2205 -0.8268
  192ACOH    H310436   4.544   7.882   7.452 -0.0915  0.4593  0.6734
  193ACOH    H410437   4.497   4.032   5.666  1.8624 -1.2562 -1.3043
  193ACOH    O210438   4.563   4.089   5.707  0.3689 -0.2127 -0.2940
  193ACOH    C210439   4.492   4.173   5.790  0.1825 -0.3335  0.7004
  193ACOH    O110440   4.378   4.153   5.826 -0.8032  0.2233 -0.2811
  193ACOH    C110441   4.588   4.268   5.852 -0.0335 -0.0749  0.0485
  193ACOH    H110442   4.602   4.239   5.956  1.9580  0.9502  0.0853
  193ACOH    H210443   4.549   4.370   5.852 -1.3281 -0.5436  2.1582
  193ACOH    H310444   4.679   4.277   5.793 -0.2762 -0.2398 -0.3505
  194ACOH    H410445   4.347   8.284   6.751 -0.2290  0.5787 -0.7760
  194ACOH    O210446   4.298   8.202   6.770  0.5287  0.3481  0.1765
  194ACOH    C210447   4.222   8.171   6.662  0.3470  0.0126 -0.9002
  194ACOH    O110448   4.173   8.255   6.587  0.1748  0.2137 -0.0550
  194ACOH    C110449   4.160   8.035   6.676  0.1502 -0.4662  0.1562
  194ACOH    H110450   4.223   7.969   6.617 -0.1761 -1.8553  1.3285
  194ACOH    H210451   4.057   8.029   6.640  0.3793  0.0552 -0.5906
  194ACOH    H310452   4.150   8.006   6.781  0.7595  1.3012  0.7278
  195ACOH    H410453   9.979   0.527   6.467  1.3499 -2.8029  2.8193
  195ACOH    O210454  10.066   0.569   6.452 -0.3798  0.0283  0.1473
  195ACOH    C210455  10.073   0.676   6.533 -0.3846 -0.4906 -0.3636
  195ACOH    O110456   9.977   0.727   6.591  0.5973  0.3510 -0.1508
  195ACOH    C110457  10.210   0.737   6.543 -0.1025 -0.3380 -0.1434
  195ACOH    H110458  10.207   0.835   6.496 -0.0850 -1.4019 -2.4412
  195ACOH    H210459  10.293   0.681   6.499 -0.0264 -0.5427  0.2567
  195ACOH    H310460  10.237   0.737   6.648  1.0504 -1.1741 -0.4238
  196ACOH    H410461   6.205   6.022   0.348  0.5539  0.3748 -1.2377
  196ACOH    O210462   6.167   6.096   0.397 -0.2637 -0.3724 -0.7264
  196ACOH    C210463   6.147   6.198   0.314 -0.1026 -0.1007  0.6271
  196ACOH    O110464   6.131   6.190   0.194  0.3433  0.3507 -0.4815
  196ACOH    C110465   6.102   6.317   0.389 -0.3986 -0.1989 -0.3168
  196ACOH    H110466   6.165   6.338   0.475  0.7025  0.0764 -1.1952
  196ACOH    H210467   6.000   6.304   0.426 -0.3059 -2.1518 -0.6731
  196ACOH    H310468   6.104   6.406   0.327 -1.6643 -0.8472 -1.3266
  197ACOH    H410469   7.100   4.233   6.164  0.1560 -0.6881  1.0755
  197ACOH    O210470   7.049   4.150   6.158 -0.0476 -0.5127  0.3064
  197ACOH    C210471   7.127   4.050   6.134 -0.2040 -0.1352 -0.0151
  197ACOH    O110472   7.244   4.039   6.103 -0.5238 -0.6779  0.3821
  197ACOH    C110473   7.046   3.926   6.131 -0.3099  0.2886 -0.2581
  197ACOH    H110474   7.106   3.835   6.124 -1.9706 -0.9285  0.7524
  197ACOH    H210475   6.974   3.923   6.048  0.1112  0.0507 -0.6182
  197ACOH    H310476   6.994   3.909   6.225  1.0916  1.8527  0.8224
  198ACOH    H410477   7.715   4.554   5.235 -0.0020 -0.7039 -1.0940
  198ACOH    O210478   7.646   4.514   5.291  0.4386  0.6142  0.4084
  198ACOH    C210479   7.570   4.617   5.339  0.5622 -0.2850  0.1926
  198ACOH    O110480   7.605   4.734   5.363 -0.7015  0.4070 -0.2022
  198ACOH    C110481   7.448   4.573   5.405  0.1011 -0.2433  0.1120
  198ACOH    H110482   7.365   4.643   5.412  0.4895  0.1117  1.1873
  198ACOH    H210483   7.477   4.542   5.505 -1.6908  1.6909  1.2580
  198ACOH    H310484   7.415   4.482   5.354  1.7934 -0.6999 -0.2177
  199ACOH    H410485   7.588   6.461   1.675  0.9894 -0.1761  1.3688
  199ACOH    O210486   7.532   6.528   1.717  0.0136 -0.1707  0.1029
  199ACOH    C210487   7.431   6.549   1.628  0.5394 -0.7592 -0.0431
  199ACOH    O110488   7.390   6.479   1.534  0.2035  0.3118  0.1725
  199ACOH    C110489   7.349   6.669   1.662 -0.0133 -0.1075 -0.1042
  199ACOH    H110490   7.245   6.648   1.684 -0.2314  0.1127 -0.9129
  199ACOH    H210491   7.354   6.727   1.569 -1.8245  0.5844  0.2150
  199ACOH    H310492   7.395   6.728   1.741  0.1382  0.0575 -0.3148
  200ACOH    H410493   5.882   0.431   7.072  0.2405 -0.7710 -1.7477
  200ACOH    O210494   5.978   0.447   7.076 -0.0122  0.5108 -0.5323
  200ACOH    C210495   6.006   0.555   7.004  0.3783  0.6572  0.1222
  200ACOH    O110496   5.951   0.663   6.999 -0.1985  0.0286 -0.1317
  200ACOH    C110497   6.147   0.537   6.959  0.4026  0.3030 -0.8967
  200ACOH    H110498   6.208   0.495   7.039 -0.2912 -0.7203 -0.8942
  200ACOH    H210499   6.199   0.628   6.929  0.5682  0.3111 -0.5875
  200ACOH    H310500   6.147   0.460   6.882 -1.1925 -1.9417  1.2634
  201ACOH    H410501   5.627   7.864   3.387 -1.0648 -1.3668  2.1192
  201ACOH    O210502   5.678   7.790   3.349 -0.6248  0.0870 -0.2282
  201ACOH    C210503   5.598   7.730   3.265 -0.1551 -0.2055  0.1991
  201ACOH    O110504   5.482   7.753   3.234  0.5245  0.1386 -0.0874
  201ACOH    C110505   5.682   7.623   3.203 -0.6038  0.1475 -0.3211
  201ACOH    H110506   5.696   7.653   3.099  0.2422 -0.4297 -0.3776
  201ACOH    H210507   5.622   7.532   3.197 -0.5208  0.1500 -1.2668
  201ACOH    H310508   5.777   7.600   3.253 -2.3645  0.8765  3.5115
  202ACOH    H410509   8.463   7.861   0.290 -1.2046  0.7956  0.1572
  202ACOH    O210510   8.516   7.921   0.237 -0.1072 -0.0500  0.2863
  202ACOH    C210511   8.620   7.946   0.321 -0.2749  0.1909 -0.0219
  202ACOH    O110512   8.661   7.863   0.399  0.1775 -0.0444  0.2384
  202ACOH    C110513   8.700   8.065   0.288  0.0861 -0.2727 -0.3126
  202ACOH    H110514   8.722   8.119   0.380 -0.2450  1.3988 -1.1813
  202ACOH    H210515   8.662   8.139   0.217 -2.5715 -0.9064  0.4023
  202ACOH    H310516   8.793   8.037   0.239  0.7844  0.2338  0.7124
  203ACOH    H410517   5.604   5.101   2.158 -1.3599  2.7297 -1.4898
  203ACOH    O210518   5.531   5.122   2.219 -0.9882  0.0452 -0.0370
  203ACOH    C210519   5.457   5.017   2.253  0.5583  0.3358 -1.0429
  203ACOH    O110520   5.491   4.899   2.235 -0.9616  0.0653 -0.0173
  203ACOH    C110521   5.339   5.061   2.329  0.5111 -0.1614  0.0552
  203ACOH    H110522   5.294   4.983   2.390  3.5495 -0.7194  1.6932
  203ACOH    H210523   5.263   5.097   2.260 -0.0778  1.8892  1.7363
  203ACOH    H310524   5.374   5.141   2.393  0.9440  0.5422 -1.0415
  204ACOH    H410525   1.817   3.144   5.673 -0.4870 -1.7291 -0.2615
  204ACOH    O210526   1.792   3.126   5.765  0.3986  0.5213  0.4306
  204ACOH    C210527   1.688   3.032   5.760 -0.4867 -0.6473  0.3389
  204ACOH    O110528   1.635   2.978   5.662 -0.4353 -0.2214 -0.6912
  204ACOH    C110529   1.642   2.995   5.899 -0.0923 -0.1465 -0.2546
  204ACOH    H110530   1.538   3.018   5.923 -0.3193 -1.5921  0.1995
  204ACOH    H210531   1.704   3.047   5.972  0.2122 -0.5654 -0.2161
  204ACOH    H310532   1.658   2.888   5.912 -2.3493 -0.5701 -0.6476
  205ACOH    H410533   6.507   7.334   6.610  1.5301 -0.1066  0.0406
  205ACOH    O210534   6.511   7.239   6.591 -0.8472 -0.2214 -0.0604
  205ACOH    C210535   6.625   7.197   6.664 -0.1981  0.4132 -0.8666
  205ACOH    O110536   6.705   7.275   6.718  0.6647 -0.4096 -0.1465
  205ACOH    C110537   6.657   7.052   6.647  0.5463 -0.5967 -0.0325
  205ACOH    H110538   6.581   7.024   6.574 -1.2794  0.9408  1.2115
  205ACOH    H210539   6.637   6.999   6.740 -1.3977  2.9418  1.6723
  205ACOH    H310540   6.753   7.033   6.599 -1.0477 -0.5189 -3.4598
  206ACOH    H410541   4.760   7.832   6.398 -0.9774  0.7025 -0.6806
  206ACOH    O210542   4.838   7.780   6.371 -0.9161  0.0343  0.6982
  206ACOH    C210543   4.898   7.766   6.486  0.2137  1.0340 -0.5885
  206ACOH    O110544   4.864   7.819   6.590  0.3782 -0.2278 -0.0650
  206ACOH    C110545   5.028   7.706   6.457  0.1561 -0.2670  0.3555
  206ACOH    H110546   5.044   7.625   6.527  1.4938  2.0719  2.8514
  206ACOH    H210547   5.104   7.781   6.479  0.8006 -1.2237  1.4390
  206ACOH    H310548   5.028   7.665   6.356 -0.1166 -0.6982  0.5315
  207ACOH    H410549   6.546   9.816   5.965  1.9883  1.5387  0.8035
  207ACOH    O210550   6.549   9.759   6.043  0.9515 -0.5515 -0.6476
  207ACOH    C210551   6.615   9.813   6.143 -0.2493  0.0158 -0.0777
  207ACOH    O110552   6.656   9.923   6.157  0.1232 -0.5315 -0.3825
  207ACOH    C110553   6.622   9.723   6.256  0.7354  0.0594  0.1602
  207ACOH    H110554   6.715   9.667   6.248  0.2810 -0.6821  0.1064
  207ACOH    H210555   6.537   9.656   6.263  1.1332 -0.3629  0.9472
  207ACOH    H310556   6.616   9.793   6.339  1.8506 -0.5524  0.7598
  208ACOH    H410557   4.629   4.486   3.004 -0.0522 -1.2341  0.3038
  208ACOH    O210558   4.707   4.479   3.061 -0.1957 -0.0410  0.6581
  208ACOH    C210559   4.787   4.387   3.019  0.2020  0.2188  0.0873
  208ACOH    O110560   4.759   4.298   2.942 -0.0536  0.1126  0.2378
  208ACOH    C110561   4.905   4.383   3.104 -0.2752  0.0632  0.1066
  208ACOH    H110562   4.984   4.450   3.070 -0.3796 -0.7957 -1.8839
  208ACOH    H210563   4.950   4.284   3.103 -1.7913 -0.6719  1.9784
  208ACOH    H310564   4.880   4.414   3.205 -1.9823 -0.7028 -0.0682
  209ACOH    H410565   0.547   3.254   1.729 -0.2327 -0.1633  0.1102
  209ACOH    O210566   0.479   3.231   1.794 -0.3705 -0.0947 -0.0090
  209ACOH    C210567   0.402   3.138   1.738 -0.2455 -0.2821  0.4832
  209ACOH    O110568   0.427   3.076   1.633 -0.0498  0.0477  0.0408
  209ACOH    C110569   0.277   3.113   1.811  0.4731 -0.6969 -0.6075
  209ACOH    H110570   0.293   3.065   1.908  0.8226  1.2983  0.3511
  209ACOH    H210571   0.200   3.058   1.758  0.6263 -1.7458  0.2570
  209ACOH    H310572   0.240   3.211   1.839  3.1727  0.2604 -0.2229
  210ACOH    H410573   1.449   8.308   2.884  2.5719 -0.5348  0.9046
  210ACOH    O210574   1.479   8.315   2.792  0.2556  0.4068  0.2043
  210ACOH    C210575   1.483   8.446   2.763 -0.3412 -0.3419  0.2175
  210ACOH    O110576   1.441   8.532   2.838 -0.6923 -0.2916  0.4133
  210ACOH    C110577   1.496   8.463   2.611  0.0726 -0.0551  0.2573
  210ACOH    H110578   1.531   8.371   2.565  2.1244  0.7853  0.0571
  210ACOH    H210579   1.563   8.544   2.583  1.5231 -2.4157 -3.4730
  210ACOH    H310580   1.400   8.491   2.569 -0.0075 -0.7276 -0.0089
  211ACOH    H410581   5.204   6.648   2.557  1.3558 -0.5373 -0.1346
  211ACOH    O210582   5.196   6.711   2.631 -0.0704 -0.3434 -0.4412
  211ACOH    C210583   5.153   6.645   2.746  0.2299  0.0770  0.1789
  211ACOH    O110584   5.075   6.549   2.740  0.2057  0.2653 -0.3245
  211ACOH    C110585   5.184   6.717   2.874 -0.2020 -0.4179  0.0389
  211ACOH    H110586   5.276   6.677   2.916 -0.6416 -0.6835  0.7546
  211ACOH    H210587   5.101   6.710   2.943 -0.5833  0.5782 -0.3081
  211ACOH    H310588   5.193   6.821   2.842 -1.9017 -0.1101  0.5407
  212ACOH    H410589   7.478   5.921   4.573  0.1624  0.5165  0.8936
  212ACOH    O210590   7.420   5.908   4.495  1.3029  0.0546  0.1136
  212ACOH    C210591   7.490   5.960   4.394  1.0161 -0.3023 -0.2699
  212ACOH    O110592   7.613   5.988   4.393 -0.1086 -0.1145  0.2748
  212ACOH    C110593   7.411   5.945   4.264 -0.7121  0.7051 -0.0031
  212ACOH    H110594   7.322   6.008   4.262 -1.1947  0.0766  1.1913
  212ACOH    H210595   7.377   5.841   4.264  0.1164  0.4210 -1.0352
  212ACOH    H310596   7.470   5.952   4.173 -0.6731 -0.2266 -0.0570
  213ACOH    H410597   4.206   5.819   4.413 -3.4017 -1.6072 -0.3880
  213ACOH    O210598   4.251   5.738   4.441 -0.2726 -0.0092 -0.6559
  213ACOH    C210599   4.348   5.706   4.349  1.4998  0.4391 -0.0930
  213ACOH    O110600   4.343   5.713   4.231 -0.2905 -0.4379 -0.3712
  213ACOH    C110601   4.438   5.609   4.410  0.3499 -0.1521 -0.7571
  213ACOH    H110602   4.501   5.563   4.333  0.1623 -1.5205 -0.1158
  213ACOH    H210603   4.386   5.527   4.460 -1.3764  0.9663 -0.6745
  213ACOH    H310604   4.503   5.666   4.476  0.3891 -0.8633 -0.1805
  214ACOH    H410605   9.773   1.566   5.903  0.3854  1.3639 -3.4361
  214ACOH    O210606   9.742   1.640   5.959 -0.0903 -1.1839 -0.1737
  214ACOH    C210607   9.687   1.724   5.867  0.6969  0.3509  0.3169
  214ACOH    O110608   9.614   1.682   5.778  0.1691  0.0688  0.0608
  214ACOH    C110609   9.685   1.858   5.927 -0.1115  0.5490 -0.1847
  214ACOH    H110610   9.679   1.842   6.035  0.7961 -0.7688 -0.3264
  214ACOH    H210611   9.610   1.931   5.895  2.2336  3.0272 -0.2846
  214ACOH    H310612   9.784   1.903   5.913 -0.3380  0.8918 -0.7261
  215ACOH    H410613   8.925   2.079   1.018 -0.8733 -0.9232  1.8499
  215ACOH    O210614   8.976   2.129   1.083  0.3498  0.3812 -0.0678
  215ACOH    C210615   8.935   2.255   1.097  0.0546 -0.1451 -0.2215
  215ACOH    O110616   8.820   2.289   1.075 -0.5527 -0.1322  0.9591
  215ACOH    C110617   9.027   2.318   1.192 -0.1226  0.3806 -0.5972
  215ACOH    H110618   8.998   2.275   1.288 -0.5890  0.9649 -0.4756
  215ACOH    H210619   9.013   2.426   1.193 -2.3095  0.1260 -0.6732
  215ACOH    H310620   9.131   2.294   1.172 -0.1692  1.3386 -2.0663
  216ACOH    H410621   6.158   5.994   1.608 -0.7240  0.9254 -3.1288
  216ACOH    O210622   6.131   6.083   1.637 -0.0120  0.2466 -0.2525
  216ACOH    C210623   6.092   6.156   1.532  0.0081 -0.3863  0.0858
  216ACOH    O110624   6.145   6.130   1.425  0.1271  0.0311  0.6408
  216ACOH    C110625   6.012   6.276   1.574 -0.0086  0.1951 -0.8614
  216ACOH    H110626   5.987   6.269   1.680 -0.3002 -2.6044 -1.0984
  216ACOH    H210627   5.926   6.286   1.508  0.9357  0.3958 -2.0905
  216ACOH    H310628   6.078   6.362   1.560  1.2121 -0.2257  1.9602
  217ACOH    H410629   3.199   4.531   5.513  0.0788  0.2187 -1.1970
  217ACOH    O210630   3.268   4.504   5.575 -0.6027  0.5136 -0.3046
  217ACOH    C210631   3.293   4.610   5.649 -0.1427  0.4801  0.5818
  217ACOH    O110632   3.241   4.721   5.644  0.2164 -0.0022 -0.1790
  217ACOH    C110633   3.415   4.586   5.730 -0.0680  0.3637  0.5717
  217ACOH    H110634   3.500   4.576   5.662  1.0707 -0.9054  2.1459
  217ACOH    H210635   3.402   4.496   5.790 -1.0063 -1.3755 -2.1287
  217ACOH    H310636   3.435   4.672   5.794 -1.3170 -0.4119  2.0436
  218ACOH    H410637   4.353   4.645   3.561 -1.4146  0.1877 -0.9045
  218ACOH    O210638   4.393   4.732   3.543  0.2304 -0.4163 -0.2105
  218ACOH    C210639   4.289   4.812   3.518 -0.1627 -0.1578  0.1285
  218ACOH    O110640   4.208   4.792   3.430  0.4882 -0.7859 -0.1755
  218ACOH    C110641   4.332   4.942   3.561 -0.1852 -0.3619 -0.0182
  218ACOH    H110642   4.283   4.974   3.653 -1.5084  1.6251 -1.3778
  218ACOH    H210643   4.306   5.016   3.486  1.2319 -2.2421 -2.4500
  218ACOH    H310644   4.441   4.939   3.570 -0.1464 -0.5869 -0.5426
  219ACOH    H410645   6.514   7.340   3.202 -0.1508 -0.4380 -0.9023
  219ACOH    O210646   6.550   7.424   3.169 -0.4013 -0.3398 -0.9340
  219ACOH    C210647   6.633   7.390   3.065  0.0724  0.9173 -0.7849
  219ACOH    O110648   6.683   7.284   3.028  0.5637 -0.5757 -0.2696
  219ACOH    C110649   6.696   7.518   3.015  0.0431 -0.3036 -0.4553
  219ACOH    H110650   6.771   7.546   3.089 -0.3361  0.4042 -0.3257
  219ACOH    H210651   6.616   7.593   3.021  0.7546  0.4886 -0.7618
  219ACOH    H310652   6.738   7.512   2.915 -0.6092  1.2944 -0.8372
  220ACOH    H410653   7.377   7.756   2.391  0.5208 -0.6013 -0.3927
  220ACOH    O210654   7.321   7.720   2.320  0.3167  0.1094 -0.5943
  220ACOH    C210655   7.343   7.586   2.335  0.0188 -0.7439 -0.0449
  220ACOH    O110656   7.410   7.537   2.425  0.1220 -0.0694 -0.1765
  220ACOH    C110657   7.245   7.501   2.261  0.0868  0.0768 -0.1345
  220ACOH    H110658   7.202   7.552   2.175  1.1717  1.0805 -0.0999
  220ACOH    H210659   7.165   7.477   2.332  1.0641  1.9039  1.6426
  220ACOH    H310660   7.286   7.405   2.230 -0.5976 -0.1662 -0.2966
  221ACOH    H410661   5.685   3.230   0.221  0.6785 -0.8843  1.3240
  221ACOH    O210662   5.641   3.146   0.201 -0.1689 -0.1767  0.1110
  221ACOH    C210663   5.736   3.058   0.157  0.3150  0.1288 -0.0418
  221ACOH    O110664   5.841   3.089   0.104 -0.2207  0.0434 -0.0713
  221ACOH    C110665   5.669   2.928   0.156 -0.0326 -0.1396  0.5816
  221ACOH    H110666   5.592   2.936   0.079  0.7447  2.5638  0.0283
  221ACOH    H210667   5.632   2.898   0.254 -0.5184  0.5264  0.6100
  221ACOH    H310668   5.749   2.859   0.129 -0.7346 -0.8727  0.3624
  222ACOH    H410669   6.505   1.333   6.624 -1.2010 -0.6865 -0.4143
  222ACOH    O210670   6.518   1.270   6.697  0.0528 -0.2839 -0.2866
  222ACOH    C210671   6.588   1.323   6.800  0.3224  0.1070 -0.0843
  222ACOH    O110672   6.589   1.279   6.912  0.2503 -0.1964  0.0398
  222ACOH    C110673   6.648   1.454   6.767  0.4204  0.5623 -0.3057
  222ACOH    H110674   6.716   1.437   6.684 -0.0858  0.7391 -0.7651
  222ACOH    H210675   6.688   1.520   6.844  0.0149 -0.5703  0.8840
  222ACOH    H310676   6.570   1.516   6.722 -0.8740 -0.2571  0.7663
  223ACOH    H410677   8.922   2.796   6.177 -0.0535  0.5167 -1.6157
  223ACOH    O210678   8.932   2.712   6.129 -0.1877  0.0356 -0.8217
  223ACOH    C210679   8.953   2.622   6.228 -0.2777 -0.1006 -0.3409
  223ACOH    O110680   8.914   2.635   6.344  0.1254  0.3345  0.4126
  223ACOH    C110681   8.991   2.493   6.167 -0.2420  0.3940  0.0037
  223ACOH    H110682   8.963   2.406   6.226  0.4091  1.0942  1.3680
  223ACOH    H210683   9.099   2.503   6.165 -0.3350  1.9915  1.8211
  223ACOH    H310684   8.949   2.488   6.066 -1.7136 -1.8026  0.6744
  224ACOH    H410685   5.815   2.126   6.245  2.0154 -0.4867  1.2826
  224ACOH    O210686   5.774   2.169   6.322 -0.3864 -0.1728 -0.1295
  224ACOH    C210687   5.760   2.084   6.419 -0.0154 -0.1563  0.6858
  224ACOH    O110688   5.797   1.968   6.408  0.3721  0.4477 -0.4498
  224ACOH    C110689   5.673   2.135   6.528 -0.0093  0.7705  0.6806
  224ACOH    H110690   5.734   2.152   6.617  0.3868 -3.7101  1.3828
  224ACOH    H210691   5.602   2.053   6.542  2.0156 -0.9648  1.1012
  224ACOH    H310692   5.627   2.223   6.484  1.3545  1.6568  1.0105
  225ACOH    H410693   8.832   7.869   2.464  1.3488 -1.3060  1.7591
  225ACOH    O210694   8.770   7.852   2.537  0.0885 -0.5463  0.8986
  225ACOH    C210695   8.776   7.962   2.613 -0.0632  0.3477  0.0531
  225ACOH    O110696   8.857   8.053   2.614 -0.2873  0.1793 -0.1821
  225ACOH    C110697   8.658   7.979   2.698  0.3007 -0.4642 -0.3568
  225ACOH    H110698   8.615   7.886   2.736 -3.1631  1.9172  1.9524
  225ACOH    H210699   8.585   8.033   2.637  0.3982  1.2576  0.9858
  225ACOH    H310700   8.673   8.051   2.779 -0.3800  0.0593 -0.6863
  226ACOH    H410701   4.826   9.875   4.959 -1.5837  1.0766 -1.3068
  226ACOH    O210702   4.787   9.878   5.048  0.3616  0.2076 -0.3954
  226ACOH    C210703   4.712   9.988   5.061 -0.1775  0.5366 -0.7283
  226ACOH    O110704   4.742  10.105   5.033 -0.3376 -0.4635 -0.3021
  226ACOH    C110705   4.603   9.964   5.157  0.1867  0.4715  0.8045
  226ACOH    H110706   4.551   9.885   5.103  2.3119 -0.0178 -0.5979
  226ACOH    H210707   4.532  10.046   5.164 -2.3261 -1.5456 -0.0007
  226ACOH    H310708   4.635   9.919   5.251  1.1153  1.3441  0.9112
  227ACOH    H410709   2.793   9.114   6.526  0.2463 -0.0615 -0.0937
  227ACOH    O210710   2.754   9.029   6.552  0.0699 -0.1409 -0.6139
  227ACOH    C210711   2.837   8.936   6.504  0.0752 -0.4375 -0.0670
  227ACOH    O110712   2.950   8.951   6.466  0.3219 -0.5745  0.3639
  227ACOH    C110713   2.770   8.804   6.493  0.4724 -0.9055  0.7002
  227ACOH    H110714   2.728   8.773   6.589  0.7061 -5.0926 -0.4741
  227ACOH    H210715   2.838   8.728   6.456  0.4619 -0.0510 -1.1032
  227ACOH    H310716   2.689   8.818   6.421  1.0149  0.3036  0.3198
  228ACOH    H410717   7.627   3.623   6.363  0.3330 -1.0480 -3.3927
  228ACOH    O210718   7.620   3.541   6.415  0.6950  0.4962 -0.8166
  228ACOH    C210719   7.747   3.485   6.429 -0.5775 -0.5890  0.5121
  228ACOH    O110720   7.843   3.549   6.381 -0.0662 -0.4087  0.2873
  228ACOH    C110721   7.752   3.365   6.512 -0.0569 -0.7135 -0.1730
  228ACOH    H110722   7.707   3.389   6.609 -1.9593  3.5176 -1.9662
  228ACOH    H210723   7.853   3.325   6.515  0.5301  0.8443  1.6689
  228ACOH    H310724   7.678   3.298   6.469 -1.4511  2.5897 -3.1246
  229ACOH    H410725   9.074   4.519   1.484 -0.1696  3.6230  1.8186
  229ACOH    O210726   9.089   4.565   1.400  0.1366 -0.5358 -0.5234
  229ACOH    C210727   9.157   4.489   1.318  0.2897  1.1363 -0.0499
  229ACOH    O110728   9.208   4.380   1.344  0.0444  0.1616 -0.5741
  229ACOH    C110729   9.162   4.558   1.183  0.8843 -0.1075 -0.0784
  229ACOH    H110730   9.222   4.496   1.117  2.0667 -0.6495  1.4714
  229ACOH    H210731   9.196   4.661   1.195 -1.7473  0.7638  0.3535
  229ACOH    H310732   9.058   4.564   1.150  0.7427  1.1705  0.5545
  230ACOH    H410733   4.862   4.815   5.577 -0.0254  1.2246  0.5403
  230ACOH    O210734   4.773   4.786   5.553  0.4279  0.0315  0.2563
  230ACOH    C210735   4.697   4.893   5.513 -0.4768  0.5774 -0.9087
  230ACOH    O110736   4.737   5.005   5.530 -0.0467  0.1979  0.2556
  230ACOH    C110737   4.558   4.853   5.494  0.2980  0.1046  0.4087
  230ACOH    H110738   4.503   4.932   5.443  0.1663 -0.7759 -0.8373
  230ACOH    H210739   4.508   4.837   5.590  1.2471  0.0587  0.8990
  230ACOH    H310740   4.552   4.766   5.429 -3.2933  0.3985  0.2511
  231ACOH    H410741   7.302   5.986   5.572 -2.0074  2.8137  0.2158
  231ACOH    O210742   7.304   5.967   5.476  0.2653 -0.1745  0.7530
  231ACOH    C210743   7.387   6.048   5.416 -0.5176 -0.5833  0.8318
  231ACOH    O110744   7.453   6.130   5.474  0.4890 -0.5651  0.2841
  231ACOH    C110745   7.398   6.017   5.269  0.7287 -0.5042 -0.5773
  231ACOH    H110746   7.486   5.959   5.245  0.2452 -2.2698  1.7156
  231ACOH    H210747   7.395   6.100   5.198  0.7012 -0.1836 -0.2015
  231ACOH    H310748   7.319   5.947   5.243  1.2623 -0.9669 -0.9583
  232ACOH    H410749   7.499   6.245   4.579  1.6016 -1.4026 -0.6890
  232ACOH    O210750   7.419   6.222   4.530  0.6835  0.2139  0.0275
  232ACOH    C210751   7.368   6.334   4.472 -0.4817 -0.7193 -0.2868
  232ACOH    O110752   7.426   6.437   4.467  0.2911 -0.4474  0.5090
  232ACOH    C110753   7.249   6.309   4.384  0.1339  0.5329  0.2226
  232ACOH    H110754   7.157   6.287   4.439 -0.3999 -2.1697 -1.6444
  232ACOH    H210755   7.265   6.223   4.318  2.2535  2.7094 -2.2229
  232ACOH    H310756   7.232   6.392   4.316  0.3612  1.0724  0.8304
  233ACOH    H410757   4.071   0.202   3.987 -1.5304  0.4417  1.1056
  233ACOH    O210758   4.112   0.223   4.073 -0.2205  0.3936  0.5100
  233ACOH    C210759   4.113   0.358   4.081  0.3588  0.3391  0.0079
  233ACOH    O110760   4.054   0.430   4.001  0.7337 -0.0056 -0.0261
  233ACOH    C110761   4.198   0.403   4.194 -0.3395 -0.0084 -0.2922
  233ACOH    H110762   4.226   0.318   4.256  2.0961 -0.5814 -2.1318
  233ACOH    H210763   4.156   0.471   4.268  0.9794  0.5052  0.0018
  233ACOH    H310764   4.285   0.456   4.154 -0.1152 -1.4522 -1.7885
  234ACOH    H410765   8.022   8.660   0.960 -0.2773  0.9551  0.2054
  234ACOH    O210766   7.940   8.618   0.929  0.2219  0.2004 -0.1077
  234ACOH    C210767   7.893   8.686   0.821  0.4911 -0.3628 -0.5661
  234ACOH    O110768   7.909   8.804   0.810  0.1976 -0.1702 -0.3836
  234ACOH    C110769   7.776   8.605   0.771  0.0448  0.8248  0.2741
  234ACOH    H110770   7.816   8.512   0.730  1.8407  2.3999 -1.6498
  234ACOH    H210771   7.716   8.660   0.698  0.4721  0.1002 -0.6252
  234ACOH    H310772   7.709   8.590   0.856  1.1439  0.6046  1.1209
  235ACOH    H410773   4.020   8.539   0.185  1.1424 -0.0080  1.1579
  235ACOH    O210774   4.042   8.622   0.140  0.2127 -0.1734  0.3799
  235ACOH    C210775   3.933   8.662   0.073 -0.1398  0.7047  0.1302
  235ACOH    O110776   3.836   8.586   0.045  0.7647 -0.2687 -0.1770
  235ACOH    C110777   3.958   8.791   0.002  0.7542  0.0672  0.1630
  235ACOH    H110778   4.040   8.856   0.031 -0.1608  1.7037 -0.8243
  235ACOH    H210779   3.865   8.847   0.013 -0.4296 -1.3635 -2.1552
  235ACOH    H310780   3.952   8.770  -0.105 -0.1666 -2.6464  0.7188
  236ACOH    H410781   6.848   2.167   6.147 -0.2806 -0.4423 -1.3513
  236ACOH    O210782   6.853   2.254   6.191 -0.4035 -0.9157 -0.3876
  236ACOH    C210783   6.985   2.277   6.203 -0.9586  0.9109 -0.5908
  236ACOH    O110784   7.082   2.206   6.180  0.1889  0.2363  0.2122
  236ACOH    C110785   7.004   2.424   6.221  0.4140 -0.1836 -0.1323
  236ACOH    H110786   6.950   2.456   6.311 -0.5857  1.1889 -1.1906
  236ACOH    H210787   6.962   2.480   6.137 -2.9122  0.1154  1.6373
  236ACOH    H310788   7.110   2.448   6.232  0.1830 -0.5465  3.5197
  237ACOH    H410789   4.145   6.623   4.859  0.8185 -2.4366 -1.1178
  237ACOH    O210790   4.218   6.672   4.816  0.2713 -0.4313  0.1842
  237ACOH    C210791   4.211   6.802   4.865 -0.4365  0.2793 -0.2820
  237ACOH    O110792   4.148   6.849   4.961 -0.1049 -0.6108  0.2732
  237ACOH    C110793   4.313   6.886   4.794 -0.0138  0.1784 -0.0974
  237ACOH    H110794   4.305   6.993   4.808 -0.9717  0.0285  0.5147
  237ACOH    H210795   4.322   6.855   4.690  2.4037  1.1933 -0.2342
  237ACOH    H310796   4.409   6.859   4.840 -0.0941 -1.0901 -0.6610
  238ACOH    H410797   5.871   4.788   0.292  0.4002 -0.0724 -0.2247
  238ACOH    O210798   5.890   4.831   0.377 -0.1214 -0.4717  0.1000
  238ACOH    C210799   5.919   4.728   0.460  0.0153  0.2394 -1.0156
  238ACOH    O110800   5.880   4.616   0.443  0.3583  0.4053  0.6179
  238ACOH    C110801   5.969   4.771   0.590 -0.3596  0.2725  0.0316
  238ACOH    H110802   5.913   4.854   0.634 -1.2333 -0.2368 -0.1244
  238ACOH    H210803   6.065   4.817   0.564  1.0021 -1.5782  1.6896
  238ACOH    H310804   5.987   4.688   0.658 -4.4976 -1.4331 -0.8104
  239ACOH    H410805   3.430   7.491   8.167  3.8199  1.1507  2.9484
  239ACOH    O210806   3.413   7.586   8.156 -0.5396  0.1836  0.2050
  239ACOH    C210807   3.308   7.612   8.076 -0.3865 -0.1220 -0.9782
  239ACOH    O110808   3.254   7.534   8.004 -0.1988 -0.2170  0.1360
  239ACOH    C110809   3.294   7.754   8.054 -0.2191  0.2896  0.1887
  239ACOH    H110810   3.197   7.772   8.099  0.1508 -0.6919  1.4047
  239ACOH    H210811   3.288   7.778   7.947  1.0705  0.4418  0.1401
  239ACOH    H310812   3.374   7.819   8.090  0.5456  0.9710 -2.6151
  240ACOH    H410813   4.205   6.618   8.072  1.9120 -0.7110  1.5310
  240ACOH    O210814   4.270   6.650   8.007  0.2647 -0.6596 -0.1391
  240ACOH    C210815   4.314   6.779   8.034 -0.3166  0.0455 -0.8858
  240ACOH    O110816   4.289   6.832   8.145  0.0300  0.3155  0.4001
  240ACOH    C110817   4.422   6.819   7.941 -0.0758 -0.0743 -0.2252
  240ACOH    H110818   4.436   6.923   7.968 -0.8080 -0.0426  0.0623
  240ACOH    H210819   4.377   6.825   7.841  1.0271  2.2493 -0.6214
  240ACOH    H310820   4.514   6.765   7.963 -0.2899 -0.1201  0.5746
  241ACOH    H410821   5.690   2.864   4.442  0.0081  0.0175 -1.8574
  241ACOH    O210822   5.699   2.961   4.441  0.5606  0.0001 -0.2910
  241ACOH    C210823   5.819   2.985   4.390 -0.4764  0.3900 -0.5800
  241ACOH    O110824   5.909   2.912   4.347 -0.2295 -0.7375  0.3195
  241ACOH    C110825   5.831   3.136   4.376 -0.6113  0.5324  1.0086
  241ACOH    H110826   5.746   3.161   4.313  1.0644 -0.5244 -1.7291
  241ACOH    H210827   5.924   3.173   4.335  0.3825 -1.7210  1.1832
  241ACOH    H310828   5.820   3.167   4.480 -0.1289  0.5587  1.0502
  242ACOH    H410829   5.942   5.336   2.351 -1.2093  0.3258  1.2741
  242ACOH    O210830   6.015   5.359   2.411  0.1414  0.0127 -0.2341
  242ACOH    C210831   6.101   5.265   2.378 -0.7811  0.1545 -0.6169
  242ACOH    O110832   6.100   5.191   2.279 -0.2132  0.0464 -0.3169
  242ACOH    C110833   6.227   5.285   2.457  0.0065 -0.8561 -0.1591
  242ACOH    H110834   6.273   5.188   2.475 -0.3408 -1.2940 -1.5728
  242ACOH    H210835   6.200   5.324   2.555  0.1866 -2.8748  0.7270
  242ACOH    H310836   6.299   5.352   2.411  0.3778 -0.3508  1.1474
  243ACOH    H410837   8.883   6.236   1.762 -0.9666  0.1244 -1.2739
  243ACOH    O210838   8.826   6.235   1.840  0.4367 -0.8427 -0.2548
  243ACOH    C210839   8.789   6.105   1.852 -0.6339 -0.5430 -0.1610
  243ACOH    O110840   8.683   6.062   1.893  0.2401  0.1774  0.0174
  243ACOH    C110841   8.898   6.006   1.807  0.3169  0.7853  0.8602
  243ACOH    H110842   8.879   5.968   1.707 -4.0788  1.5296  1.3218
  243ACOH    H210843   8.910   5.915   1.867 -0.1859 -0.1091 -0.3874
  243ACOH    H310844   8.991   6.063   1.801  0.8144 -0.2119 -1.0349
  244ACOH    H410845   7.835   7.214   0.912  0.1754  0.5039 -0.0822
  244ACOH    O210846   7.746   7.183   0.888  0.1802  0.5366 -0.1443
  244ACOH    C210847   7.701   7.127   0.999 -0.1093 -0.7209  0.2306
  244ACOH    O110848   7.755   7.138   1.108  0.1685 -0.2310  0.5932
  244ACOH    C110849   7.582   7.035   0.973 -0.1855 -0.2401  0.5767
  244ACOH    H110850   7.549   6.991   1.067  0.8350 -0.4449  0.8425
  244ACOH    H210851   7.616   6.955   0.908 -0.5104 -1.6248  2.0719
  244ACOH    H310852   7.506   7.099   0.928  1.4942  0.7711 -0.8976
  245ACOH    H410853   5.586   3.345   4.204  0.0025  0.5742  0.3025
  245ACOH    O210854   5.506   3.299   4.174  0.2970  0.6360 -0.5754
  245ACOH    C210855   5.534   3.247   4.054 -0.3215  0.3617 -0.0878
  245ACOH    O110856   5.641   3.247   3.997  0.0110 -0.6782 -0.1778
  245ACOH    C110857   5.417   3.171   4.006  0.3532 -0.1658 -0.0650
  245ACOH    H110858   5.342   3.164   4.085 -1.5194 -0.0961 -1.7934
  245ACOH    H210859   5.453   3.069   3.993  1.4433  0.3035 -0.7952
  245ACOH    H310860   5.376   3.217   3.916 -0.2509 -0.9690 -0.2112
  246ACOH    H410861   6.691   8.950   6.315  0.0816 -0.5655  0.1738
  246ACOH    O210862   6.771   8.907   6.281  0.0855 -0.6954  0.3457
  246ACOH    C210863   6.854   8.985   6.205  0.8005 -0.2892 -0.2635
  246ACOH    O110864   6.817   9.090   6.157  0.0503 -0.0819  0.3077
  246ACOH    C110865   6.982   8.920   6.176 -0.1085  0.8888  0.5482
  246ACOH    H110866   7.059   8.996   6.190  1.5370 -0.6695  0.1750
  246ACOH    H210867   6.977   8.882   6.074 -0.0797  1.0250  0.4962
  246ACOH    H310868   7.006   8.837   6.243  2.0137  0.5894 -0.5462
  247ACOH    H410869   7.373   7.232   1.601  0.3545 -0.7971  0.0304
  247ACOH    O210870   7.362   7.213   1.695 -0.1955  0.0127  0.1359
  247ACOH    C210871   7.303   7.322   1.747 -0.4150  0.0346 -0.1258
  247ACOH    O110872   7.269   7.431   1.698 -0.0127  0.5445  0.7666
  247ACOH    C110873   7.276   7.297   1.891  0.0593 -0.0172  0.3836
  247ACOH    H110874   7.198   7.363   1.928 -2.6657 -0.2796 -4.4085
  247ACOH    H210875   7.360   7.318   1.957  1.0217 -2.3104 -0.0330
  247ACOH    H310876   7.245   7.194   1.910 -0.4116 -0.4433 -2.4724
  248ACOH    H410877   0.285   7.227   5.281 -0.9303  1.2662  0.9105
  248ACOH    O210878   0.311   7.252   5.191 -0.1791  0.0654  0.7829
  248ACOH    C210879   0.326   7.136   5.122  0.1062 -0.2825 -0.2325
  248ACOH    O110880   0.311   7.023   5.167  0.0550 -0.0077  0.7077
  248ACOH    C110881   0.385   7.162   4.986  0.0467 -0.2695 -0.7522
  248ACOH    H110882   0.490   7.135   4.976 -0.2871 -1.7041 -0.4738
  248ACOH    H210883   0.380   7.266   4.955 -0.1443 -0.7295 -2.3462
  248ACOH    H310884   0.317   7.108   4.919 -0.8616 -1.4827  1.1110
  249ACOH    H410885   0.450   5.066   2.406  0.6118  0.0162 -2.5296
  249ACOH    O210886   0.476   5.159   2.416 -0.5568  0.1685 -0.7488
  249ACOH    C210887   0.403   5.227   2.325 -0.5432 -0.4875  0.0683
  249ACOH    O110888   0.342   5.175   2.235  0.3358 -0.1567  0.2392
  249ACOH    C110889   0.396   5.368   2.354  0.5506 -1.1218  0.2705
  249ACOH    H110890   0.382   5.378   2.461 -0.9644 -0.9583  0.0690
  249ACOH    H210891   0.314   5.413   2.299  0.3609 -0.7182  0.8816
  249ACOH    H310892   0.494   5.404   2.323  0.4386 -1.4863 -0.5157
  250ACOH    H410893   2.015   0.610   5.480 -1.0264 -1.2329 -0.8785
  250ACOH    O210894   1.938   0.627   5.537  0.2087 -0.2559  0.5569
  250ACOH    C210895   1.842   0.676   5.459  0.1760 -0.1902  0.0784
  250ACOH    O110896   1.859   0.691   5.338 -0.0716 -0.1821 -0.5448
  250ACOH    C110897   1.708   0.687   5.521 -0.3535 -0.1421  0.2185
  250ACOH    H110898   1.680   0.588   5.557 -0.3626 -0.1971  0.0616
  250ACOH    H210899   1.630   0.713   5.449 -1.4499 -0.3263  1.3224
  250ACOH    H310900   1.719   0.759   5.601  1.4929  0.6261 -0.6832
  251ACOH    H410901   1.827   8.807   2.579 -0.4135  1.0709 -1.3993
  251ACOH    O210902   1.751   8.855   2.617 -0.2748  0.5729 -0.4672
  251ACOH    C210903   1.734   8.804   2.741  0.1336 -0.5090  0.1679
  251ACOH    O110904   1.805   8.720   2.795 -0.0242 -0.4036  0.5361
  251ACOH    C110905   1.609   8.856   2.804  0.2261  0.4853  0.0105
  251ACOH    H110906   1.589   8.959   2.772 -1.8485  0.0038 -0.3016
  251ACOH    H210907   1.617   8.849   2.913 -1.6147  0.3327  0.1431
  251ACOH    H310908   1.530   8.787   2.775  1.3115 -1.1651  0.9050
  252ACOH    H410909   4.741   8.621   7.014  3.2515  0.6060 -1.6204
  252ACOH    O210910   4.779   8.557   7.076  0.2371  0.3016  0.0299
  252ACOH    C210911   4.686   8.533   7.169 -0.3022  0.3334  0.3793
  252ACOH    O110912   4.567   8.512   7.143 -0.0138 -0.6583 -0.2126
  252ACOH    C110913   4.744   8.470   7.287 -0.2843 -0.2092  0.4542
  252ACOH    H110914   4.704   8.369   7.295 -0.0989 -0.4974 -2.0064
  252ACOH    H210915   4.710   8.527   7.374 -0.7758 -0.8429  0.6886
  252ACOH    H310916   4.852   8.473   7.287 -0.2238 -1.6794 -1.7951
  253ACOH    H410917   8.093   8.147   1.325  1.4066  0.0056  0.1449
  253ACOH    O210918   8.068   8.104   1.409 -0.1147  0.2322 -0.1900
  253ACOH    C210919   8.027   7.978   1.385  0.6989 -0.7160 -0.0850
  253ACOH    O110920   8.084   7.899   1.311  0.4131  0.2126 -0.3450
  253ACOH    C110921   7.937   7.928   1.491  0.0490 -0.0202  0.1011
  253ACOH    H110922   7.983   7.958   1.585 -1.9786 -0.4086  1.2480
  253ACOH    H210923   7.932   7.820   1.483 -0.3102  0.1088 -1.7395
  253ACOH    H310924   7.843   7.983   1.496  0.3481  0.6633 -1.6082
  254ACOH    H410925   1.482   7.635   1.663 -0.8830  2.0159  0.5845
  254ACOH    O210926   1.524   7.625   1.576 -0.5074  0.1973  0.9593
  254ACOH    C210927   1.658   7.618   1.590 -0.3176 -0.1631 -0.5705
  254ACOH    O110928   1.721   7.669   1.680  0.1416 -0.1492  0.7784
  254ACOH    C110929   1.718   7.571   1.465 -1.1503  0.3517 -0.0053
  254ACOH    H110930   1.826   7.583   1.466 -0.9330 -1.3975 -0.6175
  254ACOH    H210931   1.690   7.630   1.378 -1.3342  0.1257 -0.1020
  254ACOH    H310932   1.703   7.466   1.440 -0.3871  0.3413 -0.4270
  255ACOH    H410933   6.045   3.662   0.817 -2.3042  0.6756  0.1553
  255ACOH    O210934   6.040   3.641   0.911  0.3151  0.1875  0.2158
  255ACOH    C210935   5.911   3.660   0.938  0.1977  0.2486  0.6961
  255ACOH    O110936   5.825   3.701   0.857 -0.0322  0.6936  0.0825
  255ACOH    C110937   5.888   3.640   1.085  0.0820 -0.3349  0.2786
  255ACOH    H110938   5.815   3.560   1.094 -0.0852 -0.5259 -2.3670
  255ACOH    H210939   5.859   3.736   1.128  1.2062 -0.7161  1.9111
  255ACOH    H310940   5.980   3.616   1.138  0.9184 -1.0837 -1.4628
  256ACOH    H410941   5.139   3.747   5.522 -0.1203  0.1176  0.4068
  256ACOH    O210942   5.085   3.736   5.442  0.6308 -0.5692 -0.0074
  256ACOH    C210943   5.105   3.619   5.392  0.0494  0.2448 -0.2922
  256ACOH    O110944   5.199   3.546   5.419 -0.8547 -0.7057 -0.4097
  256ACOH    C110945   5.007   3.582   5.290 -0.2946 -0.6094 -0.8812
  256ACOH    H110946   4.911   3.596   5.340 -0.6591 -0.4463 -1.6213
  256ACOH    H210947   5.025   3.475   5.276  0.1657 -0.5613 -0.6461
  256ACOH    H310948   5.012   3.631   5.193  1.1603  0.6431 -0.1840
  257ACOH    H410949   7.696   9.008   3.501 -1.1585 -0.4290 -0.4250
  257ACOH    O210950   7.674   9.093   3.460 -0.3439  0.0301  0.0682
  257ACOH    C210951   7.640   9.195   3.544 -0.0749 -0.3755  0.3765
  257ACOH    O110952   7.631   9.191   3.663  0.3515  0.3516 -0.2348
  257ACOH    C110953   7.649   9.316   3.469  0.1044 -0.5031 -0.2796
  257ACOH    H110954   7.755   9.335   3.447  0.0722  1.4346  1.1352
  257ACOH    H210955   7.611   9.402   3.524  3.5352  0.9802 -0.0966
  257ACOH    H310956   7.584   9.307   3.382  1.1208 -0.3217 -1.0798
  258ACOH    H410957   6.805   6.034   5.849 -0.6931  1.5943 -0.3011
  258ACOH    O210958   6.739   6.002   5.786  0.3278 -0.3795 -0.4088
  258ACOH    C210959   6.686   6.111   5.721  0.3013 -0.7951 -0.2486
  258ACOH    O110960   6.692   6.228   5.756 -0.1507  0.6154 -0.3769
  258ACOH    C110961   6.586   6.076   5.612 -0.7652  0.7197 -0.1053
  258ACOH    H110962   6.614   5.974   5.586 -2.4625 -0.0166  0.8414
  258ACOH    H210963   6.594   6.133   5.520  0.9152 -0.1482 -0.5055
  258ACOH    H310964   6.485   6.073   5.654  0.4169 -2.0561  2.7357
  259ACOH    H410965   5.302   2.669   2.998 -2.0954  0.7408 -1.8111
  259ACOH    O210966   5.353   2.750   3.007 -0.1984 -0.6640  0.8391
  259ACOH    C210967   5.399   2.756   2.875 -0.2488  0.2752  0.1407
  259ACOH    O110968   5.381   2.674   2.789  0.3787  0.5642 -0.2230
  259ACOH    C110969   5.471   2.888   2.848 -0.2769 -0.1675  0.3156
  259ACOH    H110970   5.552   2.901   2.919  3.4664 -0.3835 -3.7442
  259ACOH    H210971   5.408   2.976   2.862 -1.5869 -0.8189 -1.2766
  259ACOH    H310972   5.507   2.898   2.746 -1.8608  2.3366 -0.0447
  260ACOH    H410973   4.707   4.591   5.300 -1.7537  0.0505  2.1117
  260ACOH    O210974   4.799   4.576   5.330 -0.9054 -0.0333 -0.4620
  260ACOH    C210975   4.783   4.529   5.455 -0.4715  0.2101  0.3760
  260ACOH    O110976   4.679   4.485   5.500  0.2647  0.5298  0.9749
  260ACOH    C110977   4.909   4.515   5.531 -0.4057  0.0380 -1.2955
  260ACOH    H110978   4.990   4.578   5.496 -0.1353  0.0124 -0.7097
  260ACOH    H210979   4.939   4.412   5.512  0.7747  0.1334 -0.0203
  260ACOH    H310980   4.880   4.528   5.635 -0.5706  1.5949 -1.5278
  261ACOH    H410981   2.742   7.061   3.922 -1.0518  0.6599 -0.3952
  261ACOH    O210982   2.708   7.001   3.854  0.3699 -0.4445 -0.1411
  261ACOH    C210983   2.656   6.890   3.908  0.2582 -0.4182  0.5524
  261ACOH    O110984   2.641   6.872   4.024 -0.2441  0.9013 -0.2545
  261ACOH    C110985   2.627   6.788   3.805 -0.2073  0.0663  0.9715
  261ACOH    H110986   2.527   6.745   3.806 -0.7017  1.1275 -0.7766
  261ACOH    H210987   2.698   6.706   3.795  1.9118  1.6572  2.4454
  261ACOH    H310988   2.622   6.832   3.706 -1.7405 -1.5299  0.3248
  262ACOH    H410989   6.901   0.390   3.098  0.8690  0.2046  0.1837
  262ACOH    O210990   6.902   0.316   3.161 -0.2884 -0.2185 -0.2737
  262ACOH    C210991   7.003   0.240   3.118 -0.1639 -0.5438 -0.1657
  262ACOH    O110992   7.026   0.217   3.003  0.0983 -0.1155 -0.0836
  262ACOH    C110993   7.067   0.160   3.223  0.4934 -0.0763  0.2323
  262ACOH    H110994   7.067   0.216   3.316  0.9187  0.5155 -0.1195
  262ACOH    H210995   7.164   0.130   3.184 -0.7125 -2.6157 -0.9318
  262ACOH    H310996   7.007   0.071   3.238 -1.6396  1.2649 -0.0819
  263ACOH    H410997   7.597   3.975   5.470 -1.4943 -2.3129 -0.8496
  263ACOH    O210998   7.600   4.017   5.382 -0.0398 -0.3526  0.1218
  263ACOH    C210999   7.657   4.137   5.405 -0.0050  0.5300 -0.3803
  263ACOH    O111000   7.657   4.192   5.518  0.0346  0.1731 -0.0864
  263ACOH    C111001   7.706   4.202   5.281 -0.2772 -0.1654 -1.4087
  263ACOH    H111002   7.646   4.290   5.256 -1.1336 -1.1019 -2.7436
  263ACOH    H211003   7.706   4.129   5.200  1.7692  1.7236 -3.1579
  263ACOH    H311004   7.805   4.241   5.301 -0.6738 -0.1434  0.6220
  264ACOH    H411005   1.510   3.150   2.959  1.8898 -1.9009  1.9942
  264ACOH    O211006   1.582   3.215   2.969  0.3912  0.0525  0.4543
  264ACOH    C211007   1.563   3.280   3.082  0.2948  0.4146 -0.1642
  264ACOH    O111008   1.476   3.266   3.169 -0.3908  0.2702 -0.0252
  264ACOH    C111009   1.659   3.391   3.083 -0.1935  0.4784 -0.2366
  264ACOH    H111010   1.718   3.396   3.175 -2.9858  1.8458  1.5570
  264ACOH    H211011   1.605   3.486   3.076  1.1138  1.2352 -0.3923
  264ACOH    H311012   1.725   3.394   2.996 -2.2251  0.0507 -1.8311
  265ACOH    H411013   3.465   3.160   5.012  0.0416  2.4230 -0.4100
  265ACOH    O211014   3.556   3.140   4.985 -0.3937 -0.0916 -0.1246
  265ACOH    C211015   3.561   3.142   4.849  0.0717 -0.0033  0.1602
  265ACOH    O111016   3.472   3.144   4.763 -0.4572  0.1187 -0.0153
  265ACOH    C111017   3.704   3.129   4.815 -0.4057 -0.1358  0.8016
  265ACOH    H111018   3.722   3.111   4.709 -0.5755  0.4747  0.6677
  265ACOH    H211019   3.741   3.048   4.877 -0.7650 -0.2473  0.8701
  265ACOH    H311020   3.760   3.214   4.854  2.8509 -1.4886 -0.7705
  266ACOH    H411021   3.302   8.388   3.147 -0.2467 -1.4546  1.4344
  266ACOH    O211022   3.294   8.320   3.078  0.1089  0.1461 -0.2494
  266ACOH    C211023   3.408   8.302   3.005 -0.2693 -0.2693  0.3269
  266ACOH    O111024   3.519   8.334   3.044 -0.6363 -0.4151 -0.5892
  266ACOH    C111025   3.394   8.206   2.897  0.2142 -0.2888 -0.1602
  266ACOH    H111026   3.490   8.173   2.856 -0.2836 -0.9224 -0.8160
  266ACOH    H211027   3.327   8.251   2.824 -0.7234 -0.0090  0.8579
  266ACOH    H311028   3.350   8.121   2.950 -0.3255  0.1437  0.0887
  267ACOH    H411029   6.242   2.972   3.322 -0.2160  0.6713 -0.8385
  267ACOH    O211030   6.277   2.919   3.248  0.4798 -0.6700  0.4264
  267ACOH    C211031   6.410   2.932   3.254  0.2923 -0.7205 -0.4633
  267ACOH    O111032   6.481   2.978   3.342 -0.5855  0.1451  0.5208
  267ACOH    C111033   6.464   2.899   3.123 -0.4148  0.2844  0.4348
  267ACOH    H111034   6.513   2.802   3.127 -0.4085  0.3010  0.7151
  267ACOH    H211035   6.544   2.969   3.099 -0.4249  0.3393  0.5655
  267ACOH    H311036   6.388   2.900   3.044  1.4920 -1.4315 -1.4985
  268ACOH    H411037   3.923   2.466   2.191 -2.5864 -1.8257  0.9331
  268ACOH    O211038   3.871   2.546   2.205  0.2402  0.2737 -0.0434
  268ACOH    C211039   3.950   2.650   2.248  0.2517  0.3394 -0.6592
  268ACOH    O111040   4.066   2.655   2.258 -0.3307  1.1729 -0.0033
  268ACOH    C111041   3.867   2.765   2.272 -0.1649  0.2791 -0.0929
  268ACOH    H111042   3.839   2.760   2.377  0.0704  2.2323  0.0663
  268ACOH    H211043   3.773   2.761   2.216 -0.6499  1.4805  0.6099
  268ACOH    H311044   3.908   2.863   2.249 -2.3018  0.9448 -1.2976
  269ACOH    H411045   1.963   0.137   2.444  1.4086 -1.5320 -1.2924
  269ACOH    O211046   1.898   0.065   2.454  0.4134 -0.4958 -0.2549
  269ACOH    C211047   1.946  -0.018   2.548 -0.6412 -0.6840 -0.1112
  269ACOH    O111048   2.062  -0.024   2.588 -0.6831 -0.3551  1.1614
  269ACOH    C111049   1.853  -0.129   2.581  0.2505  0.1846 -0.5318
  269ACOH    H111050   1.879  -0.222   2.532  1.3109 -0.8014  1.8559
  269ACOH    H211051   1.752  -0.101   2.551  1.0576  2.9893 -0.7845
  269ACOH    H311052   1.861  -0.148   2.688 -2.0796  0.7554 -0.2133
  270ACOH    H411053   4.776   4.107   2.985  2.7387  2.3292  0.4803
  270ACOH    O211054   4.800   4.024   3.030 -0.7063  0.9445 -0.0799
  270ACOH    C211055   4.744   4.019   3.152 -0.5674 -0.1882 -0.0701
  270ACOH    O111056   4.712   4.115   3.214  0.0206 -0.5315  0.1376
  270ACOH    C111057   4.740   3.884   3.210  0.0423 -0.4453 -0.3320
  270ACOH    H111058   4.749   3.808   3.132 -3.5435  1.2319 -2.5083
  270ACOH    H211059   4.642   3.868   3.256 -0.2087 -1.1358 -1.0920
  270ACOH    H311060   4.813   3.877   3.290 -1.2502  1.1466  1.0161
  271ACOH    H411061   5.952   9.175   2.202  0.3935 -0.1237  0.5446
  271ACOH    O211062   5.871   9.205   2.156  0.2883 -0.3133  0.6042
  271ACOH    C211063   5.909   9.299   2.063  0.2455 -0.0466 -0.1806
  271ACOH    O111064   6.021   9.346   2.040  0.2549  0.1636 -0.6238
  271ACOH    C111065   5.782   9.363   2.018  0.3032 -0.2303 -0.2463
  271ACOH    H111066   5.708   9.298   1.971  0.6226  0.4568 -1.7132
  271ACOH    H211067   5.802   9.428   1.934  0.1432 -1.5230 -1.3014
  271ACOH    H311068   5.737   9.423   2.098  0.0891  2.4560 -2.3294
  272ACOH    H411069   5.133   7.162   1.424  1.1040 -2.1803  0.5485
  272ACOH    O211070   5.204   7.212   1.381 -0.6111  0.0135  0.1849
  272ACOH    C211071   5.255   7.136   1.288 -1.3141 -0.2428 -0.0108
  272ACOH    O111072   5.213   7.024   1.253  0.4421 -0.4476  0.6566
  272ACOH    C111073   5.352   7.206   1.201  0.2333 -0.3431  0.0927
  272ACOH    H111074   5.303   7.294   1.161 -0.5101 -1.2874 -1.1101
  272ACOH    H211075   5.375   7.148   1.112 -1.2061  0.7484 -1.0222
  272ACOH    H311076   5.438   7.232   1.262  0.3819  0.1416 -0.3219
  273ACOH    H411077   7.459   6.198   1.993 -0.1457 -0.2230  0.8177
  273ACOH    O211078   7.382   6.223   1.939 -0.0341 -0.4704  0.5447
  273ACOH    C211079   7.369   6.151   1.828  0.3320 -0.6493 -0.1735
  273ACOH    O111080   7.458   6.080   1.780  0.3785  0.1568 -0.4113
  273ACOH    C111081   7.244   6.186   1.755 -0.2794 -1.2726 -0.3512
  273ACOH    H111082   7.156   6.153   1.809  0.4813  1.5937  2.8395
  273ACOH    H211083   7.252   6.129   1.662 -1.6109 -0.2015 -1.1341
  273ACOH    H311084   7.239   6.293   1.737  0.8855 -1.4718 -2.0234
  274ACOH    H411085   5.498   9.057   6.767 -0.3891 -0.6924 -1.0319
  274ACOH    O211086   5.442   9.005   6.827 -0.0475  0.0269 -0.0718
  274ACOH    C211087   5.525   8.923   6.894 -0.0485 -1.1088  0.4867
  274ACOH    O111088   5.643   8.902   6.863  0.1522  0.0316  0.0429
  274ACOH    C111089   5.454   8.851   6.996 -0.1978  0.0596 -0.2037
  274ACOH    H111090   5.389   8.917   7.054  2.1601  1.4530  0.9284
  274ACOH    H211091   5.526   8.810   7.067 -0.8209  2.7048  2.0748
  274ACOH    H311092   5.399   8.767   6.955 -2.6560  1.7462 -0.4836
  275ACOH    H411093   0.089   3.116   2.499  1.2863 -0.3828  1.1147
  275ACOH    O211094   0.143   3.094   2.421 -0.2611 -0.9707  0.1991
  275ACOH    C211095   0.072   3.019   2.342 -0.2810  0.8425 -0.6118
  275ACOH    O111096  -0.051   3.018   2.335  0.5044 -0.6289 -0.0133
  275ACOH    C111097   0.157   2.983   2.223 -0.0239  0.1657 -0.2709
  275ACOH    H111098   0.130   2.893   2.167 -1.1242 -0.0264  0.5331
  275ACOH    H211099   0.258   2.972   2.263  0.1254  2.3141 -0.0199
  275ACOH    H311100   0.155   3.059   2.146 -0.8201 -1.3311 -1.7733
  276ACOH    H411101   8.253   7.624   4.074  1.0170  0.3303 -2.2917
  276ACOH    O211102   8.195   7.702   4.078  0.5343 -0.1039 -0.0561
  276ACOH    C211103   8.192   7.734   4.210  0.3806  0.0156 -0.0162
  276ACOH    O111104   8.256   7.685   4.299  0.4977  0.2083 -0.1589
  276ACOH    C111105   8.082   7.830   4.242 -0.1516 -0.3015 -0.7793
  276ACOH    H111106   8.015   7.846   4.158  0.4035 -2.1435 -1.5956
  276ACOH    H211107   8.119   7.929   4.269 -3.1175  0.3204  1.2905
  276ACOH    H311108   8.034   7.791   4.332  1.0009 -0.7145 -0.3377
  277ACOH    H411109   0.807   0.639   2.172  2.3491 -1.2838 -1.8808
  277ACOH    O211110   0.725   0.601   2.138  0.7180  0.2067  0.2787
  277ACOH    C211111   0.639   0.621   2.240  0.1209 -0.2899 -0.4385
  277ACOH    O111112   0.664   0.640   2.358 -0.2046 -0.0201  0.2524
  277ACOH    C111113   0.499   0.617   2.189  0.0016  0.2878  0.2377
  277ACOH    H111114   0.432   0.646   2.269  0.7064 -1.2330  1.4096
  277ACOH    H211115   0.470   0.516   2.159 -3.3010  0.8326  1.4378
  277ACOH    H311116   0.489   0.686   2.105  0.7780  1.4855  1.1098
  278ACOH    H411117   1.261   2.241   3.495 -0.3495 -0.2769 -0.1853
  278ACOH    O211118   1.166   2.220   3.495 -0.4619  0.2193 -0.1123
  278ACOH    C211119   1.093   2.308   3.558 -0.2578 -0.1423 -0.1194
  278ACOH    O111120   1.127   2.418   3.604  0.1504 -0.2883  0.1605
  278ACOH    C111121   0.954   2.263   3.577 -0.2085 -0.2983 -0.6519
  278ACOH    H111122   0.947   2.154   3.583  3.1987 -0.5091  0.7465
  278ACOH    H211123   0.883   2.304   3.505 -0.7799 -0.0092  0.0639
  278ACOH    H311124   0.918   2.303   3.672  0.3536 -3.5304  0.9999
  279ACOH    H411125   4.526   4.371   5.496 -0.0057 -0.2034  1.1752
  279ACOH    O211126   4.467   4.301   5.529 -0.1311 -0.8025 -0.2985
  279ACOH    C211127   4.347   4.329   5.478  0.3484  0.0820 -0.1351
  279ACOH    O111128   4.314   4.417   5.402 -0.2418  1.0242  0.1634
  279ACOH    C111129   4.254   4.218   5.506  0.1537  0.2783 -0.4043
  279ACOH    H111130   4.294   4.118   5.494  3.8651  1.6414 -0.0502
  279ACOH    H211131   4.172   4.221   5.435 -0.4536  4.4974  0.3385
  279ACOH    H311132   4.216   4.230   5.608 -2.7059  0.7350 -1.4861
  280ACOH    H411133   7.470   6.301   0.387  1.1095  2.2086 -0.4028
  280ACOH    O211134   7.424   6.342   0.312 -0.2871 -0.0099 -0.8209
  280ACOH    C211135   7.512   6.433   0.265 -0.0149 -0.3287  0.6849
  280ACOH    O111136   7.632   6.440   0.292 -0.2844  0.1271  0.1806
  280ACOH    C111137   7.456   6.528   0.164  0.2901 -0.5177 -0.6634
  280ACOH    H111138   7.404   6.608   0.217 -1.5642 -1.8287 -0.4543
  280ACOH    H211139   7.385   6.479   0.096 -1.0548  0.4659 -0.0059
  280ACOH    H311140   7.543   6.569   0.113 -0.4017  3.1431  0.9192
  281ACOH    H411141   4.921   8.238   6.518  0.8718 -2.1816 -0.1349
  281ACOH    O211142   4.899   8.263   6.609  0.5874  0.2759 -0.8336
  281ACOH    C211143   4.792   8.341   6.609 -0.6813 -0.9153 -0.1149
  281ACOH    O111144   4.737   8.378   6.508 -0.2740  0.2354 -0.2741
  281ACOH    C111145   4.747   8.372   6.750  0.2812 -0.1459 -0.6099
  281ACOH    H111146   4.661   8.438   6.736 -2.7156 -3.6741  0.1867
  281ACOH    H211147   4.820   8.439   6.794 -0.8499 -0.8947  2.4966
  281ACOH    H311148   4.724   8.281   6.806 -0.9403 -0.5429 -1.6999
  282ACOH    H411149   7.002   3.091   5.445 -0.2215  0.7990 -0.4091
  282ACOH    O211150   7.024   3.093   5.351 -0.4253  0.0854 -0.4740
  282ACOH    C211151   7.009   3.222   5.312 -0.0251 -0.3442  0.2020
  282ACOH    O111152   6.996   3.322   5.379  0.0972  0.1955 -0.5766
  282ACOH    C111153   7.035   3.224   5.162 -0.1150 -0.3496  0.0373
  282ACOH    H111154   6.964   3.163   5.105  0.8419 -1.4116 -0.0416
  282ACOH    H211155   7.138   3.194   5.143  1.1646  2.5745  1.9888
  282ACOH    H311156   7.019   3.328   5.135 -0.3649 -0.4955 -0.3669
  283ACOH    H411157   4.518   4.760   5.843 -1.1699  1.3968 -0.9414
  283ACOH    O211158   4.591   4.817   5.874  0.2917 -0.4765 -0.8497
  283ACOH    C211159   4.558   4.944   5.844  0.3030 -0.2034 -0.5900
  283ACOH    O111160   4.446   4.979   5.819  0.2657 -0.5005 -0.1347
  283ACOH    C111161   4.672   5.035   5.853 -0.0732  0.6982 -0.4316
  283ACOH    H111162   4.685   5.101   5.767  1.4849  0.3471 -0.4901
  283ACOH    H211163   4.764   4.977   5.862  0.2160  1.2253  0.0821
  283ACOH    H311164   4.669   5.091   5.947 -0.0441  2.4602 -1.4587
  284ACOH    H411165   7.090   9.369   1.791 -2.8601 -0.8755 -1.0263
  284ACOH    O211166   7.133   9.295   1.744  0.5103 -0.1773  0.7555
  284ACOH    C211167   7.263   9.317   1.716 -0.1791 -0.4901 -0.2050
  284ACOH    O111168   7.327   9.400   1.773 -0.1907 -0.3745 -0.0765
  284ACOH    C111169   7.312   9.202   1.636 -0.7151 -0.3954  0.0025
  284ACOH    H111170   7.397   9.159   1.689 -0.7930 -0.4150  0.1099
  284ACOH    H211171   7.349   9.243   1.542 -0.4110  0.8813  0.6579
  284ACOH    H311172   7.236   9.126   1.619 -0.7419  0.5362 -4.7441
  285ACOH    H411173   7.078   0.228   0.581 -1.1542  0.6302 -0.1227
  285ACOH    O211174   7.104   0.222   0.488  0.8771  0.5871  0.4331
  285ACOH    C211175   7.187   0.316   0.449 -0.2957  0.0697  0.1542
  285ACOH    O111176   7.207   0.428   0.499 -0.0833  0.0399 -0.2926
  285ACOH    C111177   7.219   0.298   0.307  0.2952 -0.0311  0.3659
  285ACOH    H111178   7.202   0.194   0.278 -0.9974  0.1072  0.5996
  285ACOH    H211179   7.324   0.328   0.303  0.1135  0.4386 -1.2218
  285ACOH    H311180   7.158   0.355   0.237  0.9930  2.0096  1.3778
  286ACOH    H411181   1.694   2.373   0.729  0.4871  0.9493 -2.1012
  286ACOH    O211182   1.675   2.450   0.785 -0.0611 -0.4255 -0.3213
  286ACOH    C211183   1.565   2.510   0.740  0.1766 -0.7860  0.2263
  286ACOH    O111184   1.506   2.473   0.642  0.7794  0.1437  0.4200
  286ACOH    C111185   1.543   2.641   0.815  0.3903  0.2354 -0.4237
  286ACOH    H111186   1.641   2.685   0.833  1.8466 -2.4095 -1.4230
  286ACOH    H211187   1.499   2.613   0.910  2.2240 -0.4741  0.2562
  286ACOH    H311188   1.482   2.708   0.755  1.5882  1.8318  0.1243
  287ACOH    H411189   4.779   8.580   1.379  2.0993 -1.1091  0.7579
  287ACOH    O211190   4.825   8.626   1.306 -0.4875  0.4165  0.0160
  287ACOH    C211191   4.861   8.746   1.348 -0.7816 -0.5285 -0.2013
  287ACOH    O111192   4.877   8.782   1.463 -0.2616 -0.4208 -0.0499
  287ACOH    C111193   4.943   8.815   1.241  0.2710  0.5750 -0.2077
  287ACOH    H111194   4.931   8.923   1.243  0.9422  0.6482  0.1537
  287ACOH    H211195   4.907   8.778   1.145  1.1301  1.6158 -0.9366
  287ACOH    H311196   5.048   8.788   1.254 -0.1650 -1.0506  0.1426
  288ACOH    H411197   7.926   4.231   6.516 -2.5979  0.8278 -1.7938
  288ACOH    O211198   7.871   4.197   6.589  0.2943 -0.2071  0.0030
  288ACOH    C211199   7.772   4.283   6.616 -0.5487  0.1317  0.3145
  288ACOH    O111200   7.748   4.389   6.563  0.1671 -0.3960  0.2077
  288ACOH    C111201   7.684   4.228   6.726 -0.4003  0.0494 -0.0240
  288ACOH    H111202   7.686   4.291   6.815  0.2901  0.9374 -0.6541
  288ACOH    H211203   7.693   4.122   6.750 -0.5160  0.7030  3.0591
  288ACOH    H311204   7.584   4.237   6.685 -1.0676 -0.0497  1.5577
  289ACOH    H411205   5.418   0.663   1.224  3.3718 -2.7760 -2.8672
  289ACOH    O211206   5.500   0.674   1.275  0.7509  0.2933  1.0093
  289ACOH    C211207   5.603   0.651   1.184 -0.9190 -0.5529  0.7340
  289ACOH    O111208   5.596   0.672   1.065  0.2496  0.2102 -0.2374
  289ACOH    C111209   5.732   0.634   1.252  0.3723  0.1333  0.3700
  289ACOH    H111210   5.759   0.726   1.303  2.1806  1.5357 -2.9891
  289ACOH    H211211   5.818   0.594   1.199  0.8525 -0.3101  1.4535
  289ACOH    H311212   5.713   0.562   1.332  1.4600  0.4985  0.9623
  290ACOH    H411213   5.211   7.199   2.569 -1.1346  0.7949 -0.6634
  290ACOH    O211214   5.283   7.256   2.602 -0.5159 -0.4285  0.1263
  290ACOH    C211215   5.312   7.214   2.726  0.4887  0.1734 -0.0383
  290ACOH    O111216   5.243   7.146   2.804 -0.2612 -0.1547  0.2028
  290ACOH    C111217   5.446   7.259   2.760 -0.1734  0.2214  0.2734
  290ACOH    H111218   5.519   7.216   2.691 -0.5818  1.0920 -0.7211
  290ACOH    H211219   5.472   7.222   2.859 -1.5904  4.1424  2.1848
  290ACOH    H311220   5.446   7.368   2.758 -1.9275  0.2234 -1.4722
  291ACOH    H411221   1.758   6.783   2.287  0.2816 -1.1771 -2.4346
  291ACOH    O211222   1.814   6.713   2.326 -0.0894 -0.2440 -0.1338
  291ACOH    C211223   1.785   6.703   2.455 -0.0425  0.1403 -0.7859
  291ACOH    O111224   1.695   6.756   2.511  0.6841 -0.2149  0.2929
  291ACOH    C111225   1.863   6.601   2.518  0.4301 -0.3049  0.0134
  291ACOH    H111226   1.843   6.509   2.463 -1.6913  0.4594 -0.5548
  291ACOH    H211227   1.830   6.596   2.622  1.4591 -0.3886  0.3436
  291ACOH    H311228   1.968   6.628   2.515  0.5335 -0.7999 -1.5976
  292ACOH    H411229   5.364   2.484   3.940  0.1529 -1.2415 -0.4449
  292ACOH    O211230   5.341   2.557   3.880 -0.2735 -0.8864  0.1489
  292ACOH    C211231   5.257   2.494   3.797 -0.0931  0.1880  0.0056
  292ACOH    O111232   5.242   2.372   3.788 -0.5474  0.1439  0.1706
  292ACOH    C111233   5.217   2.582   3.687  0.6632  0.5403  0.1753
  292ACOH    H111234   5.297   2.607   3.617 -1.6967 -0.6265 -3.0484
  292ACOH    H211235   5.174   2.674   3.727 -2.4607 -0.4479 -0.7450
  292ACOH    H311236   5.137   2.538   3.628  0.7729  0.5208  0.0391
  293ACOH    H411237   5.580   6.719   1.226 -2.1429 -0.7371  0.3617
  293ACOH    O211238   5.601   6.636   1.181 -0.1281  0.0967 -0.2549
  293ACOH    C211239   5.692   6.673   1.096  0.5625  0.6783 -0.1691
  293ACOH    O111240   5.742   6.782   1.070  0.4900  0.1035 -0.1708
  293ACOH    C111241   5.729   6.555   1.025  0.4740  0.1542  0.0445
  293ACOH    H111242   5.655   6.522   0.952  0.8071 -1.0156  0.2247
  293ACOH    H211243   5.743   6.469   1.090 -0.4393 -0.6978 -0.8762
  293ACOH    H311244   5.826   6.571   0.978  0.4933  3.5114  1.0768
  294ACOH    H411245   0.535   3.273   6.164  0.6266  1.2345 -1.6223
  294ACOH    O211246   0.486   3.342   6.212  0.0957 -0.0015 -0.3892
  294ACOH    C211247   0.364   3.291   6.232  0.6441 -0.5360 -0.4725
  294ACOH    O111248   0.313   3.199   6.177 -0.0549 -0.0706  0.3541
  294ACOH    C111249   0.277   3.383   6.315 -0.1286 -0.8781 -0.1222
  294ACOH    H111250   0.211   3.334   6.386  0.9861 -0.6843  1.0778
  294ACOH    H211251   0.220   3.442   6.244 -1.5925  0.0320  1.7630
  294ACOH    H311252   0.348   3.444   6.372  1.1028 -1.2487 -1.2303
  295ACOH    H411253   5.733   2.976   5.616 -0.6469  1.2812 -1.7015
  295ACOH    O211254   5.809   2.933   5.572 -0.4323 -0.2367  0.1031
  295ACOH    C211255   5.840   2.819   5.633 -0.6408  0.0851  0.1083
  295ACOH    O111256   5.770   2.739   5.692  0.6113  0.2797  0.3753
  295ACOH    C111257   5.971   2.785   5.569  0.1470  0.2850 -0.5384
  295ACOH    H111258   6.021   2.716   5.636  1.7214  0.7914 -1.1871
  295ACOH    H211259   6.033   2.873   5.558  0.1426  0.3858  0.2294
  295ACOH    H311260   5.940   2.741   5.473  0.7130 -0.6159 -0.3102
  296ACOH    H411261   4.306   9.564   2.836  0.5851 -0.3916  0.6792
  296ACOH    O211262   4.305   9.601   2.926 -0.4239  1.0127  0.1057
  296ACOH    C211263   4.212   9.696   2.923 -0.5450  0.2423 -0.3913
  296ACOH    O111264   4.149   9.727   2.825  1.0196  0.5565  0.1658
  296ACOH    C111265   4.180   9.751   3.055 -0.6567  0.0363 -0.3326
  296ACOH    H111266   4.111   9.833   3.036  2.0922  2.5894  0.2884
  296ACOH    H211267   4.273   9.787   3.100  0.1707 -1.2787 -0.9701
  296ACOH    H311268   4.132   9.673   3.114  0.0992 -0.6975 -0.6689
  297ACOH    H411269   6.635   2.833   2.590 -1.8414 -1.0000 -0.9377
  297ACOH    O211270   6.594   2.887   2.521 -0.1749  0.7425 -0.5887
  297ACOH    C211271   6.672   2.860   2.415 -0.6380  1.1808  0.4548
  297ACOH    O111272   6.788   2.894   2.413  0.3488 -0.1280 -0.2818
  297ACOH    C111273   6.591   2.841   2.295  0.6706  0.2471 -0.1399
  297ACOH    H111274   6.508   2.911   2.296  1.5564  1.3022  1.4709
  297ACOH    H211275   6.543   2.743   2.301 -3.6235  1.8904 -4.5802
  297ACOH    H311276   6.644   2.858   2.202  0.4781  1.0818 -0.1030
  298ACOH    H411277   2.064   3.070   3.097  1.3171  0.7770 -1.8790
  298ACOH    O211278   2.094   3.144   3.152  0.5536 -0.3956  0.1714
  298ACOH    C211279   2.048   3.257   3.094  0.1133  0.6694  0.3367
  298ACOH    O111280   2.006   3.274   2.979 -0.5194 -0.6474 -0.1709
  298ACOH    C111281   2.071   3.369   3.187  0.5626  0.5541  0.1430
  298ACOH    H111282   2.004   3.449   3.158  1.1479  0.7978 -0.5636
  298ACOH    H211283   2.174   3.405   3.182  1.3631 -1.5321  0.8126
  298ACOH    H311284   2.052   3.332   3.288  2.0332 -0.1016  0.1968
  299ACOH    H411285   5.581   4.376   1.650 -2.0309  1.1265  1.4994
  299ACOH    O211286   5.587   4.303   1.713 -0.0337 -0.0553 -0.0179
  299ACOH    C211287   5.685   4.329   1.799  0.6286 -0.2349  0.2291
  299ACOH    O111288   5.776   4.404   1.790  0.1774  0.1118 -0.1549
  299ACOH    C111289   5.678   4.230   1.913  0.2681 -0.5700  0.5746
  299ACOH    H111290   5.620   4.279   1.991 -0.5353  0.2719 -0.5367
  299ACOH    H211291   5.779   4.219   1.951  0.4797  1.4493  0.6439
  299ACOH    H311292   5.640   4.131   1.891 -1.4617  0.4125 -1.0866
  300ACOH    H411293   8.572   0.247   1.545  0.3713 -1.2192  0.2216
  300ACOH    O211294   8.654   0.265   1.496 -0.2131 -0.1398 -0.3899
  300ACOH    C211295   8.747   0.171   1.486 -0.5283  0.2042  0.3947
  300ACOH    O111296   8.768   0.094   1.578  0.6930 -0.2594 -0.3403
  300ACOH    C111297   8.842   0.183   1.369  0.0050 -0.4444 -0.6153
  300ACOH    H111298   8.782   0.179   1.279 -1.8516 -1.4571  0.6263
  300ACOH    H211299   8.909   0.096   1.375  0.1646 -0.2280  0.9850
  300ACOH    H311300   8.898   0.275   1.383  0.8096 -0.8446 -1.1892
  301ACOH    H411301   6.913   7.185   6.089  0.7067  1.1471 -2.3491
  301ACOH    O211302   6.839   7.240   6.119  0.5329 -0.4480  0.2632
  301ACOH    C211303   6.825   7.227   6.252 -0.1448 -0.4964  0.3682
  301ACOH    O111304   6.863   7.131   6.314 -0.0624  0.2087  0.0641
  301ACOH    C111305   6.719   7.319   6.301  0.7522  0.0318  0.8761
  301ACOH    H111306   6.707   7.401   6.230  3.9787 -0.5393 -0.3735
  301ACOH    H211307   6.740   7.348   6.404  1.5361  1.1318  0.4186
  301ACOH    H311308   6.624   7.266   6.295  0.9563 -0.1295 -1.0059
  302ACOH    H411309   3.834   0.387   4.360 -0.7952 -0.6169  1.6907
  302ACOH    O211310   3.859   0.304   4.315 -0.5891  0.1128  0.4551
  302ACOH    C211311   3.843   0.206   4.412  0.1297 -1.3363  0.1640
  302ACOH    O111312   3.843   0.221   4.531 -0.0215 -0.0210  0.0913
  302ACOH    C111313   3.866   0.074   4.351  0.2829  0.4657 -0.1982
  302ACOH    H111314   3.775   0.017   4.366  1.6876 -1.8631 -0.3213
  302ACOH    H211315   3.949   0.026   4.403  1.7823 -0.6719 -3.5339
  302ACOH    H311316   3.893   0.082   4.246  0.0480  1.1133 -0.2139
  303ACOH    H411317   5.846   9.667   3.414 -0.6375 -2.0494 -1.1004
  303ACOH    O211318   5.753   9.691   3.399 -0.2793 -0.2009 -0.5004
  303ACOH    C211319   5.683   9.635   3.503  0.9430  0.2637 -0.4967
  303ACOH    O111320   5.722   9.557   3.582 -0.5272 -1.0665 -0.2906
  303ACOH    C111321   5.539   9.668   3.481  0.0652 -0.2361 -0.1916
  303ACOH    H111322   5.501   9.598   3.407 -1.3714 -0.9637  1.2016
  303ACOH    H211323   5.528   9.770   3.444 -1.9620  0.1636  1.4060
  303ACOH    H311324   5.482   9.659   3.574  0.3536  2.4894  0.2979
  304ACOH    H411325   6.864   3.424   4.799 -0.9546  1.2734  2.3300
  304ACOH    O211326   6.915   3.507   4.799  0.5757  0.3771 -0.0229
  304ACOH    C211327   6.920   3.572   4.685  0.6129 -0.2399 -0.2890
  304ACOH    O111328   6.903   3.540   4.568 -0.1841 -0.6873  0.0931
  304ACOH    C111329   6.973   3.709   4.727  0.1959 -0.0803  0.0859
  304ACOH    H111330   6.946   3.779   4.648  1.3448 -1.7387 -1.8233
  304ACOH    H211331   7.082   3.708   4.720  0.2137  1.9443 -0.2273
  304ACOH    H311332   6.936   3.738   4.825 -0.9141 -1.5842  0.1265
  305ACOH    H411333   3.863   2.679   1.018 -0.7718 -1.1270  1.7187
  305ACOH    O211334   3.940   2.694   1.075  0.1939 -0.4185  0.2714
  305ACOH    C211335   3.925   2.807   1.153 -0.0636 -0.3717 -0.5021
  305ACOH    O111336   3.847   2.892   1.124  0.2258 -0.3358  0.2734
  305ACOH    C111337   4.045   2.830   1.234  0.0288 -0.5696 -0.1325
  305ACOH    H111338   4.026   2.889   1.323 -2.5803 -0.9688 -0.3892
  305ACOH    H211339   4.132   2.869   1.180  2.3956 -2.6067  2.1033
  305ACOH    H311340   4.092   2.738   1.268  1.4137  0.4395  0.7169
  306ACOH    H411341   3.687   6.100   5.177  1.7628 -1.3123 -1.2117
  306ACOH    O211342   3.723   6.190   5.179 -0.5629 -0.3720 -0.2819
  306ACOH    C211343   3.728   6.232   5.306 -0.2552  0.6710  0.3161
  306ACOH    O111344   3.670   6.191   5.407  0.3214  0.1600 -0.4701
  306ACOH    C111345   3.829   6.343   5.313  0.2787 -0.3546 -0.1251
  306ACOH    H111346   3.840   6.374   5.417 -2.4553 -1.1547  0.4632
  306ACOH    H211347   3.802   6.433   5.257 -0.3143  0.6233  1.6765
  306ACOH    H311348   3.927   6.304   5.287  0.1110 -0.1287 -1.1027
  307ACOH    H411349   2.242   5.043   5.648 -0.9313 -0.1420 -1.0695
  307ACOH    O211350   2.202   4.980   5.711 -0.2096  0.2496 -0.2077
  307ACOH    C211351   2.300   4.907   5.770  0.3310 -0.3148 -0.3037
  307ACOH    O111352   2.417   4.891   5.733 -0.4711 -0.2794 -0.2437
  307ACOH    C111353   2.245   4.811   5.869 -0.4152 -0.6891 -0.3468
  307ACOH    H111354   2.272   4.707   5.850  3.0527 -0.1322  1.2051
  307ACOH    H211355   2.137   4.822   5.880 -0.3882 -0.4795 -0.2970
  307ACOH    H311356   2.286   4.838   5.966  0.6246 -0.4469 -0.8566
  308ACOH    H411357   7.066   9.192   2.296 -0.1067  0.6631 -0.4466
  308ACOH    O211358   7.023   9.107   2.317  0.0144  0.7844  0.3279
  308ACOH    C211359   6.892   9.145   2.331  0.2051 -0.7549 -0.8214
  308ACOH    O111360   6.841   9.250   2.298  0.4124  0.5330  0.3586
  308ACOH    C111361   6.819   9.024   2.379 -0.6817 -0.5987  0.1820
  308ACOH    H111362   6.822   9.016   2.487 -0.2228  2.4295  0.4237
  308ACOH    H211363   6.876   8.942   2.335 -0.3856  0.0548 -0.6658
  308ACOH    H311364   6.719   9.013   2.335 -0.5670  1.2615 -0.6136
  309ACOH    H411365   5.938   0.968   0.933 -0.5914 -0.3113 -0.8786
  309ACOH    O211366   5.999   1.004   0.867 -0.3456  1.1333  0.1060
  309ACOH    C211367   5.950   1.018   0.740  0.1812 -0.6508  1.0152
  309ACOH    O111368   5.830   1.007   0.720  0.0867  0.3901  0.1225
  309ACOH    C111369   6.044   1.083   0.645 -0.1430  0.0649 -0.4674
  309ACOH    H111370   6.033   1.039   0.546  1.9354 -2.4605  0.3684
  309ACOH    H211371   6.148   1.070   0.675 -1.5265 -2.8280  3.4855
  309ACOH    H311372   6.021   1.189   0.637  1.6595  0.4264 -1.0751
  310ACOH    H411373   5.396   2.353   2.211  0.0467 -0.0733  1.6446
  310ACOH    O211374   5.391   2.445   2.181 -0.1650 -0.3860  0.6816
  310ACOH    C211375   5.295   2.466   2.094 -0.7427 -0.6056 -0.0433
  310ACOH    O111376   5.211   2.387   2.064 -0.3738 -0.3890 -0.1259
  310ACOH    C111377   5.279   2.610   2.063 -0.0323 -0.8576  0.3759
  310ACOH    H111378   5.191   2.663   2.100  0.2161 -0.3230  0.2052
  310ACOH    H211379   5.271   2.613   1.954 -0.3118 -2.6367  0.3443
  310ACOH    H311380   5.364   2.668   2.099 -0.9993  1.2964 -0.6919
  311ACOH    H411381   7.241   9.843   1.283  0.5237 -1.4206 -0.7088
  311ACOH    O211382   7.193   9.770   1.326 -0.1626 -0.3514  0.3599
  311ACOH    C211383   7.229   9.782   1.458  0.1197 -1.0115  0.3045
  311ACOH    O111384   7.272   9.885   1.517  0.0974  0.2345  0.5886
  311ACOH    C111385   7.179   9.673   1.542 -0.0992 -0.0017 -0.0883
  311ACOH    H111386   7.096   9.709   1.603 -0.1332 -2.7742  1.6146
  311ACOH    H211387   7.260   9.627   1.598 -0.6253 -1.6962 -0.6724
  311ACOH    H311388   7.141   9.594   1.478 -0.8920  0.9461 -0.7957
  312ACOH    H411389   7.550   4.028   4.497 -0.4041 -0.0557  1.4755
  312ACOH    O211390   7.518   4.106   4.448  0.7782 -0.1726  0.4549
  312ACOH    C211391   7.579   4.210   4.520  0.6993 -0.2743 -0.2377
  312ACOH    O111392   7.693   4.214   4.563 -0.1669  0.0762 -0.1867
  312ACOH    C111393   7.499   4.333   4.487  0.0885  0.0491 -0.7629
  312ACOH    H111394   7.487   4.339   4.379 -0.2977 -2.5000 -0.9173
  312ACOH    H211395   7.542   4.425   4.526  0.3882  0.2505 -1.5545
  312ACOH    H311396   7.401   4.324   4.535  0.4488 -0.5691 -0.1312
  313ACOH    H411397   2.088   4.667   5.313  1.6438 -1.1736  2.9950
  313ACOH    O211398   2.180   4.690   5.292  0.8097  0.2422  0.5954
  313ACOH    C211399   2.230   4.568   5.265  0.1798 -0.1505 -0.1961
  313ACOH    O111400   2.190   4.460   5.302  1.3339 -0.5309 -0.2401
  313ACOH    C111401   2.369   4.592   5.224  0.1839  0.6455  0.1267
  313ACOH    H111402   2.366   4.637   5.125  1.0660  1.3120  0.3958
  313ACOH    H211403   2.426   4.499   5.216 -0.3377  0.4894 -1.9975
  313ACOH    H311404   2.410   4.658   5.300  0.4796 -2.1405  2.4861
  314ACOH    H411405   5.338   3.958   1.587  0.9473 -0.5245  0.4202
  314ACOH    O211406   5.335   3.867   1.553 -0.0020 -0.4095  0.1778
  314ACOH    C211407   5.292   3.783   1.650  0.0271  0.3165  0.0159
  314ACOH    O111408   5.216   3.826   1.733 -0.0632 -0.1152  0.5700
  314ACOH    C111409   5.310   3.636   1.645  0.5772  0.8107  0.5528
  314ACOH    H111410   5.413   3.609   1.669  0.6214 -0.5167 -1.0585
  314ACOH    H211411   5.283   3.598   1.546  2.7948  0.9586 -0.1349
  314ACOH    H311412   5.245   3.585   1.716  0.1663  0.8118  0.1830
  315ACOH    H411413   6.690   4.767   2.915 -0.3397  0.4409  0.4682
  315ACOH    O211414   6.600   4.756   2.952 -0.4212  0.4268  0.2690
  315ACOH    C211415   6.515   4.835   2.882  0.2303  0.3501 -0.1358
  315ACOH    O111416   6.541   4.914   2.790  0.2528  0.9925 -0.1179
  315ACOH    C111417   6.378   4.804   2.916 -0.1877  0.0826 -0.4028
  315ACOH    H111418   6.310   4.835   2.837 -0.9939 -1.6626 -0.4109
  315ACOH    H211419   6.348   4.845   3.013  2.0543 -0.0598  0.3766
  315ACOH    H311420   6.370   4.696   2.925 -4.1146  0.3195 -0.1796
  316ACOH    H411421   6.600   6.574   5.918 -1.4127 -0.1929  0.0164
  316ACOH    O211422   6.622   6.619   6.001 -0.4899 -0.5347 -0.0372
  316ACOH    C211423   6.635   6.752   5.957  1.0074  0.4700 -0.6592
  316ACOH    O111424   6.601   6.795   5.842 -0.7961  0.9531 -0.3236
  316ACOH    C111425   6.703   6.831   6.056 -0.0101 -0.2440  0.4193
  316ACOH    H111426   6.626   6.843   6.132 -0.8757 -2.0714 -0.1367
  316ACOH    H211427   6.740   6.928   6.021  0.7620 -0.8336 -0.4142
  316ACOH    H311428   6.784   6.773   6.099  0.2399 -1.2231 -1.3194
  317ACOH    H411429   6.531   7.141   3.483  0.9192 -0.6687  1.8765
  317ACOH    O211430   6.540   7.059   3.431  0.3206  0.2027  0.3557
  317ACOH    C211431   6.517   7.081   3.297 -0.5215 -0.6020  0.0490
  317ACOH    O111432   6.486   7.191   3.256 -0.2770 -0.0858 -0.3913
  317ACOH    C111433   6.552   6.970   3.204 -0.4915  0.5570 -0.6234
  317ACOH    H111434   6.653   6.937   3.231 -0.0749  0.4603 -2.2756
  317ACOH    H211435   6.553   7.007   3.102 -2.0463  1.4011 -0.3402
  317ACOH    H311436   6.482   6.888   3.218  0.2677 -0.0394 -0.3004
  318ACOH    H411437   4.595   8.046   6.302 -0.7345 -2.1267 -0.9099
  318ACOH    O211438   4.625   7.995   6.379 -0.4300 -0.2024  0.2588
  318ACOH    C211439   4.527   7.990   6.475 -0.2871  0.6694  0.1817
  318ACOH    O111440   4.415   8.026   6.452 -0.5447  0.2411  0.4089
  318ACOH    C111441   4.547   7.884   6.576 -0.6770  0.4585 -0.6875
  318ACOH    H111442   4.594   7.933   6.661 -3.0603  1.0159  0.3454
  318ACOH    H211443   4.614   7.805   6.543  0.5415  1.2190 -0.0696
  318ACOH    H311444   4.461   7.832   6.617 -0.9967  0.7988 -0.9140
  319ACOH    H411445   4.701   3.630   2.162 -0.4869  2.5567 -0.3360
  319ACOH    O211446   4.793   3.641   2.191 -0.0921 -0.3701 -0.3535
  319ACOH    C211447   4.863   3.640   2.075 -0.6980 -0.3221  0.0851
  319ACOH    O111448   4.816   3.647   1.964 -0.7955 -0.0904  0.6375
  319ACOH    C111449   5.003   3.675   2.103  0.1994  0.2309 -0.7066
  319ACOH    H111450   5.030   3.645   2.205 -0.4729 -0.0780 -0.6175
  319ACOH    H211451   5.039   3.774   2.078  1.1963  0.3321  0.9892
  319ACOH    H311452   5.062   3.615   2.034  0.6110  1.1734 -1.1741
  320ACOH    H411453   4.410   5.048   3.242  0.2134 -0.1826 -2.7937
  320ACOH    O211454   4.495   5.001   3.252 -0.0269 -0.0551  0.2047
  320ACOH    C211455   4.505   4.947   3.127  0.5789 -0.2816  0.1643
  320ACOH    O111456   4.464   4.995   3.022 -0.2609 -0.0033  0.2453
  320ACOH    C111457   4.599   4.836   3.113  0.0733  0.5108  0.0493
  320ACOH    H111458   4.617   4.796   3.212 -3.2776 -0.5209  0.3063
  320ACOH    H211459   4.691   4.871   3.066  0.5620  1.1408  1.4728
  320ACOH    H311460   4.554   4.760   3.049 -0.4393  0.3651  0.5877
  321ACOH    H411461   6.990   6.666   5.079  0.4546  0.3533 -0.2334
  321ACOH    O211462   6.898   6.644   5.057  0.5518 -0.6806  0.3680
  321ACOH    C211463   6.850   6.752   4.982 -0.0915 -0.6964  0.1648
  321ACOH    O111464   6.897   6.862   4.967 -0.0043 -0.4970 -0.1623
  321ACOH    C111465   6.711   6.736   4.959 -0.1059  0.5672 -0.0284
  321ACOH    H111466   6.673   6.812   4.890 -0.8608 -0.1027 -0.3551
  321ACOH    H211467   6.652   6.750   5.050 -2.2773 -2.4094 -0.8893
  321ACOH    H311468   6.688   6.644   4.905  1.6097  1.1907 -1.9032
  322ACOH    H411469   5.508   8.575   6.552 -0.6208  0.0970  0.6438
  322ACOH    O211470   5.474   8.486   6.570  0.5493 -0.4408  0.2797
  322ACOH    C211471   5.368   8.492   6.653 -0.0701 -0.4563  0.2783
  322ACOH    O111472   5.299   8.590   6.672  0.1079 -0.4109 -0.5697
  322ACOH    C111473   5.342   8.359   6.714 -0.7459 -0.5779  0.0030
  322ACOH    H111474   5.437   8.308   6.724  0.1586  1.1511  0.5058
  322ACOH    H211475   5.278   8.301   6.647 -0.2411  1.5991 -2.4705
  322ACOH    H311476   5.300   8.374   6.813 -2.7588 -1.8799 -0.6256
  323ACOH    H411477   7.585   4.378   4.125  0.3591 -0.2018 -0.5262
  323ACOH    O211478   7.556   4.464   4.160 -0.4020 -0.8040  0.3171
  323ACOH    C211479   7.636   4.489   4.264 -0.5886  0.1313  0.3897
  323ACOH    O111480   7.728   4.415   4.285 -0.6155  0.2410  0.4231
  323ACOH    C111481   7.627   4.621   4.337 -0.0411 -0.1732 -0.4521
  323ACOH    H111482   7.683   4.617   4.431 -0.4301  1.8595 -0.1254
  323ACOH    H211483   7.529   4.664   4.357 -0.0704  0.0753 -1.1155
  323ACOH    H311484   7.670   4.695   4.270 -0.9211  0.6131 -0.1554
  324ACOH    H411485   4.928   4.302   4.377 -0.0626  0.6991  0.8302
  324ACOH    O211486   4.989   4.236   4.412 -0.3472 -0.1937 -0.3291
  324ACOH    C211487   5.074   4.195   4.318  0.4445 -0.1557 -0.0932
  324ACOH    O111488   5.127   4.082   4.313  0.5199 -0.5669 -0.2181
  324ACOH    C111489   5.099   4.298   4.209 -1.4257  0.8116 -0.5658
  324ACOH    H111490   5.016   4.368   4.197 -1.1897  0.9428 -1.5334
  324ACOH    H211491   5.113   4.240   4.118  0.7044 -1.5704  1.2138
  324ACOH    H311492   5.178   4.366   4.241 -1.6883 -0.0156  1.8568
  325ACOH    H411493   7.642   5.402   2.839  0.2971  0.2787  0.9236
  325ACOH    O211494   7.720   5.438   2.793  0.4806 -0.5932  0.5359
  325ACOH    C211495   7.784   5.337   2.736  0.3616 -0.2112 -0.0205
  325ACOH    O111496   7.745   5.226   2.727  0.2487 -0.0050  0.5858
  325ACOH    C111497   7.900   5.397   2.660  0.6870  0.1924  0.5987
  325ACOH    H111498   7.948   5.320   2.599 -2.1428 -0.2454 -1.1572
  325ACOH    H211499   7.973   5.450   2.721  2.5499  0.3078 -1.6433
  325ACOH    H311500   7.865   5.475   2.593  2.0954 -0.5789 -1.0938
  326ACOH    H411501   6.526   6.071   1.401 -1.7515  0.8362  0.6796
  326ACOH    O211502   6.582   6.108   1.472 -0.3145 -0.1883  0.1098
  326ACOH    C211503   6.591   6.010   1.562 -0.2647 -0.3833  0.9476
  326ACOH    O111504   6.522   5.911   1.554  0.0841  0.0380 -0.1817
  326ACOH    C111505   6.687   6.032   1.674  0.8268  0.2074 -0.4065
  326ACOH    H111506   6.790   6.042   1.641  0.8428 -0.4164 -0.5497
  326ACOH    H211507   6.673   5.958   1.753 -0.9017  0.9985  0.0599
  326ACOH    H311508   6.666   6.134   1.705  0.4369  0.4083 -1.3024
  327ACOH    H411509   5.381   2.919   5.369  0.7030 -0.1941  0.0038
  327ACOH    O211510   5.306   2.879   5.416  0.5644  0.4847  0.3573
  327ACOH    C211511   5.208   2.974   5.401 -0.0436 -0.2652 -0.9557
  327ACOH    O111512   5.217   3.065   5.326  0.2715  0.1909  1.1121
  327ACOH    C111513   5.084   2.924   5.463  0.4979  0.1649 -0.2110
  327ACOH    H111514   5.002   2.987   5.431 -0.1171  0.0438  1.0703
  327ACOH    H211515   5.093   2.921   5.572  1.9436 -1.0595 -0.3390
  327ACOH    H311516   5.070   2.821   5.429 -1.7033  0.8408 -1.4449
  328ACOH    H411517   6.427   4.044   1.378 -0.7399  0.0306 -0.6245
  328ACOH    O211518   6.406   4.002   1.463 -0.3072  0.3822 -0.3441
  328ACOH    C211519   6.346   4.084   1.554  1.5131 -0.7053 -0.5329
  328ACOH    O111520   6.364   4.205   1.546 -0.1060 -0.0792  0.1348
  328ACOH    C111521   6.305   4.022   1.681  0.1240  0.1130 -0.1125
  328ACOH    H111522   6.312   3.915   1.662 -2.2061 -0.2154  0.7704
  328ACOH    H211523   6.200   4.040   1.701  0.1608 -1.3643  1.5154
  328ACOH    H311524   6.368   4.050   1.766 -0.2149  0.7843 -0.0831
  329ACOH    H411525   7.680   8.567   1.745 -0.2707 -2.1646  0.8870
  329ACOH    O211526   7.584   8.569   1.734 -0.1484 -0.4544 -0.0229
  329ACOH    C211527   7.519   8.564   1.853  0.5177  0.4666  0.8288
  329ACOH    O111528   7.561   8.607   1.956  0.2174  0.0218 -0.4765
  329ACOH    C111529   7.381   8.522   1.836  0.1323  0.5712  0.1960
  329ACOH    H111530   7.369   8.414   1.843  2.8694  0.3024  1.2529
  329ACOH    H211531   7.336   8.559   1.744  3.0650 -1.4803 -2.1700
  329ACOH    H311532   7.327   8.561   1.922 -0.4388  0.1564  0.0261
  330ACOH    H411533   8.752   2.036   5.378  0.7019 -0.0264  0.1177
  330ACOH    O211534   8.773   2.121   5.419  0.1152  0.2627 -0.1742
  330ACOH    C211535   8.804   2.205   5.314  0.6821  0.1361 -0.0723
  330ACOH    O111536   8.836   2.322   5.324 -0.3925 -0.0145  0.5748
  330ACOH    C111537   8.803   2.145   5.178  0.3123 -0.4844 -0.3384
  330ACOH    H111538   8.863   2.055   5.197  0.6735  0.1727  1.7502
  330ACOH    H211539   8.855   2.197   5.098  0.7729 -0.1021  0.1986
  330ACOH    H311540   8.700   2.117   5.157  0.1168 -0.2032  0.2428
  331ACOH    H411541   5.594   2.567   3.630  0.1156  0.4979  0.0647
  331ACOH    O211542   5.542   2.591   3.551 -0.0049 -0.1041 -0.0398
  331ACOH    C211543   5.491   2.487   3.485  0.8860 -0.1799  0.6434
  331ACOH    O111544   5.487   2.374   3.530 -0.3049 -0.1442  0.0675
  331ACOH    C111545   5.424   2.526   3.358 -0.4223  0.4712 -0.3564
  331ACOH    H111546   5.505   2.571   3.300 -0.1038  0.1030 -0.1979
  331ACOH    H211547   5.348   2.600   3.385 -0.5582  0.6986 -1.3561
  331ACOH    H311548   5.380   2.442   3.304 -0.6532  0.9877 -0.9833
  332ACOH    H411549   4.569   8.611   0.911 -1.1907  1.9772 -0.1969
  332ACOH    O211550   4.641   8.677   0.912  0.4386  0.2442  0.5843
  332ACOH    C211551   4.578   8.793   0.882  0.6578 -0.9788 -0.4170
  332ACOH    O111552   4.486   8.815   0.798  0.3411 -0.5791  0.4169
  332ACOH    C111553   4.647   8.909   0.946 -0.8404  0.1118  0.2898
  332ACOH    H111554   4.614   9.000   0.895 -0.8753 -0.5449 -0.8770
  332ACOH    H211555   4.755   8.896   0.940 -0.8607  0.0651  0.0015
  332ACOH    H311556   4.611   8.904   1.048 -0.6132  0.3111  0.3803
  333ACOH    H411557   4.537   5.377   4.611  0.6007 -1.1490  0.2496
  333ACOH    O211558   4.623   5.407   4.578  0.0710  0.0765 -0.0486
  333ACOH    C211559   4.667   5.364   4.458  0.7558  0.7592  0.0049
  333ACOH    O111560   4.625   5.270   4.402  0.5429  0.3406  0.2444
  333ACOH    C111561   4.784   5.440   4.412  0.1979  0.2119 -0.2922
  333ACOH    H111562   4.830   5.393   4.326 -0.1865 -0.1572 -0.2947
  333ACOH    H211563   4.862   5.428   4.488 -1.2537  0.2867  1.2326
  333ACOH    H311564   4.758   5.544   4.391  0.0126  0.6348  1.8495
  334ACOH    H411565   8.028   9.658   1.813 -0.2407 -3.0212 -0.9233
  334ACOH    O211566   7.955   9.641   1.874 -0.4370  0.5688 -0.0606
  334ACOH    C211567   7.902   9.763   1.912  0.1173  0.3159 -0.4227
  334ACOH    O111568   7.934   9.872   1.863 -0.2423  0.1211 -0.4660
  334ACOH    C111569   7.775   9.742   1.988 -0.9510 -0.3955  0.7508
  334ACOH    H111570   7.723   9.652   1.955 -1.0163  0.3273 -1.1618
  334ACOH    H211571   7.698   9.817   1.971  0.8029  0.8295 -2.1273
  334ACOH    H311572   7.791   9.737   2.096 -2.2127  3.2612  1.1801
  335ACOH    H411573   7.736   2.790   6.559 -1.5394 -0.7688 -0.6098
  335ACOH    O211574   7.749   2.721   6.626 -0.0341 -0.2480 -0.3452
  335ACOH    C211575   7.831   2.785   6.714  0.8616  0.1948  0.2200
  335ACOH    O111576   7.867   2.903   6.705 -0.3043 -0.5267  0.1311
  335ACOH    C111577   7.852   2.705   6.834  0.5417 -0.0233  0.3211
  335ACOH    H111578   7.958   2.694   6.855  0.6056  1.9011  1.1004
  335ACOH    H211579   7.805   2.608   6.821  0.7814 -0.2895  1.4371
  335ACOH    H311580   7.798   2.755   6.915  2.1354 -0.4278  1.6556
  336ACOH    H411581   4.824   1.549   6.476 -0.1091  2.6652  0.3157
  336ACOH    O211582   4.762   1.515   6.544  0.6086  0.5464 -0.0648
  336ACOH    C211583   4.776   1.382   6.554 -0.6227 -0.2089 -0.3123
  336ACOH    O111584   4.860   1.317   6.492 -0.0512  0.5169 -0.2815
  336ACOH    C111585   4.666   1.327   6.633  0.0409 -0.4484 -0.2857
  336ACOH    H111586   4.668   1.218   6.633 -1.9542 -0.5317  1.6861
  336ACOH    H211587   4.570   1.359   6.592 -0.3542 -0.0228  0.9434
  336ACOH    H311588   4.663   1.352   6.739 -0.6044 -0.9663 -0.1727
  337ACOH    H411589   3.487   1.089   1.781  1.3249 -0.9151  0.7284
  337ACOH    O211590   3.437   1.070   1.861 -0.1427  0.6033  0.2024
  337ACOH    C211591   3.384   1.178   1.919  0.0279 -0.1139 -0.3993
  337ACOH    O111592   3.351   1.285   1.872  0.1850  0.0244  0.0514
  337ACOH    C111593   3.379   1.166   2.063  0.0201 -0.6255 -0.0238
  337ACOH    H111594   3.274   1.146   2.082 -0.1121 -0.2379 -0.3349
  337ACOH    H211595   3.404   1.254   2.122 -0.7060 -2.0110  2.3912
  337ACOH    H311596   3.438   1.082   2.100  1.1090 -0.0239 -0.3488
  338ACOH    H411597   2.426   0.161   5.388 -1.1632 -1.7644 -1.8696
  338ACOH    O211598   2.349   0.215   5.366 -0.6468  0.1108  0.6055
  338ACOH    C211599   2.308   0.171   5.244  0.3618 -0.1682 -0.1802
  338ACOH    O111600   2.340   0.064   5.192  0.5343 -0.2115  0.3435
  338ACOH    C111601   2.188   0.252   5.204 -1.0663  0.1294  0.1229
  338ACOH    H111602   2.213   0.357   5.186  1.4389 -0.7608 -1.8174
  338ACOH    H211603   2.106   0.241   5.275 -0.6958 -0.6163  0.4447
  338ACOH    H311604   2.149   0.217   5.109  1.2787 -1.4440 -0.3032
  339ACOH    H411605   4.577   6.597   3.792  0.0552  0.0155  1.6636
  339ACOH    O211606   4.624   6.512   3.798 -0.2877 -0.2266  0.9738
  339ACOH    C211607   4.554   6.435   3.883 -0.0621  0.8627 -0.5725
  339ACOH    O111608   4.436   6.454   3.916 -0.0773 -0.5681 -0.2365
  339ACOH    C111609   4.611   6.306   3.915 -0.5171 -0.0181  0.1296
  339ACOH    H111610   4.696   6.287   3.848 -1.7222 -2.0497 -0.8482
  339ACOH    H211611   4.541   6.224   3.902 -1.2181  0.8315 -1.6290
  339ACOH    H311612   4.647   6.310   4.018 -1.2109  0.1633  0.3620
  340ACOH    H411613   4.169   9.930   4.626  2.7417  1.2201 -0.1771
  340ACOH    O211614   4.140  10.019   4.597 -0.0477  0.3595 -0.1456
  340ACOH    C211615   4.249  10.100   4.613  0.2800  0.1444  0.1997
  340ACOH    O111616   4.336  10.088   4.699 -0.0056 -0.1976  0.0318
  340ACOH    C111617   4.210  10.224   4.552 -0.0440 -0.3175 -0.3782
  340ACOH    H111618   4.110  10.255   4.581  0.3435  0.8724 -0.2655
  340ACOH    H211619   4.208  10.219   4.443 -0.3919  2.9171 -0.5729
  340ACOH    H311620   4.275  10.307   4.579 -2.5219  0.9637  1.9066
  341ACOH    H411621   8.576   4.463   2.825  2.2277 -1.6768  0.0484
  341ACOH    O211622   8.568   4.451   2.729 -0.3316 -0.5163  0.0820
  341ACOH    C211623   8.464   4.382   2.697  0.7263  0.2660  0.2119
  341ACOH    O111624   8.381   4.336   2.768 -0.1743  0.1403  0.3586
  341ACOH    C111625   8.471   4.367   2.547  0.0805  0.4575 -0.3876
  341ACOH    H111626   8.562   4.415   2.513  1.1136 -0.7183  0.6686
  341ACOH    H211627   8.382   4.414   2.505  0.3300  0.1204 -1.3018
  341ACOH    H311628   8.483   4.262   2.522  2.7175  0.3085  1.3038
  342ACOH    H411629   5.756   0.995   7.118  0.7619 -1.1111  0.9318
  342ACOH    O211630   5.770   1.066   7.184 -0.2092  0.0662 -0.1094
  342ACOH    C211631   5.775   1.175   7.106 -0.4169  0.2939  0.1718
  342ACOH    O111632   5.731   1.187   6.991  0.3165  0.1169  0.9204
  342ACOH    C111633   5.800   1.296   7.185  0.5353  0.2825  0.1146
  342ACOH    H111634   5.864   1.277   7.272 -0.0054  2.6880  1.1003
  342ACOH    H211635   5.706   1.330   7.229  0.3329 -0.1817  0.0388
  342ACOH    H311636   5.835   1.376   7.119  0.2978  1.0313  0.8768
  343ACOH    H411637   6.041   0.668   1.274  1.0597  2.3557  0.4981
  343ACOH    O211638   6.039   0.691   1.180  0.2429  0.3613  0.0116
  343ACOH    C211639   6.098   0.597   1.098  0.9730  0.3293  0.2137
  343ACOH    O111640   6.126   0.481   1.132  0.6591 -0.3468  0.3993
  343ACOH    C111641   6.085   0.628   0.952  0.2627 -0.3179 -0.4103
  343ACOH    H111642   5.983   0.620   0.916  0.2539  1.4356 -0.8405
  343ACOH    H211643   6.143   0.560   0.890 -0.3518  0.1198 -1.4731
  343ACOH    H311644   6.122   0.728   0.931  0.4892  0.2348  2.3795
  344ACOH    H411645   8.539   7.401   6.687 -0.6510 -1.2088 -0.2683
  344ACOH    O211646   8.458   7.426   6.736 -0.2291 -0.2694 -0.0300
  344ACOH    C211647   8.391   7.518   6.673  0.1175  0.0938  0.4102
  344ACOH    O111648   8.438   7.608   6.604 -0.3286 -0.2665 -0.3023
  344ACOH    C111649   8.264   7.543   6.744  0.4382 -0.0933  0.0162
  344ACOH    H111650   8.265   7.644   6.786  0.2235 -0.4852  0.9890
  344ACOH    H211651   8.261   7.469   6.824  0.0973 -0.6568 -0.5084
  344ACOH    H311652   8.174   7.529   6.684  0.9858 -1.8357 -0.4360
  345ACOH    H411653   6.767   7.288   4.118 -0.1316 -1.8484  0.6305
  345ACOH    O211654   6.671   7.284   4.105 -0.0561  0.1179 -0.6869
  345ACOH    C211655   6.618   7.402   4.150 -0.1284  0.4021  0.5456
  345ACOH    O111656   6.690   7.492   4.192  0.0923  0.0183  0.1836
  345ACOH    C111657   6.473   7.413   4.145 -0.5723 -0.1912 -0.0632
  345ACOH    H111658   6.427   7.375   4.236 -1.1095  0.3811 -0.0888
  345ACOH    H211659   6.440   7.369   4.051 -1.1665 -2.7545  1.2908
  345ACOH    H311660   6.445   7.518   4.141  0.6889  0.1095 -1.1959
  346ACOH    H411661   0.018   1.742   5.724 -1.8839  0.6222 -0.3247
  346ACOH    O211662   0.041   1.789   5.806  0.2003 -0.2202 -0.3861
  346ACOH    C211663   0.118   1.702   5.874  0.2231 -0.6874  0.6648
  346ACOH    O111664   0.156   1.592   5.836 -0.3279  0.1750  0.0339
  346ACOH    C111665   0.179   1.779   5.993 -0.2842  0.1108  0.2350
  346ACOH    H111666   0.130   1.874   6.014  1.2525  0.9421  0.0602
  346ACOH    H211667   0.284   1.796   5.970  0.1453  0.8937  2.6289
  346ACOH    H311668   0.171   1.706   6.074  1.1463 -0.8926 -0.5197
  347ACOH    H411669   5.558   4.704   0.329 -4.1326  0.9746 -1.3199
  347ACOH    O211670   5.591   4.787   0.292  0.0342 -0.0803 -0.2413
  347ACOH    C211671   5.493   4.875   0.299 -0.6546 -0.2754  0.0850
  347ACOH    O111672   5.377   4.850   0.320 -0.2249 -0.8343  0.0811
  347ACOH    C111673   5.552   5.005   0.270 -0.2374  0.7736  0.1303
  347ACOH    H111674   5.614   5.035   0.354 -0.9279  1.1275  0.5211
  347ACOH    H211675   5.477   5.085   0.264 -1.1966 -0.0353  1.0254
  347ACOH    H311676   5.616   5.009   0.182 -0.6100 -0.0051 -0.1868
  348ACOH    H411677   5.817   6.205   1.051  0.7110 -0.2123  1.5314
  348ACOH    O211678   5.872   6.285   1.051  0.5668 -0.1132  0.3716
  348ACOH    C211679   6.001   6.262   1.090 -0.2410 -0.5040  0.3981
  348ACOH    O111680   6.064   6.158   1.062  0.1946 -0.3253 -0.1808
  348ACOH    C111681   6.076   6.387   1.108  0.3035 -0.0801 -0.7430
  348ACOH    H111682   6.115   6.415   1.010  0.5991 -0.2221 -0.6678
  348ACOH    H211683   6.158   6.381   1.180 -0.5799  0.5205  0.3213
  348ACOH    H311684   6.013   6.465   1.150  1.7917  0.3207  0.8145
  349ACOH    H411685   2.973   6.662   1.717 -0.3755  0.0512 -1.4231
  349ACOH    O211686   3.000   6.569   1.713 -0.2833  0.0035  0.0484
  349ACOH    C211687   2.901   6.499   1.658 -0.2063 -0.5591  0.3562
  349ACOH    O111688   2.783   6.526   1.681  0.6159 -0.3453  0.2785
  349ACOH    C111689   2.952   6.375   1.594  0.4338  0.3265 -0.2130
  349ACOH    H111690   2.986   6.314   1.677 -0.8450 -0.5693 -0.3391
  349ACOH    H211691   3.035   6.396   1.526  0.3885 -0.2020 -0.4302
  349ACOH    H311692   2.872   6.321   1.545 -1.1145  0.8623  1.6775
  350ACOH    H411693   5.874   1.324   1.043 -1.8222 -1.8015 -0.8450
  350ACOH    O211694   5.932   1.318   0.966 -0.7794 -0.0997 -0.2077
  350ACOH    C211695   6.040   1.393   0.993  0.5301 -0.3810 -0.7711
  350ACOH    O111696   6.073   1.432   1.097  0.0680  0.2072  0.3026
  350ACOH    C111697   6.118   1.403   0.870 -0.1129  0.0221 -0.2945
  350ACOH    H111698   6.211   1.346   0.881 -1.1311 -1.4393  0.9590
  350ACOH    H211699   6.146   1.508   0.872 -1.1770  0.2984  2.1296
  350ACOH    H311700   6.069   1.370   0.779  0.7222 -0.0533 -0.7169
  351ACOH    H411701   1.382   4.720   2.283  0.7894 -0.1739 -1.2892
  351ACOH    O211702   1.476   4.699   2.299  0.6313  0.3662  0.5235
  351ACOH    C211703   1.525   4.790   2.388 -0.0176 -0.8192 -0.2551
  351ACOH    O111704   1.465   4.888   2.420 -0.5593 -0.1863  1.0137
  351ACOH    C111705   1.668   4.766   2.424 -0.4528  0.4616  0.7291
  351ACOH    H111706   1.694   4.816   2.517  1.2637 -0.9486  1.0272
  351ACOH    H211707   1.732   4.806   2.345 -0.8278 -1.5816 -0.6419
  351ACOH    H311708   1.690   4.662   2.446  0.1316  0.6683  1.1435
  352ACOH    H411709   6.555   8.534   7.116 -0.5273 -0.7833 -0.6185
  352ACOH    O211710   6.546   8.502   7.207  0.3093 -0.1440 -0.3071
  352ACOH    C211711   6.664   8.432   7.233  0.6185 -0.5173 -0.0929
  352ACOH    O111712   6.765   8.447   7.170 -0.5003  0.2860  0.7142
  352ACOH    C111713   6.665   8.384   7.371 -0.3519 -0.0315  0.4856
  352ACOH    H111714   6.569   8.389   7.422  0.3627 -1.4383  2.0138
  352ACOH    H211715   6.734   8.445   7.430  0.1298  0.0335 -0.1379
  352ACOH    H311716   6.704   8.283   7.377 -1.0550 -0.3638 -0.4337
  353ACOH    H411717   0.089   0.433   3.650  1.4130 -1.8788 -0.4878
  353ACOH    O211718   0.048   0.469   3.569  0.6768  0.6202  0.9312
  353ACOH    C211719  -0.048   0.388   3.528  0.6334 -0.0344 -0.8885
  353ACOH    O111720  -0.095   0.289   3.585  0.2396 -0.5315  0.6343
  353ACOH    C111721  -0.102   0.440   3.402  0.3762  0.6119  0.2651
  353ACOH    H111722  -0.209   0.458   3.409 -0.3263 -2.5123 -1.2490
  353ACOH    H211723  -0.085   0.367   3.322 -0.3464  0.3057  0.3905
  353ACOH    H311724  -0.043   0.524   3.366 -0.5678  2.0374  1.9976
  354ACOH    H411725   8.751   6.371   0.261  2.2308 -1.2455  1.2331
  354ACOH    O211726   8.681   6.308   0.284  0.4772  0.2224  0.0047
  354ACOH    C211727   8.672   6.217   0.193  0.3384  0.3676  0.5680
  354ACOH    O111728   8.765   6.200   0.113  0.2873  0.3869  0.4455
  354ACOH    C111729   8.573   6.109   0.230  1.5740 -0.1057  0.0694
  354ACOH    H111730   8.622   6.013   0.211 -2.3154 -1.7441 -2.4468
  354ACOH    H211731   8.486   6.104   0.164 -0.1575 -0.4018  2.3226
  354ACOH    H311732   8.542   6.117   0.334  0.2696  0.7474 -0.3792
  355ACOH    H411733   5.004   3.966   3.799  2.2600  1.1377  0.1431
  355ACOH    O211734   5.039   3.876   3.789  0.1169  0.3059 -0.0422
  355ACOH    C211735   5.003   3.820   3.674  0.3974 -0.7518 -0.4753
  355ACOH    O111736   4.907   3.856   3.606  0.1597  0.3329 -0.1126
  355ACOH    C111737   5.068   3.692   3.636 -0.4810  0.3505  0.3482
  355ACOH    H111738   5.034   3.615   3.705  0.5491  0.3767  0.8911
  355ACOH    H211739   5.176   3.692   3.617 -0.6036  0.2215 -0.3788
  355ACOH    H311740   5.026   3.668   3.538  1.5553 -1.4713 -0.1228
  356ACOH    H411741   5.229   6.184   3.184  0.2611  1.3040 -0.0052
  356ACOH    O211742   5.260   6.173   3.093 -0.7044 -0.0736 -0.1812
  356ACOH    C211743   5.282   6.290   3.037  0.3089 -0.2186 -0.3314
  356ACOH    O111744   5.291   6.397   3.099  0.0954 -0.4987 -0.1439
  356ACOH    C111745   5.321   6.275   2.900  0.0531  0.0308  0.8511
  356ACOH    H111746   5.274   6.189   2.852  0.3348  0.6601 -0.5850
  356ACOH    H211747   5.430   6.277   2.893  0.1132  2.2493  2.0902
  356ACOH    H311748   5.287   6.367   2.852  2.7747  1.3491  1.3823
  357ACOH    H411749   8.051   7.723   0.446  0.2064 -0.8600  0.5735
  357ACOH    O211750   7.999   7.709   0.364  0.3353  0.3614  0.2803
  357ACOH    C211751   8.049   7.593   0.307  0.1346 -0.1342 -0.6825
  357ACOH    O111752   8.166   7.562   0.309  0.2300  0.3339 -0.1256
  357ACOH    C111753   7.961   7.557   0.194 -0.1590 -0.0466  0.0381
  357ACOH    H111754   7.868   7.509   0.224  0.6620 -1.5771  0.1538
  357ACOH    H211755   8.017   7.499   0.121 -1.7138 -1.1881 -0.2884
  357ACOH    H311756   7.933   7.646   0.137 -1.2217  0.2559  0.9996
  358ACOH    H411757   5.208   1.740   4.193 -0.3821  0.2606 -0.0619
  358ACOH    O211758   5.178   1.746   4.101  0.1793 -0.3105 -0.2817
  358ACOH    C211759   5.269   1.793   4.010 -0.9553  0.4272 -0.1488
  358ACOH    O111760   5.349   1.876   4.052  0.0248  0.0639  0.0095
  358ACOH    C111761   5.239   1.775   3.867 -0.4244 -0.1527 -0.2111
  358ACOH    H111762   5.229   1.869   3.815  1.9031  0.2722  0.0845
  358ACOH    H211763   5.139   1.733   3.855  0.3023 -1.0025 -3.6382
  358ACOH    H311764   5.307   1.714   3.809  0.9067  0.1479  0.9966
  359ACOH    H411765   2.896   5.990   3.319  2.2946  0.2787 -3.2983
  359ACOH    O211766   2.901   5.893   3.317 -0.1921 -0.0287  0.2459
  359ACOH    C211767   2.815   5.844   3.410 -0.2448 -0.1681 -0.6941
  359ACOH    O111768   2.739   5.910   3.478  0.1084  0.2308  0.0754
  359ACOH    C111769   2.845   5.700   3.428  0.3739 -0.4760  0.1071
  359ACOH    H111770   2.801   5.657   3.518 -0.7011 -0.3340 -0.3435
  359ACOH    H211771   2.954   5.688   3.427  0.5249  0.8340 -0.1518
  359ACOH    H311772   2.801   5.657   3.338 -2.3376 -1.5947  1.9167
  360ACOH    H411773   9.765   5.118   4.171  1.5048  1.0339  1.1139
  360ACOH    O211774   9.717   5.107   4.255  0.4500  0.9157  0.5112
  360ACOH    C211775   9.584   5.126   4.251 -0.3352  0.2661  0.1562
  360ACOH    O111776   9.528   5.174   4.155 -0.8086 -0.0426 -0.6332
  360ACOH    C111777   9.522   5.121   4.383  0.5791 -0.0692 -0.7912
  360ACOH    H111778   9.554   5.027   4.428 -1.6483 -0.3403  0.2967
  360ACOH    H211779   9.413   5.125   4.384  0.4965 -2.1210 -0.4802
  360ACOH    H311780   9.571   5.197   4.445  1.0174 -0.8771 -0.1370
  361ACOH    H411781   7.635   5.868   0.166 -0.3895 -0.7153 -1.5082
  361ACOH    O211782   7.719   5.915   0.156 -0.3458 -0.4714 -0.1318
  361ACOH    C211783   7.681   6.044   0.145 -0.1802  1.1638 -0.4430
  361ACOH    O111784   7.566   6.085   0.153  0.1485  0.1591 -0.0796
  361ACOH    C111785   7.792   6.137   0.137 -0.0390  0.0860  0.2552
  361ACOH    H111786   7.748   6.236   0.127 -1.9485 -0.5536  1.9115
  361ACOH    H211787   7.853   6.123   0.048 -0.6124 -2.9835  0.2718
  361ACOH    H311788   7.853   6.125   0.226 -0.5136  0.0577  0.5787
  362ACOH    H411789   6.238   7.131   5.306  1.1445 -2.0146  0.8539
  362ACOH    O211790   6.161   7.122   5.364  0.1613 -0.1728 -0.1161
  362ACOH    C211791   6.146   7.250   5.409  0.3458  0.2073  0.1938
  362ACOH    O111792   6.199   7.352   5.368  0.0007 -0.0534  0.3493
  362ACOH    C111793   6.053   7.256   5.527  0.9106  0.5885  0.3734
  362ACOH    H111794   5.969   7.194   5.498 -0.2578  2.6488 -0.7870
  362ACOH    H211795   6.007   7.353   5.546 -3.8117 -1.4679  0.0655
  362ACOH    H311796   6.102   7.213   5.614  2.3025 -1.0991 -1.2163
  363ACOH    H411797   4.877   3.586   1.254  1.0768 -1.3119 -1.7329
  363ACOH    O211798   4.918   3.531   1.323 -0.0579  0.1028  0.1372
  363ACOH    C211799   4.919   3.613   1.422 -0.0534 -0.0594  0.0221
  363ACOH    O111800   4.919   3.739   1.427 -0.5984 -0.0926 -0.3742
  363ACOH    C111801   4.918   3.527   1.537  0.0965 -0.8144 -0.0478
  363ACOH    H111802   4.990   3.446   1.523  0.8191 -0.3230  0.7049
  363ACOH    H211803   4.819   3.482   1.548  1.4656 -3.2077  3.5335
  363ACOH    H311804   4.939   3.572   1.634 -1.3452 -1.2839  0.4917
  364ACOH    H411805   3.984   5.110   5.544 -0.7518  0.5718  0.3754
  364ACOH    O211806   3.924   5.138   5.473 -0.6287  0.0673  0.0724
  364ACOH    C211807   3.812   5.075   5.508  0.8258 -0.4400 -0.6457
  364ACOH    O111808   3.795   4.975   5.565  0.5155  0.4139 -0.8781
  364ACOH    C111809   3.702   5.145   5.435  0.8890  0.1218  0.1933
  364ACOH    H111810   3.743   5.234   5.386  2.2492 -1.0445 -0.8138
  364ACOH    H211811   3.623   5.173   5.504 -0.8936  1.1715 -2.1864
  364ACOH    H311812   3.659   5.077   5.361 -0.6537  2.9808 -1.6338
  365ACOH    H411813   7.695   5.302   3.289  1.5866 -0.6031 -0.7897
  365ACOH    O211814   7.709   5.396   3.267  0.0160 -0.1434  0.1352
  365ACOH    C211815   7.603   5.469   3.305 -0.4209  0.7566  0.5272
  365ACOH    O111816   7.534   5.446   3.397  0.0739 -0.1486 -0.1265
  365ACOH    C111817   7.597   5.604   3.245  0.3973  0.1168  0.3670
  365ACOH    H111818   7.698   5.633   3.218  1.2157 -2.7217  0.2242
  365ACOH    H211819   7.550   5.682   3.305 -0.0665 -0.5767  0.9186
  365ACOH    H311820   7.547   5.591   3.148  0.8284 -3.6079  0.5490
  366ACOH    H411821   5.616   9.837   1.580 -0.7518 -0.6472  1.1431
  366ACOH    O211822   5.710   9.844   1.604 -0.3823 -0.2974 -0.3552
  366ACOH    C211823   5.757   9.953   1.534 -0.3621  0.1607  0.3931
  366ACOH    O111824   5.688  10.043   1.493 -0.1090  0.1732  0.0026
  366ACOH    C111825   5.904   9.964   1.538  0.5847  0.0760 -0.2660
  366ACOH    H111826   5.942  10.031   1.461  1.1986 -1.6821 -1.5134
  366ACOH    H211827   5.946   9.867   1.514  2.7973  0.1591  2.8910
  366ACOH    H311828   5.933   9.995   1.639  0.3527  0.9696 -0.4661
  367ACOH    H411829   7.263   1.522   6.990 -0.6882  0.5841  0.2610
  367ACOH    O211830   7.228   1.484   7.073 -0.0724 -0.5853  0.0008
  367ACOH    C211831   7.235   1.352   7.055  1.0690 -0.6714 -0.5526
  367ACOH    O111832   7.280   1.296   6.958  0.0521 -0.4574  0.1115
  367ACOH    C111833   7.181   1.271   7.165 -0.4651 -0.4961  0.0158
  367ACOH    H111834   7.242   1.287   7.254 -0.4276 -0.3950 -0.0279
  367ACOH    H211835   7.184   1.166   7.137  0.4410 -0.1050 -1.3804
  367ACOH    H311836   7.081   1.308   7.186  0.1488  0.3379  1.6011
  368ACOH    H411837   1.499   8.814   4.016 -1.4645 -1.9785 -0.5603
  368ACOH    O211838   1.427   8.868   4.052  0.4947  0.3579 -0.0414
  368ACOH    C211839   1.428   8.885   4.188 -0.1175 -0.0460  0.4724
  368ACOH    O111840   1.512   8.842   4.265 -0.1891 -0.5095 -0.7925
  368ACOH    C111841   1.305   8.956   4.233  0.2317  0.5129 -0.4672
  368ACOH    H111842   1.226   8.883   4.250  1.3600 -0.7254 -0.4077
  368ACOH    H211843   1.272   9.038   4.169 -2.5831  0.6512  1.1211
  368ACOH    H311844   1.342   8.999   4.326  0.1578 -0.1426 -0.1305
  369ACOH    H411845   5.094   3.355   4.881 -0.3881  0.0840  0.3329
  369ACOH    O211846   5.087   3.410   4.801  0.1783 -0.1542  0.1203
  369ACOH    C211847   4.972   3.483   4.822  0.5442  0.2373 -0.2256
  369ACOH    O111848   4.895   3.482   4.917 -0.3660 -0.6006 -0.2450
  369ACOH    C111849   4.934   3.565   4.705 -0.4991 -0.3977 -0.2608
  369ACOH    H111850   4.936   3.497   4.619  0.4956 -0.7795  0.0626
  369ACOH    H211851   5.010   3.639   4.679 -0.3557 -1.1969 -2.2331
  369ACOH    H311852   4.837   3.614   4.718  0.2573  0.8402  0.8801
  370ACOH    H411853   2.674   8.663   2.881 -1.6849  0.4268  0.6140
  370ACOH    O211854   2.681   8.741   2.823  0.7766 -0.2326 -0.0091
  370ACOH    C211855   2.809   8.736   2.792  0.4718  0.0778 -0.1133
  370ACOH    O111856   2.883   8.638   2.795 -0.4406 -0.8807  0.0505
  370ACOH    C111857   2.859   8.870   2.752  0.1868  0.7153 -0.3385
  370ACOH    H111858   2.825   8.940   2.828 -0.2898  0.0181  0.0876
  370ACOH    H211859   2.807   8.905   2.662  0.7023 -1.1445 -1.3828
  370ACOH    H311860   2.966   8.864   2.732 -0.0596  3.5583 -3.0871
  371ACOH    H411861   7.139   5.950   0.052  0.1029  0.3649 -0.0584
  371ACOH    O211862   7.047   5.967   0.026 -0.0795 -0.9564 -0.2865
  371ACOH    C211863   6.962   5.896   0.102  0.1926  0.2033  0.5586
  371ACOH    O111864   6.980   5.777   0.129 -0.0608  0.1355 -0.6042
  371ACOH    C111865   6.823   5.940   0.100  0.1622 -0.2354 -0.1016
  371ACOH    H111866   6.754   5.857   0.117  0.1269 -0.0393  0.7342
  371ACOH    H211867   6.790   5.979   0.004 -0.3145  0.8654  0.4911
  371ACOH    H311868   6.809   6.021   0.173 -1.4073  0.8949 -1.6021
  372ACOH    H411869   7.022   3.897   3.137  0.7920 -0.5016 -0.4978
  372ACOH    O211870   6.972   3.971   3.097  0.2441 -0.5104  0.1591
  372ACOH    C211871   7.009   3.982   2.970 -0.2664 -0.3505  0.2012
  372ACOH    O111872   7.071   3.903   2.903  0.6204 -0.6828  0.5783
  372ACOH    C111873   6.948   4.099   2.907  0.8032  0.4175  0.1457
  372ACOH    H111874   6.860   4.081   2.846  1.4560  2.7319 -1.5364
  372ACOH    H211875   7.021   4.140   2.838 -0.6740  3.7141  0.4665
  372ACOH    H311876   6.923   4.175   2.981 -0.5112  0.8396 -0.7083
  373ACOH    H411877   6.798   6.220   0.431 -0.0729 -0.6725  0.1857
  373ACOH    O211878   6.895   6.226   0.423 -0.1653 -0.2344 -0.6516
  373ACOH    C211879   6.952   6.109   0.432 -0.1396  0.2550  0.2801
  373ACOH    O111880   6.902   6.000   0.441  0.2037  0.3032  0.0961
  373ACOH    C111881   7.099   6.124   0.421  0.4257 -0.4284  0.2474
  373ACOH    H111882   7.127   6.188   0.337  0.9112  1.0313  1.4828
  373ACOH    H211883   7.144   6.025   0.410  0.3814 -0.2899 -1.2695
  373ACOH    H311884   7.135   6.171   0.513 -1.5307 -0.3788  1.0138
  374ACOH    H411885   6.302   3.962   7.856  0.8999 -1.3090  0.1074
  374ACOH    O211886   6.352   4.011   7.788  0.1578 -0.3517  0.2401
  374ACOH    C211887   6.481   4.030   7.822  0.6493 -0.4583  0.4634
  374ACOH    O111888   6.520   4.031   7.934  0.1289  0.4078  0.0143
  374ACOH    C111889   6.560   4.101   7.717  0.1397 -0.1758  0.2182
  374ACOH    H111890   6.565   4.040   7.627 -0.5530  1.2448 -0.8020
  374ACOH    H211891   6.658   4.135   7.749  1.0311 -1.6739 -0.8590
  374ACOH    H311892   6.504   4.187   7.680  1.5125  1.2332  1.3578
  375ACOH    H411893   2.158   6.212   4.786  0.2788 -0.3644  1.0181
  375ACOH    O211894   2.174   6.298   4.828  0.3418  0.0496  0.1665
  375ACOH    C211895   2.290   6.344   4.775  0.0502 -0.3229 -0.3371
  375ACOH    O111896   2.310   6.344   4.652 -0.0544 -0.5329  0.1906
  375ACOH    C111897   2.338   6.456   4.861  0.5019 -0.1741 -0.7155
  375ACOH    H111898   2.373   6.408   4.952 -0.2010 -1.2169 -0.9898
  375ACOH    H211899   2.253   6.519   4.886 -1.3672 -2.5704 -0.8910
  375ACOH    H311900   2.421   6.515   4.822  1.5996 -0.9674  0.3895
  376ACOH    H411901   3.796   6.841   0.960  0.9446 -0.4252 -0.2586
  376ACOH    O211902   3.863   6.907   0.933  0.7287  0.0904  0.4485
  376ACOH    C211903   3.882   6.902   0.802  0.1174 -0.7749  0.1742
  376ACOH    O111904   3.859   6.807   0.727  0.2222 -0.5825  0.0695
  376ACOH    C111905   3.976   7.009   0.773 -0.1169 -0.5407  0.1128
  376ACOH    H111906   4.068   6.983   0.824 -0.5191  1.3698  1.8751
  376ACOH    H211907   3.937   7.106   0.806  0.4309  0.7630 -2.8671
  376ACOH    H311908   3.986   7.021   0.665 -0.2242 -1.9642 -0.0633
  377ACOH    H411909   3.684   2.831   4.193 -0.0615  0.0897  0.0598
  377ACOH    O211910   3.667   2.841   4.288  0.2930 -0.3361  0.1690
  377ACOH    C211911   3.613   2.967   4.296 -0.1482  0.3622  0.2166
  377ACOH    O111912   3.583   3.045   4.210 -0.7245  0.0122  0.4426
  377ACOH    C111913   3.609   3.006   4.443  0.5329  0.1072  0.5471
  377ACOH    H111914   3.707   3.016   4.488  0.2835 -1.2626  1.4500
  377ACOH    H211915   3.559   2.924   4.495  0.3723 -0.3650 -0.3341
  377ACOH    H311916   3.549   3.096   4.459 -2.3886 -2.0729  2.4208
  378ACOH    H411917   5.318   5.370   7.531 -0.3729 -0.3625 -0.9088
  378ACOH    O211918   5.251   5.437   7.507  0.0109  0.3855  0.0287
  378ACOH    C211919   5.138   5.363   7.492  0.2400  0.7347  0.5044
  378ACOH    O111920   5.134   5.250   7.537  0.4010  0.3790  0.2353
  378ACOH    C111921   5.022   5.438   7.436 -0.4915  0.9836  0.1880
  378ACOH    H111922   4.937   5.373   7.418  1.2996 -1.2329 -0.5291
  378ACOH    H211923   5.061   5.497   7.353 -0.4454 -0.7629 -1.0594
  378ACOH    H311924   4.997   5.509   7.515 -2.9857  2.0927 -1.5216
  379ACOH    H411925   2.624   5.336   2.545  0.0771  0.0116  0.4440
  379ACOH    O211926   2.639   5.312   2.452  0.4187  0.5411  0.3567
  379ACOH    C211927   2.717   5.203   2.449 -0.3835  0.0673 -0.1640
  379ACOH    O111928   2.729   5.120   2.534 -0.7736  0.0246 -0.3527
  379ACOH    C111929   2.765   5.161   2.311 -0.2575 -0.0638  0.6679
  379ACOH    H111930   2.708   5.076   2.273  0.7965  0.1319 -1.4255
  379ACOH    H211931   2.868   5.126   2.309 -1.0976 -2.7711  2.3840
  379ACOH    H311932   2.763   5.241   2.236  0.3680 -1.9620 -1.4272
  380ACOH    H411933   4.839   5.974   8.147 -1.1500 -0.3240 -0.8758
  380ACOH    O211934   4.800   6.059   8.118 -0.0676  0.4747 -0.0391
  380ACOH    C211935   4.882   6.148   8.068  0.4901 -0.9914  0.1228
  380ACOH    O111936   5.002   6.141   8.055 -0.5130 -0.9969 -0.3789
  380ACOH    C111937   4.803   6.258   8.025  0.8809 -0.2502  0.1785
  380ACOH    H111938   4.737   6.207   7.955 -0.3943 -0.3584  1.4213
  380ACOH    H211939   4.856   6.341   7.979  0.7046 -0.5708 -0.6042
  380ACOH    H311940   4.739   6.308   8.098  0.8709  0.7516 -0.5079
  381ACOH    H411941   5.572   8.352   2.126 -0.0651 -2.0052  1.1346
  381ACOH    O211942   5.591   8.309   2.042 -0.3780  0.2183 -0.1242
  381ACOH    C211943   5.553   8.396   1.944 -0.4585  0.5670 -0.0023
  381ACOH    O111944   5.539   8.514   1.943  0.1460 -0.6257  0.2432
  381ACOH    C111945   5.549   8.316   1.815 -0.1237 -0.5015 -0.5946
  381ACOH    H111946   5.453   8.265   1.810 -0.0163 -0.9403  1.3829
  381ACOH    H211947   5.622   8.237   1.835 -1.9744 -1.7679  1.2985
  381ACOH    H311948   5.572   8.380   1.730  0.4942 -1.6431 -1.3165
  382ACOH    H411949   6.833   0.214   1.093  0.3608  0.1519  0.4022
  382ACOH    O211950   6.894   0.139   1.101  0.2709  0.0113 -0.1872
  382ACOH    C211951   6.873   0.102   1.232  0.0067  0.5589 -0.2134
  382ACOH    O111952   6.803   0.167   1.308 -0.4860  0.4558 -0.0559
  382ACOH    C111953   6.957  -0.002   1.292  0.9473  0.1675  0.1950
  382ACOH    H111954   7.052   0.047   1.314  1.4819 -1.8214  2.5918
  382ACOH    H211955   6.987  -0.070   1.212 -0.7655  3.6500 -3.5420
  382ACOH    H311956   6.925  -0.052   1.383  0.0689  0.3421 -0.0178
  383ACOH    H411957   5.747   7.827   3.669  0.8673  1.7432 -0.7166
  383ACOH    O211958   5.812   7.756   3.660 -0.3698  0.5782 -0.5872
  383ACOH    C211959   5.871   7.729   3.778 -0.9007  0.6870 -0.3733
  383ACOH    O111960   5.852   7.796   3.884 -0.3848  0.3743 -0.5802
  383ACOH    C111961   5.950   7.607   3.781  0.0300 -0.1947  1.0634
  383ACOH    H111962   5.929   7.548   3.692 -1.7901  0.7811  0.8256
  383ACOH    H211963   5.916   7.547   3.865 -1.7797 -2.1288 -1.0040
  383ACOH    H311964   6.055   7.632   3.794  0.4094 -1.1339 -0.1809
  384ACOH    H411965   7.283   4.381   5.641 -0.8023 -3.1315  0.1055
  384ACOH    O211966   7.207   4.392   5.581 -0.3072 -0.5405 -0.1216
  384ACOH    C211967   7.142   4.496   5.631  0.1720 -0.0505  0.5276
  384ACOH    O111968   7.194   4.598   5.678  0.3807  0.1930 -0.1196
  384ACOH    C111969   7.002   4.502   5.584  0.0733  0.4724 -0.0338
  384ACOH    H111970   6.990   4.434   5.500  0.6223 -0.1320  0.3792
  384ACOH    H211971   6.971   4.599   5.543 -0.6789  0.3544  0.2468
  384ACOH    H311972   6.926   4.475   5.658  0.2398  1.2794  0.4367
  385ACOH    H411973   7.971   5.048   4.648 -0.7570  1.1393 -1.2600
  385ACOH    O211974   7.914   5.007   4.580 -0.6295 -0.3828 -0.4440
  385ACOH    C211975   7.994   4.918   4.514  0.2018  0.0909 -0.3610
  385ACOH    O111976   8.112   4.897   4.537 -0.3296  0.0883  0.3932
  385ACOH    C111977   7.927   4.872   4.389  0.3350 -0.3262 -0.0607
  385ACOH    H111978   7.827   4.916   4.391  0.7228  0.5798 -0.5641
  385ACOH    H211979   7.938   4.764   4.384 -0.7447 -0.4732  0.4636
  385ACOH    H311980   7.981   4.919   4.307 -1.5341  1.1140 -0.5007
  386ACOH    H411981   6.565   3.132   4.016 -0.8328  0.1970 -0.1233
  386ACOH    O211982   6.575   3.203   4.082  0.0908 -0.5345  0.5353
  386ACOH    C211983   6.630   3.305   4.013  0.2618 -0.1441  0.3155
  386ACOH    O111984   6.667   3.310   3.899  0.6295 -0.5086 -0.4871
  386ACOH    C111985   6.652   3.427   4.106 -0.3947  0.0376 -0.4215
  386ACOH    H111986   6.563   3.438   4.168  0.0504 -1.8919  0.6242
  386ACOH    H211987   6.668   3.520   4.053  0.2220  0.1251 -0.0898
  386ACOH    H311988   6.743   3.421   4.166 -1.0776  2.0991  0.8484
  387ACOH    H411989   6.302   7.966   2.942 -1.7172  0.0252 -3.0986
  387ACOH    O211990   6.387   7.922   2.921 -0.9917 -0.2160  0.0738
  387ACOH    C211991   6.442   8.007   2.834  0.6430 -0.4918  0.0496
  387ACOH    O111992   6.387   8.088   2.762  0.1627 -0.3272  0.3694
  387ACOH    C111993   6.585   7.963   2.808  0.3413  0.4184 -0.0798
  387ACOH    H111994   6.618   7.964   2.704 -0.7033 -3.5155 -0.5009
  387ACOH    H211995   6.602   7.863   2.847  0.9863  1.2874  1.9483
  387ACOH    H311996   6.653   8.032   2.860  1.1205 -0.8225  0.5696
  388ACOH    H411997   4.554   4.058   2.536 -1.0728 -1.8333  2.7384
  388ACOH    O211998   4.578   3.998   2.463 -0.0512  0.4902  1.0838
  388ACOH    C211999   4.698   4.027   2.421 -0.2139 -0.6658  0.4729
  388ACOH    O112000   4.781   4.085   2.485 -0.2053 -0.0755  0.1648
  388ACOH    C112001   4.726   3.966   2.283  0.2710  0.7430 -0.0109
  388ACOH    H112002   4.704   3.860   2.294  0.0711  0.8208  0.3481
  388ACOH    H212003   4.827   3.983   2.248  0.6159 -0.4871  0.3803
  388ACOH    H312004   4.664   4.018   2.210 -1.2127 -1.3848 -0.3331
  389ACOH    H412005   6.672   3.454   1.827  1.3117  2.0062  1.0619
  389ACOH    O212006   6.588   3.432   1.871  1.1411  0.0569 -0.1511
  389ACOH    C212007   6.610   3.307   1.922 -0.5024  0.7421 -0.0462
  389ACOH    O112008   6.708   3.284   1.995 -0.5883  0.0488 -0.0599
  389ACOH    C112009   6.486   3.225   1.927 -0.8514 -0.5094 -0.1316
  389ACOH    H112010   6.481   3.159   2.013  1.4254 -1.9818 -1.1048
  389ACOH    H212011   6.475   3.159   1.841  3.2947 -0.3166 -0.9090
  389ACOH    H312012   6.395   3.285   1.930 -1.0192 -0.7503 -0.3667
  390ACOH    H412013   7.767   4.758   3.765  0.1716  1.0375 -1.6174
  390ACOH    O212014   7.670   4.754   3.761  0.1018 -0.1255  0.2981
  390ACOH    C212015   7.611   4.705   3.870  0.7753 -0.0734 -0.0290
  390ACOH    O112016   7.662   4.720   3.980  0.5543  0.5267 -0.8003
  390ACOH    C112017   7.481   4.640   3.843 -0.9093  0.0645 -0.0993
  390ACOH    H112018   7.399   4.711   3.833 -2.2546 -1.1935  1.6807
  390ACOH    H212019   7.468   4.564   3.920  2.3753 -0.3427  0.1419
  390ACOH    H312020   7.484   4.580   3.752 -1.4869 -0.5832  0.3051
  391ACOH    H412021   9.186   2.714   4.978  0.0822 -2.1139 -3.5994
  391ACOH    O212022   9.282   2.725   4.983 -0.2185 -0.1771 -0.1680
  391ACOH    C212023   9.320   2.782   5.095  0.5017 -0.7675 -0.7275
  391ACOH    O112024   9.239   2.797   5.188 -0.5411 -0.6542 -0.1940
  391ACOH    C112025   9.461   2.832   5.084 -1.1888 -0.0298  0.3402
  391ACOH    H112026   9.472   2.936   5.115  1.9781  0.0862 -1.0244
  391ACOH    H212027   9.491   2.821   4.980 -2.8850  0.9631 -0.2698
  391ACOH    H312028   9.526   2.770   5.145 -1.9282 -2.3317 -1.1430
  392ACOH    H412029   6.419   6.228   0.268  1.4666 -1.1587  2.0867
  392ACOH    O212030   6.417   6.307   0.325  0.6521  0.4317 -0.0792
  392ACOH    C212031   6.510   6.298   0.423  0.9743  0.0314  0.3676
  392ACOH    O112032   6.598   6.218   0.434 -0.2248 -0.1395  0.3907
  392ACOH    C112033   6.497   6.410   0.518 -0.3540  0.1166  0.0458
  392ACOH    H112034   6.393   6.440   0.528 -0.7193 -0.5031 -1.7797
  392ACOH    H212035   6.546   6.500   0.480 -1.1701 -0.3744 -2.1990
  392ACOH    H312036   6.543   6.385   0.614  2.2050  1.5915 -0.7493
  393ACOH    H412037   1.967   5.282   0.960 -1.0452 -1.0551 -0.4570
  393ACOH    O212038   1.890   5.339   0.943 -0.0826  0.4957  0.3140
  393ACOH    C212039   1.924   5.472   0.950  0.3499  0.4287  0.4446
  393ACOH    O112040   2.021   5.507   1.018 -0.8871  0.1555  0.4309
  393ACOH    C112041   1.826   5.571   0.900  0.2630  0.2559 -0.1090
  393ACOH    H112042   1.865   5.642   0.827 -0.2537  0.2519 -0.3915
  393ACOH    H212043   1.771   5.616   0.983 -2.3907 -2.7161 -0.1498
  393ACOH    H312044   1.742   5.519   0.855 -1.6744  2.3910  0.9264
  394ACOH    H412045   4.883   5.909   3.480  0.5292  0.5147 -1.8884
  394ACOH    O212046   4.968   5.863   3.491 -0.1536 -0.4182 -0.3219
  394ACOH    C212047   4.962   5.804   3.610  0.6636  0.6293 -0.1468
  394ACOH    O112048   4.867   5.806   3.686 -0.3651 -0.3588 -0.5703
  394ACOH    C112049   5.086   5.723   3.630 -0.1971  0.1829  0.5430
  394ACOH    H112050   5.155   5.747   3.550 -0.2592  0.2882  0.5222
  394ACOH    H212051   5.065   5.616   3.638 -2.2743  0.5129 -0.2148
  394ACOH    H312052   5.128   5.757   3.725  1.4678  0.4847 -0.2743
  395ACOH    H412053   8.122   9.405   2.311  0.6959 -1.7840  1.0494
  395ACOH    O212054   8.131   9.385   2.217 -0.0372 -0.5863  0.7193
  395ACOH    C212055   8.019   9.331   2.169 -0.3365 -0.6120  0.1150
  395ACOH    O112056   7.917   9.305   2.223  0.0056 -0.2467  0.7462
  395ACOH    C112057   8.029   9.317   2.022  0.0461 -0.1073 -0.4858
  395ACOH    H112058   7.953   9.379   1.975 -0.4639  0.2797  0.8172
  395ACOH    H212059   8.006   9.214   1.998 -1.1185  0.0523 -0.0990
  395ACOH    H312060   8.130   9.338   1.986  0.9740 -3.8688 -0.2720
  396ACOH    H412061   6.929   4.051   2.381  0.9671 -1.8911 -0.9937
  396ACOH    O212062   6.852   4.050   2.321 -0.4307 -0.1331  0.6600
  396ACOH    C212063   6.802   3.929   2.340 -0.0449  0.2147  1.0007
  396ACOH    O112064   6.840   3.848   2.426  0.4964  0.1579  0.2298
  396ACOH    C112065   6.688   3.897   2.257  0.3905  0.4929  0.7245
  396ACOH    H112066   6.635   3.807   2.286  0.1367  0.3523 -0.1510
  396ACOH    H212067   6.721   3.888   2.153 -1.3657  1.7260  0.0364
  396ACOH    H312068   6.616   3.977   2.275 -0.2928  0.1958 -0.5899
  397ACOH    H412069   4.956   5.066   2.888 -0.3933 -0.4354 -2.3643
  397ACOH    O212070   5.005   4.982   2.885  0.1755 -0.1995 -0.6664
  397ACOH    C212071   4.902   4.901   2.838  0.1158 -0.2319 -0.2993
  397ACOH    O112072   4.790   4.932   2.810  0.6125 -0.0202  0.1227
  397ACOH    C112073   4.958   4.775   2.780 -0.2068  0.1470  0.2511
  397ACOH    H112074   5.066   4.776   2.797  0.0467 -0.8536 -1.2322
  397ACOH    H212075   4.942   4.772   2.672  0.4146  0.3783  0.1439
  397ACOH    H312076   4.909   4.690   2.826 -1.9741  0.5736 -0.8193
  398ACOH    H412077   6.530   8.195   7.039  4.3224  2.5788  0.0136
  398ACOH    O212078   6.516   8.202   7.135  0.0845  0.1915 -0.3120
  398ACOH    C212079   6.466   8.095   7.195 -0.8381  0.2671  0.0247
  398ACOH    O112080   6.483   7.983   7.154  0.3980 -0.0373 -0.2207
  398ACOH    C112081   6.431   8.135   7.336 -0.4394  0.4244 -0.3807
  398ACOH    H112082   6.356   8.214   7.331 -0.7385  0.3094  1.8314
  398ACOH    H212083   6.527   8.165   7.376 -1.5189  1.5664  1.4299
  398ACOH    H312084   6.388   8.060   7.403  0.9640  0.6587  0.7942
  399ACOH    H412085   5.903   7.433   4.331 -0.1479 -1.5320 -3.0161
  399ACOH    O212086   5.872   7.357   4.383 -0.5796  0.2424 -0.6077
  399ACOH    C212087   5.780   7.400   4.473  0.6561  0.0614  0.1966
  399ACOH    O112088   5.713   7.500   4.469 -0.0741  0.3780  0.7585
  399ACOH    C112089   5.761   7.310   4.587 -0.2368  0.2294  0.0101
  399ACOH    H112090   5.717   7.216   4.554 -0.6160 -0.5475  2.6178
  399ACOH    H212091   5.695   7.357   4.660 -0.2158  0.0685  0.1320
  399ACOH    H312092   5.863   7.310   4.626 -0.1063  0.8384 -0.3186
  400ACOH    H412093   5.193   9.486   1.381 -1.0116  2.2505 -1.8733
  400ACOH    O212094   5.227   9.427   1.311 -0.3577  0.5324 -0.1526
  400ACOH    C212095   5.359   9.444   1.320 -0.7109  0.2383  0.1996
  400ACOH    O112096   5.417   9.528   1.386 -0.2652 -0.1161  0.2553
  400ACOH    C112097   5.428   9.360   1.217  0.2966  0.1816  0.3262
  400ACOH    H112098   5.418   9.257   1.251  0.4778  0.4428  1.1861
  400ACOH    H212099   5.531   9.395   1.217 -0.2167  1.7550 -0.9154
  400ACOH    H312100   5.392   9.365   1.114  1.1714 -2.3615 -0.1377
  401ACOH    H412101   7.177   5.755   1.799 -0.1922 -1.7134  1.0125
  401ACOH    O212102   7.085   5.729   1.783 -0.3325 -1.0027  0.6433
  401ACOH    C212103   7.061   5.631   1.874 -0.5155 -1.1373 -0.4310
  401ACOH    O112104   7.126   5.598   1.973 -0.4684 -0.2368  0.3148
  401ACOH    C112105   6.938   5.560   1.846 -0.1694  0.0830  0.2137
  401ACOH    H112106   6.913   5.502   1.935 -2.8238  0.1345 -0.4676
  401ACOH    H212107   6.946   5.493   1.760 -0.8490 -1.6892  1.5164
  401ACOH    H312108   6.858   5.630   1.823  0.2983 -0.1377 -2.2141
  402ACOH    H412109   5.072   6.551   3.429  3.0502 -0.3583 -1.1092
  402ACOH    O212110   5.077   6.499   3.511 -0.6293  0.1833 -0.4490
  402ACOH    C212111   4.955   6.500   3.563 -0.4524 -0.7211 -0.5852
  402ACOH    O112112   4.853   6.523   3.506 -0.0624 -1.0414  0.7443
  402ACOH    C112113   4.961   6.431   3.696  0.2688 -0.3684  0.1137
  402ACOH    H112114   4.946   6.326   3.673  1.8993 -0.7088  0.5854
  402ACOH    H212115   4.887   6.471   3.765  1.2274 -1.1386  1.6010
  402ACOH    H312116   5.056   6.439   3.747  0.6114  1.9755 -0.8257
  403ACOH    H412117   6.723   1.663   7.393 -0.2900  0.5983  0.1413
  403ACOH    O212118   6.707   1.611   7.313 -0.2497 -0.2610  0.6865
  403ACOH    C212119   6.592   1.543   7.316  0.4623 -0.5364 -0.7065
  403ACOH    O112120   6.525   1.543   7.411 -0.1551  0.2751  0.0676
  403ACOH    C112121   6.561   1.455   7.201 -0.2057 -0.0105  0.0975
  403ACOH    H112122   6.453   1.444   7.189  0.0065 -0.0364 -1.8624
  403ACOH    H212123   6.610   1.359   7.220 -2.0331 -0.6854  1.6198
  403ACOH    H312124   6.608   1.495   7.112  1.2355  0.9509  1.2675
  404ACOH    H412125   3.007   0.192   6.223 -2.0628 -1.2908 -0.0379
  404ACOH    O212126   3.054   0.108   6.207 -0.0503 -0.2670  0.3476
  404ACOH    C212127   3.185   0.130   6.188  0.3099  0.1232  0.3789
  404ACOH    O112128   3.243   0.230   6.168 -0.0942  0.6530  0.5810
  404ACOH    C112129   3.259   0.006   6.216 -0.0439  0.1590 -0.0100
  404ACOH    H112130   3.300   0.025   6.315  0.9993 -3.5284  0.3547
  404ACOH    H212131   3.331  -0.023   6.139  0.6419 -1.2899  1.1383
  404ACOH    H312132   3.195  -0.081   6.227 -0.2122 -0.1858 -3.1579
  405ACOH    H412133   4.921   3.051   5.906  1.9092  2.0125  0.2931
  405ACOH    O212134   4.873   3.068   5.989 -0.1681 -0.6932 -0.3084
  405ACOH    C212135   4.819   3.190   5.991 -0.0490  0.6371  0.5245
  405ACOH    O112136   4.862   3.286   5.935  0.0973  0.2585  0.1223
  405ACOH    C112137   4.722   3.215   6.099 -0.2689 -0.4562  0.2120
  405ACOH    H112138   4.629   3.261   6.064  0.6293  0.7635 -0.6048
  405ACOH    H212139   4.769   3.279   6.174  1.3195 -1.6615  0.2670
  405ACOH    H312140   4.695   3.122   6.149  0.5298 -1.0791 -0.5005
  406ACOH    H412141   8.877   9.801   6.839 -1.3345  0.7143  0.2037
  406ACOH    O212142   8.894   9.891   6.871 -0.3100  0.4584  0.3982
  406ACOH    C212143   9.029   9.918   6.877 -0.3686  0.7488 -0.8192
  406ACOH    O112144   9.109   9.838   6.830 -0.1248  0.8365  0.2326
  406ACOH    C112145   9.075  10.056   6.911 -0.4990 -0.1287 -0.2300
  406ACOH    H112146   9.145  10.051   6.995  1.3521  1.7135 -1.6407
  406ACOH    H212147   8.990  10.116   6.943 -1.6058 -0.9016 -1.7053
  406ACOH    H312148   9.123  10.097   6.823  0.0127  0.1332  0.1688
  407ACOH    H412149   5.907   3.243   5.127 -0.7279 -0.0993 -0.1997
  407ACOH    O212150   5.820   3.284   5.139 -0.3484  0.6102  0.1599
  407ACOH    C212151   5.762   3.248   5.250  0.5508 -0.1608 -0.1838
  407ACOH    O112152   5.797   3.167   5.329 -0.0009 -0.2356 -0.8026
  407ACOH    C112153   5.649   3.341   5.273  0.8454 -0.1392  0.2229
  407ACOH    H112154   5.611   3.329   5.375  1.3535  0.5175  0.4903
  407ACOH    H212155   5.565   3.313   5.209 -0.0684 -0.9312  1.7125
  407ACOH    H312156   5.678   3.442   5.248  0.4948 -0.3729 -1.1609
  408ACOH    H412157   6.230   2.909   3.597 -0.1902  0.6961  0.6019
  408ACOH    O212158   6.260   2.986   3.545  0.2610  0.0834 -0.0458
  408ACOH    C212159   6.209   3.090   3.610  0.5067 -0.4976  0.3713
  408ACOH    O112160   6.170   3.083   3.725  0.0731 -0.0087 -0.5840
  408ACOH    C112161   6.247   3.219   3.552  0.8896  0.2317  0.1607
  408ACOH    H112162   6.351   3.215   3.520  0.5559 -2.0907 -0.7283
  408ACOH    H212163   6.237   3.307   3.616 -0.6684 -0.2600  0.6273
  408ACOH    H312164   6.177   3.241   3.471 -0.7753  0.1463  1.5385
  409ACOH    H412165   6.377   7.099   4.602 -0.0993  0.1762 -0.4422
  409ACOH    O212166   6.298   7.128   4.554 -0.3726 -0.1898 -0.2097
  409ACOH    C212167   6.315   7.246   4.492 -0.6922 -0.3050  0.4698
  409ACOH    O112168   6.426   7.295   4.466  0.5180 -0.2586  0.6524
  409ACOH    C112169   6.189   7.286   4.432 -0.0068 -0.9208 -0.3883
  409ACOH    H112170   6.194   7.390   4.400 -1.4196 -0.7060  0.0403
  409ACOH    H212171   6.110   7.287   4.507 -0.7704 -0.8703 -1.1790
  409ACOH    H312172   6.159   7.223   4.348 -1.0935  0.4896 -1.0953
  410ACOH    H412173   6.947   4.665   1.448  0.7881  0.9436  2.1168
  410ACOH    O212174   6.863   4.713   1.444 -0.2291 -0.9311 -0.3566
  410ACOH    C212175   6.811   4.672   1.327  0.7510  0.1171  0.0477
  410ACOH    O112176   6.848   4.582   1.252 -0.6137 -0.1231 -0.1528
  410ACOH    C112177   6.707   4.776   1.298  0.4783  0.2816 -0.1573
  410ACOH    H112178   6.645   4.747   1.213 -0.1428  1.0410  0.0326
  410ACOH    H212179   6.763   4.869   1.287  1.5910 -0.7026 -3.7639
  410ACOH    H312180   6.641   4.773   1.385  1.3067  2.1772  0.5549
  411ACOH    H412181   5.856   3.543   4.071 -0.6622  0.3208 -0.9138
  411ACOH    O212182   5.847   3.627   4.119 -0.2886 -0.3763  0.4105
  411ACOH    C212183   5.774   3.601   4.221 -0.0757  0.2666  0.0159
  411ACOH    O112184   5.720   3.492   4.249 -0.0164  0.0672  0.7107
  411ACOH    C112185   5.749   3.721   4.305 -0.8388 -0.5614  0.4007
  411ACOH    H112186   5.815   3.712   4.392  0.1176  0.4180 -0.2141
  411ACOH    H212187   5.649   3.717   4.348 -0.0582  0.3619  2.4124
  411ACOH    H312188   5.756   3.821   4.263 -2.0648 -0.7032 -0.1513
  412ACOH    H412189   6.389   2.868   5.221  0.0902 -0.6738  0.5544
  412ACOH    O212190   6.483   2.878   5.201 -0.0177 -0.4815  0.1274
  412ACOH    C212191   6.529   2.754   5.164  0.4459 -0.0137  1.0130
  412ACOH    O112192   6.491   2.648   5.212 -0.2612  0.0625 -0.1621
  412ACOH    C112193   6.657   2.770   5.088  0.6020  0.1885  0.1966
  412ACOH    H112194   6.737   2.797   5.156  0.7942  2.8527 -1.0402
  412ACOH    H212195   6.637   2.840   5.007 -1.4292  1.1518  1.4862
  412ACOH    H312196   6.684   2.670   5.054 -0.9261 -1.0959  2.5488
  413ACOH    H412197   7.086   6.694   3.597 -0.4153 -1.4616  0.1546
  413ACOH    O212198   7.023   6.712   3.525  0.1407 -0.0927 -0.0000
  413ACOH    C212199   6.942   6.811   3.574 -0.2963 -0.3828  0.0359
  413ACOH    O112200   6.952   6.878   3.675  0.2811 -0.2940  0.1268
  413ACOH    C112201   6.847   6.839   3.469  0.7977 -0.1327  0.3503
  413ACOH    H112202   6.804   6.749   3.426  0.3793  0.2534 -0.0442
  413ACOH    H212203   6.890   6.896   3.387  0.9361 -2.2395 -1.0614
  413ACOH    H312204   6.766   6.894   3.517  0.4976 -0.0328 -0.2632
  414ACOH    H412205   2.466   1.821   0.713  0.3835 -0.1257 -0.4429
  414ACOH    O212206   2.459   1.916   0.690 -0.6468  0.0155  0.3860
  414ACOH    C212207   2.469   1.922   0.554 -0.4219 -0.6048 -0.6985
  414ACOH    O112208   2.426   1.845   0.469  0.2402  0.0552  0.0908
  414ACOH    C112209   2.510   2.067   0.521 -0.0246 -0.8012 -0.0788
  414ACOH    H112210   2.434   2.136   0.557  0.5045 -1.5877  2.6457
  414ACOH    H212211   2.530   2.078   0.414 -0.4791  0.1968 -0.0697
  414ACOH    H312212   2.605   2.089   0.569  0.2822 -2.7855  0.2656
  415ACOH    H412213   0.107   9.850   5.067 -0.3679  0.7365  0.6937
  415ACOH    O212214   0.032   9.796   5.095  0.0120 -0.1252  0.0704
  415ACOH    C212215  -0.084   9.869   5.084 -0.2103  0.7268 -0.0991
  415ACOH    O112216  -0.092   9.985   5.057 -0.0135 -0.2057 -0.2873
  415ACOH    C112217  -0.193   9.790   5.146  0.1788 -0.1229  0.1147
  415ACOH    H112218  -0.160   9.734   5.233  0.3509 -1.2951 -0.6998
  415ACOH    H212219  -0.241   9.728   5.070  0.4469  0.6955 -0.7282
  415ACOH    H312220  -0.265   9.863   5.183 -0.5898  0.0262 -1.6016
  416ACOH    H412221   2.132   8.945   4.368  1.1486 -3.2785 -3.1162
  416ACOH    O212222   2.075   8.890   4.424  0.4908  0.3077 -0.0485
  416ACOH    C212223   2.052   8.968   4.529 -0.1180  0.2351  0.8980
  416ACOH    O112224   2.028   9.088   4.525 -0.5525  0.0830 -0.0038
  416ACOH    C112225   2.018   8.888   4.650 -0.3658  0.1100 -0.1658
  416ACOH    H112226   2.018   8.939   4.746  0.1638  1.1491 -0.7076
  416ACOH    H212227   2.088   8.806   4.662 -0.2967  0.6461  3.4648
  416ACOH    H312228   1.919   8.849   4.627  0.1129 -0.7631 -0.7649
  417ACOH    H412229   6.134   8.414   2.960  0.4862  0.5173 -0.0214
  417ACOH    O212230   6.204   8.436   3.023  0.1618  0.5574  0.3263
  417ACOH    C212231   6.251   8.557   2.983 -0.2443  0.6402  0.2107
  417ACOH    O112232   6.218   8.608   2.879 -0.2428  0.1877  0.0064
  417ACOH    C112233   6.347   8.610   3.077 -0.6364  0.0790 -0.6744
  417ACOH    H112234   6.380   8.522   3.133 -0.1945 -1.2463 -2.9195
  417ACOH    H212235   6.303   8.690   3.135  0.6062  0.4101 -0.1641
  417ACOH    H312236   6.436   8.657   3.035  0.4754 -1.2027  0.1672
  418ACOH    H412237   7.347   7.513   2.588 -0.9275 -0.3938 -0.3711
  418ACOH    O212238   7.316   7.501   2.679 -0.3297 -0.3877 -0.1627
  418ACOH    C212239   7.184   7.507   2.686  0.3056 -0.4091 -0.2687
  418ACOH    O112240   7.113   7.472   2.590 -0.2239 -0.3902 -0.1142
  418ACOH    C112241   7.140   7.493   2.826  0.5272 -0.1837 -0.6770
  418ACOH    H112242   7.074   7.575   2.854  0.1662 -1.3742  2.1169
  418ACOH    H212243   7.224   7.488   2.895  0.7780 -0.1207 -0.9766
  418ACOH    H312244   7.077   7.405   2.839 -0.5984  0.6659 -0.2015
  419ACOH    H412245   6.586   2.290   1.863 -0.8154  0.5680  0.0831
  419ACOH    O212246   6.568   2.222   1.796 -0.4378  0.2692  0.2798
  419ACOH    C212247   6.498   2.287   1.700 -0.0325 -0.5501  0.3976
  419ACOH    O112248   6.517   2.406   1.677  0.9454  0.4016  0.2122
  419ACOH    C112249   6.457   2.196   1.593  0.6902 -0.1600  0.9971
  419ACOH    H112250   6.518   2.194   1.503 -0.2444  1.9530  0.2807
  419ACOH    H212251   6.358   2.229   1.563  0.9372 -0.9002 -0.6490
  419ACOH    H312252   6.440   2.090   1.613 -3.8278  0.2532 -0.1903
  420ACOH    H412253   2.207   5.913   1.210 -0.3098  0.9654 -0.5829
  420ACOH    O212254   2.177   5.883   1.122  0.4238  0.0585 -0.5389
  420ACOH    C212255   2.053   5.935   1.112 -0.1685  0.3843  0.1145
  420ACOH    O112256   1.989   6.003   1.193 -0.3150  0.6608 -0.3011
  420ACOH    C112257   2.000   5.898   0.985 -0.0903  0.7692  0.1388
  420ACOH    H112258   1.982   5.988   0.927 -0.8268 -0.0295 -0.8845
  420ACOH    H212259   1.901   5.856   1.001 -0.1358 -0.0746 -2.1772
  420ACOH    H312260   2.055   5.829   0.921 -1.9429 -2.6276  2.0854
  421ACOH    H412261   0.409   7.800   4.624  0.9350  0.0530 -0.3477
  421ACOH    O212262   0.430   7.892   4.598  0.4863  0.2448 -0.0286
  421ACOH    C212263   0.387   7.959   4.706  0.4117 -0.3480  0.0407
  421ACOH    O112264   0.377   7.919   4.824 -0.4129  0.1008  0.8706
  421ACOH    C112265   0.394   8.103   4.676 -1.1041  0.1401 -1.2008
  421ACOH    H112266   0.498   8.135   4.673 -0.7914 -0.9820 -2.5388
  421ACOH    H212267   0.338   8.169   4.743  0.3909  1.8614 -1.5977
  421ACOH    H312268   0.351   8.133   4.581  1.9459  2.6148 -1.8995
  422ACOH    H412269   5.962   6.083   0.712  1.0105 -0.3531 -1.7367
  422ACOH    O212270   6.025   6.157   0.717 -0.0235  0.4562 -0.5229
  422ACOH    C212271   6.151   6.101   0.711 -0.3087 -0.3546  0.5767
  422ACOH    O112272   6.176   5.983   0.700  0.1447 -0.1049  0.2287
  422ACOH    C112273   6.255   6.209   0.708 -1.0066 -0.0450 -0.2725
  422ACOH    H112274   6.204   6.303   0.683  0.4319  1.2807  1.6469
  422ACOH    H212275   6.321   6.179   0.626 -1.9908  0.1607 -1.1546
  422ACOH    H312276   6.313   6.223   0.799 -1.7035 -0.2593  0.2043
  423ACOH    H412277   4.030   0.062   0.247  3.1951  0.5073 -0.7901
  423ACOH    O212278   4.016   0.144   0.196 -0.0962  0.1064 -0.6281
  423ACOH    C212279   3.992   0.242   0.285 -0.2722  0.4845 -0.3812
  423ACOH    O112280   4.011   0.236   0.408  0.0741 -0.0747 -0.0807
  423ACOH    C112281   4.004   0.375   0.219 -0.1304 -0.5279  0.4221
  423ACOH    H112282   4.027   0.445   0.300 -0.4402 -1.4133  1.2854
  423ACOH    H212283   3.904   0.401   0.184 -0.8852  2.1340  4.2120
  423ACOH    H312284   4.080   0.373   0.141  0.2032  1.9170  0.6514
  424ACOH    H412285   0.009   4.661   5.541 -1.0649 -0.7530  1.2053
  424ACOH    O212286   0.075   4.686   5.608  0.1503  0.1647 -0.3102
  424ACOH    C212287   0.174   4.618   5.557 -0.3154 -0.0503  0.0352
  424ACOH    O112288   0.167   4.509   5.504  0.1562  0.0505  0.0632
  424ACOH    C112289   0.292   4.682   5.617 -0.3362  0.4298  0.2348
  424ACOH    H112290   0.314   4.777   5.568  0.0660  0.3644  0.2937
  424ACOH    H212291   0.380   4.619   5.610 -0.0193  0.9521 -0.6258
  424ACOH    H312292   0.280   4.698   5.724 -0.1301  2.2951 -0.0058
  425ACOH    H412293   6.817   3.231   3.098 -1.9444  2.2145  1.2874
  425ACOH    O212294   6.734   3.207   3.054 -0.8066 -0.1810  0.3735
  425ACOH    C212295   6.769   3.182   2.922  0.1399  0.2662 -0.2844
  425ACOH    O112296   6.877   3.219   2.879  0.3954  0.1179  0.1311
  425ACOH    C112297   6.654   3.132   2.844  0.3404  0.6670 -0.2585
  425ACOH    H112298   6.594   3.076   2.916 -0.9912 -0.0520 -1.8780
  425ACOH    H212299   6.678   3.065   2.761 -1.8180  1.7263 -1.7869
  425ACOH    H312300   6.604   3.217   2.798  1.7957  0.6400 -1.9441
  426ACOH    H412301   5.221   9.219   1.575  1.0258  0.0386 -0.2678
  426ACOH    O212302   5.200   9.136   1.529 -0.1672 -0.0762  0.4723
  426ACOH    C212303   5.184   9.037   1.626  0.0743  0.5206  0.4661
  426ACOH    O112304   5.241   9.037   1.735  0.1721 -0.2502  0.3324
  426ACOH    C112305   5.150   8.906   1.545  0.1401  0.0669 -0.0594
  426ACOH    H112306   5.092   8.833   1.602 -0.7924  0.1698 -0.8535
  426ACOH    H212307   5.247   8.870   1.513  0.1070  0.2249 -0.3482
  426ACOH    H312308   5.096   8.926   1.452 -1.4895  0.7780  1.0048
  427ACOH    H412309   1.035   5.418   2.630  0.7253  0.0676 -0.2230
  427ACOH    O212310   0.996   5.351   2.572  0.0899  0.0631  0.2048
  427ACOH    C212311   0.883   5.312   2.636 -0.0900  0.3878 -0.7103
  427ACOH    O112312   0.818   5.390   2.699  0.3254 -0.1722  0.3084
  427ACOH    C112313   0.816   5.199   2.569 -0.9707  0.5368 -0.3891
  427ACOH    H112314   0.903   5.145   2.531 -0.8495 -0.2572  0.9800
  427ACOH    H212315   0.752   5.244   2.493 -2.8446 -1.4980 -0.0516
  427ACOH    H312316   0.759   5.133   2.635  0.7638 -0.2736  0.3124
  428ACOH    H412317   7.529   6.787   1.275 -1.2470  2.0259 -0.5292
  428ACOH    O212318   7.439   6.754   1.260 -0.7548  0.3802 -0.0027
  428ACOH    C212319   7.354   6.856   1.274 -0.3520  0.0691 -1.0774
  428ACOH    O112320   7.380   6.974   1.277  0.2302  0.2705 -0.8685
  428ACOH    C112321   7.213   6.815   1.261  0.6044 -0.1241 -0.6780
  428ACOH    H112322   7.187   6.743   1.338  1.8010 -1.3202 -1.3808
  428ACOH    H212323   7.208   6.757   1.169 -2.4327  0.5354 -0.9849
  428ACOH    H312324   7.140   6.895   1.248 -0.4067 -1.2859 -2.4068
  429ACOH    H412325   5.538   1.659   3.655 -0.1699  1.8162  1.5711
  429ACOH    O212326   5.617   1.641   3.707  0.6531  0.2207 -0.1721
  429ACOH    C212327   5.651   1.750   3.773  0.5883  0.1856  0.2398
  429ACOH    O112328   5.609   1.863   3.765  0.0648  0.1313  0.1606
  429ACOH    C112329   5.770   1.728   3.856 -0.5567 -0.3760 -0.9263
  429ACOH    H112330   5.743   1.665   3.940  0.0973 -2.3470 -2.1666
  429ACOH    H212331   5.819   1.819   3.892 -3.2084  0.6062  0.3282
  429ACOH    H312332   5.849   1.680   3.798  0.7475 -2.1854  2.2530
  430ACOH    H412333   3.153   8.286   3.537  0.4581 -2.3968  2.7671
  430ACOH    O212334   3.184   8.368   3.580 -0.2806 -0.5228 -0.1507
  430ACOH    C212335   3.315   8.369   3.544  0.8743 -1.4317 -0.1364
  430ACOH    O112336   3.371   8.278   3.491 -0.4175 -0.0543 -0.1434
  430ACOH    C112337   3.380   8.491   3.593  0.1120 -0.0465  0.3127
  430ACOH    H112338   3.414   8.548   3.506 -2.0257  0.3793 -0.2699
  430ACOH    H212339   3.469   8.472   3.653  0.5668  2.3395  0.4291
  430ACOH    H312340   3.319   8.544   3.665  1.9360  1.0540  1.0824
  431ACOH    H412341   4.546   9.472   0.670  0.8800 -0.6582  1.1151
  431ACOH    O212342   4.634   9.480   0.630  0.2994 -0.0315 -0.0440
  431ACOH    C212343   4.714   9.373   0.660  0.0010 -0.3763  0.4793
  431ACOH    O112344   4.711   9.300   0.756  0.5250  0.7981 -0.0988
  431ACOH    C112345   4.832   9.382   0.579  0.0254 -0.2160  0.7496
  431ACOH    H112346   4.816   9.311   0.498  2.1692 -0.5448  0.5802
  431ACOH    H212347   4.922   9.356   0.635  0.1523 -0.7075  0.3179
  431ACOH    H312348   4.845   9.483   0.539  2.3466 -0.8000 -0.0808
  432ACOH    H412349   8.869   3.760   0.163  0.9221 -0.0751 -0.2992
  432ACOH    O212350   8.801   3.749   0.094 -0.0159  0.7833  0.4490
  432ACOH    C212351   8.774   3.875   0.047  0.5826 -0.0790  0.0973
  432ACOH    O112352   8.795   3.980   0.101 -0.0604  0.7687 -0.3150
  432ACOH    C112353   8.698   3.864  -0.078 -0.4872  0.5061 -0.5264
  432ACOH    H112354   8.683   3.760  -0.107 -1.9896  0.4763  0.2782
  432ACOH    H212355   8.746   3.923  -0.157  0.8981  1.3116  0.8955
  432ACOH    H312356   8.599   3.902  -0.053 -0.5381  0.1959 -0.2621
  433ACOH    H412357   6.877   2.059   5.539  2.5454  1.9424  1.7445
  433ACOH    O212358   6.898   2.087   5.448  0.3706 -0.5814  0.4017
  433ACOH    C212359   6.788   2.082   5.361  0.4820  0.4892  0.2188
  433ACOH    O112360   6.670   2.070   5.403  0.0014 -0.3873 -0.3916
  433ACOH    C112361   6.821   2.110   5.223  0.4413  0.8214 -0.8092
  433ACOH    H112362   6.740   2.093   5.151 -0.8642 -0.9488  1.0318
  433ACOH    H212363   6.909   2.052   5.193  0.5162  0.7212 -0.3931
  433ACOH    H312364   6.861   2.210   5.212 -0.2199  0.9541 -2.2371
  434ACOH    H412365   3.521   7.347   4.521  0.3076 -0.1217  0.0885
  434ACOH    O212366   3.468   7.427   4.533  0.3737 -0.0740  0.0660
  434ACOH    C212367   3.405   7.410   4.651  0.7952 -0.1237  0.2842
  434ACOH    O112368   3.398   7.305   4.713  0.9116 -0.8014 -0.5462
  434ACOH    C112369   3.328   7.527   4.683 -0.1128  0.5197  0.3118
  434ACOH    H112370   3.249   7.536   4.608 -1.2613 -0.5609  1.3482
  434ACOH    H212371   3.397   7.608   4.662  0.4038 -0.0226 -0.1031
  434ACOH    H312372   3.295   7.529   4.787 -1.4383 -0.5536 -0.0632
  435ACOH    H412373   6.439   1.869   6.202 -1.1625  2.6763 -0.0541
  435ACOH    O212374   6.352   1.827   6.215  0.2133 -0.1466  0.3047
  435ACOH    C212375   6.266   1.932   6.220  0.4367  0.3732  0.1585
  435ACOH    O112376   6.296   2.050   6.200  0.1442 -0.1790  0.3109
  435ACOH    C112377   6.121   1.887   6.222  0.1176 -0.0078 -0.0298
  435ACOH    H112378   6.057   1.953   6.279  0.9212 -0.0877  0.9640
  435ACOH    H212379   6.105   1.785   6.258  2.4129 -0.9931 -1.6426
  435ACOH    H312380   6.081   1.893   6.120  1.7386  1.6966 -0.5790
  436ACOH    H412381   7.259   0.131   7.169  0.1660  0.7006 -0.6083
  436ACOH    O212382   7.228   0.146   7.260  0.1627 -0.1253 -0.4650
  436ACOH    C212383   7.178   0.267   7.267  0.7169  0.0074  0.1491
  436ACOH    O112384   7.168   0.348   7.174 -0.1491 -0.0738 -0.5020
  436ACOH    C112385   7.149   0.308   7.411 -0.2159 -0.5395  0.3568
  436ACOH    H112386   7.081   0.233   7.453 -0.3632  0.0388  1.1489
  436ACOH    H212387   7.100   0.404   7.422 -0.6956 -0.8823  1.3010
  436ACOH    H312388   7.240   0.307   7.471 -0.0038  0.8616  0.0781
  437ACOH    H412389   7.014   6.977   2.649 -1.3352 -1.4004 -2.8727
  437ACOH    O212390   6.923   7.006   2.668 -0.3291 -0.1072  0.1649
  437ACOH    C212391   6.900   7.014   2.800 -0.5544  0.3274 -0.4588
  437ACOH    O112392   6.987   7.029   2.884 -0.2513 -0.2030  0.2767
  437ACOH    C112393   6.752   7.042   2.829 -0.4837  0.3336  0.8389
  437ACOH    H112394   6.741   7.002   2.930 -1.4827  4.4096  2.4332
  437ACOH    H212395   6.702   6.970   2.764 -0.8049  0.2729  1.1507
  437ACOH    H312396   6.726   7.147   2.814 -3.2476 -0.1923  1.6060
  438ACOH    H412397   5.542   6.607   1.688 -0.8295  1.4801  0.6918
  438ACOH    O212398   5.592   6.668   1.745  0.8353  0.4940  0.3172
  438ACOH    C212399   5.505   6.768   1.770  0.3554 -0.2689  0.1668
  438ACOH    O112400   5.399   6.789   1.710  0.5895 -0.5016 -0.0474
  438ACOH    C112401   5.556   6.870   1.871  0.0038  0.2407 -0.3943
  438ACOH    H112402   5.557   6.828   1.972  0.0661  0.6662 -0.2175
  438ACOH    H212403   5.499   6.963   1.878 -0.1246  0.0126  2.0317
  438ACOH    H312404   5.659   6.902   1.859  0.4455 -1.5515 -1.5767
  439ACOH    H412405   6.404   4.651   2.337  0.6781  1.1017 -0.8560
  439ACOH    O212406   6.461   4.669   2.414  0.2896 -0.0665 -0.2930
  439ACOH    C212407   6.520   4.553   2.447 -1.2488  0.7463 -0.3300
  439ACOH    O112408   6.494   4.440   2.405  0.1944 -0.0192 -0.6168
  439ACOH    C112409   6.623   4.575   2.552 -0.3563 -0.4696  0.5700
  439ACOH    H112410   6.717   4.606   2.507 -0.6366  0.0652  0.3537
  439ACOH    H212411   6.650   4.486   2.609 -1.0443 -1.0226  0.0509
  439ACOH    H312412   6.594   4.653   2.622  0.8435  0.0161  0.5353
  440ACOH    H412413   5.450   6.235   2.619  1.5982  0.3129 -2.0217
  440ACOH    O212414   5.513   6.309   2.621  0.6338  1.1135 -0.4933
  440ACOH    C212415   5.585   6.290   2.514 -0.3304  0.5875  0.3866
  440ACOH    O112416   5.605   6.194   2.443  0.1616 -0.7923  0.2027
  440ACOH    C112417   5.665   6.415   2.496 -1.1055  0.1003 -0.0526
  440ACOH    H112418   5.650   6.489   2.575  0.2625  0.5296 -0.1855
  440ACOH    H212419   5.635   6.462   2.402 -0.5384 -0.2869 -0.4324
  440ACOH    H312420   5.772   6.393   2.492 -1.0142  0.7438 -1.6195
  441ACOH    H412421   1.026   6.389   4.960  0.2874 -0.6665  1.7473
  441ACOH    O212422   0.979   6.467   4.994 -0.3211 -0.3219  0.1717
  441ACOH    C212423   0.970   6.545   4.887  0.3032 -0.3623  0.0092
  441ACOH    O112424   1.026   6.530   4.781 -0.1014 -0.2526  0.2165
  441ACOH    C112425   0.901   6.673   4.920 -0.0027  0.2822 -0.1154
  441ACOH    H112426   0.974   6.753   4.929 -1.1723  1.3777 -0.2408
  441ACOH    H212427   0.858   6.659   5.020 -1.1797  1.9326 -0.3598
  441ACOH    H312428   0.820   6.696   4.850 -0.1709 -0.7237 -0.2573
  442ACOH    H412429   8.496   7.106   0.735  0.1997  0.1607  0.9078
  442ACOH    O212430   8.427   7.043   0.708  0.4079  0.3080  0.0079
  442ACOH    C212431   8.403   7.069   0.581  0.6500  0.0151 -0.0628
  442ACOH    O112432   8.464   7.141   0.503 -0.0156  0.0414  0.4334
  442ACOH    C112433   8.307   6.960   0.539 -0.2813 -0.3884  0.7915
  442ACOH    H112434   8.344   6.858   0.539  0.6681 -0.1222 -3.7880
  442ACOH    H212435   8.280   6.979   0.435  2.2708 -1.2678 -0.0591
  442ACOH    H312436   8.219   6.971   0.604  0.2987 -2.3089  1.9401
  443ACOH    H412437   8.711   2.579   2.255  0.8834  0.2287 -2.0219
  443ACOH    O212438   8.746   2.491   2.232  0.1617 -0.6611  0.1028
  443ACOH    C212439   8.876   2.503   2.206  0.1053  0.4305  0.5118
  443ACOH    O112440   8.937   2.403   2.166  0.8697  0.2103  0.5784
  443ACOH    C112441   8.950   2.608   2.279  0.2310  0.3705  0.2562
  443ACOH    H112442   8.938   2.584   2.385 -1.0254 -0.4519 -0.0727
  443ACOH    H212443   8.904   2.706   2.266 -2.2146 -1.0290 -1.9167
  443ACOH    H312444   9.057   2.610   2.257  0.2956  0.9848  0.5937
  444ACOH    H412445   7.973   8.109   0.584  2.2827 -2.1893 -1.2345
  444ACOH    O212446   7.894   8.070   0.543  0.1728  0.3551  0.2406
  444ACOH    C212447   7.783   8.140   0.585  0.0843  0.0685  0.3350
  444ACOH    O112448   7.782   8.230   0.670  0.1931  0.6248  0.0549
  444ACOH    C112449   7.659   8.087   0.523  0.2942  0.8869 -0.1231
  444ACOH    H112450   7.567   8.142   0.539 -1.0630 -1.4102  0.3103
  444ACOH    H212451   7.631   7.995   0.575  2.5440  0.1784 -0.1236
  444ACOH    H312452   7.672   8.079   0.415 -0.6667 -1.6853 -0.0923
  445ACOH    H412453   3.715   5.335   4.552 -0.1105 -0.7998  0.0049
  445ACOH    O212454   3.715   5.348   4.648  0.0949 -0.4926 -0.0365
  445ACOH    C212455   3.835   5.317   4.691  0.1607 -0.1527 -0.8042
  445ACOH    O112456   3.918   5.250   4.637 -0.2430  0.6165  0.1039
  445ACOH    C112457   3.829   5.321   4.840  0.6121  0.2848  0.0456
  445ACOH    H112458   3.739   5.277   4.882  0.4073 -0.7579 -1.4163
  445ACOH    H212459   3.825   5.429   4.856  0.5983  0.3552 -0.4063
  445ACOH    H312460   3.916   5.281   4.891 -0.1448 -0.3101  0.8834
  446ACOH    H412461   5.664   2.179   3.094 -0.8793  0.2862  0.8278
  446ACOH    O212462   5.663   2.144   3.003  0.4896  0.3959  0.7509
  446ACOH    C212463   5.766   2.062   2.985  0.1217 -0.4122 -0.3270
  446ACOH    O112464   5.874   2.081   3.038  0.0650 -0.3352  0.2317
  446ACOH    C112465   5.731   1.978   2.865 -0.2111 -0.1795 -0.1047
  446ACOH    H112466   5.727   2.049   2.783  2.6041  1.0091  0.7308
  446ACOH    H212467   5.641   1.921   2.888  0.8064 -1.9019 -0.3655
  446ACOH    H312468   5.818   1.914   2.852 -0.3723 -0.6627  1.0835
  447ACOH    H412469   8.124   6.992   4.264  1.6997 -0.6197  1.5699
  447ACOH    O212470   8.174   7.067   4.228  0.4579 -0.5684 -0.0942
  447ACOH    C212471   8.295   7.020   4.200 -0.0602  0.7287  0.1945
  447ACOH    O112472   8.352   6.922   4.253  0.3886 -0.1192 -0.1720
  447ACOH    C112473   8.346   7.087   4.078 -0.2521  0.2380  0.3176
  447ACOH    H112474   8.407   7.167   4.119 -0.0308  0.2869 -0.1023
  447ACOH    H212475   8.266   7.130   4.016  0.5626  1.1728 -0.0990
  447ACOH    H312476   8.404   7.013   4.023 -2.1197 -1.3961  0.4733
  448ACOH    H412477   1.725   7.161   2.522  0.0533 -1.3149  0.4596
  448ACOH    O212478   1.768   7.157   2.435 -0.7725  0.3407 -0.0601
  448ACOH    C212479   1.825   7.276   2.394  0.0225  0.7822 -0.5013
  448ACOH    O112480   1.863   7.358   2.474 -0.3012  0.0041 -0.5128
  448ACOH    C112481   1.861   7.270   2.251 -0.2640 -0.0947  0.3338
  448ACOH    H112482   1.913   7.362   2.226  1.4544 -1.1503 -0.1099
  448ACOH    H212483   1.770   7.278   2.192  0.6927 -0.3003 -1.1961
  448ACOH    H312484   1.926   7.186   2.227 -0.9692 -0.1572 -1.4253
  449ACOH    H412485   5.372   2.060   6.337 -0.5931  0.4209 -2.4657
  449ACOH    O212486   5.431   2.137   6.336 -0.0988  0.0845 -0.6794
  449ACOH    C212487   5.383   2.227   6.246  0.9231  0.0548  0.4138
  449ACOH    O112488   5.296   2.206   6.161  0.0215 -0.2996 -0.6670
  449ACOH    C112489   5.443   2.358   6.246 -0.4331  0.1722 -0.3775
  449ACOH    H112490   5.479   2.390   6.344  1.1724 -1.3974 -0.4255
  449ACOH    H212491   5.379   2.440   6.214 -1.0908  0.7889  2.3325
  449ACOH    H312492   5.530   2.348   6.182 -0.6792 -0.3556 -0.6285
  450ACOH    H412493   6.336   2.305   2.994  1.9765  0.3708 -2.4659
  450ACOH    O212494   6.390   2.355   3.057 -0.0375 -0.3031 -0.0882
  450ACOH    C212495   6.519   2.332   3.036 -0.8970 -0.8850  0.3666
  450ACOH    O112496   6.565   2.229   2.983  0.1648  0.2394 -0.3400
  450ACOH    C112497   6.605   2.425   3.109  0.0008 -1.0067  0.3172
  450ACOH    H112498   6.589   2.522   3.060  0.5999 -1.3940 -0.6677
  450ACOH    H212499   6.709   2.400   3.085  1.0023  1.7719  1.4921
  450ACOH    H312500   6.596   2.421   3.217  1.5498  1.5154  0.5946
  451ACOH    H412501   8.402   5.053   0.459  1.2929 -1.8806  1.0708
  451ACOH    O212502   8.400   4.982   0.392 -0.8329 -0.4860 -0.3903
  451ACOH    C212503   8.520   4.969   0.331  0.0426 -0.7075  0.5606
  451ACOH    O112504   8.616   5.044   0.333  0.1511 -0.1893  0.6264
  451ACOH    C112505   8.520   4.839   0.262 -0.1665  0.3039  1.0210
  451ACOH    H112506   8.541   4.767   0.341  3.2210  0.1869  0.1186
  451ACOH    H212507   8.598   4.838   0.186 -0.6924  0.5398  0.4714
  451ACOH    H312508   8.427   4.816   0.211  0.1211 -1.2237  1.1602
  452ACOH    H412509   5.765   1.453   2.639  1.6181 -1.5812  0.0725
  452ACOH    O212510   5.775   1.509   2.561 -0.3525 -0.6082  0.4753
  452ACOH    C212511   5.741   1.631   2.601  0.2461  0.3768  0.1320
  452ACOH    O112512   5.656   1.647   2.686  0.3600 -0.0612 -0.1429
  452ACOH    C112513   5.779   1.741   2.511  0.3850  0.1676  0.5295
  452ACOH    H112514   5.722   1.755   2.419  3.3385  2.1369 -1.0521
  452ACOH    H212515   5.884   1.727   2.488  0.3269 -3.1683  1.9353
  452ACOH    H312516   5.769   1.830   2.572 -0.3151  2.0162 -2.2323
  453ACOH    H412517   0.981   3.263   5.186  0.3883 -0.2283  1.4364
  453ACOH    O212518   0.946   3.349   5.213  0.2128  0.0887  0.1828
  453ACOH    C212519   0.909   3.417   5.102  0.4992 -0.1795  0.2752
  453ACOH    O112520   0.916   3.376   4.990  1.3983 -0.4182  0.5624
  453ACOH    C112521   0.853   3.550   5.140 -0.2431  0.4960 -0.1071
  453ACOH    H112522   0.820   3.619   5.062  2.2596 -0.2984 -1.9510
  453ACOH    H212523   0.917   3.595   5.216 -1.5151 -1.5356  2.2310
  453ACOH    H312524   0.763   3.519   5.192 -0.0296 -0.0342 -0.0542
  454ACOH    H412525   7.077   3.699   5.578 -1.4586  1.4531 -1.3588
  454ACOH    O212526   7.013   3.644   5.625 -0.1255  0.4668 -0.6906
  454ACOH    C212527   7.002   3.690   5.752 -0.0511 -0.5803 -0.1021
  454ACOH    O112528   7.054   3.784   5.810  0.3416 -0.6789 -0.0310
  454ACOH    C112529   6.904   3.598   5.824 -0.4853 -0.7338 -0.2254
  454ACOH    H112530   6.949   3.502   5.800  0.9498 -0.3620  0.9486
  454ACOH    H212531   6.803   3.603   5.783 -1.1586 -3.0462  1.0704
  454ACOH    H312532   6.907   3.617   5.931 -0.3177  2.0098 -0.6727
  455ACOH    H412533   1.537   8.784   0.114  2.0612 -1.6706 -2.3879
  455ACOH    O212534   1.468   8.793   0.046 -0.0107 -0.3018 -0.1682
  455ACOH    C212535   1.399   8.898   0.086 -0.2024  0.1849  0.1740
  455ACOH    O112536   1.402   8.961   0.184 -0.8137  0.3565 -0.1309
  455ACOH    C112537   1.290   8.918  -0.014  0.6342 -0.0964 -0.4473
  455ACOH    H112538   1.203   8.965   0.032 -1.3492 -1.4510 -2.7540
  455ACOH    H212539   1.251   8.825  -0.054 -2.4090  1.1755 -0.5216
  455ACOH    H312540   1.326   8.975  -0.099 -1.0900  1.2366 -0.3003
  456ACOH    H412541   6.373   8.484   2.583 -0.9313 -0.3931 -0.4457
  456ACOH    O212542   6.391   8.577   2.560  0.2588 -0.4941  0.0253
  456ACOH    C212543   6.525   8.583   2.552 -1.0152  0.0785 -0.0499
  456ACOH    O112544   6.602   8.501   2.588 -0.0313  0.0735  0.1964
  456ACOH    C112545   6.551   8.721   2.497  0.6480  0.6192 -0.8200
  456ACOH    H112546   6.556   8.795   2.576  2.5665  0.0262 -0.3559
  456ACOH    H212547   6.465   8.747   2.436 -0.3590 -0.2535  0.2062
  456ACOH    H312548   6.642   8.728   2.437  1.5544  0.9883  0.5825
  457ACOH    H412549   3.596   1.691   6.302 -0.1161  0.9398 -0.2485
  457ACOH    O212550   3.572   1.660   6.391 -0.1093  0.2595 -0.4827
  457ACOH    C212551   3.459   1.591   6.373  0.6164 -0.1645  0.3583
  457ACOH    O112552   3.390   1.591   6.269 -0.5211  0.1336  0.1438
  457ACOH    C112553   3.436   1.490   6.486  0.3978 -0.5574  0.0428
  457ACOH    H112554   3.494   1.519   6.574  1.3193  1.1130 -1.0702
  457ACOH    H212555   3.469   1.389   6.459  0.0340 -0.0460 -2.4463
  457ACOH    H312556   3.329   1.494   6.507  0.9587  1.7100  2.7945
  458ACOH    H412557   1.768   8.290   3.940 -1.2466 -1.0112  1.8247
  458ACOH    O212558   1.707   8.245   3.879  0.2886 -0.4370 -0.1704
  458ACOH    C212559   1.744   8.114   3.881 -0.2469 -0.0582 -0.6866
  458ACOH    O112560   1.830   8.070   3.947 -0.4394  0.0739 -0.1781
  458ACOH    C112561   1.671   8.045   3.769 -0.5382  0.6344 -0.1072
  458ACOH    H112562   1.616   7.960   3.811 -1.4391  1.8678  1.2764
  458ACOH    H212563   1.747   8.013   3.698 -1.2631 -0.5724 -0.3612
  458ACOH    H312564   1.603   8.113   3.718  0.1117  0.0624 -1.7905
  459ACOH    H412565   8.378   8.400   0.391  0.0087  0.0408  1.7880
  459ACOH    O212566   8.354   8.494   0.380  0.2731 -0.0604  0.1721
  459ACOH    C212567   8.424   8.548   0.280  0.1748  0.4293 -0.0008
  459ACOH    O112568   8.532   8.507   0.242  0.1397 -0.5117  0.0841
  459ACOH    C112569   8.367   8.683   0.260  0.1394  0.5366  0.0811
  459ACOH    H112570   8.437   8.752   0.212  0.4680  0.5290  0.5413
  459ACOH    H212571   8.330   8.717   0.357  2.5347 -0.2080  1.3092
  459ACOH    H312572   8.277   8.674   0.199  0.1211 -1.5505  0.3871
  460ACOH    H412573   6.056   7.677   6.667  0.7219  0.4386 -1.4793
  460ACOH    O212574   6.039   7.581   6.670  0.1843  0.5617  0.2067
  460ACOH    C212575   5.958   7.553   6.567  0.0394 -0.2700 -0.1498
  460ACOH    O112576   5.925   7.635   6.480  0.0352  0.4519  0.0065
  460ACOH    C112577   5.891   7.419   6.567  0.4817 -0.2748  0.0363
  460ACOH    H112578   5.967   7.352   6.606  1.9302  1.4951  0.3209
  460ACOH    H212579   5.864   7.391   6.465  1.9291  1.4854 -0.8574
  460ACOH    H312580   5.798   7.415   6.624  0.8584  0.1504  0.6831
  461ACOH    H412581   8.993   1.550   2.375 -1.3917 -1.5216  0.2954
  461ACOH    O212582   9.026   1.551   2.466  0.5883  0.0438 -0.3827
  461ACOH    C212583   9.159   1.559   2.451 -0.0198 -0.3824  0.2475
  461ACOH    O112584   9.234   1.604   2.534 -0.8520  0.6324  0.6068
  461ACOH    C112585   9.214   1.550   2.314 -0.4611 -0.3747 -0.4135
  461ACOH    H112586   9.193   1.445   2.296  2.3332 -1.1250  0.4273
  461ACOH    H212587   9.322   1.567   2.309 -0.6507  0.5214 -1.7499
  461ACOH    H312588   9.168   1.612   2.237  1.3477  0.6193 -0.7093
  462ACOH    H412589   4.863   5.114   5.588 -0.9431  0.6063  1.3157
  462ACOH    O212590   4.954   5.148   5.597 -0.4898 -0.1698 -0.1807
  462ACOH    C212591   5.039   5.047   5.610 -0.7515  0.2811 -0.1085
  462ACOH    O112592   5.007   4.928   5.613 -0.1372 -0.6687  0.4501
  462ACOH    C112593   5.182   5.101   5.611 -0.5996 -0.2406 -0.1767
  462ACOH    H112594   5.210   5.167   5.529 -0.4433  0.8537  0.7250
  462ACOH    H212595   5.256   5.022   5.624  0.4634  0.6280 -0.8565
  462ACOH    H312596   5.188   5.160   5.703 -0.1275 -2.1506  1.0377
  463ACOH    H412597   7.352   4.704   6.145 -0.2644  0.0190  2.8483
  463ACOH    O212598   7.267   4.751   6.141 -0.1519  0.0644 -0.1237
  463ACOH    C212599   7.214   4.717   6.262  0.5115  0.7548  0.3731
  463ACOH    O112600   7.245   4.626   6.332  0.2106  0.4921  0.4080
  463ACOH    C112601   7.099   4.805   6.292  0.4474 -0.2494  0.4208
  463ACOH    H112602   7.032   4.829   6.209  2.0454 -1.4413 -1.2489
  463ACOH    H212603   7.148   4.898   6.322 -0.9688 -0.1078  2.4231
  463ACOH    H312604   7.044   4.764   6.377  0.9431  0.7389  1.2248
  464ACOH    H412605   7.621   9.899   1.658 -2.3398 -0.6443 -1.3198
  464ACOH    O212606   7.671   9.817   1.673 -0.0768  0.9365  0.1011
  464ACOH    C212607   7.717   9.794   1.549 -0.1206  0.6762 -0.8808
  464ACOH    O112608   7.715   9.864   1.452 -0.4895 -0.4755 -0.3463
  464ACOH    C112609   7.791   9.666   1.548 -0.1578 -0.7988 -0.3211
  464ACOH    H112610   7.897   9.681   1.568 -0.4734  1.3154 -0.0572
  464ACOH    H212611   7.784   9.618   1.450  0.8632  0.7815 -1.2141
  464ACOH    H312612   7.755   9.598   1.624 -0.5446  0.6692  0.8267
  465SOL     OW12613   3.487   7.162   2.421 -0.1270  0.4000  0.5925
  465SOL    HW112614   3.414   7.230   2.433 -0.7892 -0.2711  0.4440
  465SOL    HW212615   3.575   7.208   2.411 -0.4533  1.2044  1.3781
  466SOL     OW12616   1.900   6.865   4.739  0.2495 -0.0427 -0.4529
  466SOL    HW112617   1.881   6.911   4.826  0.4584  0.3618 -0.6194
  466SOL    HW212618   1.830   6.796   4.722  0.0664  0.0513 -0.0844
  467SOL     OW12619   6.919   9.315   3.367  0.6525 -0.1427  0.0524
  467SOL    HW112620   6.864   9.311   3.283  1.5924 -1.7220 -0.5088
  467SOL    HW212621   6.999   9.372   3.351  1.1689 -0.9677 -0.3381
  468SOL     OW12622   1.293   0.650   1.025 -0.9430 -0.4132 -0.1979
  468SOL    HW112623   1.299   0.632   1.123 -0.4082  2.0467  0.2647
  468SOL    HW212624   1.373   0.613   0.979 -0.0313  0.4534  0.6607
  469SOL     OW12625   0.920   1.083   0.595 -0.0630 -0.8934 -0.4051
  469SOL    HW112626   0.999   1.109   0.539 -0.1931  0.2125 -0.1012
  469SOL    HW212627   0.837   1.088   0.539 -0.0866 -0.6517 -0.3500
  470SOL     OW12628   9.180   7.728   3.467 -0.2966  0.7108  0.3285
  470SOL    HW112629   9.177   7.828   3.468 -0.8722  0.7102 -1.0628
  470SOL    HW212630   9.098   7.692   3.422  0.0539 -0.3801  0.5435
  471SOL     OW12631   0.038   0.998   3.191  0.4508  0.1842 -0.6235
  471SOL    HW112632   0.030   1.096   3.171  1.7722  0.4669  0.1735
  471SOL    HW212633   0.068   0.986   3.286 -2.5657 -1.0587  0.2547
  472SOL     OW12634   5.927   8.986   3.563 -0.1521  0.4024 -0.0297
  472SOL    HW112635   5.991   9.062   3.549 -0.6615  0.8615  0.1599
  472SOL    HW212636   5.950   8.939   3.648  0.9723 -0.4595 -0.7835
  473SOL     OW12637   0.956   1.486   1.269  0.5721 -0.4896  0.0489
  473SOL    HW112638   0.981   1.557   1.335 -1.9754 -0.3906  0.9709
  473SOL    HW212639   0.961   1.523   1.176  1.4222  0.2363  0.3840
  474SOL     OW12640   1.494   5.406   0.992  0.1460 -0.1585 -1.0327
  474SOL    HW112641   1.492   5.454   0.904  0.3735 -0.1262 -1.0202
  474SOL    HW212642   1.411   5.350   1.001 -0.2849  0.4909 -0.9020
  475SOL     OW12643   8.283   1.733   6.259  0.5999  0.1951 -0.1662
  475SOL    HW112644   8.320   1.780   6.179 -0.3254  1.8151  0.3216
  475SOL    HW212645   8.264   1.800   6.331  0.4331 -1.1012  1.0321
  476SOL     OW12646   4.909   0.278   4.453  0.5371  0.3038  0.1216
  476SOL    HW112647   4.816   0.290   4.487 -0.1291 -0.4182 -1.3488
  476SOL    HW212648   4.909   0.289   4.353  1.4009 -2.8938 -0.2911
  477SOL     OW12649   7.314   5.227   6.145  0.2776 -0.4002  0.0080
  477SOL    HW112650   7.413   5.224   6.137  0.4214  0.4333  1.2832
  477SOL    HW212651   7.284   5.162   6.215  0.0008 -0.0336  0.2343
  478SOL     OW12652   9.957   9.451   1.419 -0.1201 -0.4233 -0.3924
  478SOL    HW112653   9.868   9.408   1.404 -0.6180 -0.6887  3.1219
  478SOL    HW212654   9.943   9.545   1.452  0.8632 -1.2037  2.2902
  479SOL     OW12655   1.395   2.980   1.029  0.4216  0.3555 -0.1310
  479SOL    HW112656   1.489   2.957   1.053  1.0832  2.0286 -1.0414
  479SOL    HW212657   1.373   3.072   1.062 -0.3860  0.5829 -1.2425
  480SOL     OW12658   2.657   8.653   1.372  0.2878 -0.3400 -0.6375
  480SOL    HW112659   2.638   8.751   1.362  1.0297 -0.0418  0.6987
  480SOL    HW212660   2.640   8.625   1.466  1.6990 -1.1218 -0.5884
  481SOL     OW12661   2.428   6.514   2.315 -0.3350 -0.2055 -0.1031
  481SOL    HW112662   2.482   6.503   2.399  0.7793 -1.1918 -0.9372
  481SOL    HW212663   2.413   6.612   2.298  1.3587  0.1002  0.0490
  482SOL     OW12664   7.635   9.960   0.552  0.1855  0.3277 -0.2140
  482SOL    HW112665   7.617   9.886   0.616  0.0262  1.1702  0.7309
  482SOL    HW212666   7.734   9.964   0.532 -0.0337 -1.4015 -1.8590
  483SOL     OW12667   4.478   0.343   5.279  0.4563 -0.6548  0.0293
  483SOL    HW112668   4.505   0.336   5.375 -0.3299  0.7275  0.3675
  483SOL    HW212669   4.387   0.303   5.266 -0.4228  1.1654  0.3332
  484SOL     OW12670   9.162   7.149   5.682  0.2066 -0.3812  0.3467
  484SOL    HW112671   9.214   7.064   5.679  2.9712  1.1917  1.2065
  484SOL    HW212672   9.190   7.207   5.605 -0.7321  0.2507  0.4834
  485SOL     OW12673   8.972   5.741   2.040 -0.2513  0.1101 -0.0241
  485SOL    HW112674   8.954   5.643   2.054 -2.4262  0.7704  2.3015
  485SOL    HW212675   9.066   5.754   2.009  0.6146 -2.6101  1.2981
  486SOL     OW12676   7.059   1.264   2.745 -0.2505  0.2186  0.1758
  486SOL    HW112677   7.072   1.242   2.841 -0.2706  0.0655  0.1438
  486SOL    HW212678   7.078   1.361   2.729  1.4597 -0.1333  0.0138
  487SOL     OW12679   3.561   2.418   5.915 -0.3276  0.7248  1.1175
  487SOL    HW112680   3.603   2.492   5.863 -1.6075 -0.7597 -2.1057
  487SOL    HW212681   3.628   2.345   5.930 -0.6250  0.1022 -0.5556
  488SOL     OW12682   0.792   3.470   1.439 -0.2870  0.0943 -0.0074
  488SOL    HW112683   0.870   3.416   1.409 -0.3100 -1.0185  1.8389
  488SOL    HW212684   0.720   3.468   1.370  0.5514 -0.4713 -0.8681
  489SOL     OW12685   0.095   7.695   6.036 -0.0581 -0.1282  1.0922
  489SOL    HW112686   0.065   7.725   5.945  1.4727 -1.9233 -0.0360
  489SOL    HW212687   0.155   7.763   6.076 -1.2191  0.9492  1.0189
  490SOL     OW12688   9.090   1.192   2.973 -0.2587 -0.9974 -0.6113
  490SOL    HW112689   9.058   1.146   3.056  1.0537 -1.2583 -0.2389
  490SOL    HW212690   9.179   1.155   2.946  1.5651  2.2778  0.5642
  491SOL     OW12691   3.331   4.887   4.959 -0.5378  0.1158 -0.2015
  491SOL    HW112692   3.301   4.967   5.010  2.5203  1.2132 -0.0022
  491SOL    HW212693   3.294   4.891   4.866 -1.9987  0.7157  0.3911
  492SOL     OW12694   4.231   9.928   2.572  0.1217 -0.2899 -0.0263
  492SOL    HW112695   4.133   9.948   2.575  0.1067 -0.3486 -0.1212
  492SOL    HW212696   4.251   9.873   2.492  0.1193 -0.9143  0.3957
  493SOL     OW12697   2.084   5.057   0.199 -0.4837  0.2920 -0.4500
  493SOL    HW112698   2.149   5.031   0.270 -0.2858 -0.0989 -0.7720
  493SOL    HW212699   2.031   4.977   0.171 -0.1679  0.3173 -1.1424
  494SOL     OW12700   9.517   0.277   0.938  0.5163 -0.0518 -0.3571
  494SOL    HW112701   9.504   0.359   0.882  1.3913  1.2699  1.3585
  494SOL    HW212702   9.586   0.218   0.895 -0.2696 -0.0233 -1.6986
  495SOL     OW12703   2.456   5.695   3.551  0.5604 -0.3853  0.2162
  495SOL    HW112704   2.404   5.613   3.575 -0.0882 -0.0250  0.0664
  495SOL    HW212705   2.490   5.738   3.634 -1.3736  0.6621  0.4898
  496SOL     OW12706   0.075   2.380   2.682 -0.5102 -0.0565  0.7500
  496SOL    HW112707   0.139   2.312   2.645 -0.3297  0.4825  0.0520
  496SOL    HW212708   0.089   2.388   2.780  0.3605 -0.0899  0.6367
  497SOL     OW12709   3.178   2.889   5.513 -0.6387  0.3868  0.1993
  497SOL    HW112710   3.081   2.871   5.527 -0.6692  0.7996  0.5318
  497SOL    HW212711   3.231   2.847   5.587 -0.5878  0.4099  0.1765
  498SOL     OW12712   8.004   4.322   2.514 -0.0793  0.4976 -0.6095
  498SOL    HW112713   8.081   4.261   2.532 -0.4940  0.3350  0.6872
  498SOL    HW212714   7.969   4.305   2.422  0.6084 -0.3443 -0.7266
  499SOL     OW12715   2.698   5.037   5.368  0.4692  0.1417  0.0405
  499SOL    HW112716   2.678   5.099   5.444 -1.8490  0.2047 -0.5889
  499SOL    HW212717   2.731   4.950   5.403 -0.4720  0.2133  1.1233
  500SOL     OW12718   4.706   1.604   3.001  0.1489  0.3822  0.2198
  500SOL    HW112719   4.656   1.691   2.995  0.4515  0.8148  3.0784
  500SOL    HW212720   4.804   1.621   2.992  0.4521  0.7916  3.6969
  501SOL     OW12721   8.014   9.540   4.317  0.2522 -0.0337  0.2492
  501SOL    HW112722   7.977   9.448   4.301 -1.9338  0.5038  1.8428
  501SOL    HW212723   8.076   9.565   4.243 -2.4219 -1.1177 -2.4917
  502SOL     OW12724   9.927   7.444   1.812 -0.6194  0.0222  0.2747
  502SOL    HW112725   9.876   7.363   1.783 -0.5512  0.2893 -0.6047
  502SOL    HW212726   9.881   7.485   1.891 -0.8510 -0.6682  0.5063
  503SOL     OW12727   3.693   2.642   4.576 -0.4243  0.1855  0.1304
  503SOL    HW112728   3.605   2.603   4.603 -0.4313 -0.1679 -0.4110
  503SOL    HW212729   3.689   2.673   4.481 -0.0584  0.4496  0.1987
  504SOL     OW12730   0.124   5.996   1.901 -0.0830  0.6268 -0.3746
  504SOL    HW112731   0.214   6.032   1.878  0.2641  1.0518  1.5770
  504SOL    HW212732   0.070   5.985   1.818  1.4094  1.3462 -1.4483
  505SOL     OW12733   7.419   8.955   3.929  0.0433  0.3027  0.1035
  505SOL    HW112734   7.398   8.874   3.875 -1.7952  0.4203  0.6005
  505SOL    HW212735   7.455   8.927   4.018 -1.0896 -0.0009  0.4780
  506SOL     OW12736   1.309   0.337   3.866 -0.4720 -0.3099 -0.2618
  506SOL    HW112737   1.247   0.383   3.930  0.4631  2.2004 -1.0994
  506SOL    HW212738   1.353   0.260   3.912 -1.8741 -0.2272  1.2790
  507SOL     OW12739   9.317   8.856   3.312  0.5258 -0.3002  0.4302
  507SOL    HW112740   9.394   8.808   3.270  0.1647  0.1553 -0.7700
  507SOL    HW212741   9.250   8.790   3.345 -0.1215 -0.6478 -1.4938
  508SOL     OW12742   0.742   4.510   2.459  0.2978 -0.8242 -0.0470
  508SOL    HW112743   0.723   4.502   2.557  0.7595  0.4163  0.1611
  508SOL    HW212744   0.679   4.576   2.418  0.2123 -1.2185 -0.5521
  509SOL     OW12745   9.362   5.637   6.150 -0.4064  0.0826 -0.2438
  509SOL    HW112746   9.290   5.627   6.081  0.1535 -1.0359 -0.6676
  509SOL    HW212747   9.342   5.577   6.227  0.0346 -0.1741 -0.3290
  510SOL     OW12748   4.420   2.094   0.969  0.6366 -1.0777  0.4781
  510SOL    HW112749   4.328   2.089   1.008  1.2627  0.9282  2.3305
  510SOL    HW212750   4.448   2.004   0.938 -1.1216 -2.1571  1.9195
  511SOL     OW12751   0.169   9.464   1.677 -0.1063 -0.1300  0.0586
  511SOL    HW112752   0.190   9.399   1.604 -0.2525  1.0444 -1.0612
  511SOL    HW212753   0.200   9.556   1.650 -1.0277  0.4920  1.0543
  512SOL     OW12754   5.829   4.341   0.007 -0.2113 -0.0880  0.1542
  512SOL    HW112755   5.866   4.269  -0.051 -0.4570  1.0152 -1.4216
  512SOL    HW212756   5.870   4.429  -0.019 -0.8933  0.5394  1.1514
  513SOL     OW12757   9.514   8.314   1.105 -0.3746 -0.3218 -0.0328
  513SOL    HW112758   9.582   8.368   1.054  1.8021 -1.8347  1.2138
  513SOL    HW212759   9.536   8.317   1.202 -2.3361 -0.5499  0.4265
  514SOL     OW12760   6.669   1.239   1.353 -0.4464 -0.1461  0.3609
  514SOL    HW112761   6.745   1.175   1.355  1.6208  2.2114 -0.0396
  514SOL    HW212762   6.638   1.257   1.447 -0.5736 -1.1540  0.5160
  515SOL     OW12763   9.728   6.843   3.981  0.5249 -0.0882 -0.0514
  515SOL    HW112764   9.763   6.760   4.024 -0.3024  0.2443  1.3128
  515SOL    HW212765   9.683   6.820   3.895 -0.3770 -1.1742  0.6932
  516SOL     OW12766   6.160   1.607   2.962 -0.2598 -0.5205 -0.0369
  516SOL    HW112767   6.075   1.653   2.935 -0.3063 -0.4475  0.2306
  516SOL    HW212768   6.143   1.508   2.968  0.4341 -0.8801 -2.9444
  517SOL     OW12769   2.504   5.859   4.184  0.1584 -0.1673 -0.2498
  517SOL    HW112770   2.435   5.907   4.239 -0.0878 -2.1044  1.1881
  517SOL    HW212771   2.463   5.830   4.098 -1.2669 -2.5021  1.1661
  518SOL     OW12772   6.239   1.996   5.074  0.2081 -0.2159  0.4881
  518SOL    HW112773   6.281   2.043   4.996  1.4679 -0.3543  1.0846
  518SOL    HW212774   6.285   2.023   5.158 -0.4006 -0.9633  1.0654
  519SOL     OW12775   3.858   6.234   2.501  0.5697  0.4239 -0.2515
  519SOL    HW112776   3.838   6.329   2.522  1.1683  0.0227  2.3958
  519SOL    HW212777   3.809   6.206   2.419  0.9523  3.2015 -1.4569
  520SOL     OW12778   5.515   0.526   3.178  0.0018  0.3951 -0.6489
  520SOL    HW112779   5.569   0.608   3.161  1.0592 -0.1054  0.2319
  520SOL    HW212780   5.517   0.466   3.098  1.4982 -0.0326 -0.2931
  521SOL     OW12781   0.556   2.505   6.236 -0.0803  0.1451  0.5046
  521SOL    HW112782   0.569   2.436   6.307 -1.7162 -0.6185  0.0629
  521SOL    HW212783   0.520   2.463   6.153  1.9720  1.0081 -0.8738
  522SOL     OW12784   0.750   6.038   6.000 -0.0950 -0.6006  0.4173
  522SOL    HW112785   0.846   6.025   6.025 -0.2142  1.3438  2.0225
  522SOL    HW212786   0.742   6.116   5.938 -0.4477 -1.9602 -1.2903
  523SOL     OW12787   0.972   9.424   5.241  0.2767  0.5588 -0.1823
  523SOL    HW112788   0.941   9.454   5.150 -0.7072  2.0916  0.6445
  523SOL    HW212789   0.896   9.429   5.305  0.9887 -0.4693  0.7572
  524SOL     OW12790   7.412   0.958   4.772 -0.2022 -0.4937 -0.2921
  524SOL    HW112791   7.407   0.948   4.872 -0.0626  0.0949 -0.2252
  524SOL    HW212792   7.345   0.897   4.730 -1.5973  0.6310  0.2461
  525SOL     OW12793   1.036   6.896   0.187  0.4015 -0.0106  0.4651
  525SOL    HW112794   0.967   6.857   0.248  0.7187 -1.8185 -0.2927
  525SOL    HW212795   1.002   6.894   0.093  0.9501  0.3275  0.2544
  526SOL     OW12796   1.491   6.260   1.619  0.3477  0.1681  0.5515
  526SOL    HW112797   1.422   6.284   1.688  0.0525 -0.6556  0.5451
  526SOL    HW212798   1.459   6.286   1.529  0.2390  0.2025  0.6006
  527SOL     OW12799   2.828   5.816   2.152 -0.1110 -0.2161 -0.4336
  527SOL    HW112800   2.907   5.878   2.158 -0.3919  0.1439 -0.4937
  527SOL    HW212801   2.844   5.750   2.078  0.6361 -0.8472  0.2849
  528SOL     OW12802   7.646   3.141   0.231 -1.0354 -0.1143  0.8376
  528SOL    HW112803   7.636   3.042   0.222  0.5313 -0.3487  1.6896
  528SOL    HW212804   7.637   3.167   0.327 -0.3619  0.4492  0.7487
  529SOL     OW12805   7.737   1.956   5.180  0.5535 -0.4297 -0.1946
  529SOL    HW112806   7.816   1.918   5.228  0.3944 -0.8841 -0.2905
  529SOL    HW212807   7.698   1.886   5.119  0.5968  0.0548 -0.7851
  530SOL     OW12808   7.541   3.105   2.591 -0.0143  0.0326  0.3379
  530SOL    HW112809   7.472   3.156   2.642 -0.2657 -0.4609  0.4980
  530SOL    HW212810   7.593   3.168   2.534 -1.7824  0.1980 -1.1527
  531SOL     OW12811   5.276   1.960   1.706  0.6480  0.5514  0.3616
  531SOL    HW112812   5.367   1.964   1.666  1.8149 -1.5843  2.6444
  531SOL    HW212813   5.224   1.887   1.663  1.1135 -0.2569  1.1518
  532SOL     OW12814   3.565   8.877   6.150  0.2804 -0.3722 -0.8550
  532SOL    HW112815   3.555   8.779   6.132  1.5860 -0.6372 -0.1731
  532SOL    HW212816   3.477   8.922   6.134 -0.6244 -1.8087 -0.0919
  533SOL     OW12817   7.053   4.563   2.875 -0.1595 -0.0815  0.9831
  533SOL    HW112818   7.028   4.556   2.778  0.6038  0.2525  0.7616
  533SOL    HW212819   7.137   4.511   2.891  0.4902  1.0280  1.1839
  534SOL     OW12820   2.483   9.184   5.362 -0.2446 -0.2298  0.7166
  534SOL    HW112821   2.394   9.146   5.337 -0.6119 -0.2289  1.9855
  534SOL    HW212822   2.485   9.281   5.338 -0.3175 -0.4054  0.0032
  535SOL     OW12823   0.659   4.069   2.982 -0.3136 -0.7387 -0.0859
  535SOL    HW112824   0.629   4.102   3.072  2.1057  0.4970  0.3127
  535SOL    HW212825   0.683   3.972   2.989 -1.0634 -0.8967  0.3704
  536SOL     OW12826   7.796   2.290   3.385  0.5422  0.3500 -0.2318
  536SOL    HW112827   7.854   2.368   3.409  0.7413  0.0625  0.2257
  536SOL    HW212828   7.853   2.214   3.355  0.4870 -0.2845  1.1995
  537SOL     OW12829   6.375   9.630   2.855 -0.5961  0.1828 -0.2196
  537SOL    HW112830   6.324   9.689   2.793 -1.4333 -1.1490 -0.8391
  537SOL    HW212831   6.345   9.535   2.843  0.7592 -0.3864  0.6951
  538SOL     OW12832   7.658   1.348   6.242  0.5580  0.2503 -0.1066
  538SOL    HW112833   7.615   1.297   6.317 -0.5409  3.2008  1.3500
  538SOL    HW212834   7.757   1.352   6.258  0.6265 -1.1628 -0.1028
  539SOL     OW12835   8.757   2.519   4.149  0.0791  0.2562  0.1471
  539SOL    HW112836   8.707   2.515   4.063  0.0101  1.2610  0.1391
  539SOL    HW212837   8.708   2.466   4.218 -0.0328 -0.2868 -0.3422
  540SOL     OW12838   5.218   1.820   6.010  0.7471 -0.5729 -0.0280
  540SOL    HW112839   5.195   1.864   5.923  0.5890 -0.2517  0.1789
  540SOL    HW212840   5.161   1.738   6.021 -1.1870  0.8605  1.0392
  541SOL     OW12841   9.273   0.725   2.473 -0.1680  0.3435 -0.4246
  541SOL    HW112842   9.311   0.772   2.394  0.3302 -1.1358 -1.0745
  541SOL    HW212843   9.267   0.789   2.550  1.3264  1.2389 -1.0288
  542SOL     OW12844   9.784   8.042   3.146 -0.6128 -0.7282  0.4492
  542SOL    HW112845   9.844   8.118   3.173 -0.7929 -1.6032  3.5217
  542SOL    HW212846   9.824   7.993   3.069  1.1717  0.4255  0.6130
  543SOL     OW12847   6.610   8.949   3.124 -0.4855 -0.0793 -0.5593
  543SOL    HW112848   6.618   8.992   3.213  0.7253 -0.4655 -0.4738
  543SOL    HW212849   6.627   8.850   3.132  2.1965  0.2472 -1.5892
  544SOL     OW12850   7.751   8.109   5.025 -0.5210 -0.4353 -0.3206
  544SOL    HW112851   7.842   8.110   4.984 -0.2639 -0.6421  0.2395
  544SOL    HW212852   7.701   8.027   4.994  0.0671 -1.1591  0.6300
  545SOL     OW12853   0.442   2.859   3.005 -0.9945 -0.7287  0.1518
  545SOL    HW112854   0.384   2.839   2.927 -0.4558 -0.8124 -0.2269
  545SOL    HW212855   0.538   2.854   2.978 -0.8399  2.0093  0.1338
  546SOL     OW12856   0.311   2.440   2.115  0.7614  0.0878  0.0136
  546SOL    HW112857   0.343   2.477   2.028  3.1658 -0.8174  0.4632
  546SOL    HW212858   0.356   2.353   2.133 -1.5587 -0.9482  1.0144
  547SOL     OW12859   5.888   1.088   3.882 -0.5734  0.9001  0.0813
  547SOL    HW112860   5.941   1.095   3.798  0.8399 -2.6331  0.6085
  547SOL    HW212861   5.798   1.049   3.862 -0.7967  1.4527  0.0054
  548SOL     OW12862   3.466   8.850   1.564 -0.3083  0.4248  0.0461
  548SOL    HW112863   3.378   8.882   1.598  0.0145  0.6383  0.6897
  548SOL    HW212864   3.470   8.750   1.571 -1.0664  0.3002 -1.3629
  549SOL     OW12865   8.100   0.368   1.505  0.2471 -0.2334 -0.4480
  549SOL    HW112866   8.074   0.358   1.601 -2.0028  0.4080 -0.9573
  549SOL    HW212867   8.191   0.410   1.499 -0.0187  0.6655  1.4031
  550SOL     OW12868   4.279   8.665   4.552  0.1052  0.6202 -0.1909
  550SOL    HW112869   4.342   8.648   4.627 -0.3327 -1.7958 -0.3476
  550SOL    HW212870   4.328   8.660   4.465  0.4376  2.5602 -0.1374
  551SOL     OW12871   0.327   0.062   4.574 -0.3006  0.0200 -0.3134
  551SOL    HW112872   0.348   0.158   4.556 -0.3959  0.0248 -0.4057
  551SOL    HW212873   0.351   0.008   4.493 -0.0077 -0.0693 -0.1656
  552SOL     OW12874   3.127   9.024   2.361  0.3250 -0.6287  0.0573
  552SOL    HW112875   3.053   8.957   2.352  0.7268 -1.3898  2.2445
  552SOL    HW212876   3.094   9.114   2.331 -1.2695 -1.1020  0.3625
  553SOL     OW12877   8.076   1.288   2.771  0.2858 -0.6764 -0.2652
  553SOL    HW112878   8.009   1.273   2.698  0.7009 -0.8146 -0.6180
  553SOL    HW212879   8.066   1.217   2.840 -1.3735  0.5286  0.7613
  554SOL     OW12880   6.964   3.063   5.602  0.2934  0.4469  0.2485
  554SOL    HW112881   7.018   2.978   5.604  2.6647  1.9298  0.7674
  554SOL    HW212882   6.914   3.072   5.687 -1.1435 -1.1544 -0.4004
  555SOL     OW12883   2.928   7.881   2.256 -0.4729  0.2257 -0.1045
  555SOL    HW112884   2.835   7.866   2.224 -0.7464  1.0272  0.3079
  555SOL    HW212885   2.946   7.979   2.262 -0.2324  0.1018  1.6080
  556SOL     OW12886   7.973   8.944   3.212  0.5043 -0.1586 -0.4299
  556SOL    HW112887   7.880   8.967   3.181  0.9804  2.7263  0.1423
  556SOL    HW212888   7.997   8.852   3.179 -2.7049 -1.1553 -0.1836
  557SOL     OW12889   0.723   8.718   3.682 -0.0919  0.1651 -0.4803
  557SOL    HW112890   0.710   8.817   3.689  1.8713  0.3623  1.0214
  557SOL    HW212891   0.795   8.699   3.614  0.9370 -0.0993  0.6681
  558SOL     OW12892   9.270   4.686   3.989 -0.2417 -0.3306  0.4395
  558SOL    HW112893   9.250   4.588   3.993  0.5161 -0.4641  1.3411
  558SOL    HW212894   9.352   4.701   3.934 -0.2155 -0.2223  0.5095
  559SOL     OW12895   1.841   6.498   4.747  0.0010 -0.0060  0.2929
  559SOL    HW112896   1.790   6.584   4.744  1.4668  0.8654 -0.1091
  559SOL    HW212897   1.901   6.498   4.826  1.2864  0.0938 -0.6683
  560SOL     OW12898   3.102   6.758   0.243  0.5918 -0.0581  0.5095
  560SOL    HW112899   3.041   6.688   0.208  0.4347  0.5082 -0.3855
  560SOL    HW212900   3.064   6.848   0.223  1.9287  0.3076 -0.4929
  561SOL     OW12901   7.978   1.548   8.131 -0.1714 -0.0800 -0.2609
  561SOL    HW112902   8.054   1.612   8.113 -0.7708  0.0242 -2.5619
  561SOL    HW212903   8.013   1.454   8.128  0.0194 -0.0019 -0.5961
  562SOL     OW12904   1.177   8.061   1.908  0.3979  0.3170 -0.5016
  562SOL    HW112905   1.271   8.033   1.928  0.7541  0.6523 -1.6688
  562SOL    HW212906   1.167   8.159   1.926  0.6772  0.5867 -1.7895
  563SOL     OW12907   6.969   1.083   4.944  0.0293  0.1932 -0.0506
  563SOL    HW112908   7.009   1.168   4.910 -0.8217  0.2985 -0.8193
  563SOL    HW212909   6.870   1.086   4.932  0.2178 -1.9645 -2.5123
  564SOL     OW12910   7.085   1.583   5.614  0.2249  0.2643 -0.4690
  564SOL    HW112911   7.101   1.548   5.706 -1.4937  0.6391 -0.0088
  564SOL    HW212912   7.036   1.514   5.560 -0.3205  0.7096 -0.5516
  565SOL     OW12913   8.945   6.942   1.608 -0.4329  0.9563  0.2950
  565SOL    HW112914   9.011   6.971   1.677  0.7732 -2.0312  0.4515
  565SOL    HW212915   8.867   6.898   1.652  0.9639 -2.1603 -0.2773
  566SOL     OW12916   8.229   8.647   5.156  0.4374  0.2119 -0.6516
  566SOL    HW112917   8.173   8.622   5.234  2.1043  0.5147  0.6726
  566SOL    HW212918   8.178   8.632   5.071 -0.8749 -1.4763  0.4249
  567SOL     OW12919   8.595   1.039   3.481 -0.4480 -0.3686  0.1349
  567SOL    HW112920   8.583   1.051   3.382  0.1687 -1.9561 -0.1440
  567SOL    HW212921   8.690   1.060   3.505 -1.0514  1.8605  0.7054
  568SOL     OW12922   0.058   4.448   3.399 -0.1046  0.0537  0.3374
  568SOL    HW112923   0.068   4.394   3.482 -0.4126  0.7663  0.8371
  568SOL    HW212924  -0.036   4.441   3.365 -0.3737  0.9906  0.8927
  569SOL     OW12925   9.258   7.515   1.129 -0.2793 -0.4410  0.2515
  569SOL    HW112926   9.188   7.584   1.146 -0.2345  0.1570 -1.8215
  569SOL    HW212927   9.347   7.559   1.121  0.1085 -1.0158  1.2573
  570SOL     OW12928   2.211   4.801   2.377  0.3190 -0.3100  0.1938
  570SOL    HW112929   2.301   4.763   2.399  0.9691  0.4956 -1.0281
  570SOL    HW212930   2.203   4.811   2.278 -0.8737  0.2429  0.3456
  571SOL     OW12931   5.247   4.654   1.920 -0.2894 -0.4180 -0.3592
  571SOL    HW112932   5.331   4.681   1.872 -1.3784  2.0496 -0.9925
  571SOL    HW212933   5.258   4.672   2.017  0.0801 -0.5637 -0.3696
  572SOL     OW12934   8.187   7.673   1.452 -0.0582  0.0601  0.4143
  572SOL    HW112935   8.185   7.755   1.394 -0.2811  0.3322  0.8014
  572SOL    HW212936   8.181   7.591   1.395 -0.1628  0.3243  0.0456
  573SOL     OW12937   4.404   4.643   8.096 -0.0770  0.0741 -0.2794
  573SOL    HW112938   4.321   4.698   8.097 -0.2332 -0.1656  1.2605
  573SOL    HW212939   4.484   4.702   8.092 -0.2332  0.4342  1.6970
  574SOL     OW12940   4.018   2.011   4.617  0.3963 -0.2040 -0.0609
  574SOL    HW112941   4.022   2.104   4.581  2.1621 -0.5033 -0.6788
  574SOL    HW212942   4.111   1.979   4.636 -0.1828 -1.9278 -0.0750
  575SOL     OW12943   1.485   7.699   4.721 -0.6712 -0.4364 -0.1961
  575SOL    HW112944   1.572   7.669   4.759  0.2483  1.1015 -1.0781
  575SOL    HW212945   1.416   7.698   4.793  0.5706  0.3936  1.0271
  576SOL     OW12946   3.291   8.828   6.452 -0.4457 -0.2314 -0.0969
  576SOL    HW112947   3.301   8.915   6.402  0.0111  2.1083  3.8955
  576SOL    HW212948   3.193   8.810   6.466 -0.5045  0.3244  0.2271
  577SOL     OW12949   0.553   1.808   3.006  0.4488  0.0970  0.6174
  577SOL    HW112950   0.475   1.848   3.056  0.0555  0.4323 -0.2582
  577SOL    HW212951   0.523   1.778   2.916  1.1126 -0.7280  0.6618
  578SOL     OW12952   9.981   6.309   6.123 -0.0839  0.1840 -0.5095
  578SOL    HW112953  10.050   6.237   6.132 -0.1036  0.0749 -1.2100
  578SOL    HW212954   9.905   6.276   6.068 -1.4692 -0.2380  1.6090
  579SOL     OW12955   4.194   0.887   2.573  0.0764  0.5845  0.3674
  579SOL    HW112956   4.256   0.855   2.644 -0.7724 -0.2644  0.7344
  579SOL    HW212957   4.158   0.809   2.522  0.2840  1.1521 -0.6684
  580SOL     OW12958   7.600   7.381   4.084  0.1834 -0.3176  0.0490
  580SOL    HW112959   7.603   7.310   4.154 -1.8481  0.2589  0.7783
  580SOL    HW212960   7.542   7.456   4.116  1.6122  1.2863 -1.0547
  581SOL     OW12961   6.707   0.618   4.822 -0.5067 -0.0784  0.4846
  581SOL    HW112962   6.779   0.596   4.888 -0.8913  0.9193  1.2682
  581SOL    HW212963   6.624   0.567   4.845 -0.2993 -0.5861  0.0949
  582SOL     OW12964   9.345   5.899   3.751 -0.3096 -0.3456 -0.7374
  582SOL    HW112965   9.391   5.889   3.840 -0.0582  2.5836 -0.4957
  582SOL    HW212966   9.372   5.986   3.709 -3.0778 -0.1108 -2.1254
  583SOL     OW12967   9.596   4.409   1.699  0.0643  0.0995  0.1236
  583SOL    HW112968   9.551   4.460   1.625 -1.0279  0.2788  0.8997
  583SOL    HW212969   9.598   4.466   1.782  2.9853  0.6304 -0.2783
  584SOL     OW12970   2.246   7.718   5.884 -0.1988  0.4363  0.0026
  584SOL    HW112971   2.251   7.806   5.838  1.9632  0.5582  0.4465
  584SOL    HW212972   2.193   7.654   5.828  0.8986  1.0987 -1.8244
  585SOL     OW12973   1.707   8.660   6.146 -0.0158 -0.5290 -0.0831
  585SOL    HW112974   1.706   8.755   6.177 -0.6361 -0.8898  1.0459
  585SOL    HW212975   1.729   8.600   6.224 -0.4410 -1.3719 -0.6094
  586SOL     OW12976   7.441   9.808   6.211 -0.4163  0.3749  0.6362
  586SOL    HW112977   7.350   9.768   6.199  0.0988 -0.1950 -1.6021
  586SOL    HW212978   7.456   9.828   6.308 -2.5104 -0.4957  1.1692
  587SOL     OW12979   8.626   9.718   2.771  0.0345 -0.0566  0.2380
  587SOL    HW112980   8.537   9.710   2.726  1.3021 -0.4543 -2.2828
  587SOL    HW212981   8.647   9.632   2.818 -0.7970 -0.0246  0.6900
  588SOL     OW12982   9.210   4.043   0.258 -0.4472  0.0807  0.1948
  588SOL    HW112983   9.180   4.132   0.290  0.0326  1.0840 -2.0506
  588SOL    HW212984   9.295   4.018   0.304 -0.8968  0.4944  1.2719
  589SOL     OW12985   4.100   1.984   0.117 -0.1095 -0.2748  0.4095
  589SOL    HW112986   4.067   1.944   0.031 -2.3910 -0.5045  1.3495
  589SOL    HW212987   4.084   2.083   0.116  0.3599 -0.2018  0.3390
  590SOL     OW12988   5.014   2.244   0.047 -0.7016  0.1867  0.4827
  590SOL    HW112989   4.962   2.168   0.008 -1.1190 -0.2355  1.8669
  590SOL    HW212990   5.110   2.216   0.058 -0.4671  0.4851 -0.7195
  591SOL     OW12991   8.060   7.119   5.183  0.2507 -0.0832 -0.3605
  591SOL    HW112992   8.049   7.193   5.116  0.1725  0.1175 -0.1263
  591SOL    HW212993   8.005   7.041   5.155  1.2983 -0.5095 -1.2669
  592SOL     OW12994   3.666   5.299   0.074 -0.4356  0.3481 -0.0529
  592SOL    HW112995   3.630   5.210   0.104 -1.3411  0.7683  0.1351
  592SOL    HW212996   3.708   5.289  -0.016 -1.2054 -0.1296 -0.3698
  593SOL     OW12997   6.063   8.910   6.890  0.4601  0.8786  0.4259
  593SOL    HW112998   5.996   8.964   6.941  0.0343  1.6043 -0.8554
  593SOL    HW212999   6.057   8.935   6.793  0.0912 -1.6333 -0.2302
  594SOL     OW13000   6.818   1.666   0.199 -0.1897 -0.1710 -0.3889
  594SOL    HW113001   6.803   1.572   0.229 -1.8515 -0.1766 -1.1646
  594SOL    HW213002   6.913   1.691   0.215  0.6973 -2.5293 -1.7242
  595SOL     OW13003   2.066   2.735   2.445  0.3144 -0.0232 -0.0763
  595SOL    HW113004   2.097   2.823   2.480  0.4515 -0.8200  1.8782
  595SOL    HW213005   1.983   2.748   2.391 -0.9654  1.0352  2.0864
  596SOL     OW13006   6.830   1.769   2.810 -0.1640  0.1804  0.0813
  596SOL    HW113007   6.755   1.819   2.854  0.8189 -0.3144  2.4364
  596SOL    HW213008   6.853   1.689   2.866  1.1951 -0.4441 -1.3387
  597SOL     OW13009   3.678   0.730   0.755  0.4338 -0.4644  0.5694
  597SOL    HW113010   3.609   0.658   0.745 -0.0943  0.0081  0.7705
  597SOL    HW213011   3.640   0.817   0.723  1.6475 -0.5891 -1.2848
  598SOL     OW13012   0.344   0.984   2.127 -0.0243  0.1552 -0.3027
  598SOL    HW113013   0.296   0.915   2.180 -1.3824  1.4222  0.1476
  598SOL    HW213014   0.298   1.072   2.137 -0.0991  0.5107 -3.2625
  599SOL     OW13015   3.796   8.246   6.172  0.2510 -0.2688 -0.0450
  599SOL    HW113016   3.805   8.164   6.115 -0.9070 -0.2868 -0.2188
  599SOL    HW213017   3.870   8.249   6.239 -0.5412 -2.2234  0.9377
  600SOL     OW13018   7.907   5.830   2.372 -0.3689 -0.5388  0.0491
  600SOL    HW113019   7.943   5.797   2.285  0.2323  0.8592 -0.2447
  600SOL    HW213020   7.960   5.910   2.402 -2.0147  0.3881  0.5549
  601SOL     OW13021   8.982   6.259   4.925  0.4562  0.0662  0.1441
  601SOL    HW113022   9.055   6.252   4.993  1.4744  1.1363 -0.8146
  601SOL    HW213023   8.997   6.193   4.852 -0.3540 -0.7277  0.6872
  602SOL     OW13024   3.913   5.944   2.198  0.1767 -0.4552  0.0326
  602SOL    HW113025   3.947   5.935   2.292  1.2836  0.4611 -0.2653
  602SOL    HW213026   3.817   5.915   2.194 -0.0258 -0.0265  1.5361
  603SOL     OW13027   3.253   1.360   3.989 -0.4956 -0.4181 -0.2503
  603SOL    HW113028   3.337   1.380   3.938  1.0963 -0.3760  2.3340
  603SOL    HW213029   3.174   1.385   3.932  1.2082 -0.1548 -2.6007
  604SOL     OW13030   4.223   1.787   2.510  0.1170 -0.3442  0.2902
  604SOL    HW113031   4.177   1.777   2.598  0.5345  1.4931  0.7526
  604SOL    HW213032   4.244   1.697   2.472 -0.2293 -1.1554  1.9731
  605SOL     OW13033   8.361   4.661   1.657  0.1034  0.0140 -0.1324
  605SOL    HW113034   8.265   4.634   1.667 -0.2018  0.6832 -1.1849
  605SOL    HW213035   8.377   4.694   1.564  0.9549  1.4823  0.5104
  606SOL     OW13036   4.288   2.942   3.199 -0.0955  0.3414 -0.2572
  606SOL    HW113037   4.349   3.005   3.150  0.6621  0.0653  0.3264
  606SOL    HW213038   4.204   2.989   3.223  0.9046  1.4638  1.1321
  607SOL     OW13039   8.243   1.117   0.198 -0.1933 -0.0107 -0.0631
  607SOL    HW113040   8.288   1.028   0.202  1.9143  1.0031 -0.3510
  607SOL    HW213041   8.153   1.107   0.154  0.8330 -1.6831 -1.8779
  608SOL     OW13042   6.410   0.261   3.918 -0.6023  0.0720  0.0423
  608SOL    HW113043   6.322   0.309   3.924 -0.4474  0.6622 -2.0881
  608SOL    HW213044   6.407   0.180   3.977 -2.2875  0.5104  0.6077
  609SOL     OW13045   8.242   8.095   2.905 -0.1157  0.1611  0.0966
  609SOL    HW113046   8.171   8.121   2.971 -1.0693 -1.2921 -0.3173
  609SOL    HW213047   8.218   8.131   2.815  1.3882  2.4857  0.5862
  610SOL     OW13048   6.103   1.057   4.289  0.4057  0.4481 -0.2155
  610SOL    HW113049   6.023   1.009   4.253  0.1581 -0.1309  1.0857
  610SOL    HW213050   6.153   0.997   4.351  2.0273  0.7166 -1.2579
  611SOL     OW13051   2.640   7.138   4.765  0.4148  0.4303  0.4135
  611SOL    HW113052   2.558   7.084   4.782  1.0590 -1.0608 -1.0296
  611SOL    HW213053   2.620   7.208   4.696 -0.1213  1.2878  1.4327
  612SOL     OW13054   9.229   7.261   1.844 -0.3430 -0.3363  0.5268
  612SOL    HW113055   9.253   7.320   1.767 -1.5826  0.2677  0.5938
  612SOL    HW213056   9.257   7.305   1.929  1.2801 -1.1297  0.4223
  613SOL     OW13057   3.974   6.869   2.426  0.3483 -0.3638 -0.0662
  613SOL    HW113058   3.992   6.932   2.501  1.0470  0.7096 -1.1260
  613SOL    HW213059   4.051   6.806   2.416  1.5467  1.2977 -1.6621
  614SOL     OW13060   4.483   4.645   0.870  0.2518  0.2774 -0.1187
  614SOL    HW113061   4.548   4.667   0.943 -0.1224 -1.9759  0.9264
  614SOL    HW213062   4.530   4.600   0.795  0.2999  0.8553 -0.4417
  615SOL     OW13063   4.437   7.593   5.453 -0.0496  0.0538  0.3487
  615SOL    HW113064   4.437   7.641   5.540  0.5011  2.8340 -1.1381
  615SOL    HW213065   4.527   7.599   5.411 -0.2671 -1.4016 -0.3624
  616SOL     OW13066   4.230   0.923   1.343 -0.1466  0.6406  0.2042
  616SOL    HW113067   4.148   0.874   1.372 -0.0314  0.7048  0.6470
  616SOL    HW213068   4.214   1.022   1.353  0.9999  0.5758  3.1029
  617SOL     OW13069   6.635   1.441   8.184  0.3122  0.1999  0.1128
  617SOL    HW113070   6.716   1.395   8.147 -0.5176 -0.2570 -1.1649
  617SOL    HW213071   6.609   1.515   8.122 -0.7262 -0.1701  0.1124
  618SOL     OW13072   6.361   2.768   4.921 -0.2562  0.3732  0.2106
  618SOL    HW113073   6.414   2.719   4.852 -0.4585  1.0739 -0.4509
  618SOL    HW213074   6.385   2.865   4.918 -1.0350  0.5711  0.4166
  619SOL     OW13075   4.655   0.520   6.898  0.0141 -0.2682 -0.0829
  619SOL    HW113076   4.583   0.452   6.907  0.7128 -1.0955 -0.5752
  619SOL    HW213077   4.740   0.475   6.868  0.3787  0.8719 -0.8150
  620SOL     OW13078   0.124   9.469   2.320 -0.2050 -0.2067  0.2665
  620SOL    HW113079   0.036   9.511   2.298  0.1077  0.1030 -0.4037
  620SOL    HW213080   0.194   9.539   2.327 -0.0563 -0.4291  1.0445
  621SOL     OW13081   8.882   7.125   3.083 -0.1593  0.1207  0.3571
  621SOL    HW113082   8.867   7.202   3.020 -1.3381  0.5542  1.1341
  621SOL    HW213083   8.868   7.156   3.177 -0.8051 -1.0836  0.6702
  622SOL     OW13084   0.404   2.073   3.845 -0.5044  0.4909  0.4468
  622SOL    HW113085   0.355   2.107   3.925 -0.5705 -0.6792  0.9203
  622SOL    HW213086   0.405   1.973   3.847  0.1303  0.4686 -0.6316
  623SOL     OW13087   5.432   8.041   5.801 -0.0366 -0.0024  0.1007
  623SOL    HW113088   5.433   8.123   5.744  0.2050  1.0380  1.5654
  623SOL    HW213089   5.518   7.992   5.789  0.0920  0.3087 -0.2882
  624SOL     OW13090   9.561   6.990   3.272  0.1533 -0.2639  0.5677
  624SOL    HW113091   9.471   6.955   3.246  0.2599 -0.0405 -0.0972
  624SOL    HW213092   9.563   7.090   3.260  0.7516 -0.3611 -0.2239
  625SOL     OW13093   6.072   3.969   0.598  0.5703 -0.4156  0.4941
  625SOL    HW113094   5.977   3.965   0.568  0.5232 -0.9424  0.7086
  625SOL    HW213095   6.121   4.039   0.546 -0.1217  0.3843  0.9220
  626SOL     OW13096   4.835   1.582   5.922 -0.1089  0.5649 -0.0080
  626SOL    HW113097   4.926   1.557   5.889 -0.0269  0.5659  0.2155
  626SOL    HW213098   4.798   1.654   5.864  0.4946  1.3429  0.5595
  627SOL     OW13099   2.896   1.403   0.250 -0.4398 -0.2312  0.3048
  627SOL    HW113100   2.854   1.494   0.251  1.1596  0.5453 -0.7693
  627SOL    HW213101   2.826   1.334   0.234 -1.6041  0.8610  0.6266
  628SOL     OW13102   6.119   5.730   1.014 -0.6043  0.2376  0.4459
  628SOL    HW113103   6.149   5.706   0.921  0.7428  2.9916  0.1155
  628SOL    HW213104   6.019   5.721   1.020 -0.5558 -1.4957 -0.7609
  629SOL     OW13105   3.743   3.532   0.379 -0.4113  0.0757 -0.0568
  629SOL    HW113106   3.681   3.506   0.304 -0.4419  1.6757 -0.6077
  629SOL    HW213107   3.690   3.570   0.454 -0.1039  1.5001 -0.5507
  630SOL     OW13108   0.443   4.774   5.258 -0.1117  0.3739 -0.7060
  630SOL    HW113109   0.525   4.805   5.306 -1.6869 -1.3166  3.3282
  630SOL    HW213110   0.460   4.684   5.218 -0.2968 -0.4209  0.9911
  631SOL     OW13111   4.937   0.950   1.819  0.0080 -0.1233  0.1690
  631SOL    HW113112   4.981   0.964   1.908 -1.8239  0.5038  1.0070
  631SOL    HW213113   4.844   0.986   1.822  0.1498  0.5050 -2.2417
  632SOL     OW13114   9.846   5.482   4.157  0.0001 -0.2958 -0.3124
  632SOL    HW113115   9.803   5.455   4.244 -0.7862  1.7200 -0.0326
  632SOL    HW213116   9.779   5.472   4.083  0.2268 -0.7036 -0.4573
  633SOL     OW13117   4.362   3.719   3.781  0.5615  0.4540  0.3804
  633SOL    HW113118   4.333   3.797   3.837  2.8956  1.9336 -0.3829
  633SOL    HW213119   4.453   3.689   3.811  0.5080 -0.7458 -0.5995
  634SOL     OW13120   7.467   2.698   0.425  0.2862 -0.1380  0.0110
  634SOL    HW113121   7.537   2.769   0.428  0.2525 -0.1468  1.3678
  634SOL    HW213122   7.379   2.739   0.404  0.5842 -0.0309 -1.0246
  635SOL     OW13123   1.121   3.052   1.940  0.7988  0.0852  0.4082
  635SOL    HW113124   1.112   2.994   2.020 -0.8137  0.4934  0.5355
  635SOL    HW213125   1.058   3.130   1.947  0.4769  0.0165 -1.3351
  636SOL     OW13126   3.093   4.018   2.191  0.1683  0.3906  0.7730
  636SOL    HW113127   3.106   3.932   2.240  0.0024  0.3032  0.6639
  636SOL    HW213128   3.010   4.012   2.135  1.0706 -0.0145 -0.5611
  637SOL     OW13129   8.026   8.380   5.695 -0.1035 -0.3483 -0.4951
  637SOL    HW113130   8.061   8.305   5.639  1.1663  0.1455 -0.3756
  637SOL    HW213131   7.926   8.374   5.700  0.0215 -2.5464  0.2280
  638SOL     OW13132   0.416   7.260   5.571 -0.4295  0.0469 -0.3902
  638SOL    HW113133   0.498   7.226   5.524 -1.1057  0.1838 -1.6931
  638SOL    HW213134   0.417   7.360   5.571 -0.7138  0.0514 -0.6286
  639SOL     OW13135   5.908   9.662   6.545  0.6692 -0.2742 -0.4358
  639SOL    HW113136   5.834   9.636   6.607  0.2698  0.7265 -0.4936
  639SOL    HW213137   5.983   9.596   6.554  0.9818  0.3378  1.7686
  640SOL     OW13138   0.119   3.424   4.795  0.4745  0.0028  0.3108
  640SOL    HW113139   0.113   3.486   4.873 -2.0606 -0.1217  0.2569
  640SOL    HW213140   0.166   3.469   4.719 -1.1616  1.8119  0.3509
  641SOL     OW13141   9.751   6.631   3.675 -0.4450 -0.0468  0.1564
  641SOL    HW113142   9.816   6.594   3.741  0.1415 -0.3829 -0.5993
  641SOL    HW213143   9.764   6.730   3.667  0.5616 -0.2327 -0.6241
  642SOL     OW13144   0.268   8.933   1.709  0.4468  0.1278 -0.0152
  642SOL    HW113145   0.360   8.964   1.685  0.5598  0.3260  0.6581
  642SOL    HW213146   0.273   8.857   1.773  0.1352  1.6730  1.8885
  643SOL     OW13147   2.733   5.130   0.563 -0.2869 -0.0074 -0.8182
  643SOL    HW113148   2.717   5.123   0.464  4.7711 -1.4994 -1.6778
  643SOL    HW213149   2.729   5.039   0.604 -0.9696  0.4483  0.1388
  644SOL     OW13150   5.948   7.092   5.157  0.2180 -0.4415 -0.4815
  644SOL    HW113151   6.044   7.117   5.145  0.3929 -0.8969 -0.0455
  644SOL    HW213152   5.925   7.017   5.095 -0.1952  0.5159 -1.4918
  645SOL     OW13153   5.952   2.728   3.743 -0.1144 -0.0333 -0.2156
  645SOL    HW113154   5.926   2.810   3.793  1.4152 -0.2161  0.9490
  645SOL    HW213155   6.044   2.739   3.706  0.5292 -1.5607  0.8258
  646SOL     OW13156   4.358   3.275   2.394 -0.1275  0.0099  0.0371
  646SOL    HW113157   4.402   3.290   2.483  0.3686  2.8772 -0.6527
  646SOL    HW213158   4.259   3.275   2.405 -0.0642 -2.0684  0.9183
  647SOL     OW13159   4.038   2.275   0.139 -0.3064 -0.0576 -0.0335
  647SOL    HW113160   4.094   2.316   0.067  0.4249  1.5941  1.4473
  647SOL    HW213161   3.942   2.296   0.121  0.1376  3.8571  1.5568
  648SOL     OW13162   7.782   3.751   8.108  0.5247 -0.0663  0.0174
  648SOL    HW113163   7.735   3.663   8.102 -0.2369  0.2457  1.2590
  648SOL    HW213164   7.857   3.744   8.173  1.5276 -0.2614 -1.1529
  649SOL     OW13165   9.927   0.745   1.312  0.0345  0.5229  0.4445
  649SOL    HW113166   9.974   0.657   1.318  1.2629  1.1486  0.1213
  649SOL    HW213167   9.851   0.747   1.377  0.3913 -0.5338  0.8994
  650SOL     OW13168   9.847   3.586   1.581 -0.2466  0.6380 -0.1423
  650SOL    HW113169   9.754   3.555   1.567 -0.1849  0.2000  0.4137
  650SOL    HW213170   9.862   3.605   1.678  0.6133 -0.5053 -0.0422
  651SOL     OW13171   7.760   4.434   5.645  0.0241 -0.0559 -0.4954
  651SOL    HW113172   7.706   4.411   5.726 -0.2121 -1.0256 -0.9287
  651SOL    HW213173   7.734   4.375   5.569  0.4383  0.6696 -1.2097
  652SOL     OW13174   3.696   2.658   5.357 -0.3206  0.0628 -0.1917
  652SOL    HW113175   3.650   2.570   5.343  0.4620 -0.3215 -0.3883
  652SOL    HW213176   3.652   2.727   5.300 -0.1069 -0.4895 -1.0360
  653SOL     OW13177   8.493   4.952   1.236  0.0623  0.6039 -1.0410
  653SOL    HW113178   8.471   4.860   1.268  1.4284  0.2002 -1.2016
  653SOL    HW213179   8.479   4.957   1.137  1.2091  0.1651 -1.2412
  654SOL     OW13180   4.301   8.103   5.867  0.0722 -0.6305  0.5118
  654SOL    HW113181   4.247   8.029   5.904 -2.5533  0.7423 -0.4351
  654SOL    HW213182   4.265   8.130   5.777  1.4205  1.2724  0.4899
  655SOL     OW13183   1.531   9.188   0.672  0.4636  0.6833 -0.6500
  655SOL    HW113184   1.619   9.160   0.633 -0.0790 -1.1068 -0.6413
  655SOL    HW213185   1.458   9.131   0.633 -0.2800 -0.1314  1.8481
  656SOL     OW13186   8.983   3.659   1.155 -0.3049  0.0118 -0.1594
  656SOL    HW113187   8.971   3.589   1.225  0.2766  0.4204  0.3586
  656SOL    HW213188   9.047   3.728   1.188 -0.0659  0.2377 -1.0752
  657SOL     OW13189   2.501   5.829   1.257 -0.1351 -0.8126  0.4723
  657SOL    HW113190   2.421   5.869   1.300  0.4324 -0.1282  0.8929
  657SOL    HW213191   2.510   5.864   1.164  0.7926  0.6243  1.1011
  658SOL     OW13192   9.003   3.761   0.244 -0.0098 -0.1875  0.3536
  658SOL    HW113193   9.076   3.794   0.185  0.5215  0.1464  1.1858
  658SOL    HW213194   9.025   3.670   0.278  0.0588 -0.0533  0.6703
  659SOL     OW13195   4.006   8.204   5.217 -0.1936  0.1034  0.1745
  659SOL    HW113196   4.075   8.155   5.270 -0.4176  0.0670  0.4378
  659SOL    HW213197   3.975   8.147   5.141 -0.4660 -0.1760  0.4898
  660SOL     OW13198   8.436   2.004   6.397 -0.3783  0.1908 -0.1038
  660SOL    HW113199   8.340   2.001   6.427 -0.2513 -1.4298  0.1963
  660SOL    HW213200   8.483   2.079   6.443 -1.7738  1.7282 -1.1050
  661SOL     OW13201   7.790   8.584   6.467 -0.2405  0.3110 -0.1673
  661SOL    HW113202   7.781   8.676   6.505 -1.2990  0.2355 -0.2194
  661SOL    HW213203   7.732   8.576   6.386  0.9548  0.0459 -1.0154
  662SOL     OW13204   2.002   2.598   5.772  0.0817  0.7406  0.1596
  662SOL    HW113205   2.057   2.581   5.854 -1.8377  0.8624  1.5222
  662SOL    HW213206   2.051   2.661   5.712  1.6761  0.3775  1.0486
  663SOL     OW13207   7.480   3.283   1.644 -0.6113 -0.1845  0.2742
  663SOL    HW113208   7.518   3.234   1.565  1.1485  2.4503 -0.5652
  663SOL    HW213209   7.380   3.281   1.640 -0.5894 -3.1225 -0.0541
  664SOL     OW13210   7.467   2.767   2.015  0.1116 -0.7406 -0.0377
  664SOL    HW113211   7.511   2.816   2.091  0.0820 -1.6921  0.6038
  664SOL    HW213212   7.370   2.788   2.013  0.0840 -0.8321  0.2931
  665SOL     OW13213   5.763   2.064   0.252 -0.3974  0.5734 -0.1350
  665SOL    HW113214   5.754   2.085   0.154  0.4640  0.8578 -0.1518
  665SOL    HW213215   5.810   2.138   0.298  0.0313  0.0158  0.3314
  666SOL     OW13216   4.965   8.006   2.419 -0.5046  0.1695  0.4522
  666SOL    HW113217   4.947   7.918   2.462  0.2138 -0.0726  0.2605
  666SOL    HW213218   5.008   8.067   2.486  0.2332 -0.0704  0.2012
  667SOL     OW13219   5.919   0.949   4.109 -0.5636  0.2400 -0.2776
  667SOL    HW113220   5.914   1.003   4.025 -0.2119 -0.2577 -0.6149
  667SOL    HW213221   5.961   0.861   4.090 -1.1122 -0.1464  0.2860
  668SOL     OW13222   9.805   7.021   5.912  0.5322 -0.1253 -0.2393
  668SOL    HW113223   9.816   7.111   5.868  1.0141 -0.5301 -0.9581
  668SOL    HW213224   9.711   7.011   5.945  0.5106  0.6950 -0.0410
  669SOL     OW13225   8.414   0.975   3.011  0.4307 -0.3911 -0.2319
  669SOL    HW113226   8.487   0.958   2.944 -0.5099 -1.7214 -0.9616
  669SOL    HW213227   8.357   1.050   2.979  1.1554  0.3039  0.0802
  670SOL     OW13228   8.262   4.887   2.370 -0.8984  0.1780  0.0830
  670SOL    HW113229   8.231   4.899   2.276 -3.1312  0.4779  0.8460
  670SOL    HW213230   8.185   4.862   2.429  0.8570 -2.4055  1.4279
  671SOL     OW13231   4.586   8.141   4.884  0.3330  0.1372  0.0838
  671SOL    HW113232   4.550   8.052   4.855 -0.3306  0.5812 -0.4835
  671SOL    HW213233   4.675   8.128   4.928  0.0432 -0.8525  0.4062
  672SOL     OW13234   2.260   9.599   5.918 -0.5374  0.0493 -0.4173
  672SOL    HW113235   2.296   9.592   5.825  0.1706 -0.5522 -0.1055
  672SOL    HW213236   2.299   9.679   5.963 -0.0905 -0.2351 -0.2970
  673SOL     OW13237   6.124   0.183   6.926  0.1851  0.0947  0.1434
  673SOL    HW113238   6.087   0.260   6.978 -0.4106  0.1530 -0.3617
  673SOL    HW213239   6.142   0.212   6.832  0.2707 -0.2964  0.0388
  674SOL     OW13240   2.588   5.419   4.316 -0.7406 -0.0084 -0.0234
  674SOL    HW113241   2.684   5.399   4.339 -0.4465  0.4150 -0.8523
  674SOL    HW213242   2.532   5.411   4.398 -0.0537 -0.6325  0.4001
  675SOL     OW13243   2.373   7.156   5.209  0.1643  0.4509  0.4405
  675SOL    HW113244   2.454   7.098   5.213 -0.2007 -0.1105 -0.3436
  675SOL    HW213245   2.297   7.106   5.168 -0.2180  1.3968 -0.0240
  676SOL     OW13246   0.934   9.417   2.193  0.0269  0.0066 -0.4498
  676SOL    HW113247   0.925   9.442   2.097 -2.0125  2.5790  0.3494
  676SOL    HW213248   1.029   9.429   2.222  0.8853 -1.8077 -2.3645
  677SOL     OW13249   0.160   1.209   5.701  0.2610 -0.1054  0.3071
  677SOL    HW113250   0.254   1.236   5.719 -0.2175  2.1581 -0.5513
  677SOL    HW213251   0.159   1.135   5.633  1.3145  1.6313 -1.6596
  678SOL     OW13252   3.916   3.173   3.509 -0.0962  0.2470  0.7218
  678SOL    HW113253   3.872   3.084   3.496  0.2642 -0.0521  1.5529
  678SOL    HW213254   4.012   3.167   3.481 -0.1600  0.4795  0.4373
  679SOL     OW13255   3.100   0.417   1.497 -0.6126  0.2467  0.4059
  679SOL    HW113256   3.123   0.436   1.401 -0.2697 -0.5560  0.3256
  679SOL    HW213257   3.013   0.461   1.519 -0.2507  1.1888 -0.0149
  680SOL     OW13258   1.042   4.382   2.170  0.0015 -0.0853  0.2413
  680SOL    HW113259   1.131   4.426   2.183  0.0867 -0.0105 -0.5575
  680SOL    HW213260   0.978   4.447   2.128 -0.0519 -0.5297 -0.3771
  681SOL     OW13261   9.847   4.729   1.081  0.3279  0.3905 -0.0132
  681SOL    HW113262   9.886   4.718   1.173  1.0365 -2.8364 -0.6274
  681SOL    HW213263   9.914   4.771   1.021  1.2271 -0.8851  0.0736
  682SOL     OW13264   9.594   6.406   3.600 -0.7892 -0.5946 -0.4943
  682SOL    HW113265   9.668   6.462   3.638 -0.2714 -1.5610 -0.0655
  682SOL    HW213266   9.512   6.462   3.590 -0.5383  0.0318  0.7738
  683SOL     OW13267   9.926   7.409   3.693 -0.6880 -0.0440  0.3813
  683SOL    HW113268  10.017   7.439   3.720 -1.0765 -0.3067  2.0739
  683SOL    HW213269   9.886   7.476   3.630 -0.5926  1.7769  2.1942
  684SOL     OW13270   7.800   8.274   6.519 -0.2327 -0.0461 -0.0643
  684SOL    HW113271   7.800   8.365   6.561 -0.1700 -0.6265  1.2362
  684SOL    HW213272   7.709   8.254   6.484  0.2411  1.3092 -2.1599
  685SOL     OW13273   6.454   4.315   0.165 -0.0554 -0.1230 -0.1813
  685SOL    HW113274   6.532   4.252   0.161  0.3841  0.3290  1.2464
  685SOL    HW213275   6.483   4.406   0.138 -0.2141 -0.0738 -0.1838
  686SOL     OW13276   1.247   6.509   3.374  0.0486  0.2496 -0.2741
  686SOL    HW113277   1.171   6.444   3.364  0.6425 -0.4067 -0.5168
  686SOL    HW213278   1.247   6.547   3.467  0.5013 -1.0834  0.2694
  687SOL     OW13279   6.085   1.253   2.245  0.1095 -0.0374  0.8643
  687SOL    HW113280   6.093   1.337   2.299  2.8703 -0.3017  0.9356
  687SOL    HW213281   6.038   1.273   2.160 -1.4281  1.0631  1.9445
  688SOL     OW13282   0.845   2.321   4.694 -0.2540  0.0408  0.3060
  688SOL    HW113283   0.858   2.292   4.600 -0.3117  1.4252 -0.1360
  688SOL    HW213284   0.829   2.241   4.752  0.5931 -0.8856 -0.7172
  689SOL     OW13285   2.005   8.590   0.606 -0.0024 -0.3246  0.4098
  689SOL    HW113286   1.907   8.593   0.627  0.2146  0.2894  1.3738
  689SOL    HW213287   2.028   8.664   0.544  0.0195  0.0969  0.9203
  690SOL     OW13288   2.474   2.252   5.656  0.0163  0.1948  0.3402
  690SOL    HW113289   2.530   2.286   5.731 -0.7914 -0.4951  1.2540
  690SOL    HW213290   2.473   2.152   5.657 -1.0818  0.1986  0.2243
  691SOL     OW13291   7.091   3.251   2.435 -0.0853 -0.6082 -0.4154
  691SOL    HW113292   7.124   3.340   2.403 -1.0090 -0.7551 -1.8325
  691SOL    HW213293   7.074   3.254   2.533 -1.1247  1.1125 -0.6370
  692SOL     OW13294   2.157   2.936   2.072  0.3309 -0.2694  0.0592
  692SOL    HW113295   2.213   2.978   2.000 -0.3461 -1.2162 -1.0458
  692SOL    HW213296   2.082   2.885   2.030 -1.7536  1.5015  1.5475
  693SOL     OW13297   9.165   9.687   5.468 -0.0024  0.3208  0.1741
  693SOL    HW113298   9.092   9.621   5.486 -0.2021  1.0485  2.2030
  693SOL    HW213299   9.136   9.750   5.396 -0.4474 -0.7999 -0.6440
  694SOL     OW13300   0.871   9.381   1.341  0.2204  0.1625  0.1887
  694SOL    HW113301   0.775   9.405   1.326  0.6918  1.1185 -1.4444
  694SOL    HW213302   0.900   9.413   1.431 -0.8772  0.1842  0.5460
  695SOL     OW13303   2.859   2.384   2.499  0.5897  0.1890 -0.0516
  695SOL    HW113304   2.949   2.345   2.482  0.4438 -0.0443 -0.2878
  695SOL    HW213305   2.859   2.430   2.588  1.2761  1.1617 -0.5349
  696SOL     OW13306   7.558   3.320   0.060 -0.5030  0.1195  0.0705
  696SOL    HW113307   7.577   3.256   0.135 -0.7122  1.0172  0.8970
  696SOL    HW213308   7.506   3.273  -0.011  0.7213 -1.0704 -0.0730
  697SOL     OW13309   8.417   5.775   4.370 -0.3827  0.2299  0.1474
  697SOL    HW113310   8.347   5.797   4.439  1.6516  2.8803  1.4739
  697SOL    HW213311   8.395   5.822   4.285  0.5122  2.3531  1.0337
  698SOL     OW13312   0.768   6.239   5.786  0.0267  0.6021  0.5082
  698SOL    HW113313   0.759   6.238   5.687  0.0598 -0.4706  0.5141
  698SOL    HW213314   0.707   6.308   5.824 -1.8651 -0.7151 -0.0726
  699SOL     OW13315   8.260   7.713   0.873  0.3703 -0.5817 -0.5933
  699SOL    HW113316   8.348   7.677   0.841  0.2920 -0.4849 -0.9058
  699SOL    HW213317   8.275   7.764   0.958  1.0751  2.0217 -2.2321
  700SOL     OW13318   8.360   9.246   3.575 -0.2687 -0.7184 -0.5508
  700SOL    HW113319   8.337   9.296   3.491  1.2612  0.6875 -0.1813
  700SOL    HW213320   8.445   9.196   3.561 -0.2740 -0.8817  0.0090
  701SOL     OW13321   3.634   0.322   6.470 -0.1511  0.2197  0.2766
  701SOL    HW113322   3.696   0.256   6.427 -1.1907 -1.0033  0.5992
  701SOL    HW213323   3.560   0.344   6.406 -0.5845 -0.0323  0.6828
  702SOL     OW13324   0.449   4.571   3.830  0.4027  0.1679 -0.0189
  702SOL    HW113325   0.373   4.565   3.894  1.4015 -1.5516  1.0495
  702SOL    HW213326   0.433   4.509   3.753 -0.0591  1.0644 -0.6520
  703SOL     OW13327   0.789   9.040   0.469  0.7720  0.3717  0.4301
  703SOL    HW113328   0.718   8.971   0.455  0.4145  0.5644  1.3071
  703SOL    HW213329   0.756   9.129   0.436  0.8472  0.3305  0.2435
  704SOL     OW13330   7.239   4.503   2.541 -0.0682 -0.0096 -0.0829
  704SOL    HW113331   7.271   4.474   2.451  0.1336  0.7583 -0.2666
  704SOL    HW213332   7.280   4.591   2.564 -0.8826  0.2746  0.3237
  705SOL     OW13333   6.697   2.356   0.564 -0.0599 -0.1409  0.4801
  705SOL    HW113334   6.715   2.411   0.645 -0.1738 -2.5445  2.1778
  705SOL    HW213335   6.599   2.337   0.557 -0.2213  1.0954 -0.9364
  706SOL     OW13336   6.177   9.661   2.299 -0.1162 -0.0618 -0.0475
  706SOL    HW113337   6.219   9.617   2.220 -1.0268 -0.7145 -0.1684
  706SOL    HW213338   6.193   9.606   2.381  0.2436  0.2699  0.1062
  707SOL     OW13339   4.351   2.129   4.715 -0.0916 -0.0256  0.4487
  707SOL    HW113340   4.374   2.185   4.636 -0.1782 -0.7262 -0.0725
  707SOL    HW213341   4.288   2.179   4.775 -1.0221  0.0030 -0.5552
  708SOL     OW13342   8.585   4.441   4.157  0.0856 -0.2625 -0.3964
  708SOL    HW113343   8.654   4.472   4.093  1.3562 -0.5770  0.8033
  708SOL    HW213344   8.612   4.353   4.195 -0.4475  0.1120  0.8799
  709SOL     OW13345   8.772   6.333   3.838  0.2610 -0.8945  0.0138
  709SOL    HW113346   8.774   6.432   3.824 -1.6172 -0.8019  0.1871
  709SOL    HW213347   8.801   6.311   3.931 -0.1338 -0.4268  0.2491
  710SOL     OW13348   7.922   4.247   0.565  0.0430  0.6577  0.9621
  710SOL    HW113349   7.913   4.151   0.591  1.7806  0.1699 -0.2037
  710SOL    HW213350   7.866   4.265   0.484 -0.7869  0.8100  1.5512
  711SOL     OW13351   4.318   7.173   3.242  0.1084 -0.4162 -0.0194
  711SOL    HW113352   4.224   7.188   3.272  0.1863  0.2493 -0.0875
  711SOL    HW213353   4.329   7.079   3.211 -0.8992 -0.1194 -1.3225
  712SOL     OW13354   2.630   7.228   6.045 -0.7223 -0.2450  0.2789
  712SOL    HW113355   2.584   7.266   5.965  0.0867 -1.2833 -0.6810
  712SOL    HW213356   2.585   7.143   6.072  1.5266 -2.1030 -1.6113
  713SOL     OW13357   0.724   5.627   1.827 -0.7468  1.0653 -0.1593
  713SOL    HW113358   0.769   5.668   1.907 -1.3394  2.7024 -0.6529
  713SOL    HW213359   0.738   5.685   1.747 -0.3650 -0.4527 -1.2038
  714SOL     OW13360   5.636   0.347   2.165  0.1411 -0.0371  0.5231
  714SOL    HW113361   5.716   0.397   2.200  0.4702  0.2771 -0.6583
  714SOL    HW213362   5.612   0.382   2.075 -0.9532 -0.5639  0.6088
  715SOL     OW13363   8.013   6.361   4.081 -0.3817  0.1811  0.1773
  715SOL    HW113364   7.927   6.317   4.108  1.4061 -4.2221 -0.8560
  715SOL    HW213365   8.077   6.360   4.158 -0.4453  1.4065  0.2632
  716SOL     OW13366   6.697   4.758   1.704 -0.0901  0.3703 -0.0857
  716SOL    HW113367   6.780   4.771   1.650 -0.3525  0.0927 -0.5668
  716SOL    HW213368   6.647   4.679   1.668 -0.0857 -0.0317  0.7985
  717SOL     OW13369   0.036   1.721   0.864 -0.6930 -0.0152 -0.1230
  717SOL    HW113370   0.071   1.810   0.835 -0.3145 -0.0728  0.1569
  717SOL    HW213371   0.050   1.654   0.791 -0.1051 -0.0672  0.0355
  718SOL     OW13372   0.860   2.361   3.924 -0.0776 -0.0071 -0.3379
  718SOL    HW113373   0.945   2.400   3.958 -0.8912 -0.2099  2.0631
  718SOL    HW213374   0.790   2.433   3.920 -0.5114 -0.3841  0.3083
  719SOL     OW13375   6.175   7.718   5.057  0.2569  0.4565 -0.3268
  719SOL    HW113376   6.250   7.730   5.121  0.1304  1.7164 -0.4114
  719SOL    HW213377   6.116   7.799   5.058  0.5305  0.7177 -2.3852
  720SOL     OW13378   8.851   3.257   0.973 -0.2968  0.2274  0.6917
  720SOL    HW113379   8.789   3.264   1.051 -0.6859  0.6546  0.3460
  720SOL    HW213380   8.911   3.337   0.970  0.1278 -0.0811  0.9020
  721SOL     OW13381   4.405   5.078   2.758  0.3540 -0.4810 -0.2491
  721SOL    HW113382   4.423   5.023   2.839 -2.8091  0.4175  1.1398
  721SOL    HW213383   4.415   5.175   2.781 -1.2414 -0.1884 -0.7294
  722SOL     OW13384   8.203   9.979   1.423 -0.4002  0.1454 -0.5759
  722SOL    HW113385   8.190  10.027   1.336  0.3157  1.7543  0.1813
  722SOL    HW213386   8.147  10.022   1.494  0.0823 -0.2795  0.0698
  723SOL     OW13387   9.878   0.789   3.511  0.6096 -0.0565  0.4770
  723SOL    HW113388   9.911   0.882   3.531  0.1664  0.1309  0.3394
  723SOL    HW213389   9.887   0.771   3.414  0.7163 -0.1671  0.5074
  724SOL     OW13390   0.379   0.547   5.297  0.2193 -0.3795  0.0581
  724SOL    HW113391   0.289   0.555   5.340 -1.6904 -2.5871 -3.2540
  724SOL    HW213392   0.416   0.638   5.281 -1.7473  0.5986  0.8887
  725SOL     OW13393   3.087   8.908   3.662  0.6750  0.1454  1.0437
  725SOL    HW113394   3.016   8.901   3.591  0.5625  0.2729  1.1420
  725SOL    HW213395   3.069   8.840   3.733  1.8148 -1.2018  0.0594
  726SOL     OW13396   2.820   8.987   4.274  0.0150 -0.1031  0.0065
  726SOL    HW113397   2.826   9.055   4.201 -1.1700  0.1899  0.1651
  726SOL    HW213398   2.901   8.929   4.273 -1.5254 -2.3990 -3.7969
  727SOL     OW13399   0.855   0.698   5.185  0.4622 -0.2998 -0.4630
  727SOL    HW113400   0.763   0.697   5.146 -0.6190  2.3695  1.7960
  727SOL    HW213401   0.901   0.783   5.162  1.2415 -0.3392  0.8386
  728SOL     OW13402   0.514   7.268   2.619  0.1601  0.3127 -0.3736
  728SOL    HW113403   0.429   7.319   2.622  0.0438  0.0996 -0.0683
  728SOL    HW213404   0.572   7.294   2.696  0.2985  0.3273 -0.4808
  729SOL     OW13405   9.307   3.668   3.553  0.0314  0.3841  0.0209
  729SOL    HW113406   9.246   3.596   3.585 -0.7213  1.3337  0.7572
  729SOL    HW213407   9.378   3.628   3.495 -0.1080 -1.0011  0.7819
  730SOL     OW13408   2.131   7.392   1.909 -0.5274  0.0138  0.2164
  730SOL    HW113409   2.048   7.382   1.853 -0.3493 -1.0476  0.1357
  730SOL    HW213410   2.132   7.323   1.980  0.0581  0.3355  0.5248
  731SOL     OW13411   2.153   8.682   4.270 -0.5179 -0.6225 -0.1504
  731SOL    HW113412   2.107   8.735   4.342 -0.0946 -0.5013  0.0348
  731SOL    HW213413   2.237   8.729   4.243 -0.6232 -0.7251 -0.6504
  732SOL     OW13414   0.489   1.603   2.775 -0.0061 -0.3156 -0.5756
  732SOL    HW113415   0.535   1.552   2.702 -0.5989 -0.1108 -1.0950
  732SOL    HW213416   0.446   1.539   2.839  1.3779 -0.5240  0.1751
  733SOL     OW13417   7.689   9.572   6.815  0.6513 -0.0248 -0.1909
  733SOL    HW113418   7.710   9.641   6.884  0.9249  0.0528 -0.3543
  733SOL    HW213419   7.595   9.586   6.782 -0.1987 -1.2884  1.6138
  734SOL     OW13420   3.791   3.726   3.022 -0.6087 -0.1998  0.2210
  734SOL    HW113421   3.826   3.640   3.059 -0.7807 -1.1458 -1.7199
  734SOL    HW213422   3.862   3.796   3.026  0.3611 -1.1308 -0.4556
  735SOL     OW13423   9.751   7.768   2.454 -0.1100  0.8016  0.4143
  735SOL    HW113424   9.738   7.805   2.546 -0.1108 -1.2514  1.2652
  735SOL    HW213425   9.664   7.736   2.418 -0.5163  3.5199 -1.2066
  736SOL     OW13426   6.387   1.840   2.847  0.2046  0.3974 -0.2461
  736SOL    HW113427   6.449   1.784   2.901 -2.5315 -0.9029  1.6865
  736SOL    HW213428   6.339   1.782   2.781 -0.6544  0.9377 -0.1041
  737SOL     OW13429   1.211   5.726   4.732 -0.1191 -0.4745 -0.0286
  737SOL    HW113430   1.300   5.752   4.770 -0.9501  0.4727  1.3266
  737SOL    HW213431   1.138   5.759   4.792 -1.4202 -0.6024 -1.4969
  738SOL     OW13432   8.654   1.209   2.796 -0.2623 -0.3335 -0.1040
  738SOL    HW113433   8.726   1.252   2.741  0.4377 -0.2961  0.8173
  738SOL    HW213434   8.618   1.275   2.861 -0.8924 -0.4549 -0.3249
  739SOL     OW13435   0.609   3.464   0.460  0.2616 -0.3027 -0.0251
  739SOL    HW113436   0.550   3.385   0.443  2.0908 -1.4570 -1.1738
  739SOL    HW213437   0.637   3.464   0.556 -0.2701 -0.6978  0.1327
  740SOL     OW13438   2.245   1.419   1.815  0.5626  0.0304 -0.3756
  740SOL    HW113439   2.297   1.416   1.900  0.7364  0.3786 -0.4657
  740SOL    HW213440   2.198   1.507   1.808  0.3087 -0.1135 -0.5001
  741SOL     OW13441   5.314   0.297   2.484 -0.2039  0.2590 -0.0431
  741SOL    HW113442   5.389   0.285   2.419  2.1442  0.1024  2.5972
  741SOL    HW213443   5.297   0.211   2.532 -0.5099  0.8854  0.9832
  742SOL     OW13444   6.493   7.082   4.713  0.3524 -0.0346  0.1482
  742SOL    HW113445   6.572   7.025   4.733  0.9733  0.4197 -0.9628
  742SOL    HW213446   6.475   7.143   4.789 -1.7176 -3.2319  2.3708
  743SOL     OW13447   1.828   8.210   4.523 -0.2848  0.0538 -0.3236
  743SOL    HW113448   1.789   8.257   4.603 -0.6736 -0.7811 -0.0113
  743SOL    HW213449   1.790   8.249   4.439  0.4312  1.2054 -0.1127
  744SOL     OW13450   2.626   7.085   3.339  0.5262 -0.6092  0.6343
  744SOL    HW113451   2.674   7.058   3.423  0.4714  0.3021  0.9639
  744SOL    HW213452   2.655   7.025   3.264  1.5711 -0.5859  1.0077
  745SOL     OW13453   6.150   3.373   0.626 -0.5158  0.0021 -0.1062
  745SOL    HW113454   6.153   3.273   0.638  1.0360  0.0999  0.5016
  745SOL    HW213455   6.178   3.417   0.711 -1.2827  0.9686 -0.3496
  746SOL     OW13456   2.484   5.104   1.521 -0.4371 -0.5012 -0.0221
  746SOL    HW113457   2.498   5.192   1.568  1.0024 -0.9213  0.3378
  746SOL    HW213458   2.489   5.118   1.423 -1.3098  0.0004 -0.0081
  747SOL     OW13459   6.237   0.018   4.956 -0.6426 -0.7084  0.5044
  747SOL    HW113460   6.252  -0.015   4.863 -1.8006  0.0523  0.0423
  747SOL    HW213461   6.312  -0.014   5.015  0.2008 -1.0316 -0.7201
  748SOL     OW13462   5.613   0.606   6.956 -0.3878 -0.7526 -0.1216
  748SOL    HW113463   5.523   0.571   6.931 -0.4251 -0.5741 -0.2312
  748SOL    HW213464   5.607   0.703   6.978 -0.1716 -0.6769 -0.3936
  749SOL     OW13465   3.087   8.576   0.760  0.3564 -0.1297 -0.7572
  749SOL    HW113466   3.186   8.588   0.752  1.0658 -3.1013  2.0788
  749SOL    HW213467   3.055   8.617   0.845 -0.2443 -2.0654 -0.0186
  750SOL     OW13468   8.382   7.791   2.438 -0.1004  0.0740 -0.4863
  750SOL    HW113469   8.340   7.768   2.525 -2.1780 -0.5185 -1.6277
  750SOL    HW213470   8.358   7.885   2.413  1.5926  0.7193  0.1855
  751SOL     OW13471   5.869   1.140   5.645  0.0813  0.1147  0.2683
  751SOL    HW113472   5.965   1.157   5.667  0.3638 -2.6513  1.3361
  751SOL    HW213473   5.861   1.101   5.554 -0.0414  0.4399  0.1393
  752SOL     OW13474   8.726   3.002   2.888  0.1867  0.2412  0.6455
  752SOL    HW113475   8.752   2.916   2.933 -0.5880 -0.2610  0.1550
  752SOL    HW213476   8.807   3.058   2.874  0.9001 -0.9701 -0.1608
  753SOL     OW13477   0.677   5.643   5.362 -0.9538  0.3146 -0.5371
  753SOL    HW113478   0.690   5.647   5.461 -1.4791  2.7843 -0.5570
  753SOL    HW213479   0.579   5.645   5.341 -0.8749 -0.9435 -1.1012
  754SOL     OW13480   4.690   8.038   3.776 -0.7826 -0.6300  0.7529
  754SOL    HW113481   4.631   8.118   3.782  1.4558  0.9387  2.5210
  754SOL    HW213482   4.738   8.039   3.688 -1.3195 -0.4569  0.4568
  755SOL     OW13483   5.317   0.764   3.218 -0.3322 -0.0588 -0.6978
  755SOL    HW113484   5.269   0.749   3.305  2.5350 -3.1742  0.4782
  755SOL    HW213485   5.289   0.694   3.152  0.4394 -0.1265 -0.9554
  756SOL     OW13486   2.469   8.508   1.868 -0.0522  0.2268 -0.1046
  756SOL    HW113487   2.459   8.529   1.771 -0.2887  1.5932  0.2122
  756SOL    HW213488   2.476   8.593   1.921 -1.5544 -0.4474  1.2351
  757SOL     OW13489   7.136   8.678   5.427  0.2649 -0.0230  0.0764
  757SOL    HW113490   7.080   8.614   5.479  0.0835 -1.2506 -1.5798
  757SOL    HW213491   7.209   8.715   5.485  0.5282 -1.9351  0.9874
  758SOL     OW13492   2.490   1.764   1.363  0.4369  1.1101  0.2263
  758SOL    HW113493   2.478   1.838   1.429 -1.5759 -0.0690  1.2364
  758SOL    HW213494   2.418   1.696   1.376  0.2678  0.6160 -2.9030
  759SOL     OW13495   0.783   1.686   1.047  0.5213 -0.2361  0.2860
  759SOL    HW113496   0.725   1.694   1.128  0.3020  1.5109 -0.0252
  759SOL    HW213497   0.870   1.732   1.062  1.6044 -2.2738  0.5017
  760SOL     OW13498   1.406   9.274   2.085  0.0466 -0.2878 -0.3801
  760SOL    HW113499   1.343   9.284   2.008  0.1582 -1.0630 -0.5743
  760SOL    HW213500   1.436   9.365   2.114  0.8206 -0.0201 -1.9321
  761SOL     OW13501   6.691   2.305   5.651  0.1517  0.2065 -0.1490
  761SOL    HW113502   6.638   2.322   5.568  0.2318 -1.1875 -0.5028
  761SOL    HW213503   6.688   2.385   5.710 -3.7228 -0.3593  0.5827
  762SOL     OW13504   0.874   3.648   0.842 -0.1373 -0.4404  0.0572
  762SOL    HW113505   0.953   3.650   0.781 -0.2132  1.8076 -0.0312
  762SOL    HW213506   0.904   3.626   0.935  0.7088  1.0297  0.1497
  763SOL     OW13507   6.778   1.656   3.967 -0.7976 -0.1427 -0.4194
  763SOL    HW113508   6.699   1.604   3.933 -0.3216  0.1338 -1.9789
  763SOL    HW213509   6.852   1.593   3.990 -0.9181 -0.2916 -0.4391
  764SOL     OW13510   3.298   9.486   0.755 -0.3831  0.4486  0.6608
  764SOL    HW113511   3.366   9.413   0.761  0.9195  1.4862 -1.3263
  764SOL    HW213512   3.218   9.453   0.704  0.1807  0.3933 -0.1922
  765SOL     OW13513   5.701   2.581   3.746  0.5923  0.1841 -0.1152
  765SOL    HW113514   5.772   2.647   3.720  0.5614  0.0440 -0.5561
  765SOL    HW213515   5.732   2.528   3.825  0.0553  1.6644  1.1102
  766SOL     OW13516   2.598   7.265   0.393  0.2199  0.2042 -0.1828
  766SOL    HW113517   2.660   7.251   0.470  0.5662 -0.6970 -0.6292
  766SOL    HW213518   2.541   7.346   0.411  1.5283  1.0570  0.2106
  767SOL     OW13519   8.122   5.965   1.873  0.1798 -0.2672 -0.3294
  767SOL    HW113520   8.216   5.933   1.889 -0.1812 -0.8316  0.6510
  767SOL    HW213521   8.109   6.053   1.919  1.1049  1.2605 -2.8442
  768SOL     OW13522   6.081   1.738   2.342 -0.5565  0.4403  0.2889
  768SOL    HW113523   6.009   1.787   2.294  1.0391  2.5277 -0.0135
  768SOL    HW213524   6.131   1.800   2.402  1.4416 -0.8052 -0.0216
  769SOL     OW13525   3.566   4.559   0.752 -0.0272  0.4016  0.0414
  769SOL    HW113526   3.481   4.530   0.707  0.2767 -0.2747 -0.1137
  769SOL    HW213527   3.639   4.494   0.729  0.1387  0.0612  1.4994
  770SOL     OW13528   1.744   3.235   0.979 -0.1567 -0.3609 -0.2587
  770SOL    HW113529   1.841   3.251   0.963  0.0907 -2.0280 -0.5458
  770SOL    HW213530   1.731   3.198   1.071 -0.2760 -2.0697 -0.9396
  771SOL     OW13531   9.055   8.267   0.378 -0.0726  0.1873 -0.0487
  771SOL    HW113532   9.010   8.180   0.398  0.0257  0.3545  0.9313
  771SOL    HW213533   9.151   8.249   0.354 -0.4710 -0.1081 -1.4676
  772SOL     OW13534   0.220   2.127   1.170 -0.0963 -0.1311 -0.2398
  772SOL    HW113535   0.156   2.126   1.093  1.2016  1.9673 -1.3996
  772SOL    HW213536   0.283   2.050   1.162 -1.9230 -1.7461  0.4735
  773SOL     OW13537   3.723   6.167   0.898 -0.0514 -0.8391 -0.4790
  773SOL    HW113538   3.625   6.186   0.890 -0.0559 -0.6260  0.0200
  773SOL    HW213539   3.775   6.243   0.860 -0.0858 -1.4556 -1.7531
  774SOL     OW13540   4.557   2.464   0.056 -0.3717  0.0301 -0.0204
  774SOL    HW113541   4.566   2.564   0.060 -1.2934  0.1462 -0.6298
  774SOL    HW213542   4.631   2.422   0.107  0.1218  1.0303  0.1044
  775SOL     OW13543   0.496   7.405   2.363  0.1382  0.6526  0.6016
  775SOL    HW113544   0.404   7.390   2.326 -0.0322  1.9450  0.4666
  775SOL    HW213545   0.512   7.341   2.438  0.8204 -2.6237 -2.2161
  776SOL     OW13546   5.583   1.055   3.798  0.1358 -0.4023  1.3931
  776SOL    HW113547   5.616   0.977   3.745  0.1859 -0.1293  1.0238
  776SOL    HW213548   5.550   1.023   3.887 -0.8272 -0.9902  0.8390
  777SOL     OW13549   8.515   8.254   2.811  0.0463 -0.1577  0.2753
  777SOL    HW113550   8.459   8.245   2.729  0.0195 -1.6244  0.4452
  777SOL    HW213551   8.456   8.267   2.891 -0.0350 -0.9897  0.3574
  778SOL     OW13552   1.578   5.148   0.742 -0.3188  0.2294  0.0794
  778SOL    HW113553   1.551   5.178   0.650 -0.2381  1.9449  0.6019
  778SOL    HW213554   1.674   5.168   0.756  0.2546 -2.1159 -0.2648
  779SOL     OW13555   3.675   8.547   3.951 -0.2401  0.3130 -0.3719
  779SOL    HW113556   3.617   8.471   3.920  0.8541 -0.5788 -0.2723
  779SOL    HW213557   3.672   8.553   4.050  0.1552  0.0077 -0.3409
  780SOL     OW13558   2.449   6.379   2.990  0.0449  0.4462 -0.1375
  780SOL    HW113559   2.414   6.287   3.007  1.1613  0.0221 -0.1003
  780SOL    HW213560   2.390   6.446   3.035  1.0351 -0.4565  2.5896
  781SOL     OW13561   5.213   1.139   4.144  0.1795 -0.0161 -0.2091
  781SOL    HW113562   5.288   1.205   4.134 -0.1079  0.4841  0.8943
  781SOL    HW213563   5.235   1.075   4.217 -0.7230  0.4991  0.5284
  782SOL     OW13564   6.678   0.254   3.351 -0.3958 -0.7335 -0.7956
  782SOL    HW113565   6.614   0.331   3.350 -0.1272 -0.4913  0.5242
  782SOL    HW213566   6.759   0.277   3.298  0.5330  0.6306  1.1834
  783SOL     OW13567   0.587   9.572   2.042 -0.4564 -0.1561  0.3440
  783SOL    HW113568   0.508   9.607   1.992  0.0621 -0.1464 -0.4788
  783SOL    HW213569   0.644   9.518   1.981 -1.1628 -2.3303  1.5667
  784SOL     OW13570   1.761   5.280   3.298 -0.3214 -0.4415 -0.1444
  784SOL    HW113571   1.857   5.263   3.319 -0.1366 -0.2458 -0.8347
  784SOL    HW213572   1.751   5.370   3.255 -0.7025 -0.8444 -0.9037
  785SOL     OW13573   9.642   5.820   0.212  0.1798  0.0054 -0.2207
  785SOL    HW113574   9.586   5.884   0.159  0.2516  0.9480  0.8233
  785SOL    HW213575   9.737   5.850   0.211  0.2791 -0.2955 -0.0334
  786SOL     OW13576   2.459   1.041   1.248  0.8047 -0.1559 -0.0023
  786SOL    HW113577   2.440   0.959   1.195  0.9665 -0.9089  1.0872
  786SOL    HW213578   2.377   1.066   1.299  0.1435  1.4844 -1.8043
  787SOL     OW13579   3.858   3.761   4.531  0.4936 -0.2350 -0.2911
  787SOL    HW113580   3.819   3.828   4.594  1.5530 -0.0451  0.1717
  787SOL    HW213581   3.851   3.669   4.571 -0.6484 -0.3767 -0.7790
  788SOL     OW13582   4.361   4.456   1.115 -0.2500 -0.6251 -0.0288
  788SOL    HW113583   4.264   4.470   1.135  0.0938 -0.0265  1.2688
  788SOL    HW213584   4.372   4.424   1.021 -1.5614  1.6316 -0.9977
  789SOL     OW13585   6.236   3.462   0.873  0.8843 -0.2697 -0.4167
  789SOL    HW113586   6.176   3.524   0.922  3.2116  2.2749 -0.6722
  789SOL    HW213587   6.285   3.404   0.938  1.4978  0.8117  0.1000
  790SOL     OW13588   8.880   8.482   5.177 -0.0194 -0.1149 -0.2269
  790SOL    HW113589   8.855   8.479   5.273  0.8360 -0.0070  0.0034
  790SOL    HW213590   8.807   8.526   5.124 -0.5157 -0.2367  0.3599
  791SOL     OW13591   0.274   3.844   0.328 -0.0637 -0.7516  0.1361
  791SOL    HW113592   0.262   3.779   0.253 -0.6760 -0.5564  0.0645
  791SOL    HW213593   0.299   3.795   0.411  1.6568 -0.8862 -0.4317
  792SOL     OW13594   5.424   0.944   2.605 -0.1208 -0.7457 -0.2717
  792SOL    HW113595   5.349   0.961   2.669 -0.6858 -1.0633 -0.8340
  792SOL    HW213596   5.400   0.982   2.515 -0.9714 -3.5008 -1.2825
  793SOL     OW13597   7.874   2.345   8.006 -0.0047  0.4022 -0.6291
  793SOL    HW113598   7.872   2.423   7.944 -0.5852 -0.0810 -1.2282
  793SOL    HW213599   7.787   2.295   7.999  1.1342 -1.4385 -1.7249
  794SOL     OW13600   0.747   5.272   3.985  0.6188  0.2195  0.1043
  794SOL    HW113601   0.735   5.261   3.887  1.9619  1.1284 -0.1886
  794SOL    HW213602   0.708   5.360   4.014  1.0534  0.3839  0.2042
  795SOL     OW13603   0.400   5.738   0.460 -0.4298  0.3870  0.0610
  795SOL    HW113604   0.398   5.646   0.421 -2.6218 -0.3090  1.7401
  795SOL    HW213605   0.493   5.760   0.488  0.1246 -1.2748 -0.4252
  796SOL     OW13606   5.764   5.110   1.596 -0.1513 -0.4266 -0.0282
  796SOL    HW113607   5.744   5.198   1.639  1.2108 -0.9705  1.7725
  796SOL    HW213608   5.679   5.058   1.586 -1.0424  1.2210 -1.5026
  797SOL     OW13609   5.893   9.368   6.240  0.8386  0.6071 -0.1341
  797SOL    HW113610   5.874   9.270   6.232  0.0779  0.6817  0.6654
  797SOL    HW213611   5.807   9.418   6.247  1.2336  1.3102 -0.2439
  798SOL     OW13612   3.064   5.139   5.041 -0.3223  0.1014  0.6415
  798SOL    HW113613   3.029   5.071   5.105 -2.1657  0.8872  0.4974
  798SOL    HW213614   3.055   5.105   4.948 -0.1777  0.0794  0.6350
  799SOL     OW13615   4.025   4.614   3.080  0.7408 -0.1966 -0.1453
  799SOL    HW113616   3.947   4.664   3.042  1.2178 -1.0501 -2.3178
  799SOL    HW213617   4.107   4.672   3.076  0.9005 -0.4632 -0.9580
  800SOL     OW13618   9.828   7.096   2.141  0.4236  0.2944 -0.1387
  800SOL    HW113619   9.760   7.024   2.129  0.7131 -0.1605  0.8259
  800SOL    HW213620   9.902   7.084   2.075  1.4386 -1.4651  1.2651
  801SOL     OW13621   0.646   6.080   3.359  0.2775 -0.2263  0.5135
  801SOL    HW113622   0.691   6.136   3.428  0.5677  0.3930 -0.1709
  801SOL    HW213623   0.708   6.067   3.281 -0.1712 -0.6314  0.2166
  802SOL     OW13624   5.882   2.113   6.099 -0.2677 -0.2257  0.3177
  802SOL    HW113625   5.901   2.029   6.049  1.0715  0.4383 -0.3010
  802SOL    HW213626   5.880   2.190   6.036 -0.6394  0.3306  0.9996
  803SOL     OW13627   7.547   6.092   3.587 -0.5629  0.5778 -0.3990
  803SOL    HW113628   7.601   6.067   3.506  2.2413  0.1939  1.4903
  803SOL    HW213629   7.536   6.012   3.645 -3.0106  0.7288 -0.6147
  804SOL     OW13630   3.265   7.353   2.404  0.9799 -0.3598  0.5387
  804SOL    HW113631   3.171   7.347   2.369  0.4778  0.4666  1.7093
  804SOL    HW213632   3.289   7.448   2.421  1.9061 -0.5976  0.6035
  805SOL     OW13633   1.123   7.668   5.561  0.1354 -0.2862 -0.6807
  805SOL    HW113634   1.172   7.694   5.644 -0.3462 -2.3076  0.2868
  805SOL    HW213635   1.087   7.749   5.516 -0.7822  0.7819  1.8620
  806SOL     OW13636   1.097   3.258   4.700  0.1201  0.1749 -0.7811
  806SOL    HW113637   1.065   3.174   4.656 -1.8119  0.9922 -0.9569
  806SOL    HW213638   1.055   3.267   4.790  1.4149  0.2520 -0.1719
  807SOL     OW13639   1.288   9.684   4.722  0.4710 -0.1284 -0.7147
  807SOL    HW113640   1.261   9.720   4.811 -0.7991  0.3614 -1.2819
  807SOL    HW213641   1.357   9.614   4.734  2.2618  1.7769  0.5002
  808SOL     OW13642   9.966   1.603   4.626  0.0108  0.3067  0.1138
  808SOL    HW113643   9.897   1.559   4.568  1.4410 -1.2932 -0.4074
  808SOL    HW213644   9.937   1.696   4.647 -2.4727 -0.4480  0.1878
  809SOL     OW13645   1.560   4.159   1.679 -0.3362  0.1897  0.1275
  809SOL    HW113646   1.623   4.177   1.754 -0.5714 -0.8550  0.5791
  809SOL    HW213647   1.611   4.156   1.593  0.1769 -0.3423  0.4532
  810SOL     OW13648   5.237   1.436   6.389 -0.6723  0.5246  0.0889
  810SOL    HW113649   5.310   1.427   6.457 -0.7368  0.4481  0.1462
  810SOL    HW213650   5.229   1.532   6.363 -0.3952  0.5007 -0.0868
  811SOL     OW13651   5.647   9.714   5.122  0.0135  0.6062 -0.0029
  811SOL    HW113652   5.626   9.621   5.151 -0.2452  0.4461 -0.6791
  811SOL    HW213653   5.633   9.722   5.023  2.6170  0.6146 -0.4217
  812SOL     OW13654   9.042   1.056   0.705  0.5868  0.1793 -0.1948
  812SOL    HW113655   9.046   0.958   0.722  0.8209 -0.0264 -1.4251
  812SOL    HW213656   9.074   1.076   0.613  0.6087  1.4218  0.0687
  813SOL     OW13657   8.501   0.249   3.020 -0.6731  0.4621  0.2156
  813SOL    HW113658   8.555   0.165   3.011 -0.6714  0.5150 -0.2543
  813SOL    HW213659   8.405   0.224   3.033 -0.6834  0.3875  0.0069
  814SOL     OW13660   4.050   7.360   5.450  0.3643  0.1954  0.2882
  814SOL    HW113661   3.973   7.371   5.513  0.8381  0.4338  0.8261
  814SOL    HW213662   4.087   7.449   5.425 -0.1343  0.1298 -0.7279
  815SOL     OW13663   1.941   1.100   3.047  0.6123 -0.1191  0.4588
  815SOL    HW113664   1.965   1.171   2.980 -0.8060  1.1625  1.2974
  815SOL    HW213665   2.025   1.063   3.087  1.3919  0.5371 -0.5283
  816SOL     OW13666   0.966   2.311   0.936  0.5771  0.4026  0.4606
  816SOL    HW113667   0.947   2.251   0.858  1.0177  0.7433  0.0888
  816SOL    HW213668   0.939   2.265   1.021 -0.6044  0.3372  0.0473
  817SOL     OW13669   4.184   7.911   5.176  0.0200  0.0268 -0.5826
  817SOL    HW113670   4.220   7.819   5.169 -0.7739 -0.4271  0.9991
  817SOL    HW213671   4.250   7.976   5.139  1.3759 -0.9987 -0.0035
  818SOL     OW13672   2.788   6.546   0.400 -0.1311  0.1290  0.9663
  818SOL    HW113673   2.794   6.463   0.456 -1.7645  0.6993  2.0111
  818SOL    HW213674   2.696   6.584   0.406  0.1625  1.1523 -0.7714
  819SOL     OW13675   4.492   1.255   2.618 -0.2188 -0.6756 -0.4291
  819SOL    HW113676   4.410   1.222   2.664  1.5363 -3.0402  1.1448
  819SOL    HW213677   4.557   1.289   2.686  0.6133 -0.0161 -1.5384
  820SOL     OW13678   3.770   9.624   3.166 -0.0972 -0.5659 -0.9889
  820SOL    HW113679   3.671   9.626   3.153  0.0189  0.8955 -1.7638
  820SOL    HW213680   3.800   9.708   3.212  0.4173 -2.3786  2.1514
  821SOL     OW13681   4.953   2.557   2.106  0.2913 -0.1725 -0.1587
  821SOL    HW113682   4.970   2.471   2.153  0.0914 -1.1476 -1.8231
  821SOL    HW213683   4.985   2.550   2.011  0.0485  1.4972 -0.3822
  822SOL     OW13684   9.662   1.615   3.569 -0.5928 -0.4804 -0.2581
  822SOL    HW113685   9.643   1.710   3.543 -0.3658 -0.7870 -1.5929
  822SOL    HW213686   9.706   1.614   3.659 -1.3441  0.6195  0.1371
  823SOL     OW13687   2.986   6.693   3.520  0.1298 -0.0073 -0.2751
  823SOL    HW113688   3.076   6.712   3.559 -0.3910 -0.4737  1.2137
  823SOL    HW213689   2.946   6.777   3.485  0.4486  0.5002  0.5653
  824SOL     OW13690   5.275   7.037   1.934  0.3246  0.1072 -0.0836
  824SOL    HW113691   5.304   7.118   1.985  1.2871 -1.1765  1.4719
  824SOL    HW213692   5.279   7.056   1.836  2.7937  1.2018  0.1931
  825SOL     OW13693   0.000   5.919   0.656 -0.0021 -0.2270 -0.1096
  825SOL    HW113694  -0.075   5.878   0.604  0.4279 -0.1188 -0.8215
  825SOL    HW213695   0.083   5.864   0.644 -0.1667 -0.8126  1.3445
  826SOL     OW13696   7.957   3.793   3.585  0.5555 -0.0444  0.4540
  826SOL    HW113697   7.859   3.780   3.576  0.3163  0.3503  2.2782
  826SOL    HW213698   8.004   3.750   3.507 -0.9456 -1.5768  0.3650
  827SOL     OW13699   0.564   7.639   6.507 -0.2051 -0.0790  0.0165
  827SOL    HW113700   0.598   7.681   6.422  0.8363  0.5201  0.7163
  827SOL    HW213701   0.505   7.703   6.555 -1.2731 -0.6395 -0.5493
  828SOL     OW13702   0.046   0.371   0.655  0.5320  0.1515 -0.1046
  828SOL    HW113703   0.089   0.439   0.597  1.6171 -0.9641 -0.6249
  828SOL    HW213704   0.097   0.363   0.741  1.1541 -0.8806 -0.5557
  829SOL     OW13705   1.493   6.225   4.214 -0.1222 -0.4296  0.0106
  829SOL    HW113706   1.422   6.289   4.185 -1.7096 -0.8250  2.8177
  829SOL    HW213707   1.481   6.138   4.166 -1.8738 -0.6561  0.8426
  830SOL     OW13708   5.823   8.735   4.102  0.3619  0.4088  0.4500
  830SOL    HW113709   5.910   8.778   4.128  0.7757  0.6499 -1.2829
  830SOL    HW213710   5.831   8.636   4.110 -0.1333  0.5483  3.0583
  831SOL     OW13711   3.525   1.552   5.686 -0.4070  0.1361  0.0655
  831SOL    HW113712   3.476   1.472   5.652 -1.2757 -0.0848  1.7777
  831SOL    HW213713   3.459   1.619   5.721  0.4490  0.3492  1.3068
  832SOL     OW13714   6.750   8.254   4.636 -0.1958 -0.0493  0.1724
  832SOL    HW113715   6.741   8.335   4.694  1.4484 -0.8921  1.6502
  832SOL    HW213716   6.804   8.277   4.555 -1.0400  0.7007 -0.1878
  833SOL     OW13717   7.724   4.653   1.486 -0.0776 -0.3559  0.1377
  833SOL    HW113718   7.738   4.593   1.408  0.0564 -0.5976  0.3453
  833SOL    HW213719   7.626   4.669   1.500 -0.1321 -0.8807  0.3480
  834SOL     OW13720   5.135   0.066   5.979 -0.4676  0.4097  0.3553
  834SOL    HW113721   5.071   0.055   5.902  0.7490 -0.1579 -0.5853
  834SOL    HW213722   5.212   0.003   5.968  0.6878  1.6823  1.0271
  835SOL     OW13723   5.196   8.190   4.167  0.0722  0.4472  0.2466
  835SOL    HW113724   5.290   8.158   4.166 -0.4217 -0.9916 -0.6488
  835SOL    HW213725   5.141   8.130   4.225 -0.8133 -0.2542 -1.2894
  836SOL     OW13726   7.902   7.101   6.421 -0.2058  0.1059  0.4738
  836SOL    HW113727   7.864   7.021   6.374 -0.6643  1.1502 -0.9584
  836SOL    HW213728   7.827   7.159   6.454  0.0509  2.5308 -2.9694
  837SOL     OW13729   7.867   3.571   1.725 -0.1530  0.6698 -0.1612
  837SOL    HW113730   7.788   3.533   1.773  1.2350 -1.6893  0.3284
  837SOL    HW213731   7.835   3.631   1.651 -2.4256 -0.9300 -0.5484
  838SOL     OW13732   0.158   7.248   1.628 -0.3171 -0.4675 -0.4323
  838SOL    HW113733   0.067   7.273   1.660 -0.3529  0.6251 -1.3507
  838SOL    HW213734   0.182   7.157   1.663 -1.6141 -0.6212  0.0868
  839SOL     OW13735   4.114   3.357   5.429  0.2279 -0.5235 -0.3456
  839SOL    HW113736   4.029   3.411   5.425  1.2062  1.1125  0.3905
  839SOL    HW213737   4.118   3.307   5.515  0.6665  0.5287  0.2550
  840SOL     OW13738   1.197   0.377   1.603  0.2700 -0.3583 -0.0410
  840SOL    HW113739   1.144   0.438   1.545  0.9121 -0.0454 -0.3064
  840SOL    HW213740   1.222   0.295   1.550 -0.8585 -1.0006  0.4091
  841SOL     OW13741   8.228   1.615   5.572  0.2739  0.6071 -0.8333
  841SOL    HW113742   8.179   1.596   5.657  0.7655 -0.2919 -0.7401
  841SOL    HW213743   8.166   1.604   5.494  0.0398  0.5875 -0.6425
  842SOL     OW13744   8.998   1.718   1.122  0.5950 -0.4250  0.1368
  842SOL    HW113745   9.077   1.747   1.176  1.5131  1.0010 -1.9125
  842SOL    HW213746   8.914   1.755   1.163  1.3560  1.3597  0.1266
  843SOL     OW13747   3.412   5.857   1.756  0.1797  0.1978  0.5611
  843SOL    HW113748   3.471   5.913   1.814 -0.6923  0.4462  1.2243
  843SOL    HW213749   3.443   5.761   1.760  0.7216  0.3731  0.6504
  844SOL     OW13750   2.551   2.240   1.850 -0.0008 -0.1686 -0.0789
  844SOL    HW113751   2.612   2.300   1.798  0.8134  1.0584  2.2049
  844SOL    HW213752   2.484   2.199   1.788  2.2929 -0.5136 -2.4330
  845SOL     OW13753   4.317   2.575   1.224  0.3601  0.0725 -0.1189
  845SOL    HW113754   4.394   2.517   1.252  0.0325  0.8763  2.5409
  845SOL    HW213755   4.338   2.670   1.244  0.2089  0.7284 -2.9517
  846SOL     OW13756   0.311   5.945   4.542 -0.0851 -0.3250 -0.1583
  846SOL    HW113757   0.230   5.911   4.494 -1.7169 -0.0474  2.3522
  846SOL    HW213758   0.341   5.878   4.610 -1.8632  2.0496  3.1229
  847SOL     OW13759   4.134   3.458   7.678 -0.1394  0.2492 -0.1127
  847SOL    HW113760   4.155   3.467   7.776  0.3574  0.0556 -0.1981
  847SOL    HW213761   4.219   3.453   7.626 -0.4031  0.3124 -0.5532
  848SOL     OW13762   5.691   9.307   7.054  1.2867  0.0411  0.5642
  848SOL    HW113763   5.726   9.236   6.993  1.8084  0.9784 -0.2597
  848SOL    HW213764   5.758   9.382   7.058 -0.7113  1.9841 -1.2279
  849SOL     OW13765   4.038   0.193   5.826  0.2451 -0.1990 -0.0841
  849SOL    HW113766   4.010   0.164   5.735  1.0732 -0.4861 -0.2531
  849SOL    HW213767   4.114   0.136   5.858 -0.4495 -0.5113  1.0495
  850SOL     OW13768   8.697   6.431   5.780 -0.2785 -0.3181  0.2446
  850SOL    HW113769   8.650   6.518   5.772 -0.9182 -0.7184 -0.3477
  850SOL    HW213770   8.653   6.376   5.851 -0.4914 -0.5564 -0.0727
  851SOL     OW13771   1.127   8.461   6.288  0.4201  0.0824  0.1245
  851SOL    HW113772   1.201   8.408   6.245  1.0055 -0.4033  1.6779
  851SOL    HW213773   1.081   8.404   6.357 -1.7212  0.2309 -1.1488
  852SOL     OW13774   2.256   8.776   3.950 -0.2534 -0.4974 -0.1860
  852SOL    HW113775   2.324   8.795   3.880 -0.9339  0.1520 -0.6760
  852SOL    HW213776   2.301   8.739   4.032  0.7419  0.4775 -0.2917
  853SOL     OW13777   6.605   1.863   6.265  0.2871  0.0605 -0.1702
  853SOL    HW113778   6.680   1.828   6.322  1.0834  0.5233 -0.9194
  853SOL    HW213779   6.631   1.951   6.226 -0.5097  0.0623 -0.7131
  854SOL     OW13780   4.681   8.956   4.134 -0.3119 -0.1669  0.3190
  854SOL    HW113781   4.666   9.024   4.063 -0.1576 -0.3356  0.1230
  854SOL    HW213782   4.733   8.879   4.096 -0.1081 -0.1932  0.6495
  855SOL     OW13783   1.998   8.828   2.535  0.1919  0.1952 -0.1273
  855SOL    HW113784   2.076   8.803   2.477  0.0756  1.4045 -0.8375
  855SOL    HW213785   2.031   8.874   2.617  0.2877 -0.3393  0.1338
  856SOL     OW13786   9.726   5.586   4.740  0.5786 -0.2283  0.8804
  856SOL    HW113787   9.704   5.583   4.837 -0.5056 -0.1404  0.6435
  856SOL    HW213788   9.818   5.623   4.728  0.2659  0.9055  1.8233
  857SOL     OW13789   4.405   4.742   1.928  0.3917 -0.1867 -0.0026
  857SOL    HW113790   4.369   4.651   1.906  0.1599 -0.3909  1.1667
  857SOL    HW213791   4.373   4.769   2.019  2.1740  0.1675  0.5365
  858SOL     OW13792   6.838   7.990   5.643 -0.1963  0.1867 -0.3078
  858SOL    HW113793   6.816   7.980   5.546  0.9195 -1.0783 -0.4514
  858SOL    HW213794   6.753   7.997   5.696 -0.9159 -1.9934 -1.0950
  859SOL     OW13795   1.963   7.841   4.075  0.2612 -0.1785  0.0122
  859SOL    HW113796   1.928   7.913   4.014  0.6314  0.0013  0.0142
  859SOL    HW213797   2.000   7.882   4.158 -0.3218 -0.4314  0.4014
  860SOL     OW13798   9.645   1.028   0.292  0.3735  0.1679 -0.1859
  860SOL    HW113799   9.639   1.128   0.288 -1.4022  0.0583 -0.9893
  860SOL    HW213800   9.736   0.998   0.264  1.0291  1.5675  0.3796
  861SOL     OW13801   1.718   9.709   4.289  0.1697  0.1592  0.0584
  861SOL    HW113802   1.734   9.787   4.349 -1.9504  0.0633  0.8031
  861SOL    HW213803   1.711   9.740   4.194 -0.0049  0.7853  0.2777
  862SOL     OW13804   2.356   7.803   1.503  1.0638  0.1518  0.0651
  862SOL    HW113805   2.455   7.800   1.518  1.0239 -1.8680  0.0874
  862SOL    HW213806   2.309   7.807   1.591  1.1057  1.2896  0.0508
  863SOL     OW13807   0.349   6.555   2.997 -0.2225 -0.4001 -0.0746
  863SOL    HW113808   0.345   6.654   3.012 -1.5670 -0.3949 -0.4054
  863SOL    HW213809   0.258   6.515   3.013  0.5995 -1.7536  1.2541
  864SOL     OW13810   6.075   1.903   4.495 -0.6967  0.1339  0.2544
  864SOL    HW113811   5.998   1.841   4.484 -1.1376  0.7501 -0.1956
  864SOL    HW213812   6.161   1.852   4.491 -1.0568 -0.4368 -0.1948
  865SOL     OW13813   9.682   1.755   3.108  0.3242 -0.0432 -0.3731
  865SOL    HW113814   9.607   1.689   3.107  1.1376 -0.9858 -0.0757
  865SOL    HW213815   9.647   1.846   3.084 -1.0106 -0.3591  0.3263
  866SOL     OW13816   4.486   0.682   1.377 -0.5997  0.9612 -0.2165
  866SOL    HW113817   4.401   0.652   1.335 -0.8892  0.9305  0.3793
  866SOL    HW213818   4.508   0.774   1.345 -0.2344  0.5100 -1.2737
  867SOL     OW13819   5.118   9.845   2.750 -0.3071  0.1033  0.3762
  867SOL    HW113820   5.052   9.919   2.744  0.0930  0.4061 -0.3415
  867SOL    HW213821   5.117   9.806   2.842 -0.9738  0.5739  0.5675
  868SOL     OW13822   9.675   0.672   3.671 -0.0437  0.2968  0.2903
  868SOL    HW113823   9.732   0.705   3.596  0.8361  0.3866  0.9931
  868SOL    HW213824   9.632   0.749   3.717  1.7631  0.4836  1.7337
  869SOL     OW13825   0.582   6.860   5.235  0.4173 -0.0436 -0.0023
  869SOL    HW113826   0.632   6.941   5.202 -0.7520  0.5046 -0.4709
  869SOL    HW213827   0.533   6.884   5.319 -1.9316  0.4996 -1.4532
  870SOL     OW13828   7.852   0.726   3.695 -0.2731  0.0996  0.0463
  870SOL    HW113829   7.860   0.629   3.670 -0.3069  0.6972 -2.3336
  870SOL    HW213830   7.926   0.749   3.759  0.8503 -1.0379 -0.8043
  871SOL     OW13831   9.958   1.233   0.482  0.1656  0.5604  0.7612
  871SOL    HW113832   9.871   1.257   0.525  0.4627  2.2198  0.4468
  871SOL    HW213833  10.033   1.245   0.548  0.3035  0.3276  0.6496
  872SOL     OW13834   1.622   3.128   5.343  0.8497  0.1254 -0.0286
  872SOL    HW113835   1.591   3.097   5.433  0.8683  2.1182  0.6688
  872SOL    HW213836   1.603   3.056   5.276 -1.7888 -0.2526  1.0422
  873SOL     OW13837   1.401   5.877   1.761 -0.7306 -0.1939  0.3790
  873SOL    HW113838   1.309   5.862   1.797 -0.5861  1.0459  1.2794
  873SOL    HW213839   1.448   5.946   1.816  0.5030 -0.3373 -0.4746
  874SOL     OW13840   8.788   3.839   1.100 -0.8029  0.1263 -0.7579
  874SOL    HW113841   8.847   3.765   1.131 -1.4877 -0.2021 -0.2308
  874SOL    HW213842   8.790   3.843   1.000 -0.7702 -0.6177 -0.7913
  875SOL     OW13843   1.669   0.302   3.995  0.4695  0.8092  0.8359
  875SOL    HW113844   1.622   0.391   3.990 -0.7147  0.1990  0.9730
  875SOL    HW213845   1.747   0.303   3.932 -0.1806  1.5683  0.0217
  876SOL     OW13846   9.756   7.284   4.750 -0.2492  0.2739  0.7582
  876SOL    HW113847   9.840   7.329   4.779 -0.5233 -0.0035  2.0035
  876SOL    HW213848   9.779   7.201   4.699  0.2273  0.4894  0.6136
  877SOL     OW13849   4.926   2.912   3.341 -0.3855  0.0970  0.0225
  877SOL    HW113850   4.899   2.971   3.418 -0.1814 -0.0041  0.1717
  877SOL    HW213851   4.871   2.935   3.261 -1.8388 -0.9862  0.6814
  878SOL     OW13852   9.005   3.159   6.515 -0.1925 -0.0801 -0.1566
  878SOL    HW113853   9.098   3.151   6.480 -0.0976 -0.7792  0.2446
  878SOL    HW213854   8.993   3.098   6.593 -1.7986 -2.0917 -1.9079
  879SOL     OW13855   8.744   8.188   6.355  0.1658  0.1156  0.3895
  879SOL    HW113856   8.740   8.093   6.326 -0.4222 -0.1322  1.2366
  879SOL    HW213857   8.670   8.206   6.420  0.5799  1.0172  0.6269
  880SOL     OW13858   0.007   3.276   3.432  0.2745 -0.3857  0.6886
  880SOL    HW113859   0.073   3.232   3.372  0.2548 -0.5754  0.8044
  880SOL    HW213860  -0.085   3.242   3.411 -0.0645  1.4395 -0.8951
  881SOL     OW13861   9.089   9.190   4.957  0.0729 -0.1862 -0.0256
  881SOL    HW113862   9.084   9.129   4.878  0.2146  1.6012 -1.4476
  881SOL    HW213863   9.179   9.181   5.000  0.1093 -0.9357 -0.2488
  882SOL     OW13864   1.054   5.698   0.138  0.0865 -0.1803  0.3002
  882SOL    HW113865   1.114   5.626   0.174  0.8601  0.1803 -0.2558
  882SOL    HW213866   0.989   5.658   0.074  1.2001 -0.2304 -0.8109
  883SOL     OW13867   9.052   0.802   2.801  0.2600 -0.0178  0.1016
  883SOL    HW113868   9.125   0.798   2.732  1.1861 -3.0904  1.1562
  883SOL    HW213869   8.992   0.879   2.782  2.1754  0.9210 -2.4319
  884SOL     OW13870   7.564   3.331   4.527  0.9460  0.2006  0.0795
  884SOL    HW113871   7.465   3.312   4.530  0.9087  0.4760  0.9001
  884SOL    HW213872   7.585   3.391   4.450  0.4244  0.3701  0.0666
  885SOL     OW13873   9.633   5.899   0.657  0.2766 -0.0883 -0.6499
  885SOL    HW113874   9.674   5.983   0.693 -1.8348  0.5380  0.4206
  885SOL    HW213875   9.579   5.921   0.575 -3.1239  0.2972  1.5733
  886SOL     OW13876   1.801   0.797   0.252 -0.2233  0.6000  0.1889
  886SOL    HW113877   1.861   0.847   0.189  0.8221  1.0929  1.5648
  886SOL    HW213878   1.706   0.807   0.221  0.1627  1.8024 -0.6732
  887SOL     OW13879   2.912   8.702   4.632  0.2882 -0.2162 -0.3308
  887SOL    HW113880   2.974   8.781   4.628 -1.2812  0.9919 -1.4579
  887SOL    HW213881   2.965   8.618   4.634  1.9788  0.8124 -0.7674
  888SOL     OW13882   1.710   4.390   3.401  0.2642 -0.3444  0.2862
  888SOL    HW113883   1.708   4.294   3.372 -0.4088  0.2583 -1.7400
  888SOL    HW213884   1.640   4.441   3.352 -0.5787  0.8474  2.6840
  889SOL     OW13885   0.489   7.940   0.419  0.1716  0.1736 -0.4575
  889SOL    HW113886   0.397   7.930   0.382  0.4531  0.5024 -1.2496
  889SOL    HW213887   0.514   8.036   0.423  1.0420  0.0095 -1.6484
  890SOL     OW13888   0.102   2.544   6.307 -0.1300 -0.0003 -0.2530
  890SOL    HW113889   0.030   2.474   6.310 -0.3547  0.2122 -0.6100
  890SOL    HW213890   0.060   2.634   6.321  0.0620  0.1288 -0.5128
  891SOL     OW13891   1.849   3.194   4.386  0.5345  0.1810  0.7496
  891SOL    HW113892   1.904   3.177   4.467  0.8517 -1.8708  0.1566
  891SOL    HW213893   1.858   3.116   4.323  2.0570  2.6603 -2.2776
  892SOL     OW13894   1.944   3.602   4.112 -0.4459  0.5297 -0.5212
  892SOL    HW113895   1.924   3.580   4.016 -1.1477 -1.7033  0.1181
  892SOL    HW213896   1.859   3.627   4.159 -0.6334 -1.6826  0.3459
  893SOL     OW13897   1.860   7.996   2.892  0.0118  0.0965 -0.7117
  893SOL    HW113898   1.916   8.031   2.817  1.8847 -1.7816 -0.2330
  893SOL    HW213899   1.802   7.921   2.858  1.2374 -1.0991 -0.1904
  894SOL     OW13900   5.939   5.702   0.227 -0.3106  0.3129  0.3681
  894SOL    HW113901   6.015   5.659   0.276 -0.5151  1.0565  1.3668
  894SOL    HW213902   5.869   5.633   0.208 -0.6345  0.1772  1.9440
  895SOL     OW13903   9.777   3.112   8.141  0.2849 -0.6055 -0.0434
  895SOL    HW113904   9.680   3.137   8.140  0.2249 -0.7565  1.0445
  895SOL    HW213905   9.802   3.080   8.233  1.5186  0.0789 -0.1284
  896SOL     OW13906   4.702   2.499   4.399  0.1140 -0.1507  0.2467
  896SOL    HW113907   4.797   2.469   4.413  0.5450  0.6337 -0.9024
  896SOL    HW213908   4.691   2.533   4.306 -0.4022  2.9938  1.3830
  897SOL     OW13909   1.104   0.987   5.596 -0.2394  0.2053  0.4223
  897SOL    HW113910   1.122   0.922   5.521  0.9326  1.7511 -0.6612
  897SOL    HW213911   1.191   1.020   5.632 -0.8344  2.3157 -0.0457
  898SOL     OW13912   6.392   2.051   5.355 -0.5170 -0.1395  0.3007
  898SOL    HW113913   6.390   1.955   5.327 -1.8218  0.1627 -0.7363
  898SOL    HW213914   6.481   2.091   5.333 -0.6139 -0.6234 -0.9805
  899SOL     OW13915   3.393   7.746   3.183 -0.1593 -0.0884 -0.2463
  899SOL    HW113916   3.457   7.822   3.196  1.1213 -1.3825  1.3929
  899SOL    HW213917   3.445   7.663   3.161 -1.4653 -0.6742 -1.1723
  900SOL     OW13918   3.314   9.749   1.362 -0.2699 -0.4972  0.0928
  900SOL    HW113919   3.376   9.689   1.412  0.1189  0.6779  1.0409
  900SOL    HW213920   3.232   9.765   1.417 -0.6833 -0.7159 -0.4577
  901SOL     OW13921   8.454   8.240   5.852  0.0861 -0.6138  0.4592
  901SOL    HW113922   8.474   8.274   5.944  0.2674 -0.3369  0.3188
  901SOL    HW213923   8.363   8.199   5.851 -0.7724  1.2214  0.2807
  902SOL     OW13924   8.465   1.060   1.812 -0.0837  1.0726  0.3185
  902SOL    HW113925   8.440   1.099   1.900 -0.2169  0.1412  0.7000
  902SOL    HW213926   8.481   0.962   1.822 -0.5149  0.8799 -0.7717
  903SOL     OW13927   3.854   0.358   2.050 -0.0490  0.1926  0.2884
  903SOL    HW113928   3.874   0.265   2.021 -0.6851 -0.0324  0.5707
  903SOL    HW213929   3.779   0.396   1.995  1.2655  1.1120 -0.9066
  904SOL     OW13930   9.299   9.948   3.516  0.0942  0.2963  0.0664
  904SOL    HW113931   9.214   9.905   3.486  0.3506 -0.4340  0.3781
  904SOL    HW213932   9.377   9.896   3.481  0.4099  0.8742 -0.0868
  905SOL     OW13933   5.548   0.710   5.781 -0.1126  0.1854  0.2959
  905SOL    HW113934   5.535   0.620   5.740 -1.8295  0.4198  0.2486
  905SOL    HW213935   5.645   0.730   5.788  0.2819 -1.4769 -0.1104
  906SOL     OW13936   8.565   9.960   4.047  0.1093  0.0199  0.1022
  906SOL    HW113937   8.476   9.921   4.068 -0.2767  0.5341 -0.5554
  906SOL    HW213938   8.594   9.931   3.956  0.7533 -0.3923  0.4345
  907SOL     OW13939   0.551   1.770   5.320  0.1607 -0.0921  0.5382
  907SOL    HW113940   0.596   1.814   5.242  1.0424  0.1079  1.1464
  907SOL    HW213941   0.510   1.684   5.291  1.2742 -0.4606  0.0428
  908SOL     OW13942   2.516   6.652   0.990  0.2242  0.2568 -0.0179
  908SOL    HW113943   2.567   6.737   1.006  1.7677 -0.6208 -0.2070
  908SOL    HW213944   2.454   6.636   1.067 -0.5472  1.8743 -0.2791
  909SOL     OW13945   9.442   3.787   8.125  0.6271 -0.2291 -0.1428
  909SOL    HW113946   9.429   3.702   8.175 -1.3991 -0.8211 -1.6302
  909SOL    HW213947   9.379   3.856   8.159  2.2584  0.7190  1.0540
  910SOL     OW13948   7.290   0.286   5.006 -0.3575  0.0965 -0.1836
  910SOL    HW113949   7.285   0.385   5.020 -0.1120 -0.0302  0.8976
  910SOL    HW213950   7.314   0.242   5.093 -1.6738 -1.0148 -0.3738
  911SOL     OW13951   8.936   2.622   2.731 -0.3800 -0.9213 -0.4602
  911SOL    HW113952   9.029   2.637   2.697  0.6656 -2.9481  1.3179
  911SOL    HW213953   8.909   2.527   2.714 -1.1620 -1.0114  1.1827
  912SOL     OW13954   1.407   8.737   5.952  0.0189  0.1311  0.8787
  912SOL    HW113955   1.357   8.783   6.025 -0.8464 -1.0487  1.0565
  912SOL    HW213956   1.366   8.646   5.937  1.6369 -0.5414  0.5036
  913SOL     OW13957   6.692   7.626   4.836 -0.5267 -0.3106 -0.2945
  913SOL    HW113958   6.760   7.556   4.858  0.4854  0.3948 -1.1471
  913SOL    HW213959   6.626   7.589   4.771  0.0556 -0.4546 -0.8093
  914SOL     OW13960   4.782   3.079   4.899  0.3125  0.0318 -0.5537
  914SOL    HW113961   4.745   3.165   4.934 -1.6183 -0.5723 -1.0051
  914SOL    HW213962   4.835   3.034   4.971  0.2977  1.0047  0.0773
  915SOL     OW13963   4.580   1.276   1.684  0.0493  0.5430  0.0174
  915SOL    HW113964   4.601   1.367   1.648  1.3026 -0.1133 -0.9502
  915SOL    HW213965   4.576   1.210   1.609 -0.5407 -0.2746  0.7452
  916SOL     OW13966   9.026   9.152   1.404 -0.3651  0.4722 -0.1423
  916SOL    HW113967   8.957   9.212   1.363 -1.3243 -0.6289 -0.1948
  916SOL    HW213968   9.040   9.073   1.344  0.4844  0.3689  0.1828
  917SOL     OW13969   6.256   9.253   5.097  0.9860 -0.5369  0.3413
  917SOL    HW113970   6.176   9.251   5.158  1.5202  0.3243  1.0774
  917SOL    HW213971   6.333   9.297   5.144  1.6978 -0.7662 -0.6008
  918SOL     OW13972   0.787   8.299   4.048  0.4261 -0.2301 -0.1393
  918SOL    HW113973   0.835   8.385   4.031  4.2123 -2.1592  0.1874
  918SOL    HW213974   0.796   8.239   3.969 -0.0292 -1.2661  0.5706
  919SOL     OW13975   5.109   3.267   4.190 -0.0782 -0.1559  0.1218
  919SOL    HW113976   5.180   3.304   4.248 -1.1116  1.5375  0.3416
  919SOL    HW213977   5.021   3.308   4.214 -1.1047 -2.0297 -0.2964
  920SOL     OW13978   7.769   0.193   1.825  0.4846  0.3872 -0.2194
  920SOL    HW113979   7.690   0.141   1.794  1.9996 -2.0418 -0.1591
  920SOL    HW213980   7.750   0.233   1.915 -0.2177 -1.2673  0.3798
  921SOL     OW13981   5.013   9.610   2.624  0.0332  0.1902 -0.1652
  921SOL    HW113982   5.058   9.680   2.680 -0.3966 -0.6480  1.2567
  921SOL    HW213983   4.917   9.605   2.650  0.1017 -1.0323 -0.1437
  922SOL     OW13984   1.266   6.499   5.968 -0.3378  0.3890  0.4969
  922SOL    HW113985   1.259   6.440   6.049  2.3516  0.0310  0.5236
  922SOL    HW213986   1.357   6.540   5.965 -1.0462  1.8967 -1.3505
  923SOL     OW13987   9.637   2.028   4.704 -0.1714  0.4537 -0.1923
  923SOL    HW113988   9.661   2.024   4.801 -0.2136 -0.7691 -0.2165
  923SOL    HW213989   9.630   2.123   4.675  0.1188  0.8305  0.9345
  924SOL     OW13990   2.350   1.853   1.823 -0.9771  0.5330 -0.0227
  924SOL    HW113991   2.424   1.814   1.876 -0.2152  0.8877 -0.8139
  924SOL    HW213992   2.264   1.805   1.845 -0.3978 -0.3261  0.3970
  925SOL     OW13993   5.875   9.564   7.116 -0.6811 -0.2086  0.1941
  925SOL    HW113994   5.970   9.539   7.134 -0.9893 -0.9802  0.8031
  925SOL    HW213995   5.856   9.654   7.155 -0.1765 -0.0094 -0.0178
  926SOL     OW13996   2.711   3.743   3.619  0.7794 -0.5398  0.7918
  926SOL    HW113997   2.678   3.686   3.544  2.2166 -1.5030  0.8928
  926SOL    HW213998   2.657   3.723   3.701  0.1718 -0.5300  0.4052
  927SOL     OW13999   4.729   4.995   4.555  0.7013  0.0958  0.1588
  927SOL    HW114000   4.709   5.071   4.494 -0.6202 -2.3537 -2.6367
  927SOL    HW214001   4.646   4.972   4.607  0.1133 -1.3830 -1.3621
  928SOL     OW14002   3.536   0.344   1.007 -0.1730  0.2407  0.5442
  928SOL    HW114003   3.531   0.247   0.987 -2.6664  0.0338  1.9711
  928SOL    HW214004   3.535   0.396   0.921 -1.7170 -0.8939 -0.1327
  929SOL     OW14005   8.069   1.154   6.461 -0.4352  0.0181 -0.2437
  929SOL    HW114006   8.120   1.078   6.500 -1.7678  0.0792  1.6726
  929SOL    HW214007   8.126   1.236   6.463 -0.5993  0.1137  1.9947
  930SOL     OW14008   0.594   1.087   2.198 -0.0002 -0.4647 -0.4870
  930SOL    HW114009   0.503   1.050   2.182 -1.1854  1.0560  2.2704
  930SOL    HW214010   0.654   1.016   2.234 -0.5472 -1.1128 -0.8672
  931SOL     OW14011   1.529   2.546   5.415  0.1549 -0.2690 -0.0018
  931SOL    HW114012   1.627   2.531   5.400  0.5404  1.0321  1.0507
  931SOL    HW214013   1.515   2.641   5.444 -1.6164  0.0665 -1.8781
  932SOL     OW14014   1.701   1.380   1.740 -0.0745  0.4035 -0.1881
  932SOL    HW114015   1.686   1.354   1.644  0.2802 -0.5822  0.0207
  932SOL    HW214016   1.618   1.359   1.793  1.1719 -2.9913  0.5334
  933SOL     OW14017   5.727   9.617   3.125  0.2760  0.2189  0.3626
  933SOL    HW114018   5.768   9.527   3.135 -0.1755  0.0261  0.4949
  933SOL    HW214019   5.732   9.666   3.213  1.4903  0.7395  0.0129
  934SOL     OW14020   2.096   0.741   0.872  0.5281  0.7761 -0.5452
  934SOL    HW114021   2.181   0.788   0.896  0.7434  0.8995 -1.5393
  934SOL    HW214022   2.091   0.729   0.773  0.0434 -0.4749 -0.3815
  935SOL     OW14023   9.827   7.219   1.684 -0.4347  0.2912 -0.4145
  935SOL    HW114024   9.816   7.235   1.586 -0.6811 -0.5582 -0.5270
  935SOL    HW214025   9.798   7.126   1.706  1.4824 -0.1743  0.1613
  936SOL     OW14026   9.393   5.008   2.045  0.0372 -0.0736  0.2412
  936SOL    HW114027   9.373   5.025   2.142 -0.5710  0.2817  0.0571
  936SOL    HW214028   9.341   5.072   1.989 -0.9845 -1.4346 -0.3868
  937SOL     OW14029   8.052   9.697   7.028  0.2548 -0.3943  0.6333
  937SOL    HW114030   8.064   9.599   7.010 -0.0556 -0.0325 -1.7012
  937SOL    HW214031   7.962   9.713   7.069 -0.3208 -0.9225 -0.4135
  938SOL     OW14032   6.172   7.623   4.567 -0.1409 -0.2086  0.2194
  938SOL    HW114033   6.163   7.632   4.468  0.5958  0.1184  0.1804
  938SOL    HW214034   6.262   7.584   4.589  0.3306  1.1929  0.8276
  939SOL     OW14035   9.290   6.040   1.071 -0.1277  0.0211  0.3683
  939SOL    HW114036   9.315   6.054   1.166 -1.5376  1.6788  0.5300
  939SOL    HW214037   9.360   6.078   1.011  0.6838 -0.8870  0.7234
  940SOL     OW14038   3.735   6.693   4.303  0.1331  0.7878 -0.4061
  940SOL    HW114039   3.653   6.676   4.357  0.1568  3.2821  0.4519
  940SOL    HW214040   3.805   6.625   4.326  0.2554  1.9989  2.9362
  941SOL     OW14041   7.010   5.001   2.843  0.3544 -0.0806 -0.9244
  941SOL    HW114042   7.067   5.062   2.899  0.8432 -1.2479 -0.1318
  941SOL    HW214043   7.055   4.985   2.755  0.7975 -0.2326 -0.6734
  942SOL     OW14044   0.267   4.225   4.100  0.0596 -0.5052 -0.3173
  942SOL    HW114045   0.313   4.191   4.018 -1.4090 -0.5552 -1.1390
  942SOL    HW214046   0.228   4.148   4.151  1.8836 -0.5805  1.0243
  943SOL     OW14047   5.721   2.195   4.828 -0.0342 -0.0282  0.6183
  943SOL    HW114048   5.801   2.136   4.818 -0.5660 -0.4540 -1.3152
  943SOL    HW214049   5.702   2.241   4.741 -1.2826  0.8620  1.3454
  944SOL     OW14050   8.976   4.138   6.156 -0.1860  0.1302 -0.5843
  944SOL    HW114051   9.058   4.191   6.136  0.0516  0.6394  1.6292
  944SOL    HW214052   9.001   4.042   6.171 -0.0137  0.2577 -0.0516
  945SOL     OW14053   3.023   8.114   4.137 -0.1839 -0.6352 -0.1186
  945SOL    HW114054   2.948   8.050   4.122 -0.6246 -0.6787  2.0378
  945SOL    HW214055   3.049   8.112   4.234  2.0116  0.0235 -0.6707
  946SOL     OW14056   3.728   0.540   3.165 -0.1083 -0.2710 -1.1777
  946SOL    HW114057   3.802   0.473   3.157 -0.5219 -0.7073 -1.3327
  946SOL    HW214058   3.715   0.586   3.078  0.2525  0.0926 -1.0402
  947SOL     OW14059   6.761   2.232   4.378  0.5726  0.0941  0.4380
  947SOL    HW114060   6.734   2.185   4.461 -0.5248 -1.1007 -0.5663
  947SOL    HW214061   6.818   2.172   4.322  2.1575  1.2539  0.7815
  948SOL     OW14062   6.780   2.746   4.395 -0.2096  0.7422 -0.1848
  948SOL    HW114063   6.690   2.750   4.436 -0.2968  1.0567 -0.4091
  948SOL    HW214064   6.815   2.652   4.401 -0.1026  0.8442  0.8404
  949SOL     OW14065   8.511   9.684   2.445 -0.0591  0.0574  0.7633
  949SOL    HW114066   8.451   9.764   2.442 -0.7138 -0.2882  3.5202
  949SOL    HW214067   8.474   9.612   2.387 -1.7856  0.1842  1.7002
  950SOL     OW14068   9.709   0.030   6.408  0.1696 -0.2143 -0.0591
  950SOL    HW114069   9.636  -0.037   6.392  1.3494 -2.3566  2.9732
  950SOL    HW214070   9.677   0.099   6.473  0.3024 -0.1774 -0.0346
  951SOL     OW14071   3.143   2.273   1.510 -0.0803 -0.2133 -0.2157
  951SOL    HW114072   3.090   2.342   1.460 -0.2974 -0.9118 -0.9535
  951SOL    HW214073   3.240   2.299   1.509 -0.1602  0.0760 -0.4969
  952SOL     OW14074   2.440   9.684   6.298  0.0621 -0.2467 -0.0122
  952SOL    HW114075   2.504   9.716   6.228 -0.0807 -0.0469 -0.0502
  952SOL    HW214076   2.413   9.590   6.277 -1.1850  0.3370 -1.0904
  953SOL     OW14077   0.580   2.287   5.715 -0.0007  0.1736  0.0447
  953SOL    HW114078   0.522   2.327   5.787  0.9245 -0.0132  0.9147
  953SOL    HW214079   0.638   2.217   5.755 -0.7201 -1.1898 -1.2480
  954SOL     OW14080   6.276   4.746   0.870 -0.6443  0.0569  0.2172
  954SOL    HW114081   6.233   4.695   0.945  0.1456 -1.0167 -0.0559
  954SOL    HW214082   6.231   4.835   0.861  0.0146  0.6929  2.7304
  955SOL     OW14083   7.129   2.853   5.595 -0.0746  0.1071 -0.1083
  955SOL    HW114084   7.219   2.875   5.632  0.3168 -0.2346 -0.8364
  955SOL    HW214085   7.137   2.771   5.537 -1.4079 -1.7256  2.2224
  956SOL     OW14086   4.605   4.351   7.363  0.5648 -0.7497 -0.4122
  956SOL    HW114087   4.629   4.274   7.422 -0.8114  0.0457  1.2169
  956SOL    HW214088   4.572   4.316   7.275 -1.1092 -2.0620  0.7119
  957SOL     OW14089   7.997   1.280   4.421  0.1361 -0.0747 -0.0482
  957SOL    HW114090   8.092   1.275   4.449  0.0346  0.0042  0.3225
  957SOL    HW214091   7.942   1.215   4.474 -0.1173  0.3311  0.1949
  958SOL     OW14092   4.469   2.816   4.368 -0.3571  0.3547  0.1877
  958SOL    HW114093   4.433   2.833   4.276 -0.3285 -1.1488 -0.1094
  958SOL    HW214094   4.569   2.824   4.366 -0.4386  1.6412  0.3931
  959SOL     OW14095   2.213   2.445   1.263  0.0965  0.1067 -0.3208
  959SOL    HW114096   2.311   2.461   1.274  0.2795 -0.1627 -1.4605
  959SOL    HW214097   2.194   2.347   1.273 -0.0164  0.1248 -0.3574
  960SOL     OW14098   8.739   6.522   6.309 -0.3042 -0.1860  0.5866
  960SOL    HW114099   8.781   6.446   6.259  0.9364  0.7655  0.1687
  960SOL    HW214100   8.654   6.490   6.351  0.6519 -2.0504  1.1876
  961SOL     OW14101   4.238   0.255   5.264  0.0182  0.2143 -0.5417
  961SOL    HW114102   4.215   0.200   5.345  0.4454  0.9186  0.0637
  961SOL    HW214103   4.170   0.326   5.252 -0.1512 -0.0135 -0.9111
  962SOL     OW14104   3.950   3.557   0.208 -0.0889 -0.4740  0.4711
  962SOL    HW114105   3.886   3.541   0.283  0.1273  0.8430  0.9549
  962SOL    HW214106   4.042   3.530   0.236  0.0760  0.4817  0.8629
  963SOL     OW14107   6.366   7.603   5.452  0.5499  0.2726 -0.5537
  963SOL    HW114108   6.460   7.598   5.419  1.7771 -0.4692  2.8243
  963SOL    HW214109   6.324   7.513   5.446  1.1111 -0.0913  0.7513
  964SOL     OW14110   9.415   5.800   2.569 -0.2097  0.0471 -0.2655
  964SOL    HW114111   9.509   5.827   2.550  0.5079 -2.4040 -0.3776
  964SOL    HW214112   9.382   5.740   2.496 -1.4182 -0.1508  0.4202
  965SOL     OW14113   1.613   3.870   3.386  0.4487  0.5065  0.0658
  965SOL    HW114114   1.573   3.783   3.358 -1.7657  0.8348  2.0220
  965SOL    HW214115   1.705   3.855   3.420  0.3577 -0.9513 -0.2895
  966SOL     OW14116   5.954   8.951   2.576 -0.1155 -0.1805 -0.0960
  966SOL    HW114117   6.027   9.017   2.590 -0.8181  0.9039 -1.4196
  966SOL    HW214118   5.993   8.865   2.541  0.4800  0.5841 -1.3544
  967SOL     OW14119   4.275   4.755   2.490  0.2872  0.5373  0.3483
  967SOL    HW114120   4.262   4.663   2.528 -0.4913  0.8599  0.8743
  967SOL    HW214121   4.207   4.771   2.418  0.6519  0.5727  0.0087
  968SOL     OW14122   2.332   3.547   0.135  0.3013 -0.2175 -0.4020
  968SOL    HW114123   2.370   3.462   0.097  1.0923  0.1042 -0.3388
  968SOL    HW214124   2.304   3.532   0.229 -0.6956 -0.7403 -0.7804
  969SOL     OW14125   3.163   3.932   0.487 -0.1995  0.0958  0.1729
  969SOL    HW114126   3.137   3.877   0.566 -2.2367 -0.0942 -0.6119
  969SOL    HW214127   3.172   3.873   0.406 -1.8225  0.8083 -0.5455
  970SOL     OW14128   2.724   8.262   1.736 -0.2062  0.1900 -0.0184
  970SOL    HW114129   2.779   8.191   1.693  0.5797 -0.3620  1.8355
  970SOL    HW214130   2.629   8.231   1.743  0.1627 -0.7433  0.9073
  971SOL     OW14131   9.165   7.810   3.741  0.0687  0.2773  0.1251
  971SOL    HW114132   9.175   7.737   3.674 -0.2881 -1.1136  1.5740
  971SOL    HW214133   9.253   7.828   3.785 -0.3935 -1.1427  1.6724
  972SOL     OW14134   9.898   1.768   5.196 -0.3093 -0.2296 -0.6975
  972SOL    HW114135   9.947   1.816   5.123  0.2961 -0.3125 -0.3508
  972SOL    HW214136   9.861   1.835   5.261  0.3939 -0.2134 -0.3029
  973SOL     OW14137   1.854   3.604   3.323 -0.1470 -0.4461 -0.4255
  973SOL    HW114138   1.856   3.673   3.395 -0.8052  0.1000 -0.9228
  973SOL    HW214139   1.851   3.513   3.363  0.9938 -0.1898  0.2365
  974SOL     OW14140   9.790   6.029   2.626 -0.0689  0.1826 -0.1818
  974SOL    HW114141   9.767   6.126   2.620 -0.1650  0.1806  0.1189
  974SOL    HW214142   9.805   6.005   2.722 -0.3625 -0.1717 -0.2248
  975SOL     OW14143   0.831   9.612   3.731  0.1227 -0.4966 -0.4373
  975SOL    HW114144   0.909   9.671   3.713  0.1952 -0.3824  0.2396
  975SOL    HW214145   0.840   9.571   3.822 -1.1486  0.3731  0.0886
  976SOL     OW14146   9.081   3.462   5.725  0.7131  0.0559 -0.4376
  976SOL    HW114147   9.113   3.368   5.735  3.0237  0.8092 -0.3116
  976SOL    HW214148   9.046   3.495   5.812  0.8991 -0.3495 -0.2076
  977SOL     OW14149   6.029   3.817   8.158  0.5211 -0.2311  0.5341
  977SOL    HW114150   5.935   3.815   8.126  0.5623 -0.4998  0.4227
  977SOL    HW214151   6.065   3.723   8.160  0.2462 -0.3127  2.1682
  978SOL     OW14152   4.710   0.212   7.009  0.4606 -0.1677  0.3001
  978SOL    HW114153   4.614   0.228   6.984  0.6984  1.7284  0.5501
  978SOL    HW214154   4.718   0.122   7.050 -1.0379 -0.7837 -0.6850
  979SOL     OW14155   5.448   1.168   6.358 -0.4592  0.3669 -0.0813
  979SOL    HW114156   5.542   1.201   6.351 -0.9774  2.1001  0.7248
  979SOL    HW214157   5.445   1.070   6.339  1.5024  0.2936 -0.0994
  980SOL     OW14158   3.389   2.272   5.745  0.1594  0.1515  0.5491
  980SOL    HW114159   3.464   2.330   5.775  1.1528 -0.9682  0.2627
  980SOL    HW214160   3.383   2.273   5.646  0.7190 -0.8887  0.4989
  981SOL     OW14161   7.793   7.007   4.140 -0.2751  0.4048  0.0805
  981SOL    HW114162   7.714   6.945   4.138 -0.8891  1.1885 -0.8222
  981SOL    HW214163   7.873   6.958   4.174 -0.8149 -0.8018 -0.3361
  982SOL     OW14164   0.217   1.379   3.778  0.4629  0.3617 -0.0482
  982SOL    HW114165   0.164   1.352   3.698  2.4430 -1.0519 -0.9354
  982SOL    HW214166   0.218   1.306   3.845 -1.1304  1.5172  1.2663
  983SOL     OW14167   1.597   6.471   3.019 -0.1113 -0.2060 -0.3816
  983SOL    HW114168   1.629   6.388   2.972 -0.4422 -0.3429 -0.3619
  983SOL    HW214169   1.501   6.487   2.998  0.0884  0.4735 -0.8157
  984SOL     OW14170   2.267   9.211   3.638 -0.2086 -0.3467 -0.3589
  984SOL    HW114171   2.228   9.287   3.690  0.2089 -0.1170 -0.3841
  984SOL    HW214172   2.364   9.202   3.659 -0.0348 -0.2522 -1.0842
  985SOL     OW14173   9.871   5.051   4.463 -0.8598 -0.6097 -0.2307
  985SOL    HW114174   9.791   5.067   4.405 -1.4640  1.5768  1.1430
  985SOL    HW214175   9.922   5.137   4.473 -1.6541 -0.5150  3.7650
  986SOL     OW14176   0.207   3.442   1.662  0.4515  0.6054  0.3561
  986SOL    HW114177   0.128   3.390   1.696  0.7892 -0.2476 -0.1401
  986SOL    HW214178   0.218   3.526   1.715  0.9815 -0.6919  2.3326
  987SOL     OW14179   8.961   2.910   3.379 -0.0612 -0.2545 -0.1705
  987SOL    HW114180   8.984   2.974   3.453 -1.9613  0.0843  0.1451
  987SOL    HW214181   9.004   2.822   3.398 -0.6053 -0.2012  1.4213
  988SOL     OW14182   0.484   8.134   3.507 -0.1033  0.2118 -0.1203
  988SOL    HW114183   0.514   8.092   3.592 -0.7918  0.2940  0.1692
  988SOL    HW214184   0.550   8.115   3.435  1.1861  1.3241  0.7624
  989SOL     OW14185   2.708   5.851   4.861  0.0665 -0.3008  0.4201
  989SOL    HW114186   2.657   5.799   4.930 -0.3269 -1.5962 -0.8446
  989SOL    HW214187   2.697   5.949   4.880 -3.1232 -0.5272  0.0553
  990SOL     OW14188   1.579   5.726   2.393  0.5765  0.5172 -1.0244
  990SOL    HW114189   1.618   5.648   2.344  1.5003  0.0232  0.4571
  990SOL    HW214190   1.481   5.712   2.406  0.0417  1.2810 -3.8645
  991SOL     OW14191   7.160   3.318   0.575 -0.1343  0.0837 -0.7881
  991SOL    HW114192   7.120   3.408   0.557  0.8835  0.4791 -1.1406
  991SOL    HW214193   7.092   3.259   0.618 -0.6706  1.1766 -0.1046
  992SOL     OW14194   2.032   0.479   3.319  0.2761  0.3682  0.2045
  992SOL    HW114195   2.088   0.530   3.383  0.8909 -1.6076  1.2980
  992SOL    HW214196   2.077   0.392   3.298 -1.8373 -0.7572  0.2409
  993SOL     OW14197   1.726   0.236   1.201  0.5786  0.2252 -0.6365
  993SOL    HW114198   1.773   0.317   1.165 -1.7346  2.4850  1.2443
  993SOL    HW214199   1.649   0.213   1.142  0.4974  0.1434 -0.4987
  994SOL     OW14200   0.422   7.962   0.895  0.5697  0.1911  0.4394
  994SOL    HW114201   0.438   7.910   0.978  1.2111 -3.6111 -1.9499
  994SOL    HW214202   0.325   7.986   0.887  0.3260 -0.3855  1.7119
  995SOL     OW14203   2.792   7.422   4.998 -0.4236  0.1912  0.0135
  995SOL    HW114204   2.752   7.390   5.084  0.9941  1.0729  1.0198
  995SOL    HW214205   2.761   7.515   4.979 -0.8268 -0.0426 -0.5020
  996SOL     OW14206   3.934   7.370   1.796  0.1822 -0.5362  0.2267
  996SOL    HW114207   3.900   7.391   1.704  1.0680  0.1013  0.0405
  996SOL    HW214208   4.033   7.355   1.793  0.1994 -0.6256  1.0552
  997SOL     OW14209   0.756   1.998   2.936 -0.1089  0.4817 -0.3132
  997SOL    HW114210   0.800   2.030   3.020  1.1531  1.0501 -1.1733
  997SOL    HW214211   0.686   1.931   2.959  0.6374  0.1795  1.1551
  998SOL     OW14212   7.017   7.312   5.036  0.2911  0.0772 -0.4573
  998SOL    HW114213   7.060   7.380   5.095  1.5713 -0.5578 -0.6352
  998SOL    HW214214   6.982   7.237   5.093  2.8305 -1.2551 -0.5584
  999SOL     OW14215   4.588   1.349   1.329  0.0530 -0.3030  0.2243
  999SOL    HW114216   4.555   1.345   1.234 -3.4244 -0.0592  1.3632
  999SOL    HW214217   4.588   1.257   1.368 -1.2195 -0.0613  0.8283
 1000SOL     OW14218   4.133   8.325   3.885 -0.3567 -0.1175 -0.0520
 1000SOL    HW114219   4.137   8.363   3.977 -1.4734  0.4563 -0.2380
 1000SOL    HW214220   4.162   8.394   3.819 -1.5595  0.1490 -0.3118
 1001SOL     OW14221   5.955   5.702   7.984 -0.1521  0.6530 -0.6454
 1001SOL    HW114222   6.005   5.769   8.039  0.8129  0.2013 -0.9471
 1001SOL    HW214223   6.018   5.659   7.919 -0.9281  0.0203 -0.9911
 1002SOL     OW14224   8.892   7.301   4.164 -0.3461 -0.0286  0.2049
 1002SOL    HW114225   8.971   7.257   4.205 -1.0492 -0.3947  1.1699
 1002SOL    HW214226   8.840   7.350   4.234 -0.0894  1.5578 -0.6911
 1003SOL     OW14227   6.893   9.186   5.220 -0.0993  0.3281 -0.2148
 1003SOL    HW114228   6.841   9.240   5.154 -0.9602 -0.1060  0.0919
 1003SOL    HW214229   6.862   9.209   5.313  1.2317  1.0771  0.0466
 1004SOL     OW14230   2.707   7.679   3.047  0.3560  0.0729 -0.3021
 1004SOL    HW114231   2.671   7.748   2.983 -1.4607  0.3848  1.0298
 1004SOL    HW214232   2.657   7.684   3.133  3.3055  0.1813  1.4684
 1005SOL     OW14233   1.232   8.068   5.668  0.3861 -0.3348  0.0144
 1005SOL    HW114234   1.198   8.143   5.612  0.5720 -0.6386 -0.5138
 1005SOL    HW214235   1.156   8.008   5.694  0.5464 -1.2369 -1.4990
 1006SOL     OW14236   5.691   0.942   5.478  0.2566 -0.2822 -0.2667
 1006SOL    HW114237   5.685   0.856   5.528 -0.6485  0.1313  0.3649
 1006SOL    HW214238   5.728   0.926   5.387  0.4267 -1.2854 -0.0210
 1007SOL     OW14239   2.506   5.378   5.551 -0.0555  0.4511  0.1610
 1007SOL    HW114240   2.526   5.440   5.475 -0.7858  0.1877 -0.2536
 1007SOL    HW214241   2.419   5.404   5.593  0.9903  1.4386  1.7940
 1008SOL     OW14242   8.055   2.927   0.435  0.0883 -0.8144 -0.3302
 1008SOL    HW114243   8.036   2.935   0.337 -1.6704 -0.6706  0.0009
 1008SOL    HW214244   8.147   2.890   0.449  1.8328  2.6086 -2.0358
 1009SOL     OW14245   8.360   6.506   4.875 -0.1551 -0.2326  0.0109
 1009SOL    HW114246   8.414   6.461   4.946 -1.5084 -2.0501 -0.0637
 1009SOL    HW214247   8.421   6.543   4.805  1.0652 -0.5710  0.8751
 1010SOL     OW14248   5.526   5.674   1.808 -0.0012 -0.1004  0.6113
 1010SOL    HW114249   5.482   5.710   1.725  0.9981 -1.0487 -0.3527
 1010SOL    HW214250   5.481   5.589   1.835 -1.0809  0.8176  1.7331
 1011SOL     OW14251   4.420   1.392   4.491 -0.4590  0.4944 -0.3795
 1011SOL    HW114252   4.517   1.375   4.511  0.1024  1.9854 -1.7596
 1011SOL    HW214253   4.394   1.342   4.408 -1.0021 -0.2791  0.2522
 1012SOL     OW14254   2.491   7.844   2.380  0.3352  0.5450 -0.0490
 1012SOL    HW114255   2.514   7.931   2.422  0.8757  0.2658  0.2377
 1012SOL    HW214256   2.520   7.769   2.441 -0.4248  0.1743 -0.1336
 1013SOL     OW14257   7.371   3.955   0.852  0.0834 -0.1346 -0.2144
 1013SOL    HW114258   7.280   3.992   0.873 -0.0761 -0.5823 -0.1074
 1013SOL    HW214259   7.426   4.025   0.807 -0.0681  0.3677  0.3782
 1014SOL     OW14260   1.250   5.941   0.573 -0.2504 -0.0658  0.2638
 1014SOL    HW114261   1.178   5.949   0.503  0.1381  1.8554  0.0470
 1014SOL    HW214262   1.249   6.023   0.630  1.1748 -0.4380  0.8345
 1015SOL     OW14263   2.362   6.846   1.384  1.1971  0.3285  0.0693
 1015SOL    HW114264   2.439   6.871   1.443  1.4934  0.4457 -0.3596
 1015SOL    HW214265   2.390   6.772   1.323  0.9478  0.3179 -0.0326
 1016SOL     OW14266   6.874   5.214   0.153 -0.4415 -0.2459 -0.2447
 1016SOL    HW114267   6.846   5.125   0.117 -0.0278 -0.6253  0.3599
 1016SOL    HW214268   6.951   5.249   0.100  1.0235 -1.4096  1.0647
 1017SOL     OW14269   2.012   0.278   4.564  0.0840  0.2899 -0.2365
 1017SOL    HW114270   1.930   0.256   4.618 -0.7882  0.3153 -1.5212
 1017SOL    HW214271   2.055   0.194   4.533  0.3229  0.2825  0.1177
 1018SOL     OW14272   3.491   7.029   0.722 -0.3161  0.1238  0.0860
 1018SOL    HW114273   3.527   6.937   0.710  0.3398  0.2946  0.7130
 1018SOL    HW214274   3.431   7.031   0.801 -0.2544  0.2520  0.1297
 1019SOL     OW14275   1.055   2.543   3.986 -0.2887 -0.3570 -0.4742
 1019SOL    HW114276   1.070   2.642   3.994 -0.2195 -0.4566  0.6770
 1019SOL    HW214277   1.140   2.499   3.957  0.6068 -0.4349  2.1060
 1020SOL     OW14278   5.781   3.357   0.257  0.5634 -0.2832  0.2089
 1020SOL    HW114279   5.789   3.442   0.205 -0.4188 -0.2563  0.0982
 1020SOL    HW214280   5.871   3.330   0.291  1.0062  0.3611 -0.4546
 1021SOL     OW14281   7.955   4.698   0.371 -0.2765 -0.2204  0.0494
 1021SOL    HW114282   7.976   4.654   0.458  2.4147  0.7263 -0.0577
 1021SOL    HW214283   7.887   4.770   0.386  1.3397  1.0267  1.7234
 1022SOL     OW14284   9.367   5.167   5.075  0.5881  0.1520 -0.1136
 1022SOL    HW114285   9.370   5.129   5.168 -0.0758 -0.3202 -0.2802
 1022SOL    HW214286   9.282   5.218   5.063  0.9092  0.6497 -0.3005
 1023SOL     OW14287   5.151   9.978   3.078  0.7467 -0.4883  0.0797
 1023SOL    HW114288   5.085  10.022   3.139 -1.2805 -1.6403 -1.2281
 1023SOL    HW214289   5.124   9.883   3.062 -0.5313  0.5486 -4.9231
 1024SOL     OW14290   0.420   3.661   5.527 -0.3132 -0.3832 -0.2363
 1024SOL    HW114291   0.388   3.754   5.542  1.9945  0.6263 -1.4115
 1024SOL    HW214292   0.487   3.636   5.597 -0.7172 -1.0643 -0.0827
 1025SOL     OW14293   4.928   9.792   6.096 -0.0646 -0.2208  0.3347
 1025SOL    HW114294   4.943   9.701   6.135 -1.0238 -0.6776 -0.3433
 1025SOL    HW214295   4.907   9.857   6.169  0.3252 -0.5988  0.7888
 1026SOL     OW14296   3.857   3.249   4.356  0.6800 -0.2196 -0.1524
 1026SOL    HW114297   3.871   3.163   4.307  0.5753 -0.6965  0.6523
 1026SOL    HW214298   3.900   3.244   4.446  0.1574  0.3398  0.1329
 1027SOL     OW14299   1.933   8.855   5.952 -0.3692  0.1723  0.3134
 1027SOL    HW114300   1.885   8.770   5.975 -0.1766 -0.0280 -0.0130
 1027SOL    HW214301   1.936   8.914   6.032 -0.4453 -0.1613  0.5649
 1028SOL     OW14302   8.544   1.451   1.569 -0.1414 -0.0917  0.8442
 1028SOL    HW114303   8.489   1.376   1.606  0.6120 -0.6850  0.7731
 1028SOL    HW214304   8.574   1.510   1.644 -0.6874  0.1153  0.9063
 1029SOL     OW14305   4.436   4.596   0.371  0.1453 -0.4209  0.4416
 1029SOL    HW114306   4.494   4.524   0.334  0.4133 -0.6191  1.2521
 1029SOL    HW214307   4.399   4.651   0.295  1.9367  0.1354 -0.0496
 1030SOL     OW14308   9.679   2.188   0.546  0.1117  0.1283 -0.4429
 1030SOL    HW114309   9.668   2.171   0.448  2.5668  2.0117 -1.0855
 1030SOL    HW214310   9.591   2.178   0.591 -1.1236 -0.4630 -2.8838
 1031SOL     OW14311   7.013   0.794   6.026 -0.2916  0.2533 -0.1871
 1031SOL    HW114312   6.917   0.823   6.023 -0.1057  0.7738 -1.1057
 1031SOL    HW214313   7.034   0.759   6.118 -1.3997 -0.0111 -0.0223
 1032SOL     OW14314   8.967   6.960   2.017  0.5045 -0.7043  0.3899
 1032SOL    HW114315   8.971   6.966   2.117  1.4294  0.3540  0.2925
 1032SOL    HW214316   8.879   6.994   1.985  0.1857 -1.0863  0.8453
 1033SOL     OW14317   8.420   7.607   5.794  0.1626 -0.3514  0.5254
 1033SOL    HW114318   8.384   7.525   5.839  0.0525 -0.0004  1.0774
 1033SOL    HW214319   8.358   7.635   5.721 -0.4382 -0.0286  1.1572
 1034SOL     OW14320   2.215   8.747   2.380  0.2361  0.4157  0.1665
 1034SOL    HW114321   2.205   8.649   2.394  1.7956  0.4034  1.3684
 1034SOL    HW214322   2.216   8.767   2.282  1.9806 -1.0251 -0.1433
 1035SOL     OW14323   2.620   3.002   4.109  0.0530 -0.6114  0.1824
 1035SOL    HW114324   2.665   3.044   4.030 -0.3777 -0.1242  0.1902
 1035SOL    HW214325   2.662   2.913   4.129  1.6729  0.2638  0.7939
 1036SOL     OW14326   4.025   3.436   1.642  0.0094 -0.5666  0.0566
 1036SOL    HW114327   4.086   3.360   1.661  0.4581 -0.4061 -0.7186
 1036SOL    HW214328   3.993   3.432   1.548  0.1609  0.2858 -0.0421
 1037SOL     OW14329   4.468   8.460   3.625 -0.0895  0.4746 -0.3374
 1037SOL    HW114330   4.409   8.521   3.678 -0.2238 -0.2758  0.3942
 1037SOL    HW214331   4.465   8.485   3.528 -1.1489  0.8089 -0.2165
 1038SOL     OW14332   7.524   5.151   0.133 -0.2863  0.0623  0.0092
 1038SOL    HW114333   7.425   5.138   0.129 -0.1338 -0.4436 -2.6002
 1038SOL    HW214334   7.569   5.064   0.154 -0.2423 -0.3232 -1.6208
 1039SOL     OW14335   8.657   0.620   1.288 -0.5059 -0.2647  0.4956
 1039SOL    HW114336   8.728   0.689   1.278 -0.4782 -0.5009 -1.0389
 1039SOL    HW214337   8.569   0.664   1.307 -0.6783  0.2764 -1.4380
 1040SOL     OW14338   5.407   0.375   4.231  0.4964 -0.0026  0.3634
 1040SOL    HW114339   5.377   0.464   4.198 -0.1160  0.2351  1.5453
 1040SOL    HW214340   5.343   0.341   4.300 -0.5183 -2.3934 -1.6822
 1041SOL     OW14341   9.373   6.528   1.711  0.2730  0.3378  0.7873
 1041SOL    HW114342   9.445   6.518   1.780 -1.3715 -1.5201  2.2830
 1041SOL    HW214343   9.319   6.609   1.730  0.8533  0.7480  0.7013
 1042SOL     OW14344   2.896   9.738   1.112  0.7830  0.2060  0.0182
 1042SOL    HW114345   2.928   9.748   1.018  0.4222 -0.7400 -0.2044
 1042SOL    HW214346   2.938   9.657   1.153 -1.2984 -1.0469 -0.2727
 1043SOL     OW14347   7.995   8.237   3.583 -0.1374  0.3075  0.7595
 1043SOL    HW114348   8.074   8.262   3.526  0.7448 -0.5672  1.5732
 1043SOL    HW214349   7.953   8.320   3.619  0.5964  0.7786  0.5480
 1044SOL     OW14350   3.808   3.012   0.636  0.1565  0.0928 -0.0030
 1044SOL    HW114351   3.773   3.097   0.597 -0.3096  0.2293  0.6990
 1044SOL    HW214352   3.820   3.023   0.735 -1.6306 -1.2146  0.3927
 1045SOL     OW14353   8.538   3.167   2.499 -0.2319  0.0287  0.1954
 1045SOL    HW114354   8.551   3.164   2.598 -1.5964 -1.6083  0.3688
 1045SOL    HW214355   8.499   3.080   2.469 -1.1826  1.0412 -1.5823
 1046SOL     OW14356   9.858   2.946   5.395 -0.4134  0.5573 -0.2976
 1046SOL    HW114357   9.793   2.873   5.413 -1.5329  1.6036 -0.0601
 1046SOL    HW214358   9.948   2.920   5.431 -0.7157 -0.8351 -0.5167
 1047SOL     OW14359   1.065   1.380   2.447 -0.6040 -0.1101  0.1830
 1047SOL    HW114360   1.031   1.412   2.536  2.9977  0.9287  1.2762
 1047SOL    HW214361   1.164   1.373   2.451 -0.6101 -2.7654 -2.9476
 1048SOL     OW14362   7.476   7.978   3.274 -0.2512  0.1853  0.5085
 1048SOL    HW114363   7.548   7.995   3.207 -1.3258  1.5627 -0.3236
 1048SOL    HW214364   7.435   7.889   3.256 -0.0120  0.2085 -0.1885
 1049SOL     OW14365   8.729   8.614   4.984 -0.4134  0.3217  0.1003
 1049SOL    HW114366   8.661   8.625   4.912 -0.2026  1.2879  0.0379
 1049SOL    HW214367   8.765   8.704   5.010  1.5812 -0.2617 -0.5720
 1050SOL     OW14368   5.487   8.176   6.442  0.0588  0.2421  0.6972
 1050SOL    HW114369   5.389   8.193   6.432  0.2046  0.0371 -1.4293
 1050SOL    HW214370   5.510   8.090   6.395  1.4375  0.9103  0.1316
 1051SOL     OW14371   3.446   3.621   3.765  0.0245  0.1205 -0.1584
 1051SOL    HW114372   3.423   3.706   3.717  1.5556  0.1365 -0.8808
 1051SOL    HW214373   3.368   3.592   3.820 -0.2745  2.4039  0.6965
 1052SOL     OW14374   2.018   7.048   1.902 -0.3052 -0.4911  0.3887
 1052SOL    HW114375   1.937   7.007   1.859 -0.3373 -0.2938  0.2608
 1052SOL    HW214376   1.991   7.130   1.952  0.1137  0.7327 -1.3317
 1053SOL     OW14377   5.695   1.793   1.338  0.1540 -0.2503 -0.4535
 1053SOL    HW114378   5.704   1.754   1.246 -1.5766 -1.8488  0.0270
 1053SOL    HW214379   5.617   1.855   1.341  0.4201  0.0778 -0.1343
 1054SOL     OW14380   2.742   3.952   4.128 -0.4347  0.1233  0.3762
 1054SOL    HW114381   2.729   4.048   4.103 -0.0528  0.0293 -0.2076
 1054SOL    HW214382   2.653   3.908   4.138 -0.6122  0.5608  0.7237
 1055SOL     OW14383   4.298   8.889   6.940  0.3394  0.2434  0.3595
 1055SOL    HW114384   4.248   8.963   6.985  0.5473 -0.1254  1.1941
 1055SOL    HW214385   4.391   8.920   6.920  0.5152  0.1136  0.9657
 1056SOL     OW14386   8.533   6.492   2.014  0.5332  0.6702 -0.3288
 1056SOL    HW114387   8.589   6.531   1.941  0.5968  0.4356 -0.4049
 1056SOL    HW214388   8.521   6.394   1.998 -0.7772  0.9151 -0.8771
 1057SOL     OW14389   8.462   1.493   5.495 -0.6415 -0.0414 -0.1803
 1057SOL    HW114390   8.460   1.406   5.545 -0.3118  0.9009  1.5184
 1057SOL    HW214391   8.396   1.556   5.535  0.8063  1.3046  0.1451
 1058SOL     OW14392   0.073   2.507   1.743  0.0004  0.0782 -0.0962
 1058SOL    HW114393   0.119   2.420   1.727 -0.6302 -0.5226  1.2361
 1058SOL    HW214394  -0.026   2.495   1.730 -0.0222  0.7440 -0.5301
 1059SOL     OW14395   8.470   6.721   2.341 -0.0497 -0.9361 -0.5284
 1059SOL    HW114396   8.388   6.749   2.292  0.7041  0.2250 -1.1392
 1059SOL    HW214397   8.486   6.623   2.327 -0.9940 -1.0397 -0.8847
 1060SOL     OW14398   8.352   6.940   2.808  0.1460  0.6025 -0.6537
 1060SOL    HW114399   8.376   6.890   2.725  1.3310 -0.6036  0.3868
 1060SOL    HW214400   8.256   6.968   2.804 -0.4409 -1.4547 -1.4087
 1061SOL     OW14401   1.462   7.309   2.332 -0.3041  0.2537 -0.5914
 1061SOL    HW114402   1.468   7.301   2.431  2.1167  0.0340 -0.7323
 1061SOL    HW214403   1.400   7.240   2.296 -0.6441 -0.1154  0.6971
 1062SOL     OW14404   0.713   5.275   1.387 -0.5735 -0.2789 -0.3584
 1062SOL    HW114405   0.708   5.192   1.442 -2.8290  0.0511  0.0049
 1062SOL    HW214406   0.647   5.270   1.312 -0.4921  1.0148 -0.5355
 1063SOL     OW14407   6.663   5.841   7.924 -0.6323 -0.3629 -0.1455
 1063SOL    HW114408   6.622   5.927   7.954  2.1970  1.2035 -0.6099
 1063SOL    HW214409   6.611   5.764   7.961 -1.1783  1.5351  3.1533
 1064SOL     OW14410   4.693   6.716   1.689  1.1195 -0.5021 -0.2322
 1064SOL    HW114411   4.597   6.740   1.681  0.7143 -1.1813  2.1727
 1064SOL    HW214412   4.748   6.777   1.632 -0.4454  2.0680  0.9290
 1065SOL     OW14413   7.004   1.435   3.566 -0.1650  0.0837 -0.4766
 1065SOL    HW114414   7.082   1.384   3.601 -2.0671 -0.4095  3.2672
 1065SOL    HW214415   7.025   1.533   3.566 -0.1419  0.1210  2.3236
 1066SOL     OW14416   4.401   2.146   3.250 -0.3930  0.6047 -0.3516
 1066SOL    HW114417   4.363   2.233   3.281 -2.1361  0.3745 -1.8020
 1066SOL    HW214418   4.402   2.081   3.325 -4.5832  0.0421 -0.6906
 1067SOL     OW14419   4.356   5.079   3.891 -0.2990  0.0864  0.1730
 1067SOL    HW114420   4.278   5.039   3.938 -0.2044 -1.1228 -0.6791
 1067SOL    HW214421   4.361   5.177   3.913 -1.6628  0.0434  0.7550
 1068SOL     OW14422   1.093   4.847   3.271  0.0311  0.1093 -0.4605
 1068SOL    HW114423   1.178   4.842   3.324 -0.5079  0.4691  0.4502
 1068SOL    HW214424   1.015   4.856   3.333 -0.4663  2.3074 -1.3746
 1069SOL     OW14425   2.313   6.160   3.052  0.0876  0.5514  0.3451
 1069SOL    HW114426   2.228   6.137   3.004 -0.1018  2.9884 -0.5306
 1069SOL    HW214427   2.295   6.170   3.149 -0.0046 -1.9582  0.6290
 1070SOL     OW14428   8.361   4.580   4.625 -0.8180  0.0893  0.7265
 1070SOL    HW114429   8.415   4.622   4.698 -0.7860  0.7529  0.3317
 1070SOL    HW214430   8.422   4.529   4.564 -0.2970  2.5132 -0.8833
 1071SOL     OW14431   0.824   6.558   0.861  0.0286 -0.4028 -0.4444
 1071SOL    HW114432   0.747   6.548   0.798  1.0827 -0.8422 -1.6826
 1071SOL    HW214433   0.803   6.629   0.929 -0.8244  0.5930 -1.7261
 1072SOL     OW14434   3.643   2.793   0.572  0.3605 -0.5402 -0.3740
 1072SOL    HW114435   3.692   2.715   0.612  0.4532 -0.6264 -0.6551
 1072SOL    HW214436   3.690   2.878   0.597  0.4383 -0.5966 -0.3283
 1073SOL     OW14437   3.085   9.397   3.959 -0.3932 -0.2480 -0.4131
 1073SOL    HW114438   3.157   9.358   4.016 -1.5633 -1.9820 -0.0758
 1073SOL    HW214439   3.035   9.466   4.011  0.4375  0.3177 -0.3545
 1074SOL     OW14440   3.278   2.691   0.835  0.2803 -0.1231 -0.1591
 1074SOL    HW114441   3.358   2.745   0.861 -0.7151  1.3728 -0.1469
 1074SOL    HW214442   3.278   2.606   0.887  1.3945  0.2486  0.4855
 1075SOL     OW14443   3.991   3.595   5.354 -0.1179 -0.3537  0.0051
 1075SOL    HW114444   4.089   3.597   5.332 -0.4507 -0.9104 -1.5329
 1075SOL    HW214445   3.972   3.663   5.425  1.4169 -0.3922  0.4777
 1076SOL     OW14446   3.946   2.667   5.916  0.3030  0.2661 -0.2352
 1076SOL    HW114447   3.871   2.731   5.902  0.9573  0.7751 -1.4934
 1076SOL    HW214448   3.969   2.664   6.014 -1.0503  0.4399  0.0928
 1077SOL     OW14449   8.086   4.110   4.952  0.3056  0.1674  0.3280
 1077SOL    HW114450   8.129   4.019   4.953 -1.7298 -0.8297 -0.1288
 1077SOL    HW214451   8.150   4.176   4.912  1.1396 -1.4286 -1.0468
 1078SOL     OW14452   0.981   9.844   0.204 -0.1189  0.4725 -0.4272
 1078SOL    HW114453   1.009   9.935   0.237 -0.1361  0.7277 -1.1075
 1078SOL    HW214454   1.062   9.786   0.194 -0.2032  0.0775  0.9704
 1079SOL     OW14455   1.232   3.766   4.732  1.1403  0.3793 -0.4853
 1079SOL    HW114456   1.176   3.683   4.735  1.0809  0.4222 -0.4151
 1079SOL    HW214457   1.193   3.835   4.793 -0.7581  1.6717 -3.0447
 1080SOL     OW14458   1.544   8.943   3.143 -0.1423 -0.1763 -0.0345
 1080SOL    HW114459   1.614   8.984   3.083  0.5982 -0.0878  0.8711
 1080SOL    HW214460   1.568   8.962   3.239 -1.7599  0.4040  0.2626
 1081SOL     OW14461   3.784   9.361   1.521  0.6661  0.1974  0.7366
 1081SOL    HW114462   3.798   9.324   1.612 -1.5536  2.5748  2.1513
 1081SOL    HW214463   3.860   9.421   1.497  1.0366 -0.0683  1.2455
 1082SOL     OW14464   3.394   5.806   0.040 -0.4908  0.4612 -0.2821
 1082SOL    HW114465   3.484   5.792   0.080 -0.5354 -1.7799 -0.8727
 1082SOL    HW214466   3.403   5.846  -0.051 -0.1479  1.1860  0.0714
 1083SOL     OW14467   2.038   3.606   5.262  0.0407 -0.5520 -0.3899
 1083SOL    HW114468   2.006   3.569   5.349  3.8031 -2.8553  0.0959
 1083SOL    HW214469   2.099   3.683   5.278 -0.4795  0.0196 -1.0883
 1084SOL     OW14470   4.354   8.681   0.519  0.4889 -0.0763 -0.3718
 1084SOL    HW114471   4.447   8.718   0.520  0.3653  0.2327 -0.4337
 1084SOL    HW214472   4.304   8.720   0.442  0.8131 -1.4741 -1.3152
 1085SOL     OW14473   4.318   1.537   0.825  0.8772  0.0751 -0.1419
 1085SOL    HW114474   4.286   1.609   0.887  1.2349 -0.3647  0.5620
 1085SOL    HW214475   4.394   1.572   0.770  0.1712  0.6548 -0.7677
 1086SOL     OW14476   3.199   0.421   2.844  0.6984  0.5618  0.1896
 1086SOL    HW114477   3.103   0.426   2.869  0.5074  1.5850 -0.6766
 1086SOL    HW214478   3.256   0.442   2.923  0.2239 -0.3049  0.7678
 1087SOL     OW14479   3.841   0.063   1.964 -0.5218  0.1148  0.2882
 1087SOL    HW114480   3.784  -0.007   1.921 -1.3239  0.0527  1.4439
 1087SOL    HW214481   3.937   0.044   1.944 -0.8438 -0.3638 -0.8026
 1088SOL     OW14482   6.646   9.567   3.729 -0.4327 -0.0050 -0.4815
 1088SOL    HW114483   6.740   9.599   3.735 -0.8817  1.4776 -1.1483
 1088SOL    HW214484   6.590   9.615   3.797 -0.9748  0.1263 -1.0137
 1089SOL     OW14485   1.478   4.965   1.552 -0.2986 -0.4584  1.1657
 1089SOL    HW114486   1.385   4.937   1.573 -0.7584 -0.1793 -0.4075
 1089SOL    HW214487   1.495   5.057   1.587 -1.5668  0.6388 -0.9774
 1090SOL     OW14488   2.220   3.300   5.636  0.3602 -0.2732 -0.3884
 1090SOL    HW114489   2.296   3.278   5.696 -1.2026 -1.2270  1.3055
 1090SOL    HW214490   2.206   3.226   5.571 -0.3041 -0.9826  0.5474
 1091SOL     OW14491   0.078   7.726   1.128 -0.4360 -0.2123  0.6640
 1091SOL    HW114492   0.159   7.783   1.120 -1.1223  0.7200  0.2630
 1091SOL    HW214493   0.103   7.630   1.118  0.5945  0.0825  0.4229
 1092SOL     OW14494   0.008   3.196   6.081  0.3168  0.4184  0.0064
 1092SOL    HW114495   0.101   3.165   6.061  0.2589  1.1284 -1.4500
 1092SOL    HW214496  -0.006   3.288   6.043 -1.4770 -0.3334 -1.2456
 1093SOL     OW14497   7.123   1.520   5.859 -0.3384  0.3770 -0.6008
 1093SOL    HW114498   7.173   1.595   5.902 -1.3436  0.5753  0.2587
 1093SOL    HW214499   7.172   1.434   5.873 -0.8342  0.3776  1.3167
 1094SOL     OW14500   9.002   8.395   1.382 -0.1155  0.4902 -0.4426
 1094SOL    HW114501   8.969   8.483   1.417  0.2348  0.1646  0.7486
 1094SOL    HW214502   9.099   8.403   1.359  0.2263  0.1107  0.8049
 1095SOL     OW14503   6.728   8.823   5.280 -0.2080 -0.2476 -0.4740
 1095SOL    HW114504   6.765   8.751   5.221 -0.8195 -0.7865 -0.2045
 1095SOL    HW214505   6.803   8.863   5.333  0.0435 -1.1768 -0.1023
 1096SOL     OW14506   2.480   5.491   4.964 -0.6569  0.2279 -0.1695
 1096SOL    HW114507   2.536   5.432   4.906 -1.0793  0.3979 -0.7489
 1096SOL    HW214508   2.449   5.439   5.044 -0.0076  0.0195 -0.0475
 1097SOL     OW14509   2.788   3.732   5.819 -0.4426  0.0786  0.2086
 1097SOL    HW114510   2.783   3.671   5.899 -1.5736  0.5890  0.5414
 1097SOL    HW214511   2.874   3.717   5.771  0.1321 -0.4327  1.3722
 1098SOL     OW14512   9.866   2.979   5.125  0.6766  0.2577 -0.0999
 1098SOL    HW114513   9.867   3.067   5.079  3.1113  0.6146  0.5788
 1098SOL    HW214514   9.877   2.992   5.224 -0.2852 -0.7334  0.1584
 1099SOL     OW14515   5.574   0.706   4.063 -0.4851  0.0602 -0.2829
 1099SOL    HW114516   5.497   0.653   4.098 -1.2932  1.2389 -0.2330
 1099SOL    HW214517   5.634   0.731   4.139 -1.6489  1.6722  0.1225
 1100SOL     OW14518   8.427   8.970   5.506 -0.0572  0.2987 -0.4728
 1100SOL    HW114519   8.440   8.901   5.577 -1.3974  1.2732  0.7435
 1100SOL    HW214520   8.516   8.993   5.466  0.4935 -1.5127 -0.3076
 1101SOL     OW14521   0.900   9.973   5.262  0.3682 -0.2601 -0.3834
 1101SOL    HW114522   0.930   9.879   5.245 -0.2606 -0.5762  0.1956
 1101SOL    HW214523   0.895   9.988   5.361 -1.9803 -0.4301 -0.4536
 1102SOL     OW14524   0.429   1.557   6.332 -0.2508 -0.8375 -0.5863
 1102SOL    HW114525   0.462   1.625   6.267 -0.5181  0.4869  0.6333
 1102SOL    HW214526   0.500   1.537   6.399 -0.1611 -1.7970 -0.9597
 1103SOL     OW14527   9.634   6.170   5.518 -0.1464 -0.2417 -0.1532
 1103SOL    HW114528   9.587   6.096   5.566  0.6872  0.1131  1.2369
 1103SOL    HW214529   9.605   6.172   5.423 -1.6008 -1.1590  0.2601
 1104SOL     OW14530   6.618   8.543   5.881 -0.1275  0.3864  0.1475
 1104SOL    HW114531   6.605   8.447   5.857  2.0183  0.1868 -0.3824
 1104SOL    HW214532   6.646   8.550   5.977 -0.9301  0.5331  0.3697
 1105SOL     OW14533   0.520   8.828   0.586  0.6899  0.4709 -0.3209
 1105SOL    HW114534   0.560   8.740   0.608 -1.4093 -0.6529 -0.8322
 1105SOL    HW214535   0.512   8.883   0.669  3.4314  0.8237 -0.2556
 1106SOL     OW14536   1.503   3.671   0.300 -0.9831 -0.5868  0.7564
 1106SOL    HW114537   1.570   3.742   0.323 -2.5516  1.5589 -1.0057
 1106SOL    HW214538   1.542   3.609   0.232 -0.7089  0.5953 -0.1886
 1107SOL     OW14539   2.296   4.351   3.502  0.0840  0.3086  0.1280
 1107SOL    HW114540   2.391   4.342   3.531  0.4826  0.6224 -1.0446
 1107SOL    HW214541   2.281   4.297   3.419 -0.5979  0.7681 -0.0520
 1108SOL     OW14542   0.098   2.727   1.421 -0.8996  0.0705 -0.1678
 1108SOL    HW114543   0.166   2.772   1.480 -0.1537  0.2259 -1.1309
 1108SOL    HW214544   0.133   2.638   1.392 -1.4148 -0.1550 -0.0943
 1109SOL     OW14545   3.900   8.620   3.821 -0.3432  0.3449  0.0057
 1109SOL    HW114546   3.830   8.586   3.884 -0.8745  1.1424 -0.1428
 1109SOL    HW214547   3.956   8.689   3.866 -0.8242  1.0308 -0.4264
 1110SOL     OW14548   2.668   5.907   3.108 -0.2030 -0.2769  0.0708
 1110SOL    HW114549   2.620   5.858   3.181  0.1415 -0.4376  0.1928
 1110SOL    HW214550   2.602   5.949   3.047 -0.4965 -0.2593  0.4000
 1111SOL     OW14551   7.703   5.300   5.902  0.3694 -0.1209  0.2500
 1111SOL    HW114552   7.660   5.390   5.903  1.2773  0.3015  1.4030
 1111SOL    HW214553   7.795   5.307   5.863 -0.4339 -0.9668 -1.8937
 1112SOL     OW14554   8.578   0.097   6.556 -0.1141 -0.4774 -0.5435
 1112SOL    HW114555   8.489   0.065   6.523 -0.0171  0.6936 -1.9803
 1112SOL    HW214556   8.640   0.019   6.564 -1.7446 -1.5709  2.1346
 1113SOL     OW14557   6.420   0.907   5.265  0.0532 -0.7232  0.3291
 1113SOL    HW114558   6.395   0.837   5.332 -2.3384 -1.9834 -1.7772
 1113SOL    HW214559   6.387   0.996   5.296 -0.2858 -1.1516  1.2085
 1114SOL     OW14560   2.453   1.459   4.714  0.1410 -0.5683 -0.1205
 1114SOL    HW114561   2.355   1.477   4.698 -0.0945 -1.0505  0.7555
 1114SOL    HW214562   2.507   1.512   4.649 -0.7141 -0.5038 -0.7972
 1115SOL     OW14563   7.266   0.627   3.916 -0.2914 -0.6674  0.0289
 1115SOL    HW114564   7.171   0.652   3.933  0.4101  2.1285  0.0770
 1115SOL    HW214565   7.303   0.579   3.996 -1.1278 -0.1293  0.7386
 1116SOL     OW14566   3.620   1.785   6.178 -0.3000 -0.1310 -0.5970
 1116SOL    HW114567   3.606   1.878   6.212  0.1927 -0.2333 -0.1254
 1116SOL    HW214568   3.696   1.784   6.113 -0.9693 -0.0135 -1.3905
 1117SOL     OW14569   1.139   0.063   4.911  0.0262  0.6727  0.3851
 1117SOL    HW114570   1.074   0.105   4.975  2.9379  1.3753  3.0278
 1117SOL    HW214571   1.138  -0.036   4.923  0.4064  0.7842  1.4402
 1118SOL     OW14572   8.643   0.934   3.774 -0.0572  0.6744  0.6175
 1118SOL    HW114573   8.578   1.005   3.745 -0.6892 -0.4425 -0.7273
 1118SOL    HW214574   8.636   0.856   3.713  2.6292  0.5656  0.4106
 1119SOL     OW14575   7.663   3.484   3.553  0.3544 -0.1896  0.1225
 1119SOL    HW114576   7.696   3.394   3.581 -0.7355 -1.4119 -2.3536
 1119SOL    HW214577   7.568   3.494   3.581  0.4286  0.1396  0.2537
 1120SOL     OW14578   7.728   5.728   3.897  0.1772  0.1598  0.3754
 1120SOL    HW114579   7.798   5.791   3.931 -0.5030  1.4880 -0.6152
 1120SOL    HW214580   7.760   5.634   3.907  1.5346  0.6901  1.1821
 1121SOL     OW14581   8.911   8.639   1.479 -0.4195  0.2900  0.7278
 1121SOL    HW114582   8.902   8.716   1.415  0.2582 -0.1195  0.1433
 1121SOL    HW214583   8.992   8.653   1.536  1.7171 -1.6928 -1.7204
 1122SOL     OW14584   3.708   3.956   1.185 -0.2529  0.4159  0.0727
 1122SOL    HW114585   3.627   3.911   1.150 -0.0730  0.8522 -0.9182
 1122SOL    HW214586   3.781   3.952   1.117  0.1947  1.0084  0.5087
 1123SOL     OW14587   2.652   7.928   3.909 -0.2590  0.0333  0.0124
 1123SOL    HW114588   2.612   8.006   3.862  0.4628  0.8716  0.7852
 1123SOL    HW214589   2.709   7.959   3.985  2.3001 -1.0934 -1.3630
 1124SOL     OW14590   2.402   1.413   3.875 -0.2121 -0.1555  0.0398
 1124SOL    HW114591   2.319   1.360   3.892 -0.4899  0.1792 -0.2613
 1124SOL    HW214592   2.418   1.477   3.951 -0.3367 -0.0821  0.0036
 1125SOL     OW14593   4.175   2.328   1.628  0.6002 -0.1314  0.1269
 1125SOL    HW114594   4.216   2.398   1.686 -0.1227  0.7646 -0.4153
 1125SOL    HW214595   4.169   2.362   1.534  1.1636 -1.3152 -0.3459
 1126SOL     OW14596   1.288   7.113   2.281  0.0957 -0.9561  0.3548
 1126SOL    HW114597   1.221   7.120   2.207  2.3858 -2.7989 -2.0183
 1126SOL    HW214598   1.313   7.017   2.294  2.1120 -0.3308  1.3121
 1127SOL     OW14599   6.600   0.000   5.435  0.6970  0.1413  0.0753
 1127SOL    HW114600   6.587   0.071   5.365  0.8209 -0.0488 -0.1413
 1127SOL    HW214601   6.596   0.042   5.526  1.4067  0.5314 -0.0669
 1128SOL     OW14602   1.368   1.145   0.032  0.5010  0.2709 -0.3266
 1128SOL    HW114603   1.429   1.222   0.013 -1.1494  1.6763 -0.0996
 1128SOL    HW214604   1.290   1.177   0.085  0.1629 -1.7256  0.4251
 1129SOL     OW14605   0.455   1.446   4.234  0.9156  0.0369 -0.0436
 1129SOL    HW114606   0.393   1.369   4.254 -1.5761  2.3566  1.4568
 1129SOL    HW214607   0.436   1.479   4.141 -0.6073  1.1569  0.6459
 1130SOL     OW14608   2.356   3.304   4.536  0.0006  0.3319  0.9146
 1130SOL    HW114609   2.340   3.306   4.437  1.0032  1.1304  0.7602
 1130SOL    HW214610   2.407   3.222   4.560 -0.6955 -0.1291  0.8515
 1131SOL     OW14611   6.856   7.935   3.457 -0.1000 -0.2578 -0.0377
 1131SOL    HW114612   6.776   7.971   3.505  1.0866  1.7638  0.4645
 1131SOL    HW214613   6.885   8.000   3.387  1.4395 -0.7329  0.1599
 1132SOL     OW14614   3.127   7.240   8.103  0.0799 -0.0800  0.2588
 1132SOL    HW114615   3.154   7.260   8.008  1.6244 -0.0707  0.6746
 1132SOL    HW214616   3.090   7.148   8.108  0.5368 -0.2988 -0.2559
 1133SOL     OW14617   3.528   1.453   1.290 -0.4242 -0.2629  0.1875
 1133SOL    HW114618   3.603   1.470   1.226  1.2199 -1.4969  1.7175
 1133SOL    HW214619   3.470   1.534   1.295  0.5101  0.5362 -1.4156
 1134SOL     OW14620   1.213   5.086   2.689  0.7137  0.2320  0.9001
 1134SOL    HW114621   1.201   5.024   2.612 -0.2720  0.7069  0.6600
 1134SOL    HW214622   1.309   5.090   2.714  0.9303 -0.5524  0.2214
 1135SOL     OW14623   2.690   0.648   0.586 -0.0739 -0.4079  0.3095
 1135SOL    HW114624   2.765   0.641   0.652  0.7606  2.6033 -0.2142
 1135SOL    HW214625   2.684   0.564   0.532  3.1256 -0.6301  0.2058
 1136SOL     OW14626   2.153   0.236   4.133  0.2561 -0.4862  0.0356
 1136SOL    HW114627   2.186   0.310   4.075 -0.8246  0.7478  0.9582
 1136SOL    HW214628   2.220   0.217   4.204  0.2251  0.1271  0.2384
 1137SOL     OW14629   9.748   0.328   3.853  0.4983 -0.0375  0.1250
 1137SOL    HW114630   9.783   0.367   3.768  1.2107 -1.5329 -0.2710
 1137SOL    HW214631   9.660   0.285   3.836  0.4016  0.1080  0.2550
 1138SOL     OW14632   1.860   4.961   5.385 -0.4315 -0.2115  0.2532
 1138SOL    HW114633   1.874   5.001   5.475 -3.3907 -1.3912  1.3310
 1138SOL    HW214634   1.929   4.995   5.321  1.6803  0.6763  2.9355
 1139SOL     OW14635   4.201   0.545   6.770 -0.2121  0.5236  0.0006
 1139SOL    HW114636   4.265   0.594   6.712  1.0592 -2.0648 -0.8849
 1139SOL    HW214637   4.109   0.583   6.759  0.4963  1.8291 -1.6113
 1140SOL     OW14638   3.953   2.206   1.720  0.0243 -0.1014  0.4508
 1140SOL    HW114639   4.040   2.240   1.686 -0.6169  1.3597  0.2264
 1140SOL    HW214640   3.908   2.152   1.649  0.8506 -1.0822  0.6570
 1141SOL     OW14641   4.399   4.943   7.967  0.0053  0.0751  0.2479
 1141SOL    HW114642   4.394   4.921   7.870  0.9825 -2.3366  0.7119
 1141SOL    HW214643   4.320   4.903   8.014  0.9433 -1.0918  0.8522
 1142SOL     OW14644   8.851   8.114   3.232 -0.3117 -0.3219 -0.1153
 1142SOL    HW114645   8.814   8.206   3.217 -0.5375 -0.6902 -1.9004
 1142SOL    HW214646   8.778   8.053   3.262 -0.0828  0.1434  1.4871
 1143SOL     OW14647   4.210   8.920   2.120  0.3202 -0.1475  0.1246
 1143SOL    HW114648   4.132   8.912   2.058 -0.3219  0.3261  0.8710
 1143SOL    HW214649   4.251   9.011   2.111 -0.3885  0.2785  1.1119
 1144SOL     OW14650   9.606   3.877   5.556 -0.3589 -0.2596 -0.4136
 1144SOL    HW114651   9.653   3.789   5.546  1.9589  0.9703 -0.6720
 1144SOL    HW214652   9.548   3.893   5.476 -1.1109 -1.7209 -0.1757
 1145SOL     OW14653   8.101   9.665   4.059  0.0258 -0.4357 -1.0920
 1145SOL    HW114654   8.044   9.720   3.999  0.7371 -0.1716 -1.5346
 1145SOL    HW214655   8.145   9.592   4.006 -1.2041 -1.6695 -0.4417
 1146SOL     OW14656   2.577   1.913   0.005 -0.8637 -0.4022 -0.3296
 1146SOL    HW114657   2.536   1.945  -0.080  0.4283 -0.4913 -0.9971
 1146SOL    HW214658   2.638   1.983   0.041 -0.9324 -0.6137  0.2110
 1147SOL     OW14659   1.284   9.802   1.239 -0.8694 -0.4858  0.3762
 1147SOL    HW114660   1.304   9.757   1.152 -1.4307  0.3417 -0.1865
 1147SOL    HW214661   1.226   9.743   1.294 -0.2535 -1.1474  0.3142
 1148SOL     OW14662   5.513   1.321   5.629  0.6797  0.5036  0.4824
 1148SOL    HW114663   5.594   1.373   5.602  0.9447  0.1801  0.6663
 1148SOL    HW214664   5.528   1.277   5.717  1.2525 -1.6538 -0.6621
 1149SOL     OW14665   6.155   1.065   4.956  0.2091  0.3326  0.3391
 1149SOL    HW114666   6.237   1.040   5.008  0.3526 -0.4154 -0.2365
 1149SOL    HW214667   6.122   1.154   4.987  2.3074  1.5075 -0.6945
 1150SOL     OW14668   3.949   0.769   4.287  0.0740  1.0095 -0.1801
 1150SOL    HW114669   3.948   0.756   4.188  0.5034  0.3466 -0.0968
 1150SOL    HW214670   3.987   0.859   4.308  2.6680  0.0140 -0.4962
 1151SOL     OW14671   6.968   2.965   4.387 -0.0262 -0.7172  0.6366
 1151SOL    HW114672   6.919   2.878   4.397  0.3534 -1.1107 -0.8247
 1151SOL    HW214673   6.917   3.024   4.324 -0.1915  0.0663  1.4879
 1152SOL     OW14674   7.969   0.390   2.143 -0.2679 -0.5289 -0.0068
 1152SOL    HW114675   8.000   0.466   2.085 -0.0495 -0.0961  0.6709
 1152SOL    HW214676   7.880   0.357   2.111 -0.7475  0.5527  0.1939
 1153SOL     OW14677   4.470   4.973   1.145  0.0827 -0.4755  0.5835
 1153SOL    HW114678   4.494   4.915   1.223  1.3781  0.4636  0.8857
 1153SOL    HW214679   4.550   4.987   1.087  0.5328  3.3016  2.0073
 1154SOL     OW14680   6.278   5.964   1.042  0.3468 -0.0174  0.5256
 1154SOL    HW114681   6.199   6.024   1.033  0.8288  0.8614  1.9381
 1154SOL    HW214682   6.249   5.869   1.038 -0.4741  0.2942 -1.3607
 1155SOL     OW14683   3.001   1.955   0.845 -0.4463  0.6702  0.3635
 1155SOL    HW114684   3.064   2.032   0.855 -0.6102  0.6438  1.6177
 1155SOL    HW214685   2.962   1.956   0.752  0.5855  1.2944 -0.0665
 1156SOL     OW14686   8.950   3.353   0.205 -0.0084 -0.3277  0.1122
 1156SOL    HW114687   8.893   3.301   0.142 -2.3891  0.8324  1.2580
 1156SOL    HW214688   8.931   3.324   0.299  0.6788  0.6811  0.5672
 1157SOL     OW14689   1.832   4.107   1.810  0.1065  0.7158 -0.0259
 1157SOL    HW114690   1.872   4.065   1.891 -2.2846  0.1274  0.8870
 1157SOL    HW214691   1.872   4.066   1.728  1.2268  0.0333  0.8379
 1158SOL     OW14692   5.305   9.446   1.914 -0.4700  0.6396 -0.7423
 1158SOL    HW114693   5.334   9.535   1.880 -0.7818  1.4698  1.0822
 1158SOL    HW214694   5.216   9.455   1.959  0.9741  0.0842  2.3610
 1159SOL     OW14695   9.702   5.566   1.835  0.2646  0.6174  0.3085
 1159SOL    HW114696   9.772   5.537   1.900  0.4407 -0.0023 -0.1534
 1159SOL    HW214697   9.636   5.625   1.882  1.8036  2.2713  0.4495
 1160SOL     OW14698   8.456   2.252   4.866  0.1425 -0.3871 -0.5912
 1160SOL    HW114699   8.454   2.157   4.833 -0.0078 -0.9084  0.8976
 1160SOL    HW214700   8.550   2.283   4.873  0.3287 -1.3094  1.3650
 1161SOL     OW14701   1.401   2.640   4.441 -0.1802 -0.4796 -0.1293
 1161SOL    HW114702   1.454   2.618   4.522 -0.6021 -0.2714  0.2035
 1161SOL    HW214703   1.337   2.566   4.422  0.3178 -0.7912 -0.6079
 1162SOL     OW14704   5.733   8.507   3.688 -0.7828  0.1259  0.4631
 1162SOL    HW114705   5.655   8.568   3.707 -0.8428  0.0033  0.6106
 1162SOL    HW214706   5.773   8.477   3.775 -1.1345 -0.5372  0.4015
 1163SOL     OW14707   4.509   1.857   0.108 -0.1068 -0.0901  0.3242
 1163SOL    HW114708   4.429   1.800   0.131 -2.0029  1.5863 -1.8488
 1163SOL    HW214709   4.484   1.954   0.118  1.4261  0.4618 -1.1164
 1164SOL     OW14710   7.741   7.063   2.814  0.7837  0.9262 -0.3256
 1164SOL    HW114711   7.729   7.047   2.716  1.1145 -0.6416 -0.1309
 1164SOL    HW214712   7.783   6.982   2.855  0.7679  1.6319  1.0887
 1165SOL     OW14713   3.803   1.524   6.543  0.1792 -0.1196  0.0532
 1165SOL    HW114714   3.731   1.587   6.513  0.0074 -0.4302 -0.1830
 1165SOL    HW214715   3.892   1.559   6.514  0.1344  0.3218  0.4415
 1166SOL     OW14716   3.541   4.284   4.806  0.2641 -0.0987  0.2162
 1166SOL    HW114717   3.456   4.323   4.843 -0.4942 -0.8210 -0.7731
 1166SOL    HW214718   3.570   4.208   4.864  0.1656  0.0613  0.4790
 1167SOL     OW14719   3.644   5.940   5.190  0.2093  0.5375 -0.6714
 1167SOL    HW114720   3.609   5.881   5.118  1.9872 -0.9128 -0.3812
 1167SOL    HW214721   3.701   5.887   5.252  0.8999  2.3152  0.2593
 1168SOL     OW14722   6.774   3.044   7.925 -0.5165 -0.1395  0.0662
 1168SOL    HW114723   6.815   3.097   7.850  0.5769 -2.6093 -1.1407
 1168SOL    HW214724   6.841   2.979   7.960 -2.7025 -2.7579 -0.4753
 1169SOL     OW14725   6.703   7.483   5.295  0.0498  0.5373  0.1880
 1169SOL    HW114726   6.681   7.467   5.392 -1.7561  0.7743 -0.1529
 1169SOL    HW214727   6.720   7.396   5.250 -1.7074  0.1867  0.1512
 1170SOL     OW14728   0.986   4.636   2.514  0.5685  0.2569  0.1713
 1170SOL    HW114729   0.932   4.695   2.572  1.7810  0.9182  0.6522
 1170SOL    HW214730   0.938   4.619   2.428  0.6975  2.8674 -0.4374
 1171SOL     OW14731   8.464   5.651   2.732  0.1319 -0.2069  0.0730
 1171SOL    HW114732   8.540   5.698   2.779  1.0745  0.2220 -1.8399
 1171SOL    HW214733   8.383   5.655   2.790  1.5961 -0.8119  2.2466
 1172SOL     OW14734   4.487   2.954   1.495  0.0081 -0.0175 -0.7986
 1172SOL    HW114735   4.545   2.924   1.571 -0.1375  0.0924 -0.6448
 1172SOL    HW214736   4.507   2.898   1.414 -0.3472 -0.6122 -0.4817
 1173SOL     OW14737   7.701   3.813   2.474 -0.1109  0.8872 -0.2754
 1173SOL    HW114738   7.633   3.846   2.408  0.5837  1.0614 -0.9077
 1173SOL    HW214739   7.770   3.883   2.489 -0.2555  0.8444  0.6394
 1174SOL     OW14740   3.884   4.821   2.839  0.8029 -0.5934  0.1561
 1174SOL    HW114741   3.810   4.797   2.902  0.5669 -0.5408 -0.0998
 1174SOL    HW214742   3.905   4.742   2.782 -0.0373 -0.1653 -0.7501
 1175SOL     OW14743   0.879   7.101   4.906 -0.3208  0.0033 -0.4076
 1175SOL    HW114744   0.827   7.050   4.837  0.1395  0.2634 -0.9498
 1175SOL    HW214745   0.894   7.194   4.875 -2.0451  0.7975  1.0360
 1176SOL     OW14746   1.853   3.210   5.524 -0.5063  0.0964 -0.3043
 1176SOL    HW114747   1.912   3.288   5.545  0.4576 -0.6233 -0.3328
 1176SOL    HW214748   1.810   3.224   5.435 -1.5886  1.3378  0.3933
 1177SOL     OW14749   8.686   9.451   2.910  0.0615 -0.4258  0.4882
 1177SOL    HW114750   8.653   9.357   2.921 -1.1192  0.0346  1.0320
 1177SOL    HW214751   8.679   9.499   2.997 -0.6528  0.5620 -0.0956
 1178SOL     OW14752   2.853   2.018   1.400 -0.2464  0.0761 -0.1164
 1178SOL    HW114753   2.942   2.000   1.360 -1.5350 -2.2583 -2.0128
 1178SOL    HW214754   2.845   1.969   1.487 -0.3053 -1.0552 -0.7606
 1179SOL     OW14755   3.872   3.355   7.635 -0.4838 -0.6060  0.3050
 1179SOL    HW114756   3.835   3.393   7.550  2.0808 -0.5696 -0.8420
 1179SOL    HW214757   3.958   3.401   7.656 -0.0524 -2.0843  1.8196
 1180SOL     OW14758   0.258   0.851   6.230  0.3908  0.1547  0.6705
 1180SOL    HW114759   0.185   0.877   6.166  0.0674  0.0449  0.9884
 1180SOL    HW214760   0.295   0.933   6.274  2.6801  0.5259 -1.8485
 1181SOL     OW14761   8.803   9.643   2.154  0.0882 -0.3060 -0.2586
 1181SOL    HW114762   8.891   9.603   2.182 -0.0280  0.1026  0.7143
 1181SOL    HW214763   8.761   9.688   2.233  0.2894  1.8733 -1.3615
 1182SOL     OW14764   2.989   5.691   1.397 -0.1543  0.1720  0.2007
 1182SOL    HW114765   3.055   5.743   1.344  0.9815 -2.5735 -1.1843
 1182SOL    HW214766   3.034   5.648   1.475 -0.9231  0.7303  0.9535
 1183SOL     OW14767   5.129   1.197   6.418  0.3246  0.3296 -0.3726
 1183SOL    HW114768   5.048   1.228   6.467  0.8842 -0.2414  0.9389
 1183SOL    HW214769   5.181   1.277   6.386 -1.8663  0.7163 -3.1714
 1184SOL     OW14770   9.478   6.056   1.307 -0.4954 -0.3853  0.1152
 1184SOL    HW114771   9.537   5.991   1.355 -1.9415 -1.4739  0.4340
 1184SOL    HW214772   9.442   6.122   1.372  0.6834  0.5491 -0.1507
 1185SOL     OW14773   4.555   5.597   2.766 -0.1588 -0.2356 -0.0243
 1185SOL    HW114774   4.645   5.588   2.808 -0.7041 -0.6336  1.0750
 1185SOL    HW214775   4.520   5.689   2.781  0.2713  0.0810 -0.8965
 1186SOL     OW14776   1.519   0.433   5.308 -0.2672  0.1706 -1.1573
 1186SOL    HW114777   1.460   0.358   5.338  0.2111 -0.0531 -0.7825
 1186SOL    HW214778   1.465   0.498   5.254 -1.1298  0.5466  0.1348
 1187SOL     OW14779   8.299   8.226   4.556  0.5738 -0.2765 -0.6969
 1187SOL    HW114780   8.286   8.316   4.597  0.9304  0.0472 -1.2877
 1187SOL    HW214781   8.378   8.228   4.495  1.3009 -1.2996  0.1716
 1188SOL     OW14782   6.130   3.096   0.405  0.5721 -0.0467  0.2281
 1188SOL    HW114783   6.203   3.154   0.369 -1.0917  0.7890 -1.8554
 1188SOL    HW214784   6.124   3.012   0.351  0.2046 -0.2786  0.6185
 1189SOL     OW14785   3.940   8.422   3.308  0.5522  0.3794  0.2474
 1189SOL    HW114786   3.868   8.366   3.347  0.7904 -0.7176 -0.8651
 1189SOL    HW214787   4.023   8.414   3.364  0.2649  0.4700  0.6880
 1190SOL     OW14788   2.411   6.167   5.027 -0.2762  0.3052 -0.5023
 1190SOL    HW114789   2.335   6.110   5.060 -1.6642  1.7713 -1.0673
 1190SOL    HW214790   2.425   6.242   5.091  0.7764 -0.0157 -0.3583
 1191SOL     OW14791   2.042   1.058   3.809 -0.1492  0.5143 -0.0827
 1191SOL    HW114792   2.029   0.966   3.848 -1.4278 -0.0548 -1.7623
 1191SOL    HW214793   1.968   1.077   3.744  1.0407  2.0546 -1.0262
 1192SOL     OW14794   1.412   9.339   0.193  0.0818 -0.5051 -0.1503
 1192SOL    HW114795   1.462   9.392   0.124  1.7688 -0.2384  1.2501
 1192SOL    HW214796   1.455   9.250   0.204  0.0540 -0.3911  0.8674
 1193SOL     OW14797   3.421   2.324   0.671 -0.4065  0.7668 -0.7165
 1193SOL    HW114798   3.352   2.266   0.715  0.0656  1.5732  1.1193
 1193SOL    HW214799   3.376   2.395   0.617 -1.0061  0.7227 -0.2772
 1194SOL     OW14800   4.918   2.356   5.120  0.2923  0.2228 -0.3001
 1194SOL    HW114801   4.905   2.424   5.192  0.8960 -0.3566  0.3713
 1194SOL    HW214802   4.848   2.368   5.049 -0.3746  0.7325  0.4342
 1195SOL     OW14803   8.700   9.375   2.321 -0.0322  0.4037 -0.4521
 1195SOL    HW114804   8.771   9.304   2.318  0.1333  0.6074 -1.3963
 1195SOL    HW214805   8.720   9.439   2.395  0.9457  0.6546 -0.9366
 1196SOL     OW14806   0.683   9.027   4.782  0.4954  0.2104  0.2359
 1196SOL    HW114807   0.688   9.108   4.724  4.1400 -0.0608  0.0416
 1196SOL    HW214808   0.726   9.047   4.870 -0.2385 -0.9670  0.8703
 1197SOL     OW14809   4.149   0.445   5.725 -0.1438 -0.1217 -0.0023
 1197SOL    HW114810   4.078   0.376   5.736 -1.6298  1.1806 -1.1718
 1197SOL    HW214811   4.133   0.522   5.787  0.6561 -0.1467  0.2477
 1198SOL     OW14812   7.694   0.955   6.009 -0.0968 -0.4263  0.0984
 1198SOL    HW114813   7.635   1.036   6.000  1.0238  0.3721 -0.1539
 1198SOL    HW214814   7.748   0.962   6.093  2.2281  0.5795 -1.4299
 1199SOL     OW14815   4.837   8.340   4.233  0.5450  0.2871 -0.1014
 1199SOL    HW114816   4.804   8.362   4.141  1.7316 -0.3852 -0.7061
 1199SOL    HW214817   4.798   8.253   4.263  0.0745  0.5593  0.0716
 1200SOL     OW14818   0.785   5.793   5.593 -0.3168 -0.3640 -0.0734
 1200SOL    HW114819   0.745   5.850   5.522 -1.5036 -0.8975  0.1516
 1200SOL    HW214820   0.738   5.809   5.680 -1.2719 -2.3127 -0.2010
 1201SOL     OW14821   9.618   7.989   1.975  0.3615  0.0756 -0.6964
 1201SOL    HW114822   9.559   7.925   1.925  1.0766 -0.4386 -0.8908
 1201SOL    HW214823   9.668   8.046   1.909  1.4891 -0.7657 -0.5868
 1202SOL     OW14824   6.479   3.851   8.159  0.4243  0.3215 -0.0899
 1202SOL    HW114825   6.494   3.926   8.094  1.0911 -0.2862 -0.6456
 1202SOL    HW214826   6.521   3.875   8.247  0.9747  0.4471 -0.3790
 1203SOL     OW14827   6.384   4.611   7.593  1.4045 -0.2533 -0.4153
 1203SOL    HW114828   6.425   4.559   7.669 -0.2072 -0.7213  0.1487
 1203SOL    HW214829   6.324   4.681   7.630 -1.4175 -2.1421 -1.2715
 1204SOL     OW14830   1.178   6.030   3.164  0.3785 -0.0950  0.4280
 1204SOL    HW114831   1.162   5.933   3.148  0.4678 -0.1370  0.5964
 1204SOL    HW214832   1.221   6.070   3.083 -1.1235  0.1542 -0.2680
 1205SOL     OW14833   1.290   7.789   5.730  0.2421 -0.0457  0.2697
 1205SOL    HW114834   1.328   7.879   5.708  0.7777 -0.3879 -0.2075
 1205SOL    HW214835   1.260   7.788   5.826  0.9057  0.4069  0.4849
 1206SOL     OW14836   6.774   0.962   6.546 -0.5068  0.4827  0.1811
 1206SOL    HW114837   6.708   0.937   6.616 -2.4517  0.4198 -1.6386
 1206SOL    HW214838   6.862   0.983   6.589 -1.4108 -0.4299  2.5343
 1207SOL     OW14839   3.490   3.550   0.828  0.5359 -0.0668  0.2780
 1207SOL    HW114840   3.428   3.628   0.819  1.3851  0.5818 -0.0809
 1207SOL    HW214841   3.460   3.493   0.904 -0.4560  0.2750  0.1530
 1208SOL     OW14842   1.600   3.497   3.505  0.2494 -0.0518  0.0937
 1208SOL    HW114843   1.571   3.567   3.440  0.1192  0.1680  0.3916
 1208SOL    HW214844   1.634   3.417   3.455 -0.0217  0.0471 -0.2467
 1209SOL     OW14845   9.428   2.193   4.533  0.1469  0.2954 -0.7268
 1209SOL    HW114846   9.381   2.273   4.493 -0.3140  1.0662  1.3135
 1209SOL    HW214847   9.516   2.181   4.487 -0.1266  1.4868 -1.6112
 1210SOL     OW14848   1.076   8.631   4.561  0.0174 -0.1676  0.1221
 1210SOL    HW114849   1.007   8.671   4.621  1.0012  1.0809  0.4329
 1210SOL    HW214850   1.122   8.703   4.509 -0.1490 -1.1492 -1.4308
 1211SOL     OW14851   0.887   2.757   0.661 -0.3201  0.2816 -0.0526
 1211SOL    HW114852   0.813   2.696   0.690 -0.6952  1.3889  1.3725
 1211SOL    HW214853   0.953   2.768   0.735 -0.6212  2.1476 -0.0280
 1212SOL     OW14854   0.197   7.989   0.005  0.7336  0.3768 -0.5115
 1212SOL    HW114855   0.267   7.918  -0.010 -0.3836 -0.9388  0.3658
 1212SOL    HW214856   0.108   7.945   0.018  0.0950  1.9335  0.4785
 1213SOL     OW14857   1.493   4.015   0.018  0.0882 -0.1613 -0.3605
 1213SOL    HW114858   1.528   3.940  -0.039 -0.4459  0.4255 -1.4733
 1213SOL    HW214859   1.401   3.992   0.050 -0.2477  0.2138 -1.0630
 1214SOL     OW14860   9.938   1.001   0.310 -0.2352  0.9011 -0.2700
 1214SOL    HW114861   9.952   0.922   0.369 -1.9809  0.8964  0.1501
 1214SOL    HW214862   9.941   1.084   0.365  0.2777  1.0449 -0.5114
 1215SOL     OW14863   3.583   5.744   3.212 -0.4393 -0.0922  0.2263
 1215SOL    HW114864   3.682   5.736   3.205 -0.5051 -0.1462 -0.6130
 1215SOL    HW214865   3.539   5.699   3.134 -1.1690 -1.0987  1.2040
 1216SOL     OW14866   1.143   4.217   0.532  0.3455 -0.5037  0.4556
 1216SOL    HW114867   1.162   4.314   0.519  0.6344 -0.7364 -0.9138
 1216SOL    HW214868   1.047   4.204   0.556 -0.2928 -0.0624 -1.7590
 1217SOL     OW14869   7.594   3.735   0.408  0.6025  0.5961  0.0696
 1217SOL    HW114870   7.587   3.755   0.506 -0.2207  1.4925 -0.1557
 1217SOL    HW214871   7.511   3.687   0.379  1.8429 -1.7195  0.2636
 1218SOL     OW14872   2.034   3.462   5.518 -0.2138 -0.5443  0.0208
 1218SOL    HW114873   1.994   3.521   5.588  1.4814  0.9726 -0.2377
 1218SOL    HW214874   2.115   3.416   5.555 -0.0010 -0.6618 -0.5778
 1219SOL     OW14875   4.403   0.874   0.359 -0.2708  0.4754  0.3409
 1219SOL    HW114876   4.416   0.941   0.286 -0.6806 -0.3209 -0.4712
 1219SOL    HW214877   4.346   0.914   0.431  0.5529  1.4416  0.4695
 1220SOL     OW14878   2.603   5.760   8.185  0.0279  0.3773  0.0471
 1220SOL    HW114879   2.671   5.829   8.161  0.8561 -0.7261 -0.8644
 1220SOL    HW214880   2.650   5.673   8.205 -1.1116 -0.4045 -0.6147
 1221SOL     OW14881   1.169   2.026   2.897  0.1237  0.4272 -0.4656
 1221SOL    HW114882   1.087   1.968   2.900  0.1310  0.5028  1.8604
 1221SOL    HW214883   1.218   2.010   2.811 -0.6919 -1.8752 -0.5417
 1222SOL     OW14884   9.073   9.491   0.806 -0.5121 -0.2112  0.1414
 1222SOL    HW114885   9.155   9.466   0.755 -0.1204  2.2675 -0.5023
 1222SOL    HW214886   9.088   9.475   0.903  0.6743  0.0777  0.0088
 1223SOL     OW14887   9.755   3.740   4.293 -0.8001  0.4224 -0.2721
 1223SOL    HW114888   9.675   3.800   4.291 -0.1956  1.2079 -1.4930
 1223SOL    HW214889   9.820   3.775   4.361  0.3967  2.3113 -2.3067
 1224SOL     OW14890   5.639   0.896   6.708 -0.4278 -0.5524 -0.5597
 1224SOL    HW114891   5.729   0.868   6.673 -0.0653  1.5433 -1.3670
 1224SOL    HW214892   5.571   0.885   6.636 -0.4348 -0.1566 -0.6136
 1225SOL     OW14893   9.573   7.838   5.235 -0.4507  0.6749  0.4617
 1225SOL    HW114894   9.633   7.765   5.267  1.7714  2.3880  0.3620
 1225SOL    HW214895   9.521   7.874   5.313  0.5841  0.8847  1.0746
 1226SOL     OW14896   4.209   9.731   5.044 -0.3045  0.0807 -0.3009
 1226SOL    HW114897   4.261   9.656   5.085 -1.7231 -0.6421  0.2056
 1226SOL    HW214898   4.270   9.788   4.989  0.6772 -1.8148 -1.2151
 1227SOL     OW14899   9.065   2.885   2.067 -0.3356  0.1351 -0.1273
 1227SOL    HW114900   9.063   2.846   1.975 -0.5749  0.6641 -0.3483
 1227SOL    HW214901   9.160   2.893   2.097 -0.1153  2.1352 -1.2666
 1228SOL     OW14902   3.116   6.154   3.210 -0.7280 -0.1509 -0.4401
 1228SOL    HW114903   3.122   6.192   3.118  2.4230 -0.9473 -0.6404
 1228SOL    HW214904   3.193   6.091   3.225 -0.0675  1.4177  3.3453
 1229SOL     OW14905   7.864   9.989   0.904 -0.4139 -0.1895 -0.5240
 1229SOL    HW114906   7.886   9.955   0.996 -0.0622 -0.0373 -0.5542
 1229SOL    HW214907   7.766  10.010   0.900 -0.2700  0.6120  0.0808
 1230SOL     OW14908   8.989   0.621   1.655  0.2662  0.4337 -0.2335
 1230SOL    HW114909   8.975   0.573   1.741 -0.2196  1.5369  0.3176
 1230SOL    HW214910   8.920   0.591   1.589 -1.0452  1.5263  0.6130
 1231SOL     OW14911   8.434   3.065   4.800 -0.1371 -0.2317 -0.3020
 1231SOL    HW114912   8.411   3.036   4.893  0.5850 -0.8503 -0.3119
 1231SOL    HW214913   8.532   3.052   4.785 -0.0339  1.0377 -0.7309
 1232SOL     OW14914   0.721   1.940   3.727  0.3422 -0.1813 -0.4339
 1232SOL    HW114915   0.700   2.032   3.759 -0.5564 -1.2445  2.2095
 1232SOL    HW214916   0.679   1.873   3.788  2.7527 -2.3631 -1.0557
 1233SOL     OW14917   9.958   6.655   0.893 -0.0320 -0.4577  0.3843
 1233SOL    HW114918  10.037   6.659   0.831 -0.8741 -0.2313 -0.6872
 1233SOL    HW214919   9.935   6.559   0.912  0.5391 -0.5253  0.7614
 1234SOL     OW14920   9.488   5.790   2.832 -0.0957 -0.1923 -0.2681
 1234SOL    HW114921   9.437   5.793   2.745 -0.7794  1.0255  0.1568
 1234SOL    HW214922   9.492   5.696   2.865 -1.0470 -0.4683 -0.9146
 1235SOL     OW14923   4.023   2.652   1.847 -0.4297 -0.0667 -0.0923
 1235SOL    HW114924   3.990   2.731   1.900  1.5689  1.5753 -1.2340
 1235SOL    HW214925   4.104   2.614   1.891 -0.5640 -0.6030 -0.3084
 1236SOL     OW14926   1.729   8.035   2.599 -0.1254 -0.0615  0.5504
 1236SOL    HW114927   1.815   8.084   2.611  0.2267 -0.5788  0.1448
 1236SOL    HW214928   1.671   8.049   2.679 -0.5645  2.0861 -0.1065
 1237SOL     OW14929   0.074   7.798   6.317 -0.0972  0.4664  0.4764
 1237SOL    HW114930   0.033   7.878   6.362 -2.4600 -0.9506  0.9061
 1237SOL    HW214931   0.012   7.764   6.246  1.6537  0.0229 -0.8808
 1238SOL     OW14932   4.728   3.252   3.748 -0.1111  0.0932  0.5876
 1238SOL    HW114933   4.646   3.307   3.732  0.1125  0.1693 -0.3108
 1238SOL    HW214934   4.803   3.311   3.780  0.2363  0.3748 -0.7311
 1239SOL     OW14935   3.608   8.244   5.055  0.0572  0.3142  0.0919
 1239SOL    HW114936   3.694   8.295   5.055  0.4954 -0.4067 -0.3274
 1239SOL    HW214937   3.617   8.165   4.994 -0.9257  0.2753 -0.0031
 1240SOL     OW14938   4.134   1.474   1.169  0.0533  0.1741  0.0227
 1240SOL    HW114939   4.214   1.531   1.187 -1.2547  2.1662 -0.1865
 1240SOL    HW214940   4.129   1.454   1.071 -0.5404  1.3986 -0.2105
 1241SOL     OW14941   3.656   2.555   5.647  0.3201  0.2303 -0.2203
 1241SOL    HW114942   3.688   2.462   5.626  1.2453  0.2484  1.0334
 1241SOL    HW214943   3.677   2.615   5.569  1.2013 -0.2670 -0.3820
 1242SOL     OW14944   8.901   5.956   3.618  0.5248 -0.0061  0.2092
 1242SOL    HW114945   8.956   5.903   3.683  2.5736  1.3896 -0.3451
 1242SOL    HW214946   8.813   5.977   3.660  1.0465 -0.8230  1.7802
 1243SOL     OW14947   1.109   8.269   5.510  0.2573 -0.2277  0.2511
 1243SOL    HW114948   1.119   8.368   5.517  1.1125 -0.3373  0.6324
 1243SOL    HW214949   1.032   8.247   5.450 -0.9351  0.6822  1.4245
 1244SOL     OW14950   0.632   2.855   0.424  0.6251  0.2071  0.0712
 1244SOL    HW114951   0.724   2.883   0.454  0.1590  0.7444  1.0131
 1244SOL    HW214952   0.569   2.932   0.436 -1.0233 -1.6913  4.1263
 1245SOL     OW14953   5.802   9.706   1.883  0.1494  0.7146  0.4700
 1245SOL    HW114954   5.891   9.660   1.892  0.1286  0.5633 -0.0452
 1245SOL    HW214955   5.775   9.707   1.786 -0.8462 -0.0762  0.7265
 1246SOL     OW14956   0.998   2.797   4.270 -0.3458  0.1301 -0.0234
 1246SOL    HW114957   1.000   2.897   4.279  1.6208  0.0370  0.8580
 1246SOL    HW214958   1.016   2.772   4.175 -0.4231  0.5851 -0.1630
 1247SOL     OW14959   6.995   1.085   0.578 -0.1108 -0.1127  0.2564
 1247SOL    HW114960   6.991   0.992   0.615  0.1589 -0.4429 -0.5375
 1247SOL    HW214961   7.030   1.082   0.484 -0.2141  0.7782  0.1882
 1248SOL     OW14962   1.867   0.247   0.146  0.5897 -0.4140  0.5239
 1248SOL    HW114963   1.785   0.284   0.190 -0.0755 -2.2357  0.8485
 1248SOL    HW214964   1.920   0.195   0.212  0.6859 -1.3819 -0.3005
 1249SOL     OW14965   9.832   8.200   4.422  0.5596 -0.5524  0.7389
 1249SOL    HW114966   9.878   8.244   4.498  1.2410 -0.1789  0.1129
 1249SOL    HW214967   9.749   8.251   4.398  1.7726  0.8914 -0.5171
 1250SOL     OW14968   8.482   4.181   1.021  0.1239 -0.4699  0.0938
 1250SOL    HW114969   8.488   4.140   0.930  0.4387  1.6326 -0.8673
 1250SOL    HW214970   8.550   4.254   1.029 -1.9161  1.4344  0.8909
 1251SOL     OW14971   7.899   3.533   3.819 -0.4368 -0.0018  0.3977
 1251SOL    HW114972   7.853   3.608   3.867  1.2173  0.9748  0.5077
 1251SOL    HW214973   7.852   3.447   3.838 -2.8474  1.1138 -0.3847
 1252SOL     OW14974   3.637   4.985   3.015  0.2446 -0.4597  0.0623
 1252SOL    HW114975   3.734   4.985   3.042  0.1190  0.0146  0.5034
 1252SOL    HW214976   3.589   4.913   3.064  0.6287 -1.5017 -1.0675
 1253SOL     OW14977   3.214   6.438   3.291 -0.0455 -0.1389 -0.6864
 1253SOL    HW114978   3.137   6.500   3.278  1.1680  1.0865 -2.1178
 1253SOL    HW214979   3.187   6.345   3.266 -1.4153  0.0521  0.0298
 1254SOL     OW14980   1.007   3.276   4.009 -0.7098 -0.3233  0.2668
 1254SOL    HW114981   1.057   3.343   3.954 -1.0734 -0.2617  0.0171
 1254SOL    HW214982   1.040   3.280   4.103  0.5670 -1.0709 -0.1316
 1255SOL     OW14983   7.583   8.855   7.006  0.2619  0.0324  0.0612
 1255SOL    HW114984   7.602   8.757   7.009  1.2948  0.2503  0.5904
 1255SOL    HW214985   7.666   8.906   7.026  0.1415  1.0632 -1.9029
 1256SOL     OW14986   2.284   4.901   0.434  0.3999  0.0244 -0.0689
 1256SOL    HW114987   2.233   4.840   0.373 -1.7787 -1.3680  3.0007
 1256SOL    HW214988   2.358   4.850   0.478  1.5373  0.8488 -0.9870
 1257SOL     OW14989   1.925   2.155   2.247 -0.2394  0.3359  0.0168
 1257SOL    HW114990   1.951   2.250   2.263  3.5579 -0.9363  1.9023
 1257SOL    HW214991   1.926   2.105   2.333 -1.4279 -1.6067 -1.0656
 1258SOL     OW14992   5.758   9.636   6.837  0.1508 -0.0675 -0.2978
 1258SOL    HW114993   5.733   9.728   6.865  1.0298  0.2267 -0.4577
 1258SOL    HW214994   5.824   9.598   6.902  0.2165 -0.3702 -0.5350
 1259SOL     OW14995   0.632   9.297   0.655 -0.3030 -0.6454  0.3358
 1259SOL    HW114996   0.646   9.293   0.556 -1.0905  1.0377  0.1216
 1259SOL    HW214997   0.534   9.299   0.674 -0.1468  0.1589  1.0796
 1260SOL     OW14998   4.685   9.989   5.512 -0.5182  0.2763  0.5992
 1260SOL    HW114999   4.599  10.037   5.522 -1.0731  0.0511 -2.4021
 1260SOL    HW215000   4.668   9.896   5.478  0.8511  0.0623  0.4593
 1261SOL     OW15001   0.988   1.539   5.411 -0.1322  0.7825  0.2431
 1261SOL    HW115002   0.918   1.597   5.455 -0.5909  1.5153 -1.3947
 1261SOL    HW215003   0.999   1.455   5.464 -2.4524  0.5290  0.4001
 1262SOL     OW15004   7.017   8.706   2.368  0.8570 -0.0150  0.2420
 1262SOL    HW115005   7.010   8.610   2.395  1.9252 -0.0191  0.5443
 1262SOL    HW215006   6.986   8.717   2.274 -2.1942 -0.1386  1.1800
 1263SOL     OW15007   2.731   8.523   5.306 -0.3054 -0.1944 -0.0666
 1263SOL    HW115008   2.788   8.444   5.282 -0.0345  0.0389 -0.1893
 1263SOL    HW215009   2.788   8.606   5.307 -0.1733 -0.2634  1.8471
 1264SOL     OW15010   9.490   8.310   5.840 -0.7147  0.2055 -0.3319
 1264SOL    HW115011   9.585   8.284   5.821 -0.6500  1.1889 -1.3831
 1264SOL    HW215012   9.464   8.387   5.782 -2.0819  0.1032  0.1286
 1265SOL     OW15013   0.351   8.627   0.278 -0.2300  0.1162  0.3353
 1265SOL    HW115014   0.432   8.684   0.264  0.3601 -0.4589  1.2924
 1265SOL    HW215015   0.308   8.651   0.366 -1.7130  1.1395 -0.6462
 1266SOL     OW15016   1.997   1.447   0.612  0.7897 -0.4469 -0.6215
 1266SOL    HW115017   2.032   1.531   0.572  1.1215 -0.4232 -0.2834
 1266SOL    HW215018   1.936   1.470   0.688 -0.6811 -0.4622 -1.7803
 1267SOL     OW15019   3.549   1.375   3.059 -0.1176 -0.1170  0.0712
 1267SOL    HW115020   3.527   1.446   2.993  0.0115 -0.9758 -0.9088
 1267SOL    HW215021   3.470   1.316   3.072  0.4343 -1.0341 -0.6970
 1268SOL     OW15022   2.828   1.402   2.450 -0.2876 -0.0425 -0.1400
 1268SOL    HW115023   2.842   1.491   2.407  0.6121  0.4118  1.0876
 1268SOL    HW215024   2.756   1.408   2.519  1.0954  0.2213  1.3232
 1269SOL     OW15025   8.826   0.052   6.109  0.2467  0.3594 -0.0631
 1269SOL    HW115026   8.735   0.017   6.133 -0.0648  0.9452 -0.3578
 1269SOL    HW215027   8.850   0.021   6.017 -0.5969  1.9853 -0.8442
 1270SOL     OW15028   7.771   2.296   1.376  0.4933 -0.1666  0.0815
 1270SOL    HW115029   7.676   2.284   1.348  0.7117 -0.4992 -0.5363
 1270SOL    HW215030   7.774   2.326   1.472 -0.2160 -0.5810  0.2405
 1271SOL     OW15031   4.691   2.320   2.269 -0.2860 -0.1087  0.0978
 1271SOL    HW115032   4.779   2.304   2.314 -0.8653 -0.8946  0.9776
 1271SOL    HW215033   4.670   2.418   2.269  1.4771  0.2927 -1.8343
 1272SOL     OW15034   0.992   7.958   0.541  0.3280 -0.4869 -0.8880
 1272SOL    HW115035   0.930   7.897   0.589  1.0809  0.1995  1.0024
 1272SOL    HW215036   1.087   7.929   0.556  0.6844  0.9692 -0.1941
 1273SOL     OW15037   1.381   0.517   2.218 -0.3145 -0.5904  0.1262
 1273SOL    HW115038   1.293   0.549   2.183 -0.3253 -0.6537  0.0955
 1273SOL    HW215039   1.408   0.573   2.296 -0.6028 -0.8634  0.4267
 1274SOL     OW15040   0.246   0.744   2.625 -0.4414  0.6680  0.0868
 1274SOL    HW115041   0.344   0.727   2.615 -0.5463 -0.7747  1.2902
 1274SOL    HW215042   0.195   0.683   2.564 -0.6195  0.6124  0.2886
 1275SOL     OW15043   4.051   5.103   7.886 -0.3264  0.2648  0.4803
 1275SOL    HW115044   3.973   5.042   7.903 -0.1373 -0.4067 -0.9816
 1275SOL    HW215045   4.018   5.197   7.880 -1.0854 -0.0600 -0.5442
 1276SOL     OW15046   0.034   4.507   3.874 -0.2882 -0.0616 -0.6622
 1276SOL    HW115047   0.091   4.557   3.808 -0.3522 -0.2034 -0.8261
 1276SOL    HW215048  -0.053   4.555   3.886 -0.6225 -0.4822 -1.3263
 1277SOL     OW15049   4.238   1.559   4.183 -0.0679 -0.7162  0.0290
 1277SOL    HW115050   4.195   1.614   4.254 -0.3628 -1.9053  0.7802
 1277SOL    HW215051   4.337   1.569   4.188 -0.0504 -1.4407  1.1335
 1278SOL     OW15052   2.307   3.057   1.865 -0.4961  0.4878 -0.1487
 1278SOL    HW115053   2.238   3.003   1.817 -0.0978  0.5394 -0.7925
 1278SOL    HW215054   2.395   3.009   1.860 -0.6715 -0.0323  1.4644
 1279SOL     OW15055   7.456   6.655   6.141  0.1959  0.8589 -0.0514
 1279SOL    HW115056   7.484   6.675   6.048 -1.5911 -0.4199 -0.9001
 1279SOL    HW215057   7.477   6.560   6.163  1.3618  1.3830  1.1397
 1280SOL     OW15058   9.990   9.033   2.348  0.3561 -0.3507  0.0420
 1280SOL    HW115059  10.055   9.095   2.392 -1.2642  1.6920 -0.3625
 1280SOL    HW215060   9.997   9.043   2.249 -1.9388  1.4055  0.0077
 1281SOL     OW15061   9.447   0.370   1.722  0.1688 -0.5432 -0.4659
 1281SOL    HW115062   9.408   0.278   1.729  1.2249 -0.9497  0.0930
 1281SOL    HW215063   9.389   0.435   1.772 -0.1381 -1.0377 -0.1856
 1282SOL     OW15064   6.374   8.070   4.860  0.2688  0.1167 -0.2788
 1282SOL    HW115065   6.391   7.978   4.825 -2.0029  0.3492 -2.0835
 1282SOL    HW215066   6.375   8.067   4.960  0.5236 -1.8022 -0.3055
 1283SOL     OW15067   8.726   3.309   5.655  0.4664 -0.1348  0.0872
 1283SOL    HW115068   8.796   3.315   5.585  1.3915  2.5160  1.1606
 1283SOL    HW215069   8.751   3.239   5.723  2.0030  0.7122  0.3914
 1284SOL     OW15070   4.291   2.859   2.467  0.1448 -0.1583  0.0153
 1284SOL    HW115071   4.253   2.824   2.552 -0.7239  0.3220 -0.1759
 1284SOL    HW215072   4.348   2.788   2.425  1.0236 -0.2088  1.2518
 1285SOL     OW15073   0.542   6.018   2.105  0.0204 -0.2499  0.4337
 1285SOL    HW115074   0.564   6.056   2.195 -0.3196  0.7563  0.1029
 1285SOL    HW215075   0.627   6.001   2.055  0.1387  2.1087 -0.2190
 1286SOL     OW15076   2.395   0.799   1.135  0.5758 -0.3272 -0.0647
 1286SOL    HW115077   2.387   0.708   1.175  0.4426 -0.5280 -0.5479
 1286SOL    HW215078   2.423   0.791   1.040 -1.7347  0.0189 -0.8043
 1287SOL     OW15079   8.935   0.643   3.991 -0.1614 -0.2275 -0.0086
 1287SOL    HW115080   8.907   0.722   3.936 -1.1872 -1.8387 -1.8686
 1287SOL    HW215081   8.887   0.562   3.958  0.5004 -1.5411  2.2069
 1288SOL     OW15082   9.157   4.706   2.080  0.6093  0.4494  0.1418
 1288SOL    HW115083   9.141   4.608   2.069 -0.8024  0.6445  0.3476
 1288SOL    HW215084   9.255   4.725   2.078  0.8453 -0.8455 -0.9656
 1289SOL     OW15085   2.376   8.911   2.003  0.0133 -0.1369 -0.0300
 1289SOL    HW115086   2.378   8.892   1.905 -0.0513 -0.4557  0.0301
 1289SOL    HW215087   2.304   8.856   2.047 -0.0102  0.0605  0.1814
 1290SOL     OW15088   0.833   9.240   2.603  0.0131  0.5917  0.0762
 1290SOL    HW115089   0.806   9.168   2.539  2.2129  0.1473 -0.3786
 1290SOL    HW215090   0.851   9.200   2.693  2.5938  0.3295 -0.5267
 1291SOL     OW15091   2.315   2.663   2.846 -0.3763  0.0687  0.0220
 1291SOL    HW115092   2.273   2.724   2.779  0.7152 -0.8926 -1.5945
 1291SOL    HW215093   2.341   2.715   2.928  0.3931  1.7530 -1.2573
 1292SOL     OW15094   9.215   4.698   3.647  0.0267  0.2290 -0.1392
 1292SOL    HW115095   9.242   4.734   3.558 -0.8087  0.1216 -0.4391
 1292SOL    HW215096   9.176   4.771   3.703 -0.6968  0.0226 -0.3630
 1293SOL     OW15097   1.000   0.912   4.942 -0.4782  0.1148 -0.3308
 1293SOL    HW115098   0.924   0.862   4.901 -1.2090  0.0780  1.0294
 1293SOL    HW215099   1.066   0.936   4.871 -2.1040  0.7841 -1.6868
 1294SOL     OW15100   2.933   6.487   2.039 -0.7221  0.2081 -0.2057
 1294SOL    HW115101   2.878   6.403   2.043 -1.0225  0.4295  0.3891
 1294SOL    HW215102   2.943   6.515   1.943  2.1854 -2.3243 -0.7200
 1295SOL     OW15103   7.168   5.308   1.234  0.6106  0.5200 -0.2061
 1295SOL    HW115104   7.183   5.300   1.136 -0.3019  0.8368 -0.3787
 1295SOL    HW215105   7.095   5.374   1.251  1.4108  1.1952  0.7274
 1296SOL     OW15106   0.302   5.328   4.029  0.2407  0.7593 -0.0695
 1296SOL    HW115107   0.256   5.346   3.942  0.5235 -0.5894 -0.5041
 1296SOL    HW215108   0.309   5.413   4.081  0.1827  1.5982 -1.4157
 1297SOL     OW15109   4.358   9.056   3.096 -0.7460  0.0226  0.0731
 1297SOL    HW115110   4.390   9.049   3.002  0.0083 -0.2147  0.3377
 1297SOL    HW215111   4.275   9.002   3.108  0.1426 -1.4136 -0.0348
 1298SOL     OW15112   1.986   6.532   4.496 -0.4486 -0.1956 -0.4908
 1298SOL    HW115113   1.959   6.530   4.593  0.7388 -0.1146 -0.1463
 1298SOL    HW215114   1.910   6.502   4.440 -0.2145 -3.2223  0.6818
 1299SOL     OW15115   5.037   9.658   2.356  0.2897 -0.1474  0.8909
 1299SOL    HW115116   5.018   9.646   2.453 -0.2706 -0.2266  0.7743
 1299SOL    HW215117   4.964   9.714   2.315  0.1722 -0.6674  0.3892
 1300SOL     OW15118   0.865   1.546   5.179 -0.4352 -0.2053  0.2900
 1300SOL    HW115119   0.918   1.544   5.263 -0.2931 -0.2700  0.2003
 1300SOL    HW215120   0.827   1.637   5.165 -1.2200 -0.4327  0.8959
 1301SOL     OW15121   8.711   1.387   4.352  0.1005 -0.6890  0.7737
 1301SOL    HW115122   8.694   1.292   4.377 -3.0767 -1.1103 -2.6746
 1301SOL    HW215123   8.668   1.447   4.419 -1.3717 -1.7251  0.7831
 1302SOL     OW15124   0.735   3.086   3.046  0.4931  0.5967  0.1010
 1302SOL    HW115125   0.724   2.987   3.046 -0.3916  0.6950 -0.9274
 1302SOL    HW215126   0.775   3.115   3.133  1.9868 -0.7956 -0.0969
 1303SOL     OW15127   2.368   6.899   3.588  0.1568  0.7702  0.4609
 1303SOL    HW115128   2.312   6.862   3.662 -1.2523 -1.7506 -1.7590
 1303SOL    HW215129   2.315   6.967   3.538 -0.0449  0.2211 -0.0875
 1304SOL     OW15130   3.728   9.751   6.228 -0.2047  0.1983 -0.2824
 1304SOL    HW115131   3.715   9.682   6.300 -0.1785  1.0635  0.5527
 1304SOL    HW215132   3.812   9.803   6.246 -0.3477  0.6073 -0.7886
 1305SOL     OW15133   1.021   3.385   2.657  0.4978  0.0010 -0.1179
 1305SOL    HW115134   0.978   3.428   2.737  2.5153  2.0733 -0.0814
 1305SOL    HW215135   0.980   3.423   2.573  0.5226  0.1223 -0.0755
 1306SOL     OW15136   5.999   9.539   2.917  0.0973 -0.0998  0.3966
 1306SOL    HW115137   6.013   9.624   2.969  1.5003 -0.8975  1.3556
 1306SOL    HW215138   5.949   9.559   2.833 -2.7200  1.1588  2.2868
 1307SOL     OW15139   1.183   0.795   5.099 -0.4741 -0.8521 -0.2247
 1307SOL    HW115140   1.267   0.833   5.060 -0.3050  1.3786  2.1801
 1307SOL    HW215141   1.110   0.801   5.032 -0.3522  3.5003 -0.0936
 1308SOL     OW15142   8.149   5.167   3.401  0.0222 -0.1021  0.2137
 1308SOL    HW115143   8.220   5.135   3.339 -2.0811 -1.3756 -1.6340
 1308SOL    HW215144   8.126   5.262   3.380  1.1285  0.2914  0.7812
 1309SOL     OW15145   1.018   5.053   5.032 -0.6503  0.2355  0.5597
 1309SOL    HW115146   1.118   5.052   5.024 -0.6743  0.7069  0.1764
 1309SOL    HW215147   0.991   5.008   5.117 -0.0659  0.9466  1.1269
 1310SOL     OW15148   5.263   1.737   4.337 -0.2848 -0.0249  0.0712
 1310SOL    HW115149   5.354   1.728   4.378 -0.8685  0.2404  1.4420
 1310SOL    HW215150   5.196   1.689   4.394 -1.0249 -0.1652 -0.8983
 1311SOL     OW15151   3.727   4.703   5.618 -0.1216  0.3241  0.1438
 1311SOL    HW115152   3.743   4.801   5.607 -0.8723  0.5700  1.1480
 1311SOL    HW215153   3.811   4.659   5.649 -0.6683  1.2186  3.0391
 1312SOL     OW15154   1.766   8.546   1.853 -0.0473  0.1024 -0.5325
 1312SOL    HW115155   1.761   8.573   1.757 -1.5569  1.7588 -0.0055
 1312SOL    HW215156   1.799   8.451   1.859  0.1612  0.0115 -2.6590
 1313SOL     OW15157   3.121   4.528   4.458  0.1573 -0.1084 -0.3974
 1313SOL    HW115158   3.123   4.537   4.359 -0.1810 -1.5594 -0.5494
 1313SOL    HW215159   3.028   4.543   4.492  0.1173 -0.4083 -0.3769
 1314SOL     OW15160   6.634   4.091   0.091  0.3391 -0.2750  0.0966
 1314SOL    HW115161   6.696   4.122   0.019 -0.9745  0.2935 -0.8259
 1314SOL    HW215162   6.679   4.021   0.147  1.6418 -0.1788 -0.8114
 1315SOL     OW15163   0.441   5.375   6.043 -0.6625 -0.2392 -0.8964
 1315SOL    HW115164   0.369   5.442   6.061 -1.3885 -0.4327 -2.9768
 1315SOL    HW215165   0.398   5.287   6.021  0.2652 -1.0299  0.3961
 1316SOL     OW15166   2.729   3.839   2.553  0.5048 -0.3933 -0.4149
 1316SOL    HW115167   2.714   3.875   2.645  1.0115 -0.0207 -0.4711
 1316SOL    HW215168   2.827   3.827   2.538  0.3496 -1.6052 -0.4786
 1317SOL     OW15169   8.603   5.970   2.589  0.0306 -1.0364 -0.3995
 1317SOL    HW115170   8.612   5.899   2.659  0.5006  0.4487  1.0648
 1317SOL    HW215171   8.650   6.053   2.619 -1.8227  0.4098 -1.3878
 1318SOL     OW15172   8.799   2.368   4.518  0.1592  0.5886 -0.1503
 1318SOL    HW115173   8.802   2.456   4.470 -2.6821  0.8552  0.0756
 1318SOL    HW215174   8.751   2.379   4.605  1.3175 -0.8566  0.7021
 1319SOL     OW15175   4.066   0.510   2.096 -0.1152 -0.5887  0.4249
 1319SOL    HW115176   4.058   0.603   2.133  0.9111 -0.3886  0.1790
 1319SOL    HW215177   3.977   0.465   2.098 -0.9402  0.9478 -0.8865
 1320SOL     OW15178   9.314   1.540   5.784  0.7460 -0.5370  0.0128
 1320SOL    HW115179   9.286   1.583   5.698  3.7942  0.8686 -0.3203
 1320SOL    HW215180   9.389   1.592   5.825 -0.4026 -1.3813  3.3821
 1321SOL     OW15181   3.034   1.073   5.041 -0.6257  0.0898  0.4001
 1321SOL    HW115182   2.957   1.116   4.994 -1.0291  1.2941  2.1002
 1321SOL    HW215183   3.112   1.136   5.041  0.1915 -0.9204 -0.8620
 1322SOL     OW15184   8.670   3.505   6.060 -0.5904 -0.0160  0.0261
 1322SOL    HW115185   8.662   3.604   6.077  1.3685 -0.0662  1.4082
 1322SOL    HW215186   8.658   3.456   6.146  0.7391 -0.8234 -0.2381
 1323SOL     OW15187   6.446   0.689   0.971 -0.3252  0.0162 -0.1720
 1323SOL    HW115188   6.435   0.786   0.991  0.2723 -0.4994  2.9371
 1323SOL    HW215189   6.532   0.657   1.011 -2.0441 -2.4816  1.6609
 1324SOL     OW15190   2.126   0.639   0.609 -0.0476 -0.0350  0.1071
 1324SOL    HW115191   2.193   0.565   0.610  1.9579  1.7274  2.3521
 1324SOL    HW215192   2.156   0.710   0.546 -0.6912 -0.0012 -0.1631
 1325SOL     OW15193   2.170   3.017   0.350  0.3392  0.5124 -0.0731
 1325SOL    HW115194   2.104   3.022   0.425 -0.0985 -0.5363 -0.3684
 1325SOL    HW215195   2.262   3.034   0.385  0.2298 -0.7170  0.8427
 1326SOL     OW15196   3.310   3.424   3.052 -0.2633  0.3383 -0.1339
 1326SOL    HW115197   3.272   3.332   3.045  0.3868 -0.1646  2.5488
 1326SOL    HW215198   3.294   3.460   3.144  0.6669  2.3887 -0.7489
 1327SOL     OW15199   2.945   7.685   3.449  0.2208  0.5317 -0.0671
 1327SOL    HW115200   2.954   7.709   3.546  1.7231 -1.6711  0.3874
 1327SOL    HW215201   3.037   7.671   3.410 -0.4148  0.4783 -1.5827
 1328SOL     OW15202   1.874   9.890   1.421 -0.3227 -0.2693 -0.7664
 1328SOL    HW115203   1.798   9.836   1.460  0.7720 -1.8116 -0.7425
 1328SOL    HW215204   1.848   9.987   1.420 -3.0890 -0.9693 -2.6131
 1329SOL     OW15205   7.502   6.894   3.228  0.0114  0.8087 -0.0496
 1329SOL    HW115206   7.455   6.868   3.144 -1.2682  0.0719  0.8890
 1329SOL    HW215207   7.505   6.994   3.235 -1.8604  0.8643  0.1220
 1330SOL     OW15208   3.331   7.468   0.976 -0.1284  0.0538  0.6789
 1330SOL    HW115209   3.424   7.473   1.014 -0.4963  1.1947  1.4522
 1330SOL    HW215210   3.331   7.502   0.882  0.1698  0.3855  0.7979
 1331SOL     OW15211   9.980   9.541   1.964 -0.0922 -0.0013  0.5760
 1331SOL    HW115212   9.922   9.496   2.032  0.7738 -1.2322  0.5030
 1331SOL    HW215213   9.937   9.534   1.874  0.5808 -1.7251  0.3638
 1332SOL     OW15214   9.387   1.455   4.884 -0.6400  0.0767  0.4698
 1332SOL    HW115215   9.469   1.512   4.895 -1.5565  1.6276 -0.5693
 1332SOL    HW215216   9.404   1.385   4.814 -0.6485  1.2873 -0.7638
 1333SOL     OW15217   2.480   1.906   2.774  0.6905  0.0719  0.2130
 1333SOL    HW115218   2.485   1.847   2.694  0.4085 -0.0894  0.3162
 1333SOL    HW215219   2.508   1.999   2.748  0.8364 -0.0331 -0.0148
 1334SOL     OW15220   3.577   9.923   3.784 -0.3187 -0.8318 -0.0440
 1334SOL    HW115221   3.477   9.926   3.788 -0.3340  0.4237 -1.0482
 1334SOL    HW215222   3.606   9.892   3.694  0.2039 -2.5176  0.6836
 1335SOL     OW15223   9.013   3.904   1.683 -0.2338  0.2175 -0.1788
 1335SOL    HW115224   8.992   3.947   1.771  1.9318 -0.1601  0.5600
 1335SOL    HW215225   8.938   3.843   1.657 -0.4597 -0.4601  1.9432
 1336SOL     OW15226   3.613   7.214   4.486 -0.1479  0.4135 -0.0950
 1336SOL    HW115227   3.557   7.131   4.496 -0.7572  0.5682 -1.9252
 1336SOL    HW215228   3.662   7.210   4.399 -1.2874  2.6131 -0.8668
 1337SOL     OW15229   5.556   2.468   4.745 -0.3402  0.2030 -0.5114
 1337SOL    HW115230   5.522   2.560   4.764  0.2840  0.0369  1.4489
 1337SOL    HW215231   5.493   2.401   4.783  1.7886 -0.1091  2.6618
 1338SOL     OW15232   8.490   8.787   4.275  0.2479  0.0537  0.0910
 1338SOL    HW115233   8.446   8.753   4.192 -0.1994 -0.3001  0.4744
 1338SOL    HW215234   8.481   8.720   4.349 -1.5797  1.4098  1.1616
 1339SOL     OW15235   2.215   1.022   5.943  0.1516  0.2167  0.4056
 1339SOL    HW115236   2.152   1.089   5.982  1.3531  1.3352  0.4544
 1339SOL    HW215237   2.167   0.968   5.874 -0.6286  1.6927 -0.2414
 1340SOL     OW15238   2.046   0.538   6.053 -0.4045 -0.3071  0.2023
 1340SOL    HW115239   2.142   0.549   6.030 -1.2011  1.0201 -2.7085
 1340SOL    HW215240   2.032   0.449   6.097  1.7567 -1.5903 -1.5849
 1341SOL     OW15241   2.561   4.621   5.773  0.1297  0.2223  0.6270
 1341SOL    HW115242   2.515   4.559   5.836  0.4299 -1.4870 -0.7939
 1341SOL    HW215243   2.519   4.712   5.779 -2.1639 -0.8173  0.7311
 1342SOL     OW15244   2.695   8.327   3.364 -0.1113 -0.0784 -0.2061
 1342SOL    HW115245   2.731   8.299   3.453  0.7114  3.6603  0.7184
 1342SOL    HW215246   2.609   8.279   3.346  0.0772 -1.4055  2.2475
 1343SOL     OW15247   3.207   1.339   5.857 -0.2321 -0.4075 -0.1569
 1343SOL    HW115248   3.197   1.250   5.900 -0.6569  0.5700  1.8062
 1343SOL    HW215249   3.131   1.354   5.793 -0.9436 -0.8661  0.5746
 1344SOL     OW15250   8.801   9.588   5.701 -0.1107  0.1512  0.3832
 1344SOL    HW115251   8.763   9.653   5.636 -0.8613 -1.2039 -0.5669
 1344SOL    HW215252   8.730   9.523   5.729  1.0626 -1.4465 -0.2056
 1345SOL     OW15253   1.879   7.316   5.182  0.0575  0.0952  0.7771
 1345SOL    HW115254   1.839   7.226   5.203 -0.7501  0.3230  0.2270
 1345SOL    HW215255   1.822   7.388   5.221  1.3365  0.3392  2.2333
 1346SOL     OW15256   1.469   8.163   4.525  0.1829  0.5579  0.5124
 1346SOL    HW115257   1.416   8.164   4.440  0.5591 -1.5495  0.2200
 1346SOL    HW215258   1.500   8.070   4.544  1.0397  1.1940  2.3941
 1347SOL     OW15259   8.315   7.897   3.324  0.3239 -0.0384  0.1107
 1347SOL    HW115260   8.349   7.812   3.363  1.7679  0.6390  0.3354
 1347SOL    HW215261   8.350   7.909   3.231 -0.9002 -0.3058 -0.3935
 1348SOL     OW15262   5.609   2.239   5.112  0.4161  0.3493 -0.2571
 1348SOL    HW115263   5.673   2.246   5.035  0.9104  0.7752  0.1841
 1348SOL    HW215264   5.519   2.273   5.084  0.5761  0.4473 -0.6617
 1349SOL     OW15265   0.397   6.090   1.868 -0.0274  0.8385 -0.1918
 1349SOL    HW115266   0.435   6.067   1.957  0.8500 -0.0484 -0.7832
 1349SOL    HW215267   0.470   6.123   1.808  0.3600 -3.0990 -2.0831
 1350SOL     OW15268   3.434   7.079   5.881  0.3396  0.5438 -0.5529
 1350SOL    HW115269   3.479   7.038   5.961 -0.7500 -0.7554 -0.5959
 1350SOL    HW215270   3.387   7.008   5.829  0.6572  1.4577 -2.1090
 1351SOL     OW15271   6.075   0.578   1.768 -0.1864 -0.4320 -0.4010
 1351SOL    HW115272   6.033   0.587   1.859 -0.2469  0.2394 -0.4970
 1351SOL    HW215273   6.081   0.481   1.744  1.4238 -0.7288  1.0752
 1352SOL     OW15274   7.838   5.454   0.416  0.0909 -0.0574 -0.5329
 1352SOL    HW115275   7.789   5.368   0.399 -2.1204  0.9879  0.3864
 1352SOL    HW215276   7.806   5.524   0.351 -1.3381  1.2561  1.5262
 1353SOL     OW15277   3.744   9.012   6.262  0.4826 -0.2189  0.4457
 1353SOL    HW115278   3.666   8.962   6.223 -0.5216  0.5026  1.4910
 1353SOL    HW215279   3.731   9.022   6.360  1.8246  0.0778  0.5989
 1354SOL     OW15280   4.583   3.315   0.119 -0.0166  0.0288  0.1205
 1354SOL    HW115281   4.584   3.216   0.112 -0.7755 -0.0790  1.3485
 1354SOL    HW215282   4.527   3.354   0.047  1.2811 -0.3496 -1.1186
 1355SOL     OW15283   5.366   1.804   0.974  0.1744 -0.0409  0.5669
 1355SOL    HW115284   5.337   1.788   0.880 -0.5157  0.7422  0.6469
 1355SOL    HW215285   5.374   1.716   1.022 -0.5902 -0.3548  0.1183
 1356SOL     OW15286   8.224   9.398   5.862  0.0386 -0.5085 -0.3969
 1356SOL    HW115287   8.259   9.397   5.955 -0.3713  0.0618 -0.2327
 1356SOL    HW215288   8.255   9.317   5.813  1.2796 -0.1918 -0.1449
 1357SOL     OW15289   7.624   4.742   8.027 -0.4811  0.9233  0.6288
 1357SOL    HW115290   7.713   4.727   7.985 -0.9024 -0.2436  0.1460
 1357SOL    HW215291   7.626   4.827   8.080  0.4459  1.7407 -0.6740
 1358SOL     OW15292   0.885   5.567   3.532  0.0909 -0.0415  0.2996
 1358SOL    HW115293   0.856   5.471   3.535 -2.1712  0.6443  1.3023
 1358SOL    HW215294   0.806   5.625   3.518  1.4094  1.7289  0.0738
 1359SOL     OW15295   7.834   1.567   5.938  0.2482  0.3853 -0.6064
 1359SOL    HW115296   7.775   1.544   6.015  1.0992 -0.2970 -0.1505
 1359SOL    HW215297   7.898   1.492   5.921 -0.5951  0.0754 -2.6345
 1360SOL     OW15298   2.260   0.121   6.492  0.0994 -0.2123  0.1935
 1360SOL    HW115299   2.203   0.039   6.486  0.7935 -0.7473  0.9159
 1360SOL    HW215300   2.352   0.097   6.523  1.1095  0.4866 -2.1947
 1361SOL     OW15301   0.308   6.797   3.195  0.0821 -0.1783  0.0243
 1361SOL    HW115302   0.394   6.832   3.230  1.3031 -2.5075 -0.5741
 1361SOL    HW215303   0.293   6.832   3.102  0.7813 -0.4118 -0.1779
 1362SOL     OW15304   3.299   8.687   5.929 -0.2106 -0.1837 -0.4829
 1362SOL    HW115305   3.316   8.779   5.894  0.2062 -0.1847 -0.2871
 1362SOL    HW215306   3.250   8.692   6.015  0.7772 -0.1065  0.0834
 1363SOL     OW15307   7.612   4.470   6.286  0.5740 -0.2167 -0.2841
 1363SOL    HW115308   7.568   4.406   6.223  0.7932  0.9105 -1.6017
 1363SOL    HW215309   7.699   4.432   6.317  0.0461 -1.1732  0.0646
 1364SOL     OW15310   2.870   1.221   4.896  0.3135 -0.1192  0.1337
 1364SOL    HW115311   2.928   1.294   4.860 -0.3450 -0.1122 -0.9455
 1364SOL    HW215312   2.774   1.241   4.877  0.1186 -1.2241 -0.1344
 1365SOL     OW15313   3.472   6.258   1.229 -0.3250  0.3591  0.0143
 1365SOL    HW115314   3.571   6.254   1.238 -0.4007  1.4377  1.6101
 1365SOL    HW215315   3.444   6.220   1.141  1.4662 -0.3172 -0.2684
 1366SOL     OW15316   6.777   7.862   6.304 -0.5284 -0.2354  0.8057
 1366SOL    HW115317   6.819   7.772   6.291 -1.2144 -0.4963  0.3537
 1366SOL    HW215318   6.710   7.857   6.378 -1.5543 -0.4429 -0.1225
 1367SOL     OW15319   4.546   9.384   4.702  0.7052 -0.7221  0.1120
 1367SOL    HW115320   4.618   9.337   4.752  0.0738 -1.2156  0.5580
 1367SOL    HW215321   4.457   9.347   4.727  0.3156 -0.3705 -0.7134
 1368SOL     OW15322   0.719   3.529   3.472 -0.9815  0.0108 -0.4496
 1368SOL    HW115323   0.670   3.445   3.448 -1.9499  0.5346 -0.3275
 1368SOL    HW215324   0.662   3.608   3.450  0.0368  0.6474 -0.8074
 1369SOL     OW15325   9.822   6.681   0.609 -0.3861 -0.1464 -0.2020
 1369SOL    HW115326   9.882   6.601   0.607 -1.2220 -0.7593 -1.2305
 1369SOL    HW215327   9.830   6.727   0.698 -0.1898 -1.5917  0.5383
 1370SOL     OW15328   2.176   4.969   4.735  0.2604  0.8349 -0.2719
 1370SOL    HW115329   2.222   5.021   4.663  1.7886  0.4684  0.4302
 1370SOL    HW215330   2.123   4.895   4.693 -0.0505  1.5082 -1.1052
 1371SOL     OW15331   0.402   4.798   2.806 -0.2507 -0.1955  0.5038
 1371SOL    HW115332   0.347   4.852   2.869 -1.1786 -1.2822  0.6412
 1371SOL    HW215333   0.344   4.763   2.732  0.4117 -0.6744  0.2009
 1372SOL     OW15334   0.354   8.011   2.962 -0.1543 -0.1654 -0.5551
 1372SOL    HW115335   0.323   8.105   2.980 -0.5598 -0.5257  0.6463
 1372SOL    HW215336   0.386   8.005   2.868 -0.9723  0.9587 -0.9252
 1373SOL     OW15337   2.746   2.440   2.988 -0.2356 -0.1713  0.4430
 1373SOL    HW115338   2.677   2.498   3.031 -1.9366 -0.7568 -1.3681
 1373SOL    HW215339   2.770   2.478   2.898  0.6932 -0.7833  0.4235
 1374SOL     OW15340   0.967   1.540   1.782  0.1771  0.4193  0.1157
 1374SOL    HW115341   0.990   1.463   1.723  0.6480 -0.4479  1.4203
 1374SOL    HW215342   0.908   1.604   1.732  1.2121  0.1072 -1.5511
 1375SOL     OW15343   0.584   9.001   2.778 -0.2160  0.1232 -0.3611
 1375SOL    HW115344   0.683   8.989   2.768 -0.5093  0.2540 -4.2287
 1375SOL    HW215345   0.566   9.083   2.832  1.7608 -0.0403  0.6043
 1376SOL     OW15346   2.718   6.907   0.024 -0.3706 -0.2810 -0.0504
 1376SOL    HW115347   2.662   6.879   0.101  0.9620 -3.3591 -0.1100
 1376SOL    HW215348   2.694   7.000  -0.004 -3.8046 -0.7037  1.3345
 1377SOL     OW15349   9.234   1.436   3.078 -0.1332  0.7774 -0.1122
 1377SOL    HW115350   9.174   1.464   3.152  1.3066 -1.3484  1.9230
 1377SOL    HW215351   9.184   1.441   2.991 -2.4672  1.3617  1.2228
 1378SOL     OW15352   7.793   3.698   1.470 -0.2724 -0.2471 -0.6844
 1378SOL    HW115353   7.745   3.704   1.383 -0.2089  0.0743 -0.6975
 1378SOL    HW215354   7.890   3.713   1.456 -0.4341  1.1625 -0.3761
 1379SOL     OW15355   0.227   9.983   5.063 -0.2439 -0.5203  0.5899
 1379SOL    HW115356   0.203  10.049   5.134 -0.5539  1.0853 -0.9713
 1379SOL    HW215357   0.265  10.031   4.984  0.2073 -2.2877 -0.3073
 1380SOL     OW15358   3.333   8.915   5.384 -1.0372 -0.0963  0.1765
 1380SOL    HW115359   3.400   8.850   5.419 -1.8938 -1.0024  0.1593
 1380SOL    HW215360   3.379   8.998   5.354  0.0224 -0.5272  0.5957
 1381SOL     OW15361   5.245   9.805   3.730  0.0032  0.1478  0.0352
 1381SOL    HW115362   5.296   9.775   3.810 -0.6713  0.2609  0.5168
 1381SOL    HW215363   5.278   9.895   3.701  0.1756  0.1540  0.2516
 1382SOL     OW15364   4.979   1.651   5.007 -0.2835 -0.7906  0.3851
 1382SOL    HW115365   5.043   1.625   5.079  0.3977  0.9416  0.4154
 1382SOL    HW215366   4.920   1.573   4.986  1.1900 -2.1137  1.0270
 1383SOL     OW15367   5.540   8.730   3.538  0.2877 -0.1067 -0.5764
 1383SOL    HW115368   5.501   8.796   3.475 -0.4418 -1.2183 -1.3158
 1383SOL    HW215369   5.614   8.680   3.492  1.1300  0.5010  0.1163
 1384SOL     OW15370   1.035   7.395   5.679  0.2886 -0.1522 -0.3922
 1384SOL    HW115371   1.088   7.378   5.763 -0.9225  0.6220  0.5523
 1384SOL    HW215372   1.075   7.473   5.631 -0.0278  0.4901  0.3682
 1385SOL     OW15373   0.455   3.943   3.315 -0.0236 -0.0530 -0.2991
 1385SOL    HW115374   0.401   3.913   3.236 -0.3343  0.4700 -0.2901
 1385SOL    HW215375   0.489   3.863   3.364 -1.5586 -0.4192  0.2095
 1386SOL     OW15376   9.890   5.117   2.144  0.2335 -0.2454  0.2283
 1386SOL    HW115377   9.825   5.080   2.078  0.5501 -0.9030  0.2830
 1386SOL    HW215378   9.854   5.203   2.182  0.4290  0.6071 -1.4404
 1387SOL     OW15379   4.756   6.283   0.792  0.4750  0.2612  0.0711
 1387SOL    HW115380   4.677   6.305   0.849  0.7886 -1.5083  1.2169
 1387SOL    HW215381   4.736   6.306   0.697 -0.9921  0.8801  0.5139
 1388SOL     OW15382   7.755   2.989   1.201  0.3437  0.1635 -0.3996
 1388SOL    HW115383   7.681   2.956   1.260  0.0124  0.4264 -0.6644
 1388SOL    HW215384   7.837   3.004   1.256 -0.1908  1.1594  0.1468
 1389SOL     OW15385   9.612   5.671   5.698 -0.1582 -0.2402 -0.5181
 1389SOL    HW115386   9.667   5.633   5.772 -0.2892 -2.1724 -1.3819
 1389SOL    HW215387   9.659   5.750   5.657  1.0352 -0.6667  0.0283
 1390SOL     OW15388   0.111   9.969   1.452 -0.3612 -0.3357 -0.7287
 1390SOL    HW115389   0.182   9.936   1.514 -0.6892  0.1635 -0.0880
 1390SOL    HW215390   0.148   9.976   1.359 -0.2536 -2.4769 -0.8923
 1391SOL     OW15391   3.475   0.494   1.221  0.5970  0.0993  0.1957
 1391SOL    HW115392   3.499   0.441   1.140  1.4501  0.3043  0.3044
 1391SOL    HW215393   3.488   0.437   1.303 -0.0919 -0.0513  0.2032
 1392SOL     OW15394   1.602   6.677   0.421  0.2169  0.3299 -0.1487
 1392SOL    HW115395   1.645   6.744   0.360  0.4850  0.0588 -0.2592
 1392SOL    HW215396   1.638   6.586   0.400 -0.6862  0.0466 -0.4994
 1393SOL     OW15397   1.262   4.874   1.950 -0.5007  0.5055  0.0925
 1393SOL    HW115398   1.341   4.813   1.947 -0.3035  0.8342 -2.3793
 1393SOL    HW215399   1.290   4.966   1.922 -1.6108  0.7729 -0.1705
 1394SOL     OW15400   0.412   3.686   2.337  0.4326 -0.5019 -0.0245
 1394SOL    HW115401   0.398   3.780   2.368  1.9523  0.5073 -2.3308
 1394SOL    HW215402   0.356   3.624   2.393 -0.7759  1.7737  1.3507
 1395SOL     OW15403   9.371   5.889   5.018  0.2321 -0.5812 -0.7685
 1395SOL    HW115404   9.396   5.945   4.939  2.4375  1.3960  1.2334
 1395SOL    HW215405   9.292   5.831   4.995  0.9271 -0.1842 -4.4130
 1396SOL     OW15406   5.349   6.515   1.301  0.0433 -0.1895 -0.7348
 1396SOL    HW115407   5.439   6.491   1.264  0.7323 -1.4909  1.6983
 1396SOL    HW215408   5.296   6.431   1.318 -0.8097  0.4602 -0.1225
 1397SOL     OW15409   5.943   0.679   4.530 -0.0099  0.7810  0.3346
 1397SOL    HW115410   5.876   0.605   4.523 -0.6899  1.5251 -1.3388
 1397SOL    HW215411   5.998   0.682   4.446  0.6573  1.5625  0.7924
 1398SOL     OW15412   1.874   0.672   3.853  0.0087 -0.0167  0.3952
 1398SOL    HW115413   1.815   0.751   3.872 -1.3429 -0.6194 -1.0978
 1398SOL    HW215414   1.963   0.686   3.895 -0.3519  2.1136  0.5221
 1399SOL     OW15415   4.743   3.017   5.608 -0.0710  0.0477 -0.4672
 1399SOL    HW115416   4.774   3.111   5.593  1.8185 -0.4996 -0.1822
 1399SOL    HW215417   4.751   2.995   5.705  1.4209 -1.0505 -0.8321
 1400SOL     OW15418   4.887   4.990   0.232 -0.0661  0.1863  0.2599
 1400SOL    HW115419   4.956   4.986   0.160  0.4582  0.2671  0.7581
 1400SOL    HW215420   4.908   5.064   0.295 -1.2078  0.9104 -0.1877
 1401SOL     OW15421   1.802   0.326   5.494  0.4993 -0.4235  0.2553
 1401SOL    HW115422   1.706   0.332   5.466  0.0869 -1.0866  1.4678
 1401SOL    HW215423   1.834   0.416   5.523  0.6547  0.0759 -1.4061
 1402SOL     OW15424   3.162   2.138   3.363 -0.2694  0.2828 -0.0301
 1402SOL    HW115425   3.082   2.084   3.389  0.9499 -1.0872  0.9717
 1402SOL    HW215426   3.154   2.230   3.402 -0.2386 -0.5927  2.0891
 1403SOL     OW15427   7.964   9.611   5.834 -0.3468  0.2433 -0.6226
 1403SOL    HW115428   8.017   9.528   5.815  1.3850  1.0302  0.6072
 1403SOL    HW215429   8.022   9.691   5.823 -1.4240  1.1680  0.2605
 1404SOL     OW15430   4.938   7.260   3.070  0.1301 -0.0830 -0.0782
 1404SOL    HW115431   4.853   7.207   3.062 -0.1630  0.6335 -2.0048
 1404SOL    HW215432   5.015   7.207   3.034  0.3696 -0.4505  0.9861
 1405SOL     OW15433   9.678   0.267   4.619 -0.4639 -0.3360  0.1765
 1405SOL    HW115434   9.771   0.302   4.632 -0.3302 -0.2348 -0.9816
 1405SOL    HW215435   9.636   0.313   4.541 -1.3014 -0.7674  0.3633
 1406SOL     OW15436   7.437   3.571   0.199  0.0871 -0.3046 -0.1179
 1406SOL    HW115437   7.503   3.503   0.167  1.3718  0.8419  0.0159
 1406SOL    HW215438   7.365   3.583   0.131  0.3901 -1.0899 -0.5756
 1407SOL     OW15439   3.495   6.982   3.584 -0.0536 -0.1610 -0.4409
 1407SOL    HW115440   3.397   6.975   3.570  0.2523 -4.2312 -1.2953
 1407SOL    HW215441   3.519   6.946   3.674  0.8213 -1.0545 -1.0139
 1408SOL     OW15442   5.078   8.905   4.589  0.1173  0.3220 -0.3009
 1408SOL    HW115443   5.128   8.823   4.560 -0.4717  0.1695 -0.9136
 1408SOL    HW215444   5.060   8.962   4.509 -0.0527  0.7235  0.0255
 1409SOL     OW15445   5.215   3.730   5.658  0.5767  0.3673  0.1334
 1409SOL    HW115446   5.175   3.650   5.702 -0.8551  0.2449 -1.3509
 1409SOL    HW215447   5.312   3.712   5.639  0.0432 -1.4003 -1.0354
 1410SOL     OW15448   5.098   2.770   3.198  0.1582 -0.4528  0.3612
 1410SOL    HW115449   5.041   2.842   3.238 -0.9772 -0.5954 -0.9817
 1410SOL    HW215450   5.181   2.811   3.161  0.1787 -0.0226  0.8778
 1411SOL     OW15451   1.501   2.904   1.695  0.6870 -0.3259 -0.5255
 1411SOL    HW115452   1.576   2.947   1.645  0.6392  1.0768  0.5742
 1411SOL    HW215453   1.536   2.866   1.781 -0.2397  2.3300  1.0636
 1412SOL     OW15454   5.648   2.368   5.573 -0.9168  0.5316 -0.0074
 1412SOL    HW115455   5.629   2.451   5.521  1.8300  0.7346 -0.7322
 1412SOL    HW215456   5.679   2.296   5.512  1.0781  0.3709  1.1733
 1413SOL     OW15457   3.632   1.836   2.385 -0.0123  0.3434  0.4328
 1413SOL    HW115458   3.539   1.806   2.404 -0.3217  1.0303  0.0116
 1413SOL    HW215459   3.668   1.885   2.465  0.4322 -0.9674  1.0556
 1414SOL     OW15460   0.729   5.405   0.531 -0.2474 -0.0047  0.5700
 1414SOL    HW115461   0.642   5.419   0.577  0.0681 -0.1151  1.2090
 1414SOL    HW215462   0.801   5.452   0.582 -0.1481  1.2881 -0.7311
 1415SOL     OW15463   7.079   3.825   1.867  0.6158 -0.0324 -0.0483
 1415SOL    HW115464   7.073   3.830   1.768  2.5176 -1.6040 -0.2582
 1415SOL    HW215465   7.136   3.900   1.901  0.9594 -0.2087 -0.2395
 1416SOL     OW15466   7.392   0.174   4.354 -0.2566  0.3152  0.6455
 1416SOL    HW115467   7.389   0.266   4.394  2.1160  0.6190  0.1981
 1416SOL    HW215468   7.485   0.139   4.360 -0.0281 -0.0566 -3.6643
 1417SOL     OW15469   8.186   4.891   1.557  0.1564 -0.3509 -0.1378
 1417SOL    HW115470   8.112   4.865   1.495  0.1254  0.7460 -0.5701
 1417SOL    HW215471   8.169   4.851   1.648 -2.4021  2.0782  0.5421
 1418SOL     OW15472   5.976   8.136   3.200 -0.1453  0.0573  0.2131
 1418SOL    HW115473   5.946   8.222   3.158  0.7502 -0.1033 -0.7614
 1418SOL    HW215474   5.898   8.092   3.244 -0.6418  1.3013  0.6040
 1419SOL     OW15475   2.518   9.863   2.826  0.2300 -0.2445 -0.0831
 1419SOL    HW115476   2.459   9.943   2.829 -1.3978 -1.4666  1.5888
 1419SOL    HW215477   2.471   9.785   2.867  2.1180 -1.8523 -0.8615
 1420SOL     OW15478   5.779   2.274   5.323 -0.2968  0.5832  0.4284
 1420SOL    HW115479   5.827   2.188   5.343 -1.8749 -0.2054  0.8984
 1420SOL    HW215480   5.740   2.270   5.231 -0.2560  0.8561  0.3997
 1421SOL     OW15481   8.100   4.539   1.660  0.4039  0.1395  0.2928
 1421SOL    HW115482   8.103   4.503   1.567 -0.7999  0.4217  0.1432
 1421SOL    HW215483   8.006   4.564   1.684  0.9672  1.7269  0.9468
 1422SOL     OW15484   3.208   8.975   2.820 -0.1319  0.0129  0.8434
 1422SOL    HW115485   3.276   8.932   2.761 -1.2016  0.5936 -0.8365
 1422SOL    HW215486   3.176   8.908   2.888 -0.2910 -1.2558 -0.4551
 1423SOL     OW15487   3.607   1.978   3.578 -0.0180  0.1671 -0.7307
 1423SOL    HW115488   3.540   2.046   3.549  0.4897  0.3024 -1.6253
 1423SOL    HW215489   3.623   1.914   3.503 -0.5355 -0.9783  0.1255
 1424SOL     OW15490   0.022   8.565   0.565 -0.0769  0.0716  0.1361
 1424SOL    HW115491   0.083   8.566   0.644  0.3657 -0.0721 -0.2081
 1424SOL    HW215492   0.037   8.647   0.510  0.7074 -0.5844 -0.6390
 1425SOL     OW15493   0.268   1.144   2.812 -0.0332  0.1877 -0.1068
 1425SOL    HW115494   0.289   1.192   2.897 -0.4267 -0.1647  0.1862
 1425SOL    HW215495   0.320   1.186   2.737  0.7528  0.1250  0.4026
 1426SOL     OW15496   9.824   1.234   5.074 -0.5299 -0.1457 -0.5225
 1426SOL    HW115497   9.733   1.200   5.096  0.0272 -1.4505 -0.1787
 1426SOL    HW215498   9.884   1.157   5.053  0.3744  0.7335 -1.1948
 1427SOL     OW15499   3.604   9.000   1.970 -0.1384 -0.3457 -0.2657
 1427SOL    HW115500   3.621   8.953   1.884 -1.4212 -0.9287 -0.2222
 1427SOL    HW215501   3.673   8.974   2.037  0.9389  0.2097 -1.1409
 1428SOL     OW15502   0.961   2.682   0.108 -0.9399  0.2526 -0.2068
 1428SOL    HW115503   0.875   2.701   0.157 -0.1534  1.2275  0.8116
 1428SOL    HW215504   0.940   2.656   0.014 -2.4235 -0.5926  0.3220
 1429SOL     OW15505   8.085   8.837   4.866 -0.2795  0.0657 -0.7351
 1429SOL    HW115506   8.000   8.796   4.901 -1.5988  1.3918 -2.2751
 1429SOL    HW215507   8.118   8.783   4.789  2.1867 -2.3987  1.9277
 1430SOL     OW15508   9.056   7.391   3.085 -0.3896  0.0369  0.0912
 1430SOL    HW115509   8.969   7.430   3.054 -0.3120 -0.2357 -0.4551
 1430SOL    HW215510   9.042   7.349   3.175 -0.8660 -0.1694 -0.0759
 1431SOL     OW15511   8.990   7.839   5.049 -0.5658  0.2635  0.0363
 1431SOL    HW115512   8.913   7.775   5.044 -1.6001  1.4649  0.4755
 1431SOL    HW215513   9.016   7.852   5.145  0.6035 -0.6209 -0.1499
 1432SOL     OW15514   3.767   3.676   7.922  0.6628  0.0676  0.0792
 1432SOL    HW115515   3.721   3.588   7.934  0.7724 -0.2766 -1.8450
 1432SOL    HW215516   3.846   3.681   7.983 -1.5109  0.4174  2.9805
 1433SOL     OW15517   9.849   7.060   2.461  0.0352  0.3042 -0.1225
 1433SOL    HW115518   9.825   7.154   2.486  0.0564  0.1250  0.5936
 1433SOL    HW215519   9.878   7.057   2.365 -2.1781  0.6244 -0.8189
 1434SOL     OW15520   2.161   2.172   5.356 -0.2746  0.0240 -0.2909
 1434SOL    HW115521   2.157   2.235   5.278  1.3480  1.0263  0.4022
 1434SOL    HW215522   2.083   2.189   5.416 -1.7494 -1.0169 -1.8672
 1435SOL     OW15523   7.135   8.952   4.167 -0.5591 -0.0562 -1.0584
 1435SOL    HW115524   7.085   8.895   4.101 -0.5664 -0.5088 -0.6655
 1435SOL    HW215525   7.081   8.960   4.251 -0.7062  0.8028 -1.2323
 1436SOL     OW15526   2.709   3.336   3.227  0.2173  0.4917  0.0643
 1436SOL    HW115527   2.773   3.281   3.282 -0.0363 -0.9554 -1.0513
 1436SOL    HW215528   2.615   3.313   3.253  0.0850 -0.5787 -1.3017
 1437SOL     OW15529   8.910   2.645   3.087 -0.2466  0.1030 -0.3594
 1437SOL    HW115530   8.967   2.704   3.029  1.5614  0.5779  1.8289
 1437SOL    HW215531   8.833   2.698   3.122 -0.0926  0.4324 -0.5111
 1438SOL     OW15532   8.414   1.661   2.838  0.0279 -0.0302 -0.0269
 1438SOL    HW115533   8.442   1.717   2.760 -0.4365  0.8047  0.4003
 1438SOL    HW215534   8.351   1.713   2.896  1.9889  0.1404  2.0382
 1439SOL     OW15535   7.648   1.812   1.295  0.0072  0.2879 -0.4149
 1439SOL    HW115536   7.557   1.812   1.254 -0.9924  0.7745  1.7288
 1439SOL    HW215537   7.691   1.902   1.283 -0.8597  0.8720  0.8450
 1440SOL     OW15538   6.684   0.201   3.906  0.5322 -0.2591  0.4954
 1440SOL    HW115539   6.750   0.267   3.943  0.0547 -0.3621  1.5393
 1440SOL    HW215540   6.592   0.239   3.913  0.2206 -1.1637  1.3853
 1441SOL     OW15541   2.352   7.984   4.973  0.2243  0.3111 -0.1888
 1441SOL    HW115542   2.450   7.998   4.988  0.3469  0.6419 -1.2167
 1441SOL    HW215543   2.333   7.990   4.875 -0.7619 -0.1718 -0.0284
 1442SOL     OW15544   0.731   6.011   1.853  0.3049  0.0261  0.1352
 1442SOL    HW115545   0.801   6.082   1.865  0.5272 -0.0462 -0.7502
 1442SOL    HW215546   0.685   6.024   1.766 -0.5866 -0.1133  0.5817
 1443SOL     OW15547   1.374   1.086   3.610  0.0912 -0.4723  0.2547
 1443SOL    HW115548   1.421   1.159   3.660  2.8176 -0.3077 -2.3782
 1443SOL    HW215549   1.296   1.124   3.560  0.5351  0.3723  0.1924
 1444SOL     OW15550   8.305   5.345   5.673  0.5920 -0.7209 -0.1308
 1444SOL    HW115551   8.249   5.293   5.609  1.0334 -0.9475 -0.3341
 1444SOL    HW215552   8.317   5.438   5.639  2.8950 -1.5369 -1.6461
 1445SOL     OW15553   2.395   0.920   2.892 -0.3895 -0.2866  0.6670
 1445SOL    HW115554   2.333   0.849   2.925 -0.0740 -1.2839 -0.8262
 1445SOL    HW215555   2.464   0.879   2.833  0.8122  1.0319  1.1326
 1446SOL     OW15556   4.742   4.337   1.425  0.7182  0.1326  0.2049
 1446SOL    HW115557   4.659   4.302   1.468  1.4427 -0.8893  0.7901
 1446SOL    HW215558   4.727   4.348   1.327  0.0397 -0.4767  0.2404
 1447SOL     OW15559   4.442   3.795   3.529  0.1421 -0.4161  0.0417
 1447SOL    HW115560   4.397   3.772   3.615 -0.5411 -0.8927 -0.4376
 1447SOL    HW215561   4.523   3.851   3.548  1.8813 -3.1790  1.2572
 1448SOL     OW15562   7.461   2.024   6.011  0.0461  0.2258 -0.5428
 1448SOL    HW115563   7.447   1.946   5.949 -2.0272  0.2977 -0.2171
 1448SOL    HW215564   7.494   2.103   5.958  1.8723 -0.7826 -0.9208
 1449SOL     OW15565   1.293   6.503   4.163  0.2984 -0.1166 -0.1163
 1449SOL    HW115566   1.257   6.454   4.084  0.9590 -1.1198  0.2062
 1449SOL    HW215567   1.247   6.592   4.170 -1.8293 -1.2102  0.0477
 1450SOL     OW15568   3.421   2.783   2.287  0.5602  0.1621 -0.1650
 1450SOL    HW115569   3.334   2.747   2.252  0.1440  0.6003  0.4102
 1450SOL    HW215570   3.472   2.709   2.331 -0.4391  0.3220  1.2985
 1451SOL     OW15571   2.663   2.032   3.739 -0.0785  0.4537 -0.4068
 1451SOL    HW115572   2.631   1.993   3.825 -0.6995  1.3376 -0.2323
 1451SOL    HW215573   2.738   2.096   3.758  0.3264  0.0408 -0.6042
 1452SOL     OW15574   7.665   2.494   5.778 -0.0117 -0.1596  0.3249
 1452SOL    HW115575   7.706   2.564   5.835  1.0368  1.0782 -1.8706
 1452SOL    HW215576   7.612   2.537   5.704 -0.8978 -1.6907  0.0337
 1453SOL     OW15577   1.890   4.530   2.892 -0.1387 -0.1538 -0.1437
 1453SOL    HW115578   1.803   4.481   2.884  0.7787 -1.7896 -0.2726
 1453SOL    HW215579   1.929   4.543   2.801 -0.3901  0.8841 -0.1163
 1454SOL     OW15580   5.672   8.607   4.922  0.3040  0.4208  0.8738
 1454SOL    HW115581   5.713   8.589   5.012  1.0120  0.5456  0.5763
 1454SOL    HW215582   5.572   8.600   4.929  0.3859 -0.0879  1.5512
 1455SOL     OW15583   2.155   2.472   3.567 -0.0589 -0.1628  0.2412
 1455SOL    HW115584   2.119   2.534   3.497  0.6020 -0.4138 -0.3227
 1455SOL    HW215585   2.100   2.389   3.570 -0.1507 -0.1073  0.0913
 1456SOL     OW15586   9.121   0.591   2.102  0.4528 -0.3680 -0.2433
 1456SOL    HW115587   9.101   0.532   2.180 -2.5268 -0.6474 -1.1892
 1456SOL    HW215588   9.061   0.568   2.026  1.9488  1.2516 -1.9686
 1457SOL     OW15589   3.155   9.082   0.063 -0.2000 -0.1525 -0.7296
 1457SOL    HW115590   3.168   8.986   0.037 -0.2214 -0.4421  0.3020
 1457SOL    HW215591   3.197   9.098   0.153 -0.8852  0.6032 -0.5416
 1458SOL     OW15592   9.377   5.430   1.619  0.0165  0.1418 -0.3263
 1458SOL    HW115593   9.350   5.411   1.525  0.8433  0.3064 -0.6042
 1458SOL    HW215594   9.402   5.344   1.665  0.8378  0.1968 -0.6545
 1459SOL     OW15595   9.620   4.823   1.811 -0.2036  0.4212  0.0972
 1459SOL    HW115596   9.645   4.857   1.720  4.8250  1.9432  1.8958
 1459SOL    HW215597   9.647   4.727   1.818  1.6875  0.9785  0.7334
 1460SOL     OW15598   4.186   9.866   5.723 -0.2221 -0.1121 -0.0568
 1460SOL    HW115599   4.244   9.785   5.734  0.4158  0.5698  1.7781
 1460SOL    HW215600   4.218   9.938   5.784 -2.0851  0.7991 -0.1317
 1461SOL     OW15601   3.948   9.824   5.537 -0.3482 -0.2874  0.2219
 1461SOL    HW115602   4.003   9.870   5.606 -2.2991  0.5169  1.2927
 1461SOL    HW215603   3.953   9.725   5.550 -0.6527 -0.1385  1.4820
 1462SOL     OW15604   7.378   2.930   5.678  0.2455  0.3003  0.0104
 1462SOL    HW115605   7.329   3.015   5.694 -2.2715 -0.9768 -0.6009
 1462SOL    HW215606   7.380   2.876   5.762  2.9215  1.4619  0.7313
 1463SOL     OW15607   0.860   3.935   4.626  0.1309 -0.1057  0.5472
 1463SOL    HW115608   0.862   3.913   4.528  0.7108  0.0849  0.5191
 1463SOL    HW215609   0.929   4.004   4.646 -2.8253  3.1288  0.2734
 1464SOL     OW15610   6.142   1.171   5.757  0.0130  0.3518  0.2020
 1464SOL    HW115611   6.101   1.249   5.804 -0.6433 -0.1225  0.4280
 1464SOL    HW215612   6.201   1.121   5.821  0.6362  0.8070 -0.0137
 1465SOL     OW15613   2.144   5.437   4.987 -0.5226 -0.5723 -0.2166
 1465SOL    HW115614   2.208   5.360   4.988  0.2987  0.1120  0.5019
 1465SOL    HW215615   2.195   5.523   4.979 -1.3686 -0.0451  0.0270
 1466SOL     OW15616   6.154   0.347   4.022  0.3608 -0.2646  0.1085
 1466SOL    HW115617   6.074   0.360   3.964 -0.2367  0.1663  1.0261
 1466SOL    HW215618   6.126   0.310   4.111  1.1858 -0.1962  0.4066
 1467SOL     OW15619   4.379   2.189   1.288 -0.3413  0.2342  0.1987
 1467SOL    HW115620   4.333   2.250   1.223 -1.2075 -0.5719  0.0488
 1467SOL    HW215621   4.454   2.142   1.242 -1.1963 -0.6244 -0.3212
 1468SOL     OW15622   2.851   1.566   0.936  0.1477 -0.2488  0.0956
 1468SOL    HW115623   2.900   1.630   0.876  2.0268 -0.6582  1.1556
 1468SOL    HW215624   2.855   1.474   0.896  0.7513 -0.3876  0.4755
 1469SOL     OW15625   6.361   1.198   1.193 -0.4841  0.0660  0.4925
 1469SOL    HW115626   6.347   1.270   1.261 -2.0661 -0.8252  1.1560
 1469SOL    HW215627   6.404   1.236   1.112 -0.5858  1.6025  1.1443
 1470SOL     OW15628   4.539   7.402   3.450 -0.5101  0.4843 -0.6445
 1470SOL    HW115629   4.599   7.404   3.370  0.1021  0.6431 -0.1806
 1470SOL    HW215630   4.509   7.308   3.466 -1.0276  0.5176 -1.3433
 1471SOL     OW15631   6.765   3.418   0.941  0.3196  0.6286  0.4060
 1471SOL    HW115632   6.699   3.412   1.016  0.8966  1.5744  1.0016
 1471SOL    HW215633   6.763   3.510   0.902 -0.5715 -0.1052 -1.3008
 1472SOL     OW15634   2.214   8.493   3.425 -0.1416  0.3809  0.2207
 1472SOL    HW115635   2.195   8.502   3.523 -1.0844  2.7605 -0.1470
 1472SOL    HW215636   2.128   8.482   3.376  0.3683 -1.3462 -0.3160
 1473SOL     OW15637   6.169   2.612   5.033  0.1777 -0.6015 -0.5069
 1473SOL    HW115638   6.242   2.658   4.983  0.1847 -2.0782 -1.8935
 1473SOL    HW215639   6.209   2.552   5.102  0.3341 -2.4399 -2.1755
 1474SOL     OW15640   5.238   6.778   1.394  0.2067 -0.1288  0.3035
 1474SOL    HW115641   5.224   6.858   1.335  0.2659 -0.1917  0.2037
 1474SOL    HW215642   5.216   6.695   1.343 -0.1675 -0.1558  0.5093
 1475SOL     OW15643   1.078   1.971   5.843 -0.7788 -0.3023 -0.3145
 1475SOL    HW115644   1.130   1.933   5.767 -1.5097  0.1683 -1.0656
 1475SOL    HW215645   0.983   1.939   5.837 -1.0577  0.4748 -0.1313
 1476SOL     OW15646   8.500   7.742   1.644  0.0895  0.3414 -0.3982
 1476SOL    HW115647   8.537   7.812   1.582 -0.5982  0.6632 -0.4551
 1476SOL    HW215648   8.412   7.774   1.681 -0.1203 -0.3995 -0.2533
 1477SOL     OW15649   6.534   3.048   5.718 -0.4818 -0.5771 -0.7816
 1477SOL    HW115650   6.479   2.974   5.679 -2.5905  0.6312 -0.2000
 1477SOL    HW215651   6.550   3.030   5.815  1.1930 -1.5045 -1.2060
 1478SOL     OW15652   5.050   1.326   1.130  0.4627 -0.1038 -0.1519
 1478SOL    HW115653   5.107   1.244   1.128 -3.0217 -2.6491  0.1022
 1478SOL    HW215654   4.989   1.323   1.209 -2.1096  0.9657 -2.0015
 1479SOL     OW15655   3.522   5.532   5.287  0.0341 -0.0779  0.1541
 1479SOL    HW115656   3.562   5.592   5.357 -1.2870  0.9102  0.0856
 1479SOL    HW215657   3.446   5.579   5.242 -1.3255 -1.9613  0.4084
 1480SOL     OW15658   4.426   6.426   2.243 -0.1848 -0.6642 -0.1807
 1480SOL    HW115659   4.512   6.408   2.194  0.0936 -0.1080  0.0947
 1480SOL    HW215660   4.358   6.358   2.216  0.6786 -1.7968  0.4151
 1481SOL     OW15661   3.277   8.399   0.282 -0.5639 -0.1749 -0.2388
 1481SOL    HW115662   3.225   8.466   0.333  0.0407  0.0395  0.1033
 1481SOL    HW215663   3.235   8.309   0.292  0.6785 -0.5161  2.3103
 1482SOL     OW15664   1.950   2.679   0.776 -0.0345 -0.0523 -0.0731
 1482SOL    HW115665   1.964   2.596   0.723 -0.4712  0.3060 -0.7614
 1482SOL    HW215666   1.867   2.725   0.745 -0.9017 -0.4077  1.6753
 1483SOL     OW15667   4.367   9.192   2.571  0.3262  0.1390  1.0018
 1483SOL    HW115668   4.325   9.156   2.654 -0.4023 -0.4466  0.3764
 1483SOL    HW215669   4.429   9.124   2.532  0.5459  0.3557  0.9639
 1484SOL     OW15670   8.978   6.219   4.633 -0.4648 -0.2412 -0.7923
 1484SOL    HW115671   8.977   6.236   4.535 -0.6321 -0.1719 -0.7791
 1484SOL    HW215672   8.929   6.293   4.680  1.3777  0.8270 -0.4920
 1485SOL     OW15673   2.609   4.713   4.069  0.3292 -0.4846 -0.2350
 1485SOL    HW115674   2.556   4.691   4.151  0.0566 -0.1180 -0.3139
 1485SOL    HW215675   2.629   4.811   4.068  1.4154 -0.6990  0.0356
 1486SOL     OW15676   0.675   8.033   2.727 -0.2264  0.0006  0.1386
 1486SOL    HW115677   0.600   7.967   2.726  0.9921 -1.4082 -0.5868
 1486SOL    HW215678   0.725   8.026   2.814  0.7934 -1.0797 -0.5226
 1487SOL     OW15679   7.973   0.612   4.890  0.2783 -0.3694 -0.1556
 1487SOL    HW115680   7.945   0.520   4.918 -1.3613  0.2252  0.1853
 1487SOL    HW215681   7.994   0.612   4.793  2.4150 -1.5910  0.2502
 1488SOL     OW15682   7.501   4.160   0.720  1.1739  0.0512  0.0581
 1488SOL    HW115683   7.519   4.162   0.622  0.6190  2.6333 -0.0235
 1488SOL    HW215684   7.524   4.249   0.760  1.4801 -1.0083  2.2875
 1489SOL     OW15685   2.393   5.331   5.182  0.1546 -0.0675 -0.5628
 1489SOL    HW115686   2.309   5.324   5.237  0.2497 -1.5934 -0.6057
 1489SOL    HW215687   2.428   5.240   5.163  1.8035  0.5649 -0.6038
 1490SOL     OW15688   0.692   1.464   1.367  0.2784 -0.5315  0.3144
 1490SOL    HW115689   0.664   1.415   1.450  1.1411  0.2111  1.0417
 1490SOL    HW215690   0.791   1.459   1.357  0.0973 -1.4519 -1.2080
 1491SOL     OW15691   7.251   2.913   5.212  0.0763  0.3690  0.0419
 1491SOL    HW115692   7.233   2.893   5.115  1.2237 -0.5068  0.0004
 1491SOL    HW215693   7.168   2.950   5.254 -1.1043 -1.2986 -0.7434
 1492SOL     OW15694   9.286   3.267   6.146  0.5556  0.6222  0.2068
 1492SOL    HW115695   9.317   3.217   6.065  0.4218  2.7918 -1.2338
 1492SOL    HW215696   9.364   3.287   6.205  0.5436 -1.6618  1.0397
 1493SOL     OW15697   7.166   1.275   0.637 -0.1836 -0.0636 -0.4196
 1493SOL    HW115698   7.248   1.254   0.584  0.2193 -0.3725  0.3209
 1493SOL    HW215699   7.090   1.220   0.603 -0.3677  1.0300 -1.8443
 1494SOL     OW15700   7.346   0.918   5.576  0.9040  0.1075  0.4053
 1494SOL    HW115701   7.430   0.865   5.564  1.7111  1.4503  0.1618
 1494SOL    HW215702   7.298   0.923   5.488  1.0674  0.2032  0.3218
 1495SOL     OW15703   7.658   3.475   4.330 -0.3628  0.5080  0.1359
 1495SOL    HW115704   7.727   3.426   4.276 -0.4426 -0.3336  0.7874
 1495SOL    HW215705   7.657   3.571   4.303  1.8309  0.7648  0.8711
 1496SOL     OW15706   1.303   5.042   5.058  0.4366 -0.2750  0.4130
 1496SOL    HW115707   1.389   5.094   5.064  0.3596 -0.3891  2.9991
 1496SOL    HW215708   1.304   4.968   5.126 -0.5614 -2.0372 -1.4297
 1497SOL     OW15709   8.439   3.877   3.086  0.1665  0.3025 -0.1835
 1497SOL    HW115710   8.434   3.849   3.182  1.5978  0.7126  0.0226
 1497SOL    HW215711   8.395   3.966   3.075  0.1656  0.3419  0.1242
 1498SOL     OW15712   6.128   7.449   5.004  0.4456  0.7656  0.3317
 1498SOL    HW115713   6.136   7.545   5.031  2.4384  0.1873  1.8379
 1498SOL    HW215714   6.060   7.403   5.062  0.1633  1.0256  0.2108
 1499SOL     OW15715   8.767   1.405   0.649  0.1766 -0.8928 -0.4243
 1499SOL    HW115716   8.804   1.357   0.729 -0.1370  1.6674  1.3455
 1499SOL    HW215717   8.669   1.390   0.644  0.0015 -0.1094  0.4047
 1500SOL     OW15718   7.075   5.077   7.531  0.3159  0.3088 -0.2660
 1500SOL    HW115719   7.145   5.022   7.576  0.2232  1.5161  1.3652
 1500SOL    HW215720   7.070   5.168   7.573 -2.8157 -0.0229  0.2291
 1501SOL     OW15721   3.262   8.522   3.271  0.4432  0.3997  0.3574
 1501SOL    HW115722   3.168   8.537   3.301  0.0146 -1.5239  0.0279
 1501SOL    HW215723   3.309   8.611   3.263 -1.5998  1.4512 -0.3846
 1502SOL     OW15724   7.272   0.597   5.547  0.2110 -0.2750 -0.5875
 1502SOL    HW115725   7.224   0.634   5.626 -0.6794 -0.4252 -1.0571
 1502SOL    HW215726   7.240   0.504   5.529  1.2769 -0.6899 -0.3983
 1503SOL     OW15727   9.145   8.290   5.583  0.5648 -0.5079  0.2738
 1503SOL    HW115728   9.235   8.331   5.594  0.7435 -0.5443 -0.9496
 1503SOL    HW215729   9.075   8.357   5.609  0.7254  1.7179 -4.4038
 1504SOL     OW15730   4.218   3.497   0.299  0.0981  0.2143 -0.7277
 1504SOL    HW115731   4.312   3.510   0.330 -0.3778  2.3834 -0.1544
 1504SOL    HW215732   4.217   3.442   0.215  1.8555  0.0895 -0.6679
 1505SOL     OW15733   9.445   3.321   1.386  0.4792  0.1307  0.3118
 1505SOL    HW115734   9.461   3.324   1.484 -0.9918  1.5211  0.5243
 1505SOL    HW215735   9.432   3.225   1.358 -0.6000 -0.1608  1.7277
 1506SOL     OW15736   4.092   6.935   4.306  0.2668  0.1387  0.2927
 1506SOL    HW115737   4.162   6.960   4.372 -0.7107  2.2063  0.5819
 1506SOL    HW215738   4.010   6.905   4.354 -0.2535  1.1188  0.0284
 1507SOL     OW15739   8.309   0.423   0.701  0.9346 -0.6233  0.5308
 1507SOL    HW115740   8.215   0.454   0.715  1.1949  0.2818  0.2333
 1507SOL    HW215741   8.357   0.421   0.789  1.5491  1.8520  0.2889
 1508SOL     OW15742   2.494   1.776   1.074  0.0875  0.1460 -0.6247
 1508SOL    HW115743   2.453   1.701   1.021  1.7414 -1.4833  0.3536
 1508SOL    HW215744   2.493   1.752   1.171  0.2726  1.5875 -0.2597
 1509SOL     OW15745   1.165   5.756   3.087 -0.3467  0.6263  0.3197
 1509SOL    HW115746   1.250   5.756   3.035 -0.7444 -0.4794 -0.3351
 1509SOL    HW215747   1.127   5.664   3.089 -0.9986  0.9083  1.4921
 1510SOL     OW15748   1.220   0.862   3.433  0.5119  0.0938 -0.2356
 1510SOL    HW115749   1.319   0.860   3.440  0.4958  0.1900 -0.0036
 1510SOL    HW215750   1.180   0.785   3.483  0.3399  1.4380  1.7586
 1511SOL     OW15751   0.925   1.372   4.617 -0.2505  0.4589  0.0318
 1511SOL    HW115752   0.977   1.454   4.639 -1.5155  1.7763 -1.7774
 1511SOL    HW215753   0.907   1.369   4.519 -1.9153 -0.9614  0.3587
 1512SOL     OW15754   8.144   9.476   2.471  0.8972  0.1712  0.2569
 1512SOL    HW115755   8.211   9.423   2.522 -0.8750 -0.7971  1.6179
 1512SOL    HW215756   8.053   9.457   2.505 -0.0355  2.0139 -1.0948
 1513SOL     OW15757   1.352   8.979   0.575  0.8392  0.4871  0.2034
 1513SOL    HW115758   1.297   8.949   0.653  2.5904 -1.2003  0.8355
 1513SOL    HW215759   1.305   9.054   0.528 -0.8572  0.6627  2.0968
 1514SOL     OW15760   0.331   1.853   4.744 -0.1966  0.0462 -0.2331
 1514SOL    HW115761   0.337   1.898   4.833 -0.5099  0.3367 -0.3602
 1514SOL    HW215762   0.421   1.850   4.702  0.3515 -1.8387  0.9585
 1515SOL     OW15763   2.365   0.369   4.770 -0.3991  0.0664 -0.2699
 1515SOL    HW115764   2.420   0.395   4.691  0.3116  0.8871  0.4849
 1515SOL    HW215765   2.389   0.427   4.848  0.7146 -2.3044  1.2408
 1516SOL     OW15766   9.257   2.743   1.413  0.4167  0.0142  0.0774
 1516SOL    HW115767   9.276   2.762   1.316  2.1154 -0.3217  0.3270
 1516SOL    HW215768   9.266   2.827   1.466 -0.6323  0.2224 -0.0664
 1517SOL     OW15769   2.982   2.457   5.309  0.0169 -0.2916 -0.2410
 1517SOL    HW115770   3.027   2.535   5.352 -0.6438  0.4727 -0.9176
 1517SOL    HW215771   3.025   2.372   5.340 -0.0130  0.2796  1.4062
 1518SOL     OW15772   1.020   1.697   1.444  0.4947 -0.2656 -0.0151
 1518SOL    HW115773   1.104   1.740   1.475  0.3303  0.3675 -0.4445
 1518SOL    HW215774   0.949   1.705   1.514  0.5789 -0.1670  0.0573
 1519SOL     OW15775   0.575   1.050   4.785  0.1910  0.1785 -0.2090
 1519SOL    HW115776   0.585   0.987   4.709 -3.5823  1.7130 -2.1201
 1519SOL    HW215777   0.629   1.133   4.767 -0.0733  0.2155 -0.8413
 1520SOL     OW15778   0.833   4.553   2.045 -0.4517 -0.1936 -0.0346
 1520SOL    HW115779   0.741   4.523   2.072 -0.4612 -0.4266 -0.3192
 1520SOL    HW215780   0.858   4.635   2.096 -0.5175 -0.5559  0.5868
 1521SOL     OW15781   3.432   5.729   0.323 -0.1624  0.0070 -0.0645
 1521SOL    HW115782   3.338   5.744   0.292  0.1579  1.1461 -0.4950
 1521SOL    HW215783   3.453   5.791   0.398  0.8508  1.0475 -1.1904
 1522SOL     OW15784   2.629   7.818   1.594 -0.4713 -0.3154  0.6972
 1522SOL    HW115785   2.665   7.903   1.554  1.3615 -0.8761  1.1293
 1522SOL    HW215786   2.657   7.812   1.689 -1.2875 -1.0296  0.8963
 1523SOL     OW15787   4.900   9.012   2.533 -0.0524  0.5312 -0.0492
 1523SOL    HW115788   4.930   8.965   2.450  0.8794 -0.8382  1.0510
 1523SOL    HW215789   4.913   8.952   2.612  0.6586  2.4417  1.3151
 1524SOL     OW15790   0.058   2.989   2.938 -0.4181  0.3646 -0.2038
 1524SOL    HW115791   0.028   2.948   2.852  0.0184 -0.2756 -0.0516
 1524SOL    HW215792   0.117   2.925   2.986 -0.5164  0.7962  0.4889
 1525SOL     OW15793   4.182   1.196   1.324 -0.2702 -0.0536  0.2372
 1525SOL    HW115794   4.191   1.279   1.378 -0.4946  0.2982 -0.2625
 1525SOL    HW215795   4.091   1.157   1.337  0.3791 -1.1290  1.7521
 1526SOL     OW15796   1.409   7.510   3.985  0.2273 -0.4684  0.2788
 1526SOL    HW115797   1.435   7.506   3.889 -0.2233  0.2130  0.1260
 1526SOL    HW215798   1.488   7.487   4.042  0.5761 -0.5585 -0.2409
 1527SOL     OW15799   0.666   4.137   5.631  0.3721 -0.9623 -0.0633
 1527SOL    HW115800   0.752   4.183   5.610  0.7318 -1.5395  0.1381
 1527SOL    HW215801   0.591   4.203   5.626  1.0266 -0.0744  1.4926
 1528SOL     OW15802   0.486   9.412   3.305  0.1877  0.4988 -0.0047
 1528SOL    HW115803   0.458   9.476   3.233  2.3767  1.3206 -0.1606
 1528SOL    HW215804   0.446   9.322   3.286 -0.8894  1.1917 -1.1515
 1529SOL     OW15805   3.732   7.641   2.648  0.5915  0.0794 -0.2046
 1529SOL    HW115806   3.700   7.619   2.741 -1.1017 -0.3801 -0.8849
 1529SOL    HW215807   3.801   7.712   2.653  0.7040 -0.1257  1.4453
 1530SOL     OW15808   6.127   0.407   5.579  0.3427  0.0111 -0.5651
 1530SOL    HW115809   6.090   0.456   5.500 -1.7496 -1.2264 -0.3976
 1530SOL    HW215810   6.139   0.311   5.555  1.5918  0.0079  0.0360
 1531SOL     OW15811   8.106   4.192   5.379 -0.3747  0.7266 -0.0527
 1531SOL    HW115812   8.067   4.253   5.310 -1.0918 -0.6950 -0.9200
 1531SOL    HW215813   8.080   4.098   5.359  0.0180  0.2107  1.7522
 1532SOL     OW15814   2.956   2.209   0.365  0.0170 -0.0041 -0.5798
 1532SOL    HW115815   3.010   2.276   0.314  1.1882 -0.8755 -0.5022
 1532SOL    HW215816   2.968   2.225   0.463 -0.0945 -0.0202 -0.5634
 1533SOL     OW15817   1.331   0.490   0.647  0.6134  0.1463 -0.0908
 1533SOL    HW115818   1.268   0.467   0.573  0.3760  0.0153  0.1486
 1533SOL    HW215819   1.400   0.553   0.614  0.2196  0.4693 -0.3011
 1534SOL     OW15820   9.739   0.664   4.622  0.0699 -0.4266 -0.1230
 1534SOL    HW115821   9.796   0.652   4.541  1.3985  1.1523  0.5710
 1534SOL    HW215822   9.782   0.619   4.700  0.0849  0.2716  0.2743
 1535SOL     OW15823   0.987   8.960   6.252 -0.0232 -0.4196 -0.2248
 1535SOL    HW115824   0.993   8.864   6.279 -1.0429 -0.7468 -1.1283
 1535SOL    HW215825   1.075   8.989   6.215  0.2860 -1.0108  0.0311
 1536SOL     OW15826   8.961   8.570   2.077 -0.4328  0.9875 -0.7754
 1536SOL    HW115827   8.936   8.473   2.083  1.3270  0.4795 -1.4202
 1536SOL    HW215828   8.903   8.615   2.009 -2.6701  0.8721  0.9984
 1537SOL     OW15829   8.899   1.515   5.593  0.2446  0.1781  0.0812
 1537SOL    HW115830   8.993   1.543   5.615  0.1936 -0.7185  1.4905
 1537SOL    HW215831   8.900   1.422   5.556  0.0624  0.7688 -1.4691
 1538SOL     OW15832   9.226   5.491   4.906 -0.4175 -0.1739  0.1757
 1538SOL    HW115833   9.287   5.436   4.848 -1.2256  0.1010 -0.9699
 1538SOL    HW215834   9.202   5.439   4.988 -1.1000 -1.5246 -0.8502
 1539SOL     OW15835   0.072   1.881   6.293 -0.0197 -0.9330  0.0205
 1539SOL    HW115836  -0.025   1.875   6.315 -0.0928 -0.0607 -0.0354
 1539SOL    HW215837   0.123   1.815   6.348 -0.5913 -1.1025  0.3507
 1540SOL     OW15838   8.906   3.860   0.493 -0.0255 -0.2494 -0.1320
 1540SOL    HW115839   8.949   3.944   0.525  0.9975 -0.9711  0.3993
 1540SOL    HW215840   8.939   3.837   0.401 -0.0351 -0.2708 -0.1302
 1541SOL     OW15841   1.716   7.598   4.819  0.1390 -0.0699 -0.0849
 1541SOL    HW115842   1.760   7.659   4.884  1.8479 -0.7304 -0.6024
 1541SOL    HW215843   1.785   7.557   4.759 -1.1766 -1.1135 -0.9221
 1542SOL     OW15844   3.744   9.549   5.245 -0.1071  0.0115 -0.1387
 1542SOL    HW115845   3.825   9.498   5.275 -0.7395 -0.0365  1.5690
 1542SOL    HW215846   3.742   9.638   5.290  0.6335  1.3086 -2.6011
 1543SOL     OW15847   9.680   2.247   5.165  0.0501 -0.0446  0.1868
 1543SOL    HW115848   9.707   2.340   5.139 -0.8025 -0.0625 -0.8083
 1543SOL    HW215849   9.587   2.249   5.202  0.1300 -0.4634  0.4117
 1544SOL     OW15850   3.116   1.398   1.109  0.0511  0.0338 -0.5532
 1544SOL    HW115851   3.049   1.463   1.147  0.1468 -0.2834  0.1550
 1544SOL    HW215852   3.160   1.439   1.029  0.4788  1.0512  0.1917
 1545SOL     OW15853   6.548   9.957   4.557  0.0536 -0.2286 -0.3986
 1545SOL    HW115854   6.589   9.868   4.576 -0.3177 -0.5593 -1.1134
 1545SOL    HW215855   6.484   9.949   4.480 -0.0214  0.6419 -0.4391
 1546SOL     OW15856   2.323   4.842   3.486 -0.2022  0.6312 -0.4529
 1546SOL    HW115857   2.274   4.756   3.468 -1.0737  1.0515 -0.1065
 1546SOL    HW215858   2.410   4.821   3.533 -0.7912 -0.0063  0.3845
 1547SOL     OW15859   9.681   4.885   1.554 -0.1124  0.0624  0.6108
 1547SOL    HW115860   9.773   4.921   1.561 -0.1918  0.2996  0.4294
 1547SOL    HW215861   9.640   4.915   1.467  0.5777 -2.1520 -0.5261
 1548SOL     OW15862   6.468   9.765   1.685  0.0106  0.0599 -0.3142
 1548SOL    HW115863   6.435   9.745   1.777  1.3048  0.2738  0.2060
 1548SOL    HW215864   6.465   9.864   1.669 -0.9530 -0.0412 -0.7939
 1549SOL     OW15865   9.743   3.752   6.137 -0.4143 -0.1622 -0.0289
 1549SOL    HW115866   9.825   3.777   6.087 -0.1484  2.1153  1.4343
 1549SOL    HW215867   9.682   3.831   6.143 -2.2449 -1.5263 -0.2064
 1550SOL     OW15868   8.348   1.547   4.686 -0.1781 -0.5712 -0.0328
 1550SOL    HW115869   8.299   1.634   4.687  1.1286  0.1785  0.2861
 1550SOL    HW215870   8.297   1.480   4.632 -0.5529  0.7982 -1.4173
 1551SOL     OW15871   3.313   7.622   2.424  0.1192 -0.2397 -0.3339
 1551SOL    HW115872   3.294   7.645   2.519 -0.1722  1.5226 -0.7877
 1551SOL    HW215873   3.404   7.655   2.400 -0.7453  1.4993 -1.3235
 1552SOL     OW15874   7.828   9.711   0.782  0.4828  0.1417 -0.0273
 1552SOL    HW115875   7.731   9.736   0.776  0.6865  1.4339  1.4648
 1552SOL    HW215876   7.882   9.794   0.798  2.2346 -0.0929 -4.1330
 1553SOL     OW15877   5.148   7.816   2.318 -0.3132 -0.3118 -0.5347
 1553SOL    HW115878   5.089   7.767   2.253 -0.5150  2.6113 -2.6633
 1553SOL    HW215879   5.102   7.900   2.347  2.2970  1.4813 -1.3990
 1554SOL     OW15880   9.047   2.207   1.970  0.6362 -0.0857  1.1592
 1554SOL    HW115881   9.057   2.288   2.027 -1.8593 -0.1019  1.6493
 1554SOL    HW215882   8.965   2.157   1.996 -1.0676  0.3734 -2.9980
 1555SOL     OW15883   9.294   3.557   0.041 -0.5798  0.4328 -0.1181
 1555SOL    HW115884   9.229   3.578   0.114  0.9011  1.9900  0.7973
 1555SOL    HW215885   9.271   3.469  -0.001 -1.4613 -0.4682  2.2044
 1556SOL     OW15886   8.144   4.522   3.949 -0.1352  0.5541 -0.3941
 1556SOL    HW115887   8.135   4.620   3.935  3.3645  0.7817 -1.5006
 1556SOL    HW215888   8.053   4.482   3.964 -1.6505  3.8484 -0.3717
 1557SOL     OW15889   8.739   1.118   3.995  0.0803 -0.1441 -0.1218
 1557SOL    HW115890   8.716   1.206   3.953  0.4187 -0.2663 -0.5779
 1557SOL    HW215891   8.697   1.044   3.943 -1.5267 -0.1754  1.1981
 1558SOL     OW15892   8.190   4.328   3.226 -0.4343 -0.1059  0.3853
 1558SOL    HW115893   8.274   4.273   3.225 -0.1134  0.3960 -0.2145
 1558SOL    HW215894   8.113   4.269   3.249 -0.1215 -0.8664 -0.4897
 1559SOL     OW15895   8.922   5.652   0.657  0.3937 -0.2371 -0.5983
 1559SOL    HW115896   9.007   5.698   0.680 -0.4968 -0.5143  3.6468
 1559SOL    HW215897   8.863   5.715   0.607  0.8550  1.9285  1.4658
 1560SOL     OW15898   1.533   0.295   4.706 -0.3355  0.6114  0.0927
 1560SOL    HW115899   1.582   0.218   4.748  1.0346  0.8035 -1.0940
 1560SOL    HW215900   1.491   0.351   4.777  0.7217  0.1106  1.1264
 1561SOL     OW15901   3.222   9.125   5.580 -0.0655 -0.0134 -0.5371
 1561SOL    HW115902   3.218   9.040   5.527 -3.2103  1.2101 -2.3667
 1561SOL    HW215903   3.249   9.201   5.519  0.5756  0.7034  0.6089
 1562SOL     OW15904   5.523   5.225   1.270  0.2589  0.0437 -0.1175
 1562SOL    HW115905   5.482   5.177   1.348 -0.4091 -1.6345 -1.4666
 1562SOL    HW215906   5.483   5.316   1.262 -2.2741 -1.0691 -0.5943
 1563SOL     OW15907   1.779   5.740   0.387  0.2727  0.4727 -0.1877
 1563SOL    HW115908   1.814   5.656   0.344  1.4326  0.0892  1.4595
 1563SOL    HW215909   1.723   5.716   0.466 -1.0955  1.2081 -0.9104
 1564SOL     OW15910   1.556   0.426   2.007  0.7790  0.3452 -0.9559
 1564SOL    HW115911   1.499   0.488   2.060  0.7099 -1.5135  1.2000
 1564SOL    HW215912   1.653   0.449   2.020  0.6728  1.6790 -2.3368
 1565SOL     OW15913   0.739   2.337   0.397  0.0857  0.2678  0.4855
 1565SOL    HW115914   0.684   2.415   0.430  0.8291  0.4952  1.1972
 1565SOL    HW215915   0.821   2.371   0.352 -0.1645 -0.0870 -0.2526
 1566SOL     OW15916   2.948   6.812   1.734  0.5543  0.4208 -0.2377
 1566SOL    HW115917   2.869   6.855   1.777  0.6851  0.6276 -0.2030
 1566SOL    HW215918   3.020   6.880   1.719  0.9035  0.1437  0.1440
 1567SOL     OW15919   8.188   1.505   4.136 -0.0615 -0.2640 -0.3183
 1567SOL    HW115920   8.228   1.574   4.196 -0.4215 -0.8225  0.5556
 1567SOL    HW215921   8.255   1.478   4.067  0.7399 -0.4897  0.5449
 1568SOL     OW15922   5.370   2.783   8.176  0.4746  0.7530 -0.2645
 1568SOL    HW115923   5.367   2.827   8.266  0.8663  1.6162 -0.6785
 1568SOL    HW215924   5.444   2.715   8.175  0.6650  0.9550 -0.0348
 1569SOL     OW15925   7.963   3.702   2.572  0.3047 -0.1629 -0.0427
 1569SOL    HW115926   7.976   3.801   2.566  1.3669 -0.2822  0.1460
 1569SOL    HW215927   7.914   3.670   2.491  1.0802  0.3390 -0.7133
 1570SOL     OW15928   5.138   7.665   5.145 -0.3321  0.2511  0.1400
 1570SOL    HW115929   5.042   7.637   5.158 -0.5826  1.2801  0.5405
 1570SOL    HW215930   5.140   7.756   5.104  0.4754  0.7516  1.2779
 1571SOL     OW15931   7.743   3.382   5.067  0.1270  0.0232 -0.1088
 1571SOL    HW115932   7.824   3.352   5.119  0.4734 -2.1634 -1.8422
 1571SOL    HW215933   7.772   3.440   4.991 -0.2466  1.8421  1.0904
 1572SOL     OW15934   0.259   4.525   1.193 -0.5678  0.2241 -0.3259
 1572SOL    HW115935   0.309   4.506   1.277  0.5207  1.7588 -0.5867
 1572SOL    HW215936   0.183   4.461   1.183  0.8269 -1.5872  0.5298
 1573SOL     OW15937   9.035   1.749   0.382  0.1262  0.0628  0.0370
 1573SOL    HW115938   9.053   1.708   0.471  1.7877 -0.6727 -0.6328
 1573SOL    HW215939   8.967   1.695   0.333  1.3938 -1.1891 -0.3408
 1574SOL     OW15940   3.791   4.169   7.989  0.0070  0.1328 -0.6045
 1574SOL    HW115941   3.730   4.226   8.043  0.7775  0.1277  0.2922
 1574SOL    HW215942   3.853   4.119   8.050  0.4049 -0.4363 -1.4533
 1575SOL     OW15943   0.838   0.600   5.884 -0.6621  0.0321 -0.0184
 1575SOL    HW115944   0.786   0.596   5.969 -0.9320 -0.3139 -0.2019
 1575SOL    HW215945   0.782   0.569   5.808 -0.8444  1.5866 -0.5357
 1576SOL     OW15946   1.425   2.043   1.982 -0.1970  0.3259  0.2030
 1576SOL    HW115947   1.444   2.020   2.078 -1.1968  1.1623  0.6098
 1576SOL    HW215948   1.505   2.090   1.944 -0.1435  0.8110  0.8989
 1577SOL     OW15949   5.227   9.237   2.256  0.2697 -0.0227  0.0174
 1577SOL    HW115950   5.227   9.205   2.161  0.0291 -1.2737  0.4297
 1577SOL    HW215951   5.140   9.283   2.275 -0.5328 -1.6176  0.2382
 1578SOL     OW15952   8.965   1.970   2.858  0.2934  0.0214 -0.2385
 1578SOL    HW115953   8.931   2.033   2.928  1.3661  0.2262  0.1081
 1578SOL    HW215954   8.929   1.879   2.876  0.4583  0.1000  0.5210
 1579SOL     OW15955   6.235   8.558   5.675 -0.4228 -0.5443  0.0152
 1579SOL    HW115956   6.210   8.584   5.581  0.9291 -0.5790 -0.3777
 1579SOL    HW215957   6.309   8.617   5.706  0.2005 -1.5586  0.4735
 1580SOL     OW15958   2.543   4.778   3.635  0.1408  0.4123  0.3176
 1580SOL    HW115959   2.575   4.703   3.693 -0.7258 -0.0034  0.2714
 1580SOL    HW215960   2.529   4.860   3.691 -0.0943  0.1910  0.5813
 1581SOL     OW15961   3.049   1.110   2.362 -0.0299 -0.4761 -0.1271
 1581SOL    HW115962   3.097   1.050   2.297 -0.1152 -0.2941 -0.3591
 1581SOL    HW215963   3.047   1.203   2.326 -0.5106 -0.4707 -0.0930
 1582SOL     OW15964   7.287   1.343   6.215 -0.2338 -0.2955  0.2377
 1582SOL    HW115965   7.250   1.282   6.285  0.9887 -0.6180  0.6251
 1582SOL    HW215966   7.385   1.325   6.204 -0.0220  1.0636 -0.1975
 1583SOL     OW15967   9.136   7.120   3.796 -0.0633 -0.0999 -0.2484
 1583SOL    HW115968   9.191   7.069   3.862  1.0088  1.9511  0.4859
 1583SOL    HW215969   9.104   7.205   3.838 -1.2655  0.1644 -1.6578
 1584SOL     OW15970   3.627   1.019   3.895  0.5636  0.4217  0.0873
 1584SOL    HW115971   3.609   0.935   3.844 -0.3615  0.1744  0.7900
 1584SOL    HW215972   3.692   1.076   3.845  1.2848 -0.7657 -0.3360
 1585SOL     OW15973   5.439   0.142   6.757  0.0714 -0.2443 -0.5071
 1585SOL    HW115974   5.527   0.184   6.779 -1.3006  2.1869  0.5347
 1585SOL    HW215975   5.432   0.053   6.802  1.3849  0.2057  0.6166
 1586SOL     OW15976   7.569   9.878   3.518 -0.6345  0.3260  0.1527
 1586SOL    HW115977   7.490   9.896   3.576 -0.7883  1.5312 -0.4189
 1586SOL    HW215978   7.576   9.949   3.448  1.1342  0.4040  0.3846
 1587SOL     OW15979   4.669   8.124   5.763 -0.3359  0.0679  0.2401
 1587SOL    HW115980   4.701   8.202   5.709 -0.2392 -0.4004 -0.3865
 1587SOL    HW215981   4.625   8.157   5.846  1.5408  0.7283  1.0028
 1588SOL     OW15982   8.199   3.973   3.322 -0.2574 -0.4823 -0.0231
 1588SOL    HW115983   8.161   3.920   3.246 -0.6091  0.2984 -0.3989
 1588SOL    HW215984   8.125   4.016   3.373  0.0923  0.7728 -0.5552
 1589SOL     OW15985   7.995   7.088   2.424 -0.1825 -0.3090 -0.5239
 1589SOL    HW115986   8.088   7.115   2.399 -0.1717  1.0271  0.8797
 1589SOL    HW215987   7.948   7.054   2.343  1.4886 -0.8945 -1.2784
 1590SOL     OW15988   7.180   3.536   8.063  0.0684 -0.0600 -0.3695
 1590SOL    HW115989   7.093   3.565   8.021  0.8968  0.7959 -1.5326
 1590SOL    HW215990   7.182   3.436   8.069 -1.4433 -0.0480  0.6527
 1591SOL     OW15991   1.057   8.574   6.054 -0.0111  0.1745 -0.1741
 1591SOL    HW115992   1.089   8.522   6.133  0.2291  1.2940  0.4875
 1591SOL    HW215993   1.104   8.543   5.972 -0.6415 -1.3535  0.0376
 1592SOL     OW15994   8.483   7.493   1.525  0.4023  0.3077 -0.2392
 1592SOL    HW115995   8.406   7.490   1.461  0.5727  0.2558 -0.4419
 1592SOL    HW215996   8.473   7.573   1.585 -0.1100 -0.0121  0.1096
 1593SOL     OW15997   8.071   0.333   4.557  0.0598  0.0201  0.1792
 1593SOL    HW115998   8.137   0.314   4.484 -0.1174 -0.7855  0.2264
 1593SOL    HW215999   8.098   0.285   4.640  0.4166  1.1660  0.7350
 1594SOL     OW16000   8.577   3.756   1.333 -0.0658  0.1278  0.1085
 1594SOL    HW116001   8.563   3.693   1.256  0.2054  1.4477 -1.0296
 1594SOL    HW216002   8.490   3.771   1.380 -0.0889 -1.2734  0.5312
 1595SOL     OW16003   9.999   9.061   2.090 -0.4614 -0.7062  0.4694
 1595SOL    HW116004  10.075   9.081   2.029  0.2441  1.0056  1.8747
 1595SOL    HW216005   9.936   9.139   2.093 -0.4438 -0.7337  1.9723
 1596SOL     OW16006   3.454   9.517   2.554 -0.0044  0.0409 -0.2645
 1596SOL    HW116007   3.437   9.615   2.549  1.0967  0.3853  2.2335
 1596SOL    HW216008   3.542   9.496   2.511 -0.3064  0.1085 -0.9283
 1597SOL     OW16009   3.381   1.929   4.033  0.5131  0.2465 -0.2357
 1597SOL    HW116010   3.458   1.927   4.097  0.7238 -0.1570 -0.4959
 1597SOL    HW216011   3.416   1.934   3.939  0.2559 -1.3729 -0.4296
 1598SOL     OW16012   4.587   1.988   1.686  0.1310 -0.1931 -0.3530
 1598SOL    HW116013   4.560   2.056   1.618 -0.1178 -0.1416 -0.2009
 1598SOL    HW216014   4.676   1.949   1.660  1.2369  1.6070  0.6294
 1599SOL     OW16015   1.506   5.527   4.295  0.3809  0.0150 -0.3456
 1599SOL    HW116016   1.516   5.534   4.195 -2.5108  0.9927 -0.6091
 1599SOL    HW216017   1.531   5.615   4.336  0.4406 -0.0250 -0.2946
 1600SOL     OW16018   2.419   0.585   2.082  0.2178  0.1484 -0.3725
 1600SOL    HW116019   2.366   0.571   2.166 -0.0496  1.4519 -0.3254
 1600SOL    HW216020   2.445   0.496   2.045  2.0789 -0.4498  2.1887
 1601SOL     OW16021   2.894   1.706   2.967 -0.3754  0.0261 -0.5271
 1601SOL    HW116022   2.964   1.648   2.926  1.8246  0.6197  2.2208
 1601SOL    HW216023   2.890   1.793   2.918 -0.0649 -0.4582 -1.4302
 1602SOL     OW16024   7.123   1.933   8.082 -0.5180  0.0738 -0.3265
 1602SOL    HW116025   7.171   1.932   8.170 -0.7113 -1.1869 -0.2150
 1602SOL    HW216026   7.073   2.019   8.072 -1.6577 -0.3333  1.4750
 1603SOL     OW16027   0.144   9.308   3.260 -0.1161 -0.3527  0.4049
 1603SOL    HW116028   0.235   9.268   3.269 -1.5933 -3.6721  1.4847
 1603SOL    HW216029   0.086   9.249   3.203 -1.9211  1.0846  0.6846
 1604SOL     OW16030   9.069   0.405   5.146 -1.0209 -0.1568 -0.2790
 1604SOL    HW116031   9.047   0.419   5.049  0.8281 -2.1532 -1.0353
 1604SOL    HW216032   9.164   0.377   5.155 -0.1224  3.4794  2.4753
 1605SOL     OW16033   0.241   1.222   2.178 -0.3323 -0.0056  0.1387
 1605SOL    HW116034   0.144   1.234   2.194 -0.3783  0.1195 -0.2285
 1605SOL    HW216035   0.286   1.311   2.174 -0.1060 -0.0863  0.9028
 1606SOL     OW16036   7.250   0.203   1.202  0.0994 -0.4410 -0.2722
 1606SOL    HW116037   7.329   0.263   1.189  0.8760 -1.2578  0.6850
 1606SOL    HW216038   7.182   0.250   1.259  0.5585 -0.3328  0.1917
 1607SOL     OW16039   0.907   7.055   0.547 -0.4243 -0.0770  0.4649
 1607SOL    HW116040   0.947   7.029   0.635  0.1168 -1.3345 -0.1372
 1607SOL    HW216041   0.976   7.101   0.491 -0.2643 -0.8324  0.0346
 1608SOL     OW16042   5.336   2.310   0.217  0.3121  0.3255 -0.0599
 1608SOL    HW116043   5.256   2.262   0.254  0.1696  0.2782 -0.4253
 1608SOL    HW216044   5.338   2.403   0.253  0.1486  0.2943  0.0327
 1609SOL     OW16045   1.272   5.180   0.798  0.5167 -0.4198  0.0927
 1609SOL    HW116046   1.371   5.176   0.789  0.8337  2.7625  1.4412
 1609SOL    HW216047   1.247   5.197   0.893 -1.0619  3.2167 -0.8618
 1610SOL     OW16048   2.900   9.505   4.373 -0.0164 -0.5062 -0.2338
 1610SOL    HW116049   2.829   9.485   4.441  0.6236  0.8326  0.8508
 1610SOL    HW216050   2.953   9.422   4.357 -0.8136 -1.1075  0.1423
 1611SOL     OW16051   7.698   5.558   0.770 -0.1825 -0.1885 -0.0631
 1611SOL    HW116052   7.719   5.616   0.691 -0.3972 -0.5998 -0.4239
 1611SOL    HW216053   7.756   5.584   0.847  1.6969 -1.3637 -1.0478
 1612SOL     OW16054   9.034   2.669   5.499  0.2372  0.4879 -0.1140
 1612SOL    HW116055   9.002   2.627   5.584  0.4760  1.2363  0.3516
 1612SOL    HW216056   9.119   2.626   5.469  0.6826  0.8976  0.5627
 1613SOL     OW16057   3.721   8.359   3.714  0.4164  0.0715  0.1971
 1613SOL    HW116058   3.766   8.420   3.649  1.1451 -0.9238 -0.2332
 1613SOL    HW216059   3.696   8.274   3.669 -0.9215  0.1821  0.7127
 1614SOL     OW16060   0.099   7.424   3.965  0.5558 -0.5785 -0.2383
 1614SOL    HW116061   0.124   7.473   3.881  3.0988  0.5968  1.1504
 1614SOL    HW216062   0.030   7.477   4.015  0.9591  0.0243 -0.3121
 1615SOL     OW16063   0.019   8.280   5.847 -0.1572  0.5528  0.1898
 1615SOL    HW116064   0.046   8.270   5.942  0.6865 -1.5081 -0.2452
 1615SOL    HW216065   0.100   8.290   5.790 -0.6668  1.9619 -0.3050
 1616SOL     OW16066   7.867   6.133   3.055 -1.0427 -0.4869  0.4047
 1616SOL    HW116067   7.936   6.203   3.074 -1.7254  0.9486 -2.1883
 1616SOL    HW216068   7.794   6.139   3.124  0.1889 -0.3965  1.7174
 1617SOL     OW16069   6.394   2.860   5.596 -0.3463  0.4849  0.1347
 1617SOL    HW116070   6.340   2.809   5.530 -1.0203  1.2687  0.0721
 1617SOL    HW216071   6.345   2.865   5.683  0.9938 -1.4283  1.0252
 1618SOL     OW16072   9.781   1.949   5.388  0.1782 -0.0172 -0.2042
 1618SOL    HW116073   9.683   1.961   5.375  0.4068  0.5490 -1.4636
 1618SOL    HW216074   9.797   1.882   5.461 -1.1363 -0.0321  0.0806
 1619SOL     OW16075   8.187   7.418   0.893  0.7805  0.3967  0.6209
 1619SOL    HW116076   8.167   7.516   0.886 -1.3650 -0.0525  0.0273
 1619SOL    HW216077   8.268   7.397   0.840  0.9342  1.7634  0.2902
 1620SOL     OW16078   0.771   2.507   4.384 -0.1669  0.3658 -0.1407
 1620SOL    HW116079   0.703   2.436   4.401  0.5460  0.0576  1.4308
 1620SOL    HW216080   0.765   2.578   4.454 -0.2502  1.4153 -1.1740
 1621SOL     OW16081   0.302   9.810   4.715  0.2526 -0.1642  0.0105
 1621SOL    HW116082   0.314   9.908   4.701  1.2495 -0.2321  0.3384
 1621SOL    HW216083   0.308   9.790   4.813  0.1387 -0.5647 -0.0629
 1622SOL     OW16084   4.979   1.900   4.428  0.3902 -0.6465 -0.3040
 1622SOL    HW116085   5.001   1.820   4.371  0.7216 -0.7000 -0.1011
 1622SOL    HW216086   5.036   1.977   4.401 -0.0338 -0.4350 -0.5980
 1623SOL     OW16087   1.032   3.630   2.540  0.0027 -0.4668  0.1834
 1623SOL    HW116088   1.067   3.722   2.523 -1.1998  0.0637  0.5278
 1623SOL    HW216089   0.938   3.624   2.506 -0.1099 -1.4061  0.6588
 1624SOL     OW16090   7.433   6.975   4.604 -0.5435  0.1024 -0.5223
 1624SOL    HW116091   7.430   6.898   4.668 -1.4936  0.3940 -0.2163
 1624SOL    HW216092   7.427   6.939   4.510 -0.5069 -0.2316 -0.3998
 1625SOL     OW16093   2.229   7.047   3.409  0.0061  0.1385  0.1010
 1625SOL    HW116094   2.296   7.010   3.344 -0.0269  0.7693 -0.2978
 1625SOL    HW216095   2.137   7.020   3.380  0.0452 -0.2253  0.3149
 1626SOL     OW16096   3.195   6.880   5.452  0.8760  0.6745 -0.3416
 1626SOL    HW116097   3.170   6.966   5.494  2.1023  0.5279  0.7026
 1626SOL    HW216098   3.113   6.835   5.415  0.1025  1.7728  0.0454
 1627SOL     OW16099   3.275   1.413   0.478 -0.5863 -0.3247 -0.1795
 1627SOL    HW116100   3.203   1.479   0.497  0.4981  0.5420  1.0652
 1627SOL    HW216101   3.262   1.374   0.387  0.1379  3.4373 -2.0027
 1628SOL     OW16102   5.319   4.457   0.002  0.4007  0.1705 -0.2604
 1628SOL    HW116103   5.409   4.414  -0.009  0.3257  0.4594 -2.1669
 1628SOL    HW216104   5.325   4.553  -0.024 -0.7419 -0.1075 -1.5909
 1629SOL     OW16105   6.924   7.854   4.707  0.3575  0.0312  0.2611
 1629SOL    HW116106   6.912   7.862   4.608  0.6628  0.4480  0.2582
 1629SOL    HW216107   6.931   7.757   4.731 -1.7839 -0.1977  0.1243
 1630SOL     OW16108   3.964   6.569   0.627 -0.0645 -0.2475 -0.2135
 1630SOL    HW116109   3.915   6.656   0.632 -0.0780 -0.4178  3.9077
 1630SOL    HW216110   4.044   6.571   0.686 -0.2779 -3.1531  0.2770
 1631SOL     OW16111   3.774   9.259   6.467  0.5316  0.6901 -0.1207
 1631SOL    HW116112   3.713   9.181   6.479  1.2188  0.3417  1.2531
 1631SOL    HW216113   3.852   9.250   6.529  1.5692  1.5327 -1.2726
 1632SOL     OW16114   8.539   7.083   2.317 -0.2124  0.5811  0.0471
 1632SOL    HW116115   8.572   7.054   2.407  1.4286  0.0481 -0.7095
 1632SOL    HW216116   8.612   7.129   2.268 -0.2023 -1.6354 -2.1125
 1633SOL     OW16117   8.422   5.429   3.853 -0.4436 -0.0240  0.2472
 1633SOL    HW116118   8.397   5.425   3.950 -0.8333 -1.1923  0.1002
 1633SOL    HW216119   8.450   5.339   3.822  1.1521  0.6544 -0.3511
 1634SOL     OW16120   0.899   1.965   5.586  0.5921  0.0057 -0.2130
 1634SOL    HW116121   0.929   2.060   5.574 -0.5678  0.3115 -0.7103
 1634SOL    HW216122   0.979   1.905   5.585  1.3172  0.9532 -0.0953
 1635SOL     OW16123   6.538   4.190   0.631 -0.0575  0.3336  0.0259
 1635SOL    HW116124   6.579   4.101   0.607 -0.4754  0.6410 -1.9565
 1635SOL    HW216125   6.465   4.176   0.697  0.9344 -0.6228  0.9410
 1636SOL     OW16126   7.973   1.069   3.829 -0.3331 -0.7611  0.2718
 1636SOL    HW116127   8.071   1.069   3.810 -0.1401 -0.7996  1.2141
 1636SOL    HW216128   7.959   1.074   3.928 -1.2924  0.4357  0.0862
 1637SOL     OW16129   9.119   3.611   5.006 -0.0282 -0.1015 -0.6861
 1637SOL    HW116130   9.185   3.540   4.981 -0.9712 -1.5303  0.7851
 1637SOL    HW216131   9.128   3.633   5.103 -3.3636 -2.1280  0.1366
 1638SOL     OW16132   9.356   7.580   0.612 -0.3790  0.3372  0.3470
 1638SOL    HW116133   9.430   7.604   0.549  0.8959 -2.0888  0.8667
 1638SOL    HW216134   9.282   7.537   0.560 -0.4179  0.6314  0.1551
 1639SOL     OW16135   6.274   5.354   0.839 -0.2327 -0.5267  0.5701
 1639SOL    HW116136   6.182   5.386   0.860 -0.8348 -0.6695 -1.7528
 1639SOL    HW216137   6.279   5.255   0.851 -0.3949 -0.5331  0.5825
 1640SOL     OW16138   7.069   0.314   6.253 -0.4073 -0.0661 -0.4311
 1640SOL    HW116139   7.087   0.412   6.248 -1.2608  0.1425  0.4728
 1640SOL    HW216140   6.971   0.298   6.249 -0.2611 -0.8930 -0.7417
 1641SOL     OW16141   8.114   0.297   4.035  0.4472  0.2210  0.0252
 1641SOL    HW116142   8.172   0.250   4.101  0.4554  1.0389  0.6065
 1641SOL    HW216143   8.075   0.379   4.077 -1.2071 -0.3722 -0.3236
 1642SOL     OW16144   8.783   0.968   5.422 -0.6800 -0.1242 -0.1585
 1642SOL    HW116145   8.882   0.975   5.421 -0.7126  0.4608  0.7261
 1642SOL    HW216146   8.745   1.024   5.348 -0.3523 -0.4653 -0.5883
 1643SOL     OW16147   4.058   3.019   2.936  0.3896 -0.4077  0.2813
 1643SOL    HW116148   4.058   2.922   2.913  0.5696 -0.6171  1.1456
 1643SOL    HW216149   3.967   3.057   2.920  0.1179 -0.8957  0.6458
 1644SOL     OW16150   2.327   3.635   2.022  0.5878 -0.1853 -0.1896
 1644SOL    HW116151   2.298   3.585   1.940  1.5637 -0.7760 -0.1762
 1644SOL    HW216152   2.389   3.709   1.997 -0.1743  0.4936 -0.1155
 1645SOL     OW16153   9.797   0.581   3.052  0.7533  0.1376  0.3139
 1645SOL    HW116154   9.788   0.631   2.966  2.2236 -0.0995  0.0042
 1645SOL    HW216155   9.875   0.617   3.104  0.3266 -0.2100  1.2086
 1646SOL     OW16156   9.659   4.102   2.427 -0.2603 -0.2799  0.3842
 1646SOL    HW116157   9.562   4.123   2.416  0.1664  0.1068 -3.1859
 1646SOL    HW216158   9.675   4.006   2.407  0.4036  0.1674 -1.2624
 1647SOL     OW16159   0.426   0.860   3.889  0.4912  0.1075  0.3201
 1647SOL    HW116160   0.462   0.905   3.807 -0.7247  0.2690 -0.1374
 1647SOL    HW216161   0.421   0.927   3.964 -2.8252  1.2296 -0.8030
 1648SOL     OW16162   0.495   5.611   4.268  0.1941  0.3872  0.5211
 1648SOL    HW116163   0.463   5.677   4.200 -1.6334 -2.6565 -1.6796
 1648SOL    HW216164   0.574   5.561   4.233  0.4413  0.1203  1.4320
 1649SOL     OW16165   6.832   5.242   1.681  0.3867  0.2929  0.1330
 1649SOL    HW116166   6.767   5.226   1.607 -0.2295  1.8757  0.3181
 1649SOL    HW216167   6.784   5.239   1.769  0.2813  2.8407  0.1877
 1650SOL     OW16168   1.299   7.277   1.572 -0.0778 -0.0556 -0.7626
 1650SOL    HW116169   1.377   7.270   1.511  1.7816 -0.2238  1.5767
 1650SOL    HW216170   1.256   7.188   1.582  0.3542 -0.2741 -0.8611
 1651SOL     OW16171   8.941   3.439   4.343 -0.2049  0.2809 -0.7754
 1651SOL    HW116172   8.883   3.358   4.357  0.3885  0.0279  0.2497
 1651SOL    HW216173   8.993   3.428   4.258  0.6461 -0.8910 -0.1185
 1652SOL     OW16174   1.747   7.091   3.481  0.2196 -0.3059 -0.1439
 1652SOL    HW116175   1.746   7.187   3.511  2.2878  0.0397 -1.1175
 1652SOL    HW216176   1.717   7.086   3.386 -0.3757 -0.6959  0.0625
 1653SOL     OW16177   2.114   2.061   0.102 -0.1928 -0.3233 -0.4085
 1653SOL    HW116178   2.029   2.111   0.084 -0.5982 -0.9694 -0.3291
 1653SOL    HW216179   2.120   2.043   0.200  0.7542  0.9800 -0.2160
 1654SOL     OW16180   8.361   1.871   2.041  0.1041 -0.0131  0.0945
 1654SOL    HW116181   8.314   1.864   2.129 -1.7625 -0.1628 -0.8781
 1654SOL    HW216182   8.321   1.946   1.988  0.7338 -0.3845 -0.9167
 1655SOL     OW16183   3.761   4.376   1.047 -0.0867  0.3637 -0.0593
 1655SOL    HW116184   3.834   4.312   1.070  2.0044  3.0132  1.0406
 1655SOL    HW216185   3.676   4.326   1.030  1.6845 -2.7167 -0.2412
 1656SOL     OW16186   0.899   3.935   3.339 -0.2214  0.6614 -0.5322
 1656SOL    HW116187   0.903   4.031   3.365  0.3169  0.3998  0.3442
 1656SOL    HW216188   0.987   3.907   3.300  0.6600 -0.2755  2.0380
 1657SOL     OW16189   4.149   9.202   5.674  0.3092  0.1497 -0.1432
 1657SOL    HW116190   4.085   9.127   5.684 -0.3126  0.2756 -2.7379
 1657SOL    HW216191   4.131   9.272   5.744 -1.9291 -0.1291 -0.4162
 1658SOL     OW16192   1.034   7.140   2.458 -0.4458 -0.2958  0.1013
 1658SOL    HW116193   1.099   7.150   2.382 -1.3716 -0.4734 -0.7320
 1658SOL    HW216194   0.975   7.221   2.463 -1.7492 -1.1731 -0.6949
 1659SOL     OW16195   2.663   6.529   2.840 -0.6126  0.2842 -0.5983
 1659SOL    HW116196   2.595   6.465   2.878  0.3388  0.0916  0.7998
 1659SOL    HW216197   2.616   6.609   2.803 -1.7174 -0.5736 -1.0744
 1660SOL     OW16198   7.150   5.994   1.439 -0.3402 -0.2190 -0.7006
 1660SOL    HW116199   7.240   5.956   1.460 -0.0504  0.5541 -0.5290
 1660SOL    HW216200   7.159   6.092   1.421 -1.2176 -0.0431 -0.1987
 1661SOL     OW16201   7.776   8.611   4.195  0.6003 -0.0284 -0.0278
 1661SOL    HW116202   7.872   8.587   4.207  0.2458 -1.2493  0.4480
 1661SOL    HW216203   7.745   8.665   4.273  1.1455  1.2027 -0.6440
 1662SOL     OW16204   0.756   6.794   0.984  0.0458  0.3759  0.1861
 1662SOL    HW116205   0.798   6.881   1.011  1.4708 -0.7231  1.6223
 1662SOL    HW216206   0.669   6.811   0.937  1.3955  2.6487 -1.5509
 1663SOL     OW16207   3.975   0.587   1.625  0.3054 -0.1003  0.6033
 1663SOL    HW116208   4.037   0.603   1.702  0.8576  1.4117 -0.1508
 1663SOL    HW216209   3.949   0.490   1.623 -0.2923 -0.0255  3.1150
 1664SOL     OW16210   8.848   8.173   0.877  0.1795 -0.8380  0.1086
 1664SOL    HW116211   8.947   8.178   0.862  0.3074 -0.4809  1.0172
 1664SOL    HW216212   8.806   8.261   0.855  0.2304 -0.6222  0.8625
 1665SOL     OW16213   4.937   4.475   2.438  0.1077 -0.1412 -0.2030
 1665SOL    HW116214   4.905   4.570   2.442 -1.8235 -0.6890 -1.8632
 1665SOL    HW216215   4.909   4.427   2.521 -2.5917 -0.3453 -1.2002
 1666SOL     OW16216   3.525   5.489   4.783 -0.2760  0.4220  0.1826
 1666SOL    HW116217   3.599   5.456   4.725  0.3033  2.3504 -0.1747
 1666SOL    HW216218   3.552   5.481   4.879  0.0191  0.2837  0.0880
 1667SOL     OW16219   8.810   1.957   2.618 -0.0421 -0.3718  0.5197
 1667SOL    HW116220   8.898   1.973   2.663  0.3119 -1.5453  0.2641
 1667SOL    HW216221   8.736   1.977   2.681  0.4341 -0.7883  1.2187
 1668SOL     OW16222   8.695   2.586   5.176 -0.0629 -0.0179  0.1537
 1668SOL    HW116223   8.603   2.553   5.156  0.8503 -1.8998 -1.0528
 1668SOL    HW216224   8.753   2.510   5.205  1.7846  0.6677 -1.6090
 1669SOL     OW16225   4.055   3.922   4.420 -0.2148 -0.0957  0.3446
 1669SOL    HW116226   3.988   3.993   4.401  0.5645 -0.0620 -2.4252
 1669SOL    HW216227   4.007   3.835   4.436 -1.0157  0.3716  0.5208
 1670SOL     OW16228   2.426   3.738   0.400 -0.6254 -0.4459  0.2168
 1670SOL    HW116229   2.442   3.782   0.488  0.0660  0.1370 -0.1982
 1670SOL    HW216230   2.328   3.739   0.380 -0.8338 -0.9888  1.1841
 1671SOL     OW16231   9.593   4.025   1.408  0.2613 -0.2244  0.3119
 1671SOL    HW116232   9.662   3.998   1.475 -0.5530  0.0704  1.2921
 1671SOL    HW216233   9.611   4.119   1.378  2.4988 -1.4238 -2.3358
 1672SOL     OW16234   3.574   6.714   0.367 -0.0130 -0.2895 -1.1310
 1672SOL    HW116235   3.629   6.776   0.312 -0.1013  0.9737  0.1653
 1672SOL    HW216236   3.481   6.751   0.376  0.1424 -0.1987  0.2791
 1673SOL     OW16237   7.119   1.607   3.835 -0.2000  0.2881 -0.0200
 1673SOL    HW116238   7.196   1.613   3.772  0.1720  0.1387  0.4155
 1673SOL    HW216239   7.107   1.512   3.864 -0.8066  0.2435 -0.4003
 1674SOL     OW16240   6.718   0.917   5.445  0.5193  0.4440  0.4059
 1674SOL    HW116241   6.811   0.931   5.480  0.7952  1.8596 -0.8477
 1674SOL    HW216242   6.712   0.827   5.401  1.4607  0.5974 -0.0488
 1675SOL     OW16243   4.490   9.487   6.880  0.5577 -0.0869 -0.2515
 1675SOL    HW116244   4.505   9.570   6.825 -0.2417 -0.4994 -1.1027
 1675SOL    HW216245   4.392   9.469   6.888  0.7496 -1.9388 -1.6028
 1676SOL     OW16246   3.467   8.855   0.066  0.2827  0.1302 -0.5495
 1676SOL    HW116247   3.499   8.950   0.064  0.7738 -0.0474 -1.2681
 1676SOL    HW216248   3.372   8.852   0.098  0.0713  0.9224 -1.0921
 1677SOL     OW16249   4.499   0.568   4.817  0.0782 -0.6615 -0.1258
 1677SOL    HW116250   4.477   0.583   4.913 -2.8826  2.0399 -1.1659
 1677SOL    HW216251   4.521   0.471   4.803  2.0753 -0.8170  3.5006
 1678SOL     OW16252   7.817   2.191   5.065  0.1655 -0.1430 -0.8887
 1678SOL    HW116253   7.756   2.130   5.116  0.7801 -0.5866 -0.6787
 1678SOL    HW216254   7.798   2.183   4.967 -0.9686  0.6572 -0.7380
 1679SOL     OW16255   3.692   5.070   1.402 -0.1886  0.5296 -0.0488
 1679SOL    HW116256   3.780   5.026   1.416  0.2351  1.0056 -1.1410
 1679SOL    HW216257   3.706   5.167   1.380 -0.8553  0.1849 -2.1184
 1680SOL     OW16258   5.683   2.709   4.344  0.4025 -0.3096  0.1879
 1680SOL    HW116259   5.730   2.709   4.256 -0.0915 -1.2753 -0.0886
 1680SOL    HW216260   5.599   2.655   4.336  1.5483 -2.3999  1.8836
 1681SOL     OW16261   3.743   6.726   2.438 -0.0690  0.3357 -0.2409
 1681SOL    HW116262   3.675   6.787   2.397 -1.0129  0.0709  0.8712
 1681SOL    HW216263   3.825   6.778   2.461 -0.9087  1.2352  0.8008
 1682SOL     OW16264   1.811   3.497   0.457 -0.1366  0.5266  0.4733
 1682SOL    HW116265   1.879   3.548   0.509  0.0249 -0.2484  1.0263
 1682SOL    HW216266   1.719   3.525   0.484 -0.0526  0.0333  1.2625
 1683SOL     OW16267   3.290   2.950   4.575 -0.2623 -0.6303 -0.1022
 1683SOL    HW116268   3.313   3.002   4.657  0.0573 -0.0030 -0.5886
 1683SOL    HW216269   3.287   3.011   4.496  0.1536 -1.3512 -0.6827
 1684SOL     OW16270   8.999   7.735   6.052 -0.2167  0.1340  0.0284
 1684SOL    HW116271   9.072   7.666   6.058 -0.7515 -0.6315 -2.0413
 1684SOL    HW216272   8.960   7.734   5.961 -0.9989  2.4442  0.3209
 1685SOL     OW16273   4.642   1.547   4.758 -0.3542 -0.1317 -0.0862
 1685SOL    HW116274   4.722   1.514   4.808 -0.7834 -0.6788  0.2484
 1685SOL    HW216275   4.666   1.558   4.661 -0.3050 -1.8575 -0.2862
 1686SOL     OW16276   2.239   8.313   4.463 -0.0034  0.0752  0.1729
 1686SOL    HW116277   2.318   8.255   4.482 -0.6461 -0.4131  1.3806
 1686SOL    HW216278   2.156   8.269   4.496 -0.6331  1.1787  0.1096
 1687SOL     OW16279   2.582   7.706   0.274  0.3602 -0.0047 -0.2498
 1687SOL    HW116280   2.668   7.730   0.319 -0.3803  1.3072  0.4827
 1687SOL    HW216281   2.540   7.789   0.236 -1.2230 -0.4350  0.5334
 1688SOL     OW16282   2.681   3.539   2.648 -0.6907 -0.3350  0.1229
 1688SOL    HW116283   2.662   3.620   2.591 -2.8094 -1.4509 -0.7984
 1688SOL    HW216284   2.644   3.458   2.603 -1.1915 -1.4252  2.4611
 1689SOL     OW16285   4.567   8.280   1.951  0.2153 -0.5092 -0.1421
 1689SOL    HW116286   4.467   8.280   1.942  0.2488  1.3772 -0.5348
 1689SOL    HW216287   4.593   8.219   2.026 -1.2403 -0.8683  0.0858
 1690SOL     OW16288   9.701   8.716   0.144  0.6860  0.1672  0.3850
 1690SOL    HW116289   9.700   8.722   0.244  2.8272  0.2398  0.4274
 1690SOL    HW216290   9.793   8.737   0.111  0.1832 -0.6319 -1.5588
 1691SOL     OW16291   2.629   3.338   3.972  0.6704 -0.6022  0.3978
 1691SOL    HW116292   2.720   3.380   3.978  0.1658  0.7143 -0.8570
 1691SOL    HW216293   2.633   3.259   3.910  0.8667 -0.2803 -0.0023
 1692SOL     OW16294   2.082   9.380   2.847 -1.0422 -0.2186 -0.2399
 1692SOL    HW116295   2.055   9.289   2.815  1.7519 -0.3061 -2.6224
 1692SOL    HW216296   2.061   9.448   2.777 -0.0878  0.4649  0.1167
 1693SOL     OW16297   1.771   5.439   4.929 -0.1809  0.8204 -0.1228
 1693SOL    HW116298   1.706   5.464   4.857  0.0122  0.6208 -0.3682
 1693SOL    HW216299   1.853   5.398   4.888 -0.3751  0.0453  0.2523
 1694SOL     OW16300   2.316   9.349   6.497  0.2309 -0.3852  0.1638
 1694SOL    HW116301   2.289   9.293   6.575 -0.8026  0.3410  0.3316
 1694SOL    HW216302   2.375   9.424   6.528 -2.2405  1.4193  0.6555
 1695SOL     OW16303   3.301   8.525   2.457 -0.1588 -0.1755 -0.3149
 1695SOL    HW116304   3.362   8.493   2.384 -0.2061  2.9115 -1.8118
 1695SOL    HW216305   3.356   8.563   2.532 -0.1803  0.1795 -0.4780
 1696SOL     OW16306   7.381   3.791   3.170  0.3438  0.5294 -0.2864
 1696SOL    HW116307   7.420   3.808   3.261  0.9714 -1.3698 -0.1775
 1696SOL    HW216308   7.455   3.772   3.105 -0.3159 -3.3602 -0.0346
 1697SOL     OW16309   4.213   8.229   1.831  0.0782  0.0696 -0.0340
 1697SOL    HW116310   4.262   8.279   1.759  0.0468  1.1636  0.6871
 1697SOL    HW216311   4.206   8.287   1.912 -2.1730 -0.1781 -0.0326
 1698SOL     OW16312   8.400   9.082   6.270 -0.1946  0.1468 -0.1070
 1698SOL    HW116313   8.369   9.127   6.354 -0.4169  0.9911 -0.6324
 1698SOL    HW216314   8.487   9.036   6.287 -0.5730 -0.2540  0.7602
 1699SOL     OW16315   8.738   4.703   4.492 -0.2364 -0.2459 -0.0052
 1699SOL    HW116316   8.706   4.754   4.412 -0.5087 -0.0816  0.2062
 1699SOL    HW216317   8.690   4.615   4.496  0.2967 -0.5637 -0.4205
 1700SOL     OW16318   2.761   7.646   0.649 -0.2630 -0.1940 -0.5517
 1700SOL    HW116319   2.792   7.552   0.634 -1.6512 -0.7675  0.0917
 1700SOL    HW216320   2.761   7.665   0.747 -0.1108  0.4365 -0.6738
 1701SOL     OW16321   9.723   2.530   4.601  0.0813 -0.4963  0.4616
 1701SOL    HW116322   9.739   2.548   4.504 -1.6516  1.4809  0.5000
 1701SOL    HW216323   9.798   2.568   4.654 -0.5052  1.2553  0.0841
 1702SOL     OW16324   2.846   6.369   2.688  0.0771  0.0235 -0.0829
 1702SOL    HW116325   2.861   6.286   2.741  2.3923  0.4755  0.0587
 1702SOL    HW216326   2.784   6.430   2.737  1.2932 -0.0454  1.5792
 1703SOL     OW16327   5.335   0.396   1.358 -0.3076  0.3439  0.1962
 1703SOL    HW116328   5.327   0.492   1.333 -1.5227  0.1200 -0.3367
 1703SOL    HW216329   5.254   0.346   1.325 -0.5016 -0.5312  1.9302
 1704SOL     OW16330   4.959   4.751   2.441  0.3611 -0.1980  0.0509
 1704SOL    HW116331   4.924   4.844   2.429  0.1235 -0.3409 -0.3519
 1704SOL    HW216332   5.051   4.745   2.403  0.2459 -0.2158 -0.2250
 1705SOL     OW16333   9.028   4.461   2.375  0.2529 -0.2911 -0.3435
 1705SOL    HW116334   9.094   4.524   2.415 -0.3077 -0.0195  0.1585
 1705SOL    HW216335   8.940   4.506   2.365 -0.1819 -1.0257  0.1093
 1706SOL     OW16336   7.161   6.655   5.887 -0.4002  0.4532  0.0093
 1706SOL    HW116337   7.154   6.651   5.987  0.6495 -2.8248  0.0441
 1706SOL    HW216338   7.254   6.682   5.862  0.0639 -1.0637 -0.0037
 1707SOL     OW16339   0.744   7.387   1.050 -0.2424 -0.0396 -0.2944
 1707SOL    HW116340   0.757   7.424   1.143 -1.7926 -2.7862  1.0739
 1707SOL    HW216341   0.661   7.425   1.010  0.0725  0.6386 -0.3206
 1708SOL     OW16342   0.958   9.604   3.178  0.0632 -0.1377  0.1534
 1708SOL    HW116343   0.922   9.511   3.184 -0.8787  0.2001 -0.2822
 1708SOL    HW216344   0.928   9.657   3.257  1.5058 -0.4975  0.9777
 1709SOL     OW16345   8.574   9.865   1.322 -0.3151  0.0867 -0.0925
 1709SOL    HW116346   8.541   9.952   1.286  0.5225 -0.0974 -1.3115
 1709SOL    HW216347   8.497   9.814   1.360 -1.1993  0.3289 -1.5370
 1710SOL     OW16348   6.706   8.089   6.635  0.2351 -0.2408 -0.6460
 1710SOL    HW116349   6.801   8.094   6.664  0.4606 -2.8081 -0.8611
 1710SOL    HW216350   6.680   8.175   6.590  2.3156  0.6211 -0.2381
 1711SOL     OW16351   9.898   6.719   2.940 -0.4545  0.2108  0.0176
 1711SOL    HW116352   9.840   6.775   2.998  1.0530 -0.4618  2.2336
 1711SOL    HW216353   9.992   6.724   2.972  0.4818  0.0662 -2.5845
 1712SOL     OW16354   5.939   0.698   5.082 -0.4716  0.2626 -0.4598
 1712SOL    HW116355   5.867   0.630   5.075 -1.7803  1.3177  2.0567
 1712SOL    HW216356   5.903   0.781   5.126  1.6804  1.6856 -1.2883
 1713SOL     OW16357   0.633   0.127   5.027 -0.3466  0.0927  0.7068
 1713SOL    HW116358   0.592   0.154   5.114 -2.3020  1.2013 -0.5343
 1713SOL    HW216359   0.572   0.064   4.979 -0.3835  1.3389 -0.9221
 1714SOL     OW16360   2.814   3.049   5.265 -0.1197 -0.0502  0.2255
 1714SOL    HW116361   2.714   3.048   5.263 -0.1190 -0.2973  0.3934
 1714SOL    HW216362   2.849   2.973   5.210 -0.0218  0.1492  0.0093
 1715SOL     OW16363   8.397   0.665   4.681 -0.7449 -0.2148 -0.0940
 1715SOL    HW116364   8.424   0.720   4.602  0.4595 -2.0030 -0.9437
 1715SOL    HW216365   8.457   0.685   4.758  0.5736 -1.3416 -0.8180
 1716SOL     OW16366   2.536   9.057   3.763 -0.2643 -0.2432  0.3075
 1716SOL    HW116367   2.472   8.984   3.739 -0.9037 -0.0459  1.3541
 1716SOL    HW216368   2.507   9.099   3.850  0.6513  0.5944  0.2142
 1717SOL     OW16369   5.614   4.885   0.634  0.3653  0.0504 -0.0298
 1717SOL    HW116370   5.647   4.887   0.728  0.0954 -0.4111  0.0771
 1717SOL    HW216371   5.662   4.814   0.583 -0.7053 -0.8642  0.2218
 1718SOL     OW16372   4.624   0.320   0.586  0.2837 -0.5160  0.2019
 1718SOL    HW116373   4.565   0.355   0.514  0.0100  0.1458  0.7524
 1718SOL    HW216374   4.720   0.337   0.562  0.2168 -0.7732 -0.2527
 1719SOL     OW16375   2.819   1.846   6.270 -0.4024  0.1228 -0.1601
 1719SOL    HW116376   2.865   1.758   6.275 -0.7984 -0.2834 -2.6145
 1719SOL    HW216377   2.726   1.832   6.235 -1.3547  1.2579  1.8347
 1720SOL     OW16378   8.939   2.476   5.708  0.1418 -0.7556  0.2032
 1720SOL    HW116379   8.909   2.562   5.750  0.1814 -0.5600 -0.1631
 1720SOL    HW216380   8.861   2.414   5.700 -0.3703  0.0550 -1.4788
 1721SOL     OW16381   4.337   8.349   1.642 -0.4563 -0.1345  0.5200
 1721SOL    HW116382   4.302   8.285   1.575 -1.1484  0.2118  0.5455
 1721SOL    HW216383   4.436   8.339   1.650 -0.6073 -1.4364  0.7825
 1722SOL     OW16384   8.130   4.570   3.178 -0.3665  0.0025 -0.7197
 1722SOL    HW116385   8.052   4.585   3.239 -0.0303 -1.4823  0.0859
 1722SOL    HW216386   8.175   4.485   3.202  1.8566  1.1244 -0.8222
 1723SOL     OW16387   8.060   0.548   0.758 -0.2425 -0.1312  0.3071
 1723SOL    HW116388   7.966   0.568   0.729 -0.4516 -0.2897  0.8720
 1723SOL    HW216389   8.094   0.623   0.815 -0.5741 -0.7790  1.3729
 1724SOL     OW16390   7.416   6.787   2.996  0.2940  0.1208  0.0904
 1724SOL    HW116391   7.391   6.691   3.012 -1.3292  0.6169  0.5297
 1724SOL    HW216392   7.392   6.813   2.903  0.1737  0.2930  0.1711
 1725SOL     OW16393   8.395   3.091   6.217 -0.8957  0.0573  0.5177
 1725SOL    HW116394   8.371   3.040   6.135  0.6041  0.8695 -0.4507
 1725SOL    HW216395   8.337   3.173   6.224 -0.0037  0.7895 -0.5615
 1726SOL     OW16396   6.390   8.830   4.136  0.1855 -0.1894  0.6417
 1726SOL    HW116397   6.403   8.905   4.071  0.8295 -0.3222  0.6112
 1726SOL    HW216398   6.430   8.747   4.098 -0.3466 -0.5019  0.7637
 1727SOL     OW16399   2.507   7.393   4.130 -0.1514 -0.1767  0.5307
 1727SOL    HW116400   2.521   7.443   4.216  1.9117  0.3520 -0.0995
 1727SOL    HW216401   2.462   7.453   4.064  4.1597  1.6500 -0.9176
 1728SOL     OW16402   1.432   6.654   2.417 -0.6516  0.0249  0.0651
 1728SOL    HW116403   1.368   6.633   2.491  0.8542 -0.6802  1.1835
 1728SOL    HW216404   1.511   6.702   2.454  0.5770 -1.2002 -0.9246
 1729SOL     OW16405   6.976   6.829   6.302 -0.1586  0.0224 -0.2356
 1729SOL    HW116406   6.934   6.742   6.330 -0.2312  0.7438  1.9572
 1729SOL    HW216407   6.908   6.902   6.307  0.6963  0.7492  0.8402
 1730SOL     OW16408   3.979   7.704   5.954 -0.7454  0.6337  0.1343
 1730SOL    HW116409   4.021   7.677   5.868 -0.0545  0.3987  0.5411
 1730SOL    HW216410   3.912   7.636   5.982 -0.3312  0.2653  0.2281
 1731SOL     OW16411   9.222   6.310   2.039 -0.3634 -0.2226  0.2345
 1731SOL    HW116412   9.228   6.300   1.940 -1.8393 -1.0086  0.2027
 1731SOL    HW216413   9.126   6.322   2.065  0.1296  1.2134  1.4593
 1732SOL     OW16414   6.770   0.900   6.054 -0.0411 -0.2876  0.5005
 1732SOL    HW116415   6.769   0.961   6.133 -1.5951 -1.2789  1.2436
 1732SOL    HW216416   6.717   0.941   5.980  0.1058 -0.0814  0.5091
 1733SOL     OW16417   5.065   6.503   1.750 -0.4449 -0.1872  0.2651
 1733SOL    HW116418   5.094   6.499   1.845  0.3845 -0.7727 -0.0025
 1733SOL    HW216419   5.119   6.572   1.701 -0.2596 -0.5021  0.0214
 1734SOL     OW16420   9.121   9.640   4.713 -0.0644  0.3016 -0.0985
 1734SOL    HW116421   9.109   9.628   4.812  2.3436  1.1456  0.3499
 1734SOL    HW216422   9.193   9.579   4.681 -0.8871 -0.0137 -1.3556
 1735SOL     OW16423   1.908   9.186   1.335 -0.8177  0.4000 -0.3269
 1735SOL    HW116424   1.810   9.165   1.339 -0.9022  0.4820 -1.7441
 1735SOL    HW216425   1.937   9.192   1.240  0.7059 -0.2654  0.0692
 1736SOL     OW16426   9.526   8.748   0.916  0.5980  0.0680 -0.3333
 1736SOL    HW116427   9.490   8.663   0.955 -1.1614  0.4109 -1.1201
 1736SOL    HW216428   9.513   8.747   0.817  0.9084  1.0973 -0.3900
 1737SOL     OW16429   3.183   2.569   5.859  0.8363  0.3792  0.4765
 1737SOL    HW116430   3.239   2.625   5.799 -0.5489  1.1079 -0.1620
 1737SOL    HW216431   3.087   2.593   5.847 -0.0258 -3.4706 -1.2731
 1738SOL     OW16432   7.130   3.021   1.773  0.4640 -0.1277  0.1990
 1738SOL    HW116433   7.085   3.073   1.846 -1.1893 -0.3402 -0.6506
 1738SOL    HW216434   7.218   3.063   1.752  0.8307  0.1023  2.1222
 1739SOL     OW16435   2.873   5.799   3.960 -0.0579  0.1611 -0.5387
 1739SOL    HW116436   2.922   5.864   3.903  1.2532  0.7918  1.2426
 1739SOL    HW216437   2.823   5.849   4.031  0.1832 -0.7066  0.2538
 1740SOL     OW16438   3.991   5.495   0.662  0.6222 -0.1819 -0.4534
 1740SOL    HW116439   4.056   5.422   0.683  0.1449 -0.4414  0.1596
 1740SOL    HW216440   3.907   5.455   0.626 -0.1434 -0.0527  1.1313
 1741SOL     OW16441   4.082   6.310   4.345  0.1489 -0.5228  0.5739
 1741SOL    HW116442   4.117   6.253   4.271 -1.3221 -1.0463  0.2674
 1741SOL    HW216443   4.087   6.259   4.431  1.5335 -0.0415  0.7918
 1742SOL     OW16444   1.965   1.233   5.663 -0.1834 -0.1128  0.0875
 1742SOL    HW116445   1.972   1.164   5.591 -0.1891  1.1136 -1.1080
 1742SOL    HW216446   1.931   1.318   5.624  0.7696  0.8635  1.3532
 1743SOL     OW16447   9.021   8.260   6.435  0.0930  0.6636  0.3610
 1743SOL    HW116448   8.935   8.263   6.383  0.1016  1.4456  0.3872
 1743SOL    HW216449   9.032   8.169   6.475 -0.0142  0.1188 -0.8293
 1744SOL     OW16450   3.488   3.989   3.384 -0.4151 -0.4083 -0.3771
 1744SOL    HW116451   3.574   3.946   3.410  0.1886  0.5008 -0.8462
 1744SOL    HW216452   3.481   3.992   3.284 -1.2327 -0.9430 -0.3461
 1745SOL     OW16453   4.136   4.804   0.177  0.1318 -0.1128 -0.0807
 1745SOL    HW116454   4.223   4.849   0.158 -0.3585  0.4042 -1.1262
 1745SOL    HW216455   4.088   4.854   0.249  0.9063 -0.6842  0.8535
 1746SOL     OW16456   2.205   7.617   0.513 -0.4307  0.1992 -0.0888
 1746SOL    HW116457   2.187   7.696   0.573 -0.7479  2.1615 -2.6792
 1746SOL    HW216458   2.121   7.563   0.504 -0.5556  0.2418  0.7180
 1747SOL     OW16459   8.316   6.952   6.650 -0.5000 -0.1019 -0.5101
 1747SOL    HW116460   8.317   6.877   6.715 -1.0596 -1.3869 -1.9472
 1747SOL    HW216461   8.408   6.968   6.616 -0.6408 -1.3093 -1.4918
 1748SOL     OW16462   6.945   9.591   4.698  0.4947 -0.9300  0.0860
 1748SOL    HW116463   6.991   9.633   4.619  0.1411 -0.8260 -0.0663
 1748SOL    HW216464   6.981   9.499   4.712  0.7617 -0.8437 -0.0230
 1749SOL     OW16465   9.681   5.082   3.003  0.0820 -0.3774 -0.5208
 1749SOL    HW116466   9.752   5.067   3.072  0.2475  4.4442  0.5040
 1749SOL    HW216467   9.723   5.080   2.912  1.4456  1.6740  0.0328
 1750SOL     OW16468   7.574   6.647   2.597  0.1624 -0.1403 -0.2963
 1750SOL    HW116469   7.634   6.675   2.523  1.1364 -0.1797  0.4675
 1750SOL    HW216470   7.609   6.562   2.638  0.9004  1.0610  1.6526
 1751SOL     OW16471   9.904   6.104   3.323 -0.0645 -0.0413  0.2405
 1751SOL    HW116472   9.823   6.050   3.302 -1.5009  2.0569  0.2081
 1751SOL    HW216473   9.932   6.156   3.242 -1.1785  2.3761  1.3458
 1752SOL     OW16474   2.362   4.393   0.965  0.1360 -0.4652 -0.0661
 1752SOL    HW116475   2.294   4.460   0.996  0.6572  1.2528 -2.4891
 1752SOL    HW216476   2.368   4.396   0.865  3.8024 -0.5812  0.1069
 1753SOL     OW16477   0.013   5.943   1.652 -0.4846  0.7523 -0.3349
 1753SOL    HW116478  -0.054   5.868   1.655 -1.7107  1.7907 -1.1111
 1753SOL    HW216479   0.105   5.905   1.642 -0.9038 -0.7203  1.1552
 1754SOL     OW16480   5.069   3.906   0.046 -0.1128 -0.6737  0.9357
 1754SOL    HW116481   5.088   3.962   0.127 -0.3981 -0.4335  0.8345
 1754SOL    HW216482   4.987   3.851   0.062 -2.2372  1.9939 -0.5338
 1755SOL     OW16483   8.513   6.516   0.905 -0.0092 -0.0667 -0.2977
 1755SOL    HW116484   8.433   6.550   0.856 -0.2376 -0.9389 -0.5450
 1755SOL    HW216485   8.596   6.556   0.865 -0.2532 -0.0568 -0.7971
 1756SOL     OW16486   8.031   4.329   5.138  0.4006  0.2580 -0.3096
 1756SOL    HW116487   8.037   4.261   5.066  0.1056  1.5004 -1.5214
 1756SOL    HW216488   8.110   4.390   5.134  0.5473  0.1395  0.6236
 1757SOL     OW16489   3.311   9.188   4.848  0.1035  0.3439  0.1121
 1757SOL    HW116490   3.303   9.144   4.759 -0.3458  1.9813 -0.6920
 1757SOL    HW216491   3.403   9.225   4.858  0.0307  0.5156  0.1498
 1758SOL     OW16492   3.245   3.754   5.633 -0.0523  0.0490 -0.3447
 1758SOL    HW116493   3.260   3.841   5.587 -0.1349 -0.2642 -0.9671
 1758SOL    HW216494   3.334   3.712   5.655 -0.0141  0.1883 -0.2261
 1759SOL     OW16495   9.454   0.515   1.482  0.6185  0.3229 -0.3883
 1759SOL    HW116496   9.472   0.446   1.553  2.3457  0.0599 -1.0587
 1759SOL    HW216497   9.366   0.559   1.500 -0.6965 -2.3100 -0.1386
 1760SOL     OW16498   4.305   3.419   0.760 -0.6831 -0.4941  0.3357
 1760SOL    HW116499   4.350   3.398   0.673  3.2428 -1.4169  2.4581
 1760SOL    HW216500   4.366   3.475   0.816 -3.0207 -0.1629  2.6145
 1761SOL     OW16501   8.777   6.579   3.582 -0.2458  0.9233 -0.1628
 1761SOL    HW116502   8.768   6.572   3.681 -0.3239  3.3354  0.0292
 1761SOL    HW216503   8.703   6.635   3.546 -0.5999 -0.4971 -1.6756
 1762SOL     OW16504   7.883   1.931   0.403 -0.2719 -0.3643  0.0998
 1762SOL    HW116505   7.975   1.899   0.380  0.9019  3.3530 -0.7569
 1762SOL    HW216506   7.864   1.913   0.499  2.7686  1.8114  1.1897
 1763SOL     OW16507   3.569   9.083   6.494  0.1121  0.2319  0.4639
 1763SOL    HW116508   3.475   9.070   6.463 -0.0147  1.3525  0.3659
 1763SOL    HW216509   3.579   9.045   6.587 -0.5740  0.5961  0.6893
 1764SOL     OW16510   7.838   3.444   0.251  0.1194 -0.3092 -0.0575
 1764SOL    HW116511   7.774   3.499   0.197  0.5107  0.2080  0.0021
 1764SOL    HW216512   7.852   3.486   0.340  1.8299  0.4936 -0.6861
 1765SOL     OW16513   9.853   3.730   4.998 -0.0230 -0.1387 -0.3498
 1765SOL    HW116514   9.892   3.807   4.947  0.8618 -0.2226  0.1805
 1765SOL    HW216515   9.834   3.759   5.092 -0.7195 -0.2642 -0.4480
 1766SOL     OW16516   0.074   0.036   0.857  0.3243 -0.2868 -0.5755
 1766SOL    HW116517   0.003   0.030   0.787  0.2115 -0.5157 -0.4400
 1766SOL    HW216518   0.073   0.128   0.898  1.0752  0.1924 -1.6007
 1767SOL     OW16519   9.207   2.601   2.601  0.2054  0.5166 -0.0890
 1767SOL    HW116520   9.223   2.648   2.515 -0.1025 -0.0018 -0.4294
 1767SOL    HW216521   9.203   2.502   2.586  3.2416  0.1556  0.9571
 1768SOL     OW16522   9.015   6.356   0.603  0.1280  0.6437  0.2117
 1768SOL    HW116523   9.074   6.353   0.523  2.2860 -0.5006  1.7877
 1768SOL    HW216524   8.921   6.332   0.577  0.6196  1.0750 -2.0747
 1769SOL     OW16525   1.124   1.070   2.076  0.2848 -0.4847  0.2331
 1769SOL    HW116526   1.140   0.994   2.139  0.5351 -0.8766 -0.3035
 1769SOL    HW216527   1.095   1.150   2.128  2.9517 -0.0533  1.1175
 1770SOL     OW16528   4.246   1.762   1.001  0.7233  0.2740 -0.2692
 1770SOL    HW116529   4.207   1.845   1.040 -1.2476 -1.0780  0.7629
 1770SOL    HW216530   4.311   1.786   0.928  1.1465  2.7143  0.8550
 1771SOL     OW16531   9.840   4.706   0.171 -0.1102  0.1170 -0.7447
 1771SOL    HW116532   9.786   4.656   0.239 -1.3353  0.0987 -1.7146
 1771SOL    HW216533   9.800   4.797   0.158  1.8712  1.2523  0.7208
 1772SOL     OW16534   7.036   1.679   3.509  0.5580 -0.5323  0.2080
 1772SOL    HW116535   7.036   1.679   3.409  0.3940 -1.1799  0.2077
 1772SOL    HW216536   7.111   1.736   3.543  1.4939 -1.4524 -0.2824
 1773SOL     OW16537   0.471   9.598   4.639  0.6445 -0.1925 -0.5717
 1773SOL    HW116538   0.419   9.679   4.669 -0.1085 -0.7233 -0.4150
 1773SOL    HW216539   0.441   9.571   4.548 -1.4453 -2.2045  0.6420
 1774SOL     OW16540   2.168   0.537   5.436 -0.0298 -0.1364 -0.6468
 1774SOL    HW116541   2.259   0.549   5.396 -0.2345  1.3333 -0.6867
 1774SOL    HW216542   2.150   0.439   5.449  0.4547 -0.5902 -3.1637
 1775SOL     OW16543   5.331   7.968   4.733  0.1611 -0.0371  0.4432
 1775SOL    HW116544   5.412   7.998   4.782  0.3789  0.6776 -0.3370
 1775SOL    HW216545   5.313   7.872   4.753  1.4950 -0.3395  0.2278
 1776SOL     OW16546   7.472   3.825   2.672  0.2809  0.0670 -0.1406
 1776SOL    HW116547   7.541   3.780   2.615 -2.2770 -1.3702 -2.1956
 1776SOL    HW216548   7.411   3.880   2.614 -1.4680 -0.2252  1.3846
 1777SOL     OW16549   7.337   7.173   3.741 -0.0864 -0.3422 -0.2960
 1777SOL    HW116550   7.394   7.101   3.781  1.0465  1.1986  0.9287
 1777SOL    HW216551   7.366   7.189   3.646  1.2144  0.0728  0.1560
 1778SOL     OW16552   3.866   8.477   5.556 -0.1010  0.6251 -0.0078
 1778SOL    HW116553   3.814   8.562   5.553 -0.9000  0.1882  0.9603
 1778SOL    HW216554   3.862   8.439   5.649 -0.1200 -0.6826 -0.5329
 1779SOL     OW16555   6.186   4.729   7.795  0.3861 -0.2075 -0.5861
 1779SOL    HW116556   6.113   4.774   7.744  1.0175  1.7171  0.1395
 1779SOL    HW216557   6.147   4.660   7.857 -0.9295  1.4621  0.4889
 1780SOL     OW16558   4.972   3.339   1.109 -0.2380  0.5121  0.4841
 1780SOL    HW116559   5.011   3.363   1.198  2.5894  2.0145 -1.1018
 1780SOL    HW216560   4.939   3.421   1.063 -1.1461 -0.1808 -0.1255
 1781SOL     OW16561   7.923   9.901   4.310  0.3787  0.3021  0.4185
 1781SOL    HW116562   7.921   9.857   4.220 -0.3166 -0.4274  0.7910
 1781SOL    HW216563   7.941   9.833   4.381  0.3090  0.7746  0.8937
 1782SOL     OW16564   4.543   8.963   6.318  0.2092 -0.3561 -0.0450
 1782SOL    HW116565   4.608   8.967   6.394  0.8131  0.9467 -0.6156
 1782SOL    HW216566   4.517   9.056   6.292  0.8713 -0.7448 -2.1599
 1783SOL     OW16567   7.477   8.239   6.706 -0.6159  0.2096  0.1201
 1783SOL    HW116568   7.379   8.237   6.723 -0.5514 -1.9331  0.3484
 1783SOL    HW216569   7.494   8.231   6.607 -0.6319 -1.5927  0.2508
 1784SOL     OW16570   9.732   2.653   0.860  0.0635 -0.4834  0.1868
 1784SOL    HW116571   9.688   2.563   0.859  0.8222 -0.8653  0.3653
 1784SOL    HW216572   9.831   2.641   0.861  0.1576  0.3550  1.1689
 1785SOL     OW16573   7.922   2.262   4.356  0.1004 -0.2178  0.2670
 1785SOL    HW116574   7.934   2.305   4.267 -1.0841 -2.8466 -1.2021
 1785SOL    HW216575   8.010   2.225   4.387  0.2207 -0.5725 -0.4907
 1786SOL     OW16576   2.083   4.976   0.630 -0.5616  0.3880 -0.3626
 1786SOL    HW116577   2.164   4.946   0.578 -1.0174  0.2076 -0.9775
 1786SOL    HW216578   2.078   4.924   0.715 -2.0420 -2.2757 -1.9904
 1787SOL     OW16579   0.432   4.550   2.331  0.0843 -0.5614  0.2849
 1787SOL    HW116580   0.394   4.499   2.408 -1.5408 -0.6114 -0.5223
 1787SOL    HW216581   0.359   4.568   2.265  1.3488 -0.0420 -0.9756
 1788SOL     OW16582   6.652   9.339   3.485 -0.0199  0.2073 -0.4458
 1788SOL    HW116583   6.748   9.341   3.512  0.0270  0.9538 -0.6635
 1788SOL    HW216584   6.594   9.332   3.566  0.1483  1.6142 -0.1973
 1789SOL     OW16585   0.445   9.919   0.916 -0.3453  0.4769  0.2881
 1789SOL    HW116586   0.496   9.853   0.860 -0.8766 -0.8300  1.3194
 1789SOL    HW216587   0.416   9.996   0.858 -0.0608 -0.3889 -1.0273
 1790SOL     OW16588   8.017   4.523   2.262  0.2119  0.3117  0.8389
 1790SOL    HW116589   8.112   4.503   2.283 -0.5363 -2.1326  2.0945
 1790SOL    HW216590   7.966   4.437   2.253 -1.5140  1.5209 -1.6340
 1791SOL     OW16591   0.533   2.135   4.158  0.2280 -0.0649  0.2316
 1791SOL    HW116592   0.517   2.159   4.254  0.6688 -1.1515  0.5807
 1791SOL    HW216593   0.447   2.141   4.108  0.1163  1.1425  0.5510
 1792SOL     OW16594   1.710   9.893   2.288  0.2794  0.0173  0.2406
 1792SOL    HW116595   1.629   9.933   2.246  0.4766  1.0628  0.8326
 1792SOL    HW216596   1.757   9.963   2.342  0.9251 -0.8826  0.8541
 1793SOL     OW16597   5.176   8.451   2.850  0.2578 -0.6126 -0.4101
 1793SOL    HW116598   5.276   8.460   2.845  0.0600  1.7757 -0.7595
 1793SOL    HW216599   5.136   8.479   2.763 -0.7658 -0.7414  0.0194
 1794SOL     OW16600   2.744   6.299   2.013 -0.1839  0.0705 -0.4850
 1794SOL    HW116601   2.678   6.370   1.989 -1.7529 -1.4104 -0.6033
 1794SOL    HW216602   2.696   6.219   2.048  1.5896 -0.8302 -0.0571
 1795SOL     OW16603   6.808   2.730   4.761 -0.6837 -0.1515  0.2627
 1795SOL    HW116604   6.868   2.656   4.731  0.7865  1.4508 -0.8046
 1795SOL    HW216605   6.713   2.700   4.755 -0.0921 -2.1255  0.3677
 1796SOL     OW16606   6.902   2.520   0.125  0.1643 -0.0182  0.6930
 1796SOL    HW116607   6.881   2.560   0.036 -0.6352  0.1949  0.9727
 1796SOL    HW216608   6.986   2.466   0.118 -0.8728 -1.5138 -0.6412
 1797SOL     OW16609   3.397   1.360   6.040 -0.0944 -0.2364 -0.0139
 1797SOL    HW116610   3.378   1.350   6.138  0.8260  0.5006  0.2373
 1797SOL    HW216611   3.312   1.379   5.992 -0.6287 -1.0818  0.5778
 1798SOL     OW16612   0.345   2.408   3.240 -0.3354  0.2578 -0.0774
 1798SOL    HW116613   0.426   2.457   3.206  0.1517 -1.3443 -1.3072
 1798SOL    HW216614   0.306   2.458   3.317  1.6264  1.2274  0.3224
 1799SOL     OW16615   7.944   3.331   4.121 -0.4770 -0.4718 -0.4670
 1799SOL    HW116616   8.023   3.284   4.080 -0.6249 -0.9857 -0.1704
 1799SOL    HW216617   7.938   3.307   4.218 -0.5401  0.1893 -0.3083
 1800SOL     OW16618   2.575   0.998   4.036  0.0859 -0.7724  0.5805
 1800SOL    HW116619   2.482   1.028   4.061  0.1653 -0.8849  1.0141
 1800SOL    HW216620   2.612   1.060   3.967 -0.4576 -0.9487  0.1313
 1801SOL     OW16621   6.602   0.872   6.772  0.1903  0.2189  0.1613
 1801SOL    HW116622   6.585   0.929   6.852 -0.1496 -0.3627  0.5128
 1801SOL    HW216623   6.603   0.776   6.800 -1.5125 -0.0918 -0.7791
 1802SOL     OW16624   8.450   2.901   5.091 -0.5244 -0.0095  0.2743
 1802SOL    HW116625   8.436   2.992   5.129 -0.2068 -0.2053  0.8780
 1802SOL    HW216626   8.486   2.840   5.163 -0.1695 -0.4533 -0.2724
 1803SOL     OW16627   2.092   5.954   5.871  0.0252  1.1000 -0.2241
 1803SOL    HW116628   2.014   5.955   5.934 -1.6711  1.0197 -2.2930
 1803SOL    HW216629   2.175   5.934   5.923 -1.5798 -0.8458  1.7125
 1804SOL     OW16630   8.725   6.613   4.423 -0.1843 -0.2942  0.1770
 1804SOL    HW116631   8.683   6.529   4.391  0.0205 -0.0460 -0.7767
 1804SOL    HW216632   8.806   6.592   4.477  0.6680 -0.6796 -1.2384
 1805SOL     OW16633   9.409   8.567   4.344 -0.0364  0.0019 -0.2014
 1805SOL    HW116634   9.453   8.654   4.368 -0.0557 -0.2080  0.6089
 1805SOL    HW216635   9.465   8.491   4.377 -0.9727 -0.2734  0.7750
 1806SOL     OW16636   4.720   7.003   1.455 -0.0642  0.3353  0.1185
 1806SOL    HW116637   4.736   7.044   1.365 -0.3235 -0.4481 -0.2880
 1806SOL    HW216638   4.755   6.910   1.456 -2.5825 -0.6703 -0.1046
 1807SOL     OW16639   0.427   0.169   4.137  0.3570 -0.3893 -0.2868
 1807SOL    HW116640   0.350   0.227   4.163 -0.0858  0.3930 -3.1836
 1807SOL    HW216641   0.508   0.193   4.191 -0.1062  2.2123 -0.7175
 1808SOL     OW16642   3.141   4.659   0.002  0.2414  0.0501  0.0250
 1808SOL    HW116643   3.061   4.635   0.058  0.5717 -0.7252  0.1654
 1808SOL    HW216644   3.129   4.751  -0.034 -0.0240  0.5345  1.2992
 1809SOL     OW16645   1.502   4.740   1.912 -0.6986  0.4037 -0.0802
 1809SOL    HW116646   1.524   4.746   1.814 -0.4308 -1.0570 -0.1221
 1809SOL    HW216647   1.586   4.734   1.965 -0.8271  1.8159  0.2990
 1810SOL     OW16648   1.900   4.914   2.771 -0.2367 -0.7244 -0.1355
 1810SOL    HW116649   1.933   4.950   2.859 -1.6867  3.1647 -1.0814
 1810SOL    HW216650   1.977   4.898   2.710  0.5332 -0.2781  0.7051
 1811SOL     OW16651   1.827   0.169   4.704 -0.3526 -0.0705 -0.1077
 1811SOL    HW116652   1.745   0.111   4.704  0.0718 -0.7024 -1.9347
 1811SOL    HW216653   1.892   0.134   4.772 -0.4472 -1.2676 -0.6093
 1812SOL     OW16654   9.524   4.837   2.509  0.5342  0.0513  0.0837
 1812SOL    HW116655   9.546   4.935   2.505 -2.9817  0.8746 -1.0500
 1812SOL    HW216656   9.469   4.819   2.591 -1.8982 -0.2069 -1.5347
 1813SOL     OW16657   9.541   6.630   1.480  0.2189 -0.0430  0.5154
 1813SOL    HW116658   9.476   6.599   1.550  0.2913 -2.3435 -0.4297
 1813SOL    HW216659   9.492   6.685   1.412 -0.4820 -0.5967  0.5658
 1814SOL     OW16660   4.014   3.273   3.924 -0.3381 -0.3537  0.1790
 1814SOL    HW116661   3.935   3.217   3.948 -1.5158 -0.1334 -3.0146
 1814SOL    HW216662   3.988   3.369   3.921  0.0984 -0.2589 -0.6620
 1815SOL     OW16663   2.432   7.452   3.556  0.7111 -0.3903  0.1475
 1815SOL    HW116664   2.532   7.460   3.562  0.7901 -2.5548  2.3492
 1815SOL    HW216665   2.408   7.395   3.478  1.2424 -0.6782  0.1919
 1816SOL     OW16666   4.666   1.098   2.155  0.4796 -0.1777 -0.3184
 1816SOL    HW116667   4.734   1.032   2.188  2.3750  2.1173  0.4569
 1816SOL    HW216668   4.697   1.135   2.067 -0.4270 -0.0918 -0.6000
 1817SOL     OW16669   5.379   0.950   1.211  0.1271  0.4571 -0.1249
 1817SOL    HW116670   5.430   0.904   1.283  0.2261 -1.0827 -1.1597
 1817SOL    HW216671   5.395   0.904   1.124 -2.9327 -0.0064 -0.4934
 1818SOL     OW16672   4.766   5.979   2.074  0.3523  0.3140 -0.0956
 1818SOL    HW116673   4.711   6.032   2.010 -0.9813 -0.5018  0.3645
 1818SOL    HW216674   4.712   5.956   2.155  1.4357 -0.2921  0.4770
 1819SOL     OW16675   5.285   4.216   7.836  0.5186 -0.3177  0.2197
 1819SOL    HW116676   5.363   4.243   7.779 -0.5023  0.1276 -1.0105
 1819SOL    HW216677   5.317   4.162   7.914  1.9924 -0.6182 -0.5747
 1820SOL     OW16678   1.417   6.880   2.272  0.0201 -0.3454 -0.2782
 1820SOL    HW116679   1.512   6.901   2.249 -0.0713  0.2281 -0.1450
 1820SOL    HW216680   1.411   6.790   2.315  0.7025  0.2859  1.1574
 1821SOL     OW16681   8.600   9.204   4.936  0.1603 -0.4680  0.5607
 1821SOL    HW116682   8.548   9.241   5.013  2.5010  1.8550  1.0909
 1821SOL    HW216683   8.573   9.252   4.852 -0.8431 -1.5278  0.2522
 1822SOL     OW16684   8.707   5.004   3.122  0.6006 -0.2230 -0.7399
 1822SOL    HW116685   8.636   4.935   3.110  0.9411 -0.7499  0.2277
 1822SOL    HW216686   8.666   5.095   3.118 -0.2552 -0.5339  0.5729
 1823SOL     OW16687   8.910   0.778   6.475 -0.8659  0.5241  0.6912
 1823SOL    HW116688   9.008   0.757   6.485 -0.3798  1.4978 -1.6224
 1823SOL    HW216689   8.889   0.862   6.524 -0.1734  1.2057 -0.1644
 1824SOL     OW16690   4.843   1.237   2.785 -0.0505 -0.5240  0.4017
 1824SOL    HW116691   4.864   1.140   2.797  1.6306 -0.1071  0.9543
 1824SOL    HW216692   4.899   1.274   2.711 -0.5801  0.0685  0.2939
 1825SOL     OW16693   7.925   9.849   1.133  0.4872  0.1427 -0.3820
 1825SOL    HW116694   7.889   9.775   1.076 -1.5748  0.0297  1.0088
 1825SOL    HW216695   8.002   9.816   1.187  0.9055 -0.4049 -1.3095
 1826SOL     OW16696   1.930   2.627   2.930 -0.3115 -0.3749 -0.2724
 1826SOL    HW116697   1.931   2.620   2.830 -0.4340 -1.6509 -0.1873
 1826SOL    HW216698   1.939   2.536   2.970 -0.4079  0.1181  0.8841
 1827SOL     OW16699   4.868   3.248   5.145  0.0911 -0.0049  0.4409
 1827SOL    HW116700   4.950   3.200   5.114 -2.2204 -2.5674 -1.9314
 1827SOL    HW216701   4.828   3.300   5.069  0.5185  2.8553  2.0712
 1828SOL     OW16702   3.397   3.557   3.297  0.5954 -0.3193 -0.0869
 1828SOL    HW116703   3.463   3.542   3.371  1.7075 -0.5238 -1.1188
 1828SOL    HW216704   3.434   3.624   3.233 -0.5050  0.0892 -0.3098
 1829SOL     OW16705   4.183   1.770   6.043 -0.4006 -0.0457 -0.5866
 1829SOL    HW116706   4.157   1.716   5.962 -0.8727 -0.3278 -0.2453
 1829SOL    HW216707   4.101   1.803   6.089 -0.2697 -2.7724  1.7417
 1830SOL     OW16708   8.580   2.507   0.084  0.1856 -0.4191 -0.0693
 1830SOL    HW116709   8.498   2.457   0.054 -0.4706  0.3201  0.4804
 1830SOL    HW216710   8.579   2.516   0.184  0.5915  0.2065 -0.1202
 1831SOL     OW16711   3.424   8.859   0.434  0.0795  0.0336 -0.1650
 1831SOL    HW116712   3.373   8.787   0.480  1.2858  0.2689  1.5457
 1831SOL    HW216713   3.495   8.819   0.377 -0.3447 -0.1746 -0.5591
 1832SOL     OW16714   8.279   5.649   8.106 -0.3821 -0.3191  0.2725
 1832SOL    HW116715   8.339   5.641   8.026 -0.6896 -0.4684  0.0568
 1832SOL    HW216716   8.316   5.718   8.168 -1.0191  0.9840 -0.7688
 1833SOL     OW16717   9.186   7.118   2.312 -0.6101  0.1943 -0.0429
 1833SOL    HW116718   9.088   7.104   2.324 -0.4575  0.4434  1.5103
 1833SOL    HW216719   9.231   7.030   2.300 -0.8427 -0.0252  0.6809
 1834SOL     OW16720   0.988   6.422   3.120 -0.3328  0.1608 -0.0609
 1834SOL    HW116721   0.944   6.380   3.040  2.3271 -0.9816 -0.9720
 1834SOL    HW216722   1.037   6.504   3.091  0.1792  0.0503  0.4905
 1835SOL     OW16723   5.853   2.623   5.292 -0.0449 -0.5560  0.4994
 1835SOL    HW116724   5.852   2.693   5.221 -1.6194 -0.4096  0.6326
 1835SOL    HW216725   5.902   2.542   5.259 -1.1338 -0.6562 -0.9429
 1836SOL     OW16726   2.038   5.715   3.622  0.1641 -0.0156  0.2839
 1836SOL    HW116727   1.992   5.626   3.624 -3.1788  1.6433 -0.0890
 1836SOL    HW216728   2.033   5.757   3.712  0.3034  0.5346  0.0345
 1837SOL     OW16729   2.942   0.109   2.650  0.0989  0.5391 -0.0575
 1837SOL    HW116730   2.874   0.054   2.603 -1.5646  1.0944  1.6132
 1837SOL    HW216731   2.934   0.094   2.749  2.8172  0.1574  0.1578
 1838SOL     OW16732   0.279   2.112   0.397  0.0340  0.3954 -0.1671
 1838SOL    HW116733   0.372   2.085   0.424 -0.1717 -0.2418 -0.1094
 1838SOL    HW216734   0.215   2.039   0.419 -0.1621 -0.0749 -2.2235
 1839SOL     OW16735   8.870   7.970   2.927  0.2677 -0.7184  0.4232
 1839SOL    HW116736   8.888   7.901   2.857 -0.2020 -0.7643  0.3455
 1839SOL    HW216737   8.922   8.053   2.907 -1.1082 -0.1468 -0.8766
 1840SOL     OW16738   7.609   2.043   4.796  0.3548  0.6887 -0.0214
 1840SOL    HW116739   7.663   1.970   4.753  0.6934  1.0290 -0.1757
 1840SOL    HW216740   7.523   2.005   4.830  0.2397  0.3468 -0.6908
 1841SOL     OW16741   9.338   4.654   0.372 -0.4989  0.6492  0.1811
 1841SOL    HW116742   9.428   4.618   0.398 -1.0221 -0.3996  0.5828
 1841SOL    HW216743   9.311   4.726   0.436  0.3843  1.4922 -0.3867
 1842SOL     OW16744   8.065   9.951   6.874  0.5710  0.1157  0.1665
 1842SOL    HW116745   8.062   9.872   6.934 -0.4627 -0.4963 -0.6601
 1842SOL    HW216746   8.157   9.964   6.839  0.6241 -1.0731 -0.1376
 1843SOL     OW16747   0.600   2.344   2.994  0.1570 -0.2702  0.4942
 1843SOL    HW116748   0.562   2.280   3.062 -2.4151 -0.4537 -1.0313
 1843SOL    HW216749   0.564   2.435   3.011 -0.9552 -0.4252 -0.9100
 1844SOL     OW16750   0.184   2.775   5.297  0.4325 -0.3885  0.0801
 1844SOL    HW116751   0.248   2.768   5.375 -1.1403  0.4065  1.4773
 1844SOL    HW216752   0.104   2.719   5.315 -1.0385  1.6759  0.1501
 1845SOL     OW16753   4.113   8.215   2.901  0.0049  0.0566  0.5874
 1845SOL    HW116754   4.127   8.301   2.853  0.9581 -0.8613 -0.8001
 1845SOL    HW216755   4.053   8.230   2.980 -1.1912  1.6700 -0.6013
 1846SOL     OW16756   2.073   6.619   4.217 -0.0878  0.6431  0.6355
 1846SOL    HW116757   2.108   6.526   4.202 -0.0437  0.7388  0.1532
 1846SOL    HW216758   1.998   6.616   4.283 -0.5640  0.1817  0.0667
 1847SOL     OW16759   3.056   6.908   3.111  0.1670  0.5331 -0.5032
 1847SOL    HW116760   3.009   6.983   3.156  0.8233 -1.2051  3.2740
 1847SOL    HW216761   3.008   6.884   3.027 -2.3479  2.5375  0.3181
 1848SOL     OW16762   9.626   5.903   2.440 -0.2227  0.5159  0.7705
 1848SOL    HW116763   9.694   5.944   2.500 -0.2432  0.5229  0.7893
 1848SOL    HW216764   9.621   5.956   2.355  1.7535 -1.0651 -0.3738
 1849SOL     OW16765   9.403   5.969   0.047  0.6542  0.5104  0.5806
 1849SOL    HW116766   9.336   5.934   0.113  0.3180  1.5240  0.7845
 1849SOL    HW216767   9.362   5.970  -0.044  0.7913  0.0166  0.5147
 1850SOL     OW16768   0.045   1.350   0.215 -0.6422  0.2859 -0.1143
 1850SOL    HW116769   0.096   1.288   0.156  0.6626  0.5163  0.7578
 1850SOL    HW216770   0.070   1.335   0.310 -1.6046  0.9618  0.2611
 1851SOL     OW16771   5.529   2.277   5.795 -0.1420  0.0276 -0.3012
 1851SOL    HW116772   5.580   2.200   5.832  0.5869  1.1862  1.1897
 1851SOL    HW216773   5.559   2.296   5.702  1.3322 -0.0346  0.1552
 1852SOL     OW16774   9.273   3.649   7.895 -0.0820 -0.0912  0.4826
 1852SOL    HW116775   9.342   3.694   7.952 -0.8660  1.0796  0.5313
 1852SOL    HW216776   9.183   3.686   7.917 -0.4438  0.0328 -1.1909
 1853SOL     OW16777   5.877   8.100   5.160  0.1135  0.3444  0.6358
 1853SOL    HW116778   5.875   8.005   5.189 -1.6423  0.6340  1.5296
 1853SOL    HW216779   5.845   8.159   5.234  0.2863  1.5481 -0.2246
 1854SOL     OW16780   1.502   6.670   3.360 -0.7907 -0.4412 -0.5006
 1854SOL    HW116781   1.413   6.628   3.344 -1.8265  0.7186  1.9990
 1854SOL    HW216782   1.516   6.683   3.458  1.7565  0.2417 -0.9042
 1855SOL     OW16783   8.153   1.918   6.407  0.0640 -0.3062  0.3584
 1855SOL    HW116784   8.078   1.854   6.389  0.0300  0.0735 -0.9113
 1855SOL    HW216785   8.116   2.007   6.434  0.0531 -0.1484 -0.1684
 1856SOL     OW16786   8.463   2.692   5.919 -0.4871 -0.1690 -0.8726
 1856SOL    HW116787   8.402   2.639   5.977  0.8161 -0.0735  0.6258
 1856SOL    HW216788   8.538   2.633   5.887  0.4360  0.5085  0.0084
 1857SOL     OW16789   3.045   7.218   2.850  0.2305 -0.2684  0.1912
 1857SOL    HW116790   3.070   7.196   2.756  1.3288 -0.3955  0.5053
 1857SOL    HW216791   2.946   7.226   2.858  0.1614  0.1605 -1.0709
 1858SOL     OW16792   0.626   1.535   3.781  0.1041  0.3803 -0.4730
 1858SOL    HW116793   0.653   1.439   3.780 -1.7637 -0.1670 -0.0154
 1858SOL    HW216794   0.567   1.554   3.703 -0.6838  0.7993  0.2132
 1859SOL     OW16795   4.076   5.804   0.341  0.1854 -0.2932  0.5380
 1859SOL    HW116796   4.102   5.806   0.244  1.4110  1.7414  0.8790
 1859SOL    HW216797   4.002   5.738   0.354 -0.6663  0.0978 -1.9445
 1860SOL     OW16798   9.592   9.960   1.760  0.3256  0.1704  0.3237
 1860SOL    HW116799   9.641  10.029   1.706  0.6493  0.5914  1.1539
 1860SOL    HW216800   9.654   9.884   1.780  0.1686 -0.0456  0.0031
 1861SOL     OW16801   9.087   4.052   4.064 -0.0685 -0.3442 -0.3346
 1861SOL    HW116802   9.061   3.959   4.041  0.1971 -1.0436  2.0527
 1861SOL    HW216803   9.039   4.116   4.004 -2.0187 -1.8955 -0.4646
 1862SOL     OW16804   2.309   4.434   1.955 -0.8812  0.2860  0.4741
 1862SOL    HW116805   2.209   4.442   1.956 -0.8601  0.3797  2.6661
 1862SOL    HW216806   2.338   4.365   2.021  0.4817 -0.2187 -0.6332
 1863SOL     OW16807   1.120   5.469   3.813  0.0844 -0.1240  0.2591
 1863SOL    HW116808   1.073   5.468   3.901 -0.7518  0.4204 -0.1745
 1863SOL    HW216809   1.098   5.554   3.764 -1.1339 -1.3617 -1.3780
 1864SOL     OW16810   8.278   7.143   1.499 -0.1630  0.4400  0.5311
 1864SOL    HW116811   8.192   7.138   1.447  0.5812 -1.0562 -0.5811
 1864SOL    HW216812   8.257   7.148   1.597 -1.5264  0.2125  0.2667
 1865SOL     OW16813   5.238   0.090   4.679  0.4124 -0.5437 -0.8659
 1865SOL    HW116814   5.268   0.164   4.738 -1.1170 -0.4009 -0.2455
 1865SOL    HW216815   5.306   0.016   4.681 -0.2076 -1.1042  2.1075
 1866SOL     OW16816   5.222   8.783   2.664  0.2339  0.5771  0.7965
 1866SOL    HW116817   5.233   8.842   2.584  1.3925  0.0551  0.5494
 1866SOL    HW216818   5.312   8.764   2.703  0.2615 -3.3889 -0.8794
 1867SOL     OW16819   0.413   3.104   3.163 -0.8537  0.2292 -0.5649
 1867SOL    HW116820   0.505   3.143   3.156 -1.0522  0.9177  0.4620
 1867SOL    HW216821   0.410   3.016   3.115  0.4914 -0.0757 -0.1188
 1868SOL     OW16822   3.171   9.891   2.225 -0.0050 -0.0549  0.0356
 1868SOL    HW116823   3.142   9.949   2.150  0.7642 -1.0715 -1.0648
 1868SOL    HW216824   3.270   9.881   2.224  0.1902  1.3306  2.2452
 1869SOL     OW16825   7.442   4.264   7.988 -0.6650 -0.7200  0.3326
 1869SOL    HW116826   7.432   4.167   8.009 -0.6835 -1.1194 -1.4637
 1869SOL    HW216827   7.539   4.286   7.980 -0.6570 -0.5567  0.8344
 1870SOL     OW16828   9.382   2.163   2.396  0.3428 -0.4535 -0.0483
 1870SOL    HW116829   9.439   2.115   2.462 -0.4404  0.0967  1.0582
 1870SOL    HW216830   9.437   2.189   2.316  1.4480 -0.6182  0.6502
 1871SOL     OW16831   1.638   3.298   4.736  0.0609  0.0309 -0.6688
 1871SOL    HW116832   1.551   3.274   4.693  0.3951 -0.9344 -0.8112
 1871SOL    HW216833   1.668   3.223   4.795  0.8446  0.3227 -0.6936
 1872SOL     OW16834   8.292   6.596   4.301 -0.2243 -0.0555  0.0056
 1872SOL    HW116835   8.317   6.655   4.224 -0.3750  0.1499  0.1134
 1872SOL    HW216836   8.244   6.650   4.370 -0.8625 -0.4290 -0.1451
 1873SOL     OW16837   0.383   0.614   0.222 -0.2639  0.2135  0.5669
 1873SOL    HW116838   0.320   0.689   0.244  0.2020  0.7111  0.2313
 1873SOL    HW216839   0.470   0.652   0.190  0.4790 -0.4632  1.7541
 1874SOL     OW16840   0.218   8.946   6.213 -0.5223  0.1174  0.6484
 1874SOL    HW116841   0.225   9.016   6.284 -0.2908  0.7422  0.0202
 1874SOL    HW216842   0.151   8.877   6.240 -0.2465  0.2089  1.5886
 1875SOL     OW16843   4.397   2.716   0.908 -0.3912 -0.4514  0.5986
 1875SOL    HW116844   4.475   2.742   0.850 -0.4054 -0.6345  0.4962
 1875SOL    HW216845   4.328   2.788   0.905  0.0561  0.0116  1.2039
 1876SOL     OW16846   2.444   1.724   2.184  0.2380 -0.6194  0.0512
 1876SOL    HW116847   2.515   1.794   2.194  0.6944 -1.3669  2.1648
 1876SOL    HW216848   2.466   1.666   2.105  0.1936  1.1847 -1.3222
 1877SOL     OW16849   8.887   9.290   6.057 -0.0654 -0.4461 -0.1736
 1877SOL    HW116850   8.874   9.274   5.959 -0.5824  0.1673 -0.2093
 1877SOL    HW216851   8.962   9.234   6.090  0.1216 -0.6458 -0.9272
 1878SOL     OW16852   0.981   9.237   4.589  0.3729  0.0745  0.2079
 1878SOL    HW116853   1.056   9.213   4.652  0.3308 -0.4711  0.0498
 1878SOL    HW216854   0.985   9.178   4.509 -2.0029 -1.9856  1.5431
 1879SOL     OW16855   2.931   0.590   0.707  0.0562 -0.6653 -0.0588
 1879SOL    HW116856   2.970   0.577   0.798 -0.2158 -0.6389  0.0634
 1879SOL    HW216857   2.957   0.514   0.648  0.5086 -0.5142 -0.0542
 1880SOL     OW16858   0.890   0.976   6.209  0.9429  0.2514 -0.0544
 1880SOL    HW116859   0.908   0.878   6.215  2.1824  0.4129 -0.8611
 1880SOL    HW216860   0.833   0.994   6.128  0.6605  0.1977  0.1304
 1881SOL     OW16861   6.877   3.144   4.181  0.3416  0.3545 -0.1839
 1881SOL    HW116862   6.891   3.093   4.096 -2.6962 -0.0285 -0.5218
 1881SOL    HW216863   6.899   3.240   4.165 -0.6380  0.3659 -1.5480
 1882SOL     OW16864   5.451   1.946   1.328 -0.6721  0.3700  0.5455
 1882SOL    HW116865   5.387   1.873   1.303  0.1199 -0.4723  0.9402
 1882SOL    HW216866   5.435   2.025   1.269  0.2799 -1.1071 -1.7613
 1883SOL     OW16867   2.421   1.059   4.779 -0.4426  0.5534  0.0381
 1883SOL    HW116868   2.483   1.134   4.759  2.6555 -2.3552 -1.7731
 1883SOL    HW216869   2.445   1.017   4.867  0.2203 -0.5826 -0.6668
 1884SOL     OW16870   4.676   1.005   2.504 -0.4398 -0.1106  0.0184
 1884SOL    HW116871   4.593   0.987   2.452 -1.0263  0.5371  0.6991
 1884SOL    HW216872   4.665   0.970   2.597  0.4669 -0.9738 -0.1996
 1885SOL     OW16873   7.381   9.819   2.461  0.0311 -0.2736 -0.9400
 1885SOL    HW116874   7.358   9.915   2.479  0.2154  0.0494 -2.3781
 1885SOL    HW216875   7.308   9.760   2.495 -0.2895  0.3978 -0.4483
 1886SOL     OW16876   9.686   6.541   2.865 -0.1928  0.4263 -0.4172
 1886SOL    HW116877   9.759   6.606   2.887 -0.3836  0.4133  0.2605
 1886SOL    HW216878   9.725   6.449   2.856 -0.2419  0.2725  0.8112
 1887SOL     OW16879   3.891   4.730   3.356 -0.1025 -0.1718 -0.1836
 1887SOL    HW116880   3.926   4.636   3.362 -1.8174 -0.7226  1.7142
 1887SOL    HW216881   3.923   4.782   3.435  0.6082  0.7712 -1.0909
 1888SOL     OW16882   4.227   9.857   0.943  0.3971  0.5707  0.1466
 1888SOL    HW116883   4.160   9.783   0.939  0.7775  0.1661  1.0706
 1888SOL    HW216884   4.275   9.863   0.855 -1.2541  1.2737 -0.7432
 1889SOL     OW16885   2.588   1.156   5.719 -0.1274 -0.4463  0.3940
 1889SOL    HW116886   2.635   1.126   5.636 -0.5529 -0.5683  0.1948
 1889SOL    HW216887   2.525   1.085   5.749 -0.8078  0.0550  0.1766
 1890SOL     OW16888   8.294   0.802   6.516 -0.0825 -0.2233 -0.9475
 1890SOL    HW116889   8.304   0.889   6.468  1.7550  0.2572  0.2437
 1890SOL    HW216890   8.198   0.789   6.542 -0.2795  1.7714 -0.5603
 1891SOL     OW16891   0.787  10.000   5.507  0.5866  0.3662 -0.0145
 1891SOL    HW116892   0.720  10.007   5.581  0.3072  1.8330 -0.4135
 1891SOL    HW216893   0.873  10.041   5.537  0.5799  0.6477 -0.3898
 1892SOL     OW16894   6.477   8.720   5.679 -0.4283  0.0985 -0.3526
 1892SOL    HW116895   6.537   8.674   5.744  0.7915  0.5064 -1.1647
 1892SOL    HW216896   6.508   8.700   5.586 -1.7846  0.0119 -0.7889
 1893SOL     OW16897   1.816   8.972   1.929 -0.4005 -0.5465 -0.2283
 1893SOL    HW116898   1.817   8.978   2.029 -0.6722 -1.2146 -0.1775
 1893SOL    HW216899   1.760   9.045   1.892  0.0394 -0.0474  0.0901
 1894SOL     OW16900   7.825   5.497   4.009 -0.5246 -0.5944  0.4793
 1894SOL    HW116901   7.836   5.406   4.049  0.6470 -0.7352 -0.1338
 1894SOL    HW216902   7.898   5.557   4.040  0.5150 -0.7610 -1.5746
 1895SOL     OW16903   2.694   4.147   3.007  0.7250 -0.3739 -1.0099
 1895SOL    HW116904   2.664   4.163   2.913 -0.8770 -0.7551 -0.5853
 1895SOL    HW216905   2.622   4.177   3.070  1.7474 -0.2094  0.0913
 1896SOL     OW16906   0.432   7.527   5.602  0.4614  0.1997  0.4097
 1896SOL    HW116907   0.531   7.524   5.583  0.2350 -0.3834 -0.6905
 1896SOL    HW216908   0.396   7.616   5.577  0.9773  0.9327  2.1973
 1897SOL     OW16909   3.977   9.622   6.527 -0.0179  0.1034  0.0271
 1897SOL    HW116910   3.952   9.706   6.576 -1.7121  0.1339 -0.8517
 1897SOL    HW216911   4.059   9.639   6.472  0.0291  1.0028  0.3597
 1898SOL     OW16912   0.115   0.758   4.096 -0.0083  0.0465  0.4586
 1898SOL    HW116913   0.028   0.712   4.082  0.8532 -1.4233 -0.2092
 1898SOL    HW216914   0.171   0.749   4.013  0.9728  0.5120  1.0605
 1899SOL     OW16915   3.949   3.762   8.094  0.4805 -0.4275 -0.2966
 1899SOL    HW116916   3.933   3.855   8.125 -0.8218 -0.9672  0.6655
 1899SOL    HW216917   4.038   3.731   8.127  0.7693  0.3414 -0.3368
 1900SOL     OW16918   5.018   5.841   2.404 -0.5865  0.5820  0.0224
 1900SOL    HW116919   5.070   5.855   2.321  0.6035  1.4761  0.8981
 1900SOL    HW216920   5.080   5.827   2.481 -1.6694 -0.9082  0.6678
 1901SOL     OW16921   5.332   4.866   0.671 -0.1139  0.0035  0.0849
 1901SOL    HW116922   5.333   4.768   0.653  0.2044  0.3921 -2.1488
 1901SOL    HW216923   5.425   4.901   0.673 -0.2793  0.4780 -0.3646
 1902SOL     OW16924   7.666   0.272   2.495  0.1472  0.0979 -0.5586
 1902SOL    HW116925   7.699   0.178   2.480 -0.2546 -0.4422  1.6608
 1902SOL    HW216926   7.712   0.311   2.575 -1.6190  0.7999  0.1472
 1903SOL     OW16927   6.039   0.710   4.075 -0.4102  0.4008 -0.4027
 1903SOL    HW116928   6.068   0.769   4.000  0.1061  1.1662  0.3953
 1903SOL    HW216929   6.006   0.623   4.038 -2.1944  1.5767 -1.6556
 1904SOL     OW16930   2.412   4.792   4.797 -0.5153 -0.0910 -0.6042
 1904SOL    HW116931   2.461   4.805   4.712  0.3510  1.1305  0.0737
 1904SOL    HW216932   2.328   4.847   4.796  0.2791  1.1668 -0.0587
 1905SOL     OW16933   4.720   7.674   1.798 -0.5699  0.2038  0.0066
 1905SOL    HW116934   4.688   7.768   1.791 -1.4786 -0.1116 -0.0998
 1905SOL    HW216935   4.819   7.671   1.780 -0.3038  1.2987  1.1828
 1906SOL     OW16936   8.603   9.919   5.307  0.4127 -0.2487  0.6641
 1906SOL    HW116937   8.558  10.001   5.273 -0.4755 -0.7119  0.6996
 1906SOL    HW216938   8.648   9.871   5.232 -1.9987 -1.5585  0.0044
 1907SOL     OW16939   1.543   1.297   0.419 -0.2056 -0.2342 -0.8230
 1907SOL    HW116940   1.536   1.394   0.444 -0.8637 -0.7421  1.0461
 1907SOL    HW216941   1.592   1.248   0.491 -0.1901 -1.3675 -1.5952
 1908SOL     OW16942   7.502   6.860   4.829 -0.2780  0.1337  0.1178
 1908SOL    HW116943   7.519   6.774   4.876 -0.9626 -0.7431 -1.2000
 1908SOL    HW216944   7.412   6.895   4.854  0.1618  0.6859  0.9609
 1909SOL     OW16945   7.104   1.334   1.322 -0.5843  0.1422  0.1343
 1909SOL    HW116946   7.051   1.315   1.240  0.0707  0.3698 -0.3512
 1909SOL    HW216947   7.104   1.253   1.382 -0.0926 -0.4465 -0.6429
 1910SOL     OW16948   8.378   4.957   1.885 -0.2813  0.2846  0.4445
 1910SOL    HW116949   8.395   4.860   1.901  0.3473  0.6868  2.2651
 1910SOL    HW216950   8.449   4.993   1.825 -1.5428 -0.7713 -1.7616
 1911SOL     OW16951   4.060   9.186   0.560 -0.4265  0.0862 -0.0253
 1911SOL    HW116952   4.130   9.117   0.539 -0.3581  0.5938 -1.5766
 1911SOL    HW216953   3.971   9.142   0.565 -0.1174 -0.4219  0.9942
 1912SOL     OW16954   6.427   0.481   6.344  0.1497  0.2469  0.0178
 1912SOL    HW116955   6.415   0.531   6.258  1.1219  0.4818  0.0120
 1912SOL    HW216956   6.338   0.459   6.383 -0.2919  2.2232  0.1477
 1913SOL     OW16957   7.187   3.394   3.407 -0.0021  0.3328  0.3423
 1913SOL    HW116958   7.186   3.366   3.311 -0.0444  2.4374 -0.2896
 1913SOL    HW216959   7.216   3.317   3.463 -0.0072 -0.9434 -1.3485
 1914SOL     OW16960   5.446   6.315   1.764 -0.1473  0.1094 -0.0885
 1914SOL    HW116961   5.369   6.251   1.756 -0.0504 -0.1812  1.0729
 1914SOL    HW216962   5.416   6.407   1.740 -0.8299 -0.0213  0.2420
 1915SOL     OW16963   1.287   9.250   2.727  0.0093  0.3294 -0.0824
 1915SOL    HW116964   1.209   9.260   2.665 -1.5658 -0.1953  1.7738
 1915SOL    HW216965   1.351   9.183   2.689 -0.4912  0.6789 -1.5711
 1916SOL     OW16966   4.170   4.284   2.227 -0.3401 -0.3285  0.0417
 1916SOL    HW116967   4.239   4.251   2.163 -1.0423 -1.4117 -0.1681
 1916SOL    HW216968   4.124   4.206   2.269 -2.2703  0.3865 -0.7195
 1917SOL     OW16969   7.308   0.385   3.293 -0.3280  0.3576 -0.1078
 1917SOL    HW116970   7.368   0.330   3.235  1.1564 -0.0748  1.7872
 1917SOL    HW216971   7.255   0.448   3.237 -0.2413 -1.2936 -2.0851
 1918SOL     OW16972   2.802   0.946   0.848 -0.4624  0.1748 -0.0016
 1918SOL    HW116973   2.880   0.949   0.786  0.0864 -0.2854  0.6663
 1918SOL    HW216974   2.788   1.036   0.890 -0.2481  0.2354 -0.0628
 1919SOL     OW16975   7.867   2.108   5.855 -0.1627  0.4708  0.1251
 1919SOL    HW116976   7.857   2.126   5.757 -0.5749  0.8315  0.2337
 1919SOL    HW216977   7.858   2.193   5.906  1.6158  0.5214  0.3666
 1920SOL     OW16978   1.712   1.393   2.501 -0.3182 -0.0264 -0.2712
 1920SOL    HW116979   1.650   1.470   2.518 -0.1223  0.3804 -1.3451
 1920SOL    HW216980   1.761   1.408   2.416 -1.3449 -2.0480 -1.2563
 1921SOL     OW16981   3.992   4.627   2.680  0.6605  0.2283  0.8720
 1921SOL    HW116982   3.902   4.604   2.641  0.1827 -0.7357  2.5130
 1921SOL    HW216983   4.054   4.651   2.606 -1.0070  1.1261 -0.2784
 1922SOL     OW16984   8.244   3.581   4.992 -0.0345 -0.1108 -0.4988
 1922SOL    HW116985   8.144   3.574   4.999  0.0705 -1.0390  0.2606
 1922SOL    HW216986   8.285   3.543   5.075  1.0078 -1.8088 -1.7491
 1923SOL     OW16987   7.968   2.143   2.367  0.3084 -0.2129 -0.3906
 1923SOL    HW116988   8.043   2.091   2.406  0.0332  0.6006  1.2514
 1923SOL    HW216989   7.881   2.101   2.394  0.1126  0.5034  0.1136
 1924SOL     OW16990   4.821   5.797   0.502  0.1926  0.1732  0.1502
 1924SOL    HW116991   4.761   5.856   0.557 -0.5374  0.7164 -1.2103
 1924SOL    HW216992   4.771   5.762   0.423  1.3751 -0.1905 -0.4550
 1925SOL     OW16993   2.160   8.744   1.603 -0.2221  0.1798 -0.2127
 1925SOL    HW116994   2.131   8.828   1.649  0.8544  1.1455 -1.2431
 1925SOL    HW216995   2.159   8.668   1.667 -1.0046  1.0283  0.7914
 1926SOL     OW16996   3.726   9.465   6.079 -0.0253 -0.1295  0.0046
 1926SOL    HW116997   3.761   9.372   6.093 -0.7932 -0.3136  0.7485
 1926SOL    HW216998   3.772   9.528   6.143 -0.8356 -0.3271  0.7996
 1927SOL     OW16999   5.322   9.117   5.636 -0.5040  0.3618  0.4871
 1927SOL    HW117000   5.380   9.144   5.712 -1.5324  0.1067  1.3720
 1927SOL    HW217001   5.351   9.165   5.553 -0.2295  1.6415  1.3182
 1928SOL     OW17002   1.663   4.779   3.477 -0.1808  0.7022  0.1472
 1928SOL    HW117003   1.687   4.758   3.382 -2.1054  1.2283 -0.5014
 1928SOL    HW217004   1.596   4.712   3.510 -0.7099  1.4351  0.5817
 1929SOL     OW17005   2.840   3.268   4.173 -0.1665 -0.0636 -0.1409
 1929SOL    HW117006   2.745   3.257   4.202 -0.3603  1.5396 -0.1154
 1929SOL    HW217007   2.893   3.308   4.247  0.5221 -0.8651 -0.1890
 1930SOL     OW17008   8.397   3.456   6.043  0.0811 -0.1818  0.1757
 1930SOL    HW117009   8.495   3.476   6.037  0.5289 -1.7804  1.7346
 1930SOL    HW217010   8.346   3.541   6.054  1.1142  0.8359 -2.4113
 1931SOL     OW17011   7.917   7.158   4.556  0.4815 -0.3201 -0.0022
 1931SOL    HW117012   7.915   7.226   4.482  1.2395  1.3238  1.4621
 1931SOL    HW217013   7.840   7.096   4.545 -2.6291  3.2127  0.8745
 1932SOL     OW17014   4.268   5.669   8.005 -0.1031  0.3743 -0.3276
 1932SOL    HW117015   4.325   5.593   7.973  0.7239  0.5806  0.6387
 1932SOL    HW217016   4.315   5.756   7.987 -1.0651  0.6799 -1.4741
 1933SOL     OW17017   7.873   1.194   2.582  0.0559 -0.1656 -0.1993
 1933SOL    HW117018   7.895   1.101   2.612 -0.3345 -0.0741  0.3613
 1933SOL    HW217019   7.832   1.190   2.491  1.5912 -0.4114 -0.9160
 1934SOL     OW17020   6.799   2.271   2.685 -0.0402 -0.2342 -0.6127
 1934SOL    HW117021   6.870   2.286   2.616 -0.1126 -0.5197 -0.7526
 1934SOL    HW217022   6.718   2.231   2.641  0.9292 -3.0803  0.0685
 1935SOL     OW17023   9.737   7.328   2.471  0.0279 -0.0344  0.0195
 1935SOL    HW117024   9.769   7.328   2.377 -0.2190 -1.0803 -0.0695
 1935SOL    HW217025   9.638   7.341   2.473 -0.3642 -2.7773 -0.0259
 1936SOL     OW17026   3.600   7.830   3.499  0.4718  0.8551 -0.3633
 1936SOL    HW117027   3.599   7.828   3.399  0.6902  1.5997 -0.3837
 1936SOL    HW217028   3.538   7.760   3.535  0.8573  0.1816 -1.0130
 1937SOL     OW17029   4.255   4.070   8.024  0.0968  0.0516 -0.1071
 1937SOL    HW117030   4.327   4.085   7.956  0.8876 -2.5300  0.1274
 1937SOL    HW217031   4.227   4.158   8.062  0.6224  1.4314 -2.7540
 1938SOL     OW17032   3.350   4.184   1.457 -0.2631  0.0053 -0.1279
 1938SOL    HW117033   3.325   4.280   1.451 -0.6090 -0.1779 -1.6270
 1938SOL    HW217034   3.422   4.173   1.526 -1.5204  1.0702  1.3787
 1939SOL     OW17035   0.011   2.153   0.951 -0.1771  0.5501  0.0254
 1939SOL    HW117036  -0.053   2.147   1.027  2.6051 -0.5345  2.3299
 1939SOL    HW217037   0.006   2.070   0.896  0.9564 -0.5881  1.6117
 1940SOL     OW17038   2.956   8.396   8.166 -0.4603  0.6691 -0.2923
 1940SOL    HW117039   2.995   8.322   8.111  0.4445  1.8499 -1.2502
 1940SOL    HW217040   2.856   8.391   8.162 -0.4273 -1.1333  0.5177
 1941SOL     OW17041   3.705   0.893   4.429  0.7945  0.0060  0.3760
 1941SOL    HW117042   3.730   0.951   4.351 -0.9397 -0.5963 -0.6618
 1941SOL    HW217043   3.752   0.805   4.421  0.7068 -0.0132  0.0634
 1942SOL     OW17044   3.319   5.058   8.168  0.6584  0.4062 -0.0334
 1942SOL    HW117045   3.395   5.030   8.226 -0.0951  3.6975  2.7149
 1942SOL    HW217046   3.233   5.038   8.214 -0.0193  1.0915 -0.9799
 1943SOL     OW17047   8.311   8.167   4.215 -0.1339  0.1876  0.4848
 1943SOL    HW117048   8.312   8.128   4.123  1.1698  0.4276  0.3881
 1943SOL    HW217049   8.380   8.122   4.271 -0.3047  0.6682  1.0847
 1944SOL     OW17050   2.495   3.300   4.921 -0.1102  0.1427  0.0889
 1944SOL    HW117051   2.439   3.379   4.946 -0.1767  0.0357  0.2854
 1944SOL    HW217052   2.574   3.330   4.868  0.6968  0.5304  1.4782
 1945SOL     OW17053   5.402   1.694   3.562  0.2178  0.0439 -0.1669
 1945SOL    HW117054   5.406   1.783   3.518 -0.3476 -0.0772 -0.4627
 1945SOL    HW217055   5.309   1.659   3.560 -0.4956  1.4420  3.9259
 1946SOL     OW17056   0.693   2.974   0.739 -0.2586 -0.2105 -0.2117
 1946SOL    HW117057   0.611   2.920   0.755 -0.2486  0.1001  0.9526
 1946SOL    HW217058   0.766   2.915   0.706 -1.4190 -0.2108 -2.8718
 1947SOL     OW17059   9.750   7.596   1.163 -0.0612 -0.5747  0.0361
 1947SOL    HW117060   9.776   7.601   1.260 -0.6893  0.7873  0.1455
 1947SOL    HW217061   9.787   7.512   1.123  0.5097 -0.9714  1.3659
 1948SOL     OW17062   7.361   3.267   3.887 -0.7456  0.6282  0.3962
 1948SOL    HW117063   7.350   3.241   3.983  0.4035 -1.4352 -0.0096
 1948SOL    HW217064   7.435   3.334   3.880 -0.4827  0.3963  0.8877
 1949SOL     OW17065   7.624   3.334   5.753 -0.2447  0.1427  0.9071
 1949SOL    HW117066   7.690   3.259   5.746  1.6362  1.6132  2.4638
 1949SOL    HW217067   7.572   3.325   5.838 -2.3139 -1.1577 -0.4325
 1950SOL     OW17068   9.863   9.257   3.869  0.1267  0.4334 -0.0475
 1950SOL    HW117069   9.807   9.249   3.786 -0.1520  3.5205 -0.1852
 1950SOL    HW217070   9.804   9.258   3.949  0.2507 -0.1427  0.0549
 1951SOL     OW17071   4.419   0.498   0.789 -0.1728  0.2756  0.0394
 1951SOL    HW117072   4.405   0.580   0.734  0.4755 -1.3161 -2.5643
 1951SOL    HW217073   4.492   0.515   0.856  1.2663  1.2645 -1.7186
 1952SOL     OW17074   4.984   0.631   0.797  0.2349 -0.8543  0.1186
 1952SOL    HW117075   5.047   0.706   0.813  0.2757 -1.0984  1.1519
 1952SOL    HW217076   4.895   0.668   0.769  0.6381 -0.4874 -0.7079
 1953SOL     OW17077   6.708   1.129   1.637 -0.3662 -0.3618 -0.2619
 1953SOL    HW117078   6.701   1.068   1.715  1.8218 -0.4525 -0.0909
 1953SOL    HW217079   6.636   1.199   1.642 -0.7062 -0.8173  1.4130
 1954SOL     OW17080   4.757   5.280   0.722  0.5426  0.1388  0.4797
 1954SOL    HW117081   4.840   5.244   0.679 -0.6654 -0.7676 -1.1583
 1954SOL    HW217082   4.677   5.233   0.684 -0.7817  1.6117  1.4047
 1955SOL     OW17083   9.044   4.849   4.439  0.8111  0.0991 -0.0318
 1955SOL    HW117084   8.985   4.840   4.358 -0.0186 -1.2931  0.7014
 1955SOL    HW217085   9.030   4.770   4.499  1.0802  1.3188  1.6901
 1956SOL     OW17086   7.779   2.381   1.630 -0.3037  0.5422  0.5732
 1956SOL    HW117087   7.745   2.475   1.623  0.8385  1.1180  2.4073
 1956SOL    HW217088   7.739   2.337   1.711  0.1905 -0.1171  0.4623
 1957SOL     OW17089   7.480   8.759   6.770  0.4846 -0.0437  0.7901
 1957SOL    HW117090   7.473   8.810   6.855 -0.9896  2.0296 -0.5267
 1957SOL    HW217091   7.557   8.695   6.776  2.5840  2.5212  2.4077
 1958SOL     OW17092   9.031   3.470   2.871 -0.0791  0.2114 -1.1821
 1958SOL    HW117093   8.970   3.418   2.811  0.5049 -0.1254 -1.4858
 1958SOL    HW217094   8.988   3.558   2.892  0.1668  0.7837 -2.9752
 1959SOL     OW17095   7.248   1.514   7.892 -0.3439 -0.4177  0.1314
 1959SOL    HW117096   7.348   1.516   7.901 -0.4033 -1.8261  1.3578
 1959SOL    HW217097   7.222   1.540   7.799  1.1480  0.1903 -0.1303
 1960SOL     OW17098   0.498   3.610   5.265 -0.5035  0.5977  0.5041
 1960SOL    HW117099   0.510   3.637   5.360  0.1762 -0.0946  0.6210
 1960SOL    HW217100   0.488   3.511   5.260 -0.5655  0.6374 -0.1490
 1961SOL     OW17101   5.917   0.196   5.239 -0.3623  0.3207  0.1477
 1961SOL    HW117102   5.958   0.284   5.266  0.1038 -0.1188  0.8993
 1961SOL    HW217103   5.885   0.148   5.321 -1.3061  0.1247 -0.3329
 1962SOL     OW17104   0.829   4.310   4.872  0.2194 -0.1830 -0.4877
 1962SOL    HW117105   0.815   4.405   4.902  0.9622 -0.4027  0.5940
 1962SOL    HW217106   0.742   4.261   4.876 -0.1587  0.4338 -0.9978
 1963SOL     OW17107   0.337   2.799   1.570 -0.6030  0.1629 -0.0901
 1963SOL    HW117108   0.383   2.887   1.585  0.8285 -0.7906  1.3788
 1963SOL    HW217109   0.405   2.731   1.541 -1.4393 -0.7897  0.1768
 1964SOL     OW17110   7.149   5.966   0.777 -0.0941  0.5714 -0.1404
 1964SOL    HW117111   7.136   6.012   0.866 -0.3589 -0.9013  0.5995
 1964SOL    HW217112   7.070   5.908   0.758  0.6442 -0.2762 -0.6414
 1965SOL     OW17113   5.639   1.812   4.671  0.3215 -0.1696 -0.5769
 1965SOL    HW117114   5.617   1.886   4.734 -1.5648 -1.9222  0.9018
 1965SOL    HW217115   5.738   1.810   4.655  0.4753  2.1422 -0.0393
 1966SOL     OW17116   4.980   2.704   4.444 -0.0515  0.8018 -0.1848
 1966SOL    HW117117   4.897   2.751   4.412  0.1855  0.9670 -0.5619
 1966SOL    HW217118   4.973   2.606   4.421  0.3213  0.9983 -1.1678
 1967SOL     OW17119   2.551   8.759   4.950  0.4306  0.2227  0.1801
 1967SOL    HW117120   2.575   8.841   5.003  0.0166 -0.2335  1.0875
 1967SOL    HW217121   2.612   8.751   4.871 -0.2784  2.0417 -0.5714
 1968SOL     OW17122   0.363   8.348   2.794 -0.7549  0.3181  0.4937
 1968SOL    HW117123   0.411   8.353   2.706 -0.1734  1.4806  0.8805
 1968SOL    HW217124   0.363   8.437   2.838 -1.8962 -0.0373  1.2402
 1969SOL     OW17125   8.928   4.142   4.283 -0.6367  0.5853  0.2944
 1969SOL    HW117126   8.934   4.062   4.342 -1.3437  0.1528 -0.1999
 1969SOL    HW217127   8.991   4.133   4.207 -1.1708  0.1900 -0.1077
 1970SOL     OW17128   7.885   4.663   2.739  0.2581  0.2552  0.1704
 1970SOL    HW117129   7.829   4.743   2.718  0.3523 -0.0150 -1.1523
 1970SOL    HW217130   7.838   4.581   2.706  0.3240 -0.2028  1.2059
 1971SOL     OW17131   3.546   5.831   1.454  0.0475 -0.2419  0.3004
 1971SOL    HW117132   3.536   5.922   1.496  0.3869 -0.7733  1.5585
 1971SOL    HW217133   3.564   5.764   1.525 -1.1435 -1.4596 -0.5249
 1972SOL     OW17134   6.534   1.887   5.568 -0.1028  0.2920 -0.2674
 1972SOL    HW117135   6.434   1.879   5.559  0.1227 -2.0918 -1.0252
 1972SOL    HW217136   6.564   1.971   5.523 -1.6844  0.6582 -0.6944
 1973SOL     OW17137   7.831   8.496   2.160  0.2855 -0.3463  0.0352
 1973SOL    HW117138   7.852   8.527   2.253  0.2533 -1.9429  0.5910
 1973SOL    HW217139   7.886   8.547   2.095  1.4206 -0.2385  1.0482
 1974SOL     OW17140   8.546   5.309   1.732 -0.3699 -0.0271  0.3157
 1974SOL    HW117141   8.449   5.295   1.751 -0.5048  0.7195  0.1848
 1974SOL    HW217142   8.600   5.246   1.788 -0.9899 -1.6815 -0.9189
 1975SOL     OW17143   9.712   9.457   2.783 -0.3585 -0.3242  0.0491
 1975SOL    HW117144   9.764   9.382   2.825 -2.6515 -2.6176 -1.0240
 1975SOL    HW217145   9.665   9.508   2.854  0.2215 -0.6835  0.7039
 1976SOL     OW17146   9.342   6.546   5.297 -0.1141  0.0594 -0.0856
 1976SOL    HW117147   9.390   6.540   5.385  0.2510  0.8521 -0.2243
 1976SOL    HW217148   9.244   6.558   5.313  0.0008  0.5860  0.2112
 1977SOL     OW17149   1.385   4.019   4.486 -0.2803 -0.4744 -0.1604
 1977SOL    HW117150   1.294   4.050   4.461 -0.3984  0.9004  1.9280
 1977SOL    HW217151   1.389   3.919   4.481 -2.0369 -0.5690  0.2739
 1978SOL     OW17152   2.564   9.393   5.800 -0.4073  0.4481 -0.4007
 1978SOL    HW117153   2.519   9.306   5.781 -1.8812  0.9893  0.4921
 1978SOL    HW217154   2.512   9.467   5.758  1.1085  0.8702 -1.5806
 1979SOL     OW17155   8.006   4.307   5.917  0.0650 -0.2634  0.1115
 1979SOL    HW117156   8.094   4.261   5.931  0.8345  0.3074 -2.5203
 1979SOL    HW217157   7.985   4.308   5.819 -2.4520  0.4065  0.6406
 1980SOL     OW17158   0.678   6.513   4.372  0.5574 -0.3246 -0.1203
 1980SOL    HW117159   0.694   6.423   4.331  1.8320 -0.2464  0.1573
 1980SOL    HW217160   0.763   6.566   4.367 -0.4460  1.1985 -1.0959
 1981SOL     OW17161   0.028   4.116   2.199  0.4307 -0.1351  0.4241
 1981SOL    HW117162  -0.001   4.022   2.215 -0.9503  0.4331  1.3237
 1981SOL    HW217163   0.128   4.119   2.190  0.5244 -1.6016  0.8711
 1982SOL     OW17164   1.945   4.209   2.871  0.2828 -0.1755 -0.3717
 1982SOL    HW117165   2.027   4.238   2.921  0.8814 -1.2954 -0.6788
 1982SOL    HW217166   1.864   4.249   2.913  0.9444  0.4882  0.2847
 1983SOL     OW17167   2.084   1.980   6.193 -0.2142  0.1449 -0.0527
 1983SOL    HW117168   2.177   1.944   6.186 -0.6069 -0.8654 -0.1399
 1983SOL    HW217169   2.087   2.080   6.192  0.8535  0.1173 -0.2330
 1984SOL     OW17170   8.497   8.385   3.606 -0.3890 -0.2382 -0.0380
 1984SOL    HW117171   8.525   8.440   3.684 -0.0124  0.7486 -0.8557
 1984SOL    HW217172   8.429   8.317   3.635 -1.2091  0.9606  0.8818
 1985SOL     OW17173   9.601   8.416   4.714 -0.2825 -0.7252  0.4207
 1985SOL    HW117174   9.567   8.466   4.794 -0.7592 -1.3357  0.5982
 1985SOL    HW217175   9.673   8.470   4.671 -0.2091 -0.2618  1.0989
 1986SOL     OW17176   1.919   1.077   1.166 -0.1188 -0.2178  0.6842
 1986SOL    HW117177   1.985   1.038   1.229  0.9224  1.6485  0.7880
 1986SOL    HW217178   1.935   1.175   1.157 -2.2542  0.1056 -0.0485
 1987SOL     OW17179   1.048   4.399   5.662 -0.2014  0.2982 -0.0670
 1987SOL    HW117180   1.055   4.490   5.703  0.1664  0.3989 -0.3481
 1987SOL    HW217181   1.108   4.335   5.711 -0.3200  0.2507  0.0156
 1988SOL     OW17182   2.428   2.027   0.920  0.8038 -0.2421  0.1350
 1988SOL    HW117183   2.442   2.019   0.822  1.0228  0.0445  0.1405
 1988SOL    HW217184   2.469   1.948   0.966 -0.0280 -0.7889 -0.0692
 1989SOL     OW17185   2.149   6.511   1.949 -0.0269  0.3136  0.1649
 1989SOL    HW117186   2.217   6.495   2.021  0.2219 -0.6731 -0.2874
 1989SOL    HW217187   2.092   6.429   1.939  0.5664  0.0927 -1.4431
 1990SOL     OW17188   2.214   5.097   3.477  0.0580  0.2120  0.2118
 1990SOL    HW117189   2.215   5.002   3.509  0.4705  0.4444  0.9018
 1990SOL    HW217190   2.304   5.137   3.489 -0.3623  0.9887  0.8072
 1991SOL     OW17191   0.244   3.819   3.599 -0.1401  0.2580  0.0954
 1991SOL    HW117192   0.202   3.756   3.533 -0.5555 -0.5183  1.0836
 1991SOL    HW217193   0.216   3.793   3.692  2.5570 -0.3115  0.7847
 1992SOL     OW17194   3.702   2.206   2.306 -0.2569  0.1242 -0.0341
 1992SOL    HW117195   3.711   2.207   2.207  0.0594  0.1828 -0.0055
 1992SOL    HW217196   3.787   2.173   2.347 -0.5765 -0.4181  0.1969
 1993SOL     OW17197   9.775   2.618   5.830  0.1013 -0.1142 -0.3342
 1993SOL    HW117198   9.839   2.550   5.866  0.0089 -0.5687 -1.0163
 1993SOL    HW217199   9.749   2.681   5.903 -0.9583 -1.6982  0.7038
 1994SOL     OW17200   9.856   5.720   2.140 -0.0332  0.0093 -0.1740
 1994SOL    HW117201   9.921   5.746   2.212 -0.3489  0.5507 -0.0816
 1994SOL    HW217202   9.889   5.638   2.093  0.5982  0.1446  0.0302
 1995SOL     OW17203   3.232   5.192   2.263 -0.2101  0.1917 -0.3575
 1995SOL    HW117204   3.236   5.109   2.319 -0.5329  1.0006  0.8913
 1995SOL    HW217205   3.147   5.241   2.282 -0.0766  0.7460 -1.1756
 1996SOL     OW17206   7.799   1.245   0.821 -0.5112  0.5750  0.0398
 1996SOL    HW117207   7.714   1.216   0.777 -0.3340  1.2794 -0.7803
 1996SOL    HW217208   7.791   1.340   0.849 -0.3993  0.3099  1.0022
 1997SOL     OW17209   9.096   0.609   3.731 -0.2294  0.3404 -0.6622
 1997SOL    HW117210   9.034   0.687   3.734 -0.9278 -0.2282 -0.2455
 1997SOL    HW217211   9.184   0.634   3.772 -1.3340  0.1292  1.8802
 1998SOL     OW17212   9.139   9.575   6.590 -0.5775  0.0242  0.1703
 1998SOL    HW117213   9.174   9.487   6.622  0.1632  0.4980  0.6491
 1998SOL    HW217214   9.086   9.619   6.663 -2.0570 -0.6030 -0.4870
 1999SOL     OW17215   8.247   4.520   5.100 -0.0512  0.6740  0.3711
 1999SOL    HW117216   8.345   4.513   5.081 -0.1571 -1.3031  0.4362
 1999SOL    HW217217   8.223   4.615   5.117  1.1750  1.6897 -3.2189
 2000SOL     OW17218   7.245   4.999   2.640  0.4580 -0.7058  0.3418
 2000SOL    HW117219   7.302   5.026   2.562 -0.5192 -1.3128 -0.6037
 2000SOL    HW217220   7.248   4.900   2.650 -2.1800 -0.9865 -1.1347
 2001SOL     OW17221   0.890   1.213   4.136  0.0563  0.5142  0.1446
 2001SOL    HW117222   0.925   1.131   4.182  0.8007  0.0286 -1.2449
 2001SOL    HW217223   0.798   1.195   4.101  0.5864 -0.0809 -0.9956
 2002SOL     OW17224   3.339   2.371   2.234 -0.3047  0.3958 -0.2819
 2002SOL    HW117225   3.419   2.363   2.175 -1.7673  2.7588 -2.6863
 2002SOL    HW217226   3.256   2.373   2.178 -1.8823  0.4957  1.9923
 2003SOL     OW17227   2.714   2.301   4.047 -0.9281  0.0142  0.5557
 2003SOL    HW117228   2.784   2.361   4.085 -0.5045 -0.4737  0.5533
 2003SOL    HW217229   2.660   2.261   4.121 -0.8052 -0.0890  0.5898
 2004SOL     OW17230   1.260   2.007   2.253 -0.0830  0.3289 -0.1497
 2004SOL    HW117231   1.208   1.943   2.195 -0.6445 -0.4219  1.1698
 2004SOL    HW217232   1.197   2.074   2.293 -0.1178 -0.9340  1.9173
 2005SOL     OW17233   8.742   2.274   5.679  0.5979 -0.0380 -0.3381
 2005SOL    HW117234   8.688   2.193   5.657 -0.0161 -0.1476  1.4731
 2005SOL    HW217235   8.837   2.247   5.696  0.5721 -0.2633 -0.5543
 2006SOL     OW17236   4.125   4.268   0.895  0.3193 -0.3276  0.2537
 2006SOL    HW117237   4.064   4.236   0.967 -0.4218 -1.6027 -0.8974
 2006SOL    HW217238   4.072   4.285   0.812  1.2496  0.4929 -0.1827
 2007SOL     OW17239   2.798   9.669   2.005 -1.0844 -0.1203 -0.5836
 2007SOL    HW117240   2.734   9.596   2.032  0.7886 -1.5964 -0.0055
 2007SOL    HW217241   2.806   9.735   2.080 -0.7297 -0.8021 -0.0110
 2008SOL     OW17242   4.973   8.941   5.102  0.4346  0.0454  0.0953
 2008SOL    HW117243   5.004   8.996   5.024 -0.3319 -0.1004 -0.3094
 2008SOL    HW217244   5.044   8.875   5.126  1.5341  1.4710  0.8382
 2009SOL     OW17245   0.188   8.839   4.825 -0.5060 -0.0640 -0.2807
 2009SOL    HW117246   0.230   8.856   4.914 -1.3160 -0.1548  0.1181
 2009SOL    HW217247   0.187   8.924   4.772 -0.4568  0.0966 -0.0218
 2010SOL     OW17248   1.315   2.186   4.097 -0.1619 -0.0388 -0.3525
 2010SOL    HW117249   1.289   2.239   4.016  0.2473  0.4599 -0.1563
 2010SOL    HW217250   1.296   2.239   4.180 -1.8500 -1.0548 -0.0377
 2011SOL     OW17251   6.830   0.486   4.007  0.2964  0.5904 -0.4715
 2011SOL    HW117252   6.854   0.582   3.991 -0.3039  0.6941 -0.7707
 2011SOL    HW217253   6.907   0.428   3.980  0.9321  1.0242  0.3901
 2012SOL     OW17254   1.646   4.630   0.788  0.2037 -1.0423  0.7799
 2012SOL    HW117255   1.625   4.728   0.784  1.7079 -0.7748 -0.7288
 2012SOL    HW217256   1.564   4.580   0.817 -1.4606  0.3468 -1.4209
 2013SOL     OW17257   2.553   1.885   5.893 -0.1153  0.4186 -0.2311
 2013SOL    HW117258   2.526   1.898   5.797 -1.0559 -0.6801 -0.1194
 2013SOL    HW217259   2.622   1.814   5.899 -1.0020 -0.4257  0.0405
 2014SOL     OW17260   3.918   5.137   1.949 -0.5474  0.7887 -0.0108
 2014SOL    HW117261   3.869   5.087   1.878  0.4362  0.9856 -0.8397
 2014SOL    HW217262   3.956   5.221   1.911 -0.4776  1.1711  0.8843
 2015SOL     OW17263   3.005   7.294   4.805 -0.0949  0.1643  0.1758
 2015SOL    HW117264   3.034   7.347   4.726  2.6769 -3.1283 -1.1794
 2015SOL    HW217265   2.906   7.278   4.801 -0.0886  0.6176 -2.2652
 2016SOL     OW17266   0.965   2.186   1.998 -0.0662  0.0009 -0.0240
 2016SOL    HW117267   1.042   2.124   1.980 -1.2699 -1.6479  0.4074
 2016SOL    HW217268   0.960   2.254   1.925  0.2273 -1.4836 -1.4574
 2017SOL     OW17269   4.071   2.935   8.044 -0.3273  0.1576  0.2433
 2017SOL    HW117270   4.046   3.006   8.110 -0.3164 -0.3365  0.7764
 2017SOL    HW217271   4.136   2.974   7.978  0.0499  0.5131  0.8169
 2018SOL     OW17272   2.733   7.553   2.195  0.0454  0.0420 -0.5072
 2018SOL    HW117273   2.763   7.475   2.142 -1.2282 -0.0745 -1.0760
 2018SOL    HW217274   2.793   7.565   2.274  2.5740  0.8274 -2.4923
 2019SOL     OW17275   7.678   6.138   6.206 -0.0388 -0.3896  0.2991
 2019SOL    HW117276   7.617   6.067   6.241  0.3053  0.3099  2.4030
 2019SOL    HW217277   7.745   6.097   6.144 -0.4356 -1.7416  0.7533
 2020SOL     OW17278   8.306   3.025   4.558 -0.1951 -0.0468  0.7623
 2020SOL    HW117279   8.341   3.061   4.645  0.2620  0.3300  0.4265
 2020SOL    HW217280   8.313   2.925   4.558  0.5647  0.0010  0.8395
 2021SOL     OW17281   8.724   2.507   4.770  0.3649  0.1124 -0.2737
 2021SOL    HW117282   8.819   2.495   4.801 -0.2289 -1.2676  1.1108
 2021SOL    HW217283   8.711   2.600   4.737  1.3513  1.3649  2.6819
 2022SOL     OW17284   2.419   2.946   5.750  0.1499  0.0027  0.4168
 2022SOL    HW117285   2.504   2.896   5.733  0.4435  1.0220 -1.1356
 2022SOL    HW217286   2.441   3.037   5.786 -0.2022  1.0310 -1.9226
 2023SOL     OW17287   7.842   3.017   2.316  0.7454 -0.3092 -0.3192
 2023SOL    HW117288   7.913   2.977   2.375  0.3215 -1.2371 -0.4284
 2023SOL    HW217289   7.823   3.111   2.345  1.5634 -0.2730  0.1144
 2024SOL     OW17290   9.584   4.619   2.338 -0.0677  0.1988 -0.7128
 2024SOL    HW117291   9.539   4.546   2.390 -1.7159  1.4514 -0.3408
 2024SOL    HW217292   9.570   4.707   2.383  2.0796  0.7461 -1.0490
 2025SOL     OW17293   2.740   6.376   3.427 -0.2655  0.2301 -0.0849
 2025SOL    HW117294   2.717   6.440   3.354  1.8203 -0.2493 -1.1983
 2025SOL    HW217295   2.829   6.401   3.467 -0.0917 -1.1215  0.4125
 2026SOL     OW17296   3.610   4.460   1.717  0.4103 -0.0673  0.2414
 2026SOL    HW117297   3.624   4.501   1.627 -0.1673 -0.1017  0.1355
 2026SOL    HW217298   3.532   4.503   1.761  0.7303 -0.0110  0.7544
 2027SOL     OW17299   1.657   0.993   1.097 -0.5212  0.3948  0.0710
 2027SOL    HW117300   1.636   0.946   1.011 -0.1124  1.3820 -0.5717
 2027SOL    HW217301   1.756   1.006   1.104 -0.5043 -0.1864  0.9596
 2028SOL     OW17302   9.429   2.401   6.398  0.1125  0.1166 -0.5859
 2028SOL    HW117303   9.434   2.360   6.307  0.9883 -0.2705 -0.3762
 2028SOL    HW217304   9.385   2.490   6.393 -1.6912 -0.7778 -1.0830
 2029SOL     OW17305   2.009   2.561   2.652 -0.0080  0.3409 -0.2381
 2029SOL    HW117306   2.028   2.638   2.591 -0.1598  0.5730  0.0085
 2029SOL    HW217307   2.082   2.493   2.643 -1.0162 -0.5372 -2.1410
 2030SOL     OW17308   8.093   1.272   5.660 -0.5878  0.3415 -0.2325
 2030SOL    HW117309   8.089   1.172   5.657 -2.5804  0.4166 -0.5399
 2030SOL    HW217310   8.086   1.309   5.567 -0.2434  0.7773 -0.0866
 2031SOL     OW17311   8.403   7.546   4.067  0.4123 -0.0986  0.2044
 2031SOL    HW117312   8.432   7.529   3.973  0.3102 -1.8205  0.4711
 2031SOL    HW217313   8.482   7.578   4.120  0.8085 -0.4928 -0.1357
 2032SOL     OW17314   0.130   2.816   5.791 -0.1118 -0.5230 -0.0830
 2032SOL    HW117315   0.130   2.773   5.881 -1.0875 -1.2594 -0.4337
 2032SOL    HW217316   0.077   2.760   5.727  0.3679  0.1224 -1.0532
 2033SOL     OW17317   1.570   2.229   0.155  0.0416 -0.3237  0.5429
 2033SOL    HW117318   1.482   2.249   0.110 -1.0760 -2.2151  1.8099
 2033SOL    HW217319   1.608   2.314   0.191 -0.0500  0.9178 -2.1180
 2034SOL     OW17320   8.058   2.241   2.660  0.1639  0.4251  0.1717
 2034SOL    HW117321   8.025   2.335   2.672 -0.0560  0.2832  0.6840
 2034SOL    HW217322   8.068   2.222   2.562 -1.2916  0.4735 -0.0097
 2035SOL     OW17323   1.486   5.679   0.258 -0.1290  0.3937  0.1702
 2035SOL    HW117324   1.478   5.725   0.347 -0.9917 -0.9007  0.7768
 2035SOL    HW217325   1.545   5.733   0.198  2.9233 -0.2021  2.5029
 2036SOL     OW17326   5.196   4.959   1.255  0.3932 -0.0925  0.2962
 2036SOL    HW117327   5.134   5.036   1.245  1.2223  0.7187  1.3487
 2036SOL    HW217328   5.264   4.978   1.326 -0.3015 -2.4017  1.6437
 2037SOL     OW17329   7.926   4.227   4.392 -0.8730  0.2710  0.5971
 2037SOL    HW117330   7.865   4.291   4.346  0.5103  3.6957  3.2911
 2037SOL    HW217331   7.885   4.199   4.479  0.2897  0.6394  1.2675
 2038SOL     OW17332   4.541   9.972   1.609 -0.1010 -0.6392  0.3384
 2038SOL    HW117333   4.534  10.068   1.584  0.5895 -0.3795  1.1422
 2038SOL    HW217334   4.455   9.941   1.649  0.0723 -0.0412  1.1804
 2039SOL     OW17335   9.989   6.237   3.075 -0.6352 -0.5283 -0.3547
 2039SOL    HW117336  10.065   6.299   3.093 -0.5219 -0.6354 -0.4623
 2039SOL    HW217337  10.024   6.154   3.031 -0.9053 -0.2727 -1.0584
 2040SOL     OW17338   3.198   6.588   5.246  0.3142 -0.1825 -0.1961
 2040SOL    HW117339   3.191   6.676   5.199 -1.4925 -0.3563 -0.2828
 2040SOL    HW217340   3.153   6.594   5.335 -1.7489 -1.5994 -1.0891
 2041SOL     OW17341   1.492   2.388   1.535 -0.2233 -0.3047 -0.1064
 2041SOL    HW117342   1.436   2.362   1.456  0.7787  2.1573 -1.6747
 2041SOL    HW217343   1.446   2.461   1.585 -0.6880 -1.6198  1.4573
 2042SOL     OW17344   3.190   8.695   1.535 -0.0559  0.3546 -0.3953
 2042SOL    HW117345   3.281   8.656   1.548  1.0754  2.2642 -2.2940
 2042SOL    HW217346   3.122   8.622   1.540  1.7432 -1.4319 -1.1038
 2043SOL     OW17347   2.581   0.785   4.246  0.2895  0.1235  0.0736
 2043SOL    HW117348   2.485   0.757   4.241  0.1665  0.0463  2.2951
 2043SOL    HW217349   2.593   0.870   4.196 -0.8871  0.0071 -0.4364
 2044SOL     OW17350   4.820   2.063   2.496 -0.4560 -0.4235  0.3775
 2044SOL    HW117351   4.748   2.020   2.550  0.5215 -2.4191  0.1419
 2044SOL    HW217352   4.864   1.994   2.438  0.9309  0.9666 -0.2581
 2045SOL     OW17353   7.217   6.039   5.733 -0.1896 -0.0912 -0.3505
 2045SOL    HW117354   7.175   5.968   5.790  1.1219  0.1892  0.9999
 2045SOL    HW217355   7.201   6.128   5.775  0.6416  0.1311 -0.4992
 2046SOL     OW17356   9.054   9.807   1.434 -0.2835 -0.2446  0.2836
 2046SOL    HW117357   9.043   9.866   1.514 -0.6012 -0.1505  0.1720
 2046SOL    HW217358   8.969   9.758   1.417 -0.0121 -0.7478  0.3844
 2047SOL     OW17359   8.757   3.860   4.171  0.1104  0.1362 -0.2395
 2047SOL    HW117360   8.671   3.860   4.222  0.2472 -2.5877  0.0165
 2047SOL    HW217361   8.833   3.847   4.234  0.4754 -0.6194 -0.8386
 2048SOL     OW17362   8.701   8.799   3.043 -0.5099 -0.1955 -0.0416
 2048SOL    HW117363   8.698   8.754   3.132 -0.0081 -1.6265 -0.7445
 2048SOL    HW217364   8.722   8.896   3.056  2.0841 -0.8912  1.2415
 2049SOL     OW17365   7.557   0.851   6.636 -0.0840  0.4948 -0.2480
 2049SOL    HW117366   7.611   0.920   6.683 -1.9115  1.1579  0.9356
 2049SOL    HW217367   7.583   0.760   6.669 -1.4650  0.9549  2.2416
 2050SOL     OW17368   6.615   5.231   7.707  0.5489 -0.0435  0.6758
 2050SOL    HW117369   6.711   5.204   7.720  0.3654 -0.9399  0.2324
 2050SOL    HW217370   6.579   5.185   7.625  0.3597  1.9077 -0.3535
 2051SOL     OW17371   5.072   0.876   4.194  0.1242  0.4575  0.1334
 2051SOL    HW117372   5.144   0.886   4.264  0.3691 -0.4876  0.0217
 2051SOL    HW217373   5.114   0.855   4.106 -0.2660  0.3809 -0.0329
 2052SOL     OW17374   0.734   8.151   3.797 -0.1481  0.1495  0.1501
 2052SOL    HW117375   0.707   8.219   3.729 -0.3058 -0.7425 -0.6922
 2052SOL    HW217376   0.815   8.102   3.764 -1.2186 -1.4361 -0.1813
 2053SOL     OW17377   2.216   8.038   1.820  0.2761 -0.3683 -0.0713
 2053SOL    HW117378   2.184   8.058   1.912  0.8648  0.2657  0.0039
 2053SOL    HW217379   2.236   7.940   1.811 -0.9041 -0.6234  0.1149
 2054SOL     OW17380   0.467   2.717   3.434  0.0058 -0.1858 -0.1692
 2054SOL    HW117381   0.412   2.795   3.405  0.1100 -0.5168 -1.2850
 2054SOL    HW217382   0.406   2.645   3.468 -0.1388  0.0639  0.1099
 2055SOL     OW17383   8.299   2.813   0.412 -0.3481  0.8695  0.3113
 2055SOL    HW117384   8.296   2.714   0.422 -0.8903  0.5063 -2.9586
 2055SOL    HW217385   8.387   2.840   0.373 -1.1278  1.4190 -1.0968
 2056SOL     OW17386   9.998   0.147   4.850 -0.0310 -0.5123  0.1597
 2056SOL    HW117387   9.944   0.123   4.930 -2.3688  0.4615 -1.0777
 2056SOL    HW217388  10.095   0.144   4.873 -0.7006  2.0177  3.6690
 2057SOL     OW17389   6.202   5.845   1.596  0.1999 -0.6302  0.5307
 2057SOL    HW117390   6.200   5.812   1.502  1.5031 -0.1954  0.3406
 2057SOL    HW217391   6.289   5.818   1.639 -1.0864 -2.3077  2.1497
 2058SOL     OW17392   4.075   1.330   5.840  0.3790  0.0521 -0.5038
 2058SOL    HW117393   4.099   1.416   5.886  2.7163 -0.4008 -0.8037
 2058SOL    HW217394   4.056   1.259   5.908 -3.1326  1.1624 -0.2314
 2059SOL     OW17395   7.625   6.374   1.011  0.3020 -0.4409 -0.0854
 2059SOL    HW117396   7.660   6.365   0.918  0.8037  1.2199 -0.0860
 2059SOL    HW217397   7.538   6.325   1.020 -0.0849 -0.0536 -1.6119
 2060SOL     OW17398   2.272   8.340   0.905  0.1847 -0.6357  0.7655
 2060SOL    HW117399   2.295   8.425   0.857  0.2453 -0.9342  0.2681
 2060SOL    HW217400   2.340   8.322   0.976 -0.0579 -0.0506  1.1516
 2061SOL     OW17401   9.123   9.861   5.253 -0.4136  0.3301 -0.1918
 2061SOL    HW117402   9.066   9.927   5.301 -0.7059  0.6928 -1.0272
 2061SOL    HW217403   9.065   9.803   5.196  0.1607  1.4465 -1.9293
 2062SOL     OW17404   0.762   4.341   4.176 -0.2385  0.0597 -0.4360
 2062SOL    HW117405   0.784   4.435   4.203 -1.5652  0.7862 -1.7609
 2062SOL    HW217406   0.663   4.328   4.179 -0.1272 -1.0092 -1.1457
 2063SOL     OW17407   1.394   5.907   2.166  0.1936  0.2657  0.1526
 2063SOL    HW117408   1.458   5.865   2.231  1.2962  2.5848  0.6217
 2063SOL    HW217409   1.327   5.839   2.137  0.1678 -1.0551  3.0872
 2064SOL     OW17410   2.910   0.941   3.967  0.0686 -0.4709  0.3649
 2064SOL    HW117411   2.892   1.039   3.971  0.2265 -0.3464 -1.4363
 2064SOL    HW217412   2.994   0.921   4.018  0.4410  0.4464  0.1285
 2065SOL     OW17413   2.264   1.861   3.556 -0.1368 -0.1703  0.0230
 2065SOL    HW117414   2.285   1.776   3.606  1.0247 -0.2680 -0.6194
 2065SOL    HW217415   2.349   1.903   3.525 -0.7168  1.2104  0.2898
 2066SOL     OW17416   8.900   8.101   1.988  0.4852 -0.2835  0.0672
 2066SOL    HW117417   8.967   8.066   2.053 -1.3969 -0.5938  1.9079
 2066SOL    HW217418   8.848   8.024   1.949 -1.7663  0.2285  2.0011
 2067SOL     OW17419   2.281   2.123   1.828 -0.0094  0.1024 -0.4983
 2067SOL    HW117420   2.268   2.145   1.925 -1.1861  0.5166 -0.7502
 2067SOL    HW217421   2.274   2.024   1.816  1.0412 -0.0391 -0.0265
 2068SOL     OW17422   8.102   8.397   2.388 -0.1436  0.0405  0.0653
 2068SOL    HW117423   8.116   8.484   2.341  0.7431 -0.2641 -0.2321
 2068SOL    HW217424   8.013   8.359   2.360  0.7229 -0.5427 -2.0466
 2069SOL     OW17425   2.442   6.992   2.679  0.0342 -0.2288  0.0339
 2069SOL    HW117426   2.344   6.982   2.695  0.1664 -2.2056 -0.2839
 2069SOL    HW217427   2.457   7.041   2.594 -0.6582  1.1336  0.6720
 2070SOL     OW17428   9.610   7.748   1.701 -0.2347 -0.0851  0.0737
 2070SOL    HW117429   9.614   7.771   1.604  1.0833 -1.3517 -0.2106
 2070SOL    HW217430   9.703   7.733   1.735 -0.7952 -1.6172  1.0210
 2071SOL     OW17431   3.122   7.550   5.346 -0.2408 -0.6281  0.1698
 2071SOL    HW117432   3.219   7.556   5.370 -0.2146 -0.2270 -0.0335
 2071SOL    HW217433   3.113   7.552   5.246 -0.4530 -0.7569  0.1875
 2072SOL     OW17434   1.951   7.615   0.026  0.1217  0.0922 -0.2677
 2072SOL    HW117435   1.981   7.593  -0.067 -0.3979 -0.2583 -0.3567
 2072SOL    HW217436   2.030   7.635   0.083  0.5144 -0.6831 -0.5359
 2073SOL     OW17437   7.561   1.443   3.026  0.0071  0.3780  0.2692
 2073SOL    HW117438   7.491   1.375   3.045  0.0637  0.2297 -0.0611
 2073SOL    HW217439   7.629   1.406   2.963  1.0326  0.1014  1.5035
 2074SOL     OW17440   1.767   1.562   5.277  0.6159  0.1737  0.1754
 2074SOL    HW117441   1.731   1.476   5.239  1.3755 -0.9017  1.8268
 2074SOL    HW217442   1.702   1.599   5.343 -0.0793  1.3239 -1.1224
 2075SOL     OW17443   8.488   1.534   4.215 -0.4314  0.5040 -0.5890
 2075SOL    HW117444   8.574   1.495   4.250 -0.5781  0.4830 -0.2530
 2075SOL    HW217445   8.446   1.592   4.285 -0.3244  1.0987 -1.0141
 2076SOL     OW17446   8.638   7.922   3.072 -0.0658  0.4064 -0.0558
 2076SOL    HW117447   8.637   7.831   3.113  0.0590  0.0762 -0.7886
 2076SOL    HW217448   8.717   7.931   3.012 -0.4000  0.8064 -0.4360
 2077SOL     OW17449   1.784   0.833   0.512 -0.1880 -0.0424 -0.6768
 2077SOL    HW117450   1.867   0.883   0.538 -0.9478  1.2221 -0.6574
 2077SOL    HW217451   1.785   0.815   0.414  0.3546 -0.4978 -0.5914
 2078SOL     OW17452   0.909   2.717   3.363  0.1924  0.8033  0.0511
 2078SOL    HW117453   0.818   2.752   3.387  0.3456  1.0297  0.3149
 2078SOL    HW217454   0.955   2.684   3.446 -0.4044 -1.1202 -0.3645
 2079SOL     OW17455   7.904   7.744   5.888  0.4045 -0.3160  0.1817
 2079SOL    HW117456   7.890   7.704   5.979 -0.3637 -1.6416 -0.5087
 2079SOL    HW217457   7.931   7.673   5.824  2.6122  0.8975 -0.2918
 2080SOL     OW17458   7.988   1.782   2.010  0.4363 -0.7221  0.1511
 2080SOL    HW117459   8.059   1.768   1.941  0.5867 -0.0582  0.1679
 2080SOL    HW217460   7.952   1.875   2.003  1.6106 -0.0790  2.0376
 2081SOL     OW17461   8.436   8.897   2.323  0.6738 -0.0934 -0.0563
 2081SOL    HW117462   8.379   8.978   2.324 -0.0995 -0.6436  0.9936
 2081SOL    HW217463   8.531   8.923   2.301  0.9246  1.4144  2.6668
 2082SOL     OW17464   8.210   1.513   5.833 -0.5053  0.0807  0.3345
 2082SOL    HW117465   8.274   1.436   5.836  0.8071  1.1936  2.6550
 2082SOL    HW217466   8.118   1.479   5.812  0.7271 -1.5993 -2.6014
 2083SOL     OW17467   9.826   2.634   2.657  0.1760 -0.3714 -0.1012
 2083SOL    HW117468   9.880   2.603   2.578 -0.2697 -0.4468 -0.3766
 2083SOL    HW217469   9.735   2.593   2.653 -0.2425  0.5749 -0.1823
 2084SOL     OW17470   4.084   7.660   5.671 -0.5115 -0.7907 -0.1159
 2084SOL    HW117471   4.081   7.639   5.573 -0.9871  1.3178 -0.5799
 2084SOL    HW217472   4.153   7.604   5.716  0.5639 -0.9006 -1.8860
 2085SOL     OW17473   2.460   2.847   4.815 -0.0847 -0.1769 -0.4537
 2085SOL    HW117474   2.450   2.916   4.888  1.1939 -1.3984  0.9064
 2085SOL    HW217475   2.496   2.891   4.733  0.6094  0.8014  0.3621
 2086SOL     OW17476   7.764   8.693   5.485 -0.1197 -1.0045 -0.3130
 2086SOL    HW117477   7.708   8.610   5.489 -2.7400  0.6862 -0.3595
 2086SOL    HW217478   7.731   8.751   5.410  1.2124  0.3809  0.1547
 2087SOL     OW17479   0.065   1.765   3.615  0.2847  0.1445  0.0984
 2087SOL    HW117480   0.162   1.752   3.593 -0.2936 -1.8338 -1.5294
 2087SOL    HW217481   0.030   1.845   3.566  1.0760  0.8165  0.6260
 2088SOL     OW17482   9.238   3.156   2.735  0.2327 -0.9238 -0.3872
 2088SOL    HW117483   9.317   3.181   2.790  0.7918 -1.3442 -0.9836
 2088SOL    HW217484   9.266   3.144   2.640 -0.7631  0.0464 -0.8225
 2089SOL     OW17485   3.822   0.744   2.730 -0.5359 -0.0734 -0.0502
 2089SOL    HW117486   3.832   0.679   2.655 -0.0123 -1.0660  0.8549
 2089SOL    HW217487   3.902   0.739   2.790 -0.4774  1.4431  0.0077
 2090SOL     OW17488   3.186   5.150   3.595  0.6087  0.0008  0.0704
 2090SOL    HW117489   3.178   5.121   3.499 -0.4037  1.2364 -0.2369
 2090SOL    HW217490   3.281   5.142   3.624  0.8476 -0.8052 -0.9092
 2091SOL     OW17491   2.023   6.795   2.034  0.0237 -0.3518  0.2943
 2091SOL    HW117492   1.972   6.741   1.967  0.2949 -1.5107  1.0191
 2091SOL    HW217493   2.031   6.889   2.000 -1.7614 -0.3730 -0.2645
 2092SOL     OW17494   1.259   4.527   1.959  0.4947 -0.3936  0.0622
 2092SOL    HW117495   1.250   4.624   1.980 -0.7932 -0.5615  0.2861
 2092SOL    HW217496   1.279   4.476   2.043 -0.1909 -0.4907  0.1704
 2093SOL     OW17497   5.664   8.413   5.526 -1.1273 -0.4867 -0.0321
 2093SOL    HW117498   5.714   8.341   5.574 -0.5964  0.4724  0.8854
 2093SOL    HW217499   5.716   8.499   5.533 -1.8869  0.0387 -0.8698
 2094SOL     OW17500   6.409   3.050   4.848 -0.0461  0.0813  0.1017
 2094SOL    HW117501   6.392   3.035   4.751 -1.5397 -0.1039  0.3727
 2094SOL    HW217502   6.504   3.078   4.862  0.7587 -1.9421 -1.1801
 2095SOL     OW17503   1.966   4.724   2.163 -0.2491 -0.0075  0.2069
 2095SOL    HW117504   2.036   4.780   2.118  1.0484  1.1278  3.4806
 2095SOL    HW217505   1.996   4.629   2.167  0.1397  0.0941 -0.3317
 2096SOL     OW17506   0.913   3.298   0.679 -0.3798  0.5271  0.3087
 2096SOL    HW117507   0.903   3.279   0.776  3.9709 -0.4667  0.6636
 2096SOL    HW217508   0.841   3.251   0.628 -1.0834 -1.1787  2.8142
 2097SOL     OW17509   1.364   0.075   0.173  0.7203  0.4061  0.0918
 2097SOL    HW117510   1.412  -0.003   0.133  0.1901 -0.6891  1.5398
 2097SOL    HW217511   1.265   0.061   0.162  0.6145  0.6310  0.7991
 2098SOL     OW17512   4.110   7.959   2.798 -0.0489 -0.6193  0.0999
 2098SOL    HW117513   4.183   7.952   2.729 -2.2098  1.6075 -2.5592
 2098SOL    HW217514   4.108   8.053   2.833 -1.1411 -0.8609  0.6855
 2099SOL     OW17515   0.353   6.426   0.279 -1.1437  0.8325 -0.4923
 2099SOL    HW117516   0.400   6.338   0.281 -1.4925  0.6221 -1.3413
 2099SOL    HW217517   0.306   6.437   0.191 -0.4692  2.1949 -0.6970
 2100SOL     OW17518   5.466   8.624   5.511 -0.1072 -0.1299 -0.5822
 2100SOL    HW117519   5.539   8.569   5.470 -1.2925 -3.0164  0.9707
 2100SOL    HW217520   5.501   8.669   5.593  0.6820  0.8337 -1.4385
 2101SOL     OW17521   9.329   6.926   3.138  0.2167 -0.1644 -0.0551
 2101SOL    HW117522   9.389   6.854   3.104  1.8391  1.5853 -0.9719
 2101SOL    HW217523   9.277   6.965   3.062 -1.1106 -0.7462  0.5329
 2102SOL     OW17524   9.499   0.196   3.829  0.4599 -0.3642  0.2275
 2102SOL    HW117525   9.407   0.236   3.820  0.3599 -0.0255  2.4012
 2102SOL    HW217526   9.523   0.148   3.745 -2.7138 -2.5371  0.4866
 2103SOL     OW17527   3.847   2.538   8.106  0.3020 -0.3102  0.3993
 2103SOL    HW117528   3.844   2.635   8.082  0.7942 -0.1385  1.0445
 2103SOL    HW217529   3.939   2.503   8.093 -0.1515 -1.0111 -1.0725
 2104SOL     OW17530   9.616   1.109   2.996 -0.3749  0.5966 -0.2958
 2104SOL    HW117531   9.565   1.133   3.079  0.3173  0.3820  0.1985
 2104SOL    HW217532   9.611   1.185   2.931  0.5554  1.4838  0.6614
 2105SOL     OW17533   1.482   8.737   5.106  0.4698  0.4989 -0.2014
 2105SOL    HW117534   1.535   8.659   5.072  1.3016  1.2043 -0.5729
 2105SOL    HW217535   1.543   8.801   5.153 -0.3380  0.5407  0.8015
 2106SOL     OW17536   5.109   4.329   0.113  0.1254  0.1356 -0.4837
 2106SOL    HW117537   5.190   4.382   0.086 -1.5593  2.3008 -1.4541
 2106SOL    HW217538   5.075   4.364   0.200  0.4101 -0.9848  0.0803
 2107SOL     OW17539   7.907   8.096   6.334  0.4082 -0.1380 -0.4076
 2107SOL    HW117540   7.884   8.149   6.416  0.1053  0.7878 -1.0735
 2107SOL    HW217541   8.003   8.067   6.340  0.2273 -0.5708  0.5324
 2108SOL     OW17542   8.654   9.929   4.537 -0.4673  0.6844 -0.0397
 2108SOL    HW117543   8.721   9.951   4.608 -0.8263  0.4680  0.3676
 2108SOL    HW217544   8.634   9.831   4.540 -1.4452  0.8833  0.4097
 2109SOL     OW17545   9.716   6.859   3.066  0.4207 -0.3907 -0.0981
 2109SOL    HW117546   9.688   6.896   3.154 -0.5675 -0.3382 -0.4281
 2109SOL    HW217547   9.679   6.916   2.993 -0.1595 -1.3847 -0.5798
 2110SOL     OW17548   2.762   0.124   6.471  0.0993  0.3473  0.5916
 2110SOL    HW117549   2.738   0.027   6.460 -0.6535  0.5298  0.5924
 2110SOL    HW217550   2.782   0.164   6.381 -0.8814  0.5194  0.4477
 2111SOL     OW17551   7.420   2.077   7.807 -0.2555 -0.8161  0.8076
 2111SOL    HW117552   7.445   2.075   7.710 -0.1509 -0.4105  0.8255
 2111SOL    HW217553   7.501   2.098   7.861 -0.5535  0.1414  0.8946
 2112SOL     OW17554   3.758   0.217   4.819 -0.1706  0.2320 -0.9611
 2112SOL    HW117555   3.768   0.305   4.863 -0.2254 -0.3539  0.2357
 2112SOL    HW217556   3.758   0.229   4.719  1.1229  1.4268 -0.8203
 2113SOL     OW17557   1.457   6.292   4.487  0.2112 -0.1832 -0.4515
 2113SOL    HW117558   1.484   6.244   4.404 -0.1878 -1.1295 -0.0424
 2113SOL    HW217559   1.397   6.368   4.463  0.3843 -0.2346 -1.0609
 2114SOL     OW17560   6.941   9.136   4.597  0.7076 -0.4854 -0.3865
 2114SOL    HW117561   6.842   9.148   4.605  0.8451  0.0923  0.5043
 2114SOL    HW217562   6.974   9.077   4.672  0.9413 -1.2557 -1.0849
 2115SOL     OW17563   3.614   4.722   2.281  0.1272  0.1566  0.1115
 2115SOL    HW117564   3.557   4.733   2.200  0.1241  0.9911  0.2218
 2115SOL    HW217565   3.683   4.652   2.265 -0.3336 -0.1918 -0.3536
 2116SOL     OW17566   7.974   0.079   3.600 -0.1043 -0.3117  0.7148
 2116SOL    HW117567   7.880   0.104   3.621  0.1239 -0.1420  1.5641
 2116SOL    HW217568   7.976   0.018   3.521 -0.6887  2.0410 -1.1625
 2117SOL     OW17569   7.971   6.400   1.274  0.1365  0.2779  0.0037
 2117SOL    HW117570   8.058   6.352   1.264 -0.7870 -1.1147 -1.5501
 2117SOL    HW217571   7.986   6.499   1.271  1.9989  0.1421  2.6557
 2118SOL     OW17572   8.827   9.113   5.059 -0.6182 -0.0374  0.1200
 2118SOL    HW117573   8.906   9.174   5.052 -0.7281  0.1550  0.5954
 2118SOL    HW217574   8.749   9.154   5.012 -0.6563  0.1282  0.3289
 2119SOL     OW17575   0.497   6.127   2.688  0.0404 -0.4408  0.1909
 2119SOL    HW117576   0.462   6.219   2.707 -1.0166 -0.4567 -1.5227
 2119SOL    HW217577   0.483   6.069   2.768 -2.8222 -0.1248 -0.0223
 2120SOL     OW17578   9.624   6.238   3.304  0.9305 -0.6278  0.3957
 2120SOL    HW117579   9.582   6.154   3.269  1.5725 -1.3652  1.3656
 2120SOL    HW217580   9.631   6.304   3.230 -0.4096 -1.0918 -0.1769
 2121SOL     OW17581   7.942   7.016   4.893  0.4525  0.0397  0.0143
 2121SOL    HW117582   7.953   7.112   4.866  2.9907 -0.7172 -1.8873
 2121SOL    HW217583   7.896   6.966   4.820  0.1542 -0.4100  0.5108
 2122SOL     OW17584   1.968   8.904   2.286 -0.0014 -0.2429 -0.6027
 2122SOL    HW117585   1.955   8.860   2.375 -0.9472 -1.4831 -1.3291
 2122SOL    HW217586   1.920   8.991   2.284 -1.2940 -0.9358 -0.4073
 2123SOL     OW17587   6.779   2.929   0.095  0.0997 -0.0913  0.0419
 2123SOL    HW117588   6.729   2.851   0.132 -0.6735  0.4254  0.1061
 2123SOL    HW217589   6.851   2.897   0.034 -0.4709 -0.8396 -0.2485
 2124SOL     OW17590   0.747   2.759   2.413 -0.1353  0.3653  0.2373
 2124SOL    HW117591   0.825   2.748   2.351  0.8769  0.6995  1.4308
 2124SOL    HW217592   0.761   2.840   2.470 -0.6223 -0.4322  1.5175
 2125SOL     OW17593   7.858   4.445   4.635  0.2256  0.2857  0.2686
 2125SOL    HW117594   7.807   4.368   4.596 -0.1663  0.0602  1.1998
 2125SOL    HW217595   7.944   4.457   4.586 -1.6670  2.0059 -2.7313
 2126SOL     OW17596   4.018   1.858   6.241 -0.2418 -0.2639 -0.0696
 2126SOL    HW117597   4.046   1.784   6.302  0.1040 -1.4303 -1.6179
 2126SOL    HW217598   3.938   1.831   6.188 -0.4543  0.6739 -0.2482
 2127SOL     OW17599   3.065   2.696   2.870  0.1701  0.1513  0.1008
 2127SOL    HW117600   3.069   2.632   2.946 -0.0463 -2.3204 -1.9007
 2127SOL    HW217601   3.158   2.711   2.834 -0.0090 -0.6232 -0.6974
 2128SOL     OW17602   6.021   8.864   4.456  0.1296  0.3884  0.1794
 2128SOL    HW117603   6.017   8.922   4.537 -0.0426 -1.0966  1.2486
 2128SOL    HW217604   5.961   8.785   4.468  1.0968 -0.5200 -0.8659
 2129SOL     OW17605   9.322   3.854   3.764 -0.2177  0.1309 -0.6736
 2129SOL    HW117606   9.348   3.794   3.689  1.7050 -2.2458  1.7992
 2129SOL    HW217607   9.336   3.950   3.737  0.0185 -0.6557 -3.4503
 2130SOL     OW17608   1.802   3.976   5.740  0.3686  0.0468  0.0380
 2130SOL    HW117609   1.900   3.983   5.761  0.0249  0.7687  1.4624
 2130SOL    HW217610   1.758   3.917   5.808 -0.7232  2.1995  1.2314
 2131SOL     OW17611   3.210   1.904   4.274  0.1119  0.2819  0.0703
 2131SOL    HW117612   3.243   1.892   4.180  2.2071 -0.8518  0.9234
 2131SOL    HW217613   3.265   1.973   4.320 -1.4319  1.4221  0.2403
 2132SOL     OW17614   7.368   9.632   4.861  0.1515 -0.1401  0.1298
 2132SOL    HW117615   7.268   9.638   4.866  0.1008 -1.2540  0.5590
 2132SOL    HW217616   7.408   9.717   4.895 -0.6662  0.8101 -1.1972
 2133SOL     OW17617   1.566   4.364   5.941 -0.6119  0.2310 -0.3153
 2133SOL    HW117618   1.623   4.387   5.862  0.1402 -2.2169 -0.5257
 2133SOL    HW217619   1.470   4.359   5.912 -0.4920  0.6170 -0.7969
 2134SOL     OW17620   8.808   3.995   3.932 -0.3379  0.1282 -0.3961
 2134SOL    HW117621   8.864   3.953   3.860  1.0842 -0.7262  1.1590
 2134SOL    HW217622   8.815   3.940   4.016 -2.4564  0.7650  0.2292
 2135SOL     OW17623   2.620   8.044   4.987 -0.1600  0.4688  0.2564
 2135SOL    HW117624   2.675   7.987   5.049 -0.9792 -0.2713  0.3211
 2135SOL    HW217625   2.620   8.138   5.019  2.5340  0.8410 -0.7422
 2136SOL     OW17626   3.142   8.403   2.121 -0.2254  0.0048 -0.1938
 2136SOL    HW117627   3.069   8.356   2.071 -2.3148  0.7648  2.0180
 2136SOL    HW217628   3.128   8.391   2.219  3.1835 -0.5815  0.2811
 2137SOL     OW17629   7.875   9.794   3.955 -0.4024 -0.5066  0.4760
 2137SOL    HW117630   7.891   9.891   3.970  0.3572 -0.6038  0.2983
 2137SOL    HW217631   7.847   9.780   3.860  1.5123 -0.6999 -0.0719
 2138SOL     OW17632   4.278   0.288   6.100 -0.2965 -0.3610 -0.4788
 2138SOL    HW117633   4.371   0.301   6.066 -1.4741  1.7075 -3.1072
 2138SOL    HW217634   4.267   0.337   6.187  0.5335  1.0339 -1.1412
 2139SOL     OW17635   4.903   7.351   1.370  0.3105 -0.1480  0.1495
 2139SOL    HW117636   4.821   7.319   1.323  0.4371  0.1945 -0.3051
 2139SOL    HW217637   4.961   7.273   1.393 -0.6471 -0.4966  1.4313
 2140SOL     OW17638   9.879   8.772   1.296  0.1740  0.1011 -0.1945
 2140SOL    HW117639   9.958   8.820   1.257 -0.9792  4.0305  1.9950
 2140SOL    HW217640   9.800   8.786   1.236 -0.4691  2.1767  1.0639
 2141SOL     OW17641   5.070   1.975   0.211  0.7576  0.7319 -0.3009
 2141SOL    HW117642   5.023   1.906   0.267 -1.5776  1.6275 -1.0944
 2141SOL    HW217643   5.090   1.936   0.121  0.7363  0.6381 -0.2651
 2142SOL     OW17644   0.429   4.707   4.590  0.6211  0.4701  0.2368
 2142SOL    HW117645   0.451   4.659   4.505 -0.0920  0.7728 -0.1209
 2142SOL    HW217646   0.403   4.801   4.570 -3.4713 -0.5661  0.3782
 2143SOL     OW17647   9.471   9.614   4.887 -0.1837  0.2098 -0.3002
 2143SOL    HW117648   9.447   9.672   4.964  0.4224  1.5216 -1.0801
 2143SOL    HW217649   9.517   9.532   4.921 -2.5087 -0.6275  0.9232
 2144SOL     OW17650   6.536   2.297   3.462  0.4926 -0.2970  0.3591
 2144SOL    HW117651   6.452   2.339   3.429  0.5479 -0.1582  0.3926
 2144SOL    HW217652   6.562   2.222   3.402  0.7619  0.1536 -0.0939
 2145SOL     OW17653   0.629   5.138   3.249  0.1481 -0.1941 -0.0181
 2145SOL    HW117654   0.560   5.082   3.202 -0.3855  0.5811 -0.1615
 2145SOL    HW217655   0.694   5.078   3.296  0.9799 -0.9974 -2.1254
 2146SOL     OW17656   8.194   1.017   1.842 -0.7183  0.4077 -0.1944
 2146SOL    HW117657   8.274   1.059   1.883  0.9494 -1.1455 -1.7478
 2146SOL    HW217658   8.147   0.961   1.911  0.4050  0.1188  0.3511
 2147SOL     OW17659   1.364   7.336   0.886  0.7837  0.1505  0.9542
 2147SOL    HW117660   1.362   7.393   0.968  0.5583  1.6393 -0.0725
 2147SOL    HW217661   1.454   7.341   0.844  1.2769 -1.5785  1.7635
 2148SOL     OW17662   4.862   8.538   2.079 -0.0109 -0.7172 -0.0699
 2148SOL    HW117663   4.894   8.602   2.009 -1.2941 -0.9726 -0.9033
 2148SOL    HW217664   4.764   8.526   2.071  0.0960 -2.1497  0.6277
 2149SOL     OW17665   3.599   1.454   1.735 -0.0428  0.1243 -0.0782
 2149SOL    HW117666   3.675   1.397   1.765 -1.0223 -1.2409 -0.1628
 2149SOL    HW217667   3.528   1.455   1.805  0.1929  1.6868  0.1576
 2150SOL     OW17668   6.514   4.919   0.955 -0.0572 -0.5458 -0.5660
 2150SOL    HW117669   6.521   5.018   0.944  0.4038 -0.7371 -2.1712
 2150SOL    HW217670   6.423   4.889   0.929  0.2780 -0.7161 -1.5600
 2151SOL     OW17671   7.710   4.026   8.030 -1.4283 -0.7183 -0.3846
 2151SOL    HW117672   7.750   4.030   7.938 -0.2833  1.0016  0.1749
 2151SOL    HW217673   7.728   3.936   8.069 -0.6507 -0.9666 -1.2825
 2152SOL     OW17674   2.264   3.645   0.727  0.5021  0.0885 -0.3668
 2152SOL    HW117675   2.215   3.689   0.803  2.4514 -0.1109  1.0287
 2152SOL    HW217676   2.347   3.696   0.706  0.7857 -0.7427 -1.3258
 2153SOL     OW17677   4.652   3.636   3.771  0.4210 -0.7654 -0.3300
 2153SOL    HW117678   4.590   3.578   3.719 -2.1319  0.2997  1.3886
 2153SOL    HW217679   4.710   3.579   3.829 -0.8718 -1.6920  0.0814
 2154SOL     OW17680   6.875   4.088   1.925 -0.0955  0.4239 -0.6554
 2154SOL    HW117681   6.835   4.157   1.986 -0.0996 -1.6226  1.7358
 2154SOL    HW217682   6.960   4.124   1.886 -0.7114  2.2261 -0.4064
 2155SOL     OW17683   6.893   2.749   1.301 -0.1380 -0.5780 -0.3524
 2155SOL    HW117684   6.916   2.695   1.382  0.1560  1.4683  0.9590
 2155SOL    HW217685   6.807   2.796   1.315  0.8868  1.3629 -0.4137
 2156SOL     OW17686   5.658   9.672   4.778 -0.6904  0.1661 -0.0617
 2156SOL    HW117687   5.705   9.585   4.791  0.2015  0.7074  0.3901
 2156SOL    HW217688   5.725   9.746   4.776 -1.4367  0.8318 -0.5425
 2157SOL     OW17689   2.807   5.966   1.184 -0.4039 -0.0033  0.1340
 2157SOL    HW117690   2.905   5.957   1.205 -0.5819 -0.2863  0.8446
 2157SOL    HW217691   2.777   5.887   1.130 -0.5411 -0.5931  1.0574
 2158SOL     OW17692   8.506   1.974   4.026  0.1366  0.1307  0.0871
 2158SOL    HW117693   8.466   2.048   3.973  0.7645  0.4374  0.0293
 2158SOL    HW217694   8.501   1.888   3.974  0.0311  0.2706 -0.1319
 2159SOL     OW17695   0.115   5.386   3.394  0.3987  0.0927 -0.2382
 2159SOL    HW117696   0.195   5.328   3.379  0.9405  0.7102  0.2141
 2159SOL    HW217697   0.082   5.421   3.307  0.9948  0.3197 -0.3795
 2160SOL     OW17698   0.152   5.691   1.379  0.3567  0.5041  0.3890
 2160SOL    HW117699   0.132   5.593   1.375 -1.0832  0.7341  1.3099
 2160SOL    HW217700   0.197   5.712   1.465  0.7394  0.6419  0.1555
 2161SOL     OW17701   9.729   4.310   0.218  0.2985 -0.3354 -0.6536
 2161SOL    HW117702   9.695   4.223   0.181 -1.0668 -0.8558  1.7296
 2161SOL    HW217703   9.829   4.304   0.228  0.1774 -1.7930 -0.1166
 2162SOL     OW17704   1.630   7.130   4.972 -0.1344 -0.1081  0.2998
 2162SOL    HW117705   1.603   7.156   5.065  1.2260  0.6815  0.4909
 2162SOL    HW217706   1.639   7.213   4.916 -0.6182 -0.5554 -0.4435
 2163SOL     OW17707   2.629   6.786   1.501  0.2673  0.4375 -0.0329
 2163SOL    HW117708   2.643   6.882   1.522  1.6916  0.2522 -0.0574
 2163SOL    HW217709   2.574   6.743   1.572 -2.6579  1.8636 -1.3908
 2164SOL     OW17710   1.115   6.020   5.028  0.1909 -0.8283 -0.4859
 2164SOL    HW117711   1.155   5.951   5.089  0.5505 -0.4867 -0.3358
 2164SOL    HW217712   1.144   6.001   4.934  0.4708 -0.7540 -0.4157
 2165SOL     OW17713   0.874   3.529   2.095 -0.5290 -0.3264  0.0143
 2165SOL    HW117714   0.940   3.601   2.116 -2.6057  1.5361  0.3288
 2165SOL    HW217715   0.782   3.561   2.117 -1.4029 -3.5124  1.2583
 2166SOL     OW17716   2.043   5.093   1.975 -0.2650  0.0721 -0.1865
 2166SOL    HW117717   1.946   5.095   2.002 -0.5078  1.7488 -1.1307
 2166SOL    HW217718   2.050   5.105   1.876  0.9709  1.7831  0.0799
 2167SOL     OW17719   3.420   9.781   2.178 -0.1080  0.2099  0.5880
 2167SOL    HW117720   3.504   9.728   2.160  0.5371  1.5063 -0.2733
 2167SOL    HW217721   3.436   9.843   2.255 -0.4182  0.1500  0.7003
 2168SOL     OW17722   4.488   2.767   2.658 -0.1982  0.1195  0.6306
 2168SOL    HW117723   4.423   2.750   2.732  0.5237 -0.4376  1.1473
 2168SOL    HW217724   4.516   2.680   2.618 -2.3502  0.5185 -1.8716
 2169SOL     OW17725   8.626   8.387   0.560  0.2282  0.7055 -0.5452
 2169SOL    HW117726   8.616   8.480   0.526 -1.7884  1.3224  1.5808
 2169SOL    HW217727   8.538   8.339   0.551  0.6956 -0.3292  0.2740
 2170SOL     OW17728   2.148   1.295   3.890 -0.9559  0.2249  0.3062
 2170SOL    HW117729   2.106   1.209   3.861  0.2112 -0.6892  1.2536
 2170SOL    HW217730   2.094   1.335   3.964 -0.2377 -0.8893  1.4476
 2171SOL     OW17731   2.156   7.544   5.637  0.0426 -0.5910  0.1333
 2171SOL    HW117732   2.238   7.526   5.581  0.1295  0.7084 -0.1671
 2171SOL    HW217733   2.083   7.483   5.608 -0.0466  0.3437 -1.7258
 2172SOL     OW17734   3.709   3.254   5.225  0.5270  0.3473 -0.0105
 2172SOL    HW117735   3.667   3.243   5.135 -0.9961  0.4361  0.6772
 2172SOL    HW217736   3.709   3.351   5.251 -2.0475  0.0022  1.4733
 2173SOL     OW17737   4.857   5.593   1.071 -0.7261  0.5228  0.1066
 2173SOL    HW117738   4.800   5.511   1.062 -0.9718  0.6675  0.3213
 2173SOL    HW217739   4.841   5.635   1.160 -0.9779  1.0859 -0.2002
 2174SOL     OW17740   4.724   1.370   3.226  0.0631  0.0598 -0.3690
 2174SOL    HW117741   4.786   1.444   3.251 -1.1213  1.2308 -0.8361
 2174SOL    HW217742   4.646   1.407   3.176 -2.1814 -1.0441  2.1979
 2175SOL     OW17743   0.026   1.300   6.241  0.6612  0.3002  0.4084
 2175SOL    HW117744  -0.002   1.235   6.312  1.5152  1.2878  1.6627
 2175SOL    HW217745   0.112   1.268   6.200  0.7707  0.3191  0.6185
 2176SOL     OW17746   0.366   0.324   4.598  0.1857  0.0852 -0.4740
 2176SOL    HW117747   0.435   0.382   4.641 -0.8065  0.3246  0.8176
 2176SOL    HW217748   0.289   0.380   4.569 -0.4670 -0.4754  0.1439
 2177SOL     OW17749   8.105   2.964   3.398  0.1911 -0.0229 -0.0051
 2177SOL    HW117750   8.097   3.019   3.481  1.4587 -1.3230  1.0124
 2177SOL    HW217751   8.202   2.946   3.379  0.0133  1.3622 -2.5366
 2178SOL     OW17752   6.620   8.372   5.394 -0.0439 -0.2645  0.4726
 2178SOL    HW117753   6.702   8.352   5.340 -1.0090 -1.0083 -0.7417
 2178SOL    HW217754   6.591   8.290   5.442  0.5087  0.2681  1.7452
 2179SOL     OW17755   2.526   8.279   2.311 -0.0748  0.2267 -0.1869
 2179SOL    HW117756   2.565   8.358   2.358 -1.2799  1.3613 -1.0442
 2179SOL    HW217757   2.573   8.265   2.224 -0.5932  0.7153 -0.5561
 2180SOL     OW17758   1.252   5.579   2.272 -0.1185  0.4200  0.2115
 2180SOL    HW117759   1.256   5.485   2.305  1.1134  0.6111  0.6561
 2180SOL    HW217760   1.265   5.642   2.349  0.4280  0.9205 -0.2782
 2181SOL     OW17761   5.127   1.679   0.509 -0.0032 -0.3684  0.3369
 2181SOL    HW117762   5.054   1.723   0.456 -0.2247  0.4653  1.3214
 2181SOL    HW217763   5.096   1.589   0.540 -0.3120 -0.3572  0.0644
 2182SOL     OW17764   6.659   2.912   5.471 -0.0043  0.5849  0.3491
 2182SOL    HW117765   6.692   3.004   5.494  0.8919  1.1896 -3.0829
 2182SOL    HW217766   6.559   2.911   5.473 -0.0792  2.1927 -1.4272
 2183SOL     OW17767   9.661   9.366   5.540  0.1209  0.2014 -0.0216
 2183SOL    HW117768   9.622   9.428   5.472  0.1407 -0.4459 -0.6288
 2183SOL    HW217769   9.760   9.378   5.543  0.2351 -0.5248 -0.8691
 2184SOL     OW17770   1.697   9.388   4.539 -0.2468 -0.0798  0.0458
 2184SOL    HW117771   1.707   9.302   4.589 -2.6332 -0.9744 -0.9385
 2184SOL    HW217772   1.735   9.378   4.447  2.5730  1.0280  1.0345
 2185SOL     OW17773   1.866   4.111   0.455  0.5856  0.3465 -0.4388
 2185SOL    HW117774   1.815   4.172   0.515  1.6375 -1.0666  1.9243
 2185SOL    HW217775   1.875   4.021   0.498  0.0863 -1.1618 -3.3435
 2186SOL     OW17776   0.357   4.025   4.913 -0.2527  0.3815 -0.2061
 2186SOL    HW117777   0.307   4.059   4.993 -1.5094 -2.0904  0.1072
 2186SOL    HW217778   0.329   4.077   4.832 -0.3265  1.6973  0.6411
 2187SOL     OW17779   1.847   4.893   0.470 -0.6148  0.1341 -0.7031
 2187SOL    HW117780   1.785   4.848   0.534  0.5975 -2.7486 -1.4927
 2187SOL    HW217781   1.923   4.935   0.521 -0.8601 -0.1586 -0.0909
 2188SOL     OW17782   4.620   9.335   4.201 -0.3336 -0.6278 -0.3857
 2188SOL    HW117783   4.694   9.310   4.263 -1.8460 -1.4128  1.1341
 2188SOL    HW217784   4.620   9.435   4.188  1.2583 -0.6592 -0.7899
 2189SOL     OW17785   2.295   9.444   4.327 -0.2069  0.2689 -0.2099
 2189SOL    HW117786   2.282   9.366   4.387 -0.2592 -0.0147 -0.5889
 2189SOL    HW217787   2.312   9.526   4.382  2.3729 -0.4560  0.1680
 2190SOL     OW17788   4.105   0.751   6.428 -0.1063  0.4971 -0.0864
 2190SOL    HW117789   4.159   0.681   6.382 -0.1648  0.4673 -0.1101
 2190SOL    HW217790   4.167   0.819   6.470 -0.0490  0.4096 -0.0280
 2191SOL     OW17791   7.430   3.356   1.142  0.2710 -0.1822 -0.3936
 2191SOL    HW117792   7.359   3.294   1.109  0.9517 -0.6155 -1.0560
 2191SOL    HW217793   7.484   3.390   1.064  1.9265 -1.2569  0.2569
 2192SOL     OW17794   3.435   2.510   2.585 -0.1035  0.0767 -0.3087
 2192SOL    HW117795   3.363   2.578   2.599 -0.7199 -0.8728  1.2338
 2192SOL    HW217796   3.503   2.546   2.521 -0.1986  2.3180  0.7979
 2193SOL     OW17797   6.075   1.294   5.081  0.1807 -0.2127  0.8664
 2193SOL    HW117798   6.030   1.378   5.051  0.4121 -0.2596  0.3881
 2193SOL    HW217799   6.162   1.317   5.124  1.9796 -0.4327 -2.5263
 2194SOL     OW17800   5.544   9.722   2.929  0.0096  0.0454  0.1218
 2194SOL    HW117801   5.617   9.677   2.981  0.2236  1.4761  1.0755
 2194SOL    HW217802   5.533   9.676   2.841  1.4617 -0.7293  0.3268
 2195SOL     OW17803   2.081   1.903   3.060  0.0042 -0.1430 -0.4007
 2195SOL    HW117804   2.136   1.924   3.140  1.1729 -0.2465 -1.1596
 2195SOL    HW217805   2.050   1.988   3.018  0.3677 -0.0549 -0.4951
 2196SOL     OW17806   1.422   9.069   4.943 -0.0347  0.2974 -0.1473
 2196SOL    HW117807   1.385   9.157   4.974  1.8033  1.0909 -0.1078
 2196SOL    HW217808   1.451   9.076   4.848  0.9690  0.0312  0.1267
 2197SOL     OW17809   1.178   7.103   3.258 -0.0646 -0.4012 -0.0801
 2197SOL    HW117810   1.132   7.161   3.325  0.1731  0.8515 -0.9949
 2197SOL    HW217811   1.155   7.133   3.166  0.2287 -1.6302 -0.5646
 2198SOL     OW17812   9.494   3.280   0.436 -0.0812 -0.2295 -0.2517
 2198SOL    HW117813   9.487   3.190   0.478  1.5562 -0.0208  0.5130
 2198SOL    HW217814   9.536   3.272   0.346  0.9949 -0.1418  0.2298
 2199SOL     OW17815   3.630   0.722   1.149 -0.5907  0.1845  0.2456
 2199SOL    HW117816   3.560   0.664   1.190 -0.9439  0.1640 -0.3770
 2199SOL    HW217817   3.715   0.671   1.140 -0.4565  0.2461  1.1183
 2200SOL     OW17818   7.040   0.855   4.802  0.2920 -0.4370 -0.4205
 2200SOL    HW117819   7.018   0.934   4.859  1.2025  0.6466 -1.5482
 2200SOL    HW217820   7.021   0.771   4.852  0.3377  0.5030  1.1811
 2201SOL     OW17821   8.039   0.069   3.159  0.0931  0.0172  0.1664
 2201SOL    HW117822   8.120   0.111   3.118  0.4159  2.2113  2.8635
 2201SOL    HW217823   7.967   0.137   3.169 -0.6286 -0.9071  1.4676
 2202SOL     OW17824   2.643   8.258   2.063  0.3224  0.2574 -0.4540
 2202SOL    HW117825   2.697   8.329   2.019 -0.1871  0.4123 -0.8356
 2202SOL    HW217826   2.601   8.199   1.993  0.6716 -0.3672 -0.1456
 2203SOL     OW17827   6.897   0.519   2.994  0.0983  0.0560  0.1029
 2203SOL    HW117828   6.805   0.555   3.012 -0.6549 -1.3803 -0.8704
 2203SOL    HW217829   6.923   0.539   2.900  0.9640  0.8115  0.4901
 2204SOL     OW17830   1.452   7.057   5.215 -0.2095 -0.3941  0.6226
 2204SOL    HW117831   1.424   7.137   5.161  1.7908  0.1591  0.3672
 2204SOL    HW217832   1.374   7.025   5.269 -1.5079  0.6756 -0.5621
 2205SOL     OW17833   7.512   1.522   0.396 -0.1595 -0.0493 -0.5421
 2205SOL    HW117834   7.418   1.525   0.363  0.4720  1.1022 -2.2950
 2205SOL    HW217835   7.560   1.606   0.369  1.1318 -0.2302  1.0771
 2206SOL     OW17836   3.169   2.911   4.933 -0.7404 -0.3039 -0.2118
 2206SOL    HW117837   3.089   2.852   4.919 -0.4542 -0.2271 -2.2264
 2206SOL    HW217838   3.142   3.007   4.927 -0.8018 -0.2478  0.8594
 2207SOL     OW17839   8.856   7.297   3.771  0.0107 -0.0187 -0.0739
 2207SOL    HW117840   8.925   7.308   3.843  0.3551 -1.5071 -0.1515
 2207SOL    HW217841   8.769   7.335   3.801  0.5322  0.6731  0.5591
 2208SOL     OW17842   1.897   7.373   1.768 -0.1545 -0.3989  0.0992
 2208SOL    HW117843   1.807   7.413   1.782 -0.1778 -0.1445 -0.7659
 2208SOL    HW217844   1.888   7.282   1.729 -0.0593 -0.6875  0.7460
 2209SOL     OW17845   0.009   0.826   2.990  1.3796  0.3055  0.4400
 2209SOL    HW117846   0.017   0.889   3.067  1.8547 -1.0749  1.5432
 2209SOL    HW217847   0.100   0.791   2.966  1.2751  0.9458 -0.9473
 2210SOL     OW17848   6.989   8.535   4.805  0.0681  0.2402  0.3655
 2210SOL    HW117849   7.072   8.548   4.858 -0.7467 -0.4338  1.8347
 2210SOL    HW217850   6.920   8.490   4.862 -1.0313  0.0799 -1.0753
 2211SOL     OW17851   5.211   7.820   3.314  0.0469 -0.5436 -0.5958
 2211SOL    HW117852   5.280   7.776   3.256 -1.7035 -2.2563 -1.4368
 2211SOL    HW217853   5.227   7.796   3.409  0.5818 -0.9833 -0.7923
 2212SOL     OW17854   6.785   8.400   4.911 -0.1737 -0.1692 -0.6008
 2212SOL    HW117855   6.716   8.458   4.868  0.8169  0.7157 -1.0233
 2212SOL    HW217856   6.743   8.314   4.940 -0.9107 -0.7130 -3.1646
 2213SOL     OW17857   5.148   2.531   5.678  0.0283  0.4258 -0.3746
 2213SOL    HW117858   5.108   2.443   5.702  0.7400 -0.0821 -1.0404
 2213SOL    HW217859   5.214   2.558   5.749 -0.0959  0.3695 -0.2362
 2214SOL     OW17860   2.247   1.248   0.401  0.7001 -0.1379  0.8609
 2214SOL    HW117861   2.158   1.225   0.441  0.1483 -0.7536 -0.6799
 2214SOL    HW217862   2.278   1.172   0.344  1.1628  0.9780 -0.3944
 2215SOL     OW17863   0.122   0.281   4.079  0.4383  0.3575 -0.2972
 2215SOL    HW117864   0.161   0.218   4.011 -2.1771 -0.4439 -1.0974
 2215SOL    HW217865   0.047   0.332   4.038  0.5951  1.8678  1.2390
 2216SOL     OW17866   1.972   0.455   2.800  0.1574  0.1072 -0.0650
 2216SOL    HW117867   1.941   0.547   2.825 -0.0852  0.4723 -1.6330
 2216SOL    HW217868   1.997   0.405   2.882 -0.9775  1.1255  0.9277
 2217SOL     OW17869   1.434   7.730   6.071 -0.5538  0.0500  0.4339
 2217SOL    HW117870   1.422   7.678   5.987  0.8127  1.4052 -0.6283
 2217SOL    HW217871   1.511   7.694   6.123 -0.2015  0.4114  0.1633
 2218SOL     OW17872   9.202   4.430   2.960 -0.3048  0.2800 -0.3192
 2218SOL    HW117873   9.208   4.526   2.988  0.2553  0.1416  0.0591
 2218SOL    HW217874   9.115   4.413   2.914 -1.7983  0.2344  2.4599
 2219SOL     OW17875   6.821   3.461   8.039  0.6182 -0.0416 -0.6661
 2219SOL    HW117876   6.890   3.518   7.995 -0.3797 -0.1626 -2.4308
 2219SOL    HW217877   6.738   3.514   8.053 -0.6134 -1.2318 -3.1002
 2220SOL     OW17878   6.762   8.764   7.273 -0.4425  0.2245 -0.3741
 2220SOL    HW117879   6.780   8.692   7.205  0.5938  0.1514 -0.0282
 2220SOL    HW217880   6.721   8.722   7.354 -1.5559  0.2920 -0.8882
 2221SOL     OW17881   5.275   9.996   1.523 -0.0764 -0.3606  0.0637
 2221SOL    HW117882   5.196  10.019   1.465  0.4514 -0.1303 -0.5670
 2221SOL    HW217883   5.333  10.077   1.532  0.4922 -0.7499 -0.1134
 2222SOL     OW17884   1.316   6.663   0.504 -0.4258  0.6094 -0.0496
 2222SOL    HW117885   1.413   6.668   0.480 -0.3189 -0.3531  0.1469
 2222SOL    HW217886   1.284   6.569   0.494 -0.9095  0.5856  1.5306
 2223SOL     OW17887   1.892   1.188   4.862  0.2428  0.3382  0.1717
 2223SOL    HW117888   1.957   1.139   4.920  1.5433 -0.0152 -1.5422
 2223SOL    HW217889   1.881   1.140   4.775 -2.4254  0.3339  0.4546
 2224SOL     OW17890   6.916   1.274   6.590  0.5822  0.3775  0.4087
 2224SOL    HW117891   6.972   1.322   6.657  2.0695 -0.9423  0.1537
 2224SOL    HW217892   6.924   1.175   6.605  1.4547  0.0274 -2.0723
 2225SOL     OW17893   8.039   2.822   6.260 -0.6875  0.0039  0.3266
 2225SOL    HW117894   8.094   2.875   6.325 -0.5540 -0.5448  0.6651
 2225SOL    HW217895   8.011   2.736   6.303 -0.6980 -0.3074 -0.3069
 2226SOL     OW17896   7.921   4.941   5.900 -0.3800 -0.4678 -0.2865
 2226SOL    HW117897   7.968   5.025   5.873  0.3942 -1.3555 -1.7994
 2226SOL    HW217898   7.981   4.886   5.958 -0.9233  0.0488  0.7860
 2227SOL     OW17899   5.033   0.401   6.981  0.5304  0.7952 -0.7069
 2227SOL    HW117900   5.001   0.446   7.065  0.7697 -2.2297  1.0916
 2227SOL    HW217901   4.954   0.378   6.924 -0.0670 -0.9637  0.7549
 2228SOL     OW17902   5.407   0.005   5.420 -0.0169 -0.0757 -0.1680
 2228SOL    HW117903   5.429  -0.051   5.340 -0.9436 -2.7483  1.3828
 2228SOL    HW217904   5.310   0.030   5.418  0.0235  0.0993 -0.0346
 2229SOL     OW17905   9.808   8.762   4.547  0.7369  0.2374  0.0723
 2229SOL    HW117906   9.872   8.773   4.471 -0.8040 -0.6511 -1.4140
 2229SOL    HW217907   9.714   8.776   4.514  0.0929  0.7441  2.0234
 2230SOL     OW17908   6.215   2.286   6.033 -0.1048 -0.2155  1.1956
 2230SOL    HW117909   6.118   2.286   6.010  0.4802 -2.3578 -1.4240
 2230SOL    HW217910   6.239   2.202   6.083  0.6361 -0.2518  0.7949
 2231SOL     OW17911   2.932   2.186   2.111  0.2628 -0.0570  0.2048
 2231SOL    HW117912   2.997   2.150   2.178  2.3158  0.8759 -1.2253
 2231SOL    HW217913   2.963   2.276   2.080 -1.6019  0.3023 -0.7016
 2232SOL     OW17914   2.917   0.369   2.909 -0.1033 -0.1102  0.6273
 2232SOL    HW117915   2.913   0.465   2.938 -0.0030  0.4207 -1.0489
 2232SOL    HW217916   2.830   0.342   2.869  0.3562 -0.2435 -0.3111
 2233SOL     OW17917   3.138   4.356   0.716 -0.1934 -0.7477  0.5966
 2233SOL    HW117918   3.136   4.454   0.738  1.4397 -0.7609  0.8340
 2233SOL    HW217919   3.122   4.303   0.799  2.2093 -0.7257  1.1071
 2234SOL     OW17920   9.777   2.839   3.115 -0.3371 -0.3487  0.2912
 2234SOL    HW117921   9.708   2.783   3.161 -0.5989 -0.7466 -0.5731
 2234SOL    HW217922   9.766   2.830   3.016  1.1074 -0.5895  0.1470
 2235SOL     OW17923   5.493   9.531   5.909  0.8497  0.0749 -0.0629
 2235SOL    HW117924   5.563   9.570   5.849  0.1148  2.0545  0.3456
 2235SOL    HW217925   5.462   9.599   5.974 -0.2203 -1.3055  0.9121
 2236SOL     OW17926   6.302   1.406   4.176 -0.1992  0.2066 -0.2814
 2236SOL    HW117927   6.343   1.371   4.091 -1.2383  0.1341 -0.7558
 2236SOL    HW217928   6.221   1.352   4.199  0.2842 -0.0024  0.9624
 2237SOL     OW17929   0.442   7.488   4.154  0.0409 -0.4562  0.5296
 2237SOL    HW117930   0.450   7.444   4.065 -2.8026  0.1193 -0.0677
 2237SOL    HW217931   0.517   7.458   4.214  1.9258 -0.9050 -1.9970
 2238SOL     OW17932   8.580   5.258   3.095 -0.2803  0.1399 -0.7829
 2238SOL    HW117933   8.547   5.319   3.168  1.7058 -0.0985  0.3660
 2238SOL    HW217934   8.625   5.313   3.024 -2.4130  0.3943 -1.9767
 2239SOL     OW17935   2.524   2.630   4.102 -0.3678  0.0560  0.8919
 2239SOL    HW117936   2.506   2.555   4.038 -0.9050  1.0378 -0.1422
 2239SOL    HW217937   2.446   2.693   4.102  0.5776  1.2453  0.8372
 2240SOL     OW17938   8.314   0.266   4.430  0.1991 -0.1408  0.3410
 2240SOL    HW117939   8.317   0.292   4.333  0.2378 -0.1345  0.3442
 2240SOL    HW217940   8.369   0.184   4.444  1.7061  0.9160  0.6944
 2241SOL     OW17941   0.493   2.127   1.410 -0.0915 -0.0281  0.2970
 2241SOL    HW117942   0.504   2.028   1.400  0.4557 -0.0962  1.4795
 2241SOL    HW217943   0.583   2.170   1.412 -0.3564  0.6301 -1.4370
 2242SOL     OW17944   4.821   4.638   0.183  0.2844 -0.2319  0.1999
 2242SOL    HW117945   4.917   4.637   0.214  0.4923  0.8128 -0.3991
 2242SOL    HW217946   4.776   4.720   0.219 -0.1285 -0.2503 -0.2812
 2243SOL     OW17947   2.260   3.587   2.308  0.1780 -0.7662 -0.0609
 2243SOL    HW117948   2.254   3.659   2.239 -0.6169 -0.0835  0.7177
 2243SOL    HW217949   2.258   3.498   2.262  0.7511 -0.3106 -0.9948
 2244SOL     OW17950   8.277   2.124   1.404  0.3953  0.1471  0.2468
 2244SOL    HW117951   8.311   2.217   1.414  0.8812  0.2588 -2.2240
 2244SOL    HW217952   8.345   2.067   1.359 -0.7370 -0.8822 -0.2231
 2245SOL     OW17953   2.180   6.019   2.450 -0.3455  0.2434 -0.5012
 2245SOL    HW117954   2.118   5.949   2.415  0.2447 -0.3547 -0.3682
 2245SOL    HW217955   2.226   6.065   2.374 -1.3132  1.0276 -0.6185
 2246SOL     OW17956   9.731   1.802   1.162  0.3688 -0.6095  0.5657
 2246SOL    HW117957   9.755   1.745   1.084 -0.5790 -0.6401  0.2930
 2246SOL    HW217958   9.800   1.791   1.234  0.8392 -1.1581  0.0342
 2247SOL     OW17959   4.337   1.078   5.143  0.2466 -0.4458  0.1110
 2247SOL    HW117960   4.391   1.097   5.061  1.3557 -0.0165  0.9291
 2247SOL    HW217961   4.271   1.151   5.157 -1.2349 -1.4599 -1.4370
 2248SOL     OW17962   8.728   0.504   2.194 -0.0740  0.3218  0.5729
 2248SOL    HW117963   8.638   0.468   2.219 -0.5475  0.3143 -1.0411
 2248SOL    HW217964   8.737   0.598   2.227 -1.9172  1.4152 -1.8951
 2249SOL     OW17965   3.585   7.838   1.096  0.1536 -0.4352 -0.5827
 2249SOL    HW117966   3.489   7.811   1.099  0.4313 -1.2919  0.7923
 2249SOL    HW217967   3.593   7.930   1.059 -1.1473 -0.5957 -1.2787
 2250SOL     OW17968   3.542   0.330   3.099  0.2723 -0.1022  0.5056
 2250SOL    HW117969   3.613   0.381   3.147  0.0209 -0.5627  1.3815
 2250SOL    HW217970   3.466   0.391   3.076  1.3356  0.6024 -1.2648
 2251SOL     OW17971   4.313   8.665   2.055 -0.3999 -0.2666 -0.6237
 2251SOL    HW117972   4.373   8.633   2.128  0.2889 -1.1830 -1.5643
 2251SOL    HW217973   4.280   8.757   2.076  1.5087  0.3341 -0.1579
 2252SOL     OW17974   9.046   9.384   5.274  0.6591  0.3583 -0.3085
 2252SOL    HW117975   9.051   9.429   5.364  0.0613  0.5775 -0.3826
 2252SOL    HW217976   9.053   9.453   5.203  2.9317  0.0066 -0.4540
 2253SOL     OW17977   1.676   7.195   2.676  0.6803  0.3305 -0.2471
 2253SOL    HW117978   1.656   7.255   2.754 -0.2270  0.9276 -0.9249
 2253SOL    HW217979   1.676   7.100   2.706 -0.1428  0.5281  0.4018
 2254SOL     OW17980   2.873   1.318   4.578  0.2000 -0.5094 -0.0323
 2254SOL    HW117981   2.911   1.352   4.492 -1.0788 -0.7522 -0.7082
 2254SOL    HW217982   2.923   1.358   4.654  0.5530  0.6847 -0.8692
 2255SOL     OW17983   4.949   8.172   6.353 -0.4757  0.3510 -0.0677
 2255SOL    HW117984   4.868   8.114   6.340  0.7424 -1.1349 -1.1905
 2255SOL    HW217985   4.962   8.230   6.273  1.7977 -2.2472 -1.6500
 2256SOL     OW17986   7.608   4.158   1.170  0.2804 -0.1313  0.5754
 2256SOL    HW117987   7.620   4.141   1.268 -0.9473  3.2417  1.3580
 2256SOL    HW217988   7.513   4.181   1.151  0.6042 -0.3056 -1.3741
 2257SOL     OW17989   0.489   5.950   3.927  0.4270 -0.0632  0.1623
 2257SOL    HW117990   0.546   5.881   3.881 -0.4844 -0.8425  0.1863
 2257SOL    HW217991   0.423   5.986   3.862  1.4425  1.4014 -0.0719
 2258SOL     OW17992   3.406   2.365   1.548 -0.3149 -0.4376 -0.1375
 2258SOL    HW117993   3.483   2.313   1.584 -0.2581  0.2805  0.7859
 2258SOL    HW217994   3.424   2.462   1.557 -0.5082 -0.2527 -1.6815
 2259SOL     OW17995   0.586   2.536   1.822  0.2440 -0.0957 -0.3036
 2259SOL    HW117996   0.590   2.484   1.737  0.0491 -0.9287  0.1917
 2259SOL    HW217997   0.513   2.604   1.816  0.6529  0.2819 -1.0411
 2260SOL     OW17998   1.116   4.545   5.207 -0.3101  0.5165 -0.2497
 2260SOL    HW117999   1.049   4.559   5.134  0.4094  0.4521 -0.9305
 2260SOL    HW218000   1.193   4.491   5.172 -0.1449  0.1538  0.6613
 2261SOL     OW18001   9.549   3.005   1.539 -0.3257 -0.0364  0.2702
 2261SOL    HW118002   9.581   2.927   1.593  1.1204  0.1671 -0.2629
 2261SOL    HW218003   9.602   3.011   1.454  0.2323  2.0647  0.7229
 2262SOL     OW18004   9.155   8.747   1.922  0.2260 -0.0280  0.3491
 2262SOL    HW118005   9.076   8.716   1.975 -0.3175  0.4631 -0.1656
 2262SOL    HW218006   9.227   8.779   1.985  0.4881 -1.5458  0.8651
 2263SOL     OW18007   8.744   6.126   3.039  0.3921 -0.5414  0.0380
 2263SOL    HW118008   8.654   6.167   3.054  0.9025  0.9593 -0.9258
 2263SOL    HW218009   8.815   6.195   3.054  1.2949 -1.1970 -1.1259
 2264SOL     OW18010   8.685   2.791   3.123 -0.3372 -0.3618  0.6446
 2264SOL    HW118011   8.681   2.768   3.026 -0.1098 -1.6049  0.9192
 2264SOL    HW218012   8.608   2.748   3.171  0.2324 -0.7647  1.2071
 2265SOL     OW18013   8.286   5.789   2.509  0.1684  0.0346  0.4400
 2265SOL    HW118014   8.363   5.760   2.566  1.3375  0.8556 -0.7095
 2265SOL    HW218015   8.251   5.711   2.458 -0.7113 -0.6529  2.0421
 2266SOL     OW18016   2.356   3.399   0.628 -0.4062  0.1707  0.3982
 2266SOL    HW118017   2.341   3.491   0.664 -1.1161  0.9728 -1.8662
 2266SOL    HW218018   2.453   3.385   0.610 -0.4514  0.9551 -0.4675
 2267SOL     OW18019   6.444   4.244   2.011 -0.2833  0.0922  0.2350
 2267SOL    HW118020   6.486   4.331   2.037  0.4828 -0.3590  0.5093
 2267SOL    HW218021   6.494   4.204   1.935 -0.7165 -0.0536  0.0242
 2268SOL     OW18022   7.682   3.784   3.600 -0.3084 -0.1863 -0.2762
 2268SOL    HW118023   7.704   3.687   3.588 -0.0506 -0.0694 -0.7911
 2268SOL    HW218024   7.616   3.812   3.530  0.9379  0.4246 -1.2462
 2269SOL     OW18025   7.615   3.779   6.290 -0.3272  0.3814  0.1769
 2269SOL    HW118026   7.710   3.784   6.258  0.0330 -0.1074  1.1618
 2269SOL    HW218027   7.580   3.871   6.305 -0.1456  0.5795 -0.5755
 2270SOL     OW18028   6.798   0.883   4.297 -0.1052 -0.1620 -0.2586
 2270SOL    HW118029   6.798   0.950   4.372 -1.8159 -0.5543  0.1080
 2270SOL    HW218030   6.820   0.793   4.333 -1.3785 -0.4351 -0.1249
 2271SOL     OW18031   6.443   3.492   0.288 -0.5250 -0.8049  0.4891
 2271SOL    HW118032   6.542   3.488   0.300 -0.3615 -0.3134 -0.6150
 2271SOL    HW218033   6.422   3.523   0.196 -1.6944  1.1548  1.3744
 2272SOL     OW18034   1.564   3.971   4.684 -0.1217  1.0756 -0.3444
 2272SOL    HW118035   1.488   3.968   4.619 -0.4870  0.1289  0.1212
 2272SOL    HW218036   1.532   3.940   4.774  1.1388 -0.5374 -0.4473
 2273SOL     OW18037   0.565   5.454   1.017 -0.4886 -0.3015 -0.4718
 2273SOL    HW118038   0.661   5.448   0.989 -0.2402  0.0364  0.3047
 2273SOL    HW218039   0.545   5.548   1.046 -0.5053 -0.8606  1.3606
 2274SOL     OW18040   6.376   2.042   3.155 -0.0077 -0.1830 -0.1981
 2274SOL    HW118041   6.291   2.089   3.178 -0.9066 -1.7432 -0.2178
 2274SOL    HW218042   6.378   2.023   3.056  0.7726  0.6307 -0.3405
 2275SOL     OW18043   0.144   8.790   5.689 -0.0782 -0.5212  0.4122
 2275SOL    HW118044   0.174   8.877   5.650 -0.1831 -0.3425  0.7339
 2275SOL    HW218045   0.157   8.791   5.788 -0.5428 -0.6850  0.4770
 2276SOL     OW18046   3.032   0.755   3.786 -0.1534  0.7700 -0.1018
 2276SOL    HW118047   2.961   0.807   3.833 -0.2205 -1.2571  2.1115
 2276SOL    HW218048   3.121   0.776   3.825 -0.0184  0.3053 -0.1558
 2277SOL     OW18049   8.696   6.052   3.764 -0.1530  0.2460 -0.4762
 2277SOL    HW118050   8.738   6.141   3.748  0.5650 -0.0330 -0.1671
 2277SOL    HW218051   8.660   6.048   3.857 -1.3478  0.6761 -0.9198
 2278SOL     OW18052   2.928   9.279   4.925  0.4325  0.2520 -0.0846
 2278SOL    HW118053   2.895   9.219   4.852 -2.2633 -0.7940  1.8954
 2278SOL    HW218054   2.901   9.241   5.013  3.7735  1.4062  1.4849
 2279SOL     OW18055   8.825   0.828   1.218  0.1866 -0.0817 -0.3642
 2279SOL    HW118056   8.809   0.826   1.119  2.2810  0.8020 -0.7536
 2279SOL    HW218057   8.803   0.919   1.254  1.2500  0.1829 -0.3652
 2280SOL     OW18058   1.563   6.314   5.437  0.1363 -0.3576  0.1530
 2280SOL    HW118059   1.624   6.238   5.458  0.0532 -0.4682 -0.0083
 2280SOL    HW218060   1.501   6.288   5.364 -0.1111 -0.2484  0.3216
 2281SOL     OW18061   7.862   9.764   2.537 -0.0697 -0.3396  0.3554
 2281SOL    HW118062   7.863   9.680   2.483  1.0651 -0.2954  0.2916
 2281SOL    HW218063   7.876   9.742   2.634 -1.0645 -0.3328  0.5003
 2282SOL     OW18064   5.369   1.233   6.630  0.6486 -0.2583 -0.1047
 2282SOL    HW118065   5.354   1.190   6.541 -0.8698 -0.0167  0.0219
 2282SOL    HW218066   5.329   1.176   6.701 -0.9668  1.1243  0.1144
 2283SOL     OW18067   0.937   5.984   0.791  0.1656 -0.6363 -0.3430
 2283SOL    HW118068   0.883   6.010   0.871  0.7201 -1.3943  0.2843
 2283SOL    HW218069   0.880   5.988   0.710 -0.5886 -0.5292  0.1861
 2284SOL     OW18070   3.029   2.420   5.041  0.8782  0.1448  0.3775
 2284SOL    HW118071   3.128   2.432   5.035  1.1232 -2.1133 -0.2408
 2284SOL    HW218072   2.997   2.460   5.127  1.6793  4.6757 -1.2995
 2285SOL     OW18073   6.000   9.822   5.285 -0.1386 -0.8685  0.0310
 2285SOL    HW118074   5.915   9.843   5.237 -0.2254 -1.0584  0.0996
 2285SOL    HW218075   5.979   9.788   5.377 -0.0155 -1.6194 -0.2167
 2286SOL     OW18076   7.299   4.102   2.946 -0.0253 -0.5708 -0.9550
 2286SOL    HW118077   7.277   4.005   2.946 -1.3741 -0.2926  0.8619
 2286SOL    HW218078   7.288   4.139   2.853  0.9068 -2.2153 -1.7371
 2287SOL     OW18079   8.776   1.551   3.838 -0.0008  0.1205  0.0599
 2287SOL    HW118080   8.730   1.640   3.834 -2.5398 -1.1663 -0.2413
 2287SOL    HW218081   8.710   1.481   3.865  1.7262 -1.8366 -0.7217
 2288SOL     OW18082   0.121   1.562   4.873  0.3117  0.0745  0.5645
 2288SOL    HW118083   0.108   1.561   4.774  1.0151 -0.3426  0.4671
 2288SOL    HW218084   0.079   1.644   4.912 -0.8947 -0.2917  0.0555
 2289SOL     OW18085   3.396   1.135   2.688 -0.2568  0.4976  0.2829
 2289SOL    HW118086   3.375   1.191   2.768 -2.0264 -0.4763  0.5057
 2289SOL    HW218087   3.360   1.180   2.606  1.0893  1.2289  0.0739
 2290SOL     OW18088   0.184   8.944   5.934 -0.8421  0.1130 -0.0241
 2290SOL    HW118089   0.180   8.943   6.034 -0.3226  1.1715  0.0108
 2290SOL    HW218090   0.239   9.022   5.903 -0.2413 -0.7255 -1.1113
 2291SOL     OW18091   3.785   2.224   6.368 -0.0685 -0.3993  0.1932
 2291SOL    HW118092   3.743   2.162   6.303 -0.6790  0.5851 -0.3677
 2291SOL    HW218093   3.879   2.195   6.386 -0.2630 -1.3225 -0.2662
 2292SOL     OW18094   4.087   2.327   6.140  0.0272  0.1161 -0.1975
 2292SOL    HW118095   4.051   2.272   6.215  0.9166 -1.2704 -0.7556
 2292SOL    HW218096   4.178   2.293   6.115 -0.9788 -0.6282 -3.0635
 2293SOL     OW18097   2.150   3.508   3.887  0.0231 -0.5876  0.3147
 2293SOL    HW118098   2.233   3.472   3.928 -0.5057  0.0570  2.0276
 2293SOL    HW218099   2.173   3.573   3.815  1.0065 -0.1043  1.0622
 2294SOL     OW18100   2.925   1.413   0.525 -0.1215 -0.5811  0.3861
 2294SOL    HW118101   2.915   1.511   0.541 -0.0762 -0.4854 -0.1648
 2294SOL    HW218102   2.946   1.396   0.429  0.7379 -1.0730  0.6473
 2295SOL     OW18103   9.063   4.680   0.487  0.0610 -0.3338  0.5124
 2295SOL    HW118104   8.999   4.755   0.498  1.3222  1.0559 -1.2612
 2295SOL    HW218105   9.119   4.696   0.405  1.2680 -2.5162  0.8803
 2296SOL     OW18106   7.240   2.300   7.898  0.4613  0.2051  0.0095
 2296SOL    HW118107   7.299   2.219   7.892  1.3882  0.8101  0.7402
 2296SOL    HW218108   7.151   2.280   7.857  0.2160 -1.6035  1.3838
 2297SOL     OW18109   0.266   8.742   0.546  0.4505  0.2168  0.1179
 2297SOL    HW118110   0.281   8.673   0.617  1.0523  1.1209  0.8839
 2297SOL    HW218111   0.333   8.816   0.557 -0.0792  0.8402 -0.7990
 2298SOL     OW18112   7.747   4.254   0.338  0.3856  0.2592  0.5256
 2298SOL    HW118113   7.750   4.348   0.303  0.6631 -0.2391 -0.8152
 2298SOL    HW218114   7.730   4.191   0.262  0.5773 -0.8098  1.3612
 2299SOL     OW18115   3.200   0.248   4.304 -0.5583 -0.0370  0.4210
 2299SOL    HW118116   3.219   0.342   4.333 -1.0170  0.3497 -0.5090
 2299SOL    HW218117   3.279   0.190   4.326  0.3275  0.8628 -0.3248
 2300SOL     OW18118   0.245   9.340   1.417 -0.1910  0.5166 -0.2933
 2300SOL    HW118119   0.167   9.383   1.371  0.3264  0.5857 -1.0983
 2300SOL    HW218120   0.263   9.251   1.377 -0.5267  0.0375  0.6064
 2301SOL     OW18121   9.209   9.017   6.352  0.1345 -0.2061  0.1652
 2301SOL    HW118122   9.146   9.037   6.277  1.4211 -0.2488 -0.9492
 2301SOL    HW218123   9.281   9.087   6.354 -1.3147  1.2439  2.9723
 2302SOL     OW18124   3.732   6.203   1.243  0.4328 -0.4578 -0.0547
 2302SOL    HW118125   3.754   6.124   1.186  0.4480 -1.8717  1.8708
 2302SOL    HW218126   3.807   6.221   1.306  1.1605  2.1585 -1.5780
 2303SOL     OW18127   7.154   9.478   3.436  0.6734 -0.0989  0.4494
 2303SOL    HW118128   7.132   9.546   3.506  0.8601  0.8882 -0.4429
 2303SOL    HW218129   7.219   9.412   3.473 -1.4472 -1.3081  2.1637
 2304SOL     OW18130   9.590   8.938   4.056  0.4062 -0.4508 -0.5010
 2304SOL    HW118131   9.662   8.989   4.103 -1.7773  1.1949  1.1508
 2304SOL    HW218132   9.533   8.892   4.124  0.3288 -2.3786 -1.8367
 2305SOL     OW18133   9.959   9.119   4.887 -0.1485  0.6452  0.3617
 2305SOL    HW118134   9.940   9.209   4.927 -1.5194  0.9622 -0.9323
 2305SOL    HW218135   9.929   9.048   4.950 -0.2924  1.1179  0.8277
 2306SOL     OW18136   9.763   2.326   6.631 -0.0578 -0.8163  0.6330
 2306SOL    HW118137   9.842   2.384   6.611 -0.3494 -1.0412 -1.2653
 2306SOL    HW218138   9.697   2.378   6.687 -0.3191  0.7114 -1.0288
 2307SOL     OW18139   3.248   0.001   0.196  0.3011 -0.1050 -0.1599
 2307SOL    HW118140   3.150  -0.016   0.190  0.1249  0.6660  0.5256
 2307SOL    HW218141   3.265   0.099   0.209  1.0953 -0.4414  1.4033
 2308SOL     OW18142   5.412   7.701   2.862 -0.0077 -0.0212 -0.3218
 2308SOL    HW118143   5.374   7.611   2.882 -0.6550  0.7484  1.9991
 2308SOL    HW218144   5.344   7.756   2.812 -1.0614  0.4666  1.5893
 2309SOL     OW18145   1.428   7.323   5.150  0.4406  0.4853  0.7242
 2309SOL    HW118146   1.328   7.329   5.151  0.4108 -0.0771  1.3154
 2309SOL    HW218147   1.466   7.405   5.193  0.2002  0.0444  1.7853
 2310SOL     OW18148   1.911   0.808   2.468 -0.2665  0.0862  0.3917
 2310SOL    HW118149   1.949   0.775   2.555 -0.2046  0.5221  0.5305
 2310SOL    HW218150   1.889   0.905   2.476  1.0292  0.4681 -0.5029
 2311SOL     OW18151   9.754   8.266   5.747 -0.1161 -0.4195  0.2302
 2311SOL    HW118152   9.772   8.309   5.659 -0.9359 -2.3753 -0.9204
 2311SOL    HW218153   9.841   8.256   5.797  0.5692 -0.6670 -0.9910
 2312SOL     OW18154   7.670   6.344   3.556  0.3005 -0.0249  0.1133
 2312SOL    HW118155   7.753   6.294   3.535 -0.5717 -0.7912 -1.5660
 2312SOL    HW218156   7.598   6.280   3.584 -0.9678  0.1845 -2.5394
 2313SOL     OW18157   8.228   2.129   5.899  0.2708  0.6004  0.0735
 2313SOL    HW118158   8.225   2.219   5.855  0.7398  0.7292  0.3006
 2313SOL    HW218159   8.178   2.063   5.843 -1.3253  1.3097  0.6179
 2314SOL     OW18160   9.570   5.622   3.194  0.3160 -0.4841  0.4159
 2314SOL    HW118161   9.599   5.604   3.100 -0.3215  0.7096 -0.0252
 2314SOL    HW218162   9.471   5.617   3.200  0.3205 -0.0449  0.9012
 2315SOL     OW18163   7.102   0.108   0.923  0.3880  0.4858  0.1933
 2315SOL    HW118164   7.187   0.104   0.975 -1.0013  0.4179  2.5127
 2315SOL    HW218165   7.024   0.095   0.984 -1.3868  1.9333 -1.6777
 2316SOL     OW18166   2.755   3.918   5.004  0.4635 -0.1139  0.5506
 2316SOL    HW118167   2.664   3.958   5.012  0.9023  1.0352 -0.0416
 2316SOL    HW218168   2.750   3.833   4.952 -0.1665  0.3810 -0.2201
 2317SOL     OW18169   7.468   7.457   3.274 -0.0779 -0.0620  0.5309
 2317SOL    HW118170   7.416   7.537   3.305 -0.2137 -0.0957  0.3904
 2317SOL    HW218171   7.565   7.471   3.293  0.1468  0.9887 -1.2567
 2318SOL     OW18172   9.953   1.326   2.192 -1.1067  0.5840  0.0931
 2318SOL    HW118173   9.913   1.323   2.100 -2.3276  0.1633  0.6231
 2318SOL    HW218174   9.978   1.420   2.215 -1.2780  0.7662 -0.4659
 2319SOL     OW18175   5.633   5.868   0.910  0.2267 -0.0712  0.2704
 2319SOL    HW118176   5.611   5.937   0.840  1.3084 -0.8632 -0.8596
 2319SOL    HW218177   5.550   5.819   0.935 -0.2524  0.5372 -0.1027
 2320SOL     OW18178   7.967   6.960   2.061  0.0722 -0.1906 -0.0158
 2320SOL    HW118179   7.964   6.869   2.019 -0.7032 -1.3290  2.4592
 2320SOL    HW218180   8.054   7.004   2.039  0.7057 -1.7717 -0.7259
 2321SOL     OW18181   3.979   2.370   4.021  0.0570  0.2302 -0.1874
 2321SOL    HW118182   4.014   2.277   4.009 -0.4709 -0.0202  0.1928
 2321SOL    HW218183   3.995   2.423   3.938  3.9024  0.9738  0.9100
 2322SOL     OW18184   9.809   7.434   5.907  0.0591 -0.0504  0.0024
 2322SOL    HW118185   9.838   7.367   5.839  1.3349  0.3250  0.1594
 2322SOL    HW218186   9.836   7.404   5.998  0.2070  0.4417  0.1263
 2323SOL     OW18187   2.377   1.781   0.170 -0.6231  0.5613  0.2254
 2323SOL    HW118188   2.390   1.800   0.268  1.8606  0.0364  0.0095
 2323SOL    HW218189   2.437   1.839   0.116 -2.2538  1.1114 -1.0481
 2324SOL     OW18190   3.215   4.679   0.482  0.0167  0.3535 -0.2658
 2324SOL    HW118191   3.278   4.757   0.491  0.0715  0.3917 -0.9284
 2324SOL    HW218192   3.190   4.646   0.572  0.8182  0.4843  0.0067
 2325SOL     OW18193   2.125   6.064   2.891  0.1389 -1.0018 -0.4415
 2325SOL    HW118194   2.040   6.034   2.934 -0.0018  1.0775  0.7915
 2325SOL    HW218195   2.103   6.120   2.810  0.3861 -3.0753 -1.9834
 2326SOL     OW18196   2.962   5.327   3.349 -0.3257 -0.1836  0.1068
 2326SOL    HW118197   3.024   5.251   3.332 -0.3850 -0.2676  0.2638
 2326SOL    HW218198   2.996   5.382   3.424 -0.7209 -0.5422  0.5528
 2327SOL     OW18199   1.260   4.446   3.298 -0.0664 -0.4427  0.2517
 2327SOL    HW118200   1.187   4.512   3.287 -0.7852 -1.2186  0.3124
 2327SOL    HW218201   1.228   4.370   3.355  1.0282 -0.4087  0.9254
 2328SOL     OW18202   8.620   7.588   2.180 -0.0880 -0.2695  0.3128
 2328SOL    HW118203   8.611   7.613   2.083  0.6363 -1.2002  0.0049
 2328SOL    HW218204   8.530   7.560   2.215  0.0067 -1.7303 -0.5908
 2329SOL     OW18205   3.636   2.303   4.409 -0.4217 -0.1783  0.1284
 2329SOL    HW118206   3.566   2.369   4.439  1.4200  2.1325 -0.4991
 2329SOL    HW218207   3.630   2.293   4.309  0.8963  0.9903 -0.0910
 2330SOL     OW18208   4.825   4.325   0.945 -0.3720 -0.2572  0.1709
 2330SOL    HW118209   4.918   4.336   0.981  0.2233 -0.8423 -1.1888
 2330SOL    HW218210   4.818   4.371   0.857 -0.5479 -2.6616 -1.0965
 2331SOL     OW18211   3.488   5.938   4.505 -0.5610  0.3984  0.1752
 2331SOL    HW118212   3.493   6.037   4.492  0.2956  0.3443  0.0908
 2331SOL    HW218213   3.562   5.909   4.565 -1.2008 -0.1056  0.7292
 2332SOL     OW18214   4.392   9.939   2.806 -0.2867  0.0385 -0.5627
 2332SOL    HW118215   4.463   9.984   2.751 -0.4054  0.7101 -0.1736
 2332SOL    HW218216   4.303   9.952   2.763 -0.0106 -2.0834 -1.8540
 2333SOL     OW18217   0.437   4.278   5.425 -0.8014  0.2393  0.3712
 2333SOL    HW118218   0.407   4.324   5.341 -1.7300  2.0985  1.6892
 2333SOL    HW218219   0.363   4.219   5.459 -0.8696  0.4067  0.5166
 2334SOL     OW18220   2.266   5.419   1.156 -0.1638  0.5715 -0.6552
 2334SOL    HW118221   2.309   5.371   1.079  1.2242  0.8460 -0.0767
 2334SOL    HW218222   2.168   5.425   1.141 -0.3547 -2.2598 -0.8451
 2335SOL     OW18223   2.714   4.089   1.962 -0.1368 -0.0923 -0.0951
 2335SOL    HW118224   2.682   4.148   1.887  0.2943 -1.1638 -1.1389
 2335SOL    HW218225   2.684   4.128   2.049  0.2244  1.7255 -0.7414
 2336SOL     OW18226   8.201   8.680   2.266 -0.2352 -0.2197  0.5076
 2336SOL    HW118227   8.187   8.763   2.213  2.0516  0.4512  0.8804
 2336SOL    HW218228   8.246   8.703   2.353  1.7635 -1.9649 -0.0098
 2337SOL     OW18229   5.043   8.677   6.512 -0.5553  0.4145 -0.0999
 2337SOL    HW118230   5.125   8.646   6.559 -1.1229  0.5932  1.0307
 2337SOL    HW218231   5.039   8.636   6.421 -0.0462 -0.8766  0.4496
 2338SOL     OW18232   2.085   9.655   0.348  0.1919 -0.3920 -0.1339
 2338SOL    HW118233   2.124   9.596   0.418  1.3661 -0.6540 -0.9909
 2338SOL    HW218234   2.124   9.746   0.355 -1.7047  0.3481  1.2592
 2339SOL     OW18235   3.787   6.368   2.772 -0.1661 -0.2191  0.2176
 2339SOL    HW118236   3.781   6.268   2.775 -1.6574 -0.1970 -0.9627
 2339SOL    HW218237   3.801   6.397   2.677  1.1358  0.6672  0.6702
 2340SOL     OW18238   4.733   6.936   0.782 -0.0832  0.3536  0.4853
 2340SOL    HW118239   4.717   6.864   0.715 -1.8199  1.5033 -0.3628
 2340SOL    HW218240   4.710   7.025   0.742  0.5975  1.2433  2.0096
 2341SOL     OW18241   2.876   3.891   2.050  0.1455 -0.2893  0.1195
 2341SOL    HW118242   2.816   3.971   2.051  1.3823  0.6685 -0.8168
 2341SOL    HW218243   2.848   3.828   1.977 -0.8039 -0.7130  0.8330
 2342SOL     OW18244   0.157   3.524   5.624 -0.2470  0.0308 -0.4605
 2342SOL    HW118245   0.221   3.592   5.587 -0.0074 -0.3878 -0.8161
 2342SOL    HW218246   0.199   3.479   5.703 -0.9325  1.2356  0.5988
 2343SOL     OW18247   9.485   9.923   3.711 -0.2833  0.3386  0.0017
 2343SOL    HW118248   9.422   9.969   3.649  0.1250  0.4858 -0.3052
 2343SOL    HW218249   9.579   9.941   3.683 -0.1016  0.1412  0.4729
 2344SOL     OW18250   9.138   8.650   1.633 -0.0191  0.2655 -0.1498
 2344SOL    HW118251   9.158   8.553   1.647  0.2326  0.2223 -0.7930
 2344SOL    HW218252   9.127   8.695   1.722  1.1305 -0.0893  0.1797
 2345SOL     OW18253   3.984   8.099   1.716  0.6081  0.0981 -0.3033
 2345SOL    HW118254   4.074   8.079   1.676  1.3974 -0.1149  1.5266
 2345SOL    HW218255   3.981   8.195   1.742  0.2333  0.1432 -0.5148
 2346SOL     OW18256   4.000   0.958   2.411 -0.3878 -0.0664 -0.0272
 2346SOL    HW118257   4.077   0.931   2.468 -1.0644 -3.0236 -0.4200
 2346SOL    HW218258   4.032   1.016   2.337  0.6703  2.8389  2.6212
 2347SOL     OW18259   4.609   8.982   6.061 -0.1054 -0.1641 -0.1329
 2347SOL    HW118260   4.586   8.947   6.152  1.9787 -1.3597 -0.0405
 2347SOL    HW218261   4.564   8.926   5.992 -1.6272  0.6967  0.1384
 2348SOL     OW18262   1.696   9.189   1.841 -0.2213  0.3000 -0.4853
 2348SOL    HW118263   1.729   9.250   1.769 -1.3465  0.8182 -0.5709
 2348SOL    HW218264   1.603   9.159   1.819  0.2784 -1.3894 -0.4028
 2349SOL     OW18265   4.180   4.802   8.065  0.2586 -0.1724 -0.2294
 2349SOL    HW118266   4.106   4.755   8.016 -0.4747  1.1696 -0.4265
 2349SOL    HW218267   4.148   4.829   8.156  0.7370 -0.2023 -0.0510
 2350SOL     OW18268   6.809   4.091   1.438  0.0950  0.1102 -0.5646
 2350SOL    HW118269   6.900   4.087   1.480  1.0715  0.8361 -2.5534
 2350SOL    HW218270   6.760   4.171   1.471  0.8164  0.6182 -0.7175
 2351SOL     OW18271   7.428   5.002   2.985 -0.1048 -0.1481 -0.1065
 2351SOL    HW118272   7.342   5.053   2.992  0.6559  1.1644 -0.0813
 2351SOL    HW218273   7.475   5.027   2.900  1.3507  0.9186  0.9775
 2352SOL     OW18274   7.747   8.868   3.544  0.1565  0.1858 -0.7255
 2352SOL    HW118275   7.671   8.834   3.599  0.0496 -0.0988 -1.0504
 2352SOL    HW218276   7.805   8.792   3.515  0.6694  0.4174 -0.3270
 2353SOL     OW18277   6.463   9.561   5.874  0.1107  0.2652  0.0426
 2353SOL    HW118278   6.557   9.527   5.868  0.6865  1.6904  0.6946
 2353SOL    HW218279   6.462   9.644   5.930 -1.4147  0.7320 -0.6626
 2354SOL     OW18280   3.974   8.846   6.259 -0.3557  0.2273  0.0621
 2354SOL    HW118281   3.888   8.892   6.235 -0.4651 -0.0144 -0.0180
 2354SOL    HW218282   3.953   8.755   6.295 -0.1245  0.1265 -0.0618
 2355SOL     OW18283   0.231   7.344   2.294 -0.5154  0.0193 -0.3433
 2355SOL    HW118284   0.241   7.250   2.262  0.8818  0.7089 -1.9832
 2355SOL    HW218285   0.154   7.387   2.247 -0.1856  0.1805 -0.7328
 2356SOL     OW18286   0.490   2.009   0.752 -0.3879 -0.2232  0.6283
 2356SOL    HW118287   0.518   2.097   0.789  0.8438 -0.0499 -0.6832
 2356SOL    HW218288   0.529   1.936   0.808  1.6863  0.0368 -0.4167
 2357SOL     OW18289   0.476   0.618   2.565  0.4229  0.1052 -0.2753
 2357SOL    HW118290   0.515   0.578   2.648 -0.2783 -0.8118 -0.3795
 2357SOL    HW218291   0.543   0.615   2.492  0.8921  0.5032  0.1403
 2358SOL     OW18292   1.442   0.206   5.650 -0.0650  0.4547  0.1423
 2358SOL    HW118293   1.377   0.250   5.712 -0.9489  0.7576 -0.9929
 2358SOL    HW218294   1.418   0.226   5.555  2.2452  1.3882 -0.2876
 2359SOL     OW18295   2.950   4.130   0.264  0.2074 -0.2762  0.6726
 2359SOL    HW118296   3.000   4.052   0.227 -0.8605 -0.5698 -0.1910
 2359SOL    HW218297   2.990   4.158   0.351  1.9429 -0.4242 -0.0580
 2360SOL     OW18298   0.443   6.505   1.026  0.1420  0.4646  0.3685
 2360SOL    HW118299   0.460   6.533   0.932 -2.2587  0.5808 -0.0581
 2360SOL    HW218300   0.381   6.571   1.070 -0.3618 -0.6622  1.3741
 2361SOL     OW18301   3.545   5.385   1.644  0.0805 -0.5614 -0.3825
 2361SOL    HW118302   3.535   5.469   1.697  1.3635 -1.0790  0.6971
 2361SOL    HW218303   3.536   5.406   1.547 -0.3528  0.6969 -0.0774
 2362SOL     OW18304   8.876   3.309   6.300  0.4016  0.8341 -0.1525
 2362SOL    HW118305   8.891   3.407   6.313  1.9858  0.6173 -0.2157
 2362SOL    HW218306   8.923   3.258   6.372 -1.0187  0.1303  0.3073
 2363SOL     OW18307   4.786   9.570   5.649  0.1928 -0.1561  0.2185
 2363SOL    HW118308   4.732   9.549   5.730  1.2619  0.2290  1.0447
 2363SOL    HW218309   4.879   9.595   5.676  0.4276  0.4513 -1.0882
 2364SOL     OW18310   2.858   0.570   6.408 -0.4367  0.2249 -0.1033
 2364SOL    HW118311   2.809   0.649   6.445 -0.5287 -0.1852  0.6762
 2364SOL    HW218312   2.798   0.519   6.347 -1.7997 -1.5328  2.5765
 2365SOL     OW18313   3.446   0.606   4.485  0.2281  0.0162  0.3927
 2365SOL    HW118314   3.355   0.567   4.468  0.2947  0.1994 -0.4202
 2365SOL    HW218315   3.493   0.552   4.554  1.1725 -2.7384 -2.2622
 2366SOL     OW18316   6.759   8.520   3.657  0.6804  0.1746  0.1163
 2366SOL    HW118317   6.677   8.463   3.663  1.0125 -0.1079  2.2145
 2366SOL    HW218318   6.805   8.502   3.570  0.4410 -2.3244  0.4571
 2367SOL     OW18319   8.789   8.797   4.283 -0.4250  0.7519 -0.5413
 2367SOL    HW118320   8.840   8.845   4.354  2.3197 -2.2689 -0.3545
 2367SOL    HW218321   8.702   8.765   4.320  0.2010  0.7318  0.9521
 2368SOL     OW18322   1.624   1.323   4.923  0.0321  0.0730  0.3268
 2368SOL    HW118323   1.550   1.278   4.872  0.6383 -1.7964  1.0400
 2368SOL    HW218324   1.710   1.275   4.905  0.8801  1.5677  0.3517
 2369SOL     OW18325   2.068   9.419   4.603  0.2730 -0.4220  0.4829
 2369SOL    HW118326   2.039   9.456   4.515  0.0123 -1.2353  0.2189
 2369SOL    HW218327   2.146   9.358   4.589  1.4672  0.9580  1.0649
 2370SOL     OW18328   7.472   0.432   2.123 -0.3845  0.1973  0.1889
 2370SOL    HW118329   7.507   0.460   2.212  0.0112  0.4771 -0.0510
 2370SOL    HW218330   7.445   0.513   2.071  1.8293  0.2387 -0.9535
 2371SOL     OW18331   2.335   6.003   1.855  0.0598  0.1860  0.2541
 2371SOL    HW118332   2.327   6.088   1.804  1.3280  0.6386  0.7716
 2371SOL    HW218333   2.432   5.976   1.858 -0.2875 -1.0665  0.4245
 2372SOL     OW18334   4.284   5.574   3.954 -0.1296  0.1508 -0.0118
 2372SOL    HW118335   4.218   5.584   3.879 -1.0136  0.7387  0.8374
 2372SOL    HW218336   4.257   5.633   4.030  0.4619 -0.8392  0.9783
 2373SOL     OW18337   1.363   8.070   5.215  0.4579  0.2183 -0.1538
 2373SOL    HW118338   1.381   8.039   5.121 -0.4976  0.6223 -0.4732
 2373SOL    HW218339   1.413   8.155   5.232  2.0718 -0.7984  0.3072
 2374SOL     OW18340   8.061   3.655   4.465 -0.1135  0.3865  0.3083
 2374SOL    HW118341   8.128   3.716   4.507 -2.0844  1.9549  1.3065
 2374SOL    HW218342   8.101   3.611   4.386  2.4363  0.4265  1.5281
 2375SOL     OW18343   9.840   4.727   5.018  0.2537 -0.0718 -0.0262
 2375SOL    HW118344   9.817   4.818   5.053  0.7063 -0.3134  0.9399
 2375SOL    HW218345   9.819   4.722   4.921 -0.6901  0.7513  0.1253
 2376SOL     OW18346   4.185   3.332   0.080  0.4097 -0.5480 -0.1841
 2376SOL    HW118347   4.129   3.251   0.060  0.8761 -0.7429 -0.7167
 2376SOL    HW218348   4.269   3.328   0.027  1.3426 -0.6976  1.2683
 2377SOL     OW18349   8.196   3.635   2.943 -0.0034  0.8571  0.2307
 2377SOL    HW118350   8.259   3.707   2.916  0.8399 -0.0512 -0.2920
 2377SOL    HW218351   8.140   3.608   2.864 -0.3815  0.9994  0.4481
 2378SOL     OW18352   8.407   0.198   1.543  0.7219 -0.1210  0.0658
 2378SOL    HW118353   8.404   0.295   1.519  1.5468 -0.6460 -2.3300
 2378SOL    HW218354   8.356   0.145   1.476  0.5946 -1.3980  1.1400
 2379SOL     OW18355   8.174   7.098   6.472 -0.3032 -0.1827  0.1182
 2379SOL    HW118356   8.077   7.076   6.472 -0.2622 -0.3952 -0.7320
 2379SOL    HW218357   8.221   7.044   6.542 -0.6094 -0.9554 -0.2701
 2380SOL     OW18358   8.669   2.208   1.312 -0.5397 -0.3064  0.5381
 2380SOL    HW118359   8.726   2.239   1.236 -0.5929 -1.3793  0.0587
 2380SOL    HW218360   8.577   2.188   1.278 -1.0848  0.9423  1.2184
 2381SOL     OW18361   4.938   1.188   3.316  0.4445  0.1351 -0.1979
 2381SOL    HW118362   5.006   1.235   3.260  1.0600 -0.1845  0.2673
 2381SOL    HW218363   4.846   1.219   3.291  0.7116 -0.0189 -1.3815
 2382SOL     OW18364   9.214   8.429   4.500 -0.5270  0.1760 -0.1373
 2382SOL    HW118365   9.282   8.488   4.456  1.6345 -1.6423  0.6596
 2382SOL    HW218366   9.179   8.473   4.582  0.8588  0.4691  0.3047
 2383SOL     OW18367   3.373   3.485   5.373 -0.4152  0.1637 -0.2921
 2383SOL    HW118368   3.459   3.454   5.413 -0.8389 -1.0119 -0.2734
 2383SOL    HW218369   3.382   3.580   5.345  1.4875 -0.4450 -1.9004
 2384SOL     OW18370   1.037   8.411   1.676  0.6172 -0.0625 -0.2145
 2384SOL    HW118371   0.983   8.397   1.760 -2.9075 -0.6910 -2.4723
 2384SOL    HW218372   1.088   8.328   1.655  0.4507 -0.3776  0.5818
 2385SOL     OW18373   0.766   2.469   4.926 -0.0849 -0.0347  0.2552
 2385SOL    HW118374   0.668   2.460   4.909  0.0965 -0.8906 -0.3688
 2385SOL    HW218375   0.816   2.448   4.842  0.6153  0.7932  0.4620
 2386SOL     OW18376   9.433   4.406   2.427  0.0677 -0.0932  0.1341
 2386SOL    HW118377   9.351   4.442   2.473  0.0409 -1.1866  0.9505
 2386SOL    HW218378   9.414   4.395   2.329 -0.9593 -0.9159  0.4233
 2387SOL     OW18379   1.724   6.111   1.241  0.7725  0.4694  0.3616
 2387SOL    HW118380   1.702   6.050   1.317  1.5186  0.3791  0.5136
 2387SOL    HW218381   1.816   6.089   1.208  0.3359  0.2923 -0.7666
 2388SOL     OW18382   2.967   6.399   3.553  0.2585  0.4280 -0.1885
 2388SOL    HW118383   2.992   6.494   3.538 -0.1107  0.4503 -0.6617
 2388SOL    HW218384   3.018   6.363   3.632 -1.6029  1.7842  1.6687
 2389SOL     OW18385   2.697   0.456   3.880 -0.1142 -0.2437  0.4760
 2389SOL    HW118386   2.685   0.556   3.884 -2.0631 -0.4926  1.9409
 2389SOL    HW218387   2.628   0.413   3.939  0.1990 -2.4996 -0.7757
 2390SOL     OW18388   7.148   0.926   8.164  0.0882  0.2293 -0.0433
 2390SOL    HW118389   7.120   0.841   8.206  1.1481 -0.1964 -0.1756
 2390SOL    HW218390   7.248   0.929   8.158  0.0244  1.0434 -0.9224
 2391SOL     OW18391   4.007   0.136   1.591  0.1707  0.1280 -0.2027
 2391SOL    HW118392   3.935   0.070   1.612  0.0394  0.2337 -0.3254
 2391SOL    HW218393   4.035   0.127   1.496  0.9014 -0.4789  0.0615
 2392SOL     OW18394   7.336   2.067   1.336 -0.0829  0.1445  0.4660
 2392SOL    HW118395   7.316   2.118   1.419  0.2899  2.5288 -0.8607
 2392SOL    HW218396   7.279   2.100   1.261  0.9077 -0.6677 -0.6834
 2393SOL     OW18397   0.634   2.128   5.205  0.0718 -0.2094  0.0051
 2393SOL    HW118398   0.731   2.122   5.182 -0.2867 -0.0765 -1.6421
 2393SOL    HW218399   0.621   2.113   5.303  1.7173 -0.5393  0.1795
 2394SOL     OW18400   9.714   1.226   0.639 -0.1581 -0.0593  0.4081
 2394SOL    HW118401   9.664   1.144   0.611  0.6775 -0.6757  0.6909
 2394SOL    HW218402   9.651   1.303   0.646 -0.6238 -0.1650 -1.9635
 2395SOL     OW18403   8.699   4.990   1.434 -0.1827 -0.0586 -0.0420
 2395SOL    HW118404   8.623   4.996   1.369 -0.9805 -1.4836  0.7287
 2395SOL    HW218405   8.769   4.928   1.398  0.1589  0.4751 -0.3029
 2396SOL     OW18406   4.735   1.961   1.322  0.2822 -0.1501  0.0227
 2396SOL    HW118407   4.637   1.953   1.343  0.3763 -0.6082  0.2824
 2396SOL    HW218408   4.745   1.996   1.229 -0.1260  0.9513  0.3820
 2397SOL     OW18409   0.551   1.539   3.098  0.5140 -0.0440 -0.1031
 2397SOL    HW118410   0.538   1.469   3.027  0.3800 -0.2899  0.1653
 2397SOL    HW218411   0.581   1.625   3.055 -0.6722  0.1376 -0.5758
 2398SOL     OW18412   9.720   0.128   1.580  0.4511  0.0341 -0.4142
 2398SOL    HW118413   9.744   0.158   1.487 -1.1394 -0.6059 -1.0476
 2398SOL    HW218414   9.715   0.208   1.640  1.7544  0.4248 -0.7984
 2399SOL     OW18415   2.537   3.880   3.416  0.1510  0.7573  0.2180
 2399SOL    HW118416   2.628   3.839   3.426 -0.7449 -2.5093 -3.4541
 2399SOL    HW218417   2.467   3.810   3.433 -1.5697  2.1294 -1.0039
 2400SOL     OW18418   0.883   7.021   1.090 -0.0048  0.5529 -0.0551
 2400SOL    HW118419   0.850   7.098   1.143  0.4697 -0.0974  1.2201
 2400SOL    HW218420   0.966   6.985   1.133 -0.2877 -0.7318 -0.5608
 2401SOL     OW18421   0.647   9.027   3.411  0.4951 -0.2756  0.3980
 2401SOL    HW118422   0.743   9.053   3.408  0.5536 -0.5415  0.0394
 2401SOL    HW218423   0.625   8.995   3.504  0.8325 -0.5279  0.3928
 2402SOL     OW18424   8.296   5.657   5.929  1.0527  0.0718  0.3303
 2402SOL    HW118425   8.323   5.698   5.841 -1.3084 -2.3917 -1.6520
 2402SOL    HW218426   8.359   5.583   5.952  1.2936  0.2904  0.3689
 2403SOL     OW18427   1.214   2.486   1.117  0.4724 -0.2490  0.3952
 2403SOL    HW118428   1.260   2.572   1.140 -0.7145  0.5347 -0.1480
 2403SOL    HW218429   1.216   2.472   1.018 -0.0274 -0.4722  0.4176
 2404SOL     OW18430   0.333   3.973   5.538  0.3036 -0.2587 -0.3210
 2404SOL    HW118431   0.258   4.039   5.549 -1.0535 -1.6093 -1.2746
 2404SOL    HW218432   0.408   3.997   5.600 -1.2753  0.5863  1.3100
 2405SOL     OW18433   6.255   5.366   0.264  0.2051  0.2602 -0.2095
 2405SOL    HW118434   6.265   5.332   0.358 -0.8803  1.7864  0.4834
 2405SOL    HW218435   6.325   5.325   0.206  2.0067  0.6335  1.6495
 2406SOL     OW18436   2.028   6.509   3.765  0.1656 -0.2383 -0.7225
 2406SOL    HW118437   1.946   6.453   3.758 -0.3172  0.4315 -0.5179
 2406SOL    HW218438   2.105   6.461   3.723 -0.6349 -0.2628 -2.1896
 2407SOL     OW18439   7.022   8.246   6.177  0.9841  0.0808  0.6742
 2407SOL    HW118440   7.087   8.302   6.126  2.7301 -2.0818  0.4635
 2407SOL    HW218441   6.979   8.302   6.248  1.8038  1.9743 -0.2800
 2408SOL     OW18442   6.264   7.603   5.692  0.1636  0.4405  0.3524
 2408SOL    HW118443   6.287   7.676   5.756  1.5913  0.6438 -0.3624
 2408SOL    HW218444   6.302   7.625   5.601 -3.8309  1.3007 -1.1866
 2409SOL     OW18445   2.430   4.066   1.536  0.2038  0.0486 -0.5410
 2409SOL    HW118446   2.471   4.007   1.467 -3.1219 -1.5737 -1.2211
 2409SOL    HW218447   2.365   4.014   1.590 -1.6058  2.6916 -0.0652
 2410SOL     OW18448   9.768   7.006   1.379 -0.7019 -0.3707 -0.2433
 2410SOL    HW118449   9.686   7.061   1.396  0.9199  1.8071  0.8151
 2410SOL    HW218450   9.782   6.944   1.456 -0.3813  0.5280  0.4341
 2411SOL     OW18451   1.096   1.278   0.905  0.1782 -0.0358 -0.5508
 2411SOL    HW118452   1.073   1.182   0.921  0.8273 -0.0561  0.2710
 2411SOL    HW218453   1.018   1.335   0.932 -1.0633 -0.4554 -3.1337
 2412SOL     OW18454   7.684   1.849   1.957 -0.6099  0.2754 -0.3402
 2412SOL    HW118455   7.618   1.852   1.881 -3.4311  0.3815  2.0154
 2412SOL    HW218456   7.688   1.756   1.994  0.1289  0.4152 -0.0633
 2413SOL     OW18457   3.645   0.800   3.730  0.3880 -0.5492 -0.2937
 2413SOL    HW118458   3.735   0.770   3.762 -0.1755 -2.5821 -0.5124
 2413SOL    HW218459   3.616   0.741   3.654 -1.4183 -0.3447  0.2206
 2414SOL     OW18460   5.694   2.285   4.544  0.7824 -0.2012 -0.1440
 2414SOL    HW118461   5.650   2.372   4.567  0.1322 -0.2532 -1.1196
 2414SOL    HW218462   5.771   2.302   4.482  1.5658 -0.1900  0.8372
 2415SOL     OW18463   5.490   1.742   5.600  0.1687  0.0030 -0.7108
 2415SOL    HW118464   5.416   1.785   5.548 -0.0362  0.3661 -0.1285
 2415SOL    HW218465   5.480   1.765   5.697 -0.3460 -1.9071 -0.2789
 2416SOL     OW18466   8.092   5.209   0.787  0.4238 -0.7149  0.2761
 2416SOL    HW118467   8.035   5.225   0.868 -1.6374 -2.8109 -0.6818
 2416SOL    HW218468   8.102   5.295   0.736 -1.8964 -0.2688  0.4950
 2417SOL     OW18469   3.300   9.539   3.284  0.0692  0.5212  0.5317
 2417SOL    HW118470   3.248   9.461   3.251 -0.5307  1.0113  0.3092
 2417SOL    HW218471   3.275   9.559   3.379  1.2242 -0.4019  1.0494
 2418SOL     OW18472   9.637   8.056   0.736  0.1095  0.1464 -0.2784
 2418SOL    HW118473   9.548   8.068   0.781  0.9334  1.0477  1.1272
 2418SOL    HW218474   9.642   8.118   0.657 -0.7003 -0.2738 -0.6722
 2419SOL     OW18475   7.296   3.281   4.477 -0.6328  0.1441  0.5312
 2419SOL    HW118476   7.217   3.341   4.492 -0.3930  0.7287 -0.4913
 2419SOL    HW218477   7.272   3.187   4.501 -1.9121  0.1760 -0.5701
 2420SOL     OW18478   0.444   1.064   5.231 -0.2386 -0.7198  0.1911
 2420SOL    HW118479   0.431   1.151   5.280  0.8868 -0.9207  0.8757
 2420SOL    HW218480   0.542   1.043   5.227 -0.3203 -0.7360 -2.1120
 2421SOL     OW18481   6.696   0.564   7.214  0.0607  0.0662  0.1556
 2421SOL    HW118482   6.615   0.580   7.158 -0.4142  0.7892  1.0330
 2421SOL    HW218483   6.764   0.513   7.161 -0.7221 -0.0133 -0.7814
 2422SOL     OW18484   9.429   8.028   1.292  0.1296 -0.2386  0.1776
 2422SOL    HW118485   9.485   7.952   1.325 -1.6000 -2.1354 -1.0838
 2422SOL    HW218486   9.487   8.096   1.248  1.3973 -2.5841 -1.9240
 2423SOL     OW18487   8.358   4.869   5.125 -0.5679 -0.2827 -0.5148
 2423SOL    HW118488   8.265   4.840   5.149  0.1663 -1.0437  1.5267
 2423SOL    HW218489   8.422   4.836   5.194  1.2674  0.0741 -1.9958
 2424SOL     OW18490   8.402   4.789   3.796  0.0605  0.0148 -0.0101
 2424SOL    HW118491   8.481   4.846   3.817  1.8577 -2.5175  0.3074
 2424SOL    HW218492   8.382   4.796   3.698  1.1844  0.0339 -0.2442
 2425SOL     OW18493   8.184   5.949   6.058  0.4222 -0.4249  0.2270
 2425SOL    HW118494   8.220   5.857   6.045 -0.1207 -0.4351 -1.3643
 2425SOL    HW218495   8.085   5.944   6.075  0.2609 -0.1059 -0.5780
 2426SOL     OW18496   3.152   5.889   1.224 -0.1337 -0.3034  0.0239
 2426SOL    HW118497   3.249   5.915   1.219  0.8049 -3.5865 -0.1801
 2426SOL    HW218498   3.114   5.883   1.132 -0.2471  0.0543  0.0496
 2427SOL     OW18499   1.982   1.164   1.460 -0.1651 -0.4240 -0.0565
 2427SOL    HW118500   1.980   1.252   1.412  3.5439 -0.5768 -0.5848
 2427SOL    HW218501   1.971   1.179   1.558 -1.3107  0.4288 -0.2992
 2428SOL     OW18502   3.103   9.236   2.931 -0.1099  0.0947 -0.3094
 2428SOL    HW118503   3.016   9.201   2.965  0.4680 -1.8950 -0.7973
 2428SOL    HW218504   3.117   9.205   2.836  0.6083  1.3468 -0.6270
 2429SOL     OW18505   1.418   3.992   1.383  0.6735  0.4368 -0.2849
 2429SOL    HW118506   1.433   4.066   1.317 -2.1264  0.8579 -0.5147
 2429SOL    HW218507   1.384   4.029   1.469 -0.3399 -0.5362 -0.2514
 2430SOL     OW18508   1.200   9.421   5.391 -0.2657  0.1632 -0.7722
 2430SOL    HW118509   1.190   9.379   5.481 -0.5410  1.6906 -0.0738
 2430SOL    HW218510   1.114   9.412   5.340  0.1127 -1.3270 -1.1701
 2431SOL     OW18511   0.704   1.360   0.683 -0.0523  0.1141  0.1815
 2431SOL    HW118512   0.613   1.329   0.710  0.3030 -2.4043 -1.3361
 2431SOL    HW218513   0.758   1.380   0.764 -0.6882 -2.1949  1.2155
 2432SOL     OW18514   9.757   0.920   5.888  0.6568  0.1918 -0.2159
 2432SOL    HW118515   9.715   0.908   5.798 -0.7493 -2.1910  0.7163
 2432SOL    HW218516   9.817   1.000   5.887  0.8659  0.0304 -3.3279
 2433SOL     OW18517   1.475   4.882   0.550  0.4835  0.1176 -0.0741
 2433SOL    HW118518   1.452   4.880   0.647 -1.1200  0.7577 -0.4313
 2433SOL    HW218519   1.518   4.796   0.523  2.8036  0.6995  1.6460
 2434SOL     OW18520   6.878   3.491   0.112 -0.0526 -0.0428  0.0478
 2434SOL    HW118521   6.947   3.562   0.127 -1.2004  0.9378  0.7718
 2434SOL    HW218522   6.867   3.477   0.013  0.5968  0.3665 -0.0889
 2435SOL     OW18523   2.497   1.927   1.577  0.7691 -0.1110  0.3245
 2435SOL    HW118524   2.448   1.898   1.659  0.8833  1.2109  0.8732
 2435SOL    HW218525   2.595   1.914   1.592  0.8909  1.4530  0.9485
 2436SOL     OW18526   7.918   3.176   0.139  0.2227  0.3726 -0.0452
 2436SOL    HW118527   7.835   3.189   0.086  0.1917  0.8465  0.1230
 2436SOL    HW218528   7.920   3.240   0.215  1.5013  1.4857 -0.9733
 2437SOL     OW18529   8.593   6.306   6.005 -0.2147  0.3225  0.6084
 2437SOL    HW118530   8.629   6.300   6.098 -1.5207  1.3642  1.2046
 2437SOL    HW218531   8.496   6.280   6.005 -0.4196  1.0512 -0.3127
 2438SOL     OW18532   9.013   3.104   2.874 -0.3589 -0.5666  0.0964
 2438SOL    HW118533   8.960   3.160   2.938 -2.1621 -2.5016  0.3585
 2438SOL    HW218534   9.090   3.157   2.838 -0.7387  1.3229  2.0153
 2439SOL     OW18535   3.815   1.328   3.906 -0.3445  0.3353 -0.2460
 2439SOL    HW118536   3.894   1.269   3.894 -2.2422 -2.3487  0.1111
 2439SOL    HW218537   3.782   1.323   4.000  0.5233  3.3877  0.2796
 2440SOL     OW18538   3.707   0.122   2.968  0.4245 -0.6015 -0.4919
 2440SOL    HW118539   3.645   0.141   3.045  1.3368  0.3437  0.0168
 2440SOL    HW218540   3.800   0.110   3.003  0.9577  0.4954 -1.5201
 2441SOL     OW18541   8.730   1.146   1.061 -0.3254 -0.0013 -0.2645
 2441SOL    HW118542   8.723   1.109   1.153  0.1333 -1.5744 -0.8477
 2441SOL    HW218543   8.655   1.210   1.045 -2.7475 -2.6898 -0.1286
 2442SOL     OW18544   6.625   8.091   3.540 -0.3723 -0.2803 -0.3841
 2442SOL    HW118545   6.643   8.060   3.633  0.1700 -2.3610 -1.1615
 2442SOL    HW218546   6.526   8.101   3.527 -0.4751 -0.3649  0.2834
 2443SOL     OW18547   4.279   3.763   3.115 -0.3147 -0.0149  0.1691
 2443SOL    HW118548   4.329   3.785   3.030  0.3112 -1.8910  0.0424
 2443SOL    HW218549   4.288   3.840   3.179 -0.3321  1.1948 -1.2433
 2444SOL     OW18550   1.207   9.092   6.063  0.2971 -0.3919 -0.2483
 2444SOL    HW118551   1.301   9.116   6.038  0.8164 -1.9266  0.1503
 2444SOL    HW218552   1.169   9.030   5.994 -0.7389  0.9073 -0.8614
 2445SOL     OW18553   9.210   0.356   4.812 -0.2400 -0.5204 -0.1123
 2445SOL    HW118554   9.130   0.302   4.837  0.6654 -1.2361  1.2863
 2445SOL    HW218555   9.266   0.303   4.748 -2.4466  1.2261 -3.6428
 2446SOL     OW18556   1.667   8.092   1.839 -0.0987  0.0056 -0.2743
 2446SOL    HW118557   1.706   8.049   1.757 -1.2268  0.4543 -1.0627
 2446SOL    HW218558   1.580   8.048   1.861  0.5582 -0.6053  1.1268
 2447SOL     OW18559   8.081   6.484   2.854  0.0935 -0.3236  0.5719
 2447SOL    HW118560   8.005   6.544   2.828 -0.4138 -0.6754  1.2143
 2447SOL    HW218561   8.085   6.407   2.790  0.9752  0.5813 -0.4715
 2448SOL     OW18562   7.108   3.770   3.220  0.3848 -0.1641 -0.3197
 2448SOL    HW118563   7.206   3.783   3.206  0.2863 -0.5331 -1.4545
 2448SOL    HW218564   7.092   3.729   3.310  1.4899 -2.6278 -1.1860
 2449SOL     OW18565   0.626   8.575   0.600  0.2322 -0.1127 -1.2674
 2449SOL    HW118566   0.625   8.493   0.543  0.1835  0.3553 -1.9468
 2449SOL    HW218567   0.681   8.558   0.682  0.9720 -0.5356 -1.8390
 2450SOL     OW18568   2.710   3.524   5.983  0.2285 -0.0230 -0.1929
 2450SOL    HW118569   2.754   3.458   6.044  0.1030  0.1439  0.0812
 2450SOL    HW218570   2.613   3.503   5.977  0.2412 -0.0390 -0.3357
 2451SOL     OW18571   8.387   5.913   1.869  0.4300 -0.2692 -0.3112
 2451SOL    HW118572   8.461   5.980   1.866 -1.0355  1.4655  1.0877
 2451SOL    HW218573   8.424   5.823   1.893  1.9480  0.7746  1.3597
 2452SOL     OW18574   7.090   3.550   3.052  0.3926  0.0488  0.2667
 2452SOL    HW118575   7.101   3.642   3.091  0.3503  1.5013 -2.9647
 2452SOL    HW218576   7.040   3.492   3.117  0.8825  2.1271  2.5942
 2453SOL     OW18577   9.853   5.722   1.637  0.4244 -0.6804 -0.0179
 2453SOL    HW118578   9.865   5.645   1.573  0.3843 -0.9514  0.2999
 2453SOL    HW218579   9.793   5.694   1.712  0.3124 -0.2998  0.0351
 2454SOL     OW18580   8.531   9.021   0.483 -0.1069  0.1751 -0.2217
 2454SOL    HW118581   8.607   8.971   0.442 -0.5319 -0.0324 -0.7617
 2454SOL    HW218582   8.466   8.956   0.523 -0.3813  0.3184 -0.4323
 2455SOL     OW18583   9.273   0.945   2.630 -0.3269  0.5736 -0.0981
 2455SOL    HW118584   9.259   1.024   2.571  0.7525  0.2947 -0.7420
 2455SOL    HW218585   9.361   0.953   2.677  0.3899 -0.8053 -1.1224
 2456SOL     OW18586   7.793   0.816   4.915 -0.0571 -0.4064 -0.4048
 2456SOL    HW118587   7.848   0.733   4.923 -1.4757 -1.3000  0.1497
 2456SOL    HW218588   7.846   0.894   4.948  1.2470 -1.0913 -0.8419
 2457SOL     OW18589   1.747   2.617   1.811 -0.7533 -0.1892  0.1706
 2457SOL    HW118590   1.665   2.605   1.866 -2.3385  4.1017 -0.9833
 2457SOL    HW218591   1.723   2.613   1.714  0.2331  1.8645 -0.1867
 2458SOL     OW18592   6.757   2.299   0.278  0.3292  0.1497  0.3641
 2458SOL    HW118593   6.811   2.381   0.261  0.3316  0.7197  2.9940
 2458SOL    HW218594   6.735   2.293   0.375  0.2180 -2.8998  0.1883
 2459SOL     OW18595   9.489   6.506   1.088  0.2219  0.2473 -0.1726
 2459SOL    HW118596   9.547   6.441   1.137  0.3238 -0.0202 -0.6419
 2459SOL    HW218597   9.395   6.473   1.087  0.4971 -0.5326 -1.4962
 2460SOL     OW18598   8.368   2.659   1.457 -0.4650 -0.0084  0.1310
 2460SOL    HW118599   8.437   2.591   1.480 -1.2019 -0.2571  1.6866
 2460SOL    HW218600   8.382   2.690   1.363  1.9993  0.2732  0.5628
 2461SOL     OW18601   8.727   2.993   3.496 -0.3786 -0.0806  0.4536
 2461SOL    HW118602   8.791   2.953   3.431 -1.0578  0.5170 -0.6026
 2461SOL    HW218603   8.767   3.075   3.537 -0.0583 -0.3087  0.6056
 2462SOL     OW18604   7.400   0.865   3.867  0.1696 -0.0536 -0.5107
 2462SOL    HW118605   7.440   0.888   3.778 -0.9325 -0.3170 -1.0800
 2462SOL    HW218606   7.343   0.783   3.859 -1.0358  0.7027  0.1403
 2463SOL     OW18607   2.225   6.205   3.319  0.1446 -0.5998 -0.5456
 2463SOL    HW118608   2.299   6.143   3.345 -0.0885  0.1206  1.9515
 2463SOL    HW218609   2.146   6.190   3.377 -0.1112  1.6441 -0.2408
 2464SOL     OW18610   0.939   7.801   1.612 -0.4251  0.3186  0.8000
 2464SOL    HW118611   1.036   7.778   1.605  0.0104  2.0022  1.0536
 2464SOL    HW218612   0.893   7.776   1.527 -0.0606 -1.7098  1.1612
 2465SOL     OW18613   0.733   7.618   2.592 -0.6991  0.2577  0.4739
 2465SOL    HW118614   0.640   7.584   2.597 -0.5114 -0.2782  0.3515
 2465SOL    HW218615   0.733   7.709   2.551 -1.3134  0.9034  1.8804
 2466SOL     OW18616   6.521   1.448   1.945 -0.7454 -0.4804 -0.1307
 2466SOL    HW118617   6.492   1.397   1.865  0.8038 -2.5637  0.6104
 2466SOL    HW218618   6.552   1.539   1.917 -2.5344 -0.2856 -1.5760
 2467SOL     OW18619   0.892   0.203   5.954  0.1690 -0.0994  0.3400
 2467SOL    HW118620   0.958   0.168   6.021 -0.0728 -0.7693  0.2308
 2467SOL    HW218621   0.939   0.261   5.888  1.0428 -2.2634 -1.0001
 2468SOL     OW18622   2.170   2.062   3.706  0.2765 -0.2616 -0.0359
 2468SOL    HW118623   2.198   1.977   3.663 -2.8778 -1.3551 -0.0102
 2468SOL    HW218624   2.118   2.042   3.789  0.7741  1.7162  0.7785
 2469SOL     OW18625   4.053   8.822   3.913 -0.4992  0.0153  0.1186
 2469SOL    HW118626   4.045   8.922   3.915 -1.9497 -0.0962  0.7618
 2469SOL    HW218627   4.131   8.794   3.970  1.2019  0.8785 -1.7285
 2470SOL     OW18628   7.698   9.197   6.009  0.1216  0.1239  0.2581
 2470SOL    HW118629   7.732   9.158   5.923  1.6416  0.7612  0.5560
 2470SOL    HW218630   7.599   9.183   6.015 -0.0715  0.4688 -1.8045
 2471SOL     OW18631   8.355   7.384   5.969 -0.1194 -0.2428 -0.1752
 2471SOL    HW118632   8.341   7.404   6.066 -2.4783  1.7177 -0.8713
 2471SOL    HW218633   8.324   7.291   5.949 -2.3011  0.3257  0.4339
 2472SOL     OW18634   8.125   1.684   4.582  0.4655 -0.1174  0.1439
 2472SOL    HW118635   8.051   1.623   4.552 -0.1768  1.3281 -1.2921
 2472SOL    HW218636   8.087   1.774   4.602  1.7686  0.4575  0.0378
 2473SOL     OW18637   5.588   9.967   7.265 -0.0354 -0.0036 -0.4361
 2473SOL    HW118638   5.548   9.910   7.336  2.5343  1.3306  2.1505
 2473SOL    HW218639   5.540  10.055   7.262  0.5901  0.3790  0.4789
 2474SOL     OW18640   3.336   7.893   3.740  0.0761 -0.4255  0.3698
 2474SOL    HW118641   3.294   7.867   3.827 -0.9779  2.0391  0.6318
 2474SOL    HW218642   3.345   7.812   3.683 -0.5810 -1.8335  2.1884
 2475SOL     OW18643   5.514   0.369   1.907  0.2637 -0.4909  0.3663
 2475SOL    HW118644   5.569   0.383   1.824 -0.2418 -0.0661  0.1001
 2475SOL    HW218645   5.475   0.277   1.905 -0.5460 -0.1359 -0.3442
 2476SOL     OW18646   2.926   0.328   2.358  0.1283  0.6572 -0.4026
 2476SOL    HW118647   3.023   0.351   2.355  0.1826  0.3348 -1.1009
 2476SOL    HW218648   2.900   0.308   2.453  0.8029  0.5016 -0.2462
 2477SOL     OW18649   8.009   5.749   2.113 -0.0197 -0.1229 -0.6307
 2477SOL    HW118650   7.996   5.819   2.042 -0.2822 -0.2238 -0.6817
 2477SOL    HW218651   8.094   5.700   2.096  0.5932  0.7314 -0.1332
 2478SOL     OW18652   1.084   5.295   0.648  0.5594 -0.7657 -0.8260
 2478SOL    HW118653   1.133   5.248   0.721  0.2564 -0.9956 -0.7729
 2478SOL    HW218654   1.093   5.244   0.562 -2.1106 -2.4163 -0.1667
 2479SOL     OW18655   4.346   2.295   3.690 -0.5369  0.2806  0.4578
 2479SOL    HW118656   4.433   2.301   3.640 -0.8684 -0.1551 -0.1764
 2479SOL    HW218657   4.272   2.330   3.633 -0.7560  0.8052  1.0618
 2480SOL     OW18658   2.247   0.777   1.735 -0.0959 -0.5912  0.3767
 2480SOL    HW118659   2.181   0.739   1.799 -2.0946  1.3703 -0.4728
 2480SOL    HW218660   2.338   0.774   1.775 -1.4710  1.8055  3.8648
 2481SOL     OW18661   7.021   0.960   4.132 -0.0052 -0.2547  0.8103
 2481SOL    HW118662   7.008   0.916   4.221  1.4262 -0.1856  1.0598
 2481SOL    HW218663   6.953   1.032   4.121 -0.3965 -0.4767  1.7146
 2482SOL     OW18664   1.571   1.835   3.426  0.1588 -0.3795 -0.2412
 2482SOL    HW118665   1.645   1.893   3.391 -0.7640  1.3792  0.6865
 2482SOL    HW218666   1.492   1.891   3.449 -1.0376 -2.1058 -0.0599
 2483SOL     OW18667   6.442   1.532   4.566 -0.0442  0.3046  0.1745
 2483SOL    HW118668   6.401   1.467   4.630 -0.3391  0.1142 -0.2060
 2483SOL    HW218669   6.538   1.509   4.553  0.0915  0.5190  0.7718
 2484SOL     OW18670   1.008   2.433   0.363  0.4815 -0.0286 -0.0496
 2484SOL    HW118671   1.021   2.527   0.396  1.8879 -0.7897  1.6012
 2484SOL    HW218672   1.044   2.425   0.271 -0.2261  1.2122 -0.4474
 2485SOL     OW18673   7.768   2.304   5.589  0.1233  0.4029 -0.0279
 2485SOL    HW118674   7.818   2.390   5.593  0.2642  0.2727  1.8559
 2485SOL    HW218675   7.685   2.316   5.534 -0.9238  2.3432  1.8679
 2486SOL     OW18676   7.694   8.784   4.431  0.0776  0.2467 -0.1241
 2486SOL    HW118677   7.667   8.873   4.395 -1.8372 -0.7969 -1.3825
 2486SOL    HW218678   7.716   8.792   4.528 -2.8700  1.5698  0.4671
 2487SOL     OW18679   4.404   4.102   3.480 -0.5351  0.2709 -0.3170
 2487SOL    HW118680   4.476   4.042   3.514 -0.2327  0.6540 -0.2865
 2487SOL    HW218681   4.437   4.196   3.475 -1.5218  0.7053  1.1453
 2488SOL     OW18682   2.003   4.090   2.031  0.0473 -0.1045  0.2504
 2488SOL    HW118683   2.074   4.107   1.963 -0.1970 -3.0765 -0.8045
 2488SOL    HW218684   2.034   4.022   2.097 -0.9664  0.3058  1.1903
 2489SOL     OW18685   4.045   9.963   3.406  0.2672  0.7100 -0.4302
 2489SOL    HW118686   4.141   9.987   3.397 -0.3270  3.6334  0.3760
 2489SOL    HW218687   4.026   9.933   3.499  0.3471  0.4830 -0.4887
 2490SOL     OW18688   1.569   0.129   2.506 -0.4907 -0.1148 -0.6052
 2490SOL    HW118689   1.648   0.188   2.525  0.4331 -1.3175 -0.6320
 2490SOL    HW218690   1.501   0.180   2.454 -0.1279  1.2138  0.2062
 2491SOL     OW18691   8.129   2.620   6.647  0.2886  0.2903  0.0877
 2491SOL    HW118692   8.229   2.617   6.653  0.2382 -1.3813  0.3504
 2491SOL    HW218693   8.099   2.574   6.563 -0.2880  0.2225  0.3259
 2492SOL     OW18694   7.428   3.050   1.784 -0.3792 -0.5844 -0.6812
 2492SOL    HW118695   7.482   3.113   1.728 -0.4409 -0.6709 -0.8377
 2492SOL    HW218696   7.454   2.956   1.764  1.0525 -0.5520  0.9193
 2493SOL     OW18697   9.596   9.401   4.966 -0.7499 -0.1918 -0.1028
 2493SOL    HW118698   9.676   9.388   4.907 -0.9408  0.3210 -0.4768
 2493SOL    HW218699   9.624   9.397   5.062 -0.4089 -0.8436 -0.2277
 2494SOL     OW18700   1.389   4.284   4.596 -0.2453 -0.0294  0.3227
 2494SOL    HW118701   1.488   4.285   4.606 -0.2350  0.9236  0.2406
 2494SOL    HW218702   1.360   4.199   4.552  0.5375 -0.2803  0.2888
 2495SOL     OW18703   8.095   2.567   5.690  0.3038  0.3876 -0.6666
 2495SOL    HW118704   8.050   2.576   5.601  0.5495  2.8181 -0.5659
 2495SOL    HW218705   8.182   2.615   5.689  0.8915 -0.6238  0.5141
 2496SOL     OW18706   6.448   2.328   0.449  0.5259 -0.1676  0.0921
 2496SOL    HW118707   6.366   2.384   0.452  0.2917 -0.4825 -0.3437
 2496SOL    HW218708   6.427   2.240   0.408  1.1318 -0.1626 -0.2404
 2497SOL     OW18709   3.066   8.195   2.968 -0.0380 -0.3527 -0.2493
 2497SOL    HW118710   3.132   8.253   3.017 -1.9413  0.5787  1.2843
 2497SOL    HW218711   3.051   8.111   3.019 -0.5052 -0.2907 -0.2886
 2498SOL     OW18712   3.542   4.212   2.362  0.4621  0.4056 -0.0036
 2498SOL    HW118713   3.497   4.170   2.284  2.4086 -0.7527 -0.5563
 2498SOL    HW218714   3.641   4.198   2.355  0.7623  1.1510  2.1549
 2499SOL     OW18715   1.088   3.535   4.720  0.7047 -0.8823 -0.0255
 2499SOL    HW118716   1.123   3.444   4.700  1.3951 -0.2942 -1.5110
 2499SOL    HW218717   0.994   3.543   4.687  0.5859 -1.1027  0.2562
 2500SOL     OW18718   9.981   2.801   3.902 -0.0342  0.1087  0.0732
 2500SOL    HW118719   9.903   2.824   3.843  1.3136 -2.5292 -2.8458
 2500SOL    HW218720  10.064   2.843   3.865  0.9796 -2.3316 -0.5106
 2501SOL     OW18721   1.785   5.037   4.944 -0.1709 -0.3141 -0.0471
 2501SOL    HW118722   1.756   5.064   4.853  1.9847  2.0965 -0.0592
 2501SOL    HW218723   1.866   4.978   4.937  0.1239  0.0447  0.3033
 2502SOL     OW18724   7.532   0.723   2.803  0.0965  0.0232  0.4010
 2502SOL    HW118725   7.465   0.787   2.767  1.5204  0.8246 -0.8685
 2502SOL    HW218726   7.491   0.670   2.878 -1.6034  1.2166  0.3317
 2503SOL     OW18727   7.688   7.252   6.158  0.5902 -0.6136  0.0836
 2503SOL    HW118728   7.682   7.223   6.253  4.5483  2.3206  1.3682
 2503SOL    HW218729   7.629   7.331   6.143  1.7893  0.4531  0.8261
 2504SOL     OW18730   2.598   4.415   4.109  0.2807  0.1961 -0.1191
 2504SOL    HW118731   2.614   4.444   4.203  0.4603  0.6207 -0.2836
 2504SOL    HW218732   2.504   4.437   4.082  0.1894 -0.0400  0.0001
 2505SOL     OW18733   9.053   5.658   3.640 -0.7083  0.3853 -0.1968
 2505SOL    HW118734   9.092   5.731   3.695  1.1065  0.4032 -1.4685
 2505SOL    HW218735   9.048   5.574   3.694  1.3359  0.3220 -0.0906
 2506SOL     OW18736   8.371   8.513   6.267  0.2730 -0.3689  0.2149
 2506SOL    HW118737   8.278   8.498   6.299 -0.2556  0.1305 -1.0444
 2506SOL    HW218738   8.415   8.583   6.324 -0.4595  0.1043  0.2050
 2507SOL     OW18739   9.340   9.625   1.403 -0.4099  0.5178 -0.7641
 2507SOL    HW118740   9.382   9.670   1.482  0.1362 -0.5775 -0.4170
 2507SOL    HW218741   9.242   9.640   1.404 -0.4024  0.5331  0.1207
 2508SOL     OW18742   1.720   2.024   3.857 -0.0538 -0.0692  0.2705
 2508SOL    HW118743   1.744   2.068   3.944 -1.1344 -0.9385  1.0344
 2508SOL    HW218744   1.631   2.058   3.827 -0.9572 -1.7794  0.9266
 2509SOL     OW18745   0.145   4.653   5.019  0.3506 -0.1071 -0.0042
 2509SOL    HW118746   0.151   4.682   5.114  0.4131 -1.1724  0.3271
 2509SOL    HW218747   0.057   4.682   4.981 -0.3590 -1.0840  0.8736
 2510SOL     OW18748   4.409   8.764   6.024  0.0648 -0.2567  0.1321
 2510SOL    HW118749   4.342   8.791   6.093 -0.4397 -0.6967 -0.1846
 2510SOL    HW218750   4.477   8.704   6.065  1.6690  2.1078  1.0432
 2511SOL     OW18751   5.681   2.878   5.086  0.2581  0.3860  0.3768
 2511SOL    HW118752   5.635   2.789   5.092 -1.5148  1.1351 -1.6592
 2511SOL    HW218753   5.779   2.864   5.076 -0.0413 -1.3458 -0.3095
 2512SOL     OW18754   2.690   0.434   1.813  0.2351  0.4305  0.0108
 2512SOL    HW118755   2.692   0.341   1.775 -0.2253  0.4915 -0.1633
 2512SOL    HW218756   2.596   0.469   1.810  0.1533  0.3552  1.3994
 2513SOL     OW18757   7.107   9.320   4.086  0.2489  0.2159  0.7555
 2513SOL    HW118758   7.023   9.353   4.043  1.3183  2.3632  0.1694
 2513SOL    HW218759   7.111   9.352   4.181  0.2393 -0.1503  0.8776
 2514SOL     OW18760   7.966   9.564   0.612 -0.2162  0.0383  0.1785
 2514SOL    HW118761   7.919   9.625   0.676  1.6570  0.1927  1.4713
 2514SOL    HW218762   7.938   9.470   0.630  1.2264 -0.0632  2.1426
 2515SOL     OW18763   9.332   2.817   5.630 -0.1729  0.0499  0.0524
 2515SOL    HW118764   9.418   2.858   5.659  0.7808 -1.2132 -0.9371
 2515SOL    HW218765   9.337   2.717   5.640 -1.1911 -0.1076 -0.8618
 2516SOL     OW18766   7.292   0.622   2.372 -0.3238 -0.0388 -0.4637
 2516SOL    HW118767   7.257   0.531   2.348 -1.2983 -0.2735  1.7321
 2516SOL    HW218768   7.359   0.613   2.445  0.3279  0.9452 -0.9309
 2517SOL     OW18769   8.753   7.295   1.591  0.1842 -0.1729 -0.2911
 2517SOL    HW118770   8.717   7.360   1.524 -1.0571  1.2534  1.7068
 2517SOL    HW218771   8.825   7.338   1.645 -1.5327  0.0384  1.9260
 2518SOL     OW18772   4.631   5.014   0.939 -0.1280 -0.0233 -0.2160
 2518SOL    HW118773   4.616   5.066   0.855  1.7742  2.3753  0.8466
 2518SOL    HW218774   4.711   4.956   0.928  0.2476  0.4482 -0.0279
 2519SOL     OW18775   9.096   8.528   0.634 -0.2291  0.0566  0.0526
 2519SOL    HW118776   9.114   8.524   0.536 -0.4272  1.2610 -0.0441
 2519SOL    HW218777   9.005   8.493   0.653  0.0059 -0.6506 -0.1338
 2520SOL     OW18778   0.489   3.701   3.419  0.3652 -0.0029  0.0754
 2520SOL    HW118779   0.438   3.622   3.384  1.1234 -0.7590  0.6536
 2520SOL    HW218780   0.447   3.734   3.503  0.3285 -0.0951  0.0932
 2521SOL     OW18781   6.086   9.118   2.289  0.1853  0.1452  0.8482
 2521SOL    HW118782   6.179   9.129   2.252 -0.3389  1.5382 -0.1095
 2521SOL    HW218783   6.091   9.071   2.377  1.7297 -0.5182  0.4321
 2522SOL     OW18784   7.996   8.927   2.854  0.6417  0.9433 -0.7251
 2522SOL    HW118785   8.059   8.890   2.921  1.7912  0.6962 -1.9178
 2522SOL    HW218786   8.014   8.886   2.764 -1.3700  0.6908 -1.0466
 2523SOL     OW18787   8.578   1.253   2.212  0.0034 -0.0569 -1.2824
 2523SOL    HW118788   8.661   1.213   2.253 -0.1952  1.0916  0.2967
 2523SOL    HW218789   8.605   1.320   2.143  0.4131  0.4476 -0.6465
 2524SOL     OW18790   1.896   6.767   1.495 -0.2904 -0.3017 -0.1416
 2524SOL    HW118791   1.940   6.784   1.407  1.0497 -1.3878  0.3072
 2524SOL    HW218792   1.855   6.852   1.528  1.9171  0.8786 -0.3210
 2525SOL     OW18793   0.214   7.924   3.595 -0.1391 -0.1872  0.0794
 2525SOL    HW118794   0.114   7.932   3.590 -0.2248 -0.6856  0.8907
 2525SOL    HW218795   0.255   7.971   3.516 -0.9972  0.2629 -0.1103
 2526SOL     OW18796   9.517   0.897   6.054 -0.1674  0.2252  0.6886
 2526SOL    HW118797   9.608   0.900   6.014 -2.3372  0.0350 -4.6778
 2526SOL    HW218798   9.487   0.802   6.061 -0.8882  0.4106  0.1346
 2527SOL     OW18799   6.475   0.048   1.621 -0.0203  0.2100 -0.5652
 2527SOL    HW118800   6.516   0.068   1.532 -1.2675  0.5594 -1.0712
 2527SOL    HW218801   6.396   0.107   1.635 -1.4570 -1.7242 -0.4001
 2528SOL     OW18802   6.197   2.450   5.291 -0.0133  0.0495  0.1747
 2528SOL    HW118803   6.188   2.351   5.299 -1.2220  0.1695  0.3037
 2528SOL    HW218804   6.191   2.492   5.381 -3.7974  0.5785 -0.2555
 2529SOL     OW18805   0.979   5.985   5.437 -0.2088 -0.7659 -0.3542
 2529SOL    HW118806   0.907   6.019   5.499  0.5181 -2.8206  1.7154
 2529SOL    HW218807   1.062   5.966   5.490  1.1213 -0.6268 -2.3433
 2530SOL     OW18808   3.189   9.466   0.498  0.4204 -0.1726 -0.0719
 2530SOL    HW118809   3.165   9.520   0.417  2.4464  3.7549  1.8121
 2530SOL    HW218810   3.262   9.402   0.474 -0.9233 -1.0560 -1.9718
 2531SOL     OW18811   4.960   4.274   2.081 -0.2597  0.0345 -0.9103
 2531SOL    HW118812   5.006   4.328   2.011  0.1312  2.3950  1.1240
 2531SOL    HW218813   5.019   4.198   2.109  0.3306  0.1599 -1.8148
 2532SOL     OW18814   1.069   1.073   0.354 -0.0769  0.1564  0.0295
 2532SOL    HW118815   1.149   1.053   0.411  0.8718  0.2580 -1.2317
 2532SOL    HW218816   1.081   1.030   0.264 -0.5454  1.7783 -0.8316
 2533SOL     OW18817   4.381   9.258   4.306  0.4741  0.0766 -0.6269
 2533SOL    HW118818   4.460   9.296   4.257  1.0847  0.1693  0.4279
 2533SOL    HW218819   4.327   9.203   4.243  1.0456  0.5164 -1.5147
 2534SOL     OW18820   2.494   4.989   3.809  0.1986 -0.0693 -0.4262
 2534SOL    HW118821   2.546   5.050   3.749  0.9238  0.5225  0.7956
 2534SOL    HW218822   2.550   4.964   3.888 -0.9823 -0.3150  0.3445
 2535SOL     OW18823   7.274   0.302   6.770 -0.3219  0.1581  0.9887
 2535SOL    HW118824   7.232   0.368   6.833  1.0253  2.1970 -0.2103
 2535SOL    HW218825   7.283   0.343   6.680 -0.6100 -2.1421 -0.1203
 2536SOL     OW18826   4.049   3.091   2.079 -0.5610 -0.5865 -0.1821
 2536SOL    HW118827   4.124   3.153   2.056 -1.6045  0.1769 -1.6403
 2536SOL    HW218828   4.063   3.054   2.170  1.3900 -0.1639 -0.2898
 2537SOL     OW18829   3.421   4.362   4.094 -0.0687  0.2909 -0.2327
 2537SOL    HW118830   3.343   4.382   4.035 -0.4043  0.5062  0.2705
 2537SOL    HW218831   3.414   4.417   4.178  0.5204  0.1660 -0.0964
 2538SOL     OW18832   1.679   8.807   0.218  0.7620  0.1432 -0.1741
 2538SOL    HW118833   1.698   8.903   0.196  2.9817 -0.5550 -1.4718
 2538SOL    HW218834   1.765   8.757   0.225 -0.3965 -1.8763 -0.0271
 2539SOL     OW18835   5.680   7.697   4.125 -0.6538 -0.0353  0.1268
 2539SOL    HW118836   5.748   7.707   4.197 -3.1349 -0.5243  2.6387
 2539SOL    HW218837   5.725   7.677   4.039  2.3079 -1.2474  1.8965
 2540SOL     OW18838   8.998   6.621   4.529 -0.3599 -0.3439 -1.0524
 2540SOL    HW118839   9.082   6.662   4.494  0.4947 -1.7489 -0.6723
 2540SOL    HW218840   8.966   6.673   4.608  0.6135 -0.3081 -0.6743
 2541SOL     OW18841   4.356   6.241   0.338 -0.5289  0.0701  0.5018
 2541SOL    HW118842   4.294   6.230   0.415  0.5445 -1.1337  1.2164
 2541SOL    HW218843   4.354   6.159   0.281  0.3326  0.0601  0.4800
 2542SOL     OW18844   9.342   5.408   3.811 -0.2363 -0.5197  0.0328
 2542SOL    HW118845   9.376   5.442   3.723  1.2936  0.9135  1.1484
 2542SOL    HW218846   9.243   5.423   3.817  0.0837  1.8812 -0.3408
 2543SOL     OW18847   2.313   1.444   5.171 -0.2477  0.1978  0.8519
 2543SOL    HW118848   2.385   1.512   5.154  0.0644 -0.3660 -0.1494
 2543SOL    HW218849   2.235   1.487   5.215  0.0443  1.1636  0.4263
 2544SOL     OW18850   2.510   4.459   4.652  0.2008  0.4183  0.5583
 2544SOL    HW118851   2.557   4.371   4.654 -0.4068  0.0973  0.6315
 2544SOL    HW218852   2.419   4.450   4.692 -0.0893  0.9454  0.0369
 2545SOL     OW18853   3.076   7.326   3.105  0.0141  0.0562  0.2228
 2545SOL    HW118854   3.012   7.278   3.165 -0.7271 -1.2667 -1.5665
 2545SOL    HW218855   3.069   7.288   3.013  1.9989  1.2221 -0.4320
 2546SOL     OW18856   0.711   2.811   2.992  0.1089  0.1286 -0.5088
 2546SOL    HW118857   0.777   2.752   3.039 -1.4158 -0.0544  1.4958
 2546SOL    HW218858   0.708   2.786   2.895  4.1509  1.2713 -1.0214
 2547SOL     OW18859   3.872   1.123   1.586 -0.6818 -0.0103 -0.1444
 2547SOL    HW118860   3.932   1.053   1.624 -0.8541 -0.7156 -1.1512
 2547SOL    HW218861   3.873   1.117   1.486 -2.4955 -0.0947 -0.1684
 2548SOL     OW18862   9.872   7.669   2.814 -0.6210  0.1793 -0.1644
 2548SOL    HW118863   9.787   7.712   2.782 -0.1240  1.1428 -0.1815
 2548SOL    HW218864   9.850   7.599   2.882 -1.4023  0.6829  0.1047
 2549SOL     OW18865   0.686   2.718   0.987 -0.1211 -0.5823 -0.7544
 2549SOL    HW118866   0.713   2.645   0.924 -0.0793 -1.7466  0.5720
 2549SOL    HW218867   0.766   2.773   1.011  0.5663 -2.2470  0.9168
 2550SOL     OW18868   4.022   8.861   1.933  0.0205 -0.5930 -0.7389
 2550SOL    HW118869   3.926   8.837   1.946  0.0895 -1.1178 -1.1345
 2550SOL    HW218870   4.052   8.828   1.843  0.4618 -0.0928 -0.7750
 2551SOL     OW18871   9.959   3.774   8.137 -0.1759 -0.8304 -0.6112
 2551SOL    HW118872   9.867   3.788   8.174  0.2895 -1.3017  0.7690
 2551SOL    HW218873   9.990   3.857   8.092 -2.1493 -1.3773 -3.0864
 2552SOL     OW18874   2.540   7.731   3.248 -0.8920  0.3794 -0.0655
 2552SOL    HW118875   2.493   7.816   3.273 -0.6936  1.2898 -2.5512
 2552SOL    HW218876   2.586   7.693   3.328 -2.6007  1.5746  1.5183
 2553SOL     OW18877   8.596   1.843   4.678  0.1657 -0.2651  0.2995
 2553SOL    HW118878   8.596   1.937   4.711 -2.9645  0.2705 -1.0289
 2553SOL    HW218879   8.652   1.836   4.596 -1.9477  1.1740 -1.3341
 2554SOL     OW18880   0.217   7.980   1.153 -0.5856 -0.1210  0.2157
 2554SOL    HW118881   0.295   8.030   1.191 -0.5842  0.7477 -0.9052
 2554SOL    HW218882   0.213   7.995   1.054 -2.3012  0.0296  0.2984
 2555SOL     OW18883   2.266   1.223   1.360  0.5179  0.3450 -0.2893
 2555SOL    HW118884   2.181   1.186   1.398  0.7223  0.5582  0.3740
 2555SOL    HW218885   2.329   1.246   1.434  1.0660  0.4079 -0.7695
 2556SOL     OW18886   3.665   1.676   1.603  0.1897 -0.0667  0.6106
 2556SOL    HW118887   3.755   1.655   1.567  0.5852 -0.2676  1.6761
 2556SOL    HW218888   3.622   1.593   1.637  0.4740  0.3331  2.0009
 2557SOL     OW18889   7.527   0.014   6.066  0.7451  0.5436  0.5408
 2557SOL    HW118890   7.623   0.007   6.094  0.0238  0.6188  3.1094
 2557SOL    HW218891   7.476  -0.064   6.101 -0.0253  0.1482 -1.3960
 2558SOL     OW18892   7.547   1.411   4.858  0.2761  0.4638  0.3614
 2558SOL    HW118893   7.485   1.485   4.883 -0.5405  0.3316 -1.2496
 2558SOL    HW218894   7.502   1.348   4.795  1.1317 -1.1494  1.3221
 2559SOL     OW18895   7.488   2.850   2.473  0.3288  1.0127  0.0594
 2559SOL    HW118896   7.481   2.933   2.527  0.0772  1.5065 -0.7208
 2559SOL    HW218897   7.470   2.770   2.531  1.7739  1.4133  1.0817
 2560SOL     OW18898   9.506   8.476   3.242 -0.0268 -0.3418  0.1768
 2560SOL    HW118899   9.418   8.465   3.289 -0.7396 -0.4383 -1.1615
 2560SOL    HW218900   9.517   8.404   3.174  0.9575 -0.1536  0.1244
 2561SOL     OW18901   1.678   3.553   1.141  0.5712 -0.0231  0.4852
 2561SOL    HW118902   1.692   3.593   1.232 -0.7114 -0.1674  0.7514
 2561SOL    HW218903   1.624   3.615   1.085 -1.3322 -1.2854  0.8623
 2562SOL     OW18904   0.559   3.876   4.143  0.0626 -0.3232 -0.2280
 2562SOL    HW118905   0.525   3.840   4.056  1.7564  0.1582 -1.1071
 2562SOL    HW218906   0.648   3.919   4.129  1.3601 -2.1090  2.1290
 2563SOL     OW18907   3.576   0.298   0.604 -0.4070 -0.0662 -0.1188
 2563SOL    HW118908   3.503   0.243   0.563 -0.3035 -1.0230  0.9666
 2563SOL    HW218909   3.647   0.239   0.641 -0.8025  0.7064  2.0206
 2564SOL     OW18910   1.742   2.521   5.844  0.1530 -0.0825 -0.0223
 2564SOL    HW118911   1.743   2.422   5.830  0.4514 -0.2303  0.9450
 2564SOL    HW218912   1.826   2.561   5.806  0.6958 -0.3947  0.8289
 2565SOL     OW18913   0.863   6.485   5.363 -0.5249 -0.8576 -0.2217
 2565SOL    HW118914   0.780   6.525   5.324  0.7034  0.7733 -1.2431
 2565SOL    HW218915   0.841   6.398   5.407 -3.1124  0.5247  1.3171
 2566SOL     OW18916   1.125   0.968   3.161  0.0071 -0.2082 -0.0591
 2566SOL    HW118917   1.037   0.925   3.140 -0.3504  0.3536  0.2926
 2566SOL    HW218918   1.163   0.928   3.244 -1.0249  1.1919  1.0880
 2567SOL     OW18919   4.783   9.898   2.979 -0.0611 -0.4145 -0.4747
 2567SOL    HW118920   4.808   9.893   2.882 -2.3483 -0.3831 -1.1117
 2567SOL    HW218921   4.812   9.815   3.025  1.0716 -0.4263 -1.1946
 2568SOL     OW18922   1.360   8.652   2.371 -0.0334 -0.3360 -0.8140
 2568SOL    HW118923   1.378   8.555   2.357 -0.0087 -0.4932  0.2619
 2568SOL    HW218924   1.446   8.703   2.365  0.5191 -0.8334  2.2438
 2569SOL     OW18925   1.016   1.468   0.250  0.1809 -0.8108  0.3965
 2569SOL    HW118926   1.044   1.386   0.200  0.9124  0.1735 -0.8363
 2569SOL    HW218927   0.973   1.441   0.336 -0.1809 -2.5026 -0.2942
 2570SOL     OW18928   5.206   5.986   0.422 -0.6423  0.3182  0.8696
 2570SOL    HW118929   5.229   6.058   0.357 -1.2253  0.0287  0.3423
 2570SOL    HW218930   5.220   6.020   0.515  2.0576  0.1045  0.5821
 2571SOL     OW18931   0.648   5.290   5.185 -0.1768 -0.2210  0.2276
 2571SOL    HW118932   0.720   5.279   5.254 -0.6846  1.4902  1.0495
 2571SOL    HW218933   0.662   5.223   5.112  2.7432  0.5831 -0.0349
 2572SOL     OW18934   8.857   3.023   2.381 -0.0260 -0.9083  0.0300
 2572SOL    HW118935   8.828   2.966   2.458  0.9123 -0.7688  0.4924
 2572SOL    HW218936   8.957   3.025   2.376 -0.0879 -1.3033 -1.4880
 2573SOL     OW18937   6.865   1.024   1.411  0.3454  0.1840 -0.1250
 2573SOL    HW118938   6.851   1.074   1.496 -0.5570 -0.0585 -0.1170
 2573SOL    HW218939   6.803   0.946   1.409  3.4079 -2.3882  0.9704
 2574SOL     OW18940   2.934   2.275   6.003  0.1175  0.1222 -0.1931
 2574SOL    HW118941   2.897   2.210   6.069  1.6052 -2.4455 -1.8381
 2574SOL    HW218942   3.013   2.322   6.043 -1.6748  1.9037  1.4351
 2575SOL     OW18943   3.920   8.854   6.672  0.7387 -0.1877  0.0501
 2575SOL    HW118944   3.991   8.891   6.612 -1.2562  0.9833 -1.6379
 2575SOL    HW218945   3.963   8.801   6.745  3.3730  0.9613 -0.6027
 2576SOL     OW18946   0.606   8.877   5.758 -0.0913  0.0713  0.0352
 2576SOL    HW118947   0.693   8.915   5.789  0.0440  0.0995 -0.3718
 2576SOL    HW218948   0.619   8.835   5.668 -0.1635 -1.2139  0.6148
 2577SOL     OW18949   9.829   8.213   1.452 -0.5755  0.0144 -0.2715
 2577SOL    HW118950   9.916   8.164   1.443 -0.8879 -0.6544  0.2744
 2577SOL    HW218951   9.839   8.285   1.521 -0.1981  0.5246 -0.8600
 2578SOL     OW18952   8.201   7.486   4.754  0.0495  0.1208 -0.0744
 2578SOL    HW118953   8.252   7.522   4.832 -0.4061  1.6757 -0.4593
 2578SOL    HW218954   8.121   7.434   4.786  1.7501 -2.1811  0.5239
 2579SOL     OW18955   0.516   1.723   6.123  0.0679  0.7811  0.1598
 2579SOL    HW118956   0.484   1.818   6.131 -0.4619  0.7222 -1.0768
 2579SOL    HW218957   0.512   1.695   6.027  0.6314 -0.3583  0.4614
 2580SOL     OW18958   2.241   9.047   5.309 -0.3570 -0.2939 -0.4696
 2580SOL    HW118959   2.180   9.117   5.272  0.4030 -0.2025 -1.5860
 2580SOL    HW218960   2.243   8.969   5.246 -1.2814 -1.3839  0.8155
 2581SOL     OW18961   8.911   1.792   3.190 -0.7689  0.5476  0.0401
 2581SOL    HW118962   8.828   1.793   3.246 -0.3102  1.4556  0.7216
 2581SOL    HW218963   8.886   1.795   3.093 -1.5000  2.0885  0.2708
 2582SOL     OW18964   6.449   1.844   0.471  0.0772  0.1903 -0.1461
 2582SOL    HW118965   6.476   1.751   0.446 -1.3460 -0.5130  0.8692
 2582SOL    HW218966   6.375   1.874   0.411  0.1980  0.4840 -0.1485
 2583SOL     OW18967   2.860   7.222   1.751  0.9730  0.2912  0.4377
 2583SOL    HW118968   2.862   7.279   1.669  0.8582 -1.4877 -0.8165
 2583SOL    HW218969   2.946   7.171   1.758 -0.6657 -2.7763 -0.9096
 2584SOL     OW18970   0.529   0.338   3.616  0.7985  0.0430 -0.0729
 2584SOL    HW118971   0.596   0.270   3.588 -1.0966 -2.1589  0.5621
 2584SOL    HW218972   0.572   0.428   3.619  3.8653 -1.3744  0.8643
 2585SOL     OW18973   0.881   2.961   1.718  0.3382  0.2908 -0.4646
 2585SOL    HW118974   0.814   2.964   1.644 -1.1287 -0.3532  0.8175
 2585SOL    HW218975   0.851   3.020   1.793  0.8439 -0.5136  0.3876
 2586SOL     OW18976   6.114   2.930   0.168 -0.5986  0.1739 -0.7634
 2586SOL    HW118977   6.028   2.947   0.119 -0.1129  0.6885 -1.4618
 2586SOL    HW218978   6.191   2.957   0.109 -0.0261  1.7172  0.6442
 2587SOL     OW18979   7.617   3.734   1.940  0.3114 -0.0957 -0.1961
 2587SOL    HW118980   7.607   3.739   1.841  0.5649  2.8477 -0.1249
 2587SOL    HW218981   7.574   3.650   1.974  0.4176 -1.2442 -2.7870
 2588SOL     OW18982   3.600   2.098   0.573 -0.7634 -0.1635  0.1256
 2588SOL    HW118983   3.592   2.197   0.583  2.9401  0.2953 -0.9494
 2588SOL    HW218984   3.644   2.059   0.653 -1.0002 -0.7964 -0.0447
 2589SOL     OW18985   9.656   9.562   2.552  0.2354 -0.4658  0.0237
 2589SOL    HW118986   9.680   9.502   2.628  0.0213  0.3073  0.7169
 2589SOL    HW218987   9.656   9.657   2.584 -1.9988 -0.3032 -0.3896
 2590SOL     OW18988   2.689   1.177   1.685  0.7345 -0.0860  0.5732
 2590SOL    HW118989   2.737   1.117   1.748  0.1559  0.2870  1.3757
 2590SOL    HW218990   2.670   1.265   1.730 -0.6958 -0.2274  0.2673
 2591SOL     OW18991   8.468   8.915   4.567  0.5031  0.0535  0.6359
 2591SOL    HW118992   8.439   8.911   4.471  1.9246 -2.0745  0.2552
 2591SOL    HW218993   8.400   8.966   4.620 -0.4771  0.9753 -1.4214
 2592SOL     OW18994   9.339   1.226   5.064  0.6947 -0.5726  0.5074
 2592SOL    HW118995   9.273   1.257   5.132  1.7326 -0.9444  1.7166
 2592SOL    HW218996   9.364   1.302   5.005  1.9993  0.5211  2.4188
 2593SOL     OW18997   6.624   0.004   3.264  0.1363 -0.5693 -0.4183
 2593SOL    HW118998   6.561  -0.028   3.335  1.0596  1.1400  1.1983
 2593SOL    HW218999   6.649   0.099   3.281  0.2706 -0.0670 -3.1409
 2594SOL     OW19000   0.885   7.922   0.930  0.9340  0.0756  0.4770
 2594SOL    HW119001   0.952   7.988   0.896  0.8611  0.0283  0.2345
 2594SOL    HW219002   0.862   7.942   1.025 -0.1997  1.3052 -0.0463
 2595SOL     OW19003   4.029   2.125   6.335  0.2201 -0.4714  0.0591
 2595SOL    HW119004   4.017   2.037   6.288  2.5752  0.3399 -2.1630
 2595SOL    HW219005   4.108   2.119   6.395 -0.4576 -0.2799  0.9757
 2596SOL     OW19006   2.715   1.169   0.516 -0.0591 -0.3181 -0.2154
 2596SOL    HW119007   2.640   1.173   0.581 -2.0087 -0.5188 -2.4021
 2596SOL    HW219008   2.772   1.251   0.525  0.8137 -1.1770  2.9540
 2597SOL     OW19009   6.003   0.325   4.686  0.0530  0.7213 -0.6726
 2597SOL    HW119010   6.065   0.359   4.757  1.5204  0.0433 -1.6039
 2597SOL    HW219011   5.932   0.392   4.669  0.3725  1.4065  0.6039
 2598SOL     OW19012   8.323   9.598   1.167  0.3676  0.0816 -0.1724
 2598SOL    HW119013   8.271   9.664   1.221 -1.2981 -1.6774  0.4035
 2598SOL    HW219014   8.397   9.560   1.223 -0.3801 -0.5647  0.3936
 2599SOL     OW19015   5.360   5.750   0.975 -0.4203  0.1919  0.3572
 2599SOL    HW119016   5.266   5.759   0.941 -0.7629  0.3999  1.3450
 2599SOL    HW219017   5.359   5.745   1.075  0.6894  1.1836  0.4330
 2600SOL     OW19018   9.613   9.702   4.494 -0.5841  0.1268  0.1843
 2600SOL    HW119019   9.650   9.785   4.451 -2.6929  1.5826  1.1051
 2600SOL    HW219020   9.646   9.696   4.588 -1.7464  0.8147  0.6419
 2601SOL     OW19021   9.387   0.366   2.963 -0.5716  0.0347  0.3988
 2601SOL    HW119022   9.441   0.287   2.990 -0.4508 -0.0751 -0.1489
 2601SOL    HW219023   9.361   0.419   3.044 -0.4423 -0.4276  0.7429
 2602SOL     OW19024   7.512   1.207   4.027 -0.0454  0.8632  0.5435
 2602SOL    HW119025   7.453   1.127   4.014 -0.6917  1.4407 -0.1842
 2602SOL    HW219026   7.478   1.262   4.103 -0.5798  1.3025 -0.0046
 2603SOL     OW19027   1.452   3.984   2.952 -0.2190 -0.0158 -0.1000
 2603SOL    HW119028   1.520   3.912   2.936 -1.2268 -0.8627 -0.5525
 2603SOL    HW219029   1.436   4.035   2.868  0.8878  1.1011  0.3452
 2604SOL     OW19030   3.195   5.975   0.882  0.6019 -0.8397  0.2714
 2604SOL    HW119031   3.105   6.003   0.849  0.8857 -0.0083  0.1738
 2604SOL    HW219032   3.262   5.984   0.808  1.0816  0.2090  0.8177
 2605SOL     OW19033   5.097   0.178   3.656 -0.2342  0.3701  0.0073
 2605SOL    HW119034   5.126   0.089   3.690 -0.6407  0.2479  0.0413
 2605SOL    HW219035   5.177   0.234   3.636  0.0107  0.3737  0.9676
 2606SOL     OW19036   5.164   2.817   4.881 -0.3147  0.4402  0.0608
 2606SOL    HW119037   5.070   2.789   4.897  0.4661 -1.7365  1.0447
 2606SOL    HW219038   5.167   2.887   4.810 -2.5763 -0.0491 -0.5406
 2607SOL     OW19039   0.613   1.088   5.651 -0.1148  0.1855  0.3890
 2607SOL    HW119040   0.538   1.146   5.680  0.9021  0.2786  2.9503
 2607SOL    HW219041   0.597   0.994   5.681 -0.9069 -0.5365 -2.1963
 2608SOL     OW19042   9.016   4.372   0.779  0.4801 -0.6907 -0.3423
 2608SOL    HW119043   9.044   4.350   0.685  2.6643  0.0999  0.0976
 2608SOL    HW219044   9.010   4.472   0.789 -0.9208 -0.8025  0.0473
 2609SOL     OW19045   2.975   6.783   2.899 -0.2094 -0.0908 -0.1265
 2609SOL    HW119046   2.898   6.725   2.925 -0.4011  0.6006  0.8563
 2609SOL    HW219047   3.058   6.727   2.891 -0.3194 -0.4501  1.1764
 2610SOL     OW19048   9.532   8.312   2.971  0.1146 -0.0313  0.3384
 2610SOL    HW119049   9.521   8.245   3.045  0.8255 -0.2333  0.2678
 2610SOL    HW219050   9.611   8.286   2.915 -1.1174 -0.5160 -1.1878
 2611SOL     OW19051   8.802   9.635   3.956 -0.7594  0.3077  0.3090
 2611SOL    HW119052   8.779   9.555   4.012 -2.2158 -1.7808 -3.0533
 2611SOL    HW219053   8.883   9.615   3.900  1.8061  3.0276  2.8964
 2612SOL     OW19054   6.261   8.484   6.295 -0.7702 -0.4515  0.2934
 2612SOL    HW119055   6.274   8.563   6.356  0.6683 -1.5087  1.3768
 2612SOL    HW219056   6.166   8.482   6.264 -1.5709  0.0657  2.5828
 2613SOL     OW19057   2.349   1.517   0.420  0.1754  0.2324 -0.3996
 2613SOL    HW119058   2.263   1.568   0.412  0.0476  0.3354  1.3599
 2613SOL    HW219059   2.330   1.420   0.410 -0.2025  0.2339  0.2257
 2614SOL     OW19060   5.309   8.270   2.618 -0.2453  0.2018 -0.1136
 2614SOL    HW119061   5.379   8.203   2.591 -0.2430 -0.3560  1.2282
 2614SOL    HW219062   5.351   8.340   2.676 -0.8527 -0.2866  0.9190
 2615SOL     OW19063   0.742   7.801   6.318 -0.4954 -0.1457  0.5194
 2615SOL    HW119064   0.811   7.797   6.390 -0.7640 -1.7549  0.6945
 2615SOL    HW219065   0.786   7.788   6.229 -0.5708 -1.1629  0.6305
 2616SOL     OW19066   4.770   9.851   6.610 -0.2051 -0.1901 -0.0546
 2616SOL    HW119067   4.869   9.862   6.603  0.0329 -0.0753  3.0888
 2616SOL    HW219068   4.742   9.770   6.558  1.5783 -0.5253 -0.5279
 2617SOL     OW19069   7.865   6.052   4.303  0.2627  0.6242  0.5360
 2617SOL    HW119070   7.771   6.030   4.329  0.3147  2.0458  2.0127
 2617SOL    HW219071   7.917   5.968   4.290 -0.8945 -0.1506  0.8828
 2618SOL     OW19072   8.572   9.094   3.838 -0.5984 -0.1061  0.0329
 2618SOL    HW119073   8.603   9.156   3.910 -1.3410  1.0617 -0.6344
 2618SOL    HW219074   8.605   9.127   3.749 -1.0633 -0.6309 -0.3381
 2619SOL     OW19075   3.345   5.336   4.064  0.4834  0.7454  0.3219
 2619SOL    HW119076   3.264   5.375   4.108  1.1414  1.4014  0.9764
 2619SOL    HW219077   3.334   5.339   3.965 -0.3512  0.6987  0.4089
 2620SOL     OW19078   7.603   4.816   3.059  0.0864 -0.3943 -0.1019
 2620SOL    HW119079   7.580   4.739   3.000  0.3059  1.3327 -2.5306
 2620SOL    HW219080   7.534   4.888   3.048  0.3166  0.1018  1.5273
 2621SOL     OW19081   7.606   6.385   6.130  0.2966  0.2962  0.1752
 2621SOL    HW119082   7.630   6.293   6.159 -0.8147 -0.4653 -1.2657
 2621SOL    HW219083   7.687   6.430   6.091  1.2312  0.5251  2.3116
 2622SOL     OW19084   4.774   7.872   1.512  0.0282  0.1440  0.5795
 2622SOL    HW119085   4.844   7.916   1.568 -0.8040 -0.0574  1.8096
 2622SOL    HW219086   4.810   7.786   1.476  0.8558  0.6776  0.1256
 2623SOL     OW19087   1.861   3.024   4.149  0.2008  0.8135 -0.0502
 2623SOL    HW119088   1.945   3.038   4.096  0.9706  0.1973  0.9776
 2623SOL    HW219089   1.854   2.927   4.174 -1.0641  0.7721 -0.5174
 2624SOL     OW19090   0.631   9.459   1.779  0.0851 -0.4358 -0.9894
 2624SOL    HW119091   0.656   9.471   1.682  0.4295 -0.8489 -0.9527
 2624SOL    HW219092   0.557   9.392   1.786  0.0091 -0.3509 -0.9748
 2625SOL     OW19093   8.240   5.615   2.091 -0.0732  0.1448 -0.1083
 2625SOL    HW119094   8.250   5.572   2.001 -1.8577  0.4233 -0.4534
 2625SOL    HW219095   8.295   5.565   2.158  1.2340 -0.0889 -1.3311
 2626SOL     OW19096   8.917   2.946   6.258  0.0287 -0.0532 -0.0299
 2626SOL    HW119097   8.935   2.985   6.348 -0.6366 -1.2133  0.6177
 2626SOL    HW219098   8.845   2.999   6.213 -0.4594 -0.1808  0.5974
 2627SOL     OW19099   0.276   8.305   5.497  0.8059  0.0567  0.3510
 2627SOL    HW119100   0.202   8.364   5.466  0.0108 -1.8123 -1.3751
 2627SOL    HW219101   0.274   8.298   5.597 -1.8605 -0.6393  0.2691
 2628SOL     OW19102   8.090   2.161   6.453  0.4108  0.3248 -0.0924
 2628SOL    HW119103   8.155   2.228   6.417  1.6771 -1.5187 -1.4012
 2628SOL    HW219104   8.050   2.195   6.538  1.0451  2.6857 -0.6943
 2629SOL     OW19105   5.783   8.521   5.143  0.0742 -0.2162 -0.2976
 2629SOL    HW119106   5.812   8.593   5.206 -4.0793  2.1834 -0.9543
 2629SOL    HW219107   5.700   8.477   5.178 -0.2402 -1.2899 -2.3151
 2630SOL     OW19108   4.472   5.090   1.952 -0.4267  0.5394 -0.0305
 2630SOL    HW119109   4.375   5.075   1.931 -1.0935  1.0419  2.4785
 2630SOL    HW219110   4.528   5.026   1.900 -2.2188 -0.8616 -0.2901
 2631SOL     OW19111   2.641   7.489   5.652 -0.2502 -0.3553  0.3641
 2631SOL    HW119112   2.712   7.459   5.716 -2.6163 -0.4009  3.0771
 2631SOL    HW219113   2.597   7.572   5.687 -1.8685 -0.5958 -1.0131
 2632SOL     OW19114   5.550   1.186   3.358 -0.9101  0.4035 -0.1366
 2632SOL    HW119115   5.533   1.284   3.350 -1.2480  0.4926  1.4456
 2632SOL    HW219116   5.463   1.137   3.364 -0.7515 -0.0373 -1.3342
 2633SOL     OW19117   9.328   5.074   2.781 -0.1585  0.2678  0.2361
 2633SOL    HW119118   9.349   4.981   2.751 -0.6176  0.5763 -1.1212
 2633SOL    HW219119   9.230   5.082   2.796 -0.1868  0.6629 -0.1482
 2634SOL     OW19120   7.516   5.330   0.823 -0.1970  0.1598 -0.5165
 2634SOL    HW119121   7.571   5.410   0.798  2.1001 -1.9142 -2.3599
 2634SOL    HW219122   7.543   5.298   0.914 -1.9603  2.1246  0.7487
 2635SOL     OW19123   8.638   5.296   5.656  0.0154 -0.7658  0.3508
 2635SOL    HW119124   8.665   5.334   5.568 -0.1044 -0.7128  0.3364
 2635SOL    HW219125   8.553   5.244   5.646 -0.8412  0.5375  0.7337
 2636SOL     OW19126   4.097   7.950   5.948 -0.3332 -0.0067 -0.3539
 2636SOL    HW119127   4.065   7.858   5.972 -0.7983 -0.6467 -3.2513
 2636SOL    HW219128   4.019   8.005   5.918 -0.3906  2.0370  3.2430
 2637SOL     OW19129   3.856   4.900   2.075 -0.1563 -0.1732  0.2004
 2637SOL    HW119130   3.908   4.975   2.036  1.9059 -1.2382  0.8407
 2637SOL    HW219131   3.798   4.934   2.150 -2.8461  1.5657 -2.5637
 2638SOL     OW19132   5.252   6.330   2.423  0.6021  0.3073  0.2053
 2638SOL    HW119133   5.187   6.270   2.376  0.9538  0.8733 -1.0303
 2638SOL    HW219134   5.300   6.278   2.494 -1.9784  0.1548  1.9204
 2639SOL     OW19135   8.801   8.949   0.617 -0.3918  0.0334 -0.5859
 2639SOL    HW119136   8.730   9.014   0.644  0.6199  1.5037 -1.3716
 2639SOL    HW219137   8.786   8.921   0.522 -1.2045 -1.4036 -0.0396
 2640SOL     OW19138   8.030   0.124   0.278 -0.3059  0.0618 -0.0238
 2640SOL    HW119139   7.995   0.167   0.195 -0.5952  1.3877  0.7798
 2640SOL    HW219140   7.954   0.098   0.338 -0.0574  0.0386  0.2867
 2641SOL     OW19141   6.073   1.995   2.793  0.0598  0.1631  0.5023
 2641SOL    HW119142   6.110   1.956   2.709 -0.5190  0.1420  0.2524
 2641SOL    HW219143   6.058   1.921   2.860  1.9815  0.3705  1.2013
 2642SOL     OW19144   6.142   4.187   0.424 -0.4190 -0.0283  0.3440
 2642SOL    HW119145   6.103   4.130   0.352 -0.4029  0.4485 -0.0387
 2642SOL    HW219146   6.216   4.242   0.387 -1.3251  1.2547  0.3942
 2643SOL     OW19147   6.022   5.062   1.443  0.3403  0.2573  0.1318
 2643SOL    HW119148   5.932   5.058   1.485  0.7109  0.7969  1.0059
 2643SOL    HW219149   6.071   5.143   1.476  0.8133  0.4591 -1.0129
 2644SOL     OW19150   6.283   1.340   4.709  0.5294 -0.3870 -0.0232
 2644SOL    HW119151   6.186   1.320   4.692  0.2518  0.2663  0.7684
 2644SOL    HW219152   6.323   1.267   4.765  0.3822 -0.4292  0.0273
 2645SOL     OW19153   2.097   4.716   4.354  0.4971 -0.4584  0.3641
 2645SOL    HW119154   1.998   4.709   4.363  0.4429  0.5106  0.5350
 2645SOL    HW219155   2.123   4.690   4.261 -0.0914  0.9303 -0.2007
 2646SOL     OW19156   0.952   9.500   4.409  0.5141 -0.1296 -0.4555
 2646SOL    HW119157   1.021   9.564   4.442 -0.5858  0.4821  0.6855
 2646SOL    HW219158   0.986   9.407   4.420  1.4878  0.1826 -0.6859
 2647SOL     OW19159   8.868   7.992   1.341 -0.3799  0.0979  0.1177
 2647SOL    HW119160   8.853   8.010   1.244 -0.8978 -0.2048  0.1433
 2647SOL    HW219161   8.963   7.964   1.356 -0.4804 -0.5162 -0.3948
 2648SOL     OW19162   1.065   4.065   5.147 -0.1969 -0.3963 -0.3338
 2648SOL    HW119163   1.007   4.144   5.164 -0.4608 -0.8339  0.8637
 2648SOL    HW219164   1.104   4.071   5.055  1.1860  2.0130  0.3561
 2649SOL     OW19165   1.778   7.817   2.460 -0.1220 -0.1695 -0.1222
 2649SOL    HW119166   1.749   7.894   2.516 -0.0082  0.9710 -1.6080
 2649SOL    HW219167   1.751   7.731   2.503 -1.4676  0.7447  0.8513
 2650SOL     OW19168   9.228   7.232   4.904 -0.4037 -0.0456 -0.4293
 2650SOL    HW119169   9.326   7.215   4.911 -0.1367  1.6470  0.1681
 2650SOL    HW219170   9.208   7.327   4.927 -2.0715 -0.0817 -1.5551
 2651SOL     OW19171   3.544   3.564   5.136  0.6101 -0.5276 -0.2881
 2651SOL    HW119172   3.604   3.551   5.214  0.4761 -0.2044 -0.1312
 2651SOL    HW219173   3.598   3.561   5.051  0.8946  0.1021 -0.1280
 2652SOL     OW19174   9.771   4.201   1.786  0.0483 -0.0262  0.0847
 2652SOL    HW119175   9.708   4.277   1.767 -0.1856 -0.3594 -0.4944
 2652SOL    HW219176   9.770   4.138   1.708 -1.1053 -1.5697  1.3383
 2653SOL     OW19177   1.084   7.117   0.348 -0.4525  0.4181  0.1440
 2653SOL    HW119178   1.179   7.136   0.371 -0.3426 -0.7641  0.6959
 2653SOL    HW219179   1.075   7.023   0.314 -1.5127  0.2976  0.7033
 2654SOL     OW19180   4.625   3.049   4.650 -0.2880 -0.3487 -0.0060
 2654SOL    HW119181   4.685   3.127   4.668 -0.4297 -0.7353  2.3008
 2654SOL    HW219182   4.544   3.079   4.600  0.3419  0.7129 -0.4044
 2655SOL     OW19183   6.864   1.802   5.203  0.2580 -0.2086 -0.3983
 2655SOL    HW119184   6.812   1.746   5.267 -0.5777  1.6233  0.5515
 2655SOL    HW219185   6.945   1.752   5.173 -1.4468 -2.6742 -1.0493
 2656SOL     OW19186   8.080   1.456   5.101 -0.1153 -0.2290 -0.0634
 2656SOL    HW119187   8.041   1.388   5.039 -1.4751  0.3779  0.1086
 2656SOL    HW219188   8.157   1.415   5.151  0.0303 -1.1780 -1.0429
 2657SOL     OW19189   9.236   1.717   4.809 -0.0789 -0.0673 -0.3970
 2657SOL    HW119190   9.311   1.677   4.862 -1.5016  0.1939  1.8783
 2657SOL    HW219191   9.208   1.804   4.850 -2.3812 -0.7212 -0.4995
 2658SOL     OW19192   3.831   0.156   3.440 -0.2864 -0.1499  0.3202
 2658SOL    HW119193   3.790   0.162   3.531  0.3815  0.4437  0.5905
 2658SOL    HW219194   3.847   0.060   3.417  1.4714 -0.2325  1.7186
 2659SOL     OW19195   4.255   9.778   6.857 -0.3494 -0.0297  0.2957
 2659SOL    HW119196   4.309   9.847   6.904  1.8316 -1.1603 -0.5106
 2659SOL    HW219197   4.267   9.786   6.759 -0.9992 -0.8198  0.1384
 2660SOL     OW19198   1.937   1.634   4.716  0.2503  0.1376  0.2183
 2660SOL    HW119199   1.860   1.661   4.774 -0.2130 -1.6323  0.4560
 2660SOL    HW219200   1.987   1.559   4.758  1.7856  0.8965 -0.2149
 2661SOL     OW19201   0.929   8.829   0.821  0.4411  0.2924 -0.0101
 2661SOL    HW119202   0.978   8.874   0.896  0.8278 -1.0114  0.5431
 2661SOL    HW219203   0.846   8.880   0.800  0.1025  0.4366  1.6221
 2662SOL     OW19204   4.351   5.083   4.698  0.1175  0.2389  0.5456
 2662SOL    HW119205   4.258   5.061   4.728 -0.2845  0.3248 -0.6096
 2662SOL    HW219206   4.390   5.005   4.650 -0.5483  1.2974 -1.7535
 2663SOL     OW19207   3.206   2.457   4.552 -0.0152  0.9598 -0.1061
 2663SOL    HW119208   3.117   2.432   4.589  1.0522 -0.3166  1.7240
 2663SOL    HW219209   3.219   2.413   4.463  0.1336 -1.7709  1.1921
 2664SOL     OW19210   2.055   1.636   1.571  0.5648 -0.5253  0.4355
 2664SOL    HW119211   2.043   1.735   1.571 -1.4782 -0.7539 -0.4560
 2664SOL    HW219212   2.011   1.597   1.651  0.5138 -0.8055  0.2704
 2665SOL     OW19213   0.925   6.982   1.529 -0.1256  0.4240 -0.4808
 2665SOL    HW119214   0.833   7.003   1.563 -1.1182  1.4004 -3.6029
 2665SOL    HW219215   0.930   6.885   1.505  0.0246  0.1259  0.7292
 2666SOL     OW19216   1.160   4.741   0.390 -0.7504 -0.3141 -0.3034
 2666SOL    HW119217   1.074   4.758   0.437  0.1189  0.6856  0.9632
 2666SOL    HW219218   1.182   4.818   0.331  1.1279  1.2078  2.2720
 2667SOL     OW19219   3.967   2.018   1.299 -0.5055 -0.3200 -0.2600
 2667SOL    HW119220   3.954   1.920   1.284 -0.7982 -0.3921  0.4920
 2667SOL    HW219221   3.964   2.038   1.396  2.4713 -0.0003 -0.1713
 2668SOL     OW19222   9.206   6.353   5.611  0.7386  0.1721  0.2047
 2668SOL    HW119223   9.255   6.439   5.595  1.2149 -0.5221 -2.2183
 2668SOL    HW219224   9.108   6.368   5.599  0.5214  0.9781  2.5781
 2669SOL     OW19225   3.377   6.519   3.995  0.2030 -0.5455  0.4590
 2669SOL    HW119226   3.357   6.514   4.093 -2.0945 -1.3238 -0.0200
 2669SOL    HW219227   3.452   6.457   3.974  0.5716 -0.5408  1.6798
 2670SOL     OW19228   3.947   4.475   0.366  0.6140  0.3265 -0.0502
 2670SOL    HW119229   3.871   4.409   0.359 -0.1394  1.2601 -0.7193
 2670SOL    HW219230   3.998   4.457   0.450  0.8317 -1.5501 -0.5536
 2671SOL     OW19231   0.059   2.603   2.512 -0.2928  0.6167  0.4389
 2671SOL    HW119232   0.065   2.530   2.580 -0.8732  0.4650  0.3327
 2671SOL    HW219233   0.136   2.596   2.449 -0.7520 -0.3871 -0.0351
 2672SOL     OW19234   3.041   2.189   3.640  0.2758  0.0784  0.2036
 2672SOL    HW119235   3.027   2.101   3.594 -0.5058  0.8313 -1.0068
 2672SOL    HW219236   2.963   2.209   3.699  0.2288  0.1794  0.1083
 2673SOL     OW19237   1.262   6.481   4.442 -0.5682  0.3242 -0.0091
 2673SOL    HW119238   1.270   6.470   4.343 -1.5335 -0.6346  0.0198
 2673SOL    HW219239   1.226   6.572   4.462 -0.1445  0.6119 -0.5203
 2674SOL     OW19240   8.822   0.253   2.083 -0.0010  0.0547  0.2265
 2674SOL    HW119241   8.790   0.235   1.990 -0.3755  3.0548 -0.2525
 2674SOL    HW219242   8.789   0.342   2.114  4.4444  1.5132  1.2462
 2675SOL     OW19243   2.306   8.779   0.941 -0.4438  0.2663 -0.2119
 2675SOL    HW119244   2.359   8.748   1.020  0.4417  1.0718 -0.4786
 2675SOL    HW219245   2.318   8.877   0.930 -0.8021  0.2007 -1.1710
 2676SOL     OW19246   4.867   9.477   1.982  0.2638 -0.1045 -0.0281
 2676SOL    HW119247   4.952   9.529   1.979 -0.2880  0.7396 -1.7402
 2676SOL    HW219248   4.825   9.486   2.072 -1.4372  5.1619 -1.1340
 2677SOL     OW19249   2.385   7.073   0.143 -0.1685 -0.3249  0.0703
 2677SOL    HW119250   2.316   7.115   0.202  0.7472 -1.1880  1.7924
 2677SOL    HW219251   2.342   7.040   0.060 -1.3410  1.6901 -0.1590
 2678SOL     OW19252   8.673   3.389   3.783  0.3638  0.0118  0.0529
 2678SOL    HW119253   8.575   3.410   3.784  0.4719  0.5415 -0.3012
 2678SOL    HW219254   8.714   3.417   3.869  0.1488 -0.4873  0.3212
 2679SOL     OW19255   9.529   1.503   4.382  0.3323  0.1756 -0.2698
 2679SOL    HW119256   9.554   1.501   4.285  3.2178 -0.3980  0.4521
 2679SOL    HW219257   9.565   1.422   4.428 -1.0259  0.4311  1.3077
 2680SOL     OW19258   4.982   5.566   2.761  0.3512  0.1353  0.1896
 2680SOL    HW119259   5.058   5.620   2.725 -0.2891  1.7139  1.1558
 2680SOL    HW219260   4.926   5.534   2.685  0.6939  0.9121 -0.4075
 2681SOL     OW19261   2.022   4.010   1.639 -0.0031 -0.5330 -0.4210
 2681SOL    HW119262   1.982   4.010   1.547 -1.1883 -0.2419  0.0886
 2681SOL    HW219263   2.083   4.088   1.649 -0.8499  0.1542 -0.5458
 2682SOL     OW19264   9.011   2.144   4.224  0.3929 -0.1893  0.5698
 2682SOL    HW119265   9.102   2.130   4.261  0.5467 -0.5245  0.0711
 2682SOL    HW219266   8.966   2.055   4.211 -0.1039 -0.0118  1.0754
 2683SOL     OW19267   9.867   2.376   6.269  0.3019  0.0840 -0.3491
 2683SOL    HW119268   9.861   2.293   6.324 -0.3062  0.6462  0.4685
 2683SOL    HW219269   9.787   2.434   6.289  0.5878  0.7401 -1.0941
 2684SOL     OW19270   1.560   4.861   5.589  0.6171  0.3011 -0.4756
 2684SOL    HW119271   1.466   4.882   5.617  0.3135 -0.3518 -0.9718
 2684SOL    HW219272   1.620   4.935   5.615  0.0239  0.5449  0.2117
 2685SOL     OW19273   2.518   8.732   2.229  0.0101  0.5306  0.4774
 2685SOL    HW119274   2.543   8.788   2.150  0.8211 -1.1018 -0.4533
 2685SOL    HW219275   2.452   8.663   2.202  0.7520 -0.4324  1.0654
 2686SOL     OW19276   1.461   5.789   5.594  0.0501 -0.1307 -0.6237
 2686SOL    HW119277   1.504   5.878   5.583  0.1653 -0.4297 -2.8348
 2686SOL    HW219278   1.494   5.727   5.523  1.6956 -2.6440  2.2073
 2687SOL     OW19279   0.647   9.714   3.043  0.3129 -0.2340 -0.3496
 2687SOL    HW119280   0.733   9.666   3.061  0.8542  0.9778  0.3514
 2687SOL    HW219281   0.624   9.705   2.946  0.2213 -2.1903 -0.1566
 2688SOL     OW19282   1.207   4.429   3.676 -0.0650 -0.1643 -0.3288
 2688SOL    HW119283   1.262   4.378   3.610 -0.0228 -0.4986 -0.0400
 2688SOL    HW219284   1.199   4.524   3.647  2.3652  0.3815  0.6320
 2689SOL     OW19285   6.621   7.499   3.890 -0.1647  0.7106  0.1363
 2689SOL    HW119286   6.658   7.407   3.873 -1.6924  0.2841 -1.0148
 2689SOL    HW219287   6.682   7.548   3.952  0.6057 -1.1303  0.8862
 2690SOL     OW19288   8.002   0.795   6.565 -0.5935  0.2072 -0.0520
 2690SOL    HW119289   7.933   0.865   6.550 -2.3322 -1.5503 -0.5706
 2690SOL    HW219290   7.974   0.738   6.643 -1.1294 -2.1245 -1.8669
 2691SOL     OW19291   0.239   5.192   1.804 -0.5217 -0.1640 -0.2789
 2691SOL    HW119292   0.161   5.227   1.752 -1.4793  2.2900  2.6502
 2691SOL    HW219293   0.208   5.118   1.863 -0.5558  0.5318  0.5814
 2692SOL     OW19294   1.252   2.379   3.212 -0.0359  0.4113 -0.0347
 2692SOL    HW119295   1.307   2.296   3.204  0.0186  0.2329  1.8413
 2692SOL    HW219296   1.177   2.376   3.146 -0.1157 -1.2116  0.1078
 2693SOL     OW19297   5.242   7.762   3.583 -0.5023  0.1547  0.3622
 2693SOL    HW119298   5.337   7.792   3.587  0.0031 -1.4908  0.7161
 2693SOL    HW219299   5.187   7.818   3.645  0.2994  0.8180  0.4845
 2694SOL     OW19300   9.765   1.087   4.399  0.0526  0.3596 -0.3186
 2694SOL    HW119301   9.829   1.136   4.339 -0.3863 -0.7414 -1.7334
 2694SOL    HW219302   9.816   1.032   4.464  0.5567  0.3127 -0.7451
 2695SOL     OW19303   6.081   1.534   3.938 -0.1989  0.0206 -0.5694
 2695SOL    HW119304   6.064   1.608   4.003  0.6967 -0.8290  0.6533
 2695SOL    HW219305   6.017   1.459   3.954  0.0173 -0.1849 -0.6511
 2696SOL     OW19306   5.551   6.026   0.425  0.0373 -0.9266  0.1862
 2696SOL    HW119307   5.500   5.946   0.457  1.0474 -0.5847  2.8457
 2696SOL    HW219308   5.649   6.009   0.435  0.2483  1.2290  2.4511
 2697SOL     OW19309   3.383   0.839   5.715  0.4739  0.1305 -0.4730
 2697SOL    HW119310   3.380   0.933   5.749  0.5616 -0.0211 -0.0407
 2697SOL    HW219311   3.448   0.832   5.640  1.3929  0.1559  0.3058
 2698SOL     OW19312   2.716   3.382   0.875  0.3277  0.2584 -0.4157
 2698SOL    HW119313   2.702   3.297   0.926  1.8875 -0.7226 -1.5694
 2698SOL    HW219314   2.773   3.444   0.928 -0.7891  0.5675  0.4209
 2699SOL     OW19315   3.774   9.311   0.451 -0.3715  0.9609 -0.1992
 2699SOL    HW119316   3.778   9.211   0.450 -0.4887  0.9585 -0.3477
 2699SOL    HW219317   3.760   9.345   0.358 -0.0473  1.1278 -0.1867
 2700SOL     OW19318   2.827   8.864   1.515  0.6045 -0.1227 -0.0768
 2700SOL    HW119319   2.821   8.785   1.575  1.3207 -0.6979 -0.7486
 2700SOL    HW219320   2.922   8.897   1.513  0.1983  1.1320  0.6788
 2701SOL     OW19321   2.770   8.194   4.373  0.2299 -0.0517  1.2743
 2701SOL    HW119322   2.723   8.206   4.460  0.5854 -1.5804  1.6993
 2701SOL    HW219323   2.868   8.195   4.387  0.3038  0.6981  0.7402
 2702SOL     OW19324   9.653   8.548   4.086 -0.2673  0.1511  0.0269
 2702SOL    HW119325   9.691   8.576   4.174 -2.1307 -0.9452  1.2173
 2702SOL    HW219326   9.691   8.459   4.060  0.2703  0.4673 -0.2826
 2703SOL     OW19327   3.981   0.047   1.273  1.1778  0.1010  0.2040
 2703SOL    HW119328   4.023   0.092   1.195  2.8616 -0.3513  0.8395
 2703SOL    HW219329   4.042  -0.023   1.309  0.7960  0.8715  2.4548
 2704SOL     OW19330   8.242   7.205   6.210 -0.1969 -0.4187 -0.6697
 2704SOL    HW119331   8.256   7.304   6.213  0.6340 -0.5468 -0.2803
 2704SOL    HW219332   8.223   7.172   6.302 -0.0014 -0.6914 -0.7279
 2705SOL     OW19333   1.026   9.498   4.764  0.2173  0.5281  0.4463
 2705SOL    HW119334   0.948   9.462   4.712 -0.6979 -0.2560  2.3025
 2705SOL    HW219335   1.105   9.505   4.704 -0.7593 -0.5280 -1.0133
 2706SOL     OW19336   2.201   3.152   0.943 -0.1713  0.1097  0.6002
 2706SOL    HW119337   2.187   3.174   0.846  0.4692 -0.0787  0.4592
 2706SOL    HW219338   2.123   3.100   0.977 -1.5732  2.3026  0.8528
 2707SOL     OW19339   3.681   5.826   4.684 -0.0152 -0.0661  0.4719
 2707SOL    HW119340   3.768   5.777   4.679  0.1296  0.1876  0.5144
 2707SOL    HW219341   3.657   5.842   4.780 -0.6344 -1.0715  0.4903
 2708SOL     OW19342   8.055   5.617   4.373  0.1207 -0.1452 -0.5868
 2708SOL    HW119343   8.119   5.605   4.449  0.4399  0.5933 -0.7374
 2708SOL    HW219344   8.061   5.539   4.311  1.4063  0.2715 -0.9932
 2709SOL     OW19345   1.936   0.954   0.039 -0.2785  0.6520  0.0093
 2709SOL    HW119346   1.991   0.885  -0.009  0.0393  0.4444  0.6677
 2709SOL    HW219347   1.898   1.018  -0.027 -1.1995 -0.5918 -0.6926
 2710SOL     OW19348   0.536   6.400   6.403 -0.2027  0.3238 -0.0225
 2710SOL    HW119349   0.445   6.406   6.445  0.0553 -0.6915  0.6827
 2710SOL    HW219350   0.549   6.310   6.362  0.4848  0.4671 -0.1295
 2711SOL     OW19351   8.318   1.044   2.495  0.0996 -0.1046 -0.5915
 2711SOL    HW119352   8.342   1.136   2.524  2.3682 -0.4705 -1.1547
 2711SOL    HW219353   8.296   0.988   2.575  0.7666  0.3921 -0.0552
 2712SOL     OW19354   0.554   3.786   4.996  0.7459  0.6185  0.3332
 2712SOL    HW119355   0.498   3.867   5.015 -1.5721 -0.8730  0.1541
 2712SOL    HW219356   0.539   3.718   5.068 -0.3751 -1.1531 -1.5268
 2713SOL     OW19357   8.255   5.918   5.351  0.2362  0.5050 -0.2387
 2713SOL    HW119358   8.235   6.015   5.337  1.7250  0.9831  0.7866
 2713SOL    HW219359   8.354   5.904   5.350  0.0490 -0.9435  0.0443
 2714SOL     OW19360   2.451   0.551   1.232  0.2156  0.1829 -0.0514
 2714SOL    HW119361   2.377   0.495   1.194  0.4372 -1.0636  1.3183
 2714SOL    HW219362   2.535   0.498   1.236  0.4144  0.5767  1.3292
 2715SOL     OW19363   2.763   1.843   3.309 -0.0397  0.6605  0.0137
 2715SOL    HW119364   2.729   1.922   3.258 -0.6421  2.3165  2.9203
 2715SOL    HW219365   2.685   1.787   3.338  0.2515  0.1405 -0.2012
 2716SOL     OW19366   0.534   7.336   3.019 -0.0823  0.4143  0.4078
 2716SOL    HW119367   0.479   7.389   2.954  0.2079  0.1595 -0.0492
 2716SOL    HW219368   0.481   7.257   3.050 -0.5398  0.9986  1.1388
 2717SOL     OW19369   4.021   2.673   1.560  0.6020  0.3839 -0.1615
 2717SOL    HW119370   4.016   2.654   1.658  0.7625 -0.5703 -0.3346
 2717SOL    HW219371   4.116   2.665   1.530  0.3310 -0.9306 -0.7057
 2718SOL     OW19372   5.007   4.945   1.660 -0.2301 -0.8180 -0.1261
 2718SOL    HW119373   4.979   5.040   1.664  0.0881 -0.7502  0.5297
 2718SOL    HW219374   4.988   4.901   1.748  1.1704 -0.9196  0.1458
 2719SOL     OW19375   7.687   9.059   5.355 -0.1475  0.3771 -0.2044
 2719SOL    HW119376   7.768   9.074   5.413  0.5357  0.4734 -1.1794
 2719SOL    HW219377   7.706   8.987   5.289 -0.8804  0.3817 -0.4227
 2720SOL     OW19378   3.522   3.806   5.246  0.5226 -0.0008  0.3231
 2720SOL    HW119379   3.518   3.727   5.186  1.2782 -0.9003  1.4349
 2720SOL    HW219380   3.434   3.816   5.293  0.5503 -0.4111  0.4659
 2721SOL     OW19381   0.065   2.298   3.037 -0.4813  0.1856 -0.2636
 2721SOL    HW119382  -0.034   2.287   3.039 -0.4367 -1.3852 -3.1401
 2721SOL    HW219383   0.100   2.304   3.131 -3.3105  1.2278  0.7757
 2722SOL     OW19384   1.030   6.162   0.193  0.4354 -0.1425 -0.5740
 2722SOL    HW119385   0.964   6.199   0.259 -1.2733 -1.1222 -1.7136
 2722SOL    HW219386   1.055   6.233   0.127 -0.5386 -0.1634 -0.9648
 2723SOL     OW19387   3.436   4.926   5.342 -0.3863 -0.0129  0.9459
 2723SOL    HW119388   3.397   5.008   5.384 -2.5516 -0.4141 -0.2055
 2723SOL    HW219389   3.459   4.945   5.247 -3.1962 -1.3461 -0.0789
 2724SOL     OW19390   2.348   2.738   2.183  0.3264  0.0651  0.0148
 2724SOL    HW119391   2.265   2.793   2.180 -1.4386 -2.5217  0.3928
 2724SOL    HW219392   2.382   2.723   2.089 -0.0987  0.4232 -0.1946
 2725SOL     OW19393   1.887   3.851   3.488 -0.0227 -0.3568 -0.3442
 2725SOL    HW119394   1.931   3.900   3.413 -0.5673  1.2489  0.3823
 2725SOL    HW219395   1.945   3.856   3.569 -0.9772  0.7357  0.2741
 2726SOL     OW19396   8.263   6.671   3.251 -0.1344  0.0793  0.3768
 2726SOL    HW119397   8.295   6.726   3.173 -1.4861 -0.2475 -0.4210
 2726SOL    HW219398   8.168   6.646   3.236  0.1730 -1.6154  1.2419
 2727SOL     OW19399   3.252   4.586   3.153  0.6043  0.2933 -0.1229
 2727SOL    HW119400   3.156   4.570   3.129  0.5277  1.3642 -0.5623
 2727SOL    HW219401   3.303   4.501   3.147 -0.4771 -0.4261  0.8263
 2728SOL     OW19402   5.788   0.946   5.201  0.1419  0.2792 -0.0880
 2728SOL    HW119403   5.729   0.933   5.122  0.3036  0.4871 -0.2422
 2728SOL    HW219404   5.844   1.027   5.188  0.8598 -0.2284 -0.1825
 2729SOL     OW19405   9.705   2.067   3.924 -0.0283  0.1049  0.4412
 2729SOL    HW119406   9.768   2.066   4.001  0.9245  0.1782 -0.3283
 2729SOL    HW219407   9.612   2.049   3.956  0.2053  1.1633  1.7396
 2730SOL     OW19408   8.568   1.382   4.790 -0.3167 -0.2916  0.1460
 2730SOL    HW119409   8.484   1.434   4.776 -0.8626 -1.2308 -0.1673
 2730SOL    HW219410   8.555   1.317   4.865  0.5973  0.5121  1.0205
 2731SOL     OW19411   7.817   2.549   3.557 -0.2724 -0.0525 -0.2013
 2731SOL    HW119412   7.879   2.592   3.492 -0.9042  0.5084 -0.4405
 2731SOL    HW219413   7.769   2.620   3.609  0.7015 -0.4933  1.3337
 2732SOL     OW19414   6.048   0.754   6.381 -0.0479 -0.2592 -0.0093
 2732SOL    HW119415   6.086   0.845   6.364 -1.8467  0.1364 -2.1576
 2732SOL    HW219416   6.068   0.694   6.304 -1.1033 -0.9286  0.2221
 2733SOL     OW19417   5.185   1.362   3.484 -0.2763 -0.1595  0.6154
 2733SOL    HW119418   5.142   1.366   3.394 -0.4587  0.5035  0.7344
 2733SOL    HW219419   5.267   1.304   3.479 -1.1176 -1.3641  0.3705
 2734SOL     OW19420   9.471   3.903   5.326  0.4764 -0.2626 -0.3021
 2734SOL    HW119421   9.425   3.978   5.279  1.5674  0.2955 -0.5012
 2734SOL    HW219422   9.420   3.818   5.312 -0.1321  0.2205 -1.0548
 2735SOL     OW19423   4.902   0.605   5.233 -0.6828 -0.2390  0.1486
 2735SOL    HW119424   4.865   0.521   5.195 -0.9846 -1.0956  2.2595
 2735SOL    HW219425   4.999   0.592   5.254 -0.1453  0.7047 -1.6450
 2736SOL     OW19426   0.159   3.693   0.144  0.6268 -0.2839 -0.0251
 2736SOL    HW119427   0.100   3.742   0.080  0.8290 -0.8429 -0.6396
 2736SOL    HW219428   0.183   3.604   0.106  2.0198  0.0122  0.1235
 2737SOL     OW19429   2.069   8.480   4.748 -0.0969  0.2221 -0.0784
 2737SOL    HW119430   2.125   8.502   4.667  0.6033  1.9257  0.8308
 2737SOL    HW219431   2.069   8.559   4.810  1.3155 -1.8881  2.6922
 2738SOL     OW19432   2.595   3.834   1.353  0.1798 -0.2379  0.4534
 2738SOL    HW119433   2.695   3.826   1.343  0.1701  0.3807 -0.1570
 2738SOL    HW219434   2.553   3.838   1.263 -0.3192  0.4094  0.7099
 2739SOL     OW19435   2.160   9.121   2.558  0.2125 -0.0666 -0.1593
 2739SOL    HW119436   2.073   9.109   2.606 -0.2639  0.6200 -0.8456
 2739SOL    HW219437   2.230   9.066   2.603 -0.5589 -0.5764  0.4380
 2740SOL     OW19438   0.676   2.123   1.966  0.3175  0.1206 -0.4174
 2740SOL    HW119439   0.689   2.024   1.969  0.6513  0.1025 -1.9579
 2740SOL    HW219440   0.764   2.168   1.954  0.1642  0.5985  0.2434
 2741SOL     OW19441   9.698   9.691   3.200 -0.0512 -0.3137  0.1833
 2741SOL    HW119442   9.792   9.702   3.166 -0.0923  0.1741  0.2264
 2741SOL    HW219443   9.695   9.616   3.266  0.5106  0.3312  0.9451
 2742SOL     OW19444   7.539   7.131   4.964  0.2671 -0.1428  0.1375
 2742SOL    HW119445   7.526   7.034   4.947 -1.9541 -0.0566  1.1181
 2742SOL    HW219446   7.501   7.184   4.888 -1.9219  0.0148  1.2865
 2743SOL     OW19447   5.484   9.520   2.615 -0.5450  0.2021 -0.3200
 2743SOL    HW119448   5.442   9.483   2.698  0.5397 -0.1637  0.0751
 2743SOL    HW219449   5.497   9.448   2.548 -1.0740  0.4245 -0.6643
 2744SOL     OW19450   9.262   8.808   0.632 -0.5487 -0.0608  0.5349
 2744SOL    HW119451   9.347   8.758   0.649  0.3676  1.0602 -0.6131
 2744SOL    HW219452   9.186   8.760   0.675  0.6831 -1.0099  1.6967
 2745SOL     OW19453   1.439   7.284   2.616  0.1507 -0.3827 -0.1214
 2745SOL    HW119454   1.361   7.240   2.661 -0.8225 -0.8368 -2.1812
 2745SOL    HW219455   1.524   7.254   2.661 -0.8767  1.0856  2.9578
 2746SOL     OW19456   1.685   9.256   4.852  0.2310  0.3611 -0.4029
 2746SOL    HW119457   1.632   9.191   4.797 -1.3913  0.8789  0.5090
 2746SOL    HW219458   1.641   9.266   4.941  0.1889  3.0615 -0.6963
 2747SOL     OW19459   1.901   3.805   2.444 -0.0936  0.5633  0.2155
 2747SOL    HW119460   1.826   3.866   2.417 -0.2705  0.5553  0.6783
 2747SOL    HW219461   1.921   3.818   2.541  0.7409  0.8126  0.0126
 2748SOL     OW19462   8.409   7.615   4.890 -0.3276 -0.2984  0.2221
 2748SOL    HW119463   8.451   7.702   4.865 -3.4428  0.6207 -2.0449
 2748SOL    HW219464   8.457   7.541   4.843  1.4219  0.2811  1.0418
 2749SOL     OW19465   7.609   4.439   0.816 -0.0897  0.5819  0.3210
 2749SOL    HW119466   7.690   4.383   0.834 -0.9117 -1.1526 -1.2313
 2749SOL    HW219467   7.621   4.529   0.857  2.2476  0.0480  0.8687
 2750SOL     OW19468   7.258   6.988   5.562  0.7670  0.3482  0.1988
 2750SOL    HW119469   7.350   6.955   5.538  0.6976  1.7310 -2.1004
 2750SOL    HW219470   7.261   7.088   5.572 -0.5136  0.4062  0.0026
 2751SOL     OW19471   2.374   2.944   3.614 -0.1869 -0.1551 -0.0783
 2751SOL    HW119472   2.455   2.998   3.594  0.6320 -0.7956  1.4244
 2751SOL    HW219473   2.298   2.974   3.556  0.9627  0.8196 -1.0962
 2752SOL     OW19474   0.417   3.283   0.482 -0.4094 -0.3378  0.3662
 2752SOL    HW119475   0.329   3.243   0.458  0.0736 -1.8698  1.0459
 2752SOL    HW219476   0.413   3.321   0.574 -0.4564 -0.1041  0.2678
 2753SOL     OW19477   3.605   3.775   2.368  0.5682  0.0120 -0.1403
 2753SOL    HW119478   3.574   3.773   2.463 -3.4058  2.3332 -1.2425
 2753SOL    HW219479   3.578   3.691   2.322 -0.2431  0.1567  0.0576
 2754SOL     OW19480   2.042   1.197   1.734 -0.2198 -0.3091  0.1409
 2754SOL    HW119481   2.058   1.296   1.739 -0.1915 -0.4028  2.3241
 2754SOL    HW219482   2.128   1.151   1.714  0.0559 -0.0029  0.6171
 2755SOL     OW19483   0.587   9.964   1.410  0.0970  0.1105 -0.2573
 2755SOL    HW119484   0.544   9.963   1.319 -0.6354 -0.7456  0.0926
 2755SOL    HW219485   0.554   9.886   1.463 -1.2565  1.8671  1.5577
 2756SOL     OW19486   8.378   0.729   5.291  1.0833  0.1248 -0.1840
 2756SOL    HW119487   8.296   0.709   5.345  1.5146 -0.6411  0.2047
 2756SOL    HW219488   8.444   0.655   5.303  0.7142 -0.6701 -2.7216
 2757SOL     OW19489   8.405   7.674   3.444 -0.0232  0.3695  0.1829
 2757SOL    HW119490   8.332   7.667   3.513 -0.5010 -2.0853 -0.5283
 2757SOL    HW219491   8.493   7.658   3.487 -0.2468 -0.3374  0.3882
 2758SOL     OW19492   1.658   5.595   2.013  0.3228 -0.4382  0.5909
 2758SOL    HW119493   1.684   5.671   2.073 -0.9409  0.6769 -0.2731
 2758SOL    HW219494   1.580   5.547   2.052 -0.8299  0.6075 -0.4150
 2759SOL     OW19495   1.728   5.996   4.515 -0.0493  0.9990 -0.7726
 2759SOL    HW119496   1.771   6.024   4.430 -2.0555  0.8858 -1.8500
 2759SOL    HW219497   1.745   6.065   4.585  1.1195  1.3700 -1.4127
 2760SOL     OW19498   8.187   4.027   6.161 -0.3306  0.5066 -0.3924
 2760SOL    HW119499   8.248   4.096   6.123 -0.9918  1.2271 -0.1446
 2760SOL    HW219500   8.167   3.958   6.091  0.5845  0.3808 -0.5427
 2761SOL     OW19501   0.580   5.392   3.275  0.2789 -0.6671 -0.0799
 2761SOL    HW119502   0.597   5.461   3.205  3.4762 -0.2874  0.9999
 2761SOL    HW219503   0.602   5.301   3.239  1.1715 -0.5546  0.1764
 2762SOL     OW19504   2.724   7.432   0.099 -0.3423 -0.1675  0.0563
 2762SOL    HW119505   2.775   7.461   0.019 -0.8768  0.4555 -0.0654
 2762SOL    HW219506   2.640   7.487   0.107 -0.3957 -0.3622  0.9201
 2763SOL     OW19507   0.077   9.904   5.561 -0.2400  0.1412 -0.7322
 2763SOL    HW119508  -0.013   9.874   5.592  0.4330 -2.3293 -1.0993
 2763SOL    HW219509   0.112   9.842   5.491  2.5510 -0.0386  0.7389
 2764SOL     OW19510   9.547   3.556   6.118 -0.3150  0.3520  0.3096
 2764SOL    HW119511   9.456   3.596   6.112 -0.3052  0.3114 -0.1232
 2764SOL    HW219512   9.613   3.628   6.139 -0.5085  0.3051  1.1146
 2765SOL     OW19513   7.007   0.648   1.788 -0.7969 -0.3532 -0.3514
 2765SOL    HW119514   6.986   0.699   1.871  0.7241  0.5962 -0.5321
 2765SOL    HW219515   7.098   0.606   1.796 -1.1655 -1.3067 -1.0288
 2766SOL     OW19516   0.669   3.919   2.514 -0.3693 -0.4979  0.0553
 2766SOL    HW119517   0.635   4.013   2.515  1.3919  0.1619  0.0456
 2766SOL    HW219518   0.599   3.858   2.477 -1.9337  0.6387  1.0819
 2767SOL     OW19519   2.416   2.150   1.169  0.1084  0.8543 -0.0781
 2767SOL    HW119520   2.451   2.240   1.195  1.3791  1.0179 -2.2547
 2767SOL    HW219521   2.431   2.135   1.071  2.1518 -2.6789  0.6871
 2768SOL     OW19522   1.538   9.640   4.923 -0.1725  0.4992 -0.0656
 2768SOL    HW119523   1.586   9.591   4.996 -0.9372 -1.1133 -0.6244
 2768SOL    HW219524   1.483   9.714   4.963 -0.4606 -0.2724  0.9715
 2769SOL     OW19525   6.123   9.453   4.023  0.0206  0.0887  0.2785
 2769SOL    HW119526   6.150   9.526   3.961 -0.8843  0.8223  0.7312
 2769SOL    HW219527   6.060   9.390   3.976  1.7675 -1.1114 -0.4964
 2770SOL     OW19528   8.096   2.438   0.734  0.0553 -0.3829  0.2493
 2770SOL    HW119529   8.025   2.508   0.731 -1.4554 -1.9120 -0.7108
 2770SOL    HW219530   8.187   2.481   0.733 -0.8428  1.4939 -1.6496
 2771SOL     OW19531   6.666   7.809   5.852  0.0153  0.3036  0.2640
 2771SOL    HW119532   6.740   7.744   5.835 -0.5320 -0.3467  0.3316
 2771SOL    HW219533   6.580   7.759   5.868 -0.9647  1.0855 -2.2525
 2772SOL     OW19534   4.554   2.199   4.103 -0.0479  0.0459 -0.1966
 2772SOL    HW119535   4.493   2.177   4.026 -1.5020 -0.8284  1.1795
 2772SOL    HW219536   4.503   2.193   4.189  1.7721  0.1606  0.9169
 2773SOL     OW19537   7.112   3.540   0.917 -0.4838 -0.2443 -0.5472
 2773SOL    HW119538   7.204   3.560   0.885 -0.4451 -0.0543 -0.3226
 2773SOL    HW219539   7.064   3.626   0.937 -1.0052 -0.3124 -1.4951
 2774SOL     OW19540   8.915   6.436   2.680 -0.2319 -0.5196 -0.3262
 2774SOL    HW119541   8.895   6.444   2.777  1.1914  0.0746 -0.0803
 2774SOL    HW219542   9.012   6.416   2.666 -0.4722 -0.8801 -1.6110
 2775SOL     OW19543   9.627   8.297   4.966  0.1958 -0.0042 -0.5054
 2775SOL    HW119544   9.620   8.201   4.995  0.5320  0.0977 -0.0931
 2775SOL    HW219545   9.675   8.301   4.878  1.8428 -0.0669  0.3727
 2776SOL     OW19546   3.898   7.869   5.366 -0.5912  0.7655  0.3903
 2776SOL    HW119547   3.934   7.786   5.408  0.7062  1.2002  0.1449
 2776SOL    HW219548   3.843   7.918   5.434 -2.6394 -1.0348  0.0991
 2777SOL     OW19549   0.028   5.126   5.143  0.4593 -0.0847  0.2546
 2777SOL    HW119550  -0.071   5.132   5.127  0.6313  0.9161 -0.4986
 2777SOL    HW219551   0.046   5.064   5.220 -0.6919 -1.0441 -0.2312
 2778SOL     OW19552   3.764   1.619   4.433  0.4546  0.7588  0.1866
 2778SOL    HW119553   3.772   1.590   4.528  0.0494  0.3057  0.0800
 2778SOL    HW219554   3.800   1.712   4.424 -0.2019  1.0859  0.9218
 2779SOL     OW19555   1.809   7.623   2.222  0.0973  0.0496 -0.1539
 2779SOL    HW119556   1.833   7.683   2.145  1.7250 -1.4547 -0.8353
 2779SOL    HW219557   1.849   7.659   2.306 -0.2871  0.7882 -0.2820
 2780SOL     OW19558   6.780   1.730   6.420  0.1081 -0.0896 -0.4292
 2780SOL    HW119559   6.869   1.738   6.465  0.3868  1.7421 -1.2546
 2780SOL    HW219560   6.754   1.634   6.414  1.6311 -0.5849  0.5886
 2781SOL     OW19561   7.785   5.909   1.369  0.3258  0.1201 -0.0557
 2781SOL    HW119562   7.699   5.960   1.371 -0.7662 -1.7383  1.7188
 2781SOL    HW219563   7.861   5.970   1.390 -0.8048  1.2940  0.6505
 2782SOL     OW19564   4.412   3.480   2.828  0.1121 -0.9505  0.6289
 2782SOL    HW119565   4.328   3.500   2.778 -0.0717 -1.3200  0.7928
 2782SOL    HW219566   4.490   3.519   2.778 -0.0648 -1.3486  0.0337
 2783SOL     OW19567   9.166   7.001   4.782  0.2480  0.4770  0.2754
 2783SOL    HW119568   9.075   6.981   4.818  0.2640  1.0412  0.6429
 2783SOL    HW219569   9.189   7.097   4.800  1.5896 -0.0789  1.6762
 2784SOL     OW19570   8.085   6.304   5.650  0.8577 -0.3436  0.0455
 2784SOL    HW119571   8.164   6.287   5.710  0.2695 -0.6319  0.7461
 2784SOL    HW219572   8.072   6.403   5.641  0.5535 -0.2972  0.9287
 2785SOL     OW19573   9.215   4.641   5.516  0.2874 -0.0226 -0.1162
 2785SOL    HW119574   9.284   4.568   5.519  0.7806  0.4924  1.4079
 2785SOL    HW219575   9.230   4.697   5.435  1.8188  0.2172  0.3164
 2786SOL     OW19576   8.831   6.774   1.152 -0.3119 -0.1454  0.0795
 2786SOL    HW119577   8.835   6.849   1.086 -2.0904 -1.0117 -1.0547
 2786SOL    HW219578   8.906   6.710   1.135  0.9730  1.1550  0.7918
 2787SOL     OW19579   1.734   0.597   2.567 -0.1897  0.0105  0.4141
 2787SOL    HW119580   1.771   0.676   2.518 -1.5032  0.9021  0.8282
 2787SOL    HW219581   1.673   0.629   2.640  0.1156 -1.3622  1.2812
 2788SOL     OW19582   6.429   3.875   0.917  0.1719  0.3210  0.1139
 2788SOL    HW119583   6.334   3.905   0.921 -0.3149 -0.9379 -1.4762
 2788SOL    HW219584   6.438   3.799   0.853  1.8205 -1.2352  2.0873
 2789SOL     OW19585   4.304   9.834   3.757 -0.0757 -0.1032  0.1193
 2789SOL    HW119586   4.334   9.759   3.698 -1.1760  1.4145 -2.4408
 2789SOL    HW219587   4.360   9.915   3.739 -1.9319  1.0467 -0.4962
 2790SOL     OW19588   9.947   0.865   2.720 -0.3654 -0.3097  0.1079
 2790SOL    HW119589   9.994   0.950   2.695 -1.3085  0.4738  0.9409
 2790SOL    HW219590   9.979   0.835   2.810  0.1364 -0.9725 -0.2868
 2791SOL     OW19591   7.273   0.573   6.854 -0.5687  0.3655 -0.1775
 2791SOL    HW119592   7.276   0.669   6.825  0.8114  0.0121 -1.2792
 2791SOL    HW219593   7.367   0.537   6.860 -1.0097 -0.6074  1.3154
 2792SOL     OW19594   0.728   8.557   2.847  0.1698  0.2823  0.3667
 2792SOL    HW119595   0.639   8.600   2.865  0.1747  0.5368 -0.1969
 2792SOL    HW219596   0.729   8.466   2.887 -0.1976  0.4369  0.7337
 2793SOL     OW19597   1.513   1.699   1.041 -0.2324  0.8532  0.0447
 2793SOL    HW119598   1.503   1.723   0.945 -1.0309  1.5803  0.3047
 2793SOL    HW219599   1.486   1.776   1.098  0.0534  0.3643  0.8612
 2794SOL     OW19600   9.867   8.405   3.465 -0.2482  0.8650 -0.7119
 2794SOL    HW119601   9.962   8.437   3.466  0.0588 -0.0563 -0.6581
 2794SOL    HW219602   9.813   8.462   3.526  0.2935  1.3258 -0.6505
 2795SOL     OW19603   1.721   5.335   1.852  0.1497 -0.0821  0.0911
 2795SOL    HW119604   1.679   5.386   1.777  0.3794 -0.2480 -0.1468
 2795SOL    HW219605   1.737   5.397   1.929  0.4209  0.2024 -0.1951
 2796SOL     OW19606   0.510   4.557   2.949 -0.1505  0.2306  0.2953
 2796SOL    HW119607   0.475   4.646   2.923 -1.4536 -0.1409  0.7484
 2796SOL    HW219608   0.606   4.565   2.977 -0.7463  1.7744  1.9457
 2797SOL     OW19609   9.196   4.629   5.795 -0.0782 -0.0562 -0.1381
 2797SOL    HW119610   9.199   4.660   5.700 -2.2605 -1.6189 -0.7661
 2797SOL    HW219611   9.254   4.549   5.806 -0.0801 -0.0715 -0.2328
 2798SOL     OW19612   1.950   7.091   6.233 -0.0007  0.0359 -0.0104
 2798SOL    HW119613   1.956   7.016   6.298 -0.3354  0.0655  0.0549
 2798SOL    HW219614   1.901   7.061   6.151  0.0005  0.1372 -0.0491
 2799SOL     OW19615   7.767   0.659   3.157  0.1458 -0.0530  0.5939
 2799SOL    HW119616   7.820   0.583   3.121  0.2750 -0.1268  0.9304
 2799SOL    HW219617   7.671   0.648   3.133 -0.1024 -1.1675  1.9933
 2800SOL     OW19618   2.203   7.842   0.672  0.3894  0.9385 -0.0561
 2800SOL    HW119619   2.178   7.935   0.643 -1.3035 -0.1652 -2.2959
 2800SOL    HW219620   2.170   7.827   0.765 -1.2661  1.8837 -0.4607
 2801SOL     OW19621   7.967   1.118   6.091  0.0621  0.2084 -0.1299
 2801SOL    HW119622   8.012   1.029   6.082  0.0287  0.2171 -0.4108
 2801SOL    HW219623   7.904   1.116   6.169 -0.4970 -0.2599 -0.5757
 2802SOL     OW19624   3.406   9.030   2.417  0.5140 -0.2095  0.0051
 2802SOL    HW119625   3.429   9.000   2.510  0.3088 -0.1265  0.0833
 2802SOL    HW219626   3.307   9.024   2.404  0.1788  2.6564  0.8398
 2803SOL     OW19627   6.555   9.031   6.343 -0.4614 -0.0018  0.0234
 2803SOL    HW119628   6.525   9.069   6.430 -0.0090 -0.3448  0.3320
 2803SOL    HW219629   6.524   9.090   6.268  1.2375  1.6069  0.5556
 2804SOL     OW19630   9.977   2.425   6.008 -0.8135  0.2317  0.1705
 2804SOL    HW119631   9.926   2.431   6.093 -2.3012 -3.0237 -0.4385
 2804SOL    HW219632  10.063   2.376   6.024 -1.2946 -0.7722 -0.2469
 2805SOL     OW19633   7.889   3.186   5.751  0.1505  0.2230  0.1215
 2805SOL    HW119634   7.913   3.271   5.797  2.6244 -0.1168 -0.4214
 2805SOL    HW219635   7.956   3.168   5.678 -3.3698  0.5365 -3.3585
 2806SOL     OW19636   7.036   2.872   1.559 -0.3846 -0.2528 -0.5706
 2806SOL    HW119637   7.065   2.922   1.641 -0.3433 -1.7500  0.3405
 2806SOL    HW219638   6.969   2.802   1.584  1.4926 -2.4275 -1.3884
 2807SOL     OW19639   7.768   2.681   5.941  0.5562  0.3849 -0.4484
 2807SOL    HW119640   7.773   2.772   5.901  1.4650 -0.1366 -1.5429
 2807SOL    HW219641   7.856   2.657   5.981 -0.4036  0.9853  2.0986
 2808SOL     OW19642   5.318   2.235   1.403 -0.4818  0.0302  0.1816
 2808SOL    HW119643   5.218   2.228   1.404 -0.4441 -0.6592 -0.7404
 2808SOL    HW219644   5.351   2.258   1.495 -1.3490 -1.5157  0.8914
 2809SOL     OW19645   6.778   1.269   0.615 -0.0230 -0.3746  0.3728
 2809SOL    HW119646   6.859   1.210   0.619  1.3265  1.4292  0.2360
 2809SOL    HW219647   6.740   1.267   0.523 -1.6860 -3.1991  1.0481
 2810SOL     OW19648   1.547   6.889   4.937 -0.3685 -0.1593 -0.7222
 2810SOL    HW119649   1.586   6.980   4.950 -0.8455  0.1213 -1.2057
 2810SOL    HW219650   1.507   6.857   5.022 -3.1730  1.5062 -1.3291
 2811SOL     OW19651   0.749   7.886   5.602 -0.9314  0.2556  0.5550
 2811SOL    HW119652   0.667   7.932   5.567  0.2515 -0.0332 -2.7886
 2811SOL    HW219653   0.736   7.787   5.600 -0.6588  0.2219  0.3723
 2812SOL     OW19654   3.256   2.563   0.563  0.2039 -0.5581 -0.1916
 2812SOL    HW119655   3.247   2.619   0.646  0.4317  1.3575 -1.4111
 2812SOL    HW219656   3.166   2.552   0.521  0.5032  1.1100 -1.3258
 2813SOL     OW19657   9.026   4.938   0.844  1.0720  0.1304 -0.2774
 2813SOL    HW119658   8.960   5.013   0.832  0.8505 -0.2555 -1.6015
 2813SOL    HW219659   9.086   4.958   0.921  0.8518  1.5639 -0.4645
 2814SOL     OW19660   4.080   6.611   2.637 -0.5460 -0.2199 -0.2096
 2814SOL    HW119661   4.089   6.687   2.573  0.1589  1.3213  1.6917
 2814SOL    HW219662   4.167   6.561   2.641 -0.9809 -1.1143 -1.3862
 2815SOL     OW19663   1.600   7.472   2.133  0.5938 -0.1252  0.1547
 2815SOL    HW119664   1.683   7.515   2.171 -0.6193  0.3100  2.3692
 2815SOL    HW219665   1.555   7.417   2.203 -0.6677 -0.8758 -1.2146
 2816SOL     OW19666   7.938   7.035   3.042 -0.4001  0.6859 -0.1228
 2816SOL    HW119667   7.955   7.088   3.125  2.8473 -1.1501  0.4365
 2816SOL    HW219668   7.940   6.937   3.063 -1.8827  0.2196 -1.9669
 2817SOL     OW19669   9.807   3.889   5.892 -0.5541 -0.1917 -0.8063
 2817SOL    HW119670   9.848   3.944   5.819  2.2797 -0.0071  0.8059
 2817SOL    HW219671   9.726   3.936   5.927 -0.8438  0.6548 -2.5578
 2818SOL     OW19672   2.537   8.447   4.133  0.2973  0.0697 -0.0037
 2818SOL    HW119673   2.636   8.454   4.120  0.2602  0.5885 -0.0215
 2818SOL    HW219674   2.514   8.355   4.164  0.7140 -0.2550 -0.6369
 2819SOL     OW19675   5.040   8.197   2.597 -0.4188  0.6247 -0.0765
 2819SOL    HW119676   5.139   8.207   2.584 -0.3864  0.4661  0.0379
 2819SOL    HW219677   5.002   8.284   2.628  0.2033 -0.0960  2.9539
 2820SOL     OW19678   8.924   3.702   6.151  0.1973  0.0859  0.3784
 2820SOL    HW119679   8.877   3.781   6.111  0.5326  0.0977  0.0162
 2820SOL    HW219680   8.923   3.626   6.086 -1.3671 -0.6716  1.2637
 2821SOL     OW19681   9.504   3.702   3.371  0.0243 -0.1292  0.5979
 2821SOL    HW119682   9.566   3.752   3.432  0.7470 -0.8241  0.4423
 2821SOL    HW219683   9.556   3.633   3.321 -0.9582 -0.9623  0.7260
 2822SOL     OW19684   4.518   7.903   1.583  0.9633 -0.0994 -0.1461
 2822SOL    HW119685   4.613   7.896   1.553  1.2598  2.4008  0.1664
 2822SOL    HW219686   4.515   7.937   1.677 -0.2004 -1.6323  0.3907
 2823SOL     OW19687   5.401   9.283   3.674  0.0580 -0.3973  0.6736
 2823SOL    HW119688   5.377   9.306   3.580 -1.8106 -2.7821  0.5209
 2823SOL    HW219689   5.448   9.195   3.676  2.4056  0.8541  1.7413
 2824SOL     OW19690   7.972   1.326   4.797  0.0530 -0.3719 -0.0502
 2824SOL    HW119691   7.944   1.262   4.726 -0.9084  0.8099 -0.7578
 2824SOL    HW219692   8.072   1.325   4.805  0.0475 -1.8589 -0.1287
 2825SOL     OW19693   2.912   3.613   2.174 -0.8400 -0.3169  0.5363
 2825SOL    HW119694   2.981   3.671   2.130 -0.4000 -0.9220  0.4294
 2825SOL    HW219695   2.835   3.601   2.112 -0.9686  0.2181  0.5884
 2826SOL     OW19696   5.531   8.743   6.592 -0.4948  0.7260  0.2257
 2826SOL    HW119697   5.514   8.757   6.690  1.6290 -0.0488  0.7285
 2826SOL    HW219698   5.452   8.776   6.540 -1.8550  0.7247  2.2128
 2827SOL     OW19699   5.489   9.778   6.061  0.2115  0.6496 -0.3189
 2827SOL    HW119700   5.496   9.782   6.161  0.2166  0.0192 -0.2920
 2827SOL    HW219701   5.572   9.816   6.021 -0.2838  1.9944 -0.0996
 2828SOL     OW19702   3.887   6.917   1.239 -0.2265  0.0307 -0.6909
 2828SOL    HW119703   3.965   6.960   1.195  0.5685 -0.0202  0.6376
 2828SOL    HW219704   3.915   6.829   1.278  0.0981  1.7700  3.2299
 2829SOL     OW19705   9.384   3.305   2.072  0.1196  0.3702 -0.2550
 2829SOL    HW119706   9.363   3.256   2.157  1.0543 -0.3506 -0.4369
 2829SOL    HW219707   9.428   3.243   2.007  1.0259  1.3698 -0.6069
 2830SOL     OW19708   6.548   5.923   0.335  0.0150  0.1693  0.1469
 2830SOL    HW119709   6.609   5.856   0.378 -0.3502 -0.9983 -1.1112
 2830SOL    HW219710   6.568   6.014   0.370  1.8048 -0.3426  0.4949
 2831SOL     OW19711   1.762   6.202   0.094 -0.5623 -0.9159  0.1091
 2831SOL    HW119712   1.800   6.115   0.124 -0.8406 -1.2374 -0.4595
 2831SOL    HW219713   1.664   6.191   0.076 -0.1823 -1.0219 -2.0023
 2832SOL     OW19714   2.904   3.986   4.544 -0.4738  0.2992 -0.0906
 2832SOL    HW119715   2.806   3.971   4.550 -0.2680 -1.1462 -0.2397
 2832SOL    HW219716   2.939   4.014   4.633 -0.9338  0.3240  0.0847
 2833SOL     OW19717   0.915   8.399   3.642 -0.0384 -0.2367 -0.2502
 2833SOL    HW119718   0.966   8.404   3.557 -2.0896  1.5618 -1.4125
 2833SOL    HW219719   0.819   8.380   3.623 -0.4638 -0.2108  1.6923
 2834SOL     OW19720   9.277   3.519   1.938 -0.1547 -0.0565 -0.2096
 2834SOL    HW119721   9.262   3.510   1.840  0.7117 -2.1488 -0.1680
 2834SOL    HW219722   9.309   3.432   1.976  1.7828  1.3335  1.5091
 2835SOL     OW19723   8.019   2.545   3.753  0.4027  0.3244 -0.5419
 2835SOL    HW119724   8.069   2.471   3.797  1.8028  1.4496 -0.1721
 2835SOL    HW219725   7.990   2.516   3.662 -2.2219 -1.9008  0.9213
 2836SOL     OW19726   6.666   8.836   3.528  0.1413  0.6469 -0.1092
 2836SOL    HW119727   6.690   8.851   3.624  1.2606 -2.2463  0.1124
 2836SOL    HW219728   6.745   8.799   3.479 -1.2411 -0.5418 -1.4882
 2837SOL     OW19729   3.524   3.870   7.991 -0.7194  0.0702 -0.3066
 2837SOL    HW119730   3.517   3.925   7.908  0.3091  0.2166 -0.3081
 2837SOL    HW219731   3.579   3.788   7.972 -1.7260 -0.6519 -0.1478
 2838SOL     OW19732   8.670   1.037   1.309  0.2104  0.1221 -0.1579
 2838SOL    HW119733   8.701   1.019   1.403  1.3560  0.9379 -0.3641
 2838SOL    HW219734   8.574   1.013   1.301  0.0923  0.0548  1.2418
 2839SOL     OW19735   0.676   7.177   5.382 -0.2573  0.1572  0.9234
 2839SOL    HW119736   0.641   7.097   5.430  0.0260 -0.5607 -0.0412
 2839SOL    HW219737   0.774   7.165   5.364 -0.9354 -0.9082 -2.3618
 2840SOL     OW19738   0.670   3.480   0.717 -0.0747  0.1790  0.2358
 2840SOL    HW119739   0.743   3.541   0.749 -1.8061  2.2614  0.3783
 2840SOL    HW219740   0.659   3.405   0.782  0.5215  1.0069  1.3275
 2841SOL     OW19741   9.477   4.811   5.397  1.0539 -0.1460  0.3239
 2841SOL    HW119742   9.548   4.819   5.467 -0.4602  0.1672  1.8559
 2841SOL    HW219743   9.512   4.755   5.322  3.1658  0.5917  0.7126
 2842SOL     OW19744   9.369   2.735   1.759  0.6654  0.3478 -0.1546
 2842SOL    HW119745   9.414   2.714   1.846 -1.0248  0.2426  0.7069
 2842SOL    HW219746   9.386   2.661   1.694  0.3343 -0.5023  0.7097
 2843SOL     OW19747   9.009   9.505   2.263 -0.0327  0.2760  0.3156
 2843SOL    HW119748   8.967   9.415   2.252 -1.4076  0.9731 -0.3224
 2843SOL    HW219749   9.026   9.522   2.360  0.2293 -0.6784  0.4368
 2844SOL     OW19750   2.328   0.660   3.526  0.0055  0.6475 -0.6091
 2844SOL    HW119751   2.307   0.562   3.522  0.5331  0.5485 -1.0195
 2844SOL    HW219752   2.373   0.688   3.441 -0.2853  1.2797 -0.5554
 2845SOL     OW19753   0.670   9.833   2.752 -0.3521  0.3526 -0.1576
 2845SOL    HW119754   0.724   9.771   2.695 -0.0731  1.5164 -1.1748
 2845SOL    HW219755   0.576   9.838   2.716  0.1801  2.1414 -1.3668
 2846SOL     OW19756   9.189   8.198   5.273 -0.1860 -0.0949 -0.2407
 2846SOL    HW119757   9.157   8.208   5.179 -2.0477 -0.2002  0.3583
 2846SOL    HW219758   9.110   8.188   5.334  0.9823  0.3265  1.3734
 2847SOL     OW19759   2.625   9.152   0.924 -0.1035 -0.3329  0.3053
 2847SOL    HW119760   2.598   9.055   0.929  1.6842 -0.8334  0.6318
 2847SOL    HW219761   2.697   9.169   0.991  0.4516  0.9526 -0.6182
 2848SOL     OW19762   1.168   8.808   3.922 -0.4899  0.4510  0.0432
 2848SOL    HW119763   1.085   8.864   3.924 -0.7612  0.0326  0.5000
 2848SOL    HW219764   1.248   8.868   3.928 -0.6965  0.9901 -2.2776
 2849SOL     OW19765   3.523   3.283   5.517 -0.3455 -0.2510  0.1860
 2849SOL    HW119766   3.530   3.255   5.613  1.3055 -1.2182 -0.1978
 2849SOL    HW219767   3.556   3.209   5.458  0.5056  1.0687 -1.0342
 2850SOL     OW19768   1.330   8.426   5.175 -0.3470  0.5908 -0.2888
 2850SOL    HW119769   1.234   8.441   5.201 -1.0323  0.0593 -2.3500
 2850SOL    HW219770   1.333   8.385   5.084  1.8315 -0.6500  0.3171
 2851SOL     OW19771   7.118   7.194   4.824  0.3008 -0.2164  0.7581
 2851SOL    HW119772   7.084   7.256   4.895  0.8666  0.1067  0.7511
 2851SOL    HW219773   7.206   7.228   4.790 -0.2802  0.0073 -0.5623
 2852SOL     OW19774   0.420   8.700   3.158 -0.2070  0.0075  0.1943
 2852SOL    HW119775   0.480   8.776   3.134  0.9649 -0.4930  1.4694
 2852SOL    HW219776   0.427   8.682   3.256  0.0648 -2.1962 -0.1958
 2853SOL     OW19777   1.001   8.425   4.280  0.2015  0.4455  0.2219
 2853SOL    HW119778   1.070   8.451   4.347 -1.3580  1.2594  1.5384
 2853SOL    HW219779   1.008   8.485   4.200  0.3906  1.1614  0.7722
 2854SOL     OW19780   0.612   4.448   2.139  0.4358 -0.3332  0.2774
 2854SOL    HW119781   0.563   4.495   2.212  1.2295  1.8897 -0.5955
 2854SOL    HW219782   0.609   4.349   2.155  0.4803  0.1102  3.2354
 2855SOL     OW19783   0.494   7.927   6.248  0.2324 -0.3389  0.4991
 2855SOL    HW119784   0.568   7.894   6.306 -0.7276 -0.3096  1.7548
 2855SOL    HW219785   0.420   7.962   6.305 -1.1011 -1.1248 -0.7092
 2856SOL     OW19786   9.063   2.050   4.702  0.1965 -0.2218 -0.2879
 2856SOL    HW119787   9.035   2.098   4.619  0.2955  1.4658  0.6295
 2856SOL    HW219788   9.163   2.044   4.705  0.1905 -0.3468 -0.3396
 2857SOL     OW19789   7.427   7.556   6.573  0.2394 -0.0386  0.1068
 2857SOL    HW119790   7.496   7.627   6.587  0.6059 -0.0611 -1.5485
 2857SOL    HW219791   7.336   7.594   6.592  0.4052  0.9700 -1.0739
 2858SOL     OW19792   7.763   9.755   3.654  0.0412 -0.0375  0.2812
 2858SOL    HW119793   7.703   9.796   3.586  0.8267  2.1309  0.8563
 2858SOL    HW219794   7.850   9.730   3.611  0.0940  0.2150  0.2417
 2859SOL     OW19795   0.392   7.115   3.090  0.2010  0.4556 -0.6555
 2859SOL    HW119796   0.315   7.130   3.152  0.4768  1.9299 -0.6517
 2859SOL    HW219797   0.457   7.051   3.131 -0.3133  0.3119 -0.0592
 2860SOL     OW19798   4.462   1.056   1.008  0.0952  0.6160 -0.2528
 2860SOL    HW119799   4.362   1.062   1.015 -0.1007 -2.4323  0.2176
 2860SOL    HW219800   4.502   1.147   1.019 -2.6256  1.8679 -0.3885
 2861SOL     OW19801   0.988   9.008   5.342  0.0094 -0.0439 -0.5666
 2861SOL    HW119802   0.927   9.080   5.309  1.0510  1.1311 -0.0120
 2861SOL    HW219803   1.008   8.944   5.268 -0.7451  0.3797 -1.1413
 2862SOL     OW19804   5.212   9.370   1.659 -0.0166 -0.8370 -0.1741
 2862SOL    HW119805   5.253   9.388   1.749 -0.4288 -1.2074  0.0958
 2862SOL    HW219806   5.162   9.450   1.628 -0.6759 -1.0321  0.3724
 2863SOL     OW19807   0.353   4.723   4.229 -0.4534  0.1877 -0.2955
 2863SOL    HW119808   0.413   4.649   4.259  0.4576  0.2128 -1.9827
 2863SOL    HW219809   0.347   4.723   4.129 -2.1210  1.0927 -0.2186
 2864SOL     OW19810   8.292   8.992   3.503 -0.3952 -0.3769 -0.2186
 2864SOL    HW119811   8.281   9.086   3.537  0.2627  0.4131 -2.1092
 2864SOL    HW219812   8.206   8.943   3.513 -0.7900  0.4659  0.6592
 2865SOL     OW19813   0.995   5.814   3.949  0.2319  0.1793 -0.2897
 2865SOL    HW119814   1.049   5.876   4.007 -3.1493  2.9275  0.0790
 2865SOL    HW219815   1.028   5.820   3.854  0.4196  2.0635 -0.1238
 2866SOL     OW19816   5.376   1.501   2.147 -0.4173  0.2344  0.0517
 2866SOL    HW119817   5.353   1.587   2.192 -0.3033  0.6520 -0.6882
 2866SOL    HW219818   5.406   1.435   2.216  0.0670  0.9648  0.5476
 2867SOL     OW19819   9.457   6.369   0.457 -0.4104  0.3706  0.0210
 2867SOL    HW119820   9.492   6.400   0.545 -1.0447  0.4892  0.2362
 2867SOL    HW219821   9.450   6.446   0.394  0.5365  0.1940 -0.3026
 2868SOL     OW19822   2.504   5.342   2.143  0.5228 -0.6747 -0.0676
 2868SOL    HW119823   2.543   5.250   2.151 -0.0693 -0.8522  0.9819
 2868SOL    HW219824   2.411   5.335   2.107  0.2460 -0.5410  0.6199
 2869SOL     OW19825   0.331   1.428   4.949  0.3843 -1.2443  0.6063
 2869SOL    HW119826   0.243   1.468   4.926 -0.4192 -3.6658 -0.6408
 2869SOL    HW219827   0.363   1.467   5.036 -0.7896  1.3370 -0.0706
 2870SOL     OW19828   1.651   7.995   2.246  0.5445  0.9299  0.8451
 2870SOL    HW119829   1.690   7.970   2.335  0.8309  0.5390  0.6103
 2870SOL    HW219830   1.721   7.988   2.175 -0.0021  0.0223  0.3865
 2871SOL     OW19831   5.349   4.049   8.059 -0.3458  0.6885  0.5131
 2871SOL    HW119832   5.366   4.084   8.151 -1.4654  1.8243  0.2915
 2871SOL    HW219833   5.326   3.952   8.064 -1.8034  1.0793  1.5640
 2872SOL     OW19834   3.285   3.119   5.347 -0.5859 -0.0025  0.1660
 2872SOL    HW119835   3.330   3.206   5.364 -0.0867 -0.4251  1.0475
 2872SOL    HW219836   3.248   3.082   5.432  0.2737 -1.2312  0.0278
 2873SOL     OW19837   7.946   6.255   5.992  0.2965 -0.1811 -0.6379
 2873SOL    HW119838   8.041   6.247   6.023  0.5374 -0.0483 -1.3435
 2873SOL    HW219839   7.907   6.339   6.029 -0.0306 -0.9911  0.9150
 2874SOL     OW19840   7.628   6.565   5.684 -0.1897 -0.2157  0.0258
 2874SOL    HW119841   7.702   6.616   5.640 -1.0625  0.0102 -1.2256
 2874SOL    HW219842   7.657   6.470   5.698  0.1942 -0.2319 -0.8348
 2875SOL     OW19843   7.426   9.909   4.828  0.0173 -0.5054 -0.5016
 2875SOL    HW119844   7.401   9.997   4.788 -2.6893 -0.5063  1.0829
 2875SOL    HW219845   7.451   9.921   4.924 -1.5140 -1.5742  0.0627
 2876SOL     OW19846   6.242   1.062   2.076  0.2519 -0.1834  0.0689
 2876SOL    HW119847   6.206   1.115   2.152 -0.5390 -2.7954  1.5476
 2876SOL    HW219848   6.183   0.984   2.057  2.7875 -2.0904 -0.3148
 2877SOL     OW19849   3.319   4.192   3.405  0.0932 -0.2083 -0.6698
 2877SOL    HW119850   3.244   4.168   3.343 -0.7394 -1.2501  0.7259
 2877SOL    HW219851   3.392   4.124   3.397 -0.1074 -0.4603 -0.3395
 2878SOL     OW19852   9.285   6.275   3.416 -0.7733 -0.0445 -0.0256
 2878SOL    HW119853   9.324   6.185   3.401 -0.3436  0.2515 -0.6952
 2878SOL    HW219854   9.235   6.276   3.502  0.6484 -0.4406  0.8189
 2879SOL     OW19855   4.882   4.464   7.696  0.0946  0.3325 -0.1563
 2879SOL    HW119856   4.880   4.465   7.596 -3.0323  0.2236 -0.1542
 2879SOL    HW219857   4.915   4.375   7.728  0.5662  0.1719 -1.1013
 2880SOL     OW19858   7.186   3.339   1.709  0.4938 -0.1064  0.3137
 2880SOL    HW119859   7.184   3.409   1.780  1.2807 -1.5551  1.7929
 2880SOL    HW219860   7.096   3.295   1.703 -0.0241  1.0232 -0.6646
 2881SOL     OW19861   1.562   2.137   1.654  0.5588 -0.3677 -0.3517
 2881SOL    HW119862   1.552   2.230   1.620 -0.4171 -0.8303 -1.3462
 2881SOL    HW219863   1.603   2.139   1.746  2.7279  0.9014 -1.3128
 2882SOL     OW19864   4.101   1.765   2.769 -0.1184  0.6696 -0.1948
 2882SOL    HW119865   4.044   1.745   2.849  1.9137  0.9591  1.3970
 2882SOL    HW219866   4.067   1.847   2.723 -1.9119 -0.0741 -0.2338
 2883SOL     OW19867   8.772   2.904   4.528 -0.4055  0.2193  0.2413
 2883SOL    HW119868   8.733   2.953   4.606  0.2630  3.2299 -1.2195
 2883SOL    HW219869   8.792   2.969   4.454 -0.8514 -2.5081 -2.4044
 2884SOL     OW19870   2.416   9.321   3.160 -0.1718 -0.5653 -0.3413
 2884SOL    HW119871   2.415   9.399   3.222 -4.8193 -0.3672 -0.5184
 2884SOL    HW219872   2.395   9.352   3.067  1.3219 -1.6152 -1.0557
 2885SOL     OW19873   4.353   1.668   3.815 -0.2536  0.1491 -0.9877
 2885SOL    HW119874   4.291   1.732   3.771 -1.6662 -0.6131 -0.1454
 2885SOL    HW219875   4.301   1.592   3.854  1.2923 -0.9675 -1.0470
 2886SOL     OW19876   3.155   9.204   2.625  0.0294 -0.2673  0.0633
 2886SOL    HW119877   3.157   9.105   2.637  2.0526  0.0768  3.4044
 2886SOL    HW219878   3.216   9.230   2.550  0.1004 -1.4895 -0.3093
 2887SOL     OW19879   0.665   1.811   0.837  0.3077 -1.0618  0.3628
 2887SOL    HW119880   0.728   1.865   0.780 -1.9497 -0.7165 -1.9025
 2887SOL    HW219881   0.711   1.785   0.922  2.8515  0.8048 -0.3766
 2888SOL     OW19882   9.544   9.187   4.306  0.2785  0.4884  0.6387
 2888SOL    HW119883   9.636   9.151   4.319  0.1508  0.1874  0.7075
 2888SOL    HW219884   9.523   9.253   4.378  0.7209  1.1161  0.1890
 2889SOL     OW19885   2.991   5.200   2.044 -0.5933 -0.3343 -0.0961
 2889SOL    HW119886   3.006   5.298   2.057 -0.0687 -0.3776 -0.3811
 2889SOL    HW219887   2.967   5.182   1.949 -0.0365 -0.5614 -0.1958
 2890SOL     OW19888   9.218   0.255   0.232 -0.0950 -0.1317  0.2782
 2890SOL    HW119889   9.172   0.171   0.262  0.8369 -0.7797 -0.0912
 2890SOL    HW219890   9.150   0.327   0.218 -0.9104 -0.8472  0.5202
 2891SOL     OW19891   7.876   2.645   0.677 -0.0557 -0.0727 -0.4111
 2891SOL    HW119892   7.865   2.613   0.583 -1.2313  1.0214 -0.6545
 2891SOL    HW219893   7.792   2.628   0.728  0.3847 -0.1528  0.3067
 2892SOL     OW19894   2.679   0.092   4.965 -0.1062 -0.9791 -0.0805
 2892SOL    HW119895   2.658  -0.006   4.968  0.4287 -1.0853  0.3849
 2892SOL    HW219896   2.598   0.144   4.993  0.1468 -1.3686  1.3988
 2893SOL     OW19897   2.145   4.698   0.252  0.7163 -0.3215  0.8362
 2893SOL    HW119898   2.047   4.718   0.247  0.9118  0.7061  0.9093
 2893SOL    HW219899   2.162   4.605   0.220 -0.3365 -0.6743  1.2602
 2894SOL     OW19900   4.717   7.192   4.102 -0.2296  0.0359 -0.3638
 2894SOL    HW119901   4.665   7.149   4.029 -0.2770  0.1686 -0.4096
 2894SOL    HW219902   4.796   7.240   4.063  0.2539 -0.6452 -0.2419
 2895SOL     OW19903   9.577   1.572   0.370  0.4998 -0.0599  0.6421
 2895SOL    HW119904   9.485   1.560   0.408 -0.7833 -0.1112 -2.3840
 2895SOL    HW219905   9.591   1.667   0.344  1.1564 -0.1293  0.7257
 2896SOL     OW19906   1.166   8.169   1.593  0.7483  0.4975 -0.3259
 2896SOL    HW119907   1.146   8.101   1.522 -1.2869  0.9155 -0.2010
 2896SOL    HW219908   1.226   8.129   1.662 -0.7187 -1.2949 -0.0535
 2897SOL     OW19909   2.140   9.369   5.014  0.2292 -0.2325 -0.2411
 2897SOL    HW119910   2.057   9.364   4.959  0.1417 -0.8991 -0.0422
 2897SOL    HW219911   2.214   9.321   4.967  0.6979  0.9732 -0.7686
 2898SOL     OW19912   7.817   9.655   4.890  0.0029  0.2033  0.1443
 2898SOL    HW119913   7.750   9.707   4.837 -1.5036 -1.4751  0.3519
 2898SOL    HW219914   7.849   9.711   4.966 -0.9095  1.1661 -0.1616
 2899SOL     OW19915   1.115   6.879   5.165  0.0571 -0.1780  0.2373
 2899SOL    HW119916   1.021   6.857   5.193  0.1778 -1.5658 -0.3797
 2899SOL    HW219917   1.157   6.938   5.234 -0.8734 -0.5337  1.1314
 2900SOL     OW19918   1.963   9.113   4.937 -0.5365 -0.4984  0.3302
 2900SOL    HW119919   1.921   9.034   4.892  0.6291 -0.0438 -1.6441
 2900SOL    HW219920   1.918   9.196   4.905  1.4191 -0.0486 -1.3984
 2901SOL     OW19921   2.369   6.393   2.058 -0.2956 -0.4586  0.6530
 2901SOL    HW119922   2.411   6.415   2.146 -0.2152  2.2462 -0.0407
 2901SOL    HW219923   2.439   6.394   1.986 -0.9592  0.8694  0.0079
 2902SOL     OW19924   0.034   8.326   4.924  0.1195  0.4977  0.6258
 2902SOL    HW119925   0.049   8.422   4.903  0.4729 -0.0742 -1.9559
 2902SOL    HW219926   0.122   8.278   4.925 -0.1965 -0.1039  0.1236
 2903SOL     OW19927   6.988   2.337   0.551 -0.2436 -0.4433 -0.2101
 2903SOL    HW119928   6.889   2.350   0.540 -0.3082  0.4522  1.2901
 2903SOL    HW219929   7.033   2.355   0.464 -1.3467 -0.2562 -0.7565
 2904SOL     OW19930   4.751   8.639   5.903  0.0337 -0.1754  0.1485
 2904SOL    HW119931   4.725   8.687   5.819  0.2016 -0.3814 -0.0238
 2904SOL    HW219932   4.844   8.665   5.929 -1.0769  2.1215  1.8984
 2905SOL     OW19933   8.220   1.226   6.160 -0.1026  0.3745  0.3353
 2905SOL    HW119934   8.130   1.215   6.117  0.1865  1.8413 -0.7041
 2905SOL    HW219935   8.211   1.278   6.245 -0.3090  0.0168  0.5315
 2906SOL     OW19936   3.757   3.252   0.557  0.2043 -0.1718 -0.1513
 2906SOL    HW119937   3.805   3.330   0.596 -0.3865 -0.2805  0.8214
 2906SOL    HW219938   3.658   3.265   0.566  0.0899 -0.7763 -0.4792
 2907SOL     OW19939   5.725   3.023   4.735 -0.3291  0.1270  0.7788
 2907SOL    HW119940   5.752   2.932   4.765 -0.5448 -0.3015 -0.3323
 2907SOL    HW219941   5.626   3.033   4.743 -0.2439  0.4628  1.4408
 2908SOL     OW19942   3.905   0.267   0.946 -0.2051 -0.6916 -0.3463
 2908SOL    HW119943   3.974   0.214   0.995  0.9103  1.2174  0.1915
 2908SOL    HW219944   3.935   0.281   0.852  1.4013  2.2890  0.5550
 2909SOL     OW19945   5.285   5.376   0.004  0.2522  0.0735  0.9088
 2909SOL    HW119946   5.236   5.447   0.055  1.3493  0.6193  1.2220
 2909SOL    HW219947   5.370   5.414  -0.034  1.1372 -1.1964  1.5516
 2910SOL     OW19948   2.045   7.311   4.948 -0.0139 -1.2359 -0.0357
 2910SOL    HW119949   1.995   7.336   4.864 -0.3330  0.9406  0.7673
 2910SOL    HW219950   1.982   7.311   5.025  0.7618 -0.8479  0.5985
 2911SOL     OW19951   0.999   9.526   0.695  0.0399 -0.7161 -0.2605
 2911SOL    HW119952   0.982   9.521   0.597  0.4066 -0.4382 -0.3433
 2911SOL    HW219953   0.983   9.619   0.727 -0.6233 -0.9399  0.0500
 2912SOL     OW19954   6.875   3.060   4.619 -0.3659 -0.1215 -0.3314
 2912SOL    HW119955   6.852   2.963   4.627  0.6825 -0.4827 -1.5337
 2912SOL    HW219956   6.932   3.074   4.538  1.2158  1.1886  0.9730
 2913SOL     OW19957   4.886   2.186   5.318 -0.1975  0.1846 -0.0756
 2913SOL    HW119958   4.977   2.152   5.341  0.3000  2.7035  1.9832
 2913SOL    HW219959   4.891   2.249   5.241 -0.3895 -0.5984 -0.7334
 2914SOL     OW19960   3.311   7.009   2.118  0.6343  0.3204 -0.3815
 2914SOL    HW119961   3.285   7.102   2.142  0.1047 -0.1056  0.7464
 2914SOL    HW219962   3.238   6.946   2.145  0.6247 -0.3328 -1.8986
 2915SOL     OW19963   2.540   8.423   5.740  0.2798 -0.2121  0.0683
 2915SOL    HW119964   2.605   8.482   5.693 -0.0925 -0.1164 -0.3295
 2915SOL    HW219965   2.554   8.328   5.712 -0.3294 -0.0852 -0.6967
 2916SOL     OW19966   5.090   1.939   1.038 -0.1537 -0.3460  0.3210
 2916SOL    HW119967   5.177   1.973   1.003  0.2490  0.2601  1.8680
 2916SOL    HW219968   5.032   2.017   1.065 -0.6839 -0.7775  0.4516
 2917SOL     OW19969   7.988   4.442   3.496 -0.1702  0.3741  0.4855
 2917SOL    HW119970   7.948   4.454   3.587 -0.3820 -0.2651  0.4797
 2917SOL    HW219971   8.083   4.412   3.506 -0.5265 -0.7767  0.5031
 2918SOL     OW19972   0.118   8.624   3.841  0.2380 -0.3793 -0.3791
 2918SOL    HW119973   0.188   8.676   3.794  0.4293 -1.8947 -1.8097
 2918SOL    HW219974   0.050   8.686   3.881  1.7653  1.0290  0.0347
 2919SOL     OW19975   1.784   8.938   4.880 -0.0222  0.5741 -0.3610
 2919SOL    HW119976   1.787   8.954   4.979  0.7093  1.1202 -0.4659
 2919SOL    HW219977   1.691   8.954   4.847 -0.4549 -0.4236  0.3707
 2920SOL     OW19978   4.737   2.608   2.276  0.0081 -0.6234 -1.1653
 2920SOL    HW119979   4.717   2.675   2.347  0.3153 -1.8536  0.1002
 2920SOL    HW219980   4.828   2.625   2.238  0.2727 -0.6113 -0.5246
 2921SOL     OW19981   4.350   3.488   5.601  0.0735 -0.4729 -0.6255
 2921SOL    HW119982   4.444   3.500   5.571  0.2883 -1.5084 -0.3877
 2921SOL    HW219983   4.318   3.397   5.575 -0.2143 -0.8558  1.0201
 2922SOL     OW19984   9.073   4.764   0.120 -0.3904  0.7133 -0.3191
 2922SOL    HW119985   9.063   4.664   0.115  0.1305  0.6450 -0.0729
 2922SOL    HW219986   9.171   4.787   0.123 -0.4005  1.3589 -3.3015
 2923SOL     OW19987   0.645   4.094   1.028  0.1815 -0.0844 -0.0614
 2923SOL    HW119988   0.642   4.009   0.975 -0.0597 -0.0149 -0.1606
 2923SOL    HW219989   0.554   4.135   1.030  0.5035  0.6590 -0.8052
 2924SOL     OW19990   5.457   0.945   5.802  0.4289 -0.0310 -0.2161
 2924SOL    HW119991   5.519   0.992   5.864 -0.1266  0.7707 -0.2572
 2924SOL    HW219992   5.479   0.847   5.800 -0.1385 -0.2319  1.9533
 2925SOL     OW19993   7.506   9.634   4.248 -0.2006 -0.1386 -0.2938
 2925SOL    HW119994   7.445   9.657   4.173 -0.1161 -0.7810 -0.5578
 2925SOL    HW219995   7.599   9.666   4.226 -0.7552  2.3666  0.8452
 2926SOL     OW19996   4.860   4.831   1.429 -0.2742 -0.4627  0.3403
 2926SOL    HW119997   4.912   4.882   1.498  0.0472 -0.5924  0.1926
 2926SOL    HW219998   4.894   4.737   1.425 -0.0724 -0.3659 -0.2262
 2927SOL     OW19999   0.085   6.439   4.214 -0.3305 -0.1451 -0.0578
 2927SOL    HW120000   0.117   6.382   4.290 -0.7510 -1.6297 -0.9785
 2927SOL    HW220001  -0.009   6.416   4.191 -0.3047  0.4873 -0.8548
 2928SOL     OW20002   7.594   7.417   5.372 -0.5277 -0.3351 -0.5856
 2928SOL    HW120003   7.597   7.481   5.449 -1.0750 -1.3789  0.3203
 2928SOL    HW220004   7.513   7.436   5.316  0.8674  1.6233 -1.9784
 2929SOL     OW20005   8.964   4.208   5.284 -0.4111 -0.3567  0.1366
 2929SOL    HW120006   8.940   4.273   5.211  0.8123  0.7575  0.7163
 2929SOL    HW220007   8.891   4.207   5.353  0.2101  1.4729  0.8435
 2930SOL     OW20008   4.176   2.854   3.970 -0.5309  0.1836  0.6675
 2930SOL    HW120009   4.243   2.781   3.985  0.7882  0.8275 -1.9170
 2930SOL    HW220010   4.210   2.939   4.011 -1.0513 -0.1197  1.7470
 2931SOL     OW20011   3.770   7.239   4.715  0.4930  0.1595 -0.2860
 2931SOL    HW120012   3.716   7.244   4.631 -1.2276 -0.1088  0.7767
 2931SOL    HW220013   3.796   7.331   4.744 -0.8414  0.4222  0.0975
 2932SOL     OW20014   0.350   4.418   4.629 -0.0668  0.1738  0.4581
 2932SOL    HW120015   0.361   4.514   4.652 -1.9860  0.3882  0.5889
 2932SOL    HW220016   0.433   4.384   4.584  0.3683  2.0595 -0.2063
 2933SOL     OW20017   8.486   5.668   1.902  0.0917 -0.2946  0.4431
 2933SOL    HW120018   8.561   5.654   1.837  0.3118 -0.1853  0.6721
 2933SOL    HW220019   8.524   5.690   1.992 -0.2185 -0.1078  0.5285
 2934SOL     OW20020   3.713   2.100   0.307  0.4822  0.1058 -0.2579
 2934SOL    HW120021   3.790   2.041   0.329 -1.5739 -2.5774 -0.0210
 2934SOL    HW220022   3.659   2.117   0.389 -0.2320  0.3742 -0.7795
 2935SOL     OW20023   8.172   9.276   1.538 -0.0430  0.8405 -0.1502
 2935SOL    HW120024   8.202   9.200   1.596  2.2843  2.1792  0.4361
 2935SOL    HW220025   8.146   9.241   1.448 -2.8422 -1.1453  1.3626
 2936SOL     OW20026   6.038   5.210   7.969  0.5810  0.0507 -0.3570
 2936SOL    HW120027   5.973   5.148   8.012  0.8048 -1.8884 -2.7358
 2936SOL    HW220028   6.069   5.277   8.036 -0.9209 -1.3788  1.8284
 2937SOL     OW20029   8.596   9.589   3.132 -0.1770  0.0969 -0.0869
 2937SOL    HW120030   8.626   9.525   3.202 -1.2780  0.9917  1.2233
 2937SOL    HW220031   8.499   9.612   3.146 -0.3936  0.3370 -1.8549
 2938SOL     OW20032   1.104   6.935   4.404  0.4285 -0.0971  0.2741
 2938SOL    HW120033   1.041   6.962   4.332 -1.4032  0.3975  2.0005
 2938SOL    HW220034   1.188   6.989   4.398  0.7511 -0.8358 -2.1080
 2939SOL     OW20035   0.017   1.050   5.041  0.2461 -0.4166  0.7664
 2939SOL    HW120036   0.109   1.078   5.014  0.1129 -0.4874  0.2260
 2939SOL    HW220037  -0.003   0.960   5.002 -0.0294 -0.4232  0.9227
 2940SOL     OW20038   8.724   4.795   4.742  0.2222 -0.0257 -0.0084
 2940SOL    HW120039   8.816   4.769   4.771 -0.1290 -0.1074  1.0581
 2940SOL    HW220040   8.715   4.779   4.643  1.1535 -0.5798 -0.0180
 2941SOL     OW20041   9.416   9.004   5.816  0.1801  0.3171 -0.6136
 2941SOL    HW120042   9.481   9.057   5.870  0.4205 -0.4786 -0.1046
 2941SOL    HW220043   9.458   8.917   5.790 -0.9560 -0.5621  0.4093
 2942SOL     OW20044   3.284   1.839   3.124  0.4298 -0.1500  0.1480
 2942SOL    HW120045   3.247   1.864   3.213 -1.3649 -0.1774 -0.5742
 2942SOL    HW220046   3.243   1.896   3.053  1.4092 -0.5264 -0.7383
 2943SOL     OW20047   8.787   2.237   3.291 -0.3595 -0.2745  0.1265
 2943SOL    HW120048   8.815   2.330   3.317 -0.2036 -0.5237  0.8517
 2943SOL    HW220049   8.854   2.198   3.228 -0.4922  0.1482 -0.2851
 2944SOL     OW20050   3.620   6.451   4.197  0.1433 -0.2769  0.0515
 2944SOL    HW120051   3.614   6.425   4.101 -1.5047 -0.3012  0.1517
 2944SOL    HW220052   3.662   6.542   4.205  0.9690 -0.5898 -0.6227
 2945SOL     OW20053   1.333   8.779   3.650 -0.1602 -0.2838  0.1034
 2945SOL    HW120054   1.317   8.857   3.710 -2.0444 -0.6680  0.1445
 2945SOL    HW220055   1.351   8.698   3.706 -1.0739 -0.4633  0.1528
 2946SOL     OW20056   3.654   0.030   5.633 -0.5825 -0.6673 -0.8088
 2946SOL    HW120057   3.555   0.032   5.620 -0.6976  1.1738  0.2426
 2946SOL    HW220058   3.676  -0.009   5.722 -0.3264 -1.6164 -1.2797
 2947SOL     OW20059   6.252   1.785   2.119  0.3433 -0.1771 -0.1802
 2947SOL    HW120060   6.212   1.741   2.200 -0.1059 -0.6374 -0.6517
 2947SOL    HW220061   6.352   1.786   2.129  0.2244  1.0080  1.0092
 2948SOL     OW20062   8.269   9.012   4.934 -0.1370  0.5810  0.0806
 2948SOL    HW120063   8.268   9.068   4.851  0.2837  2.1623  1.1201
 2948SOL    HW220064   8.198   8.942   4.928 -0.6605  1.2152 -1.2565
 2949SOL     OW20065   1.750   9.951   0.408  0.0058  0.2785 -0.1626
 2949SOL    HW120066   1.724   9.876   0.349  1.1854  0.2609 -0.6727
 2949SOL    HW220067   1.813   9.918   0.479 -1.1469  0.3602  0.9081
 2950SOL     OW20068   0.884   5.514   4.604  0.4976 -0.4378  0.5641
 2950SOL    HW120069   0.969   5.505   4.655  1.4234 -1.0044 -1.0260
 2950SOL    HW220070   0.864   5.611   4.587  3.3440 -0.3743 -3.0613
 2951SOL     OW20071   2.873   5.369   3.781 -0.3814 -0.1213  0.2144
 2951SOL    HW120072   2.918   5.368   3.692 -0.4763  2.6138  0.0993
 2951SOL    HW220073   2.932   5.413   3.848 -1.1692 -0.2753  1.0235
 2952SOL     OW20074   1.000   6.566   4.125  0.5888 -0.7801  0.1114
 2952SOL    HW120075   0.984   6.481   4.076  0.2853  0.3418 -1.7612
 2952SOL    HW220076   0.980   6.553   4.222 -1.0346 -2.3916 -0.4257
 2953SOL     OW20077   1.413   0.273   1.790  0.0834 -0.5995 -0.4018
 2953SOL    HW120078   1.318   0.245   1.803 -0.4064  1.1518 -0.0926
 2953SOL    HW220079   1.448   0.315   1.874  1.3085 -1.7114 -0.3368
 2954SOL     OW20080   2.826   9.705   5.482  0.1572  0.6624 -0.3498
 2954SOL    HW120081   2.786   9.790   5.516 -1.1780 -0.0790 -0.0182
 2954SOL    HW220082   2.753   9.646   5.447  1.1893  0.1203 -1.6222
 2955SOL     OW20083   0.398   1.307   2.644  0.3088  0.2254  0.3642
 2955SOL    HW120084   0.308   1.332   2.607 -0.1430 -1.3387  0.3532
 2955SOL    HW220085   0.464   1.302   2.569  0.3759  1.2414  0.3520
 2956SOL     OW20086   0.812   2.170   2.729  0.2952  0.5259  0.1487
 2956SOL    HW120087   0.844   2.250   2.780  1.6394  0.2486 -0.2455
 2956SOL    HW220088   0.791   2.096   2.793  1.7667  0.2491  0.3241
 2957SOL     OW20089   4.149   5.385   0.003  0.2429  0.3377 -0.2726
 2957SOL    HW120090   4.168   5.290   0.029  0.8117  0.7308  0.7555
 2957SOL    HW220091   4.126   5.438   0.084  1.5809  1.4695 -0.6048
 2958SOL     OW20092   3.691   6.426   3.669  0.0003 -0.1355  0.6583
 2958SOL    HW120093   3.693   6.471   3.580  1.5071 -2.1832 -0.4010
 2958SOL    HW220094   3.748   6.476   3.734 -1.0797  1.3455  0.4896
 2959SOL     OW20095   6.859   5.086   7.751 -0.2383 -0.2336 -0.0540
 2959SOL    HW120096   6.817   5.003   7.788 -0.3295 -0.5823 -0.9259
 2959SOL    HW220097   6.908   5.064   7.667  0.2313  0.4929  0.0283
 2960SOL     OW20098   7.415   3.516   3.627  0.2903  0.0758 -0.7199
 2960SOL    HW120099   7.359   3.560   3.697  0.3963  1.4216 -1.4495
 2960SOL    HW220100   7.362   3.445   3.581  0.4632 -1.3516  1.2214
 2961SOL     OW20101   6.532   3.248   0.912  0.1565 -0.4462 -0.3289
 2961SOL    HW120102   6.626   3.281   0.903  0.0164  0.0498  0.0044
 2961SOL    HW220103   6.486   3.299   0.985  0.2389 -2.0105  0.8520
 2962SOL     OW20104   6.281   4.888   1.756 -0.1572 -0.6360 -0.5304
 2962SOL    HW120105   6.355   4.857   1.815 -0.2955 -1.1218 -0.6161
 2962SOL    HW220106   6.222   4.812   1.732  0.3139 -0.5928 -1.8917
 2963SOL     OW20107   5.598   5.159   0.602  0.3232  0.8893  0.0142
 2963SOL    HW120108   5.592   5.059   0.601 -0.6019  0.9170 -3.1281
 2963SOL    HW220109   5.591   5.192   0.696  0.7651 -1.9979  1.1128
 2964SOL     OW20110   7.110   4.550   0.482 -0.1475 -0.7368  0.4055
 2964SOL    HW120111   7.144   4.644   0.489  0.0526 -0.6893 -1.1295
 2964SOL    HW220112   7.010   4.551   0.489 -0.1953 -0.3388 -0.3678
 2965SOL     OW20113   1.493   4.982   3.559  0.0230 -0.5085  0.0428
 2965SOL    HW120114   1.530   5.075   3.557 -0.8004 -0.1025  2.1171
 2965SOL    HW220115   1.565   4.917   3.535  0.8476  0.5968 -0.5390
 2966SOL     OW20116   7.342   3.032   2.206 -0.8440  0.1455  0.2492
 2966SOL    HW120117   7.433   2.993   2.194 -0.9974 -0.6578  1.6136
 2966SOL    HW220118   7.341   3.126   2.173  0.2828 -0.0727 -0.4261
 2967SOL     OW20119   2.152   5.176   1.421 -0.5916 -0.1130  0.1764
 2967SOL    HW120120   2.221   5.235   1.463 -2.6164  2.3820  0.1520
 2967SOL    HW220121   2.113   5.222   1.341 -1.7963 -1.7501 -0.2046
 2968SOL     OW20122   2.613   4.203   2.755  0.1837 -0.0817 -0.0306
 2968SOL    HW120123   2.525   4.179   2.797 -0.9330  0.4234 -2.0233
 2968SOL    HW220124   2.612   4.178   2.659  1.3712  2.0516 -0.6188
 2969SOL     OW20125   7.214   9.373   6.863 -0.2378 -0.4746 -0.3316
 2969SOL    HW120126   7.205   9.462   6.818 -0.3105  0.4112  1.4075
 2969SOL    HW220127   7.126   9.325   6.862  0.0854 -1.0963 -2.3720
 2970SOL     OW20128   3.582   6.785   0.667 -0.2737  0.5619  0.1670
 2970SOL    HW120129   3.523   6.762   0.589 -0.3182  1.2852 -0.0145
 2970SOL    HW220130   3.677   6.791   0.637  0.0122 -1.3637  0.6073
 2971SOL     OW20131   7.461   7.471   4.586 -0.0292 -0.2854 -0.0774
 2971SOL    HW120132   7.532   7.471   4.515  1.0844 -0.9427  1.0058
 2971SOL    HW220133   7.443   7.565   4.613  2.0162 -0.2092  1.1481
 2972SOL     OW20134   9.188   0.222   6.455 -1.1019 -0.1101 -0.1074
 2972SOL    HW120135   9.194   0.141   6.513 -1.2999  0.5350  0.8280
 2972SOL    HW220136   9.121   0.207   6.382  0.5278 -1.6377 -1.3272
 2973SOL     OW20137   1.159   6.273   4.617 -0.5789 -0.0517 -0.3948
 2973SOL    HW120138   1.135   6.329   4.696 -0.1388 -1.3508  0.6795
 2973SOL    HW220139   1.212   6.328   4.552 -0.5278  0.8920  0.4333
 2974SOL     OW20140   6.369   2.154   4.327  0.0641  0.2243 -0.6470
 2974SOL    HW120141   6.278   2.194   4.325  0.0675  0.2317 -0.6618
 2974SOL    HW220142   6.429   2.204   4.265  0.4431  1.1029  0.4183
 2975SOL     OW20143   1.300   2.248   5.613  0.2929 -0.1998  0.0155
 2975SOL    HW120144   1.281   2.346   5.624  1.1281 -0.0747  0.3616
 2975SOL    HW220145   1.327   2.209   5.701 -0.6896 -0.8937  0.0219
 2976SOL     OW20146   9.522   1.981   5.374 -0.0355 -0.6376  0.3448
 2976SOL    HW120147   9.461   1.947   5.446 -0.1918 -2.2192 -0.5336
 2976SOL    HW220148   9.512   1.926   5.292 -0.4680  1.6734 -1.2047
 2977SOL     OW20149   0.053   0.703   1.600 -0.2795 -0.3689 -1.1372
 2977SOL    HW120150   0.022   0.664   1.687 -2.1027 -0.4415 -1.7958
 2977SOL    HW220151   0.147   0.674   1.583  0.7020  1.0109  1.5910
 2978SOL     OW20152   1.999   8.980   2.993  0.2704 -0.3873  0.0667
 2978SOL    HW120153   1.998   9.039   3.073 -0.0087 -1.5710  0.9544
 2978SOL    HW220154   2.084   8.927   2.990 -0.1428 -1.0726  0.1386
 2979SOL     OW20155   1.907   2.090   4.841  0.0582  0.7013  0.3382
 2979SOL    HW120156   1.991   2.101   4.788 -0.0633  0.1342  0.0229
 2979SOL    HW220157   1.828   2.106   4.782 -0.0655  0.6178  0.4795
 2980SOL     OW20158   6.279   9.219   6.718  0.7964  0.1044 -0.6819
 2980SOL    HW120159   6.267   9.300   6.777  0.7231 -1.3603  1.3676
 2980SOL    HW220160   6.190   9.179   6.698  0.9575 -0.5249 -0.1615
 2981SOL     OW20161   7.514   9.227   5.803 -0.3004 -0.3810 -0.4388
 2981SOL    HW120162   7.449   9.302   5.820  1.0855  0.4585  1.3049
 2981SOL    HW220163   7.474   9.141   5.835  0.2035  0.4238  2.5444
 2982SOL     OW20164   1.653   4.458   4.276 -0.3107  0.6582 -0.4831
 2982SOL    HW120165   1.737   4.421   4.236  0.1173  1.5772 -0.4624
 2982SOL    HW220166   1.637   4.414   4.365  0.8930  1.4288  0.1305
 2983SOL     OW20167   4.764   0.294   0.908  0.1137  0.5920  0.0043
 2983SOL    HW120168   4.756   0.210   0.961  1.1160  1.2836  1.2621
 2983SOL    HW220169   4.725   0.279   0.817  0.8600 -1.4253 -0.0127
 2984SOL     OW20170   9.746   4.462   2.107 -0.1883 -0.1798 -0.2016
 2984SOL    HW120171   9.751   4.445   2.206  0.0856  0.6622 -0.0727
 2984SOL    HW220172   9.771   4.378   2.058  2.4068  0.1827  0.4409
 2985SOL     OW20173   3.750   1.985   4.787 -0.2139 -1.0894 -0.5648
 2985SOL    HW120174   3.837   1.981   4.738 -0.7596  0.6333 -1.7090
 2985SOL    HW220175   3.718   1.892   4.805  2.4978 -1.7656  1.0560
 2986SOL     OW20176   5.925   2.232   3.383  0.1392 -0.5032 -0.0584
 2986SOL    HW120177   5.919   2.137   3.411  1.6523 -0.7290 -0.4196
 2986SOL    HW220178   5.918   2.291   3.463 -0.5814 -0.9299  0.1901
 2987SOL     OW20179   9.838   4.277   0.733 -0.7150 -0.0987 -0.1727
 2987SOL    HW120180   9.765   4.270   0.665 -2.3437  1.4975  1.3380
 2987SOL    HW220181   9.819   4.216   0.810  0.3237 -0.7674 -0.4358
 2988SOL     OW20182   2.563   2.939   5.228 -0.3185 -0.0536 -0.7090
 2988SOL    HW120183   2.516   2.973   5.146  0.7832  1.2118 -0.8376
 2988SOL    HW220184   2.502   2.945   5.307 -0.2373  2.0132 -0.7788
 2989SOL     OW20185   2.028   4.012   3.290  0.5979 -0.7458  0.3273
 2989SOL    HW120186   2.100   3.966   3.238  1.8077 -0.6296  1.8743
 2989SOL    HW220187   1.990   4.087   3.235  1.0094 -1.3942 -0.8608
 2990SOL     OW20188   1.798   4.097   4.570  0.4611 -0.2739 -0.3323
 2990SOL    HW120189   1.712   4.055   4.598 -0.5725  1.4058 -0.9311
 2990SOL    HW220190   1.858   4.108   4.650  0.3501 -1.8945  0.0041
 2991SOL     OW20191   0.062   7.573   1.535 -0.0863 -0.2564 -0.4611
 2991SOL    HW120192   0.161   7.579   1.551 -0.5683 -0.7718  3.1242
 2991SOL    HW220193   0.028   7.486   1.571 -1.6906 -0.6266 -2.7840
 2992SOL     OW20194   6.686   0.102   5.673  0.6708 -0.1791  0.2161
 2992SOL    HW120195   6.767   0.077   5.725  2.3164  1.3364 -1.5031
 2992SOL    HW220196   6.708   0.181   5.615 -2.5473  1.3387  0.9950
 2993SOL     OW20197   5.458   2.989   4.293  0.2381 -0.1661  0.0259
 2993SOL    HW120198   5.542   2.989   4.348  1.1326  2.8520 -1.2208
 2993SOL    HW220199   5.474   2.939   4.208  0.5800 -0.0876  0.0446
 2994SOL     OW20200   2.748   7.608   7.777  0.3698  0.5065  0.1572
 2994SOL    HW120201   2.844   7.622   7.803  1.3502 -1.8147 -1.9786
 2994SOL    HW220202   2.725   7.511   7.788 -0.9232  0.5610 -1.9007
 2995SOL     OW20203   9.489   8.720   2.784 -0.0014  0.0758 -0.3447
 2995SOL    HW120204   9.481   8.702   2.686 -2.3384  2.7779 -0.7239
 2995SOL    HW220205   9.581   8.752   2.805  2.1964 -5.4618 -0.6925
 2996SOL     OW20206   4.474   3.418   0.334 -0.2896  0.7385  0.0679
 2996SOL    HW120207   4.528   3.373   0.264 -1.2765  0.1361 -0.3166
 2996SOL    HW220208   4.514   3.400   0.424  1.2534  1.9269 -0.3745
 2997SOL     OW20209   7.316   7.697   1.816 -0.5294 -0.2663  0.8400
 2997SOL    HW120210   7.299   7.750   1.733 -0.8512  1.1709  1.8019
 2997SOL    HW220211   7.316   7.599   1.794  0.6610  0.1342 -1.0670
 2998SOL     OW20212   1.585   0.262   0.255  0.4148  0.2795 -0.0243
 2998SOL    HW120213   1.600   0.290   0.349 -3.1596  0.6740  0.4883
 2998SOL    HW220214   1.533   0.177   0.253 -2.3904  1.9698 -1.6150
 2999SOL     OW20215   5.000   4.589   1.511 -0.1344 -0.6604  0.2569
 2999SOL    HW120216   4.934   4.607   1.583 -0.3085 -1.1930  0.2340
 2999SOL    HW220217   5.088   4.564   1.551 -0.3385 -1.3435  0.2914
 3000SOL     OW20218   1.117   5.167   0.001  0.4428  0.2959 -0.4975
 3000SOL    HW120219   1.194   5.215   0.043  0.2443  0.2462 -0.0806
 3000SOL    HW220220   1.098   5.084   0.051 -0.3199  0.6519 -0.1968
 3001SOL     OW20221   8.518   4.485   5.031 -0.2633  0.1117 -0.0965
 3001SOL    HW120222   8.500   4.388   5.015  3.6345 -0.8309  0.8454
 3001SOL    HW220223   8.529   4.531   4.943  1.7288 -1.1074 -0.5179
 3002SOL     OW20224   4.029   9.447   0.469  0.2850 -0.0246  0.6004
 3002SOL    HW120225   3.929   9.445   0.464  0.2261  2.3310  0.5448
 3002SOL    HW220226   4.061   9.363   0.513 -1.6287 -1.4398 -0.6292
 3003SOL     OW20227   4.239   9.051   4.794 -0.1110 -0.1101 -0.0142
 3003SOL    HW120228   4.237   9.008   4.703 -1.9367  1.0867 -0.5731
 3003SOL    HW220229   4.276   9.144   4.786 -1.2583  0.3753  0.2855
 3004SOL     OW20230   3.750   6.595   2.204  0.2854  0.1911  0.2000
 3004SOL    HW120231   3.710   6.504   2.205 -0.9921  0.7476  0.3161
 3004SOL    HW220232   3.747   6.634   2.296  2.8654 -0.5126  0.6171
 3005SOL     OW20233   6.394   1.042   1.869  0.6313 -0.3093  0.1604
 3005SOL    HW120234   6.472   1.002   1.916  0.5290 -0.4416  0.2160
 3005SOL    HW220235   6.320   1.059   1.934  1.1585  1.2044  0.3919
 3006SOL     OW20236   4.196   5.869   3.774  0.3146  0.1182  0.2442
 3006SOL    HW120237   4.294   5.876   3.759  0.1550 -1.7068 -1.9402
 3006SOL    HW220238   4.152   5.956   3.749  1.5935  1.8792  3.7927
 3007SOL     OW20239   9.593   9.507   3.671 -0.1376  0.3884  0.0787
 3007SOL    HW120240   9.499   9.539   3.672 -0.2753  0.0464 -1.0402
 3007SOL    HW220241   9.641   9.540   3.753 -1.1710  0.7103  0.5565
 3008SOL     OW20242   7.707   2.780   4.899  0.2219  0.1762  0.1945
 3008SOL    HW120243   7.800   2.749   4.920  0.8048  1.9838  0.3826
 3008SOL    HW220244   7.683   2.856   4.959 -0.0613  2.0062 -2.1383
 3009SOL     OW20245   8.426   6.269   5.291 -0.0020 -0.4685  0.2035
 3009SOL    HW120246   8.339   6.220   5.305 -0.7009  0.4917 -0.6492
 3009SOL    HW220247   8.457   6.254   5.197  0.1354  0.1398  0.1507
 3010SOL     OW20248   6.355   3.599   0.041 -0.0524  0.4469  0.1670
 3010SOL    HW120249   6.409   3.676   0.009 -0.0022  0.7682  1.0280
 3010SOL    HW220250   6.342   3.534  -0.034 -0.7238  1.6426 -0.7812
 3011SOL     OW20251   3.708   4.465   5.392  0.3892  0.4049 -0.5659
 3011SOL    HW120252   3.625   4.417   5.421 -0.1278  1.6054  0.0004
 3011SOL    HW220253   3.690   4.564   5.392  0.8316  0.5188 -3.5184
 3012SOL     OW20254   9.512   9.786   0.619 -0.4019 -0.4352  0.3154
 3012SOL    HW120255   9.588   9.790   0.684  0.2314 -1.7678 -0.3207
 3012SOL    HW220256   9.510   9.695   0.577 -0.3953  0.6037 -2.0056
 3013SOL     OW20257   7.531   9.689   2.236  0.1677 -0.5003  0.1359
 3013SOL    HW120258   7.471   9.737   2.299  1.2967 -1.6973  2.1607
 3013SOL    HW220259   7.477   9.654   2.159 -1.3198  0.4699  0.7210
 3014SOL     OW20260   2.888   7.871   1.086 -0.1756 -0.1718 -0.6292
 3014SOL    HW120261   2.951   7.928   1.140 -0.8506  0.0814 -0.0937
 3014SOL    HW220262   2.903   7.775   1.109  0.5675 -0.1746 -1.1041
 3015SOL     OW20263   2.565   7.332   3.860  0.2502  0.1670 -0.2948
 3015SOL    HW120264   2.580   7.365   3.953 -3.6750  2.2416 -0.2986
 3015SOL    HW220265   2.519   7.244   3.863 -1.2671  0.9392 -0.2055
 3016SOL     OW20266   7.036   1.611   4.134 -0.3768 -0.6278 -0.2240
 3016SOL    HW120267   7.065   1.614   4.038  1.1641  0.7536  0.2542
 3016SOL    HW220268   7.092   1.544   4.183  0.4146  0.3265  0.1927
 3017SOL     OW20269   0.019   4.615   2.684 -0.5265  0.2402 -0.1102
 3017SOL    HW120270  -0.000   4.666   2.767 -0.6440 -1.5025  0.9609
 3017SOL    HW220271  -0.065   4.608   2.629 -1.1806 -1.0500  1.0198
 3018SOL     OW20272   0.798   0.722   2.683 -0.5818 -0.5114  0.5487
 3018SOL    HW120273   0.739   0.651   2.721  0.0996 -0.8351  1.0349
 3018SOL    HW220274   0.748   0.808   2.678 -1.3617 -0.9844  0.1198
 3019SOL     OW20275   4.565   3.670   7.765 -0.0763 -0.0535 -0.6261
 3019SOL    HW120276   4.513   3.589   7.735  1.8675 -1.0166 -1.4803
 3019SOL    HW220277   4.643   3.641   7.821  1.9930  1.0237 -2.8750
 3020SOL     OW20278   1.635   0.872   0.857 -0.1937  0.1673  0.5265
 3020SOL    HW120279   1.636   0.773   0.849  3.0706  0.0207  1.8444
 3020SOL    HW220280   1.640   0.913   0.765  3.4065 -1.0180  0.0984
 3021SOL     OW20281   3.763   3.774   2.049  0.9917 -0.0448 -0.0759
 3021SOL    HW120282   3.676   3.799   2.007 -0.4366 -3.1556  0.8796
 3021SOL    HW220283   3.779   3.831   2.129  0.1742  1.0245 -0.6595
 3022SOL     OW20284   7.240   2.303   5.938 -0.1039 -0.0032 -0.0256
 3022SOL    HW120285   7.251   2.219   5.884 -0.4717  0.2778 -0.5362
 3022SOL    HW220286   7.187   2.283   6.020  0.2418 -0.3775  0.1103
 3023SOL     OW20287   0.583   8.155   5.737  0.1738 -0.1301  0.1373
 3023SOL    HW120288   0.548   8.106   5.816  0.1918 -0.1460  0.1348
 3023SOL    HW220289   0.647   8.097   5.687  0.7653  0.1457  0.5507
 3024SOL     OW20290   2.270   7.375   7.914  0.3851 -0.2174 -0.0646
 3024SOL    HW120291   2.328   7.412   7.842 -0.3458 -0.3815 -0.7426
 3024SOL    HW220292   2.325   7.357   7.995  1.3512 -0.7593 -0.8408
 3025SOL     OW20293   1.097   4.090   4.434  0.3394 -0.2541  0.3185
 3025SOL    HW120294   1.012   4.038   4.420  0.8454 -1.0480  0.1232
 3025SOL    HW220295   1.100   4.166   4.369 -0.1451 -0.3277  0.2038
 3026SOL     OW20296   1.057   4.307   3.915  0.0228  0.1646 -0.0008
 3026SOL    HW120297   1.111   4.230   3.949  0.9016  0.6485 -0.2572
 3026SOL    HW220298   1.107   4.352   3.841 -1.7907 -0.7496 -1.7919
 3027SOL     OW20299   4.946   0.805   2.781  0.2339  0.7157  0.4199
 3027SOL    HW120300   5.029   0.860   2.788  0.3582  0.4316  1.2441
 3027SOL    HW220301   4.949   0.751   2.697 -0.2304  2.4932 -0.7710
 3028SOL     OW20302   1.609   7.350   0.778  0.2085  0.1377 -0.2933
 3028SOL    HW120303   1.658   7.292   0.844 -0.7258  0.0567  0.3462
 3028SOL    HW220304   1.641   7.444   0.788  0.1747  0.1034  0.1905
 3029SOL     OW20305   8.822   2.956   2.101 -0.0267  0.3063  0.5654
 3029SOL    HW120306   8.916   2.931   2.078 -0.1125 -1.1177  1.6994
 3029SOL    HW220307   8.822   3.009   2.186 -0.3997 -1.4151  1.6622
 3030SOL     OW20308   4.230   4.763   0.848  0.3399 -0.2297  0.1974
 3030SOL    HW120309   4.178   4.757   0.933  0.6998 -1.1424  0.3661
 3030SOL    HW220310   4.325   4.737   0.865  0.8278  1.2946 -0.1359
 3031SOL     OW20311   5.390   7.966   5.115 -0.2178  0.4092  0.0013
 3031SOL    HW120312   5.309   8.011   5.076 -1.6967 -1.6753  0.5493
 3031SOL    HW220313   5.393   7.871   5.084  1.6480  0.2818  0.5553
 3032SOL     OW20314   2.064   9.463   1.382 -0.1560  0.1051 -0.3238
 3032SOL    HW120315   2.023   9.384   1.337  1.4364 -0.4425 -0.8618
 3032SOL    HW220316   2.163   9.461   1.368 -0.3297  3.5997 -2.6298
 3033SOL     OW20317   0.452   0.273   2.726  0.6077 -0.3044  0.6903
 3033SOL    HW120318   0.481   0.355   2.775 -0.3868 -0.5327  1.6856
 3033SOL    HW220319   0.407   0.299   2.640  0.8849  0.1643  0.6907
 3034SOL     OW20320   9.771   7.795   2.141 -0.5248  0.4271 -0.4015
 3034SOL    HW120321   9.728   7.883   2.119 -2.0499 -0.0860  0.3970
 3034SOL    HW220322   9.802   7.796   2.236  0.7582  0.5959 -0.8145
 3035SOL     OW20323   9.014   6.995   3.599  0.1977 -0.1470 -0.0303
 3035SOL    HW120324   9.049   7.045   3.678  0.2281 -0.9508  0.4662
 3035SOL    HW220325   9.089   6.970   3.539  0.2082  0.1902 -0.1633
 3036SOL     OW20326   2.746   4.766   3.392  0.3410  0.1466 -0.4144
 3036SOL    HW120327   2.685   4.824   3.446  0.4359  1.1798 -1.3927
 3036SOL    HW220328   2.822   4.734   3.449 -0.0590  0.4633  0.2953
 3037SOL     OW20329   9.252   1.814   1.254  0.6137  0.3864  0.7892
 3037SOL    HW120330   9.219   1.906   1.234  1.1928  0.2857 -0.6991
 3037SOL    HW220331   9.299   1.777   1.174 -1.5319 -2.0744  0.6260
 3038SOL     OW20332   8.291   3.814   4.577 -0.0060  0.4211  0.6818
 3038SOL    HW120333   8.271   3.895   4.631 -3.0319 -1.3515  2.3706
 3038SOL    HW220334   8.330   3.743   4.636  1.9894  0.3668 -0.6464
 3039SOL     OW20335   9.581   8.640   5.921 -0.7439 -0.1435 -0.3547
 3039SOL    HW120336   9.506   8.591   5.965 -0.2666 -1.5282 -1.0412
 3039SOL    HW220337   9.666   8.589   5.935 -0.0294  1.1053 -0.0904
 3040SOL     OW20338   7.870   1.089   0.258  0.1305  0.2072 -0.2397
 3040SOL    HW120339   7.817   1.004   0.263  3.0729 -1.6942 -0.0902
 3040SOL    HW220340   7.874   1.132   0.348  0.7487 -0.8730  0.2620
 3041SOL     OW20341   8.505   6.303   3.842  0.0033 -0.1253  0.4534
 3041SOL    HW120342   8.605   6.306   3.835 -0.0138  0.1965  0.3825
 3041SOL    HW220343   8.465   6.378   3.791 -0.2457  0.1979  1.1216
 3042SOL     OW20344   4.128   7.515   3.173 -0.1759 -0.2876 -0.1545
 3042SOL    HW120345   4.211   7.557   3.136 -0.2189  1.1195  1.3043
 3042SOL    HW220346   4.047   7.554   3.129 -0.0979 -1.8319 -1.7523
 3043SOL     OW20347   8.080   9.001   2.390 -0.0525  0.4046  0.3182
 3043SOL    HW120348   8.145   9.046   2.329  0.0608  0.6171  0.5906
 3043SOL    HW220349   8.026   9.071   2.438 -0.0618  0.2416  0.5445
 3044SOL     OW20350   1.935   2.440   4.124  0.3163  0.1421 -0.0911
 3044SOL    HW120351   1.939   2.483   4.034 -1.0587 -0.9874 -0.7246
 3044SOL    HW220352   2.027   2.417   4.154  0.6891 -0.9590 -1.9639
 3045SOL     OW20353   3.500   8.754   4.580 -0.5370  0.1593 -0.2083
 3045SOL    HW120354   3.446   8.671   4.575 -0.7494  0.1584  1.8848
 3045SOL    HW220355   3.526   8.773   4.675 -1.1789  2.9152 -0.5195
 3046SOL     OW20356   9.885   7.934   0.686 -0.2856  0.1839 -0.2886
 3046SOL    HW120357   9.798   7.914   0.732 -0.8064 -0.9107 -1.6863
 3046SOL    HW220358   9.956   7.872   0.720 -0.8721 -1.2051 -1.5249
 3047SOL     OW20359   3.347   5.530   0.057 -0.3355 -0.5170 -0.1645
 3047SOL    HW120360   3.349   5.625   0.026  2.1600 -0.0344  1.3175
 3047SOL    HW220361   3.337   5.527   0.157 -1.0532 -1.8325 -0.2572
 3048SOL     OW20362   9.623   2.921   4.783 -0.3473 -0.1285  0.1115
 3048SOL    HW120363   9.709   2.953   4.743  0.4724  1.0972  2.7284
 3048SOL    HW220364   9.587   2.991   4.844 -3.8429 -0.1547 -1.7707
 3049SOL     OW20365   0.438   7.735   0.143 -0.3265 -0.6939  0.1735
 3049SOL    HW120366   0.536   7.756   0.152 -0.0621 -1.5607 -0.6573
 3049SOL    HW220367   0.385   7.803   0.194  0.6364  0.7023 -0.6567
 3050SOL     OW20368   2.765   9.539   4.123  0.0028  0.2276  0.7589
 3050SOL    HW120369   2.822   9.576   4.050  0.8611 -2.0593  0.2478
 3050SOL    HW220370   2.811   9.551   4.211  0.2418  0.4311  0.6053
 3051SOL     OW20371   0.243   8.549   0.753  0.4612 -0.0463 -0.6070
 3051SOL    HW120372   0.210   8.613   0.822  1.8622 -1.1509  1.1785
 3051SOL    HW220373   0.339   8.527   0.773  0.1085 -2.3859 -1.3637
 3052SOL     OW20374   3.472   3.785   2.609  0.2515  0.0293 -0.1790
 3052SOL    HW120375   3.414   3.708   2.635  0.5870  0.1136  0.8633
 3052SOL    HW220376   3.551   3.789   2.671 -0.1392  1.6390  0.2298
 3053SOL     OW20377   1.912   0.171   5.873 -0.1374 -0.2978 -0.7692
 3053SOL    HW120378   1.963   0.137   5.951  1.5306 -0.1071 -1.7459
 3053SOL    HW220379   1.827   0.214   5.904  1.2782  1.2365  1.0639
 3054SOL     OW20380   5.008   6.990   2.884 -0.4608 -0.0339 -0.6775
 3054SOL    HW120381   4.955   6.991   2.799 -2.0261 -0.2256  0.2783
 3054SOL    HW220382   5.104   7.009   2.863 -0.6715 -0.9004 -2.5857
 3055SOL     OW20383   5.979   8.334   5.032  0.2361  0.2777 -0.6043
 3055SOL    HW120384   5.922   8.410   5.063 -1.2329 -0.9552 -0.2223
 3055SOL    HW220385   5.944   8.248   5.070 -0.1371 -1.0045 -3.6979
 3056SOL     OW20386   7.011   0.990   3.684  0.8614 -0.2022  0.3584
 3056SOL    HW120387   7.041   1.082   3.707 -1.4115  0.8120 -0.5251
 3056SOL    HW220388   7.065   0.955   3.606  2.6459 -0.1918  1.5684
 3057SOL     OW20389   3.509   7.600   4.939  0.1803  0.1537  0.0982
 3057SOL    HW120390   3.603   7.634   4.932  0.0059  0.5107 -0.5447
 3057SOL    HW220391   3.507   7.520   4.999  0.7436  0.7074  0.8683
 3058SOL     OW20392   6.494   1.108   3.657 -0.0631  0.0144  0.8184
 3058SOL    HW120393   6.590   1.104   3.685 -0.1897  2.7097  1.8399
 3058SOL    HW220394   6.485   1.171   3.580 -0.9950 -0.3765  0.6031
 3059SOL     OW20395   9.598   1.918   3.693  0.1920  0.0344  0.3627
 3059SOL    HW120396   9.626   1.957   3.605 -0.1005  2.1741  1.1809
 3059SOL    HW220397   9.649   1.962   3.766 -0.6724 -0.6493  1.3809
 3060SOL     OW20398   4.277   7.872   1.422 -0.1119  0.3336 -0.6323
 3060SOL    HW120399   4.358   7.879   1.481 -0.9013  1.3626  0.3492
 3060SOL    HW220400   4.212   7.809   1.464  0.1937 -0.5444 -1.4552
 3061SOL     OW20401   1.558   7.550   6.495 -0.0708  0.0454 -0.3891
 3061SOL    HW120402   1.468   7.593   6.486 -1.0007 -1.6196  0.5746
 3061SOL    HW220403   1.615   7.605   6.555 -0.7853  0.6159 -0.2189
 3062SOL     OW20404   6.390   8.834   3.440  0.3859  0.1894  0.0767
 3062SOL    HW120405   6.370   8.881   3.354 -1.8002  0.9619  0.9936
 3062SOL    HW220406   6.482   8.859   3.471 -0.0583  2.4798 -0.3816
 3063SOL     OW20407   7.708   3.208   5.442 -0.0019 -0.4931  0.2990
 3063SOL    HW120408   7.793   3.231   5.488  0.4508 -1.5026 -0.0206
 3063SOL    HW220409   7.721   3.212   5.343 -0.6037  0.3452  0.2490
 3064SOL     OW20410   6.959   0.455   5.974  0.1148  0.2784  0.1672
 3064SOL    HW120411   7.034   0.512   6.009  0.4344  0.7650 -1.2894
 3064SOL    HW220412   6.880   0.513   5.956 -0.0839  0.0114  0.1915
 3065SOL     OW20413   2.864   8.050   0.309  0.1514 -0.4684 -0.5792
 3065SOL    HW120414   2.869   8.043   0.409  0.6336  0.2535 -0.5544
 3065SOL    HW220415   2.808   8.129   0.284  0.0175 -0.6573 -0.8862
 3066SOL     OW20416   4.995   9.395   2.279 -0.9450 -0.2768  0.5788
 3066SOL    HW120417   4.934   9.361   2.350  0.3068  0.3879  1.9935
 3066SOL    HW220418   5.000   9.495   2.285  0.7729 -0.3700  0.9039
 3067SOL     OW20419   9.609   4.602   5.597 -0.0323  0.1662  0.3828
 3067SOL    HW120420   9.621   4.701   5.596 -0.9727  0.2894 -1.2625
 3067SOL    HW220421   9.576   4.573   5.687 -1.7446  1.6056  0.2318
 3068SOL     OW20422   2.073   3.333   4.639 -0.2297  0.4217  0.7282
 3068SOL    HW120423   2.168   3.337   4.607 -0.9144 -1.8268 -1.6625
 3068SOL    HW220424   2.066   3.265   4.712 -0.1413  0.0624  0.4038
 3069SOL     OW20425   1.178   2.747   5.398 -0.1488  0.3341 -0.3007
 3069SOL    HW120426   1.220   2.826   5.353 -0.9539  0.7661 -0.2985
 3069SOL    HW220427   1.111   2.705   5.336 -2.8198  2.1873  1.2084
 3070SOL     OW20428   0.251   6.564   0.044  0.1784  0.0046  0.3060
 3070SOL    HW120429   0.287   6.546  -0.048  0.3438 -0.2818  0.4260
 3070SOL    HW220430   0.162   6.519   0.053  0.9603 -1.4649  0.8832
 3071SOL     OW20431   6.843   2.860   3.086 -0.2907  0.5238 -0.2143
 3071SOL    HW120432   6.861   2.801   3.165  0.6895 -0.0620 -0.8738
 3071SOL    HW220433   6.925   2.912   3.064 -0.9929  1.7690  0.0408
 3072SOL     OW20434   1.878   8.278   0.460  0.3972  0.4055  0.5628
 3072SOL    HW120435   1.848   8.268   0.555 -2.3484 -0.6043 -0.3692
 3072SOL    HW220436   1.905   8.189   0.424  0.3265  0.6023  0.0186
 3073SOL     OW20437   3.113   4.574   3.576  0.0676 -0.0590 -0.3309
 3073SOL    HW120438   3.211   4.588   3.564  0.2747 -0.5537  0.7388
 3073SOL    HW220439   3.093   4.476   3.564 -0.2572  0.0067 -0.3084
 3074SOL     OW20440   6.777   3.271   4.788 -0.1897  0.4687  0.0899
 3074SOL    HW120441   6.807   3.201   4.723 -0.9778 -0.5208  0.7740
 3074SOL    HW220442   6.739   3.227   4.870 -0.5816  1.6947  0.5869
 3075SOL     OW20443   0.580   7.290   1.835 -0.1541 -0.0848 -0.1032
 3075SOL    HW120444   0.527   7.362   1.880  0.2339 -1.2907  2.3429
 3075SOL    HW220445   0.623   7.327   1.753 -1.2558  2.0423  0.2414
 3076SOL     OW20446   3.187   5.099   1.034 -0.0019 -0.1275  0.1211
 3076SOL    HW120447   3.088   5.095   1.019  0.0547 -2.4342  0.0841
 3076SOL    HW220448   3.234   5.054   0.958  0.9922 -0.1474  0.7360
 3077SOL     OW20449   3.625   7.973   2.447  0.0367 -0.5679  0.0182
 3077SOL    HW120450   3.616   7.875   2.430  1.3405 -0.2522 -2.7009
 3077SOL    HW220451   3.721   8.000   2.437 -0.4535  1.1592 -0.2048
 3078SOL     OW20452   7.335   2.046   6.288 -0.1745  0.2889  0.2715
 3078SOL    HW120453   7.375   2.027   6.198 -0.3380 -0.0216  0.2635
 3078SOL    HW220454   7.255   2.105   6.277 -1.1549 -1.0482  0.0521
 3079SOL     OW20455   2.560   5.380   2.688 -0.2333 -0.5350 -0.1751
 3079SOL    HW120456   2.513   5.467   2.698  0.9917  0.1417 -0.2648
 3079SOL    HW220457   2.593   5.349   2.777 -1.6147 -1.4589  0.0360
 3080SOL     OW20458   9.068   5.902   3.868 -0.5966 -0.1442  0.1838
 3080SOL    HW120459   9.070   5.873   3.964 -0.8986 -0.5197  0.0778
 3080SOL    HW220460   9.159   5.934   3.840 -0.3445 -0.6945  0.3888
 3081SOL     OW20461   7.256   1.490   4.822  0.4424 -0.2739 -0.3953
 3081SOL    HW120462   7.209   1.418   4.771 -0.2564  0.0219 -0.1765
 3081SOL    HW220463   7.229   1.579   4.785  1.7111 -0.1427 -1.0101
 3082SOL     OW20464   8.744   1.675   2.584 -0.7008  0.6997  0.5111
 3082SOL    HW120465   8.782   1.761   2.549  0.9700  0.3704  1.4826
 3082SOL    HW220466   8.647   1.688   2.606 -1.0133  1.7473 -1.3323
 3083SOL     OW20467   4.410   0.806   6.044 -0.4305  0.4491 -0.3600
 3083SOL    HW120468   4.423   0.891   5.994 -2.1203 -0.5453 -2.6043
 3083SOL    HW220469   4.493   0.750   6.036 -0.2257  0.8372 -0.9714
 3084SOL     OW20470   0.053   4.687   1.495  0.0185 -0.4977  0.1999
 3084SOL    HW120471   0.008   4.615   1.548 -0.6382  0.5850  1.1389
 3084SOL    HW220472   0.095   4.753   1.557  2.0576 -0.9524 -0.6656
 3085SOL     OW20473   2.147   2.742   0.322  0.7776 -0.0025 -0.1036
 3085SOL    HW120474   2.156   2.841   0.331 -0.5169  0.0748  0.3670
 3085SOL    HW220475   2.123   2.719   0.228  0.8049  0.1388 -0.1459
 3086SOL     OW20476   6.048   4.567   7.993  0.6179  0.2382  0.2526
 3086SOL    HW120477   5.976   4.609   8.048  1.2109  2.2770 -0.4774
 3086SOL    HW220478   6.104   4.507   8.051 -0.0793  0.6703  1.3732
 3087SOL     OW20479   7.074   9.355   4.742 -0.3419  0.0183  0.3116
 3087SOL    HW120480   7.070   9.284   4.672  0.7583 -1.8443  2.0824
 3087SOL    HW220481   7.147   9.334   4.807 -1.8791  1.2154  2.5086
 3088SOL     OW20482   8.005   9.049   6.093  0.3088 -0.0065 -0.6763
 3088SOL    HW120483   7.921   9.103   6.083  1.3526  1.9164  0.6475
 3088SOL    HW220484   7.983   8.961   6.134 -0.7771  1.4246  1.9147
 3089SOL     OW20485   6.490   5.297   0.116 -0.0308  0.1853  0.3255
 3089SOL    HW120486   6.501   5.201   0.089  0.9130  0.3538  0.0794
 3089SOL    HW220487   6.562   5.321   0.181 -0.6303  0.5620  0.8534
 3090SOL     OW20488   7.304   2.001   0.854  0.0005 -0.3417 -0.1084
 3090SOL    HW120489   7.336   2.083   0.901  0.2135 -1.6026  2.0182
 3090SOL    HW220490   7.207   2.011   0.833  0.6363  1.5521 -2.3289
 3091SOL     OW20491   9.933   3.462   4.055 -0.2624  0.1198 -0.5500
 3091SOL    HW120492   9.860   3.480   4.121  0.8545  2.0293  0.1935
 3091SOL    HW220493   9.997   3.396   4.094 -1.6952 -1.7674 -1.3108
 3092SOL     OW20494   0.963   1.990   4.699 -0.4097 -0.0311 -0.6505
 3092SOL    HW120495   0.930   1.935   4.776  0.8701 -0.9784 -0.7557
 3092SOL    HW220496   0.915   1.963   4.616 -0.9473  0.1622 -0.4048
 3093SOL     OW20497   0.843   4.497   1.221 -0.0261 -0.4819  0.0124
 3093SOL    HW120498   0.752   4.538   1.234  0.2937  0.7272 -1.4287
 3093SOL    HW220499   0.840   4.434   1.143  0.3860 -0.4346 -0.0400
 3094SOL     OW20500   2.155   5.789   3.387 -0.4880  0.2814  0.3156
 3094SOL    HW120501   2.222   5.863   3.396 -0.4813  0.2365  0.6318
 3094SOL    HW220502   2.126   5.759   3.478 -1.8885  1.1764  0.1841
 3095SOL     OW20503   5.246   5.415   0.964 -0.6680  0.3495 -0.1724
 3095SOL    HW120504   5.179   5.341   0.965  1.0491 -1.2518  1.6039
 3095SOL    HW220505   5.282   5.426   0.872 -2.0743  0.0304 -0.7698
 3096SOL     OW20506   2.701   6.315   2.368 -0.2113 -0.2523 -0.8004
 3096SOL    HW120507   2.668   6.329   2.461 -0.5782 -0.7837 -0.8470
 3096SOL    HW220508   2.800   6.326   2.365 -0.2161 -0.1061 -0.3718
 3097SOL     OW20509   7.041   9.492   1.876 -0.1326 -0.4983  0.3050
 3097SOL    HW120510   7.040   9.497   1.976  1.6458  2.1575  0.2459
 3097SOL    HW220511   6.957   9.534   1.841 -2.0416 -3.8000  0.6676
 3098SOL     OW20512   8.066   5.855   4.247 -0.4078 -0.2521  0.3684
 3098SOL    HW120513   8.163   5.877   4.259 -0.3591 -0.3643  0.1917
 3098SOL    HW220514   8.046   5.767   4.290 -0.5886  0.1031  1.0335
 3099SOL     OW20515   1.497   7.580   5.207  0.9502  0.1519 -0.3322
 3099SOL    HW120516   1.593   7.606   5.219  0.8374  0.3713  0.1059
 3099SOL    HW220517   1.446   7.602   5.290  0.7765 -1.1256 -0.0850
 3100SOL     OW20518   6.447   1.717   1.102 -0.4754  0.4700  0.5308
 3100SOL    HW120519   6.456   1.675   1.192  1.6463 -2.4037 -0.8908
 3100SOL    HW220520   6.538   1.743   1.068 -1.3512  2.4957 -0.3539
 3101SOL     OW20521   3.505   7.222   3.803 -0.0137  0.3725  0.3915
 3101SOL    HW120522   3.444   7.252   3.729 -0.2838 -0.4313  0.2806
 3101SOL    HW220523   3.458   7.154   3.859  1.4919 -1.8222 -0.9395
 3102SOL     OW20524   6.182   1.018   6.324 -0.0094 -0.5189  0.9330
 3102SOL    HW120525   6.184   1.115   6.347 -1.4131  0.2111 -1.7852
 3102SOL    HW220526   6.147   1.007   6.231  0.1442 -3.6389  1.1997
 3103SOL     OW20527   4.552   2.873   0.750 -0.4791  0.7746 -0.0896
 3103SOL    HW120528   4.651   2.891   0.751 -0.4907  0.8294  0.7895
 3103SOL    HW220529   4.505   2.946   0.800 -1.0305  1.1212 -1.1193
 3104SOL     OW20530   7.109   1.093   1.457 -0.7442 -0.2280  0.0765
 3104SOL    HW120531   7.182   1.061   1.396  0.5275  1.5743  0.6219
 3104SOL    HW220532   7.023   1.050   1.431  0.3716 -1.8428 -1.0344
 3105SOL     OW20533   5.667   2.014   3.480 -0.0164  0.4884 -0.3058
 3105SOL    HW120534   5.684   2.062   3.566 -1.0271 -2.8086  1.8165
 3105SOL    HW220535   5.751   1.967   3.452  0.0504  0.8083 -0.6434
 3106SOL     OW20536   5.831   4.617   8.125  0.5691  0.2959 -0.7916
 3106SOL    HW120537   5.763   4.649   8.060 -0.9469 -0.1811  0.5293
 3106SOL    HW220538   5.826   4.673   8.208  1.3688 -0.1296 -0.4514
 3107SOL     OW20539   5.020   1.677   1.765  0.0267  0.1044 -0.1947
 3107SOL    HW120540   5.110   1.653   1.799  0.1721 -0.8010 -1.2121
 3107SOL    HW220541   5.028   1.719   1.674 -0.3349  2.7165  0.9150
 3108SOL     OW20542   7.124   9.876   4.118  0.0185  0.2183  0.0934
 3108SOL    HW120543   7.172   9.824   4.189  0.4558  0.3734 -0.0872
 3108SOL    HW220544   7.191   9.924   4.061 -0.2962 -0.3724 -0.7836
 3109SOL     OW20545   8.404   1.820   1.212  0.1763  0.4359  0.6129
 3109SOL    HW120546   8.457   1.830   1.128 -1.8813  2.2775 -0.5123
 3109SOL    HW220547   8.329   1.756   1.197  0.6442 -0.3368  1.4984
 3110SOL     OW20548   4.899   6.131   1.235 -0.2813  0.1165  0.0772
 3110SOL    HW120549   4.853   6.051   1.273 -0.9976  0.7278  0.5267
 3110SOL    HW220550   4.834   6.183   1.179 -0.5152  1.6587  1.7219
 3111SOL     OW20551   1.985   6.789   3.595  0.1293  0.4837  0.0207
 3111SOL    HW120552   1.995   6.752   3.503  2.6078 -0.2844  0.5710
 3111SOL    HW220553   2.051   6.746   3.657  0.8367  3.4026  1.4189
 3112SOL     OW20554   4.478   0.517   1.586 -0.0238 -0.0550  0.0980
 3112SOL    HW120555   4.448   0.575   1.510 -1.5036 -0.2466  0.5273
 3112SOL    HW220556   4.578   0.508   1.584  0.0934  1.3556 -0.7996
 3113SOL     OW20557   9.436   1.270   4.698  0.0440 -0.0191 -0.6752
 3113SOL    HW120558   9.521   1.288   4.650  1.0062  0.5146  1.1776
 3113SOL    HW220559   9.437   1.176   4.734 -0.7027 -0.4417 -1.7166
 3114SOL     OW20560   9.152   1.964   2.353  0.3386 -0.2066 -0.0040
 3114SOL    HW120561   9.243   1.938   2.386 -0.3141 -0.5168  1.5826
 3114SOL    HW220562   9.128   2.055   2.389  0.0390 -0.1093 -0.4473
 3115SOL     OW20563   0.163   2.478   1.320 -0.2737  0.5051  0.2886
 3115SOL    HW120564   0.109   2.454   1.240  0.5451  3.1456 -1.0960
 3115SOL    HW220565   0.178   2.396   1.376 -2.2178 -1.0366 -1.3945
 3116SOL     OW20566   6.583   0.167   7.089 -0.3425  0.5255 -0.2552
 3116SOL    HW120567   6.559   0.070   7.099 -0.3582  0.3903 -1.5301
 3116SOL    HW220568   6.670   0.175   7.041 -0.9115  1.1622 -1.2013
 3117SOL     OW20569   3.080   0.734   1.613 -0.6410 -0.0832  0.2253
 3117SOL    HW120570   3.081   0.767   1.519  0.5520  0.7038  0.4946
 3117SOL    HW220571   3.007   0.667   1.625  0.3530 -1.5643 -1.7317
 3118SOL     OW20572   7.615   1.256   3.602 -0.6309  0.1643 -0.3445
 3118SOL    HW120573   7.669   1.256   3.686 -0.8844  0.8668 -0.1760
 3118SOL    HW220574   7.629   1.343   3.554 -0.7805 -0.0818 -0.8381
 3119SOL     OW20575   8.876   5.132   1.605 -0.4127  0.2954  0.0483
 3119SOL    HW120576   8.815   5.091   1.536 -0.6942  2.4778 -1.0302
 3119SOL    HW220577   8.971   5.122   1.575 -0.5531  1.5855 -0.8915
 3120SOL     OW20578   4.952   2.275   0.507 -0.1916 -0.4646 -0.7177
 3120SOL    HW120579   4.953   2.362   0.457  0.5354 -1.3949 -2.3256
 3120SOL    HW220580   4.861   2.261   0.546 -1.1440 -0.3180 -2.8154
 3121SOL     OW20581   4.416   6.663   1.913  0.3232 -0.2844  0.5321
 3121SOL    HW120582   4.464   6.598   1.854  0.3822  0.2650 -0.0234
 3121SOL    HW220583   4.369   6.731   1.857 -1.4478 -1.0416  1.0378
 3122SOL     OW20584   5.621   4.069   8.061  0.3849  0.2229 -0.1029
 3122SOL    HW120585   5.656   4.154   8.022  0.8677  1.2139  2.3710
 3122SOL    HW220586   5.523   4.063   8.046  0.1517  1.7822  0.6397
 3123SOL     OW20587   1.559   0.933   3.509 -0.1369 -0.1096  0.0322
 3123SOL    HW120588   1.652   0.967   3.518  0.1146 -0.5892 -0.6358
 3123SOL    HW220589   1.495   0.996   3.554  0.4774  0.3677  0.2435
 3124SOL     OW20590   8.211   9.908   0.355  0.3865  0.2617  0.3035
 3124SOL    HW120591   8.158   9.987   0.324  0.0579 -0.0951 -0.0529
 3124SOL    HW220592   8.277   9.937   0.424 -1.5546  0.4347  2.1670
 3125SOL     OW20593   9.732   5.495   2.783  0.0384  0.0487  0.3277
 3125SOL    HW120594   9.789   5.563   2.738 -2.0629  1.8852  0.3220
 3125SOL    HW220595   9.761   5.485   2.878 -0.5805  2.1220  0.7668
 3126SOL     OW20596   6.826   1.485   2.494 -0.0796 -0.2673 -0.7434
 3126SOL    HW120597   6.884   1.566   2.508 -0.2090 -0.1099 -1.1038
 3126SOL    HW220598   6.772   1.497   2.411 -1.3905  0.0287  0.1399
 3127SOL     OW20599   6.745   2.125   7.757  0.1144  0.0562  0.5508
 3127SOL    HW120600   6.716   2.041   7.710  0.4302  0.0220  0.4164
 3127SOL    HW220601   6.722   2.118   7.854  3.1040 -1.6156  1.2184
 3128SOL     OW20602   5.884   4.839   0.098 -0.2992 -0.2767  0.0629
 3128SOL    HW120603   5.883   4.914   0.031 -0.0767 -1.9627 -1.8990
 3128SOL    HW220604   5.978   4.805   0.107 -0.6906 -1.5345 -0.4993
 3129SOL     OW20605   7.059   1.690   3.236  0.6011 -0.0139  0.8875
 3129SOL    HW120606   7.139   1.633   3.215 -0.1540 -1.6596  2.3572
 3129SOL    HW220607   7.082   1.786   3.220  1.3004 -0.8243 -3.4968
 3130SOL     OW20608   5.755   9.931   7.063  0.4043 -0.3819 -0.1841
 3130SOL    HW120609   5.675   9.939   7.121 -0.5102  1.9548 -1.6914
 3130SOL    HW220610   5.747   9.994   6.985  3.7358 -0.0035 -0.3207
 3131SOL     OW20611   8.932   6.816   4.723  0.2289 -0.5419 -0.4574
 3131SOL    HW120612   8.912   6.881   4.650  0.6818 -0.9354 -0.9399
 3131SOL    HW220613   8.852   6.804   4.781  0.6435  1.7316  0.6488
 3132SOL     OW20614   1.920   9.261   1.982  0.0324 -0.3532 -0.7883
 3132SOL    HW120615   1.848   9.232   1.920 -0.4983 -0.5806 -0.0695
 3132SOL    HW220616   1.989   9.189   1.990 -0.3325 -0.6668 -0.4577
 3133SOL     OW20617   8.546   0.542   3.018 -0.1511 -0.1072 -0.5250
 3133SOL    HW120618   8.514   0.448   3.024  0.9740 -0.3424  2.2995
 3133SOL    HW220619   8.637   0.543   2.976  0.4579 -0.4275  0.7792
 3134SOL     OW20620   2.119   2.237   6.073 -0.0402 -0.1648  0.6162
 3134SOL    HW120621   2.114   2.191   5.985  1.1332  0.2486  0.3181
 3134SOL    HW220622   2.215   2.244   6.102 -0.4135 -0.3617  1.9558
 3135SOL     OW20623   1.001   8.486   3.408  0.1257  0.5302 -0.1275
 3135SOL    HW120624   0.956   8.570   3.439  0.4388  1.6072 -2.4715
 3135SOL    HW220625   1.078   8.510   3.348 -0.2457 -1.4586 -1.4357
 3136SOL     OW20626   1.754   7.362   3.587  0.5581 -0.5465 -0.1326
 3136SOL    HW120627   1.745   7.384   3.490  0.5470 -0.8866 -0.2085
 3136SOL    HW220628   1.686   7.413   3.640 -0.1864 -1.2249 -0.4285
 3137SOL     OW20629   2.529   3.916   2.837 -0.5692  0.2673 -0.6859
 3137SOL    HW120630   2.531   3.824   2.877 -0.2098  0.5251 -0.1072
 3137SOL    HW220631   2.439   3.933   2.798 -1.3584  0.5202  1.1891
 3138SOL     OW20632   1.170   0.519   3.267 -0.1545  0.2080  0.6857
 3138SOL    HW120633   1.132   0.540   3.357  0.8019  1.3395  0.8258
 3138SOL    HW220634   1.115   0.446   3.225 -0.5792 -0.3698  2.1919
 3139SOL     OW20635   9.448   6.951   0.431  0.1815 -0.3416 -0.1079
 3139SOL    HW120636   9.437   6.855   0.457  0.6719 -0.0475  1.2265
 3139SOL    HW220637   9.500   6.999   0.501 -0.4068  1.0013 -0.5623
 3140SOL     OW20638   0.042   5.444   5.853 -0.0657  0.0518  0.3174
 3140SOL    HW120639   0.041   5.529   5.799  0.1491 -0.5454 -0.6359
 3140SOL    HW220640   0.076   5.463   5.944  1.3857  0.7185 -0.3547
 3141SOL     OW20641   0.315   5.754   1.874  0.5542 -0.0785 -0.2139
 3141SOL    HW120642   0.345   5.849   1.867  0.9975 -0.2574 -0.8005
 3141SOL    HW220643   0.369   5.707   1.944 -0.2983  0.3383  0.7371
 3142SOL     OW20644   9.132   5.448   1.773  0.1290  0.6157  0.1455
 3142SOL    HW120645   9.217   5.432   1.723  0.6535  0.5484  1.0483
 3142SOL    HW220646   9.100   5.362   1.813 -0.0992  0.7281  0.2024
 3143SOL     OW20647   9.458   8.162   5.215 -0.5070 -0.4642 -0.1754
 3143SOL    HW120648   9.484   8.088   5.152  0.8708  1.0153 -1.3789
 3143SOL    HW220649   9.359   8.176   5.210 -0.3672 -0.0857 -2.3510
 3144SOL     OW20650   1.717   7.085   5.249  0.3893 -0.3088 -0.2243
 3144SOL    HW120651   1.746   7.043   5.336  1.3212 -1.9315 -1.2917
 3144SOL    HW220652   1.618   7.076   5.239 -0.0598  1.9312  1.7078
 3145SOL     OW20653   9.322   2.538   5.721  0.6907 -0.6323 -0.0104
 3145SOL    HW120654   9.271   2.453   5.735  0.4353 -0.5429 -0.4066
 3145SOL    HW220655   9.419   2.516   5.711  1.0049 -0.6554  2.5979
 3146SOL     OW20656   3.732   9.371   2.729  0.0131  0.4144 -0.0868
 3146SOL    HW120657   3.719   9.425   2.646 -2.3043 -1.4627 -0.9852
 3146SOL    HW220658   3.805   9.305   2.714 -0.1313  0.3442 -0.4777
 3147SOL     OW20659   7.752   9.743   7.021  0.3271  0.4925  0.1172
 3147SOL    HW120660   7.784   9.816   6.960 -0.6586  2.1775  1.5762
 3147SOL    HW220661   7.697   9.782   7.094 -1.8342 -1.9313 -0.1283
 3148SOL     OW20662   8.371   6.139   2.470 -0.1250 -0.4562 -0.1799
 3148SOL    HW120663   8.356   6.194   2.552 -1.2330 -1.4051  0.2767
 3148SOL    HW220664   8.418   6.055   2.495 -0.2078 -0.6162 -0.5552
 3149SOL     OW20665   8.359   0.739   4.180 -0.1095  0.1953  0.0002
 3149SOL    HW120666   8.281   0.685   4.151 -1.1083  0.6070  1.8890
 3149SOL    HW220667   8.441   0.681   4.184 -0.9989 -0.9821  1.2391
 3150SOL     OW20668   0.924   0.145   5.051 -0.6594 -0.2460 -0.0952
 3150SOL    HW120669   0.834   0.165   5.010 -0.5624 -2.8535 -1.6804
 3150SOL    HW220670   0.913   0.079   5.125  0.0394 -1.3860 -0.9866
 3151SOL     OW20671   0.261   0.616   0.569 -0.0575  0.2517 -0.4192
 3151SOL    HW120672   0.255   0.655   0.661 -0.0041  0.6418 -0.5826
 3151SOL    HW220673   0.356   0.611   0.541 -0.1176  0.7705 -0.7267
 3152SOL     OW20674   1.050   0.410   5.070  0.3519  0.7157  0.4054
 3152SOL    HW120675   0.977   0.345   5.047  3.0000 -2.1004 -0.4200
 3152SOL    HW220676   1.068   0.469   4.992  0.9197 -0.5845 -0.4767
 3153SOL     OW20677   2.231   3.472   0.390 -0.0486 -0.3656 -0.0111
 3153SOL    HW120678   2.267   3.445   0.479  0.3998 -0.7619 -0.3113
 3153SOL    HW220679   2.168   3.402   0.357 -1.8180  0.7503  0.9242
 3154SOL     OW20680   0.909   7.886   4.716  0.4210  0.1284 -0.1414
 3154SOL    HW120681   0.903   7.938   4.800 -1.4596  0.4530 -0.4514
 3154SOL    HW220682   0.977   7.928   4.655  0.9935  0.5171  0.7564
 3155SOL     OW20683   4.394   0.039   6.479 -0.8141  0.2555  0.2996
 3155SOL    HW120684   4.348   0.127   6.469  1.2615  1.1552 -1.6148
 3155SOL    HW220685   4.401  -0.005   6.390 -1.4764 -1.6957  1.1822
 3156SOL     OW20686   8.174   7.442   5.359  0.6038 -0.0183  0.7315
 3156SOL    HW120687   8.079   7.454   5.389  0.4104  0.2028  0.0333
 3156SOL    HW220688   8.188   7.490   5.273  1.2861 -0.2619  0.7051
 3157SOL     OW20689   1.504   4.050   4.955 -0.0888 -0.2925 -0.2751
 3157SOL    HW120690   1.557   3.995   5.020 -0.8435 -0.6279  0.0591
 3157SOL    HW220691   1.544   4.142   4.949 -0.5526  0.0296  1.3559
 3158SOL     OW20692   6.856   0.449   1.941  0.1991  0.0956  0.4241
 3158SOL    HW120693   6.897   0.516   1.878  0.6726  0.0919  0.7202
 3158SOL    HW220694   6.909   0.364   1.938  0.1097  0.0299  0.6793
 3159SOL     OW20695   2.967   7.303   3.480  0.0378 -0.4579 -0.2282
 3159SOL    HW120696   3.003   7.393   3.456  1.3238 -0.9507 -0.2233
 3159SOL    HW220697   2.961   7.295   3.580  0.9803 -0.7591 -0.1864
 3160SOL     OW20698   7.093   9.438   4.356 -0.1046  0.3962 -0.3309
 3160SOL    HW120699   7.162   9.388   4.409 -0.9641 -0.4444  0.0080
 3160SOL    HW220700   7.082   9.530   4.394 -0.1944  0.0407  0.5128
 3161SOL     OW20701   4.736   0.993   4.371 -0.1452 -0.1460 -0.4010
 3161SOL    HW120702   4.827   1.009   4.410 -0.1281 -1.8758  0.2882
 3161SOL    HW220703   4.670   0.981   4.446 -1.0332  1.4449 -0.8873
 3162SOL     OW20704   6.246   8.576   3.687  0.3635  0.5168  0.3294
 3162SOL    HW120705   6.269   8.639   3.613  0.5394  0.2986  0.2007
 3162SOL    HW220706   6.163   8.609   3.733 -0.2590  0.1734 -0.5296
 3163SOL     OW20707   9.037   8.834   1.230 -0.0919  0.2934  0.2916
 3163SOL    HW120708   9.098   8.820   1.308 -0.4915 -0.0029  0.5507
 3163SOL    HW220709   9.092   8.842   1.147  0.2616 -1.0736  0.3720
 3164SOL     OW20710   9.519   7.495   0.180 -0.6198  0.1290 -0.9573
 3164SOL    HW120711   9.572   7.421   0.138  0.1901 -0.0142  0.2800
 3164SOL    HW220712   9.580   7.571   0.201 -0.9080 -0.0051  0.3990
 3165SOL     OW20713   9.508   2.240   3.540  0.0379  1.0660 -0.2335
 3165SOL    HW120714   9.414   2.212   3.522 -0.2292  0.7154  1.6312
 3165SOL    HW220715   9.513   2.286   3.629  1.9766 -0.7398  0.6276
 3166SOL     OW20716   6.512   9.641   6.773  0.7907  0.0427 -0.1988
 3166SOL    HW120717   6.498   9.546   6.799  2.8709 -0.6755 -1.6229
 3166SOL    HW220718   6.529   9.695   6.855 -0.0775 -0.8435  0.5856
 3167SOL     OW20719   0.753   0.229   3.302 -0.3286  0.4867 -0.0051
 3167SOL    HW120720   0.656   0.219   3.278  0.1984 -1.6262 -1.3271
 3167SOL    HW220721   0.777   0.163   3.373  0.3285  0.5094 -0.2059
 3168SOL     OW20722   0.240   8.291   2.423  0.1853 -0.6628 -0.0313
 3168SOL    HW120723   0.316   8.329   2.475  0.5237 -0.1624 -0.8818
 3168SOL    HW220724   0.266   8.201   2.386 -0.0526 -1.0155  0.6398
 3169SOL     OW20725   3.052   1.703   4.320 -0.7034  0.7499 -0.1687
 3169SOL    HW120726   3.119   1.777   4.316  0.2499 -0.2261 -3.5789
 3169SOL    HW220727   3.097   1.619   4.350 -0.5269  0.2886 -1.6675
 3170SOL     OW20728   8.355   7.753   0.353  0.2580 -0.5222  0.0869
 3170SOL    HW120729   8.288   7.692   0.312  0.1358 -0.1006 -0.3396
 3170SOL    HW220730   8.326   7.777   0.446 -1.6506  1.9584 -1.1079
 3171SOL     OW20731   9.617   2.603   2.430  0.0125  0.0464 -0.7851
 3171SOL    HW120732   9.600   2.581   2.526 -1.2180  1.8072 -0.5697
 3171SOL    HW220733   9.574   2.535   2.371  0.8485 -1.0920 -0.1080
 3172SOL     OW20734   8.924   6.403   1.341 -0.0369  0.4812  0.0361
 3172SOL    HW120735   8.900   6.349   1.261 -0.5071  1.0520 -0.2140
 3172SOL    HW220736   8.983   6.479   1.314  0.2773  0.3365  0.3180
 3173SOL     OW20737   0.658   5.123   0.469  0.1129  0.4647  0.2014
 3173SOL    HW120738   0.692   5.217   0.478 -0.2669  0.6257 -0.0396
 3173SOL    HW220739   0.559   5.122   0.479  0.1981 -0.0305  1.0816
 3174SOL     OW20740   1.271   6.592   8.001 -0.2742 -0.1084 -0.0624
 3174SOL    HW120741   1.350   6.579   7.939  0.5917  0.5149  0.8964
 3174SOL    HW220742   1.295   6.658   8.072 -1.4031 -0.5285  0.7170
 3175SOL     OW20743   0.374   8.315   0.608 -0.4378 -0.4172  0.0726
 3175SOL    HW120744   0.380   8.248   0.683  0.2020  0.4930  0.8453
 3175SOL    HW220745   0.283   8.357   0.609 -0.0752  0.3655  1.0213
 3176SOL     OW20746   2.956   1.203   4.149 -0.0404  0.0474  0.2852
 3176SOL    HW120747   2.905   1.266   4.208  0.0410 -1.8526  2.4203
 3176SOL    HW220748   2.923   1.213   4.055 -2.2277  1.0194  1.1138
 3177SOL     OW20749   7.608   5.429   1.314 -0.0650  0.6278 -0.4653
 3177SOL    HW120750   7.605   5.411   1.412 -1.5284 -1.6817 -0.8970
 3177SOL    HW220751   7.659   5.514   1.297  0.4112  0.9252  2.2463
 3178SOL     OW20752   0.086   3.030   4.894 -0.2931  0.5191  0.4984
 3178SOL    HW120753   0.168   3.086   4.884 -0.9427  1.3735 -0.1838
 3178SOL    HW220754   0.037   3.028   4.807  0.0647 -1.6770  0.3118
 3179SOL     OW20755   7.344   3.249   2.010 -0.0818 -0.1105  0.1558
 3179SOL    HW120756   7.250   3.217   2.017  0.3603 -1.4498  0.1357
 3179SOL    HW220757   7.393   3.196   1.941  0.4975  1.0618 -0.3528
 3180SOL     OW20758   7.581   4.888   5.643  0.3800  0.3976  0.7139
 3180SOL    HW120759   7.582   4.839   5.556  0.7568  0.4091  0.7144
 3180SOL    HW220760   7.490   4.879   5.684  0.0944  0.6790  0.1582
 3181SOL     OW20761   7.889   9.746   6.224 -0.6934 -0.1454  0.1087
 3181SOL    HW120762   7.842   9.725   6.310  0.2016 -0.5760  0.4978
 3181SOL    HW220763   7.944   9.668   6.196 -1.5748 -0.2746 -1.2599
 3182SOL     OW20764   0.549   6.766   1.601  0.3657  0.1472  0.0054
 3182SOL    HW120765   0.467   6.709   1.606 -0.9636  1.9217 -0.6884
 3182SOL    HW220766   0.620   6.719   1.550 -0.6110 -0.9659 -0.3470
 3183SOL     OW20767   3.090   9.804   1.487  0.3600 -0.4678  0.1030
 3183SOL    HW120768   3.029   9.733   1.522 -2.5569  1.6960 -0.3941
 3183SOL    HW220769   3.045   9.852   1.412  0.9818  3.8670  2.3302
 3184SOL     OW20770   5.145   2.363   2.801 -0.7768  0.1456 -0.1689
 3184SOL    HW120771   5.224   2.370   2.739  0.1946 -0.3097  0.9966
 3184SOL    HW220772   5.104   2.273   2.793 -0.1912 -0.1783  0.3744
 3185SOL     OW20773   1.068   2.911   3.221  0.4890  0.1608  0.0349
 3185SOL    HW120774   1.137   2.928   3.292  0.2082 -0.8415  0.5602
 3185SOL    HW220775   1.015   2.830   3.245 -1.9502  1.8164  0.4379
 3186SOL     OW20776   4.572   8.598   6.180 -0.0618 -0.7196 -0.0916
 3186SOL    HW120777   4.638   8.540   6.133 -1.2162 -1.9507 -0.2201
 3186SOL    HW220778   4.520   8.544   6.247  0.3819  0.6464  1.3898
 3187SOL     OW20779   6.648   4.850   7.317 -0.2314  0.2452  0.2382
 3187SOL    HW120780   6.699   4.832   7.401 -0.0509 -0.5377 -0.0339
 3187SOL    HW220781   6.707   4.833   7.238 -0.7491 -0.1480 -0.0653
 3188SOL     OW20782   8.694   1.814   4.430 -0.4827 -0.4102  0.7851
 3188SOL    HW120783   8.785   1.774   4.442 -1.1652 -1.6692  1.9757
 3188SOL    HW220784   8.695   1.879   4.354  1.0950 -1.3793 -0.0377
 3189SOL     OW20785   2.254   9.619   3.288 -0.7645  0.5085 -0.1217
 3189SOL    HW120786   2.246   9.596   3.385 -1.6400  0.8551 -0.1072
 3189SOL    HW220787   2.304   9.706   3.279 -1.3421  0.8617  0.0613
 3190SOL     OW20788   0.285   8.806   3.684 -0.4409  0.2621 -0.5759
 3190SOL    HW120789   0.340   8.815   3.767  0.8138 -0.0208 -1.3621
 3190SOL    HW220790   0.282   8.894   3.637  0.0471  0.0751 -0.9643
 3191SOL     OW20791   4.519   2.890   5.056  0.5449 -0.3005  0.3816
 3191SOL    HW120792   4.502   2.988   5.065 -1.1179 -0.4269 -1.0417
 3191SOL    HW220793   4.576   2.873   4.975  1.1363 -0.4956  0.8294
 3192SOL     OW20794   7.364   5.487   1.238  0.3264 -0.2249 -0.2033
 3192SOL    HW120795   7.455   5.450   1.253  0.5758  0.4367 -0.0574
 3192SOL    HW220796   7.295   5.416   1.256  0.7606 -0.4157  0.7559
 3193SOL     OW20797   4.482   9.442   5.737 -0.4334 -0.5263  0.0419
 3193SOL    HW120798   4.404   9.502   5.757 -0.3725 -0.1378 -0.8818
 3193SOL    HW220799   4.459   9.384   5.660  0.2350 -0.3410 -0.2931
 3194SOL     OW20800   3.264   2.192   2.630 -0.6702 -0.2913 -0.5145
 3194SOL    HW120801   3.360   2.217   2.620 -0.4987 -0.7582 -0.0520
 3194SOL    HW220802   3.256   2.095   2.650 -1.2504 -0.2907 -0.7106
 3195SOL     OW20803   8.706   4.833   1.948  0.4117  0.2150  0.1035
 3195SOL    HW120804   8.692   4.791   1.859 -0.1584  1.4968 -0.4343
 3195SOL    HW220805   8.705   4.933   1.938 -1.4426  0.4010  1.7906
 3196SOL     OW20806   1.867   1.715   3.287  0.7608 -0.2015 -0.1822
 3196SOL    HW120807   1.926   1.662   3.226 -0.1800  1.7935 -2.9305
 3196SOL    HW220808   1.921   1.787   3.331  1.3058 -1.2207  0.8272
 3197SOL     OW20809   2.234   8.095   0.245  0.1165 -0.5954  0.1953
 3197SOL    HW120810   2.185   8.181   0.259  0.9384  0.0538 -0.8518
 3197SOL    HW220811   2.179   8.034   0.188  0.2109 -0.1500 -0.3740
 3198SOL     OW20812   0.084   3.372   2.991  0.5847  0.1487 -0.1252
 3198SOL    HW120813  -0.007   3.399   2.960  0.6240 -1.0060 -1.3103
 3198SOL    HW220814   0.140   3.347   2.911  0.6034 -3.1920  0.9060
 3199SOL     OW20815   5.339   9.420   2.825 -0.2522 -0.1486 -0.2335
 3199SOL    HW120816   5.297   9.439   2.913 -0.1795 -0.1348 -0.2015
 3199SOL    HW220817   5.279   9.361   2.771 -0.1416 -0.4376 -0.0407
 3200SOL     OW20818   6.681   1.878   0.085  0.7247  0.2237  0.1451
 3200SOL    HW120819   6.733   1.799   0.115  0.6301 -0.3330 -1.1620
 3200SOL    HW220820   6.703   1.900  -0.010 -1.0312  0.2922 -0.2699
 3201SOL     OW20821   9.821   2.627   1.397 -0.1785  0.0241 -0.1980
 3201SOL    HW120822   9.908   2.677   1.398 -0.5174  0.6598 -1.7956
 3201SOL    HW220823   9.830   2.545   1.454  0.9869  0.8720  0.8835
 3202SOL     OW20824   0.767   7.103   1.899  0.3249 -0.5814 -0.1121
 3202SOL    HW120825   0.849   7.141   1.855  0.5591 -0.0332  0.7619
 3202SOL    HW220826   0.698   7.175   1.908  0.4607 -0.5525  0.8237
 3203SOL     OW20827   7.080   0.467   2.121 -0.4021 -0.0126  0.4879
 3203SOL    HW120828   7.022   0.401   2.075  0.1957  0.2517 -0.6923
 3203SOL    HW220829   7.054   0.560   2.094 -3.1354  0.4473  4.3659
 3204SOL     OW20830   5.093   2.340   1.817  0.1734 -0.1041  0.3727
 3204SOL    HW120831   5.092   2.332   1.917  0.4211 -1.4965  0.2750
 3204SOL    HW220832   5.185   2.320   1.783  0.3158  1.2432 -0.0835
 3205SOL     OW20833   5.469   0.845   2.172 -0.2104  0.5252 -0.0284
 3205SOL    HW120834   5.463   0.874   2.076 -0.1079 -0.4961 -0.3446
 3205SOL    HW220835   5.548   0.890   2.214 -0.4079  1.1807 -0.3542
 3206SOL     OW20836   3.073   8.054   3.742  0.0777  0.0095 -0.6593
 3206SOL    HW120837   3.011   7.977   3.726 -0.5864  0.2468  0.7425
 3206SOL    HW220838   3.167   8.021   3.747 -0.1316 -0.6054 -0.7855
 3207SOL     OW20839   1.961   9.835   2.094  0.0592 -0.1686  0.3332
 3207SOL    HW120840   1.945   9.900   2.168 -0.5649  0.3786 -0.2780
 3207SOL    HW220841   1.913   9.749   2.114 -2.6213  0.9766 -0.8139
 3208SOL     OW20842   6.326   0.362   1.342 -0.8306 -0.1197 -0.3925
 3208SOL    HW120843   6.414   0.316   1.328  0.8439  2.8264 -0.1676
 3208SOL    HW220844   6.288   0.389   1.253 -0.5614  0.2187 -0.4096
 3209SOL     OW20845   0.845   8.607   5.312 -0.2216 -0.2649  0.3859
 3209SOL    HW120846   0.825   8.636   5.218 -0.0578 -0.1170  0.3946
 3209SOL    HW220847   0.881   8.685   5.363  0.2518 -0.4906  0.4031
 3210SOL     OW20848   3.931   1.977   0.337 -0.7430  0.4881 -0.1988
 3210SOL    HW120849   3.981   1.953   0.254 -2.4345  0.3969 -1.2101
 3210SOL    HW220850   3.993   2.021   0.402  1.6351 -3.4273  0.3050
 3211SOL     OW20851   1.934   4.682   5.366  0.8873  0.3169 -0.2516
 3211SOL    HW120852   1.900   4.776   5.376  3.8360  1.4629 -0.3807
 3211SOL    HW220853   1.905   4.627   5.444 -3.3149  0.4940 -1.5595
 3212SOL     OW20854   7.631   3.673   1.195  0.0901  0.2974 -0.3000
 3212SOL    HW120855   7.538   3.672   1.232 -0.0010 -0.2919 -0.5427
 3212SOL    HW220856   7.641   3.750   1.131 -0.3224  0.1770 -0.5095
 3213SOL     OW20857   4.816   5.216   1.077 -0.1894  0.1097 -0.0452
 3213SOL    HW120858   4.780   5.307   1.054  1.6016  0.5973 -0.9974
 3213SOL    HW220859   4.749   5.147   1.050 -2.4763  1.2160  2.5893
 3214SOL     OW20860   8.764   1.930   1.756  0.4356 -0.1430 -0.2846
 3214SOL    HW120861   8.676   1.925   1.708 -0.3766  2.3795  0.8548
 3214SOL    HW220862   8.835   1.885   1.701 -1.7300 -3.1499 -0.7465
 3215SOL     OW20863   2.410   8.640   2.616 -0.1979  0.5606 -0.3216
 3215SOL    HW120864   2.479   8.604   2.553 -2.4489 -2.1993 -1.3358
 3215SOL    HW220865   2.354   8.708   2.569 -0.3944  0.2202 -0.5795
 3216SOL     OW20866   2.382   3.413   4.019  0.0510  0.3437  0.1003
 3216SOL    HW120867   2.373   3.405   4.118  0.9200 -0.5062  0.1091
 3216SOL    HW220868   2.468   3.372   3.989  0.6803  2.2517 -0.7948
 3217SOL     OW20869   9.424   3.950   0.425  0.1869  0.4240 -0.2490
 3217SOL    HW120870   9.420   3.851   0.417  2.7332  0.2771 -0.2790
 3217SOL    HW220871   9.433   3.976   0.521  1.1982  0.5068 -0.3537
 3218SOL     OW20872   5.718   1.850   5.143 -0.2685 -0.4628 -0.0208
 3218SOL    HW120873   5.661   1.805   5.074  0.6651 -1.8920  0.1240
 3218SOL    HW220874   5.785   1.910   5.098 -0.1327 -0.8382 -0.3155
 3219SOL     OW20875   9.926   4.493   0.510 -0.2070 -0.1581 -0.0083
 3219SOL    HW120876   9.933   4.394   0.524  0.5822 -0.0065  0.6380
 3219SOL    HW220877   9.987   4.520   0.435  0.1132 -0.0531  0.2901
 3220SOL     OW20878   2.835   4.964   2.771 -0.0332  0.2266  0.0939
 3220SOL    HW120879   2.830   5.031   2.697  0.8102  1.2571  0.9460
 3220SOL    HW220880   2.776   4.993   2.847  0.3014 -0.0273  0.4535
 3221SOL     OW20881   2.927   2.415   1.283 -0.2628  0.1088  0.2653
 3221SOL    HW120882   2.954   2.503   1.243  1.3600  0.9313  3.0317
 3221SOL    HW220883   2.886   2.430   1.373 -0.7264 -1.9243  0.4188
 3222SOL     OW20884   7.152   1.378   0.905 -0.1510  0.1527 -0.6042
 3222SOL    HW120885   7.184   1.332   0.822  0.0304 -0.0022 -0.4473
 3222SOL    HW220886   7.204   1.462   0.919  2.2445 -1.5851  1.2775
 3223SOL     OW20887   4.570   2.752   0.042  0.2543  0.2588  0.3941
 3223SOL    HW120888   4.557   2.800   0.129  2.1632  0.7297  0.4561
 3223SOL    HW220889   4.584   2.819  -0.031 -1.4587 -0.1329 -0.3132
 3224SOL     OW20890   9.668   1.684   5.490  0.3525 -0.6662  0.0552
 3224SOL    HW120891   9.660   1.672   5.589 -0.6781  0.7604  0.1577
 3224SOL    HW220892   9.609   1.618   5.444 -0.4395 -0.2175  0.4319
 3225SOL     OW20893   7.093   2.058   3.418 -0.2229  0.0281  0.1775
 3225SOL    HW120894   7.129   2.147   3.390 -0.5995  0.1630  0.1190
 3225SOL    HW220895   7.002   2.070   3.457 -1.4063 -0.6235 -2.2720
 3226SOL     OW20896   3.592   9.233   5.496 -0.6683 -0.0014  0.0849
 3226SOL    HW120897   3.511   9.237   5.439  0.3027 -2.2920 -1.5356
 3226SOL    HW220898   3.590   9.149   5.551  0.9044 -0.3945 -0.4438
 3227SOL     OW20899   0.010   4.613   4.461 -0.1621  0.2220  1.0108
 3227SOL    HW120900  -0.078   4.610   4.415 -1.0301  2.3496  2.4598
 3227SOL    HW220901   0.067   4.684   4.418 -0.1662  0.7032  1.7959
 3228SOL     OW20902   8.560   4.082   0.764  0.1775 -0.0857  0.4846
 3228SOL    HW120903   8.588   4.042   0.677  2.7833 -0.8683  1.6183
 3228SOL    HW220904   8.641   4.099   0.820 -1.5317 -1.1986  3.4423
 3229SOL     OW20905   7.188   2.610   5.443  0.4704 -0.0006 -0.1308
 3229SOL    HW120906   7.140   2.539   5.392 -0.6491  0.5649  0.0974
 3229SOL    HW220907   7.287   2.595   5.438  0.2854 -1.0115 -0.8822
 3230SOL     OW20908   9.520   2.451   0.363 -0.0891 -0.1235 -0.0340
 3230SOL    HW120909   9.571   2.448   0.449  1.6277  0.5097 -1.0004
 3230SOL    HW220910   9.507   2.546   0.336  1.8783 -0.3500 -1.8919
 3231SOL     OW20911   3.016   8.085   1.680  0.0516 -0.2682  0.3701
 3231SOL    HW120912   3.073   8.168   1.674  0.0287 -0.4193 -2.9171
 3231SOL    HW220913   3.075   8.005   1.692  0.2205 -0.0105  1.3051
 3232SOL     OW20914   3.295   5.077   1.941 -0.3461 -0.1682  0.1895
 3232SOL    HW120915   3.261   4.984   1.930  0.4141 -0.3519 -0.7238
 3232SOL    HW220916   3.276   5.109   2.034 -0.6667 -1.2106  0.4925
 3233SOL     OW20917   7.044   0.703   4.018 -0.5188 -0.3328 -0.1592
 3233SOL    HW120918   7.003   0.730   3.930  0.5057 -0.5976 -0.7299
 3233SOL    HW220919   7.054   0.784   4.076  0.5641  0.1890 -1.0432
 3234SOL     OW20920   2.171   1.360   4.458 -0.1256 -0.4595  0.7703
 3234SOL    HW120921   2.092   1.421   4.456 -1.7962 -2.5247  1.4761
 3234SOL    HW220922   2.177   1.316   4.548  1.2969 -0.9940  0.4247
 3235SOL     OW20923   8.973   2.584   5.244 -0.4217  0.2322  0.4280
 3235SOL    HW120924   8.972   2.617   5.338 -2.4484 -0.1123  0.5491
 3235SOL    HW220925   8.891   2.614   5.196 -0.2681 -1.0620 -0.7107
 3236SOL     OW20926   8.519   7.629   0.823  0.1754  0.2067  0.2065
 3236SOL    HW120927   8.481   7.538   0.807 -0.2183  0.6645 -1.4972
 3236SOL    HW220928   8.573   7.657   0.744  0.4254  1.4006  0.7921
 3237SOL     OW20929   0.843   7.047   4.294  0.2168  0.6178 -0.3019
 3237SOL    HW120930   0.874   7.080   4.205  0.3071  0.5718 -0.2873
 3237SOL    HW220931   0.839   6.947   4.292 -0.9258  0.6586 -0.6408
 3238SOL     OW20932   6.619   7.546   3.516  0.4584 -0.4871 -0.1631
 3238SOL    HW120933   6.674   7.520   3.437 -0.5359 -0.0740 -1.0010
 3238SOL    HW220934   6.673   7.606   3.576  1.5284 -1.5509 -0.0429
 3239SOL     OW20935   2.000   9.687   0.954  0.0503 -0.0942  0.6645
 3239SOL    HW120936   1.914   9.683   0.903  0.7626  3.0094 -0.9115
 3239SOL    HW220937   1.980   9.696   1.052 -1.3410 -3.1322  0.7267
 3240SOL     OW20938   3.065   9.762   0.510 -0.3924 -0.2319  0.1552
 3240SOL    HW120939   3.133   9.772   0.582  1.1764  0.2970 -1.3684
 3240SOL    HW220940   3.094   9.690   0.447 -1.7853 -0.7420  0.0699
 3241SOL     OW20941   4.681   6.812   0.525 -0.1329  0.0217  0.6856
 3241SOL    HW120942   4.583   6.832   0.531  0.0108  0.7891  0.5349
 3241SOL    HW220943   4.709   6.809   0.430  0.1357  0.5188  0.7498
 3242SOL     OW20944   9.996   3.463   5.996  0.0709  0.1547  0.8833
 3242SOL    HW120945  10.085   3.495   5.965  0.1024 -1.3226 -0.6127
 3242SOL    HW220946   9.925   3.492   5.932 -0.7164  2.2243  2.6043
 3243SOL     OW20947   1.492   5.127   2.756  0.5796 -0.3384 -0.3380
 3243SOL    HW120948   1.567   5.147   2.693  0.3937 -0.0146 -0.4600
 3243SOL    HW220949   1.526   5.125   2.850  0.3875  1.7276 -0.2072
 3244SOL     OW20950   2.380   1.750   4.664  0.5754  0.5394 -0.0584
 3244SOL    HW120951   2.378   1.673   4.600 -0.1294  1.1406 -0.7729
 3244SOL    HW220952   2.296   1.750   4.719  0.6555  0.6890  0.0641
 3245SOL     OW20953   3.035   7.091   1.032  0.1575 -0.2979  0.2425
 3245SOL    HW120954   3.069   7.054   1.119  2.2101  1.4466  0.2052
 3245SOL    HW220955   3.040   7.020   0.962  0.4107 -1.1055  1.0638
 3246SOL     OW20956   7.621   2.178   7.961  0.5519  0.1901 -0.0328
 3246SOL    HW120957   7.578   2.243   8.024 -0.4210 -1.3355  0.8971
 3246SOL    HW220958   7.667   2.106   8.013 -0.5488 -1.2705 -1.0382
 3247SOL     OW20959   0.718   0.362   0.907  0.2443 -0.5166 -0.6448
 3247SOL    HW120960   0.687   0.302   0.981  0.0261  0.2692 -0.0798
 3247SOL    HW220961   0.641   0.384   0.848 -0.0745  0.5779  0.1453
 3248SOL     OW20962   8.082   7.872   6.201 -0.1189 -0.0157  0.0662
 3248SOL    HW120963   8.032   7.805   6.255  0.6654 -0.7552 -0.1157
 3248SOL    HW220964   8.102   7.835   6.110  0.6606  0.3037  0.0962
 3249SOL     OW20965   3.670   1.420   6.018 -0.5453  0.4938 -0.3782
 3249SOL    HW120966   3.720   1.478   5.953  0.0158  0.1844 -0.2228
 3249SOL    HW220967   3.575   1.412   5.989 -0.4514  0.9043 -0.7989
 3250SOL     OW20968   8.446   4.054   1.693 -0.1609  0.1318 -0.6576
 3250SOL    HW120969   8.434   4.124   1.623 -1.7286  2.4119  1.7626
 3250SOL    HW220970   8.356   4.025   1.726  0.5592 -0.5555  0.7439
 3251SOL     OW20971   4.619   3.303   4.100  0.2511  0.2191  0.5755
 3251SOL    HW120972   4.555   3.256   4.040 -0.0172 -0.6983  1.5740
 3251SOL    HW220973   4.569   3.370   4.156  0.4034  0.6161  0.2374
 3252SOL     OW20974   8.587   3.620   3.483 -0.2538  0.6683 -0.2372
 3252SOL    HW120975   8.550   3.555   3.548 -1.3738  0.8045 -0.7218
 3252SOL    HW220976   8.515   3.683   3.454  0.7520  1.9559  0.0335
 3253SOL     OW20977   6.489   0.453   7.057  0.0392 -0.0533  0.0347
 3253SOL    HW120978   6.455   0.420   6.969 -1.1545  0.3648  0.3237
 3253SOL    HW220979   6.539   0.380   7.104  2.3085  0.2603 -1.7962
 3254SOL     OW20980   0.228   4.872   3.015 -0.3481 -0.4091  0.2919
 3254SOL    HW120981   0.146   4.920   3.047  0.3898 -0.7157  2.6979
 3254SOL    HW220982   0.214   4.774   3.022  0.7991 -0.4535  2.2650
 3255SOL     OW20983   7.641   9.001   6.253 -0.4588  0.0593 -0.0612
 3255SOL    HW120984   7.548   8.983   6.222 -0.9280  1.5923  0.4365
 3255SOL    HW220985   7.682   9.072   6.196 -0.4030  1.0153  1.1598
 3256SOL     OW20986   7.058   1.185   8.160 -0.0634 -0.2082  0.1778
 3256SOL    HW120987   7.088   1.091   8.176 -0.4571  0.0930  2.9250
 3256SOL    HW220988   7.138   1.242   8.141  0.2486 -0.9307 -0.7438
 3257SOL     OW20989   7.496   2.295   5.478 -0.2818 -0.1759 -0.1048
 3257SOL    HW120990   7.493   2.204   5.519  1.2801  0.5452  1.6329
 3257SOL    HW220991   7.460   2.290   5.385 -1.2976 -2.3429  0.3719
 3258SOL     OW20992   7.974   9.181   3.832  0.2060 -0.0691 -0.3397
 3258SOL    HW120993   8.070   9.177   3.860 -0.6428  0.5055  2.9539
 3258SOL    HW220994   7.947   9.275   3.815 -0.0926 -0.0605  0.1342
 3259SOL     OW20995   2.003   3.845   3.740  0.5475 -0.3270  0.6096
 3259SOL    HW120996   2.083   3.795   3.707  0.2949 -0.6285  0.4510
 3259SOL    HW220997   2.017   3.871   3.836  0.4146 -1.2586  0.8813
 3260SOL     OW20998   9.153   3.924   0.024  0.8248  0.4433 -0.3939
 3260SOL    HW120999   9.139   3.986  -0.053  0.1917  1.4188  0.4960
 3260SOL    HW221000   9.176   3.977   0.106 -1.6128 -0.3373  0.8274
 3261SOL     OW21001   3.080   4.627   2.562  0.3503 -0.0519 -0.0455
 3261SOL    HW121002   3.106   4.631   2.658  1.6101  0.4389 -0.3964
 3261SOL    HW221003   2.985   4.655   2.552  0.2453  0.0132  1.0332
 3262SOL     OW21004   8.586   4.466   4.456 -0.1474 -0.0250  0.0727
 3262SOL    HW121005   8.582   4.479   4.357 -0.3041 -0.7035 -0.0112
 3262SOL    HW221006   8.668   4.415   4.480  0.0671  0.4327  0.3317
 3263SOL     OW21007   4.413   4.150   2.081  0.2839 -0.0977  0.0769
 3263SOL    HW121008   4.422   4.204   1.997  1.8660  2.2524  1.6631
 3263SOL    HW221009   4.427   4.054   2.060  2.0851  0.5896 -2.1601
 3264SOL     OW21010   4.863   0.953   3.116 -0.3903  0.1923  0.0695
 3264SOL    HW121011   4.834   1.018   3.046 -2.1513  1.3845  1.8682
 3264SOL    HW221012   4.915   1.001   3.187  0.2297 -0.7645  0.2743
 3265SOL     OW21013   0.243   2.151   4.060  0.1233  0.0256  0.3240
 3265SOL    HW121014   0.159   2.203   4.046 -0.2050 -0.7300 -0.5630
 3265SOL    HW221015   0.220   2.057   4.086  0.6901 -0.2614 -0.2095
 3266SOL     OW21016   2.221   8.824   2.988  0.5340  0.5551  0.2111
 3266SOL    HW121017   2.227   8.829   3.088 -0.4346 -0.6039  0.3440
 3266SOL    HW221018   2.312   8.835   2.949  1.2002 -0.7908  1.3279
 3267SOL     OW21019   4.440   3.743   8.024  0.0120  0.1407 -0.4904
 3267SOL    HW121020   4.450   3.732   7.925  2.9100 -1.2114 -0.1197
 3267SOL    HW221021   4.515   3.799   8.059 -1.4418  1.2827  0.8504
 3268SOL     OW21022   5.686   2.225   3.929  0.1930  0.2832  0.0506
 3268SOL    HW121023   5.752   2.152   3.915  0.4366  0.2649  1.2982
 3268SOL    HW221024   5.632   2.207   4.011  0.5382  1.7172  0.6053
 3269SOL     OW21025   8.264   6.619   6.410 -0.9257 -0.0941 -0.3925
 3269SOL    HW121026   8.335   6.645   6.475 -0.0604 -2.0375 -0.5325
 3269SOL    HW221027   8.236   6.699   6.357  3.1769  0.2192 -2.2732
 3270SOL     OW21028   7.416   7.142   2.430  0.1798 -0.5422 -0.0003
 3270SOL    HW121029   7.374   7.179   2.512 -1.0303  2.1994 -1.7694
 3270SOL    HW221030   7.360   7.066   2.396  0.0929 -0.9757  1.1182
 3271SOL     OW21031   9.284   3.176   3.510 -0.8019 -0.4437  0.7026
 3271SOL    HW121032   9.362   3.193   3.569 -0.7512 -1.4315  0.9368
 3271SOL    HW221033   9.285   3.239   3.432  0.8208 -1.1552  0.1344
 3272SOL     OW21034   5.248   9.581   3.512  0.1843 -0.3030 -0.7863
 3272SOL    HW121035   5.304   9.640   3.570 -1.0386  0.0580  0.0393
 3272SOL    HW221036   5.212   9.505   3.565 -0.2183 -0.4642 -1.2803
 3273SOL     OW21037   0.702   4.652   3.990  0.6399  0.5350  0.6709
 3273SOL    HW121038   0.611   4.638   3.952  1.1073 -3.1204  0.6743
 3273SOL    HW221039   0.767   4.590   3.945  2.1075 -0.6021  4.1591
 3274SOL     OW21040   7.505   3.777   5.998 -0.5394  0.4112  0.0792
 3274SOL    HW121041   7.454   3.693   5.978 -3.2191  2.0412 -0.2174
 3274SOL    HW221042   7.577   3.757   6.064 -1.5612 -1.9973  0.5293
 3275SOL     OW21043   5.649   8.770   6.195 -0.0207 -0.5083  0.6151
 3275SOL    HW121044   5.556   8.756   6.229 -0.7509  1.3964 -0.5188
 3275SOL    HW221045   5.714   8.746   6.267 -1.4130 -0.7167  1.8434
 3276SOL     OW21046   3.115   7.625   4.407 -0.0851 -0.1594  0.3213
 3276SOL    HW121047   3.046   7.608   4.477  0.9576  1.0767  1.6763
 3276SOL    HW221048   3.181   7.693   4.440  0.8620 -0.1090 -1.5649
 3277SOL     OW21049   1.528   0.483   1.100  0.0260  0.4941 -0.3686
 3277SOL    HW121050   1.581   0.399   1.091  0.1237  0.6489 -1.2559
 3277SOL    HW221051   1.589   0.558   1.128 -0.1986  0.1141  1.2016
 3278SOL     OW21052   5.978   9.426   5.450  0.7091 -0.1060  0.1706
 3278SOL    HW121053   5.931   9.459   5.532  0.0483  0.0259 -0.2690
 3278SOL    HW221054   5.999   9.328   5.461  0.6408 -0.0833  0.5033
 3279SOL     OW21055   6.462   1.961   5.953 -0.5617 -0.1000  0.1063
 3279SOL    HW121056   6.384   1.964   5.892  0.1684 -1.1570 -0.9166
 3279SOL    HW221057   6.434   1.987   6.045 -1.7482  1.1509 -0.5926
 3280SOL     OW21058   8.786   0.846   0.933  0.6037 -0.5421  0.0550
 3280SOL    HW121059   8.766   0.918   0.867  0.8835 -0.0250  0.5319
 3280SOL    HW221060   8.873   0.802   0.910  0.7640 -0.2750  0.1525
 3281SOL     OW21061   3.975   1.055   4.753 -0.8298 -0.0182 -0.2222
 3281SOL    HW121062   4.033   1.099   4.822 -0.0011 -0.4283 -0.6490
 3281SOL    HW221063   3.984   1.103   4.666 -0.2584 -0.7486 -0.5785
 3282SOL     OW21064   3.256   9.398   1.700  0.3222 -0.1652  0.8242
 3282SOL    HW121065   3.356   9.407   1.699  0.3944 -0.9961 -1.2932
 3282SOL    HW221066   3.216   9.480   1.742  1.8080  1.2228 -0.3802
 3283SOL     OW21067   4.306   4.010   4.406 -0.0794  0.2442  0.1583
 3283SOL    HW121068   4.210   3.996   4.432 -0.3953  3.0463  0.6585
 3283SOL    HW221069   4.365   3.981   4.481 -0.4796 -1.9345 -0.3316
 3284SOL     OW21070   8.512   7.153   1.000 -0.8022 -0.1232  0.1514
 3284SOL    HW121071   8.423   7.180   1.037 -0.5271 -0.5751  1.1610
 3284SOL    HW221072   8.574   7.130   1.075 -0.3598 -1.4432 -0.6098
 3285SOL     OW21073   9.856   1.233   3.105  0.4915 -0.0514  0.8531
 3285SOL    HW121074   9.812   1.152   3.064 -0.1471  0.5516  0.3303
 3285SOL    HW221075   9.882   1.297   3.032 -0.5137  0.9577  1.3745
 3286SOL     OW21076   9.453   7.596   2.095  0.2728 -0.5674  0.3180
 3286SOL    HW121077   9.386   7.542   2.146 -1.1359  1.4293  0.6414
 3286SOL    HW221078   9.465   7.557   2.004 -0.6017 -1.4950  0.5846
 3287SOL     OW21079   7.562   3.737   2.968  0.3156  0.5389  0.9672
 3287SOL    HW121080   7.545   3.781   2.879  2.0191  1.6798  1.1780
 3287SOL    HW221081   7.594   3.644   2.953 -2.1310 -0.2660  0.4782
 3288SOL     OW21082   0.532   7.889   2.401 -0.8406  0.0286  0.3569
 3288SOL    HW121083   0.443   7.932   2.413 -0.5636  0.3596  1.2281
 3288SOL    HW221084   0.523   7.809   2.341 -1.3693  1.2385 -1.2145
 3289SOL     OW21085   2.369   3.672   3.427 -0.3382  0.0118  0.1349
 3289SOL    HW121086   2.455   3.635   3.393  0.0355  0.8597  0.1406
 3289SOL    HW221087   2.304   3.681   3.352 -0.8571 -1.8093  0.3504
 3290SOL     OW21088   8.988   3.935   3.625  0.3932 -0.0574  0.4581
 3290SOL    HW121089   9.009   4.030   3.646 -0.3033  0.1774  0.1300
 3290SOL    HW221090   9.061   3.895   3.569  0.9689  0.1038  1.0939
 3291SOL     OW21091   6.737   0.399   2.727 -0.1153 -0.3229  0.3612
 3291SOL    HW121092   6.662   0.406   2.793 -1.0476  2.4386 -0.9147
 3291SOL    HW221093   6.699   0.396   2.635  1.3278  2.3940 -0.3728
 3292SOL     OW21094   4.721   8.887   5.008  0.3157  0.4111 -0.0959
 3292SOL    HW121095   4.793   8.931   5.062  0.7922  0.1762 -0.5359
 3292SOL    HW221096   4.759   8.853   4.922  0.2049 -1.7573  0.6649
 3293SOL     OW21097   4.958   7.282   1.981 -0.3734  0.2894  0.2875
 3293SOL    HW121098   4.892   7.316   1.913  0.1801 -0.4026 -0.6025
 3293SOL    HW221099   4.911   7.269   2.069 -0.8808  2.1285  0.3170
 3294SOL     OW21100   2.951   6.056   0.806  0.4836 -0.3792  0.0083
 3294SOL    HW121101   2.938   6.078   0.709 -0.5968 -1.5101 -0.1086
 3294SOL    HW221102   2.894   6.116   0.862  0.6998 -0.0926 -0.0724
 3295SOL     OW21103   5.327   1.352   4.861  0.1081 -0.2667 -0.5828
 3295SOL    HW121104   5.266   1.420   4.819  0.8929  1.7021  1.3619
 3295SOL    HW221105   5.416   1.394   4.879  0.7477 -1.9573  0.2776
 3296SOL     OW21106   6.894   7.798   6.582  0.4278 -0.1300 -0.1933
 3296SOL    HW121107   6.862   7.857   6.657 -0.1456 -2.1979  1.2306
 3296SOL    HW221108   6.818   7.746   6.545  1.2971 -1.6425  0.0977
 3297SOL     OW21109   7.638   1.664   5.736 -0.0382  0.1741  0.0140
 3297SOL    HW121110   7.612   1.653   5.832 -1.7176 -1.2916 -0.5969
 3297SOL    HW221111   7.681   1.580   5.704 -2.9151 -0.7657 -1.5564
 3298SOL     OW21112   3.438   7.169   4.980 -0.0909  0.2486 -0.4198
 3298SOL    HW121113   3.511   7.102   4.993 -0.7886 -0.2938  0.7987
 3298SOL    HW221114   3.451   7.216   4.893 -0.7978 -2.9964 -2.3797
 3299SOL     OW21115   8.079   1.917   5.807  0.8058  0.2660  0.2935
 3299SOL    HW121116   8.013   1.989   5.829  2.1894  1.4997  0.4731
 3299SOL    HW221117   8.030   1.833   5.784 -0.7888  0.6001  2.3785
 3300SOL     OW21118   0.156   5.800   4.964 -0.4677  0.3798 -0.4893
 3300SOL    HW121119   0.070   5.835   5.001 -0.8623  0.3232 -1.3497
 3300SOL    HW221120   0.154   5.700   4.966 -0.6975  0.3724 -1.1470
 3301SOL     OW21121   9.969   0.308   6.025  0.1394 -0.4763  0.0703
 3301SOL    HW121122   9.985   0.406   6.040 -0.7710  0.1037 -2.5257
 3301SOL    HW221123  10.056   0.262   6.007  0.3833  0.1482 -0.3357
 3302SOL     OW21124   6.209   4.597   1.075  0.4557 -0.0427 -0.0414
 3302SOL    HW121125   6.287   4.550   1.116  0.8016  0.5475 -0.0111
 3302SOL    HW221126   6.130   4.588   1.136  1.0964  1.2408  1.0251
 3303SOL     OW21127   0.724   7.464   5.400  0.2178  0.0357  0.5693
 3303SOL    HW121128   0.671   7.477   5.316  0.9174  1.2501  0.3102
 3303SOL    HW221129   0.718   7.369   5.428  0.3053 -0.4732 -1.0792
 3304SOL     OW21130   9.438   8.902   4.288  0.1304  0.5713 -0.3218
 3304SOL    HW121131   9.443   9.001   4.278 -0.8975  0.6126 -0.3991
 3304SOL    HW221132   9.344   8.875   4.309  0.9294 -0.0990  2.7040
 3305SOL     OW21133   5.748   5.513   7.886 -0.0401 -0.1217 -0.6048
 3305SOL    HW121134   5.797   5.596   7.913  0.3065 -0.5278  0.0326
 3305SOL    HW221135   5.806   5.457   7.828 -0.3695  0.2008 -1.2549
 3306SOL     OW21136   9.572   7.557   1.451 -0.2515  0.4832 -0.1604
 3306SOL    HW121137   9.563   7.489   1.378 -3.5404  1.1942 -0.5130
 3306SOL    HW221138   9.578   7.511   1.539  0.0772 -0.3003 -0.5846
 3307SOL     OW21139   3.834   0.568   0.947 -0.0924 -0.3311  0.8325
 3307SOL    HW121140   3.844   0.469   0.950 -0.7605 -0.3793  1.6526
 3307SOL    HW221141   3.762   0.592   0.881 -1.2068 -0.4977  1.9708
 3308SOL     OW21142   2.799   1.007   1.233 -0.5553  0.0461  0.7817
 3308SOL    HW121143   2.793   1.075   1.306  0.5352  1.3596 -0.3387
 3308SOL    HW221144   2.759   1.043   1.149 -0.6584 -0.9873  0.3730
 3309SOL     OW21145   8.444   9.745   5.758 -0.2402 -0.3113 -0.0005
 3309SOL    HW121146   8.406   9.668   5.706 -0.5240  0.7637 -1.4003
 3309SOL    HW221147   8.540   9.727   5.777 -0.2658 -0.9491 -0.4484
 3310SOL     OW21148   2.240   6.660   0.292 -0.1940 -0.1630 -0.1635
 3310SOL    HW121149   2.157   6.690   0.244 -2.0408 -3.3139  0.9075
 3310SOL    HW221150   2.320   6.688   0.240 -1.9606  1.8599 -1.8978
 3311SOL     OW21151   7.418   0.933   5.053 -0.5405 -0.2034  0.0051
 3311SOL    HW121152   7.380   0.857   5.106 -3.3963  0.9098 -0.3757
 3311SOL    HW221153   7.430   1.012   5.113 -2.0334  0.4773 -0.5616
 3312SOL     OW21154   2.663   7.806   5.432  0.3622 -0.4052  0.2612
 3312SOL    HW121155   2.590   7.869   5.459 -0.5754 -1.4256  0.1619
 3312SOL    HW221156   2.623   7.719   5.405  1.7736 -1.8327  2.5592
 3313SOL     OW21157   7.051   1.028   5.754  0.2918 -0.1755 -0.2762
 3313SOL    HW121158   7.150   1.041   5.760  0.3134 -0.2775 -0.4171
 3313SOL    HW221159   7.030   0.963   5.681  0.0722  0.4616 -0.7873
 3314SOL     OW21160   7.375   1.872   1.140  0.3391  0.9968  0.0018
 3314SOL    HW121161   7.432   1.953   1.152  0.9293  1.5431 -5.5783
 3314SOL    HW221162   7.283   1.900   1.114  0.2437 -0.0948 -0.8695
 3315SOL     OW21163   9.198   8.600   3.450 -0.2901 -0.6009 -0.0720
 3315SOL    HW121164   9.274   8.552   3.493 -1.2059 -2.6441 -0.7069
 3315SOL    HW221165   9.183   8.687   3.497  1.9676 -0.5076  0.5103
 3316SOL     OW21166   9.934   3.669   1.336  0.3498 -0.1138  0.2366
 3316SOL    HW121167   9.898   3.620   1.257  1.7077  0.0581 -0.4991
 3316SOL    HW221168   9.905   3.623   1.420  1.2683 -1.9539 -0.4299
 3317SOL     OW21169   1.150   4.132   2.249 -0.2874  0.3196 -0.1396
 3317SOL    HW121170   1.129   4.227   2.275 -0.0851  0.4114 -0.3175
 3317SOL    HW221171   1.193   4.131   2.159 -0.9988 -0.0065 -0.4739
 3318SOL     OW21172   0.604   3.893   0.267  0.0838  1.2154 -0.3042
 3318SOL    HW121173   0.631   3.823   0.201  1.7440  0.5463  1.0392
 3318SOL    HW221174   0.508   3.919   0.251  0.6080  1.4666 -3.2649
 3319SOL     OW21175   9.393   9.217   5.034  0.1914 -0.2203 -0.2968
 3319SOL    HW121176   9.454   9.296   5.023  1.5183 -0.8583  2.0891
 3319SOL    HW221177   9.356   9.217   5.127 -1.1838 -1.4474 -0.8319
 3320SOL     OW21178   8.899   4.835   1.351 -0.6677 -0.4211 -0.1811
 3320SOL    HW121179   8.829   4.777   1.308 -0.7281  0.4058 -1.2363
 3320SOL    HW221180   8.931   4.792   1.435 -2.6123 -0.7157  0.4492
 3321SOL     OW21181   9.657   7.532   3.314  0.0142  0.2643  0.6921
 3321SOL    HW121182   9.611   7.444   3.300  1.8631 -0.4079 -1.3493
 3321SOL    HW221183   9.589   7.605   3.309 -1.1234 -0.8355 -0.4836
 3322SOL     OW21184   3.793   4.976   7.928 -0.1845  0.1428  0.3660
 3322SOL    HW121185   3.787   4.943   7.834 -0.0714  1.3167 -0.0608
 3322SOL    HW221186   3.783   4.899   7.991  0.2772 -0.7279 -0.6089
 3323SOL     OW21187   4.383   5.666   3.529 -0.3181  0.0844  0.0086
 3323SOL    HW121188   4.427   5.720   3.601 -0.9136 -0.4722  0.7922
 3323SOL    HW221189   4.294   5.705   3.508  0.3567  0.9584 -1.2828
 3324SOL     OW21190   6.250   4.521   0.550  0.2894 -0.3846  0.0470
 3324SOL    HW121191   6.259   4.615   0.582 -0.3391 -0.2807 -0.0808
 3324SOL    HW221192   6.336   4.492   0.508  0.1146  0.5411 -0.9823
 3325SOL     OW21193   7.183   3.217   8.145  0.2726 -0.1141  0.5480
 3325SOL    HW121194   7.118   3.247   8.216  0.8644 -0.7390  1.3662
 3325SOL    HW221195   7.199   3.119   8.155  1.2777  0.0239  0.3008
 3326SOL     OW21196   8.728   9.176   4.615 -0.4083  0.2785  0.5223
 3326SOL    HW121197   8.657   9.237   4.651  0.4661 -0.2883  3.3242
 3326SOL    HW221198   8.818   9.215   4.635  0.1263  0.2292 -1.6473
 3327SOL     OW21199   6.421   0.322   3.482  0.3857 -0.1059 -0.1436
 3327SOL    HW121200   6.361   0.321   3.402 -0.6058 -0.4521  0.5842
 3327SOL    HW221201   6.394   0.397   3.543  0.9671 -0.0010 -0.0122
 3328SOL     OW21202   6.062   0.422   5.321 -0.3883  0.1571  0.7530
 3328SOL    HW121203   6.139   0.373   5.280 -0.5271  0.7004 -0.1792
 3328SOL    HW221204   6.073   0.520   5.306 -1.8051  0.1651 -0.3550
 3329SOL     OW21205   6.683   3.825   1.022  0.1863 -0.1437  0.5397
 3329SOL    HW121206   6.715   3.797   0.931 -0.4291  0.7797  0.0268
 3329SOL    HW221207   6.590   3.862   1.014  0.0537 -0.2601  1.5795
 3330SOL     OW21208   8.724   4.194   2.894 -0.0242 -0.2546  0.1945
 3330SOL    HW121209   8.668   4.172   2.974 -0.0365  0.5893  0.4188
 3330SOL    HW221210   8.819   4.166   2.912  0.0226  0.1625  0.6021
 3331SOL     OW21211   9.935   0.363   4.685 -0.1543 -0.4855  0.2761
 3331SOL    HW121212   9.969   0.289   4.743 -1.4059 -1.5248 -0.2958
 3331SOL    HW221213  10.005   0.386   4.617 -0.1246 -1.8399 -0.1774
 3332SOL     OW21214   2.662   8.964   5.421  0.5397  0.0824 -0.1015
 3332SOL    HW121215   2.738   9.023   5.446  0.9678 -0.3713 -0.3409
 3332SOL    HW221216   2.581   9.021   5.404  0.3454  0.4296  1.8604
 3333SOL     OW21217   0.739   3.728   1.765 -0.4521 -0.6796  0.0640
 3333SOL    HW121218   0.759   3.753   1.670  2.4655 -1.8017  0.3337
 3333SOL    HW221219   0.671   3.655   1.766  0.4620 -1.5809 -1.2403
 3334SOL     OW21220   7.822   0.153   4.592 -0.3696  0.7577 -0.1729
 3334SOL    HW121221   7.908   0.199   4.568  0.0224 -0.0842 -0.4293
 3334SOL    HW221222   7.842   0.070   4.644 -1.0223  0.5429 -0.2560
 3335SOL     OW21223   6.224   4.404   7.480 -0.1307  0.1993 -0.2174
 3335SOL    HW121224   6.224   4.335   7.552  0.5778 -1.7939 -2.0652
 3335SOL    HW221225   6.293   4.473   7.500 -0.2470 -0.0891  1.2340
 3336SOL     OW21226   9.335   5.352   2.496 -0.0427 -0.5494 -0.0506
 3336SOL    HW121227   9.300   5.279   2.555  0.2910  1.2239  2.4304
 3336SOL    HW221228   9.434   5.360   2.508  0.0719 -0.3152 -1.0691
 3337SOL     OW21229   0.401   0.350   0.230  0.0307  0.3950 -0.6208
 3337SOL    HW121230   0.408   0.446   0.255  2.6234 -0.0338  0.4949
 3337SOL    HW221231   0.420   0.339   0.132  2.6576  0.7573 -0.1941
 3338SOL     OW21232   9.274   9.696   6.373 -0.0202 -0.4638  0.0549
 3338SOL    HW121233   9.236   9.658   6.458  0.9176 -1.8982 -0.1477
 3338SOL    HW221234   9.202   9.700   6.304 -0.9537  1.2982  1.0790
 3339SOL     OW21235   9.235   9.431   1.872  0.7406 -0.0217 -0.5182
 3339SOL    HW121236   9.258   9.430   1.775 -1.1093  0.0814 -0.9786
 3339SOL    HW221237   9.301   9.375   1.923  2.2349  0.6401 -1.6919
 3340SOL     OW21238   3.958   8.367   4.895 -0.1180 -0.4215 -0.1831
 3340SOL    HW121239   4.056   8.355   4.880  0.2299  0.1344  1.5354
 3340SOL    HW221240   3.938   8.465   4.901 -0.5715 -0.5709  0.7757
 3341SOL     OW21241   4.981   9.901   3.396 -0.0410 -0.1659  0.4466
 3341SOL    HW121242   4.984   9.986   3.344  1.3387 -0.8408 -0.6370
 3341SOL    HW221243   4.984   9.921   3.494  1.5261  1.0056  0.1784
 3342SOL     OW21244   1.789   8.622   4.564 -0.1461  0.4046 -0.4043
 3342SOL    HW121245   1.832   8.637   4.475 -0.5801 -1.7963 -0.9963
 3342SOL    HW221246   1.748   8.531   4.567  1.9378 -0.5242  2.8889
 3343SOL     OW21247   9.759   0.194   6.147  0.0300  0.0648  0.2449
 3343SOL    HW121248   9.734   0.226   6.239 -0.2341 -2.0685  0.9377
 3343SOL    HW221249   9.852   0.223   6.126  0.1999  0.3193  1.3153
 3344SOL     OW21250   9.660   9.102   1.084  0.0021 -0.1358 -0.0143
 3344SOL    HW121251   9.583   9.139   1.032  0.3574  1.7311  0.7315
 3344SOL    HW221252   9.745   9.125   1.038  0.1677 -1.1972 -0.2395
 3345SOL     OW21253   1.513   2.866   3.222 -0.4291 -0.1433 -0.2709
 3345SOL    HW121254   1.441   2.929   3.191  0.4374  0.7833 -0.4353
 3345SOL    HW221255   1.528   2.795   3.153 -0.7876 -0.0051 -0.4932
 3346SOL     OW21256   0.925   9.904   4.544 -0.0474  0.0112  0.0652
 3346SOL    HW121257   0.925   9.964   4.624  1.2400 -1.3186  1.0964
 3346SOL    HW221258   0.830   9.877   4.523 -0.4015  0.4192  1.1194
 3347SOL     OW21259   2.923   4.186   1.817 -0.4134 -0.1154  0.1674
 3347SOL    HW121260   3.005   4.206   1.870  1.1119 -2.6353 -1.1536
 3347SOL    HW221261   2.852   4.152   1.878  0.4291 -0.4656  0.9708
 3348SOL     OW21262   7.688   5.065   1.531 -0.0891  0.0534 -0.3005
 3348SOL    HW121263   7.614   5.097   1.471  1.2599  2.0341 -0.9634
 3348SOL    HW221264   7.763   5.028   1.476  0.0709 -0.5055  0.2890
 3349SOL     OW21265   0.146   4.924   1.625  0.1829 -0.8247  0.3140
 3349SOL    HW121266   0.242   4.898   1.624 -0.2049 -2.3540 -0.0112
 3349SOL    HW221267   0.101   4.883   1.705 -0.1477  0.0879  0.6030
 3350SOL     OW21268   8.100   4.307   4.188 -0.1276  0.2212 -0.4955
 3350SOL    HW121269   8.175   4.243   4.172 -0.3895 -0.1331 -0.3111
 3350SOL    HW221270   8.053   4.283   4.273 -1.0679 -0.1432 -1.1140
 3351SOL     OW21271   6.745   6.859   5.278 -0.3826  0.3045  0.2230
 3351SOL    HW121272   6.727   6.775   5.328  1.8480 -0.6635 -0.5524
 3351SOL    HW221273   6.843   6.878   5.276 -0.6974  2.0613 -0.9921
 3352SOL     OW21274   0.065   0.570   6.025  0.4606  0.1077  0.4939
 3352SOL    HW121275   0.123   0.601   5.950  0.4875 -2.1918 -0.4707
 3352SOL    HW221276   0.121   0.525   6.095 -0.0367 -1.5077 -0.1214
 3353SOL     OW21277   7.818   3.470   1.146  0.2521 -0.2081 -0.0760
 3353SOL    HW121278   7.842   3.424   1.231  3.4119 -0.5311 -1.0721
 3353SOL    HW221279   7.776   3.559   1.166  0.7024 -0.4130  1.8249
 3354SOL     OW21280   6.850   8.888   6.915  0.2498  0.1654 -0.3471
 3354SOL    HW121281   6.802   8.902   7.002 -0.2906 -1.7480 -0.3244
 3354SOL    HW221282   6.941   8.928   6.921  0.7450 -1.1621  1.6093
 3355SOL     OW21283   8.411   0.962   1.482 -0.0523  0.4687  0.0283
 3355SOL    HW121284   8.445   1.035   1.541 -0.5040  1.4823 -0.9439
 3355SOL    HW221285   8.396   0.998   1.390 -1.9700 -0.4212 -0.0193
 3356SOL     OW21286   7.674   3.417   1.823 -0.3818 -0.7518  0.7386
 3356SOL    HW121287   7.628   3.371   1.899  0.2845 -1.9350  0.4356
 3356SOL    HW221288   7.632   3.389   1.736  1.3574 -2.4298  0.3978
 3357SOL     OW21289   2.598   2.691   4.547  0.4907 -0.7923  0.4929
 3357SOL    HW121290   2.672   2.754   4.523 -0.5074 -0.0627 -0.7388
 3357SOL    HW221291   2.617   2.650   4.636  0.7395  1.8490  1.7024
 3358SOL     OW21292   4.951   2.164   2.759  1.1732 -0.1011  0.0179
 3358SOL    HW121293   4.982   2.075   2.793 -0.8659 -0.8391  0.0024
 3358SOL    HW221294   4.911   2.152   2.668  1.5210  0.9532 -0.2724
 3359SOL     OW21295   3.102   6.858   5.038  0.2836 -0.2014  0.8131
 3359SOL    HW121296   3.003   6.845   5.043  0.0762  0.5763 -0.9751
 3359SOL    HW221297   3.122   6.937   4.981  2.0208 -2.1805 -1.4138
 3360SOL     OW21298   5.421   0.222   1.550 -0.0160  0.3058 -0.1573
 3360SOL    HW121299   5.510   0.179   1.539 -0.9493 -1.8336  0.3402
 3360SOL    HW221300   5.394   0.268   1.465  0.5699 -0.9578 -1.0329
 3361SOL     OW21301   8.830   7.015   3.855  0.0775 -0.1465  0.6942
 3361SOL    HW121302   8.874   7.009   3.765 -1.5245  0.0965 -0.1224
 3361SOL    HW221303   8.818   7.112   3.880  0.5851 -0.2124  1.2146
 3362SOL     OW21304   0.128   9.973   3.647  0.3023  0.2371  0.9792
 3362SOL    HW121305   0.161  10.042   3.582 -0.2806  0.9044  1.3954
 3362SOL    HW221306   0.141   9.882   3.607  0.1427  0.6342  0.0052
 3363SOL     OW21307   1.865   3.654   2.856  0.0711 -0.2724  0.5327
 3363SOL    HW121308   1.824   3.601   2.781 -1.2950 -0.1569  1.1662
 3363SOL    HW221309   1.925   3.724   2.819 -0.6209 -0.1875 -0.4691
 3364SOL     OW21310   3.516   2.107   5.935  0.7508  0.4104 -0.5003
 3364SOL    HW121311   3.523   2.016   5.893 -0.2514  0.4279 -0.7158
 3364SOL    HW221312   3.439   2.156   5.895  2.0477  1.8359 -1.2710
 3365SOL     OW21313   7.069   8.615   3.166  0.3138 -0.0678 -0.0091
 3365SOL    HW121314   7.034   8.656   3.250  3.0160  2.3222  0.0705
 3365SOL    HW221315   7.067   8.683   3.093 -0.8530 -1.7464 -1.5732
 3366SOL     OW21316   9.035   5.430   5.766 -0.4419  0.0258 -0.0810
 3366SOL    HW121317   8.971   5.494   5.725 -0.5013  0.1577  0.2127
 3366SOL    HW221318   8.995   5.338   5.766 -1.9582  0.6073  2.9108
 3367SOL     OW21319   8.731   0.500   5.141  0.2028 -0.3847  0.0881
 3367SOL    HW121320   8.797   0.480   5.069 -0.1132  2.0910 -0.9284
 3367SOL    HW221321   8.780   0.534   5.222  0.4220 -1.6889  0.5206
 3368SOL     OW21322   5.251   0.583   3.016  0.4556 -0.0622 -0.1061
 3368SOL    HW121323   5.300   0.498   3.033 -0.6747 -0.4178  1.4544
 3368SOL    HW221324   5.179   0.567   2.949 -0.5604 -0.6367  1.1084
 3369SOL     OW21325   4.840   5.691   0.829 -0.1782  0.1953 -0.5339
 3369SOL    HW121326   4.764   5.755   0.818 -1.1027 -0.9159 -0.7473
 3369SOL    HW221327   4.840   5.655   0.922 -0.6530 -0.7003 -0.8663
 3370SOL     OW21328   3.797   5.236   8.034  0.2197  0.4563  0.5779
 3370SOL    HW121329   3.872   5.277   7.983 -0.8671 -0.9096 -2.2311
 3370SOL    HW221330   3.781   5.143   8.001 -2.2700  0.4968  1.5742
 3371SOL     OW21331   2.609   1.348   3.234 -0.1650  0.4575  0.2894
 3371SOL    HW121332   2.649   1.318   3.321  0.0176  1.2006  0.4694
 3371SOL    HW221333   2.607   1.448   3.231 -0.0279  0.4445 -0.6247
 3372SOL     OW21334   4.940   7.762   3.158 -0.1509 -0.2625  0.2103
 3372SOL    HW121335   4.980   7.714   3.236 -0.4918  1.9578  1.7876
 3372SOL    HW221336   5.006   7.828   3.122 -0.4015 -0.4998 -0.7169
 3373SOL     OW21337   3.853   1.264   1.004  0.2220  0.1379  0.2757
 3373SOL    HW121338   3.893   1.273   1.096 -0.6586  1.1431  0.5704
 3373SOL    HW221339   3.917   1.299   0.936  0.8835 -0.6186  0.4988
 3374SOL     OW21340   4.605   3.734   1.794 -0.5153 -0.0401  0.2458
 3374SOL    HW121341   4.574   3.664   1.729 -1.9140 -1.4033  2.3115
 3374SOL    HW221342   4.682   3.699   1.848 -1.3457 -0.0988  1.4245
 3375SOL     OW21343   4.064   2.111   3.951  0.0848 -0.7151  0.0065
 3375SOL    HW121344   3.970   2.077   3.945  0.8223 -2.9024  0.3578
 3375SOL    HW221345   4.112   2.089   3.866 -0.5080  3.0241 -1.4044
 3376SOL     OW21346   9.993   4.054   2.944  1.0821 -0.4277  0.1345
 3376SOL    HW121347  10.034   4.067   3.035 -0.3277 -0.9202  0.8622
 3376SOL    HW221348   9.905   4.101   2.940  2.2532  1.6971 -1.8450
 3377SOL     OW21349   7.445   4.833   0.728 -0.4336 -0.0249 -0.3899
 3377SOL    HW121350   7.420   4.736   0.729 -0.0235 -0.1328 -0.1531
 3377SOL    HW221351   7.494   4.854   0.644 -0.3600 -0.0669 -0.3575
 3378SOL     OW21352   4.624   0.332   4.529  0.5248 -0.6843 -0.1579
 3378SOL    HW121353   4.616   0.431   4.515  1.5940 -0.6280 -0.3993
 3378SOL    HW221354   4.657   0.314   4.622 -1.3028 -0.8794  0.4723
 3379SOL     OW21355   0.664   6.285   4.842  0.3514  0.0069 -0.1872
 3379SOL    HW121356   0.565   6.285   4.834  0.2234 -0.6283  1.1964
 3379SOL    HW221357   0.690   6.300   4.938  1.6126  1.5004 -0.7313
 3380SOL     OW21358   1.978   1.137   5.185 -0.1669  0.3120 -0.0930
 3380SOL    HW121359   2.040   1.062   5.207 -0.9978 -0.3188  0.0964
 3380SOL    HW221360   2.032   1.221   5.171  0.6715 -0.0904  0.6585
 3381SOL     OW21361   9.986   9.832   1.837 -0.1690 -0.3908 -0.3553
 3381SOL    HW121362   9.996   9.801   1.932  2.5200 -0.1137 -0.4951
 3381SOL    HW221363   9.951   9.926   1.836 -1.8394 -0.9932  0.2846
 3382SOL     OW21364   0.349   1.474   2.091  0.1874 -0.3987  0.5903
 3382SOL    HW121365   0.396   1.553   2.130  1.8556 -1.7531  1.3784
 3382SOL    HW221366   0.400   1.440   2.012  0.0362 -1.3222  0.8842
 3383SOL     OW21367   7.746   5.733   0.540 -0.0195  0.0778 -0.5426
 3383SOL    HW121368   7.756   5.829   0.569 -2.8412  0.4482 -0.6262
 3383SOL    HW221369   7.825   5.707   0.484  1.8411  1.6748  1.2454
 3384SOL     OW21370   9.153   3.115   1.828  0.4013 -0.0044 -0.0987
 3384SOL    HW121371   9.121   3.034   1.779  0.9727  0.7126 -1.6694
 3384SOL    HW221372   9.091   3.191   1.811  1.6966  0.7863 -1.3374
 3385SOL     OW21373   9.944   8.873   0.787  0.2560  0.2297 -0.4881
 3385SOL    HW121374   9.933   8.956   0.842  1.2785  1.3263 -1.9215
 3385SOL    HW221375  10.023   8.822   0.821 -0.2051 -0.0355  0.2158
 3386SOL     OW21376   9.190   4.083   4.870  0.0321 -0.3076  0.2457
 3386SOL    HW121377   9.127   4.019   4.914 -0.7641 -0.2779 -0.8230
 3386SOL    HW221378   9.265   4.104   4.932 -0.7626 -0.7195  1.3662
 3387SOL     OW21379   2.811   1.172   1.442 -0.2676  0.4958 -0.5224
 3387SOL    HW121380   2.773   1.178   1.535 -0.1375  1.7014 -0.5463
 3387SOL    HW221381   2.851   1.259   1.416 -1.9679  0.7416 -2.4376
 3388SOL     OW21382   9.301   9.640   2.426 -0.5858 -0.3804 -0.1758
 3388SOL    HW121383   9.289   9.633   2.327  1.1390  0.4882 -0.4566
 3388SOL    HW221384   9.313   9.736   2.452  0.8243 -0.7675  0.6437
 3389SOL     OW21385   0.950   5.647   2.485  0.1876 -0.1925  0.0545
 3389SOL    HW121386   0.926   5.625   2.390  0.8399  2.1622 -0.7100
 3389SOL    HW221387   1.004   5.573   2.524  0.0093 -1.1467 -1.4450
 3390SOL     OW21388   4.543   8.406   3.125  0.2067 -0.4293 -0.4636
 3390SOL    HW121389   4.575   8.331   3.068  0.3784 -1.6394  1.1898
 3390SOL    HW221390   4.448   8.389   3.153  0.0785  0.2162 -0.4781
 3391SOL     OW21391   5.122   5.445   1.270  0.3083  0.2474 -0.1734
 3391SOL    HW121392   5.156   5.470   1.179  2.9071 -0.9812  0.4099
 3391SOL    HW221393   5.086   5.352   1.267 -0.4210  0.5283 -0.1436
 3392SOL     OW21394   1.648   4.333   4.957  0.2164 -0.2771 -0.2571
 3392SOL    HW121395   1.743   4.304   4.969 -0.1865 -1.0870  0.9826
 3392SOL    HW221396   1.602   4.333   5.045 -0.2532  2.5657 -0.4751
 3393SOL     OW21397   7.564   0.825   5.385  0.3044 -0.7772 -0.6149
 3393SOL    HW121398   7.600   0.799   5.475  0.6887 -0.6208 -0.7216
 3393SOL    HW221399   7.640   0.857   5.327 -0.4203  2.7091  0.2368
 3394SOL     OW21400   9.519   3.255   4.615  0.1776 -0.4424 -0.1867
 3394SOL    HW121401   9.615   3.282   4.623  0.2681 -0.5358 -0.9135
 3394SOL    HW221402   9.462   3.319   4.668  0.6273 -0.3480  0.1940
 3395SOL     OW21403   3.483   7.588   6.026  0.0325  0.2589 -0.2274
 3395SOL    HW121404   3.439   7.543   6.104 -1.5979  0.8205 -0.7973
 3395SOL    HW221405   3.444   7.554   5.941  1.0129  0.4694 -0.7708
 3396SOL     OW21406   7.724   7.620   3.324  0.4748 -0.1429 -0.4930
 3396SOL    HW121407   7.799   7.669   3.279  1.2995 -0.3472  0.6323
 3396SOL    HW221408   7.716   7.650   3.419 -0.9434 -0.0561 -0.6382
 3397SOL     OW21409   2.617   0.430   3.491 -0.1610  0.0137 -0.7110
 3397SOL    HW121410   2.678   0.360   3.529  0.6689  0.8973 -0.4027
 3397SOL    HW221411   2.618   0.510   3.551 -0.1328  0.7761 -1.7282
 3398SOL     OW21412   9.040   0.496   0.333 -0.7042  0.0236  0.1378
 3398SOL    HW121413   8.967   0.564   0.337 -1.4647 -0.7397 -0.4613
 3398SOL    HW221414   9.107   0.515   0.405 -0.2716  2.0893 -0.7902
 3399SOL     OW21415   8.295   7.485   6.197 -0.0169  0.4162 -0.2450
 3399SOL    HW121416   8.353   7.565   6.180  1.5758 -0.9101 -1.1204
 3399SOL    HW221417   8.264   7.488   6.292  0.5461  1.7506 -0.0805
 3400SOL     OW21418   1.275   3.371   2.799  0.3545 -0.1312  0.2530
 3400SOL    HW121419   1.189   3.392   2.752  0.9605  1.5617 -0.1379
 3400SOL    HW221420   1.301   3.448   2.856  1.0357 -1.1028  1.2761
 3401SOL     OW21421   9.071   8.660   5.878  0.7638 -0.0584  0.0113
 3401SOL    HW121422   8.993   8.713   5.913 -0.9007 -1.4036 -1.6027
 3401SOL    HW221423   9.153   8.716   5.884  0.1084  0.6275  3.7800
 3402SOL     OW21424   9.972   0.967   6.156 -0.6032  0.1012  0.4811
 3402SOL    HW121425   9.999   0.985   6.062  0.5750 -0.4671  0.7018
 3402SOL    HW221426   9.913   0.885   6.159  1.5785 -1.5075  0.5288
 3403SOL     OW21427   1.355   9.220   5.625 -0.0602 -0.0316 -0.0410
 3403SOL    HW121428   1.327   9.127   5.603 -1.6680  1.2102 -3.4706
 3403SOL    HW221429   1.274   9.276   5.643  0.4678  1.9917 -3.4868
 3404SOL     OW21430   4.515   3.526   4.231 -0.1870  0.1460  0.3015
 3404SOL    HW121431   4.596   3.569   4.269 -0.5780  1.2352 -0.0839
 3404SOL    HW221432   4.459   3.595   4.185 -0.1870 -0.9769 -1.4248
 3405SOL     OW21433   5.013   0.906   5.694 -0.4054  0.0902 -0.2286
 3405SOL    HW121434   4.979   0.985   5.643 -2.8304 -0.5194  0.3920
 3405SOL    HW221435   5.029   0.933   5.789  1.7168  0.5896 -0.7059
 3406SOL     OW21436   8.746   8.925   2.398  0.2161 -0.5410  0.1202
 3406SOL    HW121437   8.747   8.964   2.306  1.9486  2.6846  1.4557
 3406SOL    HW221438   8.791   8.835   2.396  0.1823 -0.5389 -2.1663
 3407SOL     OW21439   2.120   6.880   2.283  0.6536  0.0818  0.0933
 3407SOL    HW121440   2.084   6.845   2.197  1.8305 -0.8117 -0.0523
 3407SOL    HW221441   2.211   6.842   2.299  0.8218  0.9515  1.2884
 3408SOL     OW21442   8.831   1.339   5.966 -0.0839  0.3213 -0.5016
 3408SOL    HW121443   8.848   1.280   6.045 -2.5309 -2.2472 -1.7948
 3408SOL    HW221444   8.903   1.326   5.898  0.6755  0.6627  0.2291
 3409SOL     OW21445   8.035   5.418   1.868 -0.1862  0.4747 -0.3639
 3409SOL    HW121446   8.054   5.509   1.832  0.2566  0.4077 -0.3004
 3409SOL    HW221447   7.941   5.392   1.845  0.1543  0.3368 -1.7048
 3410SOL     OW21448   4.636   9.317   1.558 -0.4853 -0.1395  0.0724
 3410SOL    HW121449   4.611   9.223   1.536  0.9261 -1.0675  2.2344
 3410SOL    HW221450   4.729   9.336   1.526 -0.3842  0.1773  0.5373
 3411SOL     OW21451   0.553   0.330   3.899  0.4219 -0.3965  0.3343
 3411SOL    HW121452   0.528   0.286   3.813  0.8797  0.8691 -0.4488
 3411SOL    HW221453   0.632   0.389   3.886 -0.2020  0.7078  1.3522
 3412SOL     OW21454   2.922   0.603   0.331  0.3333  0.6035  0.1901
 3412SOL    HW121455   2.829   0.566   0.329  0.3098  0.6970 -0.6314
 3412SOL    HW221456   2.917   0.703   0.341  0.3362  0.6568 -0.3503
 3413SOL     OW21457   2.896   0.840   5.114  0.1509 -0.1670 -0.2379
 3413SOL    HW121458   2.953   0.757   5.114  0.0397 -0.2913  2.2544
 3413SOL    HW221459   2.954   0.920   5.124  0.2386  0.0721 -2.4267
 3414SOL     OW21460   0.228   8.472   3.145 -0.7924  0.0918  0.3435
 3414SOL    HW121461   0.147   8.512   3.103  0.1246 -0.3981 -1.9973
 3414SOL    HW221462   0.307   8.532   3.129  0.2428 -1.7025 -1.6523
 3415SOL     OW21463   8.313   8.385   6.657  0.0133 -0.2429 -0.0971
 3415SOL    HW121464   8.228   8.347   6.621 -0.4755 -0.5311  1.3347
 3415SOL    HW221465   8.343   8.461   6.600 -1.0652 -0.3165 -0.7561
 3416SOL     OW21466   8.980   4.149   0.502  0.1116 -0.2468  0.1047
 3416SOL    HW121467   8.962   4.222   0.435 -1.0014  1.2322  1.9448
 3416SOL    HW221468   9.060   4.173   0.557  0.3222 -0.8697  0.0646
 3417SOL     OW21469   7.609   6.639   4.981 -0.3408  0.2837 -0.0516
 3417SOL    HW121470   7.576   6.574   5.049 -0.5530 -0.3371 -0.7458
 3417SOL    HW221471   7.706   6.657   4.996 -0.2151 -0.4138 -0.0373
 3418SOL     OW21472   8.085   4.258   4.649  0.2109  0.6846 -0.0545
 3418SOL    HW121473   8.103   4.316   4.570 -1.2069  1.6633  0.3280
 3418SOL    HW221474   8.099   4.311   4.733  0.6181 -0.0285  0.3333
 3419SOL     OW21475   2.069   7.183   0.191 -0.0795  0.2959 -0.1769
 3419SOL    HW121476   2.046   7.195   0.095  0.1372 -0.3070 -0.3052
 3419SOL    HW221477   1.986   7.158   0.242 -0.0818  0.0483 -0.3036
 3420SOL     OW21478   2.669   0.845   0.200  0.2003 -0.1714  0.1678
 3420SOL    HW121479   2.685   0.865   0.297 -0.5827  0.9826  0.0638
 3420SOL    HW221480   2.588   0.787   0.190 -1.1720  1.7465  0.0395
 3421SOL     OW21481   7.190   8.421   6.043  0.5910  0.2333  0.1032
 3421SOL    HW121482   7.128   8.453   5.973  1.1957 -0.1585 -0.6214
 3421SOL    HW221483   7.176   8.473   6.127 -2.0735 -1.1571  0.5680
 3422SOL     OW21484   0.058   6.659   1.590 -0.3385  0.2502 -0.4957
 3422SOL    HW121485  -0.007   6.735   1.576 -0.4094  0.8390  2.5923
 3422SOL    HW221486   0.049   6.594   1.516 -0.6955  2.9743 -2.9525
 3423SOL     OW21487   8.176   3.045   1.953 -0.4138 -0.3621 -0.1359
 3423SOL    HW121488   8.089   2.996   1.948  0.0855 -1.1971 -0.5199
 3423SOL    HW221489   8.165   3.125   2.013 -1.2729 -0.8095  0.3080
 3424SOL     OW21490   2.198   2.983   4.579  0.1164 -0.0331  0.4076
 3424SOL    HW121491   2.153   2.894   4.568 -1.2789  0.7944 -0.7730
 3424SOL    HW221492   2.204   3.029   4.491  1.6549  0.6673  0.8653
 3425SOL     OW21493   7.330   1.574   1.008  0.5511  0.6900  0.2299
 3425SOL    HW121494   7.321   1.600   1.104 -1.3066 -0.0643  0.2728
 3425SOL    HW221495   7.347   1.656   0.953  0.7029  1.2346  1.0835
 3426SOL     OW21496   2.183   1.434   2.220 -0.2958  0.1544  0.5121
 3426SOL    HW121497   2.189   1.533   2.216  0.4837  0.0667 -0.8986
 3426SOL    HW221498   2.103   1.403   2.167 -1.1986  0.0896  1.8956
 3427SOL     OW21499   5.322   9.071   2.796  0.2184 -0.8169  0.1684
 3427SOL    HW121500   5.421   9.083   2.781  0.0940  0.1067  0.0845
 3427SOL    HW221501   5.274   9.080   2.709  0.1105 -1.9152  0.1009
 3428SOL     OW21502   5.887   9.923   3.818 -1.0849 -0.3797  0.5241
 3428SOL    HW121503   5.931   9.835   3.837 -1.7211 -0.4613  1.7320
 3428SOL    HW221504   5.882   9.976   3.903  1.3736  1.8078 -0.6195
 3429SOL     OW21505   8.281   5.403   1.338  0.1969 -0.1599  0.6965
 3429SOL    HW121506   8.268   5.383   1.435 -1.4461  2.4775  1.0637
 3429SOL    HW221507   8.341   5.482   1.328 -1.8147  1.2752 -0.3188
 3430SOL     OW21508   8.218   5.563   4.592 -0.6391  0.7048 -0.0441
 3430SOL    HW121509   8.282   5.491   4.565 -0.1738  1.4011 -0.8631
 3430SOL    HW221510   8.190   5.550   4.687 -1.5134 -1.2340 -0.5621
 3431SOL     OW21511   4.591   8.806   1.988 -0.0310 -0.3582  0.2187
 3431SOL    HW121512   4.599   8.834   1.893  3.2868 -1.2695  0.1697
 3431SOL    HW221513   4.539   8.720   1.994  0.3002 -0.6283 -0.8126
 3432SOL     OW21514   2.711   0.024   3.521 -0.5104  0.3091 -0.2318
 3432SOL    HW121515   2.745   0.004   3.429 -1.9848  1.8249 -1.1287
 3432SOL    HW221516   2.726   0.120   3.542  0.5857 -0.2213  1.4608
 3433SOL     OW21517   6.386   8.555   3.426  0.7440 -0.3404 -0.1882
 3433SOL    HW121518   6.292   8.531   3.400  0.7347  0.3538 -0.8515
 3433SOL    HW221519   6.395   8.655   3.426  1.2047 -0.3779  0.8924
 3434SOL     OW21520   0.673   8.076   4.145  0.2543  0.1264 -0.0281
 3434SOL    HW121521   0.575   8.087   4.128  0.2434  1.8673  0.9921
 3434SOL    HW221522   0.722   8.158   4.113  1.2719 -0.3757  0.2235
 3435SOL     OW21523   0.892   0.541   0.272  0.1029  0.4550 -0.5983
 3435SOL    HW121524   0.943   0.611   0.222 -2.2063  1.0554 -2.2062
 3435SOL    HW221525   0.882   0.569   0.367  1.9073  0.7636 -0.4648
 3436SOL     OW21526   9.399   8.835   2.013 -0.4009 -0.3045  0.0529
 3436SOL    HW121527   9.427   8.912   2.070 -0.4659 -0.9501  0.9785
 3436SOL    HW221528   9.415   8.857   1.917  4.2131 -1.0151  0.5566
 3437SOL     OW21529   8.965   7.454   5.355  0.9496  0.7401  0.4541
 3437SOL    HW121530   8.885   7.487   5.304  0.0116 -0.4247  1.1360
 3437SOL    HW221531   9.045   7.453   5.296 -0.2532 -1.1838 -1.1823
 3438SOL     OW21532   8.056   1.950   7.863 -0.5515 -0.3349 -0.3767
 3438SOL    HW121533   7.957   1.955   7.854 -0.6855  0.3773  1.3476
 3438SOL    HW221534   8.086   1.855   7.852 -1.5245 -0.6886  0.0304
 3439SOL     OW21535   1.708   1.747   3.838 -0.2180  0.3772  0.2680
 3439SOL    HW121536   1.647   1.729   3.760 -0.6167  0.9443  0.4439
 3439SOL    HW221537   1.707   1.844   3.859  1.8778  0.6022 -0.6284
 3440SOL     OW21538   7.700   2.038   2.462  0.1669 -0.2510 -0.8110
 3440SOL    HW121539   7.650   2.042   2.549  0.4387  1.9216 -0.7352
 3440SOL    HW221540   7.637   2.009   2.390 -0.3246 -1.0152 -0.0925
 3441SOL     OW21541   8.079   5.710   5.194  0.5431  0.4289 -0.9085
 3441SOL    HW121542   8.160   5.671   5.150  0.6736 -0.0777 -0.2291
 3441SOL    HW221543   8.102   5.798   5.235  0.9608 -0.0897 -0.0152
 3442SOL     OW21544   6.402   2.560   4.223  0.1462  0.3462 -0.2385
 3442SOL    HW121545   6.308   2.535   4.199 -0.2125  1.4247  0.0103
 3442SOL    HW221546   6.463   2.484   4.202 -0.4217  0.5543 -2.8247
 3443SOL     OW21547   1.446   5.938   4.533 -0.2306  0.0476  0.1077
 3443SOL    HW121548   1.418   6.012   4.594 -1.8158  0.2923 -0.8877
 3443SOL    HW221549   1.545   5.942   4.519  0.0246  0.5050  1.9724
 3444SOL     OW21550   1.789   6.844   0.284  0.1093  0.3164  0.0127
 3444SOL    HW121551   1.746   6.834   0.194 -2.4855  0.2643  1.2004
 3444SOL    HW221552   1.784   6.940   0.312  0.0341  0.1775  0.4894
 3445SOL     OW21553   1.796   4.053   3.827  0.4687  0.4885 -0.0918
 3445SOL    HW121554   1.812   4.043   3.925  3.2394  0.5621 -0.4895
 3445SOL    HW221555   1.824   3.969   3.780 -1.4752  0.2004 -0.7606
 3446SOL     OW21556   8.380   2.721   4.861 -0.5755 -0.0718 -1.0591
 3446SOL    HW121557   8.441   2.754   4.932  0.2304 -0.7179 -1.4529
 3446SOL    HW221558   8.290   2.764   4.872 -0.0462  0.9017 -0.5090
 3447SOL     OW21559   8.042   0.699   6.317  0.3017  0.2274  0.3483
 3447SOL    HW121560   7.949   0.666   6.304  0.6932 -1.5133  1.6796
 3447SOL    HW221561   8.056   0.722   6.413  0.5977  2.6139 -0.2356
 3448SOL     OW21562   8.636   6.644   6.065  0.7720 -0.1537 -0.3844
 3448SOL    HW121563   8.705   6.613   6.131 -0.1900 -1.6800 -0.0729
 3448SOL    HW221564   8.666   6.622   5.973  0.6715 -0.9091 -0.2423
 3449SOL     OW21565   8.067   4.000   2.856  0.3966  0.2317 -0.2507
 3449SOL    HW121566   8.080   3.933   2.929 -1.1591 -0.4417 -0.5491
 3449SOL    HW221567   8.093   4.091   2.888  0.5794 -0.1994  0.8410
 3450SOL     OW21568   2.063   5.791   0.340 -0.4399  0.2828 -0.0202
 3450SOL    HW121569   1.971   5.788   0.379 -0.8271 -0.3780 -0.9794
 3450SOL    HW221570   2.113   5.709   0.368 -0.1817  0.5853  0.4042
 3451SOL     OW21571   9.053   4.550   4.317 -0.1537  0.3107 -0.4111
 3451SOL    HW121572   9.007   4.622   4.265  0.2949 -0.3055 -1.6738
 3451SOL    HW221573   9.105   4.492   4.255  0.6462 -0.2530  0.7645
 3452SOL     OW21574   4.686   0.997   5.433 -0.4391  0.0025  0.1234
 3452SOL    HW121575   4.732   0.919   5.475  0.0013  0.4820  0.5391
 3452SOL    HW221576   4.588   0.978   5.428 -0.1263 -1.3308 -1.4398
 3453SOL     OW21577   8.984   4.892   2.172  0.4341  0.1785 -0.7004
 3453SOL    HW121578   8.907   4.864   2.115  0.7116 -0.0039 -0.9861
 3453SOL    HW221579   9.062   4.831   2.156  0.8144  0.6929 -0.8126
 3454SOL     OW21580   2.089   9.439   3.699  0.0822 -0.0629  0.1975
 3454SOL    HW121581   2.123   9.512   3.640 -0.8333  0.0532 -0.1948
 3454SOL    HW221582   2.061   9.477   3.786  1.2704 -0.2089  0.6602
 3455SOL     OW21583   9.689   0.654   1.441 -0.0294 -0.1125 -0.2458
 3455SOL    HW121584   9.596   0.624   1.421 -0.0240  0.7154 -1.5865
 3455SOL    HW221585   9.721   0.610   1.524 -1.9769  0.3414  0.7791
 3456SOL     OW21586   9.616   1.296   1.516  0.2729 -0.1445  0.0971
 3456SOL    HW121587   9.600   1.346   1.601 -0.7195 -1.0551  0.4634
 3456SOL    HW221588   9.565   1.339   1.442 -0.8223 -0.7734  0.4712
 3457SOL     OW21589   7.437   0.344   5.601 -0.2426 -0.3527  0.1202
 3457SOL    HW121590   7.519   0.288   5.611 -0.3536 -0.3917  0.8717
 3457SOL    HW221591   7.426   0.401   5.683 -1.6918 -1.3168  0.6218
 3458SOL     OW21592   6.068   1.045   2.433 -0.0738  0.3311  0.2679
 3458SOL    HW121593   6.036   1.124   2.381  0.2894 -0.2898 -0.9182
 3458SOL    HW221594   6.164   1.026   2.411  0.8168  1.5034  2.9719
 3459SOL     OW21595   0.451   9.307   3.566  0.2269  0.0622  0.3011
 3459SOL    HW121596   0.537   9.340   3.605 -0.1165  1.2649  0.0886
 3459SOL    HW221597   0.448   9.329   3.469  0.6924 -2.1187 -0.2144
 3460SOL     OW21598   6.782   2.731   6.234 -0.1905  0.3716  0.4186
 3460SOL    HW121599   6.702   2.789   6.219  0.0251  0.9564  1.5145
 3460SOL    HW221600   6.759   2.636   6.211 -0.5373  0.8810 -1.3876
 3461SOL     OW21601   2.388   8.561   1.282  0.8736  0.0856  0.0849
 3461SOL    HW121602   2.315   8.627   1.305  0.5213  0.0280 -0.8458
 3461SOL    HW221603   2.475   8.596   1.315  0.1660 -0.7703  3.0024
 3462SOL     OW21604   7.338   0.083   6.612 -0.1189 -0.4439  0.2726
 3462SOL    HW121605   7.290   0.145   6.675 -1.2150 -0.9114 -0.0981
 3462SOL    HW221606   7.345   0.126   6.522  0.1603 -0.3794  0.3240
 3463SOL     OW21607   9.271   2.675   2.334 -0.1961  0.4504 -0.2940
 3463SOL    HW121608   9.303   2.743   2.268  0.8165 -0.2553 -0.5450
 3463SOL    HW221609   9.318   2.588   2.318  1.3248  0.6950  2.3921
 3464SOL     OW21610   3.624   1.873   0.187  0.4471  0.3344  0.1444
 3464SOL    HW121611   3.628   1.963   0.229 -2.9591 -0.3557  2.1751
 3464SOL    HW221612   3.693   1.814   0.228  0.0794  0.9221  1.6329
 3465SOL     OW21613   7.802   0.642   2.829  0.3809 -0.2045  0.4400
 3465SOL    HW121614   7.708   0.675   2.840  0.9346  2.3312 -1.7859
 3465SOL    HW221615   7.810   0.595   2.741  1.3968  0.5315  0.1268
 3466SOL     OW21616   3.772   2.846   4.060 -0.0305  0.3491  0.6110
 3466SOL    HW121617   3.853   2.809   4.105 -0.5011  0.6326  1.6864
 3466SOL    HW221618   3.779   2.830   3.961  1.7331  1.1197  0.5931
 3467SOL     OW21619   5.884   9.818   5.623 -0.4622  1.0178 -0.7345
 3467SOL    HW121620   5.820   9.755   5.667 -0.8742  1.5455 -0.5895
 3467SOL    HW221621   5.978   9.787   5.640 -0.6648  0.3825 -0.7487
 3468SOL     OW21622   2.377   8.075   3.950  0.1433 -0.0969 -0.3902
 3468SOL    HW121623   2.348   7.983   3.925 -0.0954  0.4152 -2.0415
 3468SOL    HW221624   2.297   8.132   3.969  0.2955 -0.2543  0.7724
 3469SOL     OW21625   0.847   7.037   2.740 -0.8805 -0.8545 -0.1742
 3469SOL    HW121626   0.849   7.127   2.698  0.1520 -1.0233 -0.5131
 3469SOL    HW221627   0.845   7.047   2.840  2.3052 -0.4243 -0.1030
 3470SOL     OW21628   7.563   2.388   5.032  0.4039 -0.5712  0.3101
 3470SOL    HW121629   7.570   2.305   5.086  0.3236 -1.1531 -0.5645
 3470SOL    HW221630   7.654   2.424   5.013  0.4756 -0.9298 -0.0296
 3471SOL     OW21631   4.116   3.317   1.275  0.2995  0.4302 -0.2352
 3471SOL    HW121632   4.136   3.238   1.333  1.5151  1.5976  0.9462
 3471SOL    HW221633   4.167   3.310   1.189  2.2715  1.1085  0.8630
 3472SOL     OW21634   2.299   7.630   4.009 -0.4791  0.3744  0.7320
 3472SOL    HW121635   2.225   7.602   4.070  0.6846 -1.9985  1.0910
 3472SOL    HW221636   2.278   7.603   3.915  0.6581 -1.8148  1.0828
 3473SOL     OW21637   1.015   7.430   4.527 -0.1949 -0.2566  0.0994
 3473SOL    HW121638   1.061   7.388   4.449  0.0577 -0.3714  0.3074
 3473SOL    HW221639   0.967   7.512   4.498  0.3085 -0.0244 -0.0834
 3474SOL     OW21640   8.483   7.971   5.027  0.0369 -0.4231  0.0244
 3474SOL    HW121641   8.514   8.051   4.974 -1.9133  0.2066 -0.2112
 3474SOL    HW221642   8.489   7.992   5.124 -1.4236  0.3993 -0.0514
 3475SOL     OW21643   5.237   1.772   1.271  0.0159 -0.0475 -0.0345
 3475SOL    HW121644   5.272   1.684   1.238 -1.5786  0.4862 -3.4167
 3475SOL    HW221645   5.175   1.810   1.203 -0.6243  2.9392  2.1283
 3476SOL     OW21646   6.838   1.178   5.608 -0.5514 -0.0335 -0.5193
 3476SOL    HW121647   6.811   1.126   5.527 -0.2305 -1.0821  0.0346
 3476SOL    HW221648   6.917   1.134   5.651  1.0612  2.0794 -1.2201
 3477SOL     OW21649   2.073   0.395   4.866 -0.0169  0.0142 -0.0630
 3477SOL    HW121650   2.162   0.365   4.833 -0.4863 -0.4941 -0.8857
 3477SOL    HW221651   2.002   0.335   4.830 -0.5075 -0.8420  2.2734
 3478SOL     OW21652   2.242   3.680   3.687 -0.0631 -0.6079 -0.3604
 3478SOL    HW121653   2.260   3.778   3.692  1.5917 -0.8695 -1.0592
 3478SOL    HW221654   2.282   3.642   3.603 -1.9774 -1.6195 -0.8565
 3479SOL     OW21655   1.537   6.193   0.937 -0.6583 -0.4118  0.6483
 3479SOL    HW121656   1.557   6.278   0.985 -1.4252 -0.3941  0.9418
 3479SOL    HW221657   1.598   6.185   0.858 -0.7109  0.4991  0.5053
 3480SOL     OW21658   2.006   2.048   5.641  0.2482 -0.4591  0.1403
 3480SOL    HW121659   1.959   2.056   5.729  0.2921 -1.9601  0.3153
 3480SOL    HW221660   1.963   2.108   5.574 -0.8076 -0.5152  0.7668
 3481SOL     OW21661   0.481   3.353   2.648  0.2618  0.1557 -0.2035
 3481SOL    HW121662   0.491   3.277   2.585 -0.3971  0.3367 -0.5272
 3481SOL    HW221663   0.530   3.332   2.733  0.7011 -0.3093 -0.5663
 3482SOL     OW21664   8.325   0.970   5.833  0.2917  0.7816  0.2034
 3482SOL    HW121665   8.375   1.057   5.837  0.8109  0.4870  0.2017
 3482SOL    HW221666   8.351   0.914   5.912  1.1038  0.0116 -0.6019
 3483SOL     OW21667   6.763   4.254   2.122  0.2887  0.7531  0.1388
 3483SOL    HW121668   6.760   4.185   2.195  0.3894 -1.4370 -1.8626
 3483SOL    HW221669   6.697   4.326   2.142 -1.0215 -0.7576  1.4687
 3484SOL     OW21670   9.687   7.300   0.521  0.4527  0.0085 -0.4868
 3484SOL    HW121671   9.610   7.260   0.570  1.2846  0.2813  1.0751
 3484SOL    HW221672   9.740   7.227   0.478  0.3750 -0.3317 -0.0151
 3485SOL     OW21673   9.194   1.253   0.444 -0.4309 -0.6886 -0.3829
 3485SOL    HW121674   9.268   1.297   0.391 -0.0212 -0.8784  0.0309
 3485SOL    HW221675   9.211   1.155   0.449 -1.0489 -0.8207 -0.8215
 3486SOL     OW21676   6.479   1.252   3.966 -0.6993  0.0140  0.5170
 3486SOL    HW121677   6.389   1.228   3.929 -0.4468 -1.4075  0.7762
 3486SOL    HW221678   6.542   1.175   3.952  0.7314  1.3095 -0.4450
 3487SOL     OW21679   7.711   1.472   3.502 -0.3599  0.8315 -0.1382
 3487SOL    HW121680   7.801   1.466   3.458 -0.0526  0.4049  0.5369
 3487SOL    HW221681   7.702   1.560   3.547  0.2913  0.3389  0.9932
 3488SOL     OW21682   2.936   8.433   3.808 -0.0145  0.6702  1.1943
 3488SOL    HW121683   3.028   8.394   3.808 -0.3623 -0.1810  1.4721
 3488SOL    HW221684   2.940   8.531   3.827  0.8979  0.8164  0.2701
 3489SOL     OW21685   6.187   9.662   6.053 -0.5617 -0.4566  0.2213
 3489SOL    HW121686   6.277   9.684   6.015 -0.1827 -0.1442  1.2966
 3489SOL    HW221687   6.152   9.579   6.009 -0.4736  0.3194 -1.3619
 3490SOL     OW21688   2.478   0.440   2.605 -0.2195 -0.0924  0.3357
 3490SOL    HW121689   2.435   0.472   2.689  0.0449  0.9144  0.0916
 3490SOL    HW221690   2.554   0.500   2.580 -1.1506  0.4277 -1.3545
 3491SOL     OW21691   0.366   0.849   0.999  0.0332  1.0944 -1.0371
 3491SOL    HW121692   0.363   0.855   1.099 -1.3435 -0.0760 -0.9971
 3491SOL    HW221693   0.399   0.936   0.962  0.5216  1.5553  0.4296
 3492SOL     OW21694   4.584   5.515   3.665 -0.5036  0.4254  0.0639
 3492SOL    HW121695   4.598   5.587   3.733 -1.2048  1.6090 -1.0089
 3492SOL    HW221696   4.545   5.555   3.582  1.2770 -0.8119 -1.4284
 3493SOL     OW21697   7.488   0.806   2.242  0.0188  0.2769  0.2742
 3493SOL    HW121698   7.513   0.710   2.255 -1.8160 -0.3345 -0.4874
 3493SOL    HW221699   7.492   0.854   2.329 -0.1018 -0.7519  0.8515
 3494SOL     OW21700   4.493   1.627   0.605  0.0752 -0.1435  0.7147
 3494SOL    HW121701   4.470   1.667   0.517 -2.3734 -1.9479  0.5120
 3494SOL    HW221702   4.587   1.593   0.602 -1.3688 -4.3202 -2.8064
 3495SOL     OW21703   2.043   2.429   2.066  0.3174  0.1568  0.2382
 3495SOL    HW121704   2.093   2.467   1.989  2.1692  1.4368  2.0289
 3495SOL    HW221705   2.058   2.485   2.147 -0.3536 -2.0173  1.9293
 3496SOL     OW21706   2.266   7.362   0.301  0.3008 -0.0575 -0.1392
 3496SOL    HW121707   2.200   7.293   0.273 -0.1168  0.8464 -1.4568
 3496SOL    HW221708   2.231   7.411   0.381 -0.5925  0.3379 -0.7571
 3497SOL     OW21709   7.708   8.956   4.168 -0.1239 -0.1346 -0.6629
 3497SOL    HW121710   7.640   8.883   4.163 -0.0980 -0.2825  0.8979
 3497SOL    HW221711   7.709   9.007   4.081 -1.8568 -0.4367 -0.8816
 3498SOL     OW21712   8.361   2.738   3.962  0.1064 -0.2737 -0.4304
 3498SOL    HW121713   8.397   2.700   4.047 -0.2196  0.4703  0.0370
 3498SOL    HW221714   8.371   2.837   3.962  0.1831 -0.2758 -1.2976
 3499SOL     OW21715   3.220   6.185   2.162 -0.1169  0.1528 -0.0953
 3499SOL    HW121716   3.214   6.285   2.171 -0.7522  0.0465  0.7231
 3499SOL    HW221717   3.298   6.161   2.103 -0.1541  1.1410 -0.5524
 3500SOL     OW21718   9.215   0.933   3.107 -0.0759  0.0757  0.9386
 3500SOL    HW121719   9.128   0.979   3.128  0.2027  2.4469 -2.6884
 3500SOL    HW221720   9.289   0.977   3.158 -0.3159  1.4935  0.1043
 3501SOL     OW21721   8.519   1.560   5.218  0.4330  0.0055 -0.1441
 3501SOL    HW121722   8.594   1.521   5.165 -0.2393 -0.7028 -0.5979
 3501SOL    HW221723   8.549   1.580   5.311  1.2496 -0.0347 -0.3998
 3502SOL     OW21724   5.857   1.638   7.944 -0.0424 -0.5732 -0.1824
 3502SOL    HW121725   5.848   1.642   8.044  0.4812  1.5824 -0.1982
 3502SOL    HW221726   5.770   1.661   7.902  0.1210  0.0282 -0.2080
 3503SOL     OW21727   1.319   8.562   1.844 -0.1323  0.5369 -0.1180
 3503SOL    HW121728   1.276   8.539   1.757  0.9240 -0.0721 -0.4916
 3503SOL    HW221729   1.358   8.480   1.884 -0.4289  0.8574  0.8302
 3504SOL     OW21730   0.725   7.276   3.453  0.3136  0.3367  0.7433
 3504SOL    HW121731   0.648   7.340   3.445  1.4183  1.3410 -2.7358
 3504SOL    HW221732   0.692   7.183   3.436 -0.0845  0.8054 -1.1667
 3505SOL     OW21733   2.518   8.166   0.023  0.0107  0.0405  0.4334
 3505SOL    HW121734   2.497   8.196   0.116  1.2332  0.3071  0.6326
 3505SOL    HW221735   2.537   8.068   0.023 -1.3676 -0.2431  0.2207
 3506SOL     OW21736   2.316   2.669   4.486 -0.3345 -0.1707  0.1500
 3506SOL    HW121737   2.383   2.602   4.518  0.4446  0.1335 -0.8170
 3506SOL    HW221738   2.355   2.761   4.489 -0.7381  0.0219 -0.3055
 3507SOL     OW21739   8.585   5.789   5.595 -0.5264 -0.1663  0.0641
 3507SOL    HW121740   8.492   5.806   5.627 -0.8955 -2.6008  0.3801
 3507SOL    HW221741   8.641   5.753   5.670  1.0955  2.6599  0.2588
 3508SOL     OW21742   3.783   3.702   1.001  0.4346 -0.2689  0.6790
 3508SOL    HW121743   3.778   3.640   1.080 -0.1763 -0.3291  0.6014
 3508SOL    HW221744   3.742   3.658   0.922  0.3286  0.0942  0.5302
 3509SOL     OW21745   6.826   2.726   4.121  0.0100 -0.0806  0.5133
 3509SOL    HW121746   6.775   2.745   4.204  0.7225  1.2735  0.6410
 3509SOL    HW221747   6.909   2.781   4.118  0.0254 -0.1549 -1.0647
 3510SOL     OW21748   3.996   2.403   4.291 -0.2954 -0.1322  0.1300
 3510SOL    HW121749   4.018   2.498   4.311  0.2379 -0.2995  0.3506
 3510SOL    HW221750   4.000   2.388   4.192 -0.3119  0.0593  0.1013
 3511SOL     OW21751   0.699   3.856   0.872 -0.0848 -0.1828  0.3784
 3511SOL    HW121752   0.747   3.772   0.897 -0.3043 -0.9576 -1.7058
 3511SOL    HW221753   0.752   3.906   0.803 -0.9370  0.3389  0.0938
 3512SOL     OW21754   1.924   7.386   0.976  0.2184 -0.7030 -0.6357
 3512SOL    HW121755   1.962   7.323   0.908 -1.6090 -0.5102 -1.8916
 3512SOL    HW221756   1.849   7.341   1.024 -1.2612  0.5376 -1.7072
 3513SOL     OW21757   2.854   3.324   1.827  0.1660 -0.2755 -0.2925
 3513SOL    HW121758   2.933   3.384   1.820  0.3742 -0.6350 -1.0610
 3513SOL    HW221759   2.878   3.232   1.797 -0.3955 -0.5206 -0.0103
 3514SOL     OW21760   5.310   9.864   4.991 -0.0813 -0.3612  0.0693
 3514SOL    HW121761   5.299   9.790   4.925 -2.5209  0.4687 -0.5188
 3514SOL    HW221762   5.225   9.917   4.996  1.2938  1.8224  1.1747
 3515SOL     OW21763   8.444   3.758   5.838  0.2919  0.3196  0.4385
 3515SOL    HW121764   8.479   3.683   5.783 -0.7960  0.0987  0.0372
 3515SOL    HW221765   8.493   3.762   5.925  1.6849  0.3682 -0.3384
 3516SOL     OW21766   3.081   4.907   0.427  0.2781 -0.0019 -0.2933
 3516SOL    HW121767   3.064   4.952   0.515 -1.3453 -1.9452  0.4215
 3516SOL    HW221768   3.127   4.820   0.442 -0.6749 -0.6957 -1.3095
 3517SOL     OW21769   4.498   3.542   5.878 -0.1667  0.0634 -0.2603
 3517SOL    HW121770   4.400   3.556   5.869  0.1173  1.4408 -1.3858
 3517SOL    HW221771   4.544   3.631   5.884  1.1612 -0.5111 -1.5777
 3518SOL     OW21772   5.591   1.192   1.755  0.0136  0.3914 -0.5392
 3518SOL    HW121773   5.606   1.217   1.850  1.7456  0.2022 -0.7427
 3518SOL    HW221774   5.498   1.216   1.728  0.1226  2.2011  0.6451
 3519SOL     OW21775   9.462   5.532   2.910  0.4128  0.3190  0.3672
 3519SOL    HW121776   9.387   5.499   2.967 -0.1899  0.0456 -0.5740
 3519SOL    HW221777   9.518   5.455   2.881 -0.9801  0.0785 -1.8101
 3520SOL     OW21778   1.911   9.079   0.980  0.2783 -0.0495  0.6074
 3520SOL    HW121779   1.901   9.174   1.009 -1.7435 -0.3829  1.0563
 3520SOL    HW221780   1.829   9.050   0.930  0.1147 -2.0787  1.9850
 3521SOL     OW21781   0.640   3.503   5.612 -0.6213  0.8051 -0.2809
 3521SOL    HW121782   0.605   3.462   5.528 -1.3016  3.3922 -1.2776
 3521SOL    HW221783   0.739   3.488   5.617 -0.7056 -0.0854 -1.0990
 3522SOL     OW21784   1.302   1.630   4.622 -0.0802  0.2003 -0.2383
 3522SOL    HW121785   1.236   1.590   4.686 -0.9628  1.9495 -0.0232
 3522SOL    HW221786   1.380   1.666   4.673 -1.3298  2.6719  0.0544
 3523SOL     OW21787   7.467   0.851   6.379 -0.3785  0.5083  0.1380
 3523SOL    HW121788   7.501   0.838   6.472  1.8123 -0.3883 -0.7403
 3523SOL    HW221789   7.404   0.778   6.355  1.4195 -1.0060 -0.1037
 3524SOL     OW21790   9.137   4.689   2.993  0.4557  0.1332 -0.2307
 3524SOL    HW121791   9.226   4.716   3.028 -0.2510 -0.0233  1.7218
 3524SOL    HW221792   9.065   4.742   3.039 -0.4580  0.3913 -1.9157
 3525SOL     OW21793   2.077   0.664   1.916  0.4409 -0.8133  0.3416
 3525SOL    HW121794   2.054   0.759   1.934  0.9357 -0.6704  0.2255
 3525SOL    HW221795   2.084   0.614   2.002 -0.2307 -0.8393  0.3789
 3526SOL     OW21796   4.202   9.877   1.338  0.7019  0.4829 -0.4532
 3526SOL    HW121797   4.253   9.845   1.259  1.4333  1.3245 -0.3377
 3526SOL    HW221798   4.236   9.967   1.365  1.0937 -0.1785  1.3602
 3527SOL     OW21799   2.077   0.339   5.673 -0.0740  0.8021  0.1410
 3527SOL    HW121800   2.029   0.284   5.740  1.0038 -0.2845  0.0345
 3527SOL    HW221801   2.107   0.425   5.715 -0.2388  0.5451  0.7881
 3528SOL     OW21802   1.675   1.155   3.025  0.5133 -0.2414 -0.8892
 3528SOL    HW121803   1.766   1.114   3.021  0.4241 -0.3839 -1.6301
 3528SOL    HW221804   1.606   1.085   3.007  0.2704 -0.0873 -0.5620
 3529SOL     OW21805   8.262   2.415   2.838 -0.4151  0.5839  0.1450
 3529SOL    HW121806   8.192   2.467   2.789  0.0072  1.5163  0.5172
 3529SOL    HW221807   8.352   2.454   2.818 -0.1787  0.5478  1.1128
 3530SOL     OW21808   1.712   4.153   1.437  0.0593  0.6821 -0.2388
 3530SOL    HW121809   1.797   4.204   1.454  0.2503  0.6599 -1.1264
 3530SOL    HW221810   1.702   4.137   1.339 -0.6501  0.1209 -0.0729
 3531SOL     OW21811   2.198   1.728   4.891 -0.1978 -0.3860  0.0903
 3531SOL    HW121812   2.189   1.784   4.974  2.8679 -0.9667  0.8573
 3531SOL    HW221813   2.125   1.660   4.888 -1.8283  1.2845  0.9913
 3532SOL     OW21814   5.204   5.806   2.204  0.5610 -0.0795 -0.1530
 3532SOL    HW121815   5.242   5.898   2.214 -1.3845  0.6188  1.2080
 3532SOL    HW221816   5.194   5.784   2.107 -0.9143  2.0129 -0.5170
 3533SOL     OW21817   7.604   1.667   0.658  0.3653 -0.2991  0.0106
 3533SOL    HW121818   7.530   1.706   0.712  0.4171 -0.8599  0.4935
 3533SOL    HW221819   7.568   1.596   0.597  0.3302  0.2286 -0.5907
 3534SOL     OW21820   3.080   6.073   3.591 -0.0888 -0.5112 -0.4191
 3534SOL    HW121821   3.015   6.088   3.516 -1.3055  0.8715  0.8602
 3534SOL    HW221822   3.163   6.031   3.556 -0.5535  0.3196 -2.5774
 3535SOL     OW21823   8.983   3.618   6.412  0.0365  0.1901 -0.2310
 3535SOL    HW121824   8.943   3.636   6.322 -0.8027 -1.4637 -0.2087
 3535SOL    HW221825   8.918   3.646   6.483 -0.5159 -1.1921 -0.1801
 3536SOL     OW21826   8.017   3.943   1.084 -0.1240  0.9715 -0.1351
 3536SOL    HW121827   7.952   4.019   1.083 -1.6306 -0.2144  2.1108
 3536SOL    HW221828   8.066   3.942   1.171 -1.1629 -1.4208  0.4816
 3537SOL     OW21829   4.750   3.655   4.329  0.2267 -0.2626 -0.6351
 3537SOL    HW121830   4.833   3.626   4.281  0.0031  0.0305 -1.2030
 3537SOL    HW221831   4.723   3.585   4.396  0.5544 -0.6557 -0.9155
 3538SOL     OW21832   2.170   3.921   3.947  0.6288 -0.5545 -0.1817
 3538SOL    HW121833   2.149   4.017   3.931  0.3455  0.1702  4.0741
 3538SOL    HW221834   2.269   3.906   3.941  0.5604 -0.3091 -2.1804
 3539SOL     OW21835   0.717   5.489   4.999  0.4140 -0.1765 -0.3817
 3539SOL    HW121836   0.681   5.403   5.034  0.1526 -0.2608 -0.8494
 3539SOL    HW221837   0.801   5.513   5.048  1.5883 -1.7140 -1.5993
 3540SOL     OW21838   9.754   9.581   5.767 -0.1928 -0.0870 -0.0909
 3540SOL    HW121839   9.676   9.523   5.745 -0.6001  1.0739 -1.7713
 3540SOL    HW221840   9.756   9.599   5.865 -0.8702 -1.7656  0.2456
 3541SOL     OW21841   2.465   5.757   3.931 -0.2716 -0.1944  0.4354
 3541SOL    HW121842   2.459   5.660   3.956  0.2268 -0.0010  1.3492
 3541SOL    HW221843   2.542   5.770   3.870  0.5169 -0.1709  1.4125
 3542SOL     OW21844   4.205   0.977   2.193  0.5106  0.4466  0.9054
 3542SOL    HW121845   4.250   0.989   2.105 -0.6463 -0.5610  0.1489
 3542SOL    HW221846   4.256   0.911   2.248 -1.1522 -2.3868 -0.8145
 3543SOL     OW21847   1.459   7.055   1.777 -0.5824 -0.3511  0.1481
 3543SOL    HW121848   1.473   7.008   1.690 -1.3497  3.0934 -1.9765
 3543SOL    HW221849   1.366   7.093   1.779  0.0510  1.1655  1.6564
 3544SOL     OW21850   7.948   1.028   0.899 -0.4635 -0.5995  0.9840
 3544SOL    HW121851   7.968   1.058   0.993 -2.3512 -0.8197  1.4637
 3544SOL    HW221852   7.868   1.077   0.864  0.4791 -0.2082 -0.6842
 3545SOL     OW21853   5.289   4.844   1.602 -0.1470  0.1950 -0.2551
 3545SOL    HW121854   5.214   4.816   1.542  0.8363 -4.8838  0.6929
 3545SOL    HW221855   5.252   4.870   1.691 -0.9779  0.0269 -0.5499
 3546SOL     OW21856   8.891   8.488   3.406 -0.1663  0.9712 -0.7634
 3546SOL    HW121857   8.987   8.481   3.382 -0.0047  0.6382 -0.0479
 3546SOL    HW221858   8.879   8.467   3.504 -0.9545  1.0326 -0.8395
 3547SOL     OW21859   7.180   2.907   0.429  0.0062  0.6549  0.3982
 3547SOL    HW121860   7.151   2.817   0.462  2.2279 -0.6108 -0.9207
 3547SOL    HW221861   7.136   2.978   0.483  1.2756 -1.2752  4.1485
 3548SOL     OW21862   8.167   5.020   5.400  0.6057  0.2578 -0.2068
 3548SOL    HW121863   8.224   4.939   5.411  0.0313 -0.2006 -0.5820
 3548SOL    HW221864   8.071   4.995   5.410  0.5442  1.2874  1.8571
 3549SOL     OW21865   0.296   3.550   4.109  0.1514 -0.2124 -0.0017
 3549SOL    HW121866   0.285   3.470   4.168 -1.4730 -0.3159 -0.4308
 3549SOL    HW221867   0.326   3.520   4.018 -1.2789 -0.4120 -0.4114
 3550SOL     OW21868   6.097   1.546   3.338  0.1717  0.3380 -0.5727
 3550SOL    HW121869   6.152   1.586   3.265 -1.9525  0.2665 -2.2759
 3550SOL    HW221870   6.156   1.518   3.413  2.2236  2.1215 -1.4561
 3551SOL     OW21871   7.349   5.783   1.875 -0.1753 -0.2190 -0.5316
 3551SOL    HW121872   7.357   5.719   1.951 -0.5372  0.9825  0.5399
 3551SOL    HW221873   7.415   5.858   1.887  0.9946 -0.9428 -2.3300
 3552SOL     OW21874   2.884   7.525   2.478 -0.1501  0.1685  0.0418
 3552SOL    HW121875   2.855   7.479   2.561  0.4420 -2.4506 -1.1687
 3552SOL    HW221876   2.980   7.551   2.486 -0.7228  2.0524  1.0750
 3553SOL     OW21877   9.419   2.701   6.413  0.2474 -0.0849  0.5788
 3553SOL    HW121878   9.432   2.736   6.506 -0.2930  1.0184  0.2481
 3553SOL    HW221879   9.391   2.776   6.353 -0.5972 -1.0217 -0.2146
 3554SOL     OW21880   8.437   2.552   6.479  0.1787 -0.0985 -0.0469
 3554SOL    HW121881   8.530   2.516   6.487  0.3182  0.2604 -0.0011
 3554SOL    HW221882   8.438   2.634   6.422  0.0399  0.4462  0.7189
 3555SOL     OW21883   8.801   7.244   1.997 -0.0959  0.6579 -0.0384
 3555SOL    HW121884   8.750   7.317   1.951 -1.2760 -0.6196 -0.7973
 3555SOL    HW221885   8.775   7.155   1.957  1.5816 -0.1479  0.6189
 3556SOL     OW21886   8.851   7.436   6.020  0.2870  0.1904  0.4966
 3556SOL    HW121887   8.763   7.389   6.027  0.2756 -0.0930 -1.3891
 3556SOL    HW221888   8.839   7.533   6.036 -0.2741  0.0692  0.8108
 3557SOL     OW21889   1.599   1.579   5.025  0.3544  0.2208  0.1063
 3557SOL    HW121890   1.671   1.646   5.002 -0.8988  1.5167 -0.1230
 3557SOL    HW221891   1.616   1.494   4.976  0.8464  1.0572 -1.1918
 3558SOL     OW21892   5.145   0.606   4.788 -0.0001  0.2189  0.0571
 3558SOL    HW121893   5.055   0.615   4.831 -0.2782 -0.7192 -0.3118
 3558SOL    HW221894   5.183   0.697   4.769 -1.8461  0.6187 -1.8295
 3559SOL     OW21895   5.125   1.007   1.574 -0.0548 -1.1199 -0.3827
 3559SOL    HW121896   5.142   1.031   1.670  0.2456 -0.7222 -0.5331
 3559SOL    HW221897   5.179   1.067   1.515 -0.3977 -1.2285 -0.8079
 3560SOL     OW21898   1.619   5.423   3.726  0.0690  0.3132 -0.1382
 3560SOL    HW121899   1.548   5.376   3.780 -0.3861  3.4433  2.1272
 3560SOL    HW221900   1.709   5.388   3.752 -0.4089 -1.1281 -0.3876
 3561SOL     OW21901   2.933   3.068   1.823  0.0978 -0.5685 -0.4278
 3561SOL    HW121902   2.997   3.032   1.755  0.2167 -2.2372  0.5539
 3561SOL    HW221903   2.975   3.068   1.913 -1.1579 -1.3413  0.1735
 3562SOL     OW21904   0.333   1.940   3.132 -0.2975 -0.3344  0.1327
 3562SOL    HW121905   0.300   2.012   3.071 -1.5037  0.1831  1.3627
 3562SOL    HW221906   0.254   1.888   3.167  0.1933  0.6568  2.8201
 3563SOL     OW21907   0.591   9.834   4.027  0.6473  0.2367  0.2666
 3563SOL    HW121908   0.504   9.789   4.048  0.1645  1.2004  0.3497
 3563SOL    HW221909   0.656   9.817   4.101  0.7149 -0.9636 -0.0650
 3564SOL     OW21910   4.870   9.302   1.400 -0.3960  0.0741  0.3172
 3564SOL    HW121911   4.961   9.272   1.428  0.2851  2.0175  0.2395
 3564SOL    HW221912   4.831   9.236   1.335  2.2585  0.8132 -2.1043
 3565SOL     OW21913   3.165   2.691   5.245 -0.1044 -0.0983  0.3905
 3565SOL    HW121914   3.218   2.766   5.205 -0.9695  0.6124  0.5544
 3565SOL    HW221915   3.160   2.703   5.344 -0.7571 -0.0279  0.3544
 3566SOL     OW21916   6.346   2.307   5.753 -0.0529 -0.3390  0.2374
 3566SOL    HW121917   6.275   2.252   5.709 -2.2294  0.4880  2.6386
 3566SOL    HW221918   6.393   2.252   5.822 -0.8346  0.1942  1.1971
 3567SOL     OW21919   9.672   2.030   4.971  0.1030 -0.1910  0.0656
 3567SOL    HW121920   9.655   2.119   5.014  0.0945  0.4896 -1.2780
 3567SOL    HW221921   9.733   1.976   5.029 -0.7369  0.2710  1.3994
 3568SOL     OW21922   3.840   4.016   1.414  0.3463  0.3810  0.1306
 3568SOL    HW121923   3.818   4.011   1.317  0.2230 -0.7067  0.2005
 3568SOL    HW221924   3.821   3.927   1.457  1.7707  0.3990  0.8532
 3569SOL     OW21925   3.575   0.043   4.892 -0.9998 -0.4813  0.0885
 3569SOL    HW121926   3.654   0.100   4.872 -0.8096 -0.0686  1.9604
 3569SOL    HW221927   3.581   0.007   4.985 -3.0987 -0.2697  0.3481
 3570SOL     OW21928   6.791   7.291   4.894  0.2778  0.2300 -0.0071
 3570SOL    HW121929   6.811   7.271   4.798  1.4323 -1.4286  0.5429
 3570SOL    HW221930   6.876   7.315   4.942 -0.2520  0.8104  0.6556
 3571SOL     OW21931   4.613   2.477   1.293  0.1746  0.7044 -0.4305
 3571SOL    HW121932   4.666   2.530   1.360  0.7537 -0.2347 -0.1295
 3571SOL    HW221933   4.636   2.380   1.303 -0.9430  0.3890 -0.9073
 3572SOL     OW21934   1.865   7.272   0.635  0.2306 -0.3414 -0.5707
 3572SOL    HW121935   1.806   7.195   0.661  1.3808 -2.0453 -2.7749
 3572SOL    HW221936   1.954   7.262   0.678  1.1363 -1.5305 -2.6403
 3573SOL     OW21937   2.380   2.370   0.382 -0.6309 -0.4417 -0.0341
 3573SOL    HW121938   2.418   2.323   0.303 -0.0797 -0.7775  0.4212
 3573SOL    HW221939   2.400   2.468   0.376 -1.1641 -0.3663 -0.6315
 3574SOL     OW21940   0.481   4.955   0.236 -0.0436  0.4808 -0.3872
 3574SOL    HW121941   0.575   4.920   0.246 -0.4424 -0.3772  0.4194
 3574SOL    HW221942   0.457   5.009   0.317 -0.2028  0.8022 -0.6494
 3575SOL     OW21943   4.133   4.038   4.965 -0.2911 -0.0247 -0.1861
 3575SOL    HW121944   4.130   3.994   4.875 -0.2593 -1.7115  0.6247
 3575SOL    HW221945   4.061   4.000   5.023 -1.0268  1.8399  0.1837
 3576SOL     OW21946   2.309   8.512   2.217  0.6512  0.2123  0.5870
 3576SOL    HW121947   2.340   8.447   2.287 -0.7797 -1.8585 -0.6173
 3576SOL    HW221948   2.251   8.463   2.151  2.6499  1.9330 -2.5248
 3577SOL     OW21949   6.136   5.065   1.907  0.0558 -0.2104 -0.0879
 3577SOL    HW121950   6.164   5.014   1.988  0.6638  0.9375  0.4336
 3577SOL    HW221951   6.187   5.032   1.828 -0.4792 -1.2729  0.0041
 3578SOL     OW21952   9.700   6.930   0.291  0.3828 -0.2531 -0.8238
 3578SOL    HW121953   9.600   6.930   0.298  0.4111  0.5010 -0.4253
 3578SOL    HW221954   9.726   6.964   0.200  0.3158  1.6777 -0.1560
 3579SOL     OW21955   7.800   8.733   5.774 -0.1194  0.2167 -0.4567
 3579SOL    HW121956   7.755   8.729   5.685 -1.6494 -0.5656  0.3373
 3579SOL    HW221957   7.894   8.699   5.765  0.1214  1.1980 -1.9743
 3580SOL     OW21958   2.525   2.545   5.262  0.2989  0.1466 -0.6761
 3580SOL    HW121959   2.446   2.581   5.212 -0.1289  1.6325  1.0355
 3580SOL    HW221960   2.609   2.579   5.221 -0.0534  1.4822 -0.2932
 3581SOL     OW21961   2.094   7.590   7.964  0.0037  0.7241 -0.1672
 3581SOL    HW121962   2.132   7.666   7.912 -0.1759  2.1999  1.7803
 3581SOL    HW221963   2.151   7.509   7.951  0.0760  1.1229 -2.4431
 3582SOL     OW21964   1.470   3.575   4.029 -0.1782 -0.3459  0.3738
 3582SOL    HW121965   1.471   3.634   3.948 -1.4769  1.5557  1.6963
 3582SOL    HW221966   1.427   3.488   4.007 -3.1338  1.2280 -0.3264
 3583SOL     OW21967   1.866   8.651   3.883  0.7351  0.3895  0.0356
 3583SOL    HW121968   1.872   8.744   3.848  0.3991  0.2811 -0.3082
 3583SOL    HW221969   1.951   8.602   3.862  0.7894  0.5242 -0.0560
 3584SOL     OW21970   4.988   1.905   3.038  0.5261  0.8302  0.2982
 3584SOL    HW121971   4.921   1.892   3.111  2.2425 -1.0806  1.5876
 3584SOL    HW221972   5.051   1.979   3.063  0.1403  1.2439  0.0368
 3585SOL     OW21973   5.115   2.639   0.567 -0.3000 -0.7207 -0.8150
 3585SOL    HW121974   5.170   2.592   0.636 -0.4028 -0.2716 -0.4278
 3585SOL    HW221975   5.123   2.738   0.578  0.3868 -0.6286 -2.0025
 3586SOL     OW21976   1.736   1.275   5.262  0.0014 -0.1799 -0.1373
 3586SOL    HW121977   1.825   1.253   5.223 -1.1093 -0.0928 -2.8528
 3586SOL    HW221978   1.664   1.238   5.203 -1.7764  0.9215  1.2875
 3587SOL     OW21979   5.931   2.277   5.804  0.5651  0.2844 -0.2111
 3587SOL    HW121980   5.896   2.301   5.714 -0.1326 -0.0134 -0.0245
 3587SOL    HW221981   5.959   2.360   5.853  2.0099  0.3525 -1.1253
 3588SOL     OW21982   5.015   3.126   0.249 -0.2549 -0.0745  0.2165
 3588SOL    HW121983   4.948   3.190   0.285 -0.1779 -0.0008  0.2279
 3588SOL    HW221984   4.994   3.034   0.281 -0.7905 -0.1666 -0.3845
 3589SOL     OW21985   2.151   7.006   0.426  0.6278  0.0735 -0.6298
 3589SOL    HW121986   2.222   7.061   0.470  1.1497  0.0950 -1.4743
 3589SOL    HW221987   2.105   7.061   0.357  1.6128 -0.7221 -1.9606
 3590SOL     OW21988   2.296   7.047   5.535 -0.0112 -0.5091  0.6842
 3590SOL    HW121989   2.332   7.108   5.465  0.3744 -0.7737  0.6526
 3590SOL    HW221990   2.302   6.953   5.503  2.2672 -0.8177  1.9950
 3591SOL     OW21991   9.173   3.873   3.446  0.2635 -0.1355  0.7580
 3591SOL    HW121992   9.226   3.882   3.362  0.4619 -0.7412  0.8154
 3591SOL    HW221993   9.211   3.799   3.502  0.1492  0.2754  1.3909
 3592SOL     OW21994   2.027   0.810   2.734  0.5614 -0.2909  0.2270
 3592SOL    HW121995   1.968   0.783   2.811  0.8356  0.1739  0.6078
 3592SOL    HW221996   2.065   0.900   2.753 -0.3658  0.3743 -1.0399
 3593SOL     OW21997   1.659   4.318   4.518 -0.3125 -0.7484 -0.0618
 3593SOL    HW121998   1.708   4.372   4.587  0.1256 -0.1308 -0.8435
 3593SOL    HW221999   1.712   4.237   4.495 -0.4721 -0.9689  0.3476
 3594SOL     OW22000   1.040   0.767   5.826  0.2377  0.6576  0.4036
 3594SOL    HW122001   1.015   0.864   5.830  1.2336  0.9255  0.4580
 3594SOL    HW222002   0.962   0.711   5.853 -0.5487  1.4192 -0.2574
 3595SOL     OW22003   0.131   4.016   4.237  0.9049 -0.9175  0.5293
 3595SOL    HW122004   0.078   4.043   4.317  0.3337 -0.3343 -0.0422
 3595SOL    HW222005   0.146   3.918   4.239 -0.9144 -1.2094  0.2567
 3596SOL     OW22006   4.416   0.973   5.406 -0.4054  0.4680  0.0790
 3596SOL    HW122007   4.394   1.020   5.320  0.9516  0.2270 -0.4083
 3596SOL    HW222008   4.335   0.926   5.440 -0.8106  0.1220 -1.3588
 3597SOL     OW22009   4.115   7.079   1.138 -0.1572 -0.0119  0.1544
 3597SOL    HW122010   4.072   7.157   1.093 -0.7961  0.4587  1.5625
 3597SOL    HW222011   4.123   7.096   1.236  2.4515 -0.4745  0.0583
 3598SOL     OW22012   9.871   6.254   5.653 -0.0085 -0.6703  0.1571
 3598SOL    HW122013   9.783   6.220   5.621 -0.6211  2.4586 -1.7409
 3598SOL    HW222014   9.860   6.347   5.688  2.2156 -0.9441  1.6679
 3599SOL     OW22015   0.416   7.932   2.120 -0.0814  0.3333  0.4315
 3599SOL    HW122016   0.444   7.960   2.029  0.5347 -1.8193 -0.0743
 3599SOL    HW222017   0.450   7.840   2.139 -0.5408  0.5886  2.6822
 3600SOL     OW22018   1.789   7.444   3.295  0.0481  0.4283 -0.5879
 3600SOL    HW122019   1.765   7.352   3.262  1.2275 -0.1811  0.2045
 3600SOL    HW222020   1.724   7.510   3.259 -1.1699 -0.8048 -0.6913
 3601SOL     OW22021   8.181   6.836   6.231  0.2337 -0.5739 -0.1369
 3601SOL    HW122022   8.185   6.924   6.278  0.0403 -0.4795 -0.2940
 3601SOL    HW222023   8.086   6.817   6.206  0.2110 -1.0326  0.2927
 3602SOL     OW22024   0.873   0.882   3.126  0.2118 -0.1801  0.6725
 3602SOL    HW122025   0.883   0.794   3.173  0.9079 -0.2914  0.3125
 3602SOL    HW222026   0.823   0.945   3.185  1.4497 -0.1897  1.7586
 3603SOL     OW22027   7.417   0.450   5.861  0.4301 -0.1325  1.0776
 3603SOL    HW122028   7.393   0.354   5.873  2.1023 -0.4588  1.9289
 3603SOL    HW222029   7.489   0.475   5.925  1.7809  1.0337 -0.8311
 3604SOL     OW22030   8.234   0.608   0.140  0.1889  0.1089  0.2378
 3604SOL    HW122031   8.297   0.555   0.082  0.7467  0.8522  0.1551
 3604SOL    HW222032   8.201   0.550   0.214 -1.7485 -1.3395 -1.6897
 3605SOL     OW22033   0.854   0.337   3.583  0.4237 -0.5900 -0.7710
 3605SOL    HW122034   0.950   0.311   3.584  0.6503  0.2597 -0.2571
 3605SOL    HW222035   0.798   0.257   3.604  1.0452 -0.9671 -0.5321
 3606SOL     OW22036   6.643   4.297   1.176  0.4873  0.1907  0.3529
 3606SOL    HW122037   6.713   4.345   1.229  0.4729  1.2999 -0.6242
 3606SOL    HW222038   6.645   4.327   1.081 -1.0024 -0.0999  0.2065
 3607SOL     OW22039   3.027   2.191   5.439 -0.2454  0.2484 -0.0706
 3607SOL    HW122040   2.934   2.209   5.405 -0.2272 -0.9764 -0.8061
 3607SOL    HW222041   3.039   2.092   5.451  0.5911  0.4851  1.1252
 3608SOL     OW22042   5.897   1.875   5.941  0.0541  0.1518 -0.1103
 3608SOL    HW122043   5.903   1.784   5.982 -0.2462  0.4799  0.6752
 3608SOL    HW222044   5.961   1.881   5.865  1.0955 -0.2617  0.7140
 3609SOL     OW22045   2.850   7.844   6.348  0.1176  0.0656  0.3484
 3609SOL    HW122046   2.950   7.848   6.354  0.0523  0.7304  1.1201
 3609SOL    HW222047   2.811   7.913   6.408 -0.8462 -1.2595  1.2517
 3610SOL     OW22048   9.915   9.306   2.126  0.2130 -0.4656  0.0008
 3610SOL    HW122049   9.822   9.334   2.148  0.0917  0.2729 -1.4230
 3610SOL    HW222050   9.975   9.326   2.203 -0.0003  3.1173 -0.6996
 3611SOL     OW22051   5.206   0.848   3.945 -0.0908  0.2183  0.4714
 3611SOL    HW122052   5.247   0.774   3.892  1.2687  0.3978  1.2603
 3611SOL    HW222053   5.140   0.898   3.888  0.0450 -0.7016 -0.4922
 3612SOL     OW22054   7.211   2.147   2.683  0.3610 -0.1203  0.5471
 3612SOL    HW122055   7.300   2.187   2.706  1.1206 -0.2971 -1.8939
 3612SOL    HW222056   7.156   2.215   2.635  0.5512 -1.0551 -1.0530
 3613SOL     OW22057   8.109   3.534   4.228  0.1197  0.2232 -0.0693
 3613SOL    HW122058   8.125   3.613   4.169  2.6032 -0.2979 -0.1424
 3613SOL    HW222059   8.060   3.464   4.177  0.0934  0.7487 -0.7685
 3614SOL     OW22060   3.977   9.076   3.912 -0.0399  0.1040 -0.2079
 3614SOL    HW122061   3.947   9.149   3.974 -1.2601  0.3445 -1.0718
 3614SOL    HW222062   3.901   9.049   3.852  0.6610 -1.2532 -0.5075
 3615SOL     OW22063   8.336   0.568   6.048 -0.2014  0.1367  0.4871
 3615SOL    HW122064   8.317   0.639   6.116  0.3702  0.3694  0.4062
 3615SOL    HW222065   8.435   0.560   6.035 -0.2649 -0.6388  0.4534
 3616SOL     OW22066   9.369   4.131   3.457 -0.3027 -0.2993 -0.4671
 3616SOL    HW122067   9.388   4.174   3.369  2.3465  0.2680  0.3288
 3616SOL    HW222068   9.288   4.072   3.448 -2.3404  2.6408 -2.2582
 3617SOL     OW22069   1.424   8.194   0.463  0.4679 -0.5576  0.5425
 3617SOL    HW122070   1.373   8.263   0.411  0.2713  0.2628  1.7865
 3617SOL    HW222071   1.396   8.103   0.435 -1.4005 -0.1149  0.9143
 3618SOL     OW22072   2.084   7.902   0.131  0.2259 -0.1359 -0.5742
 3618SOL    HW122073   2.145   7.825   0.145 -0.1528 -0.1828  0.9167
 3618SOL    HW222074   2.048   7.900   0.038 -1.2921 -2.8692  0.0262
 3619SOL     OW22075   4.426   3.999   4.872 -0.7844 -0.1885 -0.3649
 3619SOL    HW122076   4.350   4.017   4.934  0.9331  1.4459  1.3499
 3619SOL    HW222077   4.507   3.972   4.924  0.8052  1.5973 -1.8127
 3620SOL     OW22078   8.328   6.318   3.452 -0.0032 -0.0259 -0.1422
 3620SOL    HW122079   8.376   6.234   3.478  0.2318 -0.3000 -1.4289
 3620SOL    HW222080   8.389   6.376   3.397  0.5831  1.9951  2.4889
 3621SOL     OW22081   1.958   7.998   1.024  0.1931 -0.7709 -0.2054
 3621SOL    HW122082   2.055   8.020   1.036 -0.3120  0.8482  1.0707
 3621SOL    HW222083   1.907   8.081   1.005 -0.8680 -1.7111 -1.6067
 3622SOL     OW22084   2.452   6.707   3.219  0.4987 -0.2085  0.1299
 3622SOL    HW122085   2.375   6.648   3.193  0.0020  0.3734  0.2700
 3622SOL    HW222086   2.426   6.802   3.205  1.9780 -0.0787 -1.9433
 3623SOL     OW22087   4.663   2.566   0.489 -0.6631 -0.0731  0.1598
 3623SOL    HW122088   4.621   2.527   0.571  1.1158 -3.5952 -0.5255
 3623SOL    HW222089   4.667   2.665   0.499  0.7625 -0.4609  4.9853
 3624SOL     OW22090   4.088   3.513   2.200  0.2503 -0.0978  0.4971
 3624SOL    HW122091   4.099   3.418   2.169 -1.1808  0.6007 -2.2897
 3624SOL    HW222092   4.010   3.519   2.262 -0.2341 -0.5794 -0.0604
 3625SOL     OW22093   9.867   4.003   5.617 -0.0630  0.1867 -0.3106
 3625SOL    HW122094   9.936   3.980   5.548  0.9573  0.9754  0.4253
 3625SOL    HW222095   9.797   3.931   5.620  0.3279 -0.2585 -1.5792
 3626SOL     OW22096   3.690   8.654   4.200  0.1912  0.0510 -0.1029
 3626SOL    HW122097   3.629   8.614   4.268 -0.2322  0.3741 -0.2896
 3626SOL    HW222098   3.654   8.742   4.170  0.6030  0.1156 -0.4257
 3627SOL     OW22099   4.633   3.192   3.434  0.0838  0.1629 -0.3679
 3627SOL    HW122100   4.728   3.175   3.458  0.0192 -0.8483 -0.8047
 3627SOL    HW222101   4.573   3.159   3.507  0.1308  2.2037  0.6029
 3628SOL     OW22102   6.979   8.700   3.966 -0.4038  0.0197 -0.2835
 3628SOL    HW122103   7.060   8.717   3.910 -0.5702  0.8109 -0.2987
 3628SOL    HW222104   6.897   8.717   3.912 -0.5891 -1.2406 -0.4059
 3629SOL     OW22105   4.045   1.316   2.747 -0.1641 -0.3788  0.3908
 3629SOL    HW122106   4.117   1.330   2.814  0.0040 -0.3567  0.2038
 3629SOL    HW222107   4.006   1.224   2.759 -0.9734  0.0696  1.3246
 3630SOL     OW22108   5.824   0.116   4.484 -0.2859  0.0177  0.2117
 3630SOL    HW122109   5.741   0.153   4.527  0.5508  0.7595  1.2074
 3630SOL    HW222110   5.904   0.167   4.517  0.7228 -1.6485  0.3921
 3631SOL     OW22111   9.415   7.002   1.673  0.6293  0.3951 -0.3952
 3631SOL    HW122112   9.372   6.921   1.713  1.8345 -0.8219 -1.5275
 3631SOL    HW222113   9.430   7.070   1.745 -1.6849  0.2121  0.3105
 3632SOL     OW22114   3.419   6.900   1.468 -0.5687  0.4097 -0.0455
 3632SOL    HW122115   3.386   6.984   1.425 -1.1219  0.4061  0.3558
 3632SOL    HW222116   3.434   6.916   1.566 -1.5700 -0.1977  0.2196
 3633SOL     OW22117   6.359   5.094   0.415  0.0486 -0.2873  1.0863
 3633SOL    HW122118   6.274   5.095   0.469 -0.0544 -0.3349  0.9274
 3633SOL    HW222119   6.438   5.095   0.476 -0.0674  0.7338  1.2278
 3634SOL     OW22120   8.467   1.923   4.968 -0.2615 -0.7021 -0.1526
 3634SOL    HW122121   8.425   1.870   4.894 -0.5316  2.0677 -2.0900
 3634SOL    HW222122   8.555   1.959   4.937 -1.3202  2.2077  0.0698
 3635SOL     OW22123   9.187   6.729   1.719  0.3395  0.1493  0.1833
 3635SOL    HW122124   9.189   6.826   1.745 -1.9659  0.3255 -0.1816
 3635SOL    HW222125   9.172   6.721   1.620  1.6090 -0.5874  0.0379
 3636SOL     OW22126   8.668   3.321   0.562  0.6381 -0.2945 -0.2587
 3636SOL    HW122127   8.568   3.320   0.565  0.5778  0.2631 -1.6665
 3636SOL    HW222128   8.704   3.365   0.644 -0.3884  2.4382 -1.2121
 3637SOL     OW22129   9.804   5.467   6.088  0.2994  0.4269  0.0979
 3637SOL    HW122130   9.706   5.480   6.076  0.3093  0.4809  0.0787
 3637SOL    HW222131   9.840   5.407   6.017  0.0852 -0.4992  0.7650
 3638SOL     OW22132   9.373   8.029   3.557 -0.4700  0.3601  0.3373
 3638SOL    HW122133   9.283   8.072   3.559 -1.4973 -1.6276 -0.7587
 3638SOL    HW222134   9.387   7.984   3.468  1.2638 -0.0625  0.7877
 3639SOL     OW22135   8.450   6.557   4.003 -0.6108  0.6641  0.3915
 3639SOL    HW122136   8.487   6.470   3.969  0.3570  0.3128  2.3067
 3639SOL    HW222137   8.353   6.562   3.979 -0.5875 -0.7681 -0.0916
 3640SOL     OW22138   7.926   4.938   5.533  0.2486  0.0584  0.0231
 3640SOL    HW122139   7.862   4.993   5.480 -0.6262 -2.3000 -1.4353
 3640SOL    HW222140   7.961   4.992   5.610  0.2597  2.9669 -1.9734
 3641SOL     OW22141   0.860   7.954   4.352  0.1395 -0.4064 -0.5648
 3641SOL    HW122142   0.924   8.013   4.305  2.1004 -0.4343  1.9962
 3641SOL    HW222143   0.767   7.987   4.337  1.0598  2.2009 -0.7166
 3642SOL     OW22144   0.194   2.258   5.995  0.5838  0.3377  0.2384
 3642SOL    HW122145   0.191   2.205   6.079 -0.6382  0.8344  0.5261
 3642SOL    HW222146   0.179   2.198   5.916  0.2169  0.0978  0.4902
 3643SOL     OW22147   7.812   1.290   3.145  0.3096  0.3389 -0.1490
 3643SOL    HW122148   7.723   1.336   3.140 -0.2826 -0.8877 -0.9346
 3643SOL    HW222149   7.818   1.241   3.232 -0.7573 -1.5507 -1.1255
 3644SOL     OW22150   0.899   2.179   5.298 -0.3633  0.3623  0.5895
 3644SOL    HW122151   0.884   2.198   5.395 -2.5735  0.3140  0.2757
 3644SOL    HW222152   0.876   2.261   5.245 -1.8857 -0.4881 -0.0960
 3645SOL     OW22153   7.922   7.835   2.387 -0.0074 -0.6063  0.4259
 3645SOL    HW122154   7.994   7.778   2.426 -0.8180 -1.4510  0.6994
 3645SOL    HW222155   7.857   7.778   2.337 -1.9082 -0.1792  2.3379
 3646SOL     OW22156   2.629   2.718   2.229  0.0343 -0.4561  0.1101
 3646SOL    HW122157   2.636   2.777   2.149 -1.5884 -0.6996 -0.2276
 3646SOL    HW222158   2.540   2.729   2.272  0.3668 -1.3627  1.0707
 3647SOL     OW22159   3.992   2.488   5.618 -0.3389 -0.3219 -0.1807
 3647SOL    HW122160   4.025   2.504   5.712 -2.0649  1.7447  0.1141
 3647SOL    HW222161   4.026   2.561   5.559 -0.2614 -0.9582 -0.9217
 3648SOL     OW22162   3.089   9.344   3.535  0.0346  0.2217  0.3911
 3648SOL    HW122163   3.087   9.267   3.472 -0.0496 -1.8607  2.8644
 3648SOL    HW222164   2.999   9.387   3.538 -0.0682  0.0878 -0.5668
 3649SOL     OW22165   3.369   4.201   5.228 -0.0641  0.0768 -0.2343
 3649SOL    HW122166   3.448   4.154   5.190  0.0229  0.1220 -0.1096
 3649SOL    HW222167   3.355   4.288   5.182 -1.1852 -0.7871 -1.5801
 3650SOL     OW22168   2.038   2.162   1.233  0.2432 -0.7665 -0.5686
 3650SOL    HW122169   1.964   2.098   1.254 -0.6402  0.4757  0.1457
 3650SOL    HW222170   2.108   2.115   1.180 -0.6139 -2.2064 -0.4516
 3651SOL     OW22171   7.420   7.596   5.896 -0.2089  0.1382 -0.0162
 3651SOL    HW122172   7.432   7.553   5.985  0.7288 -1.0725 -0.7098
 3651SOL    HW222173   7.333   7.565   5.856  0.2696 -0.8001 -0.3353
 3652SOL     OW22174   5.362   0.479   4.884 -0.6245 -0.1835 -0.1608
 3652SOL    HW122175   5.346   0.385   4.914 -0.0384 -0.1747  0.1729
 3652SOL    HW222176   5.275   0.519   4.854 -1.1694 -0.2965  1.2152
 3653SOL     OW22177   4.548   2.051   3.756  0.4124 -0.1723  0.0841
 3653SOL    HW122178   4.530   1.979   3.822  1.8216 -2.4116 -1.9053
 3653SOL    HW222179   4.634   2.097   3.779 -0.1908  0.5126  1.0160
 3654SOL     OW22180   4.450   5.141   0.384 -0.0922  0.1455  0.0862
 3654SOL    HW122181   4.485   5.151   0.477  0.2168  1.1115 -0.1353
 3654SOL    HW222182   4.359   5.099   0.388 -0.0378  0.0807  0.8095
 3655SOL     OW22183   7.736   1.215   1.765  0.8732  0.3280 -0.1425
 3655SOL    HW122184   7.636   1.216   1.759  0.7261  0.3867  1.8696
 3655SOL    HW222185   7.773   1.149   1.700 -0.4616  0.4060 -0.9998
 3656SOL     OW22186   6.288   5.137   1.045 -0.3445  0.2025 -0.4104
 3656SOL    HW122187   6.332   5.091   1.122  0.2003  0.5078 -0.5298
 3656SOL    HW222188   6.236   5.216   1.078 -0.1655  0.2947 -0.3477
 3657SOL     OW22189   4.278   0.578   1.239 -0.2297  0.8312  0.2604
 3657SOL    HW122190   4.257   0.593   1.143  0.8321  1.2520  0.0884
 3657SOL    HW222191   4.220   0.504   1.275 -2.0847  2.0673 -0.1382
 3658SOL     OW22192   5.413   0.856   1.550  0.4424  0.1059  0.5938
 3658SOL    HW122193   5.512   0.865   1.542  0.3061 -0.4242 -2.2491
 3658SOL    HW222194   5.371   0.946   1.547  0.7392  0.2261 -0.0434
 3659SOL     OW22195   3.970   7.471   2.813 -0.5601 -0.2871  0.6220
 3659SOL    HW122196   3.999   7.419   2.894  1.0250 -1.2531 -0.5415
 3659SOL    HW222197   3.898   7.420   2.766  0.3500 -1.0062 -0.0100
 3660SOL     OW22198   8.879   7.097   5.617  0.1536  0.1401  0.2922
 3660SOL    HW122199   8.976   7.100   5.643  0.5768  0.4357 -1.2408
 3660SOL    HW222200   8.831   7.173   5.661  0.8367  0.5905  0.2826
 3661SOL     OW22201   0.430   5.239   2.857  0.1127 -0.2426  0.0573
 3661SOL    HW122202   0.471   5.317   2.809 -2.4276  1.3197  0.3419
 3661SOL    HW222203   0.397   5.173   2.790 -0.4712  0.3858 -0.2889
 3662SOL     OW22204   8.774   4.809   5.164 -0.2872 -0.4041  0.3214
 3662SOL    HW122205   8.825   4.739   5.113 -0.4327  1.4334 -2.4419
 3662SOL    HW222206   8.832   4.889   5.178 -0.9043 -0.1213  1.2893
 3663SOL     OW22207   0.361   5.539   4.740 -0.5943 -0.3276  0.0317
 3663SOL    HW122208   0.314   5.453   4.721  0.2413 -0.6751 -0.4920
 3663SOL    HW222209   0.459   5.522   4.748 -0.5237  0.4332  0.8351
 3664SOL     OW22210   0.310   7.019   2.508 -0.1163  0.3029 -0.1346
 3664SOL    HW122211   0.347   7.083   2.575  2.6810 -1.0539 -0.3124
 3664SOL    HW222212   0.220   6.987   2.538  1.1068 -0.3162  3.0025
 3665SOL     OW22213   0.378   6.570   5.462  0.4094  0.3816 -0.3200
 3665SOL    HW122214   0.349   6.627   5.385 -0.0920  0.3090 -0.1885
 3665SOL    HW222215   0.299   6.552   5.521 -0.0022 -2.5214 -1.6955
 3666SOL     OW22216   9.242   0.549   2.772  0.3502  0.7324  0.3808
 3666SOL    HW122217   9.232   0.483   2.846  1.1205  0.3919  0.1879
 3666SOL    HW222218   9.192   0.517   2.692  0.3536  0.6016  0.4303
 3667SOL     OW22219   1.576   1.654   3.607 -0.1396 -0.2673  0.5181
 3667SOL    HW122220   1.566   1.729   3.542  1.5329  0.6547  1.2968
 3667SOL    HW222221   1.590   1.568   3.558 -0.3410  0.1988 -0.3553
 3668SOL     OW22222   4.477   6.476   2.844 -0.2826  0.1416 -0.1250
 3668SOL    HW122223   4.569   6.463   2.880 -0.2388  0.5041 -0.0986
 3668SOL    HW222224   4.482   6.494   2.746 -0.1431  2.2950  0.2385
 3669SOL     OW22225   9.358   8.475   1.877  0.0591  0.8757  0.2173
 3669SOL    HW122226   9.299   8.511   1.949 -1.7160  1.7243 -1.6127
 3669SOL    HW222227   9.302   8.433   1.805  1.6089  2.3693 -1.9336
 3670SOL     OW22228   2.689   6.565   5.082 -0.0221 -0.0044 -0.0125
 3670SOL    HW122229   2.678   6.486   5.142 -0.3396 -0.4931 -0.6954
 3670SOL    HW222230   2.599   6.600   5.057  0.0519 -0.7527 -1.4086
 3671SOL     OW22231   6.962   9.821   3.462 -0.1699 -0.1735 -0.0671
 3671SOL    HW122232   6.909   9.905   3.477  0.3660 -0.4954  4.5377
 3671SOL    HW222233   7.056   9.845   3.440 -0.1869  0.4725  0.5254
 3672SOL     OW22234   7.730   4.388   2.024 -0.3706 -0.1910  0.1452
 3672SOL    HW122235   7.721   4.311   1.961 -0.0960 -0.2885  0.2247
 3672SOL    HW222236   7.776   4.357   2.107 -3.3040 -0.7739  1.6139
 3673SOL     OW22237   4.739   7.151   1.222 -0.1381 -0.3971 -0.3430
 3673SOL    HW122238   4.659   7.196   1.181 -0.6038 -1.3882 -0.5209
 3673SOL    HW222239   4.784   7.095   1.153  0.7096  0.1423 -0.2367
 3674SOL     OW22240   1.787   6.037   2.292 -0.2696 -0.2047  0.4823
 3674SOL    HW122241   1.839   5.955   2.316  0.4769  0.4417  1.0777
 3674SOL    HW222242   1.848   6.104   2.249 -0.5100  0.7245  1.5722
 3675SOL     OW22243   6.316   1.784   0.871 -0.1656 -0.0852  0.3366
 3675SOL    HW122244   6.408   1.781   0.834 -0.6223 -1.9904 -0.7271
 3675SOL    HW222245   6.307   1.719   0.946 -1.0726 -1.1049 -0.6345
 3676SOL     OW22246   9.714   2.589   6.380 -0.0784 -0.7532 -0.1876
 3676SOL    HW122247   9.704   2.682   6.413 -0.4416 -1.0383  0.5115
 3676SOL    HW222248   9.664   2.526   6.440  0.3253 -1.4188 -0.5365
 3677SOL     OW22249   1.301   3.489   1.388  0.2638 -0.1593 -0.3804
 3677SOL    HW122250   1.340   3.522   1.302  0.3852  1.0747  0.1203
 3677SOL    HW222251   1.244   3.561   1.428 -2.2502 -1.8170 -0.9068
 3678SOL     OW22252   4.101   0.502   5.233 -0.0659 -0.4473  0.2369
 3678SOL    HW122253   4.003   0.487   5.223  0.0136 -0.6914 -0.1833
 3678SOL    HW222254   4.128   0.584   5.182  0.5291 -2.3156 -2.5643
 3679SOL     OW22255   4.181   1.864   3.390 -0.0654 -0.6913 -0.3362
 3679SOL    HW122256   4.274   1.896   3.405  0.1624 -2.1421  1.5016
 3679SOL    HW222257   4.145   1.824   3.475 -2.2147 -0.5134 -1.1279
 3680SOL     OW22258   3.403   3.277   7.908  0.0238  0.5131 -0.1618
 3680SOL    HW122259   3.363   3.345   7.969 -1.6087 -1.1782  0.7028
 3680SOL    HW222260   3.333   3.213   7.878  1.4615 -0.6199 -1.1897
 3681SOL     OW22261   9.841   7.362   2.204 -0.7134  0.1630 -0.3221
 3681SOL    HW122262   9.822   7.269   2.172  0.1725  0.2286 -1.0368
 3681SOL    HW222263   9.786   7.428   2.152  1.1579  0.3228 -2.1330
 3682SOL     OW22264   9.816   1.805   0.517 -0.4828  0.1513  0.2881
 3682SOL    HW122265   9.796   1.839   0.425 -1.2400 -2.6284 -0.6044
 3682SOL    HW222266   9.744   1.833   0.580 -0.9123  0.4988 -0.3584
 3683SOL     OW22267   2.065   7.883   6.690 -0.5651 -0.6002 -0.1811
 3683SOL    HW122268   2.081   7.979   6.671 -3.0988 -0.2344 -0.5955
 3683SOL    HW222269   2.109   7.858   6.776 -1.1517  1.3165  0.7055
 3684SOL     OW22270   7.390   1.158   0.498  0.1532  0.1903  0.2788
 3684SOL    HW122271   7.448   1.185   0.420 -0.2318  0.9402  0.2438
 3684SOL    HW222272   7.378   1.059   0.498  0.1063  0.1883 -0.6620
 3685SOL     OW22273   5.445   9.326   3.156 -0.4743 -0.6875 -0.3761
 3685SOL    HW122274   5.410   9.419   3.150  1.5838  0.1382  0.2151
 3685SOL    HW222275   5.539   9.327   3.190 -1.0396 -3.1004  1.4347
 3686SOL     OW22276   8.445   9.173   6.538  0.4001  0.1742 -0.3508
 3686SOL    HW122277   8.360   9.192   6.588  0.3457 -1.2805  0.1577
 3686SOL    HW222278   8.519   9.158   6.604  0.2089 -2.3267 -0.6499
 3687SOL     OW22279   7.642   8.081   3.042  0.1586  0.1835 -0.5445
 3687SOL    HW122280   7.722   8.044   2.995  2.0387  3.8801 -0.4284
 3687SOL    HW222281   7.579   8.121   2.975  0.5132  1.1368 -0.3169
 3688SOL     OW22282   3.874   3.920   5.734  0.2186  0.0634  0.3648
 3688SOL    HW122283   3.777   3.932   5.754 -0.7883 -3.7652 -1.7266
 3688SOL    HW222284   3.897   3.968   5.650  0.7644  2.9685  2.1118
 3689SOL     OW22285   7.740   1.491   0.891 -0.5373  0.0443 -0.2522
 3689SOL    HW122286   7.759   1.519   0.985 -0.1664  0.4479 -0.4490
 3689SOL    HW222287   7.723   1.572   0.834 -0.3771 -0.1788 -0.6194
 3690SOL     OW22288   2.718   6.017   1.927 -0.8953  0.3732  0.2707
 3690SOL    HW122289   2.813   6.045   1.943 -1.6864  3.2525  0.3355
 3690SOL    HW222290   2.677   5.986   2.013 -0.3644  0.2929  0.4934
 3691SOL     OW22291   0.843   4.390   3.781 -0.0139 -0.1294 -0.3626
 3691SOL    HW122292   0.936   4.388   3.817  0.2030  0.1507 -0.8948
 3691SOL    HW222293   0.845   4.422   3.686 -0.6101 -0.5314 -0.5120
 3692SOL     OW22294   7.930   0.857   2.380 -0.5413  0.1751 -0.6021
 3692SOL    HW122295   7.846   0.907   2.356 -0.6186 -0.1231 -0.9698
 3692SOL    HW222296   8.010   0.913   2.356 -0.6310  0.8955  0.7017
 3693SOL     OW22297   9.450   4.502   4.960 -0.1385 -0.0399  0.1389
 3693SOL    HW122298   9.532   4.518   4.905 -1.0158  0.3019 -1.0935
 3693SOL    HW222299   9.369   4.535   4.911 -0.7616  2.0413  2.4519
 3694SOL     OW22300   7.617   2.020   3.940  0.1197  0.4441 -0.1423
 3694SOL    HW122301   7.579   2.081   3.871 -1.7548 -0.6128 -0.0866
 3694SOL    HW222302   7.619   2.066   4.028 -0.4996  0.7068 -0.2678
 3695SOL     OW22303   2.287   5.988   4.286  0.0844 -0.0693 -0.3645
 3695SOL    HW122304   2.287   6.028   4.378 -2.1733  0.1515 -0.4394
 3695SOL    HW222305   2.311   6.059   4.219  0.3866  0.0912 -0.0896
 3696SOL     OW22306   9.046   8.234   4.401 -0.2023  0.2738 -0.1173
 3696SOL    HW122307   9.016   8.197   4.488 -0.1414  1.4475  0.4121
 3696SOL    HW222308   9.117   8.304   4.416  0.3089 -0.0020 -1.1383
 3697SOL     OW22309   7.953   4.449   1.104  0.1578  0.0864  0.4216
 3697SOL    HW122310   8.038   4.408   1.134  0.2491 -0.9193 -1.1372
 3697SOL    HW222311   7.955   4.462   1.005 -0.1317  3.2772  0.7798
 3698SOL     OW22312   9.233   6.544   0.680 -0.0660 -0.2401 -0.7409
 3698SOL    HW122313   9.273   6.489   0.753 -0.5453  0.6025  0.1677
 3698SOL    HW222314   9.171   6.487   0.626  0.9956 -1.0977 -1.0751
 3699SOL     OW22315   9.218   1.964   3.948  0.5290 -0.1786  0.4075
 3699SOL    HW122316   9.162   2.046   3.939  0.5860 -0.2506 -0.6999
 3699SOL    HW222317   9.186   1.909   4.025  0.6917  1.0408  1.3498
 3700SOL     OW22318   7.374   1.860   3.699  0.0112  0.2676 -0.0527
 3700SOL    HW122319   7.341   1.879   3.607  2.0040  0.6223 -0.7274
 3700SOL    HW222320   7.431   1.937   3.730  0.4058 -0.4288  0.9534
 3701SOL     OW22321   0.015   5.909   3.693  0.0972 -0.5028  0.4325
 3701SOL    HW122322   0.039   5.833   3.754  0.1780  0.2406  1.3294
 3701SOL    HW222323  -0.055   5.965   3.736 -1.9582 -1.6118 -1.3906
 3702SOL     OW22324   1.252   4.501   0.186  0.9319 -0.0557 -0.4062
 3702SOL    HW122325   1.171   4.475   0.133  0.8702 -1.1863  0.2163
 3702SOL    HW222326   1.228   4.573   0.251  1.3153  2.3211 -2.7988
 3703SOL     OW22327   3.919   1.772   1.182 -0.2388 -0.2616 -0.0221
 3703SOL    HW122328   3.953   1.678   1.181 -0.3691 -0.3088 -0.1602
 3703SOL    HW222329   3.819   1.770   1.185 -0.2048 -0.1240  1.6619
 3704SOL     OW22330   0.261   0.429   4.281 -0.2223 -0.0580 -0.7273
 3704SOL    HW122331   0.199   0.382   4.218  0.7718 -2.5396  0.0935
 3704SOL    HW222332   0.337   0.468   4.231  0.0035 -1.0904 -1.1937
 3705SOL     OW22333   0.572   0.033   6.341 -0.4165 -0.2283  0.2145
 3705SOL    HW122334   0.562  -0.015   6.429  0.6789  0.7472  0.8821
 3705SOL    HW222335   0.491   0.091   6.326 -0.5555 -0.3061  0.6396
 3706SOL     OW22336   3.397   4.799   1.348  0.4616  0.2752  0.2063
 3706SOL    HW122337   3.355   4.828   1.434  1.6260  0.5965  0.6775
 3706SOL    HW222338   3.465   4.727   1.367  1.0009  0.6242 -0.3968
 3707SOL     OW22339   4.709   2.050   3.239 -0.5287  0.0106  0.2101
 3707SOL    HW122340   4.757   2.121   3.187 -0.3610  0.4956  1.0169
 3707SOL    HW222341   4.751   2.041   3.329  0.4892 -2.2516 -0.4631
 3708SOL     OW22342   0.780   6.779   4.332  0.5043 -0.4013  0.3585
 3708SOL    HW122343   0.863   6.736   4.367  1.3562  1.5130  0.7584
 3708SOL    HW222344   0.721   6.804   4.409  1.2715  1.6088  0.3154
 3709SOL     OW22345   5.416   0.539   5.162  0.0833  0.3229 -0.3010
 3709SOL    HW122346   5.417   0.444   5.194  2.7113  0.3937 -0.0302
 3709SOL    HW222347   5.420   0.541   5.062  0.2763  0.1508 -0.2958
 3710SOL     OW22348   5.075   4.355   1.071 -0.3006 -0.3054 -0.1248
 3710SOL    HW122349   5.095   4.274   1.126  0.3276 -0.4925 -0.6155
 3710SOL    HW222350   5.103   4.437   1.122  0.2959 -0.4796 -0.1610
 3711SOL     OW22351   5.241   6.793   2.106 -0.1723  0.1088  0.1501
 3711SOL    HW122352   5.179   6.825   2.178 -0.1028  0.4828  0.0470
 3711SOL    HW222353   5.251   6.865   2.037 -0.3665 -0.3108 -0.3137
 3712SOL     OW22354   4.179   2.030   1.072  0.0908  0.1593 -0.6547
 3712SOL    HW122355   4.101   2.071   1.027  1.3253  0.3503 -2.6735
 3712SOL    HW222356   4.152   1.996   1.162 -1.5993  2.8244 -0.1239
 3713SOL     OW22357   7.859   4.627   1.711  0.1036 -0.2582  0.3104
 3713SOL    HW122358   7.806   4.675   1.781  0.3292  0.6363 -0.1272
 3713SOL    HW222359   7.803   4.615   1.629  0.9646  1.8240 -0.6145
 3714SOL     OW22360   2.057   1.587   5.633  0.0883  0.3596 -0.1697
 3714SOL    HW122361   2.113   1.505   5.625  0.8094  0.6218  1.8318
 3714SOL    HW222362   2.115   1.668   5.625 -0.3703  0.6590 -0.4979
 3715SOL     OW22363   1.229   0.078   0.828 -0.5156  0.0316 -0.5083
 3715SOL    HW122364   1.193  -0.015   0.820 -2.0327  0.5134  0.4033
 3715SOL    HW222365   1.177   0.128   0.898  1.7389  0.8656  0.6340
 3716SOL     OW22366   5.244   7.485   2.909  0.2638 -0.3706 -0.6966
 3716SOL    HW122367   5.226   7.399   2.956 -0.0251  0.5859  0.9580
 3716SOL    HW222368   5.163   7.511   2.856 -1.2587  1.0630  2.2477
 3717SOL     OW22369   1.079   8.072   6.213  0.3383 -0.2849  0.3640
 3717SOL    HW122370   1.004   8.021   6.171  0.8928 -0.5938 -0.2533
 3717SOL    HW222371   1.137   8.009   6.265  1.7916 -0.5227 -1.5036
 3718SOL     OW22372   5.520   8.102   4.883  0.2846 -0.0015  0.0159
 3718SOL    HW122373   5.570   8.021   4.851 -2.5991 -1.7801 -0.1919
 3718SOL    HW222374   5.496   8.090   4.979 -0.8196  0.2387 -0.2224
 3719SOL     OW22375   8.904   5.697   4.635 -0.2526  0.5122 -0.1547
 3719SOL    HW122376   8.921   5.706   4.537  2.8734  0.0472  0.2989
 3719SOL    HW222377   8.890   5.788   4.675 -4.7463  0.5324 -1.4729
 3720SOL     OW22378   2.468   0.296   2.099 -0.3809 -0.0327  0.1653
 3720SOL    HW122379   2.399   0.227   2.075 -0.8569  0.0887  1.1592
 3720SOL    HW222380   2.494   0.285   2.195  0.0176  0.7690  0.1517
 3721SOL     OW22381   3.162   0.102   4.692  0.1694  0.4889  0.0406
 3721SOL    HW122382   3.102   0.165   4.741 -1.5297 -0.0669 -1.2833
 3721SOL    HW222383   3.122   0.080   4.603  2.2346 -0.0794 -0.7734
 3722SOL     OW22384   0.331   7.634   0.867  0.0012  0.0642 -0.2736
 3722SOL    HW122385   0.398   7.576   0.821  1.0024 -0.6871  2.0361
 3722SOL    HW222386   0.303   7.591   0.953 -2.1596  1.1921 -0.3680
 3723SOL     OW22387   7.788   0.484   3.548  0.4083 -0.0508  0.5777
 3723SOL    HW122388   7.725   0.407   3.545  0.1374  0.1586  0.9464
 3723SOL    HW222389   7.882   0.450   3.559  0.1219 -0.2529  2.5506
 3724SOL     OW22390   7.526   6.245   0.531 -0.2242 -0.3120  0.4842
 3724SOL    HW122391   7.558   6.305   0.604  1.0306  0.5671 -0.7659
 3724SOL    HW222392   7.579   6.160   0.532  1.2923  0.5813 -0.7206
 3725SOL     OW22393   3.249   1.368   4.261  0.0221  0.4372  0.6118
 3725SOL    HW122394   3.275   1.274   4.280  3.3031  1.6650  2.6892
 3725SOL    HW222395   3.227   1.378   4.163  0.7676 -2.2040  0.1436
 3726SOL     OW22396   4.886   0.726   4.604  0.5198  0.0335 -0.1381
 3726SOL    HW122397   4.915   0.821   4.593 -1.8724  0.7191 -0.9723
 3726SOL    HW222398   4.910   0.673   4.523  0.5118  0.2906 -0.3082
 3727SOL     OW22399   4.952   1.881   6.204 -0.6677  0.6650  0.0730
 3727SOL    HW122400   4.878   1.942   6.235 -1.9968 -0.5564 -0.6315
 3727SOL    HW222401   4.958   1.883   6.105 -2.6055 -2.3893 -0.1992
 3728SOL     OW22402   3.370   2.985   2.749  0.1128 -0.0391 -0.6317
 3728SOL    HW122403   3.292   3.046   2.735  0.5965  0.1749 -2.5064
 3728SOL    HW222404   3.432   2.991   2.671  1.5802 -0.8608  0.4401
 3729SOL     OW22405   0.747   8.155   2.016 -0.1496 -0.4944 -0.0867
 3729SOL    HW122406   0.822   8.094   1.992 -0.7274 -0.8471 -1.0282
 3729SOL    HW222407   0.772   8.249   1.993  1.6667 -0.0363  3.5261
 3730SOL     OW22408   7.566   3.155   0.812  0.0285  0.2513 -0.6629
 3730SOL    HW122409   7.610   3.203   0.736  1.3006 -1.1570 -0.8271
 3730SOL    HW222410   7.618   3.170   0.896 -0.6301  0.7069 -0.3313
 3731SOL     OW22411   5.350   7.716   4.803  0.0905  0.3448  0.3527
 3731SOL    HW122412   5.428   7.694   4.744 -1.2115 -1.0192 -0.9018
 3731SOL    HW222413   5.370   7.688   4.897  0.6928 -1.0155 -0.1697
 3732SOL     OW22414   0.962   0.041   4.003  0.9636 -0.1659  0.4150
 3732SOL    HW122415   0.893   0.107   4.035  1.7156  0.5175  0.6491
 3732SOL    HW222416   1.053   0.075   4.026  1.3776 -1.0703  0.1076
 3733SOL     OW22417   3.433   1.607   5.264  0.1290  0.0762 -0.0244
 3733SOL    HW122418   3.482   1.528   5.300 -1.2444 -0.2083  1.2777
 3733SOL    HW222419   3.335   1.594   5.277 -0.0587  2.4734  1.2180
 3734SOL     OW22420   1.437   3.460   1.858  0.2420  0.0426  0.2664
 3734SOL    HW122421   1.525   3.500   1.882  0.2279  2.8588 -3.7606
 3734SOL    HW222422   1.444   3.413   1.770 -2.2521  0.3866 -0.1704
 3735SOL     OW22423   0.199   4.574   2.169  0.0804 -0.5854  0.2380
 3735SOL    HW122424   0.191   4.513   2.090 -0.0700  0.8791 -0.9019
 3735SOL    HW222425   0.111   4.616   2.188  1.0595  2.4783 -1.6390
 3736SOL     OW22426   7.549   2.587   1.809  0.5297 -0.1251  0.1134
 3736SOL    HW122427   7.635   2.625   1.774 -0.1708  1.1374 -0.2450
 3736SOL    HW222428   7.528   2.628   1.898 -0.3130  0.4424 -0.3486
 3737SOL     OW22429   0.703   1.291   4.751 -0.7669  0.1304  0.0221
 3737SOL    HW122430   0.777   1.331   4.697 -2.0013  0.4754 -1.4478
 3737SOL    HW222431   0.624   1.353   4.750 -1.9916 -1.4082 -0.6098
 3738SOL     OW22432   2.392   9.397   2.887  0.0066  0.5463 -0.7967
 3738SOL    HW122433   2.308   9.367   2.844  0.1010 -2.0617  0.7750
 3738SOL    HW222434   2.466   9.399   2.819 -0.7313  0.3216 -1.6042
 3739SOL     OW22435   1.539   3.109   0.545 -0.0744 -0.1977  0.9038
 3739SOL    HW122436   1.443   3.104   0.519 -0.1335 -0.6005  1.1997
 3739SOL    HW222437   1.549   3.084   0.641  0.6387 -2.7393  0.2115
 3740SOL     OW22438   8.197   6.450   3.910  0.6764  0.3041  0.2018
 3740SOL    HW122439   8.211   6.367   3.855  0.7884  0.3079  0.2250
 3740SOL    HW222440   8.111   6.442   3.961  0.2093  0.6032 -0.5290
 3741SOL     OW22441   4.059   4.779   2.336 -0.5641  0.3224  0.6587
 3741SOL    HW122442   4.001   4.698   2.323 -1.7689  0.9812  1.7390
 3741SOL    HW222443   4.008   4.860   2.308  0.1018  0.8479  0.9654
 3742SOL     OW22444   9.054   0.976   5.508 -0.6566  0.0783 -0.3084
 3742SOL    HW122445   9.106   0.936   5.432 -1.3461 -0.0543 -0.7137
 3742SOL    HW222446   9.091   0.943   5.595  1.0600  1.3253 -0.5300
 3743SOL     OW22447   1.792   3.227   0.531 -0.7152 -0.3301  0.7316
 3743SOL    HW122448   1.695   3.213   0.550 -0.9430 -0.0685 -0.1898
 3743SOL    HW222449   1.807   3.323   0.508 -0.0388 -0.1292  1.9997
 3744SOL     OW22450   4.337   4.386   3.996 -0.5534  0.0990 -0.0859
 3744SOL    HW122451   4.261   4.435   4.040  0.1237  2.3160 -1.3133
 3744SOL    HW222452   4.390   4.338   4.066 -1.0498  1.3962  1.2281
 3745SOL     OW22453   8.068   3.458   4.676  0.2893 -0.1385  0.6534
 3745SOL    HW122454   8.011   3.376   4.680  1.5687 -1.0996 -0.3994
 3745SOL    HW222455   8.034   3.519   4.604 -1.1492  0.6571  1.9709
 3746SOL     OW22456   2.611   9.123   3.209 -0.1982 -0.0762 -0.0558
 3746SOL    HW122457   2.526   9.170   3.183 -0.2591 -0.4727 -0.5910
 3746SOL    HW222458   2.617   9.119   3.308 -0.5088  0.4937 -0.0054
 3747SOL     OW22459   0.795   1.124   3.302 -0.0283 -0.2155  0.2733
 3747SOL    HW122460   0.830   1.078   3.384 -0.0765  0.4924  0.6907
 3747SOL    HW222461   0.735   1.199   3.328 -0.9104 -0.6612 -0.4274
 3748SOL     OW22462   4.458   6.736   3.407 -0.2977  0.4345  0.3169
 3748SOL    HW122463   4.527   6.726   3.336  1.5312 -1.2427  2.2518
 3748SOL    HW222464   4.400   6.655   3.409 -0.4357  0.5406  0.6659
 3749SOL     OW22465   6.347   0.434   1.854 -0.2684 -0.2610  0.3456
 3749SOL    HW122466   6.291   0.377   1.914 -0.9250  0.8257  0.7886
 3749SOL    HW222467   6.325   0.531   1.870  1.5648  0.1715  0.3485
 3750SOL     OW22468   7.601   1.574   6.129 -0.3290  0.0774 -0.1833
 3750SOL    HW122469   7.541   1.636   6.179  2.7698  1.9941  1.3037
 3750SOL    HW222470   7.629   1.499   6.189 -0.8703 -0.5802 -0.7424
 3751SOL     OW22471   5.413   9.707   3.906 -0.0292 -0.3556  0.4489
 3751SOL    HW122472   5.424   9.738   4.000 -0.9044 -0.7639  0.6893
 3751SOL    HW222473   5.415   9.607   3.904  0.4682 -0.3416 -0.0296
 3752SOL     OW22474   7.281   4.367   3.038  0.1849 -0.5215 -0.0236
 3752SOL    HW122475   7.232   4.359   3.125  0.9134 -0.2699  0.4170
 3752SOL    HW222476   7.287   4.277   2.994 -2.0806 -0.2756 -0.8634
 3753SOL     OW22477   9.962   1.377   1.621  0.3729  0.0096  0.0195
 3753SOL    HW122478   9.910   1.325   1.553  0.7486  0.5619 -0.6948
 3753SOL    HW222479   9.969   1.324   1.705  1.3367 -1.3780 -0.9285
 3754SOL     OW22480   8.880   1.844   6.132 -0.2852  0.1970  0.2562
 3754SOL    HW122481   8.786   1.843   6.098  0.9931 -0.7543 -3.4784
 3754SOL    HW222482   8.901   1.757   6.175  0.1463 -1.2493 -2.7586
 3755SOL     OW22483   5.809   3.989   0.511 -0.0154  0.0730 -0.0136
 3755SOL    HW122484   5.731   4.051   0.504 -0.6340 -0.6933  0.1509
 3755SOL    HW222485   5.791   3.906   0.458 -0.1561 -0.9759  1.6318
 3756SOL     OW22486   3.161   3.758   2.017  0.2908  0.2783  0.2146
 3756SOL    HW122487   3.190   3.824   2.086  0.6815  1.2335 -0.8496
 3756SOL    HW222488   3.125   3.806   1.937 -0.3562 -0.8196 -0.1705
 3757SOL     OW22489   0.411   1.961   1.054  0.3481  0.7036 -0.2972
 3757SOL    HW122490   0.316   1.941   1.029  0.4148  1.5931 -1.3103
 3757SOL    HW222491   0.460   1.876   1.072 -0.6754  0.2481  0.3753
 3758SOL     OW22492   1.852   6.387   1.312 -0.3982  0.2084 -0.8855
 3758SOL    HW122493   1.807   6.476   1.320  1.0619  0.9357 -0.7054
 3758SOL    HW222494   1.858   6.361   1.216 -0.1485  0.6494 -0.9869
 3759SOL     OW22495   1.670   2.126   5.542 -0.3713  0.3784 -0.0227
 3759SOL    HW122496   1.692   2.121   5.444  1.6440 -0.5800  0.4371
 3759SOL    HW222497   1.630   2.039   5.571 -1.9926  1.0520 -0.2140
 3760SOL     OW22498   1.692   3.812   5.928 -0.2940 -0.5274  0.2731
 3760SOL    HW122499   1.662   3.803   6.023  2.1372 -0.7999  1.0474
 3760SOL    HW222500   1.622   3.774   5.867 -0.9986 -2.1685  2.0586
 3761SOL     OW22501   1.575   4.748   4.457 -0.1772  0.0908 -0.0566
 3761SOL    HW122502   1.519   4.830   4.468  0.0097 -0.0521  2.2896
 3761SOL    HW222503   1.520   4.667   4.477 -0.6828 -0.4961 -3.4955
 3762SOL     OW22504   3.040   9.151   3.844  0.0124  0.1954 -0.2574
 3762SOL    HW122505   3.102   9.145   3.765  1.4132 -0.1322  0.8385
 3762SOL    HW222506   3.002   9.243   3.850  0.5816  0.4698 -0.8014
 3763SOL     OW22507   7.609   8.739   2.675  0.2891  0.1480 -0.1478
 3763SOL    HW122508   7.702   8.701   2.674  0.0305 -0.4728 -1.2289
 3763SOL    HW222509   7.561   8.712   2.592 -0.8659  0.4714  0.4021
 3764SOL     OW22510   3.074   6.199   1.117  0.0876 -0.2111  0.7995
 3764SOL    HW122511   3.089   6.118   1.061  1.6788  0.6868 -0.0959
 3764SOL    HW222512   3.125   6.192   1.202  3.0859  1.3729 -0.8049
 3765SOL     OW22513   3.657   8.516   1.495 -0.1669 -0.3695 -0.3199
 3765SOL    HW122514   3.692   8.438   1.442 -0.3968  0.2852 -1.4471
 3765SOL    HW222515   3.726   8.545   1.561 -0.7310 -2.6381  1.3477
 3766SOL     OW22516   8.461   7.892   2.036 -0.1039  0.2796  0.4288
 3766SOL    HW122517   8.441   7.979   1.992 -1.0473  0.0904  0.4837
 3766SOL    HW222518   8.506   7.908   2.124  0.0896  0.6919  0.2563
 3767SOL     OW22519   3.614   6.766   2.716  0.0585  0.2508 -0.4035
 3767SOL    HW122520   3.639   6.688   2.658 -1.5214 -0.2901 -0.3877
 3767SOL    HW222521   3.648   6.750   2.809 -0.9864 -0.8416 -0.1887
 3768SOL     OW22522   2.425   2.950   0.957  0.4295  0.0697 -0.8031
 3768SOL    HW122523   2.418   2.989   1.049  0.9945  0.6505 -1.0055
 3768SOL    HW222524   2.434   3.024   0.890  2.3153 -0.4309 -1.1257
 3769SOL     OW22525   0.494   1.718   0.398  0.0384 -0.3650  0.6261
 3769SOL    HW122526   0.467   1.645   0.335  2.0663  0.1701 -0.9246
 3769SOL    HW222527   0.545   1.678   0.475 -0.0223 -0.7295  0.4785
 3770SOL     OW22528   2.047   7.376   5.386  0.1581 -0.5214 -0.1677
 3770SOL    HW122529   1.995   7.352   5.303  0.4804 -0.7993 -0.2884
 3770SOL    HW222530   2.139   7.405   5.360 -0.0672  0.3738  0.0148
 3771SOL     OW22531   8.112   0.611   4.121 -0.7824 -0.4781 -0.2324
 3771SOL    HW122532   8.078   0.663   4.043 -1.5282  1.2322  1.1884
 3771SOL    HW222533   8.038   0.559   4.163 -1.7647  3.0699  2.7237
 3772SOL     OW22534   4.632   7.753   2.137  0.5085 -0.3618 -0.3026
 3772SOL    HW122535   4.647   7.756   2.236  0.8678  1.5874 -0.4067
 3772SOL    HW222536   4.694   7.817   2.092 -1.1116  0.3135 -1.6012
 3773SOL     OW22537   1.292   4.930   4.394 -0.9329 -0.2956  0.3902
 3773SOL    HW122538   1.268   4.851   4.450 -1.0755  0.1068  0.8995
 3773SOL    HW222539   1.240   4.927   4.309 -0.7442 -0.8895  0.2903
 3774SOL     OW22540   2.567   3.533   1.090  0.4528 -0.6187  0.0226
 3774SOL    HW122541   2.511   3.532   1.173 -1.7061  0.3216 -1.3582
 3774SOL    HW222542   2.530   3.467   1.025  0.0755  0.9961 -1.4347
 3775SOL     OW22543   8.061   9.264   3.527  0.1547 -0.1405  0.0328
 3775SOL    HW122544   8.042   9.166   3.523  1.3148 -0.4485  1.7880
 3775SOL    HW222545   8.098   9.294   3.439 -1.7212 -0.9338 -1.0580
 3776SOL     OW22546   7.209   8.129   6.464  0.0265 -0.3423  0.6287
 3776SOL    HW122547   7.271   8.136   6.386 -0.2194 -0.0028  0.4620
 3776SOL    HW222548   7.137   8.062   6.443 -0.5743  0.4304  0.1916
 3777SOL     OW22549   6.782   9.750   5.687 -0.0538  0.3894 -0.1552
 3777SOL    HW122550   6.763   9.668   5.741 -0.3317 -0.7983 -2.0125
 3777SOL    HW222551   6.784   9.726   5.590 -0.3983  2.6448 -0.7446
 3778SOL     OW22552   1.807   9.649   3.311  0.4484  0.6637 -0.0102
 3778SOL    HW122553   1.831   9.743   3.288 -0.0038  1.0741  1.2009
 3778SOL    HW222554   1.716   9.628   3.276  1.9367 -0.4913 -3.4750
 3779SOL     OW22555   3.878   7.253   4.043 -0.1795 -0.2576  0.0144
 3779SOL    HW122556   3.851   7.231   4.137 -0.4588 -0.9450 -0.2216
 3779SOL    HW222557   3.905   7.349   4.037 -0.6834 -0.0737  0.6796
 3780SOL     OW22558   8.244   1.616   1.134 -0.0187  0.4109 -0.3457
 3780SOL    HW122559   8.285   1.564   1.060  0.0733 -1.6032  1.0917
 3780SOL    HW222560   8.294   1.599   1.219 -1.0126  1.5455  0.4920
 3781SOL     OW22561   0.701   9.856   1.752  0.0724 -0.4786 -0.6430
 3781SOL    HW122562   0.789   9.874   1.708 -0.6844  1.0088 -1.6092
 3781SOL    HW222563   0.639   9.813   1.686 -1.2113  2.1562 -1.2290
 3782SOL     OW22564   9.131   9.901   6.012  0.1647  0.1331 -0.3832
 3782SOL    HW122565   9.159   9.954   5.932 -1.6344  1.3998 -0.2033
 3782SOL    HW222566   9.085   9.961   6.078  2.7368 -0.6184  2.2082
 3783SOL     OW22567   9.307   9.971   0.563  0.3960 -0.3826  0.2203
 3783SOL    HW122568   9.256   9.986   0.647 -0.4612 -0.6100 -0.2616
 3783SOL    HW222569   9.359   9.886   0.570  0.1167 -0.5354  0.4111
 3784SOL     OW22570   4.222   3.325   1.001  0.1451  0.4865 -0.1870
 3784SOL    HW122571   4.208   3.298   0.906 -0.4373 -2.0920  0.5866
 3784SOL    HW222572   4.316   3.306   1.029 -0.0871 -0.1387  0.1784
 3785SOL     OW22573   6.398   1.536   2.746 -0.4423 -0.5099 -0.0955
 3785SOL    HW122574   6.331   1.464   2.729 -0.2338 -0.7100 -0.0727
 3785SOL    HW222575   6.489   1.505   2.718 -0.2042 -0.5844  0.7465
 3786SOL     OW22576   1.681   2.131   1.888 -0.7257  0.0641  0.4753
 3786SOL    HW122577   1.779   2.114   1.875 -0.4592  2.5029 -1.1462
 3786SOL    HW222578   1.668   2.191   1.967 -0.6624  1.9455 -0.9180
 3787SOL     OW22579   8.441   0.036   4.416  0.0217 -0.1858 -0.2979
 3787SOL    HW122580   8.508  -0.030   4.452 -0.5436 -0.5193  0.1705
 3787SOL    HW222581   8.358  -0.013   4.390  0.0419  0.1976 -1.0813
 3788SOL     OW22582   9.952   3.140   3.694  0.0317  0.2287 -0.1791
 3788SOL    HW122583  10.009   3.110   3.617  0.7862  0.9559  0.1019
 3788SOL    HW222584   9.975   3.234   3.719  3.0626 -1.4493  3.9127
 3789SOL     OW22585   1.658   2.890   3.455 -0.7012  0.8618  0.2017
 3789SOL    HW122586   1.677   2.802   3.498  2.0200  0.6558 -1.3135
 3789SOL    HW222587   1.601   2.876   3.374  2.0834  0.0856 -1.6949
 3790SOL     OW22588   7.874   1.971   3.972 -0.2286  0.1569  0.2700
 3790SOL    HW122589   7.917   1.974   4.062 -2.2066 -0.2074  1.2332
 3790SOL    HW222590   7.779   2.000   3.979 -1.0247 -1.9652 -1.3430
 3791SOL     OW22591   7.969   5.680   0.877  0.0519 -0.0922 -0.3068
 3791SOL    HW122592   7.959   5.602   0.938 -0.9608  0.3920  0.1628
 3791SOL    HW222593   7.905   5.752   0.904  0.5822  0.6854 -1.0730
 3792SOL     OW22594   0.029   7.101   1.325 -0.1420 -0.0735 -0.3140
 3792SOL    HW122595   0.117   7.059   1.345 -0.2450  0.3935  1.1450
 3792SOL    HW222596  -0.043   7.055   1.377 -0.6598  0.0279 -0.9332
 3793SOL     OW22597   7.291   3.237   0.919  0.9373  0.0470  0.2742
 3793SOL    HW122598   7.214   3.284   0.877  0.6919  0.3956  1.0963
 3793SOL    HW222599   7.375   3.260   0.870  0.8304  1.4015  0.7037
 3794SOL     OW22600   9.131   3.035   2.362  0.0549  0.1347  0.0653
 3794SOL    HW122601   9.131   2.938   2.336  0.6011  0.3048 -0.5928
 3794SOL    HW222602   9.218   3.058   2.407  0.1763  0.4536 -0.3233
 3795SOL     OW22603   9.464   1.828   5.180  0.0012  0.3980  0.1167
 3795SOL    HW122604   9.365   1.820   5.192  0.3648 -1.2394  2.2142
 3795SOL    HW222605   9.492   1.779   5.098 -0.5122 -2.0775  1.3880
 3796SOL     OW22606   8.174   7.410   6.440 -0.5322 -0.0172 -0.5152
 3796SOL    HW122607   8.164   7.316   6.475 -1.2390  0.6478  1.1119
 3796SOL    HW222608   8.086   7.440   6.403 -0.6370  0.4784  0.1490
 3797SOL     OW22609   6.192   1.699   5.076 -0.4067  0.0687  0.1901
 3797SOL    HW122610   6.218   1.691   4.980 -0.5726  2.6146 -0.1106
 3797SOL    HW222611   6.265   1.746   5.127 -1.9595  2.2300  0.4816
 3798SOL     OW22612   4.986   2.304   4.658 -0.5154 -0.0441 -0.0260
 3798SOL    HW122613   4.893   2.267   4.652 -1.0352  1.2736 -0.2227
 3798SOL    HW222614   4.983   2.396   4.697  0.6216  0.3573 -0.8595
 3799SOL     OW22615   9.924   9.853   1.181 -0.0407  0.2218 -0.5768
 3799SOL    HW122616   9.879   9.847   1.270  1.2215 -0.8303  0.0043
 3799SOL    HW222617   9.855   9.872   1.111 -1.0731  0.9019  0.5893
 3800SOL     OW22618   1.312   5.800   1.221 -0.5549  0.4218  0.6146
 3800SOL    HW122619   1.380   5.735   1.255 -0.6717 -0.6061 -1.0777
 3800SOL    HW222620   1.307   5.794   1.121 -2.0856  1.5242  0.6110
 3801SOL     OW22621   9.507   1.802   4.609 -0.4053  0.2286  0.1402
 3801SOL    HW122622   9.533   1.898   4.624  0.6380  0.0497 -0.4387
 3801SOL    HW222623   9.480   1.790   4.514 -0.4193 -0.0750  0.1839
 3802SOL     OW22624   7.528   5.038   2.735  0.0082  0.3355 -0.2951
 3802SOL    HW122625   7.602   5.105   2.741  0.5671 -0.1809 -1.2250
 3802SOL    HW222626   7.472   5.057   2.655 -1.3873  1.2250  0.8632
 3803SOL     OW22627   2.927   2.847   5.631  0.1610 -0.0226  0.0168
 3803SOL    HW122628   2.939   2.763   5.684 -1.2421 -1.4034 -1.8180
 3803SOL    HW222629   2.873   2.828   5.550 -0.5920  2.7732 -0.1807
 3804SOL     OW22630   6.919   5.455   7.493  0.2080 -1.0132 -0.5091
 3804SOL    HW122631   6.867   5.477   7.576  1.4041 -5.2800  1.4990
 3804SOL    HW222632   6.857   5.449   7.415 -1.1434  1.5864  0.3150
 3805SOL     OW22633   3.773   0.393   6.157  0.3227  0.5288 -0.1913
 3805SOL    HW122634   3.780   0.318   6.223  2.3134 -0.0037 -0.9838
 3805SOL    HW222635   3.697   0.376   6.095 -0.2512 -0.0257  0.6543
 3806SOL     OW22636   2.160   3.096   4.825 -0.0960 -0.5711  0.3622
 3806SOL    HW122637   2.226   3.052   4.887 -0.7932 -0.0128  1.5160
 3806SOL    HW222638   2.166   3.054   4.735  1.0525 -1.2915  0.7626
 3807SOL     OW22639   3.030   9.607   3.095  0.5774  0.0887  0.3110
 3807SOL    HW122640   3.038   9.686   3.157  1.8123  0.7582 -0.6804
 3807SOL    HW222641   3.081   9.530   3.134 -0.0238  0.0004  0.9289
 3808SOL     OW22642   4.279   0.291   0.984  0.1548 -0.9097  0.2914
 3808SOL    HW122643   4.355   0.244   1.029  0.9727 -0.7624 -0.9043
 3808SOL    HW222644   4.314   0.346   0.907 -1.2382 -1.3966 -0.7195
 3809SOL     OW22645   3.165   7.337   1.142 -0.0091  0.1551  0.9806
 3809SOL    HW122646   3.084   7.288   1.109 -0.9872  1.2188  1.7539
 3809SOL    HW222647   3.207   7.387   1.066 -1.1692  1.1056  0.9598
 3810SOL     OW22648   9.886   3.099   0.527  0.0585  0.3607  0.0111
 3810SOL    HW122649   9.841   3.174   0.576  1.5199  0.1566  1.7252
 3810SOL    HW222650   9.853   3.011   0.562 -0.8122  0.1916 -1.2027
 3811SOL     OW22651   9.929   6.007   2.360 -0.0569 -0.7213 -0.7664
 3811SOL    HW122652   9.892   6.033   2.449 -1.6215 -1.6752 -1.1137
 3811SOL    HW222653   9.921   6.084   2.297  1.3582  0.0660 -0.0086
 3812SOL     OW22654   9.822   2.134   6.433 -0.0838  0.3200  0.3829
 3812SOL    HW122655   9.794   2.173   6.521  2.4205  1.2540  0.7999
 3812SOL    HW222656   9.857   2.041   6.447 -1.8625 -0.4150  0.0260
 3813SOL     OW22657   4.252   4.764   3.091 -0.3243  0.2768  0.4096
 3813SOL    HW122658   4.243   4.824   3.171  2.8635  0.4172  0.7114
 3813SOL    HW222659   4.261   4.819   3.009  0.6544  0.2045  0.4621
 3814SOL     OW22660   9.703   0.829   6.582  0.8238  0.5521 -0.4383
 3814SOL    HW122661   9.670   0.855   6.672  0.6712  0.4232 -0.4564
 3814SOL    HW222662   9.800   0.809   6.586  0.7045  0.0294 -0.1962
 3815SOL     OW22663   8.108   6.832   1.590 -0.5968  0.2967  0.5006
 3815SOL    HW122664   8.141   6.843   1.683 -0.2175  0.1555  0.3839
 3815SOL    HW222665   8.176   6.783   1.535 -0.3751  1.2523 -0.0988
 3816SOL     OW22666   4.782   0.404   5.773 -0.0986  0.3008  0.0453
 3816SOL    HW122667   4.753   0.500   5.771 -0.1473  0.2809 -0.2028
 3816SOL    HW222668   4.858   0.394   5.837  1.7058  0.9964 -1.9322
 3817SOL     OW22669   3.469   7.088   0.228 -0.2702  0.4204 -0.1644
 3817SOL    HW122670   3.475   7.119   0.322 -0.7208 -1.5466  0.5276
 3817SOL    HW222671   3.404   7.013   0.221  2.1625 -1.6292 -1.4362
 3818SOL     OW22672   6.508   5.958   0.905  0.1925 -0.3740  0.4270
 3818SOL    HW122673   6.429   5.983   0.961  0.2791 -3.0487  1.7943
 3818SOL    HW222674   6.477   5.907   0.825  0.5686 -2.1776  1.4075
 3819SOL     OW22675   0.514   4.557   4.355  0.1903  0.0701 -0.1277
 3819SOL    HW122676   0.606   4.585   4.326  0.2764  0.0502  0.1220
 3819SOL    HW222677   0.507   4.458   4.349 -0.2950  0.1785 -1.5373
 3820SOL     OW22678   0.872   0.088   4.744  0.1996 -0.9121 -0.3173
 3820SOL    HW122679   0.876   0.028   4.823 -0.7051 -0.4025  0.1283
 3820SOL    HW222680   0.944   0.158   4.752  0.8993 -1.6039 -0.5659
 3821SOL     OW22681   3.193   6.094   4.802  0.1225 -0.1012 -0.0530
 3821SOL    HW122682   3.099   6.096   4.838 -0.3069  0.0568 -1.1748
 3821SOL    HW222683   3.195   6.041   4.717  0.8016  0.9593 -0.7102
 3822SOL     OW22684   4.625   7.665   3.222  0.5941  0.0060 -0.4961
 3822SOL    HW122685   4.637   7.567   3.241 -0.5116  0.0640  0.5895
 3822SOL    HW222686   4.680   7.718   3.285 -0.2751  0.1167  0.1823
 3823SOL     OW22687   2.613   0.118   5.421 -0.5953  0.3601  0.3301
 3823SOL    HW122688   2.644   0.050   5.487 -1.6671  1.8898  2.4913
 3823SOL    HW222689   2.691   0.152   5.369  0.4668 -0.0258  1.6345
 3824SOL     OW22690   2.304   3.920   1.723 -0.0298  0.4571  0.6193
 3824SOL    HW122691   2.382   3.872   1.762  1.0477 -0.3897 -2.4244
 3824SOL    HW222692   2.255   3.969   1.795  2.2413 -0.4668  2.8518
 3825SOL     OW22693   4.689   7.445   4.230 -0.8887 -0.3560 -0.1788
 3825SOL    HW122694   4.603   7.462   4.276 -1.9440 -2.2590 -1.3936
 3825SOL    HW222695   4.691   7.352   4.195  1.4317 -0.1638 -0.6596
 3826SOL     OW22696   3.932   5.939   3.356 -0.1705  0.1203  0.2946
 3826SOL    HW122697   3.903   6.032   3.333 -0.5199  0.1101  0.6848
 3826SOL    HW222698   3.910   5.877   3.281  1.6145  0.6500 -0.7010
 3827SOL     OW22699   3.736   7.262   2.409 -0.0980 -0.3027  0.5349
 3827SOL    HW122700   3.784   7.186   2.365 -0.4825 -0.3525  0.1970
 3827SOL    HW222701   3.754   7.346   2.359 -1.2140 -0.5048 -0.2182
 3828SOL     OW22702   7.116   2.476   2.067  0.7805 -0.1499  0.4013
 3828SOL    HW122703   7.105   2.539   2.143  0.0415 -0.3922  0.4965
 3828SOL    HW222704   7.060   2.394   2.083  0.2311  0.0140 -0.6366
 3829SOL     OW22705   3.834   3.977   0.929  0.2380 -0.1699  0.1747
 3829SOL    HW122706   3.808   3.885   0.954  0.0304 -0.6195 -1.6067
 3829SOL    HW222707   3.851   3.981   0.830  2.1687  1.2199  0.5174
 3830SOL     OW22708   2.064   4.287   0.890 -0.6882 -0.3483  0.1678
 3830SOL    HW122709   2.030   4.193   0.898  0.7602 -1.0148 -1.2346
 3830SOL    HW222710   2.162   4.285   0.872 -0.6199  1.4528  0.2901
 3831SOL     OW22711   7.118   2.639   0.522  0.1426 -0.5279 -0.1702
 3831SOL    HW122712   7.164   2.593   0.446 -1.0538 -0.9652 -0.6434
 3831SOL    HW222713   7.166   2.617   0.607  1.9918  0.6606 -0.8904
 3832SOL     OW22714   7.715   8.777   2.172  0.3035  0.1523 -0.0690
 3832SOL    HW122715   7.680   8.703   2.116 -1.3760  0.7950  0.0848
 3832SOL    HW222716   7.758   8.740   2.254  0.7830 -0.6924 -0.6926
 3833SOL     OW22717   5.868   9.160   6.846  0.3519  0.0088 -0.1007
 3833SOL    HW122718   5.926   9.226   6.799  1.2124 -0.3596  0.4385
 3833SOL    HW222719   5.785   9.145   6.792  1.4446 -0.6120 -1.6831
 3834SOL     OW22720   8.885   4.946   6.071 -0.7390 -0.3174  0.0898
 3834SOL    HW122721   8.815   4.879   6.093 -2.4047  1.3002 -0.1104
 3834SOL    HW222722   8.961   4.901   6.024 -1.4764 -2.1578  0.6183
 3835SOL     OW22723   3.766   1.662   0.324 -0.4917  0.2129  0.7949
 3835SOL    HW122724   3.712   1.577   0.323 -0.2099  0.0377  0.3526
 3835SOL    HW222725   3.845   1.651   0.384  1.0518 -0.7896 -1.3409
 3836SOL     OW22726   1.538   0.621   4.226  0.5228  0.5100 -0.5523
 3836SOL    HW122727   1.614   0.596   4.285 -0.9111 -0.8246  0.7746
 3836SOL    HW222728   1.567   0.617   4.130  1.7899 -1.0801 -0.1123
 3837SOL     OW22729   0.439   1.066   4.064 -0.1182 -0.3221 -0.0178
 3837SOL    HW122730   0.510   1.137   4.063  0.6372 -1.0660 -0.1846
 3837SOL    HW222731   0.457   1.003   4.140 -1.7489  0.6158  1.1869
 3838SOL     OW22732   8.649   1.349   6.396 -0.2869 -0.2876 -0.2141
 3838SOL    HW122733   8.585   1.397   6.336 -1.7643 -0.2046  1.3642
 3838SOL    HW222734   8.674   1.409   6.472 -1.6512 -1.7275  1.4362
 3839SOL     OW22735   2.152   5.292   5.332 -0.0693 -0.3246  0.0653
 3839SOL    HW122736   2.103   5.364   5.380 -0.5329 -1.5638  1.4735
 3839SOL    HW222737   2.087   5.228   5.291  0.3296  0.3289 -1.6160
 3840SOL     OW22738   9.213   4.115   5.293  0.1099  0.6757  0.1019
 3840SOL    HW122739   9.232   4.113   5.195 -0.6626 -1.4450 -0.0332
 3840SOL    HW222740   9.120   4.147   5.308 -0.7727 -1.7098 -0.0611
 3841SOL     OW22741   3.375   1.503   3.299 -0.4806 -0.0378 -0.6697
 3841SOL    HW122742   3.389   1.407   3.323  1.2206 -0.2928 -2.5513
 3841SOL    HW222743   3.464   1.549   3.290 -1.1774  1.0733 -2.2224
 3842SOL     OW22744   8.766   9.505   2.567  0.0355 -0.1002  0.6475
 3842SOL    HW122745   8.721   9.458   2.644 -0.3400 -0.6030  0.1284
 3842SOL    HW222746   8.766   9.603   2.583 -0.8391 -0.1332  0.8769
 3843SOL     OW22747   4.538   4.662   4.365 -0.3792  0.0137  0.5868
 3843SOL    HW122748   4.565   4.717   4.444  0.0601  2.2788 -1.0605
 3843SOL    HW222749   4.577   4.702   4.282 -2.6916 -0.9424 -1.0368
 3844SOL     OW22750   2.961   1.036   3.658  0.0408 -0.3609  0.2390
 3844SOL    HW122751   3.032   0.974   3.690 -1.0527 -1.7573 -0.0008
 3844SOL    HW222752   3.002   1.108   3.601  1.2746 -1.0385  0.2653
 3845SOL     OW22753   2.587   5.930   1.730 -0.4174  0.5234  0.5592
 3845SOL    HW122754   2.606   5.993   1.655 -1.2431  1.5335  1.1940
 3845SOL    HW222755   2.639   5.958   1.811  1.2617 -1.1404  0.1153
 3846SOL     OW22756   7.760   5.152   0.530  0.0392 -0.1365  0.1248
 3846SOL    HW122757   7.794   5.187   0.618 -0.9960  1.8157 -0.2445
 3846SOL    HW222758   7.673   5.195   0.508 -0.1959 -1.3560 -1.3947
 3847SOL     OW22759   9.667   5.647   2.338 -0.1632 -0.4139  0.2904
 3847SOL    HW122760   9.735   5.669   2.268  1.8071  0.2383  2.3364
 3847SOL    HW222761   9.646   5.730   2.391 -0.4290 -1.2306  1.4774
 3848SOL     OW22762   3.400   2.616   2.005  0.4007  0.2806 -0.5486
 3848SOL    HW122763   3.484   2.667   2.027  0.7693 -0.6132  0.1193
 3848SOL    HW222764   3.423   2.520   1.988 -0.7226 -0.3683  1.4900
 3849SOL     OW22765   3.522   6.219   4.509  0.1276 -0.1489  0.2099
 3849SOL    HW122766   3.578   6.301   4.499 -0.7474  0.3524 -0.7129
 3849SOL    HW222767   3.425   6.244   4.504 -0.1379 -1.2829 -0.5506
 3850SOL     OW22768   7.446   4.034   6.304 -0.1646 -0.1415 -0.2816
 3850SOL    HW122769   7.363   4.030   6.248 -0.9929  2.6393  0.7120
 3850SOL    HW222770   7.423   4.012   6.399  0.2391  0.5536 -0.0205
 3851SOL     OW22771   6.882   7.764   3.198 -0.6578 -0.0467  0.0283
 3851SOL    HW122772   6.870   7.679   3.250 -1.7615  1.4853  2.4081
 3851SOL    HW222773   6.793   7.803   3.177 -0.1606  0.5308 -1.0338
 3852SOL     OW22774   6.423   4.506   1.299 -0.3085 -0.3401 -0.4394
 3852SOL    HW122775   6.484   4.477   1.225  0.2482  1.3092 -0.6466
 3852SOL    HW222776   6.386   4.425   1.345  3.0148 -1.4190  0.5103
 3853SOL     OW22777   8.940   3.331   2.512 -0.3953 -0.4242 -0.0862
 3853SOL    HW122778   8.892   3.341   2.600  0.0446 -0.4220  0.1535
 3853SOL    HW222779   8.946   3.234   2.488  0.4146 -0.5024  0.4072
 3854SOL     OW22780   0.701   6.610   6.356  0.0615 -0.3791 -0.2793
 3854SOL    HW122781   0.629   6.542   6.359 -1.4458  1.1723 -0.6233
 3854SOL    HW222782   0.786   6.570   6.391 -0.6039 -2.6174 -1.1418
 3855SOL     OW22783   1.474   3.408   2.625  0.1260 -0.0657 -0.0131
 3855SOL    HW122784   1.400   3.386   2.689  0.8508 -1.7883  0.2811
 3855SOL    HW222785   1.439   3.466   2.552 -0.6666  2.1562  2.0548
 3856SOL     OW22786   1.671   3.218   4.070  0.2012  0.1655 -0.0821
 3856SOL    HW122787   1.691   3.230   3.973 -2.3438 -0.6047 -0.7519
 3856SOL    HW222788   1.712   3.133   4.103 -2.3184 -1.7002 -1.5731
 3857SOL     OW22789   0.173   3.657   3.400 -0.0653 -0.0862  0.1148
 3857SOL    HW122790   0.073   3.657   3.403 -0.0260 -0.6481  2.8319
 3857SOL    HW222791   0.204   3.605   3.321 -1.9037  2.4834 -2.4244
 3858SOL     OW22792   9.273   6.127   5.207  0.5569 -0.6620 -0.2534
 3858SOL    HW122793   9.259   6.208   5.150 -0.6433 -0.4607  0.3228
 3858SOL    HW222794   9.283   6.047   5.148 -1.4894 -0.5793 -0.7413
 3859SOL     OW22795   9.734   6.799   1.199 -0.4877 -0.4985  0.2167
 3859SOL    HW122796   9.762   6.875   1.258  0.0191 -0.8152  0.3878
 3859SOL    HW222797   9.635   6.786   1.206 -0.6070  0.2622  0.0446
 3860SOL     OW22798   6.167   9.993   3.236  0.3129  0.0662 -0.1225
 3860SOL    HW122799   6.164   9.921   3.305  0.3062  0.9049  0.7722
 3860SOL    HW222800   6.249   9.982   3.180  1.4420  0.5909  1.3868
 3861SOL     OW22801   3.292   6.452   5.025  0.3297 -0.3540  0.2086
 3861SOL    HW122802   3.243   6.515   5.086 -1.5770 -1.8243  0.2320
 3861SOL    HW222803   3.338   6.505   4.954 -3.0205  0.9700 -1.0541
 3862SOL     OW22804   8.146   8.932   0.522  0.2632 -0.1402 -0.6575
 3862SOL    HW122805   8.107   8.869   0.455 -0.0872  0.1528 -0.7324
 3862SOL    HW222806   8.196   9.005   0.475  1.4997 -0.8968 -0.5386
 3863SOL     OW22807   1.664   3.931   4.249  0.0339  0.1648 -0.1367
 3863SOL    HW122808   1.709   3.923   4.337 -0.1087  0.7307 -0.0129
 3863SOL    HW222809   1.565   3.930   4.261  0.0125  0.0502 -0.3082
 3864SOL     OW22810   2.120   4.023   0.834 -0.0219 -0.6416  0.7739
 3864SOL    HW122811   2.165   3.936   0.853 -2.5583 -2.2521 -0.2687
 3864SOL    HW222812   2.021   4.010   0.832 -0.3967  1.9798 -0.8569
 3865SOL     OW22813   3.283   0.880   2.799  0.3415 -0.6289  0.2936
 3865SOL    HW122814   3.326   0.965   2.770 -0.8050 -0.7023 -1.7199
 3865SOL    HW222815   3.308   0.806   2.737 -1.7240 -0.9241 -0.2320
 3866SOL     OW22816   0.814   7.637   1.804 -0.2788  0.6625  0.2709
 3866SOL    HW122817   0.847   7.711   1.746  1.8497  0.4682  1.1680
 3866SOL    HW222818   0.815   7.551   1.752 -0.8868  0.9199 -0.1748
 3867SOL     OW22819   3.186   4.998   5.619  0.0193 -0.8087  0.4277
 3867SOL    HW122820   3.177   4.898   5.627 -0.3404 -0.8033  0.1523
 3867SOL    HW222821   3.101   5.041   5.650 -0.0136 -0.6157  0.0757
 3868SOL     OW22822   3.972   6.651   2.906  0.0674  0.4240  0.1093
 3868SOL    HW122823   4.017   6.618   2.823 -0.7255  1.5789 -0.7886
 3868SOL    HW222824   4.034   6.713   2.955  1.3585 -1.9193  1.5225
 3869SOL     OW22825   0.093   4.710   1.817  0.2244  0.0249 -0.0547
 3869SOL    HW122826   0.063   4.616   1.803 -0.1265  0.0645  0.4392
 3869SOL    HW222827   0.072   4.739   1.910  2.5085 -0.1935  0.5550
 3870SOL     OW22828   9.992   2.732   3.372  0.2784 -0.4385  0.0413
 3870SOL    HW122829   9.911   2.707   3.319  0.5628 -0.5340 -0.3570
 3870SOL    HW222830  10.008   2.831   3.365  0.2793 -0.4418 -0.0034
 3871SOL     OW22831   4.111   1.159   4.978  0.2135  0.2720  0.2689
 3871SOL    HW122832   4.053   1.182   5.056  1.3314  0.7625  0.9646
 3871SOL    HW222833   4.157   1.072   4.996  1.9328  1.3128  0.9926
 3872SOL     OW22834   6.764   1.719   5.459  0.0763 -0.1831 -0.2045
 3872SOL    HW122835   6.716   1.807   5.462  0.1023 -0.1420 -0.9191
 3872SOL    HW222836   6.788   1.691   5.552 -3.4655 -1.4081  0.4057
 3873SOL     OW22837   8.979   6.377   2.325 -0.4127 -0.7037 -0.0633
 3873SOL    HW122838   8.940   6.318   2.396 -1.5853 -0.3619 -0.4210
 3873SOL    HW222839   8.929   6.364   2.240 -0.0531  0.1045 -0.3951
 3874SOL     OW22840   0.306   0.855   5.334  0.5775  0.0052  0.0404
 3874SOL    HW122841   0.254   0.798   5.270  0.3004  0.3024 -0.0024
 3874SOL    HW222842   0.336   0.938   5.288 -1.8825  1.4664  0.9955
 3875SOL     OW22843   0.682   0.565   6.110 -0.4537  0.7147  0.0033
 3875SOL    HW122844   0.671   0.472   6.146  0.0337  0.3745 -0.7331
 3875SOL    HW222845   0.598   0.617   6.127  0.0976  0.8547  2.4990
 3876SOL     OW22846   8.423   0.222   3.386  0.0768 -0.2555  0.3104
 3876SOL    HW122847   8.496   0.290   3.388  0.5220 -0.6121 -2.0454
 3876SOL    HW222848   8.336   0.267   3.364  0.2956 -0.3554 -0.8145
 3877SOL     OW22849   9.812   5.964   2.003  0.0013  0.5929 -0.0808
 3877SOL    HW122850   9.903   6.001   1.989  0.7614 -1.2515 -0.2012
 3877SOL    HW222851   9.819   5.875   2.048 -1.7202  0.3618 -0.2387
 3878SOL     OW22852   3.889   1.965   1.599  0.0812  0.2656 -0.4964
 3878SOL    HW122853   3.967   1.903   1.604  0.7222  1.2198  1.7955
 3878SOL    HW222854   3.811   1.924   1.648  0.6885  1.4906  1.5416
 3879SOL     OW22855   0.009   5.646   5.673  0.2358 -0.5201 -0.0032
 3879SOL    HW122856  -0.035   5.619   5.587 -1.1636  1.6184  0.0142
 3879SOL    HW222857  -0.047   5.714   5.720  2.8014  1.1361  0.7941
 3880SOL     OW22858   7.565   2.765   1.249 -0.2565 -0.1385  0.8374
 3880SOL    HW122859   7.651   2.747   1.201 -0.8712  1.7108 -1.0384
 3880SOL    HW222860   7.488   2.747   1.188 -1.0852  1.3156  1.4201
 3881SOL     OW22861   3.847   4.342   2.476  0.0008  0.3439  0.2714
 3881SOL    HW122862   3.915   4.335   2.550 -4.2021 -2.7519  4.1102
 3881SOL    HW222863   3.879   4.289   2.397  3.4678  1.7130  0.6309
 3882SOL     OW22864   9.624   5.001   1.311  0.2086 -0.1294  0.3218
 3882SOL    HW122865   9.539   4.995   1.260  0.0733  1.2972  0.3515
 3882SOL    HW222866   9.699   5.022   1.249  0.6549 -1.9381  0.2122
 3883SOL     OW22867   2.271   9.545   4.081 -0.2030  0.1637  0.1198
 3883SOL    HW122868   2.341   9.617   4.075 -1.3264  1.4845  2.3936
 3883SOL    HW222869   2.273   9.504   4.171 -1.1312 -1.0888 -0.4251
 3884SOL     OW22870   1.831   9.621   4.686  0.3607  0.5014 -0.6701
 3884SOL    HW122871   1.735   9.647   4.697  0.3564 -0.3959  1.7075
 3884SOL    HW222872   1.839   9.553   4.613 -1.1936 -1.4422  0.9276
 3885SOL     OW22873   2.587   3.105   3.595  0.0520 -0.0595 -0.2933
 3885SOL    HW122874   2.607   3.197   3.561 -1.1041  0.2811 -0.0850
 3885SOL    HW222875   2.584   3.105   3.695  1.3722 -0.6132 -0.2501
 3886SOL     OW22876   1.402   6.203   4.761 -0.2907 -0.2909 -0.0021
 3886SOL    HW122877   1.440   6.217   4.670 -0.7538 -0.4185 -0.2136
 3886SOL    HW222878   1.426   6.281   4.819 -0.7164  0.1922 -0.4683
 3887SOL     OW22879   9.507   6.831   5.259  0.3905 -0.1390  0.4775
 3887SOL    HW122880   9.481   6.809   5.164 -1.1239  2.3068  0.2706
 3887SOL    HW222881   9.444   6.784   5.321 -0.7562  0.9256  0.1477
 3888SOL     OW22882   6.047   0.421   4.953  0.4106  0.1512  0.5873
 3888SOL    HW122883   6.061   0.511   4.995  0.0070  0.8643 -0.7830
 3888SOL    HW222884   6.131   0.368   4.959  1.8295  2.0291 -1.9443
 3889SOL     OW22885   1.852   6.406   1.729 -0.6377  0.4227 -0.8992
 3889SOL    HW122886   1.774   6.379   1.785  0.8718 -1.7980  0.1888
 3889SOL    HW222887   1.848   6.357   1.642  0.1041 -0.4786 -0.4243
 3890SOL     OW22888   9.592   9.574   4.173  0.7447 -0.2678  0.5528
 3890SOL    HW122889   9.500   9.537   4.180 -0.4294  2.0347 -1.8624
 3890SOL    HW222890   9.613   9.627   4.255 -0.6711  0.4932  0.4244
 3891SOL     OW22891   1.046   7.659   5.144 -0.8275 -0.1393  0.2626
 3891SOL    HW122892   0.998   7.616   5.067 -1.4511  0.3670  0.3587
 3891SOL    HW222893   1.030   7.606   5.227 -0.1695 -0.6760  0.0531
 3892SOL     OW22894   0.915   7.443   3.308  0.3790 -0.7144 -0.3951
 3892SOL    HW122895   1.010   7.463   3.333  0.8138 -2.3523 -0.6950
 3892SOL    HW222896   0.887   7.356   3.349 -0.9393 -0.3473 -0.4788
 3893SOL     OW22897   6.901   2.918   2.681  0.7751 -0.0739  0.2256
 3893SOL    HW122898   6.984   2.964   2.714  1.3468 -0.5970 -0.4858
 3893SOL    HW222899   6.859   2.973   2.609  1.7252 -0.8980 -0.9646
 3894SOL     OW22900   9.013   4.925   5.182 -1.0449 -0.3546  0.0945
 3894SOL    HW122901   9.073   4.844   5.176  0.4122  0.5612  1.6597
 3894SOL    HW222902   9.042   4.981   5.260 -2.2652  1.5104 -0.7744
 3895SOL     OW22903   8.320   6.350   1.781  0.7103 -0.2783 -0.2498
 3895SOL    HW122904   8.364   6.297   1.853  0.9175  1.1217  0.6697
 3895SOL    HW222905   8.390   6.397   1.727  0.6956 -2.8621 -2.6397
 3896SOL     OW22906   2.431   9.921   3.217 -0.1514  0.3523 -1.0529
 3896SOL    HW122907   2.522   9.914   3.176 -0.3999 -2.8823 -1.1672
 3896SOL    HW222908   2.362   9.915   3.145 -0.5105  0.9977 -0.7725
 3897SOL     OW22909   2.461   8.877   1.722  0.1099  0.2082  0.4368
 3897SOL    HW122910   2.491   8.785   1.695  0.7784  0.2697  0.9877
 3897SOL    HW222911   2.475   8.940   1.646  0.5710  0.0615  0.4003
 3898SOL     OW22912   4.914   2.643   5.593  0.4145  0.1519 -0.4105
 3898SOL    HW122913   5.011   2.624   5.607  0.3833  0.1681 -0.1545
 3898SOL    HW222914   4.868   2.645   5.682  0.2406  0.4730 -0.5075
 3899SOL     OW22915   5.146   0.509   2.240 -0.1387  0.3096 -0.7203
 3899SOL    HW122916   5.111   0.420   2.210  1.1365 -0.4391 -0.0435
 3899SOL    HW222917   5.146   0.512   2.340  1.7714  0.2529 -0.6974
 3900SOL     OW22918   0.679   4.349   4.512 -0.2498  0.3964 -0.0245
 3900SOL    HW122919   0.680   4.282   4.586 -0.4311 -0.8669 -1.1397
 3900SOL    HW222920   0.667   4.302   4.425  1.6602  1.6888 -1.0321
 3901SOL     OW22921   6.097   0.226   3.629  0.9259  0.1119 -0.4727
 3901SOL    HW122922   6.187   0.250   3.593  1.2247 -0.0435  0.1662
 3901SOL    HW222923   6.060   0.148   3.579  1.7348 -0.6841  0.1441
 3902SOL     OW22924   4.419   0.108   4.064  0.0745  0.2635 -0.2780
 3902SOL    HW122925   4.440   0.025   4.012  0.5785 -0.1609  0.5928
 3902SOL    HW222926   4.324   0.134   4.047  1.0691  1.9144 -3.8718
 3903SOL     OW22927   1.386   8.391   4.673  1.1015 -0.1363  0.0067
 3903SOL    HW122928   1.423   8.310   4.628  0.4180 -1.7696  2.3055
 3903SOL    HW222929   1.297   8.413   4.633  1.4699 -0.2658 -0.9048
 3904SOL     OW22930   0.496   5.018   5.639  0.8810  0.3535  0.7484
 3904SOL    HW122931   0.572   5.083   5.637  0.2373  1.1521  1.4928
 3904SOL    HW222932   0.518   4.939   5.582  2.2726  0.5601  0.9790
 3905SOL     OW22933   3.777   2.085   4.011 -0.3467  0.2246  0.5307
 3905SOL    HW122934   3.823   2.054   4.094 -0.3863  0.1870  0.5386
 3905SOL    HW222935   3.695   2.029   3.996  0.2905 -0.5420 -0.1648
 3906SOL     OW22936   0.280   2.593   2.331  0.0060 -0.0134 -0.5445
 3906SOL    HW122937   0.358   2.621   2.387  0.0193  1.3037 -1.1966
 3906SOL    HW222938   0.312   2.543   2.251  0.0597 -0.9509  0.0580
 3907SOL     OW22939   2.804   3.090   2.897 -0.3603 -0.4739 -0.5819
 3907SOL    HW122940   2.775   3.046   2.983 -0.6954 -0.5321 -0.7236
 3907SOL    HW222941   2.761   3.043   2.820 -1.3226  0.5726 -0.6989
 3908SOL     OW22942   1.531   8.017   6.414 -0.3314 -0.5597  0.0233
 3908SOL    HW122943   1.535   8.110   6.378 -0.4890 -0.0575  1.2963
 3908SOL    HW222944   1.614   7.998   6.467  0.1746 -1.5045 -1.0803
 3909SOL     OW22945   8.346   1.172   2.028  0.2073  0.4279  0.0686
 3909SOL    HW122946   8.401   1.167   2.112  1.1318  1.2351 -0.4939
 3909SOL    HW222947   8.279   1.245   2.037  0.7490  0.9547 -0.1608
 3910SOL     OW22948   1.563   6.828   1.947  0.1943  0.0359  0.2026
 3910SOL    HW122949   1.523   6.756   1.890  0.5280 -1.4693  1.8293
 3910SOL    HW222950   1.515   6.915   1.929 -0.7600 -0.7514 -1.1680
 3911SOL     OW22951   1.765   8.853   0.655 -0.5312 -0.9702  0.2858
 3911SOL    HW122952   1.791   8.772   0.707 -0.9626 -0.5425  1.1777
 3911SOL    HW222953   1.704   8.826   0.581 -0.0268 -1.5661  0.0777
 3912SOL     OW22954   9.072   9.073   3.006 -0.4507  0.8734  0.3069
 3912SOL    HW122955   9.050   8.980   3.035  0.0451  0.8687  0.6720
 3912SOL    HW222956   9.126   9.119   3.077 -1.4737  1.7536  0.5275
 3913SOL     OW22957   2.872   9.188   4.095 -0.1223  0.2345 -0.0255
 3913SOL    HW122958   2.948   9.211   4.157 -0.3005 -0.4345  0.4365
 3913SOL    HW222959   2.909   9.164   4.005  0.1957  0.2271  0.1063
 3914SOL     OW22960   6.853   5.011   0.750  0.0013  0.1525 -0.4395
 3914SOL    HW122961   6.833   4.960   0.833 -1.6199  2.4040  0.6334
 3914SOL    HW222962   6.907   5.092   0.772 -0.5828  0.8689 -1.5357
 3915SOL     OW22963   2.967   1.770   1.759  0.4974 -0.3406 -0.3042
 3915SOL    HW122964   3.032   1.822   1.814  0.7230 -2.4128  1.4479
 3915SOL    HW222965   3.006   1.681   1.736 -0.8798 -0.7659 -1.0733
 3916SOL     OW22966   0.089   5.854   4.421  0.5539  0.6497  0.1230
 3916SOL    HW122967   0.023   5.850   4.346  1.2016  0.0874 -0.4236
 3916SOL    HW222968   0.099   5.764   4.462  1.6383  0.5256 -0.3866
 3917SOL     OW22969   2.392   2.851   3.041 -0.7002 -0.8060 -0.4722
 3917SOL    HW122970   2.312   2.866   3.099  0.5795 -0.6497  1.3141
 3917SOL    HW222971   2.444   2.936   3.035  0.1349 -1.3062 -0.3439
 3918SOL     OW22972   2.142   2.057   4.996 -0.2830 -0.2742  0.4106
 3918SOL    HW122973   2.059   2.079   4.945  0.5860 -2.2806 -1.9464
 3918SOL    HW222974   2.214   2.122   4.972 -0.7654  0.6680  1.4669
 3919SOL     OW22975   8.850   8.937   4.502  0.4158  0.3774  0.4089
 3919SOL    HW122976   8.883   8.861   4.559 -1.7025  0.3849  1.6942
 3919SOL    HW222977   8.800   9.002   4.558  1.5158  2.3649 -0.8298
 3920SOL     OW22978   1.433   1.516   1.660 -0.6648  0.0591  0.5706
 3920SOL    HW122979   1.435   1.454   1.739 -0.0248 -1.6277 -0.7445
 3920SOL    HW222980   1.364   1.485   1.595 -1.1204  1.3917  0.4036
 3921SOL     OW22981   8.293   3.309   3.289 -0.1907  0.1275  0.4408
 3921SOL    HW122982   8.376   3.267   3.253 -1.6188 -1.8769 -0.6026
 3921SOL    HW222983   8.292   3.300   3.389 -0.0786 -1.5604  0.2930
 3922SOL     OW22984   1.065   8.431   5.239  0.0025  0.0978 -0.3634
 3922SOL    HW122985   1.002   8.353   5.240 -0.0546  0.1205 -1.8667
 3922SOL    HW222986   1.016   8.514   5.264 -0.2123 -0.1438  0.0231
 3923SOL     OW22987   4.616   2.787   4.071  0.4126 -0.1669 -0.0378
 3923SOL    HW122988   4.637   2.856   4.002  0.2620 -0.3178 -0.2366
 3923SOL    HW222989   4.685   2.715   4.069  0.4314 -0.1500 -0.0009
 3924SOL     OW22990   6.773   8.784   4.168  0.3373  0.1365 -0.0582
 3924SOL    HW122991   6.689   8.770   4.115  0.8085  0.1237 -0.8016
 3924SOL    HW222992   6.850   8.744   4.119  0.7820  0.1753  0.6160
 3925SOL     OW22993   7.438   3.443   2.457 -0.2359  0.2140 -0.6742
 3925SOL    HW122994   7.439   3.494   2.542 -1.6276 -2.6618  1.1240
 3925SOL    HW222995   7.348   3.450   2.414 -0.9322 -1.9533  0.3804
 3926SOL     OW22996   9.405   9.347   3.981 -0.1626 -0.1092 -0.3439
 3926SOL    HW122997   9.377   9.400   4.062  0.2764 -2.3456  1.3148
 3926SOL    HW222998   9.500   9.318   3.991  0.9882  2.3609 -3.2301
 3927SOL     OW22999   2.814   4.641   5.698 -0.3549 -0.1883  0.2040
 3927SOL    HW123000   2.843   4.549   5.672 -0.0262 -0.4513  1.4501
 3927SOL    HW223001   2.717   4.642   5.719 -0.0897 -0.5596  1.4924
 3928SOL     OW23002   0.059   2.765   1.861  0.4539 -0.1197  0.1789
 3928SOL    HW123003   0.019   2.832   1.799  1.0517  0.7378  0.7089
 3928SOL    HW223004   0.037   2.673   1.830 -0.4641  0.3266 -0.4943
 3929SOL     OW23005   5.584   2.606   0.069 -0.1111 -0.1924 -0.2943
 3929SOL    HW123006   5.682   2.605   0.086 -0.6691 -0.7918  3.2015
 3929SOL    HW223007   5.555   2.517   0.034  0.6797  0.2583 -2.1735
 3930SOL     OW23008   2.043   9.522   3.085 -0.1372  0.0881 -0.3481
 3930SOL    HW123009   2.128   9.501   3.135 -0.2396 -1.6658 -0.8741
 3930SOL    HW223010   2.039   9.465   3.003 -1.0242  1.3877 -1.2152
 3931SOL     OW23011   8.800   5.140   0.852  0.1095 -0.1837 -0.6188
 3931SOL    HW123012   8.810   5.220   0.911 -1.7414  1.4787 -2.4596
 3931SOL    HW223013   8.818   5.166   0.757  0.3972 -2.1832 -1.1343
 3932SOL     OW23014   8.452   2.147   1.174  0.6346 -0.2702 -0.0837
 3932SOL    HW123015   8.501   2.107   1.097  0.4147 -0.2728 -0.2237
 3932SOL    HW223016   8.415   2.236   1.147 -0.8770 -0.9992 -0.5298
 3933SOL     OW23017   9.021   8.178   4.666  0.4029 -0.0571 -0.4747
 3933SOL    HW123018   9.037   8.185   4.765 -1.9584 -0.8545  0.0054
 3933SOL    HW223019   9.048   8.087   4.635 -0.8716 -0.5700 -0.1233
 3934SOL     OW23020   4.663   1.388   0.801  0.0593 -0.5166  0.1580
 3934SOL    HW123021   4.714   1.302   0.800 -1.5999 -1.5205 -0.8741
 3934SOL    HW223022   4.680   1.439   0.716  0.6375 -0.0562  0.5443
 3935SOL     OW23023   4.582   0.888   4.613  0.0388 -0.4075  0.4375
 3935SOL    HW123024   4.615   0.955   4.680  1.0021 -1.5360  1.1031
 3935SOL    HW223025   4.562   0.802   4.660 -0.2882 -0.8774 -0.5706
 3936SOL     OW23026   9.036   5.087   2.552 -0.0962 -0.6572 -0.3936
 3936SOL    HW123027   8.974   5.166   2.545  2.2668  1.1586 -1.3507
 3936SOL    HW223028   9.065   5.076   2.647 -0.3977 -0.3450 -0.2623
 3937SOL     OW23029   2.135   3.782   4.178 -0.9011 -0.0412 -0.4300
 3937SOL    HW123030   2.070   3.711   4.152 -0.0967 -0.3853 -1.5615
 3937SOL    HW223031   2.148   3.845   4.102 -1.2346  1.0373  0.4015
 3938SOL     OW23032   0.356   6.535   1.368  0.4548 -0.1744  0.1179
 3938SOL    HW123033   0.454   6.520   1.379  0.5897 -0.2055 -1.0788
 3938SOL    HW223034   0.314   6.547   1.458  1.9195  2.1729  0.5330
 3939SOL     OW23035   3.568   3.434   0.172 -0.7680 -0.5097 -0.1325
 3939SOL    HW123036   3.598   3.342   0.146 -1.8551 -0.9407  0.0983
 3939SOL    HW223037   3.525   3.478   0.094 -2.0371 -0.9588  0.3079
 3940SOL     OW23038   0.731   1.723   1.341 -0.0611 -0.2159  0.4924
 3940SOL    HW123039   0.717   1.626   1.362 -2.1607  0.2589  1.4186
 3940SOL    HW223040   0.826   1.747   1.359  0.8081 -2.3891 -0.9684
 3941SOL     OW23041   7.534   5.328   2.942 -0.5421  0.2930 -0.7358
 3941SOL    HW123042   7.461   5.263   2.919  0.4441 -0.6545 -1.2053
 3941SOL    HW223043   7.611   5.279   2.982 -0.2413  1.3231 -0.0338
 3942SOL     OW23044   4.282   6.478   3.019  0.0037  0.0749  0.3029
 3942SOL    HW123045   4.229   6.428   2.950 -0.8093 -0.8945  1.6237
 3942SOL    HW223046   4.363   6.517   2.975  0.0771 -1.4551 -0.9802
 3943SOL     OW23047   0.854   9.775   3.399  0.4635 -0.6100 -0.9182
 3943SOL    HW123048   0.867   9.846   3.330  1.3466 -0.3139 -0.4679
 3943SOL    HW223049   0.931   9.778   3.463 -0.0751 -1.2287 -0.2389
 3944SOL     OW23050   1.864   5.259   3.772  0.3411 -0.3527 -0.1421
 3944SOL    HW123051   1.963   5.272   3.777  0.2671  0.2018 -0.0852
 3944SOL    HW223052   1.843   5.162   3.759  0.8244 -0.7680  2.0673
 3945SOL     OW23053   4.727   2.842   0.472 -0.0173 -0.5000 -0.3528
 3945SOL    HW123054   4.714   2.869   0.377  4.3753  0.0109 -0.8863
 3945SOL    HW223055   4.778   2.912   0.521  0.1362 -1.9814  1.6873
 3946SOL     OW23056   7.580   0.046   0.966 -0.2062 -0.0806 -0.4616
 3946SOL    HW123057   7.592   0.043   1.065 -0.7950  0.6061 -0.3658
 3946SOL    HW223058   7.513   0.116   0.943  1.5814  1.3223 -1.5048
 3947SOL     OW23059   2.537   9.629   3.142 -0.1294 -0.4772  0.2574
 3947SOL    HW123060   2.627   9.592   3.119 -0.1578  0.3297 -1.2155
 3947SOL    HW223061   2.483   9.640   3.059 -1.5196 -0.7423  1.1083
 3948SOL     OW23062   0.809   6.861   3.605  0.3773  0.1982 -0.5571
 3948SOL    HW123063   0.809   6.803   3.687 -4.2451 -1.4543 -1.5584
 3948SOL    HW223064   0.856   6.815   3.531  0.1861 -0.5331 -0.2250
 3949SOL     OW23065   6.813   4.688   8.125 -0.1211  0.4214 -0.7520
 3949SOL    HW123066   6.775   4.661   8.037  1.1161  1.2114 -1.5568
 3949SOL    HW223067   6.805   4.613   8.190  1.4160 -1.1780 -2.3450
 3950SOL     OW23068   6.575   0.148   3.634 -0.3308  0.5359 -0.7538
 3950SOL    HW123069   6.626   0.162   3.719 -0.6318 -1.3669 -0.2410
 3950SOL    HW223070   6.539   0.236   3.601  1.8172  1.6418 -0.2132
 3951SOL     OW23071   3.042   9.166   0.380 -0.5772 -0.2745 -0.1067
 3951SOL    HW123072   3.129   9.140   0.337 -1.0472  0.8819 -1.8453
 3951SOL    HW223073   2.972   9.099   0.356 -0.0725 -1.4335  1.6438
 3952SOL     OW23074   8.564   5.563   6.035  0.2777  0.3984  0.3869
 3952SOL    HW123075   8.517   5.475   6.045 -1.5276  1.5737  2.6665
 3952SOL    HW223076   8.599   5.572   5.942  0.2360 -2.6025  0.0445
 3953SOL     OW23077   2.349   6.492   5.741  0.1060  0.0467 -0.5375
 3953SOL    HW123078   2.312   6.555   5.810 -0.3957  1.3946 -1.9955
 3953SOL    HW223079   2.277   6.472   5.674  0.8965 -0.4011 -1.2498
 3954SOL     OW23080   1.890   7.675   3.414  0.0951 -0.5491 -0.8853
 3954SOL    HW123081   1.867   7.589   3.368  0.1136  0.5074 -2.9510
 3954SOL    HW223082   1.975   7.711   3.377  0.3591  0.1056  0.3367
 3955SOL     OW23083   9.184   4.297   3.221  0.2311 -0.0805  0.4192
 3955SOL    HW123084   9.255   4.328   3.284 -1.0398  2.4795  0.6738
 3955SOL    HW223085   9.212   4.316   3.127  0.2004  0.3108  0.4862
 3956SOL     OW23086   1.205   1.268   4.737  0.2824 -0.1294 -0.3517
 3956SOL    HW123087   1.191   1.261   4.639 -0.5361  0.8954 -0.3227
 3956SOL    HW223088   1.136   1.330   4.776  0.9000 -0.1420  0.7860
 3957SOL     OW23089   9.895   0.867   4.885  0.8429 -0.1794 -0.1876
 3957SOL    HW123090   9.858   0.774   4.878 -0.2082  0.1808  0.4489
 3957SOL    HW223091   9.891   0.911   4.796 -0.4250 -0.0991 -0.1068
 3958SOL     OW23092   7.333   8.544   3.275  0.2028 -0.4416  0.1951
 3958SOL    HW123093   7.382   8.631   3.263 -0.8455  0.3882  1.7690
 3958SOL    HW223094   7.239   8.554   3.245 -0.2027 -0.7206  1.3465
 3959SOL     OW23095   0.809   5.304   3.487  0.0234 -0.2531 -0.0693
 3959SOL    HW123096   0.764   5.320   3.399  0.5996 -2.8447 -0.8751
 3959SOL    HW223097   0.901   5.268   3.472  0.9352  1.2967  1.5974
 3960SOL     OW23098   4.446   5.295   2.203 -0.4423  0.0744  0.4610
 3960SOL    HW123099   4.512   5.245   2.258  1.0194  1.1822 -0.2726
 3960SOL    HW223100   4.419   5.240   2.124  0.0672 -0.1177  0.4254
 3961SOL     OW23101   5.768   8.747   4.535  0.3067 -0.2307  0.0961
 3961SOL    HW123102   5.684   8.695   4.547  0.5048 -0.6584 -0.3647
 3961SOL    HW223103   5.747   8.845   4.533 -0.2052 -0.3474 -0.2693
 3962SOL     OW23104   8.306   1.317   2.636 -0.1612 -0.2301 -0.1904
 3962SOL    HW123105   8.380   1.325   2.703  0.1434  1.4539 -0.7037
 3962SOL    HW223106   8.218   1.324   2.682  0.0431  0.6018  0.0756
 3963SOL     OW23107   5.022   8.947   6.388  0.3540 -0.2388  0.3520
 3963SOL    HW123108   4.984   8.879   6.325  3.0411 -0.9737 -0.5703
 3963SOL    HW223109   5.009   9.038   6.351 -1.1794 -0.4091  0.4453
 3964SOL     OW23110   9.613   4.820   4.576  0.4997  0.4557  0.4066
 3964SOL    HW123111   9.558   4.737   4.573 -0.3416  1.0015  0.6794
 3964SOL    HW223112   9.695   4.803   4.630  1.0576 -0.6182 -0.7317
 3965SOL     OW23113   2.761   1.975   4.921  0.3079 -0.3354  0.2375
 3965SOL    HW123114   2.753   1.905   4.992  1.0162 -1.6913 -0.9961
 3965SOL    HW223115   2.805   2.056   4.959  0.1104 -0.7996  1.4990
 3966SOL     OW23116   9.346   5.249   5.894 -0.3997  0.2119 -0.6056
 3966SOL    HW123117   9.442   5.225   5.909  0.2126  1.5736 -2.1486
 3966SOL    HW223118   9.340   5.343   5.861 -2.2394 -0.0070 -0.9705
 3967SOL     OW23119   5.197   3.157   0.062 -0.3228 -0.3911  0.5391
 3967SOL    HW123120   5.132   3.128   0.132  1.3665 -1.6735  1.5942
 3967SOL    HW223121   5.208   3.083  -0.005 -0.0198 -0.1484  0.3226
 3968SOL     OW23122   3.714   4.845   4.773  0.2334 -0.0345  0.4691
 3968SOL    HW123123   3.635   4.786   4.789 -0.9361  1.3936  0.1133
 3968SOL    HW223124   3.797   4.789   4.765 -0.8291 -1.6066  0.2198
 3969SOL     OW23125   8.798   3.390   4.020  0.3415 -0.6256 -0.2481
 3969SOL    HW123126   8.769   3.318   4.083 -0.2132 -0.0055  0.2152
 3969SOL    HW223127   8.898   3.398   4.022  0.3758 -1.0813  0.0313
 3970SOL     OW23128   6.956   7.308   4.102 -0.0042  0.4696 -0.5323
 3970SOL    HW123129   6.967   7.400   4.065  0.0963 -0.4549 -2.9037
 3970SOL    HW223130   7.037   7.254   4.080 -0.0724 -0.1882  0.8283
 3971SOL     OW23131   5.981   9.716   4.629  0.3073 -0.3073  0.5491
 3971SOL    HW123132   6.057   9.750   4.574 -2.3596  0.8028 -2.6282
 3971SOL    HW223133   5.950   9.788   4.691  1.1987 -0.4237  1.1299
 3972SOL     OW23134   1.247   7.874   4.620  0.6664  0.3094 -0.4134
 3972SOL    HW123135   1.334   7.833   4.648 -0.0420 -1.1504 -0.2844
 3972SOL    HW223136   1.182   7.801   4.596 -0.1834  1.4025 -1.5292
 3973SOL     OW23137   8.347   2.804   0.902  0.1307 -0.0017 -0.0071
 3973SOL    HW123138   8.348   2.783   0.999 -1.3195 -0.7109 -0.1397
 3973SOL    HW223139   8.252   2.808   0.869  0.6084  0.0321 -1.4258
 3974SOL     OW23140   3.926   7.829   3.282 -0.1432 -0.3022 -0.7528
 3974SOL    HW123141   3.912   7.731   3.269 -0.0943 -0.5096  0.6711
 3974SOL    HW223142   3.838   7.875   3.288 -0.3143 -0.9714  3.5594
 3975SOL     OW23143   3.937   9.915   6.356 -0.2049  0.1638 -0.3729
 3975SOL    HW123144   3.934   9.924   6.455 -0.0779 -0.2633 -0.3303
 3975SOL    HW223145   4.029   9.937   6.323 -1.0809  3.5452 -0.7200
 3976SOL     OW23146   2.904   4.651   0.154 -0.3563  0.3964 -0.1843
 3976SOL    HW123147   2.862   4.561   0.167  1.6645 -0.3733  1.3543
 3976SOL    HW223148   2.885   4.709   0.234 -0.2425  0.7442 -0.4056
 3977SOL     OW23149   0.311   9.015   4.405 -0.3288  0.2100  0.2834
 3977SOL    HW123150   0.248   9.088   4.380  1.0806  1.4068  0.1988
 3977SOL    HW223151   0.269   8.959   4.477 -2.6334 -0.7130 -1.7094
 3978SOL     OW23152   5.289   3.185   0.366  0.0099 -0.0930 -0.2244
 3978SOL    HW123153   5.260   3.165   0.272  0.1320 -2.4165  0.2040
 3978SOL    HW223154   5.215   3.232   0.414 -0.0987  1.0182 -1.4340
 3979SOL     OW23155   1.912   3.119   3.585 -0.1431  0.3470 -0.3790
 3979SOL    HW123156   1.894   3.104   3.488 -0.7803  1.9148 -0.5091
 3979SOL    HW223157   1.924   3.216   3.603  0.4143  0.0370  1.0461
 3980SOL     OW23158   6.808   1.712   4.918 -0.0430 -0.6617 -0.3647
 3980SOL    HW123159   6.766   1.623   4.932  0.8160 -1.0218 -0.0271
 3980SOL    HW223160   6.821   1.757   5.007  1.3065 -1.0306 -0.3696
 3981SOL     OW23161   7.689   0.698   6.307  0.2215 -0.3757 -0.4649
 3981SOL    HW123162   7.617   0.768   6.309  0.2425 -0.2960 -1.6853
 3981SOL    HW223163   7.678   0.643   6.224  1.8791 -0.0409 -0.9150
 3982SOL     OW23164   2.027   4.088   5.178 -0.2656 -0.1558 -0.1674
 3982SOL    HW123165   2.118   4.121   5.151 -0.7564  1.3581 -0.0114
 3982SOL    HW223166   1.990   4.030   5.106  0.7805 -0.7031 -0.2806
 3983SOL     OW23167   4.449   2.679   3.453 -0.1093 -0.0701 -0.3428
 3983SOL    HW123168   4.375   2.694   3.387  0.9270  0.7780 -1.3350
 3983SOL    HW223169   4.534   2.719   3.418  1.0915 -1.9916  0.2667
 3984SOL     OW23170   8.305   5.340   2.787  0.0672  0.0208 -0.2288
 3984SOL    HW123171   8.243   5.300   2.719  0.6326 -0.2006 -0.6173
 3984SOL    HW223172   8.361   5.267   2.827 -0.2695  0.1480  0.4848
 3985SOL     OW23173   7.132   2.238   4.055  0.0502 -0.5313 -0.4181
 3985SOL    HW123174   7.071   2.314   4.078 -0.0029 -0.5049 -0.6487
 3985SOL    HW223175   7.089   2.179   3.987  0.3943 -0.3553 -0.7962
 3986SOL     OW23176   8.993   1.829   5.487  0.6336  0.2595 -0.2040
 3986SOL    HW123177   9.057   1.895   5.449 -0.8302  1.7106 -0.1697
 3986SOL    HW223178   8.916   1.816   5.424  0.5786 -0.9205  0.0840
 3987SOL     OW23179   0.774   7.692   6.035  0.4519 -0.3275  0.4938
 3987SOL    HW123180   0.762   7.599   6.070 -2.4455 -0.1722  0.0482
 3987SOL    HW223181   0.700   7.713   5.971  1.5206  2.0076 -0.0133
 3988SOL     OW23182   0.955   3.420   2.936  0.0956 -0.1253 -0.2358
 3988SOL    HW123183   0.945   3.497   2.999  1.8107  0.5827 -0.8139
 3988SOL    HW223184   1.002   3.345   2.981 -1.5156 -0.8378  0.3058
 3989SOL     OW23185   6.046   1.087   3.664  0.3816  0.8910 -0.6775
 3989SOL    HW123186   5.975   1.142   3.620  0.2006  1.3138  0.1321
 3989SOL    HW223187   6.110   1.054   3.595 -0.3152  0.9313 -1.3509
 3990SOL     OW23188   9.769   0.466   1.704  0.5724  0.2385  0.0081
 3990SOL    HW123189   9.829   0.519   1.763 -0.8160  0.2810  1.4090
 3990SOL    HW223190   9.680   0.454   1.749 -1.2400  2.0444 -2.8669
 3991SOL     OW23191   7.648   0.027   3.888  0.1286 -0.2649 -0.1932
 3991SOL    HW123192   7.630  -0.069   3.907  0.8099 -0.5292 -0.8577
 3991SOL    HW223193   7.742   0.050   3.914 -0.6862  0.7544  1.9310
 3992SOL     OW23194   4.095   3.768   1.132 -0.1911  0.3285 -0.3134
 3992SOL    HW123195   4.080   3.726   1.043  0.9291 -1.1376  0.1627
 3992SOL    HW223196   4.189   3.749   1.162 -0.4185  1.1884  0.9685
 3993SOL     OW23197   8.094   8.721   5.792 -0.0382 -0.3981 -0.4962
 3993SOL    HW123198   8.065   8.639   5.843 -2.4267 -0.3182 -1.6391
 3993SOL    HW223199   8.118   8.696   5.699 -2.6911  0.4253 -1.4440
 3994SOL     OW23200   8.069   2.818   6.009  0.0242  0.2500 -0.0171
 3994SOL    HW123201   8.034   2.830   6.102  0.5223  0.0371  0.1994
 3994SOL    HW223202   8.016   2.876   5.946 -1.8267 -1.3426  0.0389
 3995SOL     OW23203   2.727   6.964   5.008  0.1706  0.1268  0.0895
 3995SOL    HW123204   2.781   6.887   4.975 -0.7042 -0.1631 -0.6868
 3995SOL    HW223205   2.762   7.049   4.970 -0.3637 -0.1313 -1.0020
 3996SOL     OW23206   1.198   2.679   3.418  0.2795  0.2316 -0.3554
 3996SOL    HW123207   1.211   2.602   3.481 -0.7569 -1.0135 -1.6405
 3996SOL    HW223208   1.254   2.664   3.336 -0.3359  0.5783 -0.8421
 3997SOL     OW23209   8.115   9.510   1.404  0.0753  0.3102 -0.0039
 3997SOL    HW123210   8.169   9.512   1.319  0.4202 -0.0083  0.2026
 3997SOL    HW223211   8.141   9.429   1.457  1.4767  1.6620  1.4577
 3998SOL     OW23212   0.309   2.289   2.407 -0.1367 -0.2684 -0.1629
 3998SOL    HW123213   0.292   2.262   2.312  0.0996  0.4051 -0.4038
 3998SOL    HW223214   0.351   2.380   2.408 -1.0928  0.1694  0.6210
 3999SOL     OW23215   9.817   8.514   4.329  0.1434 -0.2877  0.6721
 3999SOL    HW123216   9.912   8.544   4.317  0.4708 -1.2777  0.7474
 3999SOL    HW223217   9.810   8.459   4.411  0.1194 -2.7029 -0.8946
 4000SOL     OW23218   7.397   2.344   4.059  0.2503  0.3319  0.1418
 4000SOL    HW123219   7.300   2.321   4.064  0.4841 -0.7025  0.1433
 4000SOL    HW223220   7.427   2.382   4.146  0.9507 -3.9115  1.8990
 4001SOL     OW23221   9.497   9.308   5.745 -0.5400 -0.3139 -0.2808
 4001SOL    HW123222   9.535   9.240   5.807  1.7741 -0.4651 -1.7932
 4001SOL    HW223223   9.564   9.329   5.674 -1.3772  3.2216 -0.1130
 4002SOL     OW23224   1.600   7.392   4.917 -0.2384  1.0175  0.3202
 4002SOL    HW123225   1.640   7.480   4.891  0.2485  0.8031  0.3350
 4002SOL    HW223226   1.566   7.398   5.011  1.2833  0.6952  0.8978
 4003SOL     OW23227   6.118   7.987   5.016  0.2833 -0.1467 -0.0698
 4003SOL    HW123228   6.036   8.029   5.054  0.0106 -0.7168 -0.0202
 4003SOL    HW223229   6.112   7.989   4.916  0.7186  0.8031 -0.0830
 4004SOL     OW23230   2.435   8.694   4.171 -0.1392 -0.7265  0.5969
 4004SOL    HW123231   2.467   8.600   4.162  1.9179 -0.0533  0.5861
 4004SOL    HW223232   2.484   8.753   4.107 -1.3784  0.3681  0.6269
 4005SOL     OW23233   6.360   1.269   3.155 -0.6039 -0.2049 -0.4650
 4005SOL    HW123234   6.384   1.283   3.251  0.4127 -1.8788 -0.4460
 4005SOL    HW223235   6.433   1.303   3.097 -0.6709 -0.2981 -0.6036
 4006SOL     OW23236   3.716   6.711   1.015  0.0120 -0.3820  0.3520
 4006SOL    HW123237   3.628   6.716   1.062 -0.0516 -0.2088  0.2155
 4006SOL    HW223238   3.768   6.632   1.049 -0.3578 -0.7114  0.1504
 4007SOL     OW23239   8.895   0.032   4.670 -0.4974  0.0959 -0.4186
 4007SOL    HW123240   8.900   0.095   4.593  2.3219  1.3929  0.7451
 4007SOL    HW223241   8.976  -0.027   4.670 -2.2076 -2.3278 -0.4501
 4008SOL     OW23242   9.858   1.319   1.018  0.1178  0.5963 -0.3282
 4008SOL    HW123243   9.930   1.332   0.950  0.1798 -0.8451 -0.5436
 4008SOL    HW223244   9.794   1.249   0.987  0.5462 -0.5917  1.4000
 4009SOL     OW23245   8.755   3.162   5.359 -1.1024 -0.5326  0.5870
 4009SOL    HW123246   8.819   3.226   5.402 -2.3658  1.8064 -0.8951
 4009SOL    HW223247   8.792   3.069   5.364  1.4739  0.4936  1.4866
 4010SOL     OW23248   0.704   2.756   0.171  0.3622 -0.1125 -0.0735
 4010SOL    HW123249   0.665   2.778   0.260 -1.6135 -0.7858 -0.7391
 4010SOL    HW223250   0.707   2.838   0.114 -0.7465 -0.1750 -0.2400
 4011SOL     OW23251   1.922   4.830   3.547 -0.2228 -0.1241 -0.5446
 4011SOL    HW123252   1.823   4.820   3.540 -0.5618  0.7849  2.2556
 4011SOL    HW223253   1.958   4.758   3.607  0.6908  0.1727 -0.7304
 4012SOL     OW23254   7.227   9.665   6.323 -0.3196  0.3878 -0.6775
 4012SOL    HW123255   7.258   9.599   6.391 -0.3198 -0.3698 -1.4050
 4012SOL    HW223256   7.143   9.631   6.279  0.2871  0.3360 -1.8284
 4013SOL     OW23257   2.487   2.439   3.909  0.0563  0.5671 -0.1911
 4013SOL    HW123258   2.453   2.363   3.853  0.9008 -0.2305  0.3533
 4013SOL    HW223259   2.582   2.420   3.935  0.7362  2.4644 -1.1969
 4014SOL     OW23260   8.863   8.846   5.099 -0.1208 -0.1017  0.0273
 4014SOL    HW123261   8.960   8.831   5.077 -0.4908 -1.5108 -0.6835
 4014SOL    HW223262   8.843   8.944   5.093  1.4997  0.3262  1.1975
 4015SOL     OW23263   3.206   2.215   4.740  0.0177 -0.1674  0.6307
 4015SOL    HW123264   3.287   2.156   4.741 -0.1288 -0.3787  0.2615
 4015SOL    HW223265   3.232   2.307   4.710 -0.0146 -0.4440 -0.2700
 4016SOL     OW23266   4.322   2.003   3.020  0.2056  0.4740 -0.1506
 4016SOL    HW123267   4.365   2.059   3.091 -0.4317  0.7860 -0.0063
 4016SOL    HW223268   4.237   1.964   3.056 -0.1280  0.6504 -0.7506
 4017SOL     OW23269   5.883   5.733   1.480 -0.4326  0.1657  0.4055
 4017SOL    HW123270   5.820   5.775   1.415 -1.7238 -3.5746 -0.9201
 4017SOL    HW223271   5.966   5.703   1.432 -0.7795 -1.3549  0.7338
 4018SOL     OW23272   7.569   7.780   6.512 -0.7941 -0.1732  0.4284
 4018SOL    HW123273   7.594   7.859   6.568 -0.3943  0.2682 -0.3683
 4018SOL    HW223274   7.493   7.804   6.452 -0.1999 -0.1768 -0.3312
 4019SOL     OW23275   0.166   8.935   2.829 -0.0021 -0.4879  0.4942
 4019SOL    HW123276   0.225   8.962   2.905  0.0760 -0.7189  0.5166
 4019SOL    HW223277   0.088   8.883   2.865 -0.9698  1.0193  0.6156
 4020SOL     OW23278   7.803   3.298   3.873  0.6448  0.3041  0.4484
 4020SOL    HW123279   7.850   3.278   3.959  0.7746  1.6078  0.7001
 4020SOL    HW223280   7.798   3.215   3.817  1.2680 -0.3654  1.3677
 4021SOL     OW23281   5.529   8.113   2.566  0.1305  0.8823  0.0341
 4021SOL    HW123282   5.586   8.192   2.545  0.8219  1.2497  3.0662
 4021SOL    HW223283   5.584   8.043   2.610 -1.3876  0.5796  1.5137
 4022SOL     OW23284   0.228   8.241   3.581 -0.3207  0.1707  0.1217
 4022SOL    HW123285   0.320   8.204   3.572 -0.4515  0.2668 -1.7834
 4022SOL    HW223286   0.217   8.319   3.519 -1.7961 -0.0943  0.0269
 4023SOL     OW23287   8.968   6.312   3.056 -0.6286 -0.2188  0.0585
 4023SOL    HW123288   8.998   6.367   3.134 -1.4381  2.7195 -1.6195
 4023SOL    HW223289   9.046   6.267   3.014  0.2578  0.7197  0.6980
 4024SOL     OW23290   0.027   2.726   0.793 -0.3104 -0.4918  0.1303
 4024SOL    HW123291   0.065   2.803   0.740 -1.4986  1.3224  1.8548
 4024SOL    HW223292   0.005   2.651   0.731  1.5571  0.2557 -1.5055
 4025SOL     OW23293   7.776   0.185   6.309 -0.2278  0.0136 -0.3287
 4025SOL    HW123294   7.762   0.098   6.357  0.5071 -1.9907 -3.5733
 4025SOL    HW223295   7.782   0.168   6.211 -3.3595  4.1972 -1.3487
 4026SOL     OW23296   6.867   4.004   1.178  0.4133 -0.2525  0.2350
 4026SOL    HW123297   6.854   4.038   1.271 -0.2571 -1.8205  0.7298
 4026SOL    HW223298   6.782   3.964   1.145  0.7249  0.0564 -0.9648
 4027SOL     OW23299   1.012   6.761   0.470 -0.6760 -0.4127 -0.1831
 4027SOL    HW123300   1.097   6.710   0.462 -1.2241 -1.4708  0.5265
 4027SOL    HW223301   0.999   6.790   0.565 -1.5197 -1.0356 -0.0947
 4028SOL     OW23302   4.814   8.830   4.764 -0.7673  0.3486  0.1077
 4028SOL    HW123303   4.750   8.779   4.705 -0.6533 -0.5849  0.7828
 4028SOL    HW223304   4.908   8.808   4.738 -0.7078  1.5906 -0.7708
 4029SOL     OW23305   4.500   7.147   0.795  0.3759  0.0194 -0.0250
 4029SOL    HW123306   4.484   7.109   0.703  1.3058 -1.4015  0.3792
 4029SOL    HW223307   4.498   7.073   0.862 -0.2462  1.0465  1.1037
 4030SOL     OW23308   1.070   4.932   1.250 -0.3092  0.6064 -0.0145
 4030SOL    HW123309   1.044   4.922   1.154 -0.7671 -1.7102  0.3104
 4030SOL    HW223310   1.153   4.880   1.268 -0.3215  0.8763  0.8759
 4031SOL     OW23311   1.912   8.900   3.764 -0.3785 -0.1037  0.0297
 4031SOL    HW123312   1.955   8.958   3.834  0.3005  0.3446 -0.7540
 4031SOL    HW223313   1.829   8.944   3.731 -1.3413 -0.8594  1.3769
 4032SOL     OW23314   7.128   2.127   2.342  0.1817  0.0082  0.2152
 4032SOL    HW123315   7.062   2.074   2.395  0.3387  1.4488  1.9036
 4032SOL    HW223316   7.207   2.148   2.399  1.3103 -0.1871 -1.2467
 4033SOL     OW23317   8.102   3.020   2.932 -0.8159 -0.4167  0.4552
 4033SOL    HW123318   8.120   3.118   2.927 -0.7829 -0.4767 -0.8392
 4033SOL    HW223319   8.033   3.002   3.001 -1.1984  0.5732  0.3380
 4034SOL     OW23320   2.761   4.251   1.243 -0.4037 -0.2035  0.5857
 4034SOL    HW123321   2.846   4.243   1.191  0.6832  1.0862  2.0973
 4034SOL    HW223322   2.727   4.345   1.237 -1.5978 -0.6562  0.1922
 4035SOL     OW23323   1.755   6.735   1.136  0.1678 -0.0991 -0.0977
 4035SOL    HW123324   1.848   6.701   1.150 -0.2424 -0.8844  0.7609
 4035SOL    HW223325   1.700   6.715   1.217 -0.2684  2.0347  0.1491
 4036SOL     OW23326   4.859   7.630   1.443 -0.5356  0.6511  0.2822
 4036SOL    HW123327   4.899   7.622   1.535 -0.5599  2.3557  0.4525
 4036SOL    HW223328   4.872   7.544   1.394 -0.9239 -0.4307  2.0418
 4037SOL     OW23329   4.096   5.729   0.056  0.1885  0.1294 -0.2190
 4037SOL    HW123330   4.055   5.653   0.107 -1.7635  1.2996 -0.0212
 4037SOL    HW223331   4.148   5.692  -0.021 -1.3760 -1.3756 -0.5913
 4038SOL     OW23332   4.647   1.594   3.796 -0.6736 -0.4067  0.4039
 4038SOL    HW123333   4.556   1.635   3.804  0.1903  1.6179  0.1812
 4038SOL    HW223334   4.664   1.571   3.700 -1.0801 -1.1026  0.4973
 4039SOL     OW23335   8.938   7.144   4.576 -0.6358 -0.1151  0.5887
 4039SOL    HW123336   8.843   7.118   4.557 -0.6676  1.5094 -1.7172
 4039SOL    HW223337   8.983   7.171   4.490  1.1190  1.7317  2.0472
 4040SOL     OW23338   1.542   9.813   5.273 -0.0027 -0.0212  0.5389
 4040SOL    HW123339   1.459   9.757   5.280 -0.4422  0.5611 -0.0607
 4040SOL    HW223340   1.577   9.830   5.365  0.1269 -1.2695  0.7317
 4041SOL     OW23341   7.991   1.359   5.887 -0.0481 -0.5597 -0.2186
 4041SOL    HW123342   8.032   1.331   5.800 -0.4837  0.8099 -0.8807
 4041SOL    HW223343   7.969   1.278   5.941  1.2254 -1.3848 -0.9139
 4042SOL     OW23344   5.658   9.738   2.656 -0.8731  0.0135  0.4654
 4042SOL    HW123345   5.595   9.664   2.630  0.5533 -0.6266 -1.2121
 4042SOL    HW223346   5.627   9.823   2.614 -1.3961 -0.0128  0.7830
 4043SOL     OW23347   2.660   5.618   2.925 -0.4531  0.2294  0.4189
 4043SOL    HW123348   2.656   5.521   2.950  0.8166 -0.5268 -2.1343
 4043SOL    HW223349   2.750   5.654   2.950 -0.2632  0.2530 -0.2919
 4044SOL     OW23350   7.168   5.190   0.528 -0.3465  0.2044  0.3881
 4044SOL    HW123351   7.099   5.122   0.503  0.7747 -0.7604 -0.1502
 4044SOL    HW223352   7.228   5.152   0.598  0.8631  0.2724 -0.5914
 4045SOL     OW23353   7.409   1.918   6.517 -0.4270  0.0786 -0.2457
 4045SOL    HW123354   7.448   1.971   6.593  0.7249 -1.8920  0.5978
 4045SOL    HW223355   7.390   1.978   6.440 -0.9763  2.0158  1.3635
 4046SOL     OW23356   1.208   2.374   1.923  0.0789 -0.0070  0.3910
 4046SOL    HW123357   1.204   2.312   1.844  0.1498  1.5564 -0.8825
 4046SOL    HW223358   1.263   2.333   1.995 -2.0870 -2.6013  0.6599
 4047SOL     OW23359   9.756   0.632   2.786  0.7036  0.4387 -0.5384
 4047SOL    HW123360   9.831   0.698   2.786  0.5530  0.6433  2.1446
 4047SOL    HW223361   9.669   0.680   2.796  0.2494  0.1180 -2.6403
 4048SOL     OW23362   1.243   3.208   2.556  0.1157  0.3296 -0.1166
 4048SOL    HW123363   1.190   3.206   2.641 -2.3536 -0.5281 -1.6087
 4048SOL    HW223364   1.223   3.292   2.506  1.9982  1.0994  0.3664
 4049SOL     OW23365   3.139   4.314   4.620 -0.2493 -0.3482 -0.5806
 4049SOL    HW123366   3.151   4.400   4.570  0.1030  0.0964  0.2521
 4049SOL    HW223367   3.193   4.242   4.577  1.3884  0.4263  0.1301
 4050SOL     OW23368   0.615   2.332   0.711 -0.5880 -0.1381 -0.6085
 4050SOL    HW123369   0.586   2.278   0.789 -0.7674  1.4327  0.4421
 4050SOL    HW223370   0.535   2.373   0.667 -0.2895  1.1620  0.0302
 4051SOL     OW23371   6.097   2.295   0.235  0.2836  0.4179  0.1634
 4051SOL    HW123372   6.073   2.348   0.154  0.9525  1.0632  0.3813
 4051SOL    HW223373   6.140   2.355   0.302  1.1784 -0.4353  0.3622
 4052SOL     OW23374   2.066   2.760   4.503  0.2642  0.4323  0.3313
 4052SOL    HW123375   2.003   2.692   4.541  0.6550  0.9426  1.9560
 4052SOL    HW223376   2.158   2.721   4.501  0.3980  0.7266  0.7633
 4053SOL     OW23377   9.432   2.247   5.295 -0.0598  0.4488 -0.5986
 4053SOL    HW123378   9.348   2.278   5.340 -1.4559 -1.0819 -2.0550
 4053SOL    HW223379   9.465   2.163   5.339  1.2861  1.5954  0.6069
 4054SOL     OW23380   3.200   3.001   2.345  0.0560 -0.4944  0.5351
 4054SOL    HW123381   3.268   2.928   2.335 -0.2589 -0.5224 -1.6860
 4054SOL    HW223382   3.130   2.972   2.411  1.5634 -0.9166  1.9908
 4055SOL     OW23383   4.212   3.252   1.703 -0.2934  0.2674 -0.4313
 4055SOL    HW123384   4.244   3.334   1.750  1.1660  0.9694 -2.5746
 4055SOL    HW223385   4.213   3.175   1.766 -0.3527  1.6044  1.2310
 4056SOL     OW23386   1.099   5.720   1.609  0.0717  0.2046  0.0858
 4056SOL    HW123387   1.154   5.792   1.566  1.5964 -0.4224  0.9509
 4056SOL    HW223388   1.142   5.631   1.594 -1.0344 -0.3706  0.2569
 4057SOL     OW23389   7.508   5.730   1.620 -0.1732 -0.0310 -0.1625
 4057SOL    HW123390   7.513   5.798   1.547 -2.1162 -0.0682 -0.3756
 4057SOL    HW223391   7.465   5.771   1.701 -1.5059 -1.0189 -0.3492
 4058SOL     OW23392   8.507   1.458   0.510  0.5123 -0.1585 -0.3477
 4058SOL    HW123393   8.475   1.553   0.509  2.7749  0.6111 -0.5346
 4058SOL    HW223394   8.554   1.438   0.424  0.7802 -1.2150  0.0408
 4059SOL     OW23395   3.231   8.995   3.192 -0.1045  0.0515 -0.0874
 4059SOL    HW123396   3.304   8.998   3.124  0.4381 -0.1681  0.4744
 4059SOL    HW223397   3.142   9.000   3.147  0.2653  0.6316 -0.7611
 4060SOL     OW23398   0.591   0.554   1.164 -0.0002  0.7032 -0.3970
 4060SOL    HW123399   0.566   0.482   1.098 -1.9425  0.8745  0.1164
 4060SOL    HW223400   0.641   0.513   1.240 -1.8498 -0.2702  0.3186
 4061SOL     OW23401   3.884   7.265   5.058  0.0193  0.3383 -0.4486
 4061SOL    HW123402   3.847   7.352   5.089  0.0196 -0.2332  1.2033
 4061SOL    HW223403   3.811   7.196   5.055  0.4888 -0.2096  0.5929
 4062SOL     OW23404   0.221   6.033   5.852 -0.1081  0.0739  0.5965
 4062SOL    HW123405   0.146   6.064   5.794  0.1995 -0.1511  0.0738
 4062SOL    HW223406   0.250   5.942   5.824  0.4656  0.2242  0.6852
 4063SOL     OW23407   0.513   1.754   1.897  0.1549 -0.2781 -1.0933
 4063SOL    HW123408   0.596   1.719   1.855 -1.0563 -1.9962 -2.0938
 4063SOL    HW223409   0.433   1.724   1.845 -1.2730 -0.8646  1.3413
 4064SOL     OW23410   7.320   9.366   3.191  0.3258  0.3661  0.1972
 4064SOL    HW123411   7.363   9.309   3.122 -2.0273 -0.9970 -0.2081
 4064SOL    HW223412   7.354   9.460   3.183  0.3445  0.1647 -2.5947
 4065SOL     OW23413   5.967   1.295   3.346 -0.6502  0.1350 -0.3299
 4065SOL    HW123414   5.921   1.288   3.435 -0.5346  1.4608 -0.1435
 4065SOL    HW223415   6.043   1.360   3.353 -0.5284  0.1144 -1.3566
 4066SOL     OW23416   4.410   0.815   2.753 -0.7689  0.2259 -0.4503
 4066SOL    HW123417   4.508   0.815   2.731 -0.9666 -1.2506 -1.3736
 4066SOL    HW223418   4.389   0.736   2.810 -1.5667  0.1289 -0.8790
 4067SOL     OW23419   8.832   9.340   1.213 -0.0919  0.1397 -0.0361
 4067SOL    HW123420   8.862   9.301   1.126 -1.0140 -0.7588  0.0316
 4067SOL    HW223421   8.864   9.434   1.221  0.1534  0.1631 -1.2707
 4068SOL     OW23422   9.899   9.716   3.552  0.4323 -0.1007 -0.0085
 4068SOL    HW123423   9.926   9.730   3.457 -4.8156 -1.5421 -1.9118
 4068SOL    HW223424   9.922   9.623   3.580  0.7823 -0.1142 -0.3354
 4069SOL     OW23425   5.676   9.524   5.463 -0.1507  0.0939 -0.0998
 4069SOL    HW123426   5.767   9.515   5.423  0.3121  0.0723  0.9373
 4069SOL    HW223427   5.607   9.525   5.390  0.3755 -3.6710 -0.7299
 4070SOL     OW23428   9.240   0.702   1.457  0.0204 -0.1802  0.5279
 4070SOL    HW123429   9.182   0.715   1.377  0.6984 -0.8451 -0.0747
 4070SOL    HW223430   9.309   0.774   1.460 -0.1745  0.0007  0.6594
 4071SOL     OW23431   7.762   7.125   5.087 -0.3991  0.0520 -0.0293
 4071SOL    HW123432   7.665   7.122   5.063 -0.0810  0.6190 -1.4719
 4071SOL    HW223433   7.813   7.068   5.023  0.1930 -0.5004  0.9253
 4072SOL     OW23434   1.419   2.550   4.047  0.8167 -0.0160 -0.3594
 4072SOL    HW123435   1.385   2.641   4.070  1.1692 -0.3236  1.4138
 4072SOL    HW223436   1.519   2.552   4.047  0.8605 -0.8733  1.7238
 4073SOL     OW23437   3.392   9.046   4.635  0.1896 -0.4680 -0.0394
 4073SOL    HW123438   3.378   8.947   4.646 -0.4369 -0.5100 -1.2006
 4073SOL    HW223439   3.325   9.082   4.570 -0.7791  1.0595  1.7739
 4074SOL     OW23440   3.148   2.472   5.578 -0.6332 -0.3601 -0.0923
 4074SOL    HW123441   3.176   2.542   5.644  0.8738 -2.0274  1.0637
 4074SOL    HW223442   3.064   2.428   5.609 -0.6098 -0.2945  0.0631
 4075SOL     OW23443   2.217   3.746   3.176  0.0261 -0.0520 -0.4091
 4075SOL    HW123444   2.263   3.832   3.158  0.2925 -0.1744 -0.3249
 4075SOL    HW223445   2.124   3.748   3.139 -0.1133  0.4268 -0.0277
 4076SOL     OW23446   3.761   9.677   0.696  0.4265  0.0489 -0.0749
 4076SOL    HW123447   3.725   9.584   0.687  0.5298 -0.1070  1.0390
 4076SOL    HW223448   3.787   9.693   0.791  2.2531  0.5611 -0.6508
 4077SOL     OW23449   2.069   7.499   4.108  0.1758  0.4915  0.1241
 4077SOL    HW123450   2.007   7.514   4.031  0.6543  1.1385 -0.1410
 4077SOL    HW223451   2.070   7.402   4.132  2.2185 -0.2376 -2.5896
 4078SOL     OW23452   3.938   4.651   4.729 -0.5749 -0.4458  0.6629
 4078SOL    HW123453   4.027   4.676   4.767 -0.3871 -1.2243  0.7509
 4078SOL    HW223454   3.951   4.582   4.657 -1.0995 -0.5345  0.6526
 4079SOL     OW23455   8.016   8.067   2.467 -0.3308 -0.2645  0.1865
 4079SOL    HW123456   7.967   7.982   2.450 -1.6284  0.3845  0.6528
 4079SOL    HW223457   7.952   8.143   2.468  1.0661  1.0399 -2.4429
 4080SOL     OW23458   2.363   1.108   0.154  0.1333  0.1123  0.7249
 4080SOL    HW123459   2.365   1.204   0.124  1.1763  0.1742  0.9654
 4080SOL    HW223460   2.441   1.060   0.114 -0.2522 -0.5822  0.8069
 4081SOL     OW23461   3.445   6.744   3.031 -0.6644 -0.0213  0.2461
 4081SOL    HW123462   3.544   6.734   3.038 -0.6107 -0.7146 -1.4254
 4081SOL    HW223463   3.422   6.839   3.011 -0.2518 -0.1844 -0.9950
 4082SOL     OW23464   5.441   3.319   0.578 -0.3582 -0.3400 -0.9136
 4082SOL    HW123465   5.535   3.353   0.571  0.2373 -1.7103  0.0851
 4082SOL    HW223466   5.415   3.273   0.493  0.2457 -0.8464 -0.8297
 4083SOL     OW23467   2.036   6.957   0.913  0.0693 -0.6060 -0.1315
 4083SOL    HW123468   2.113   6.895   0.929  1.7136  0.6768 -2.7699
 4083SOL    HW223469   1.994   6.936   0.825 -1.2161  0.1513  0.2880
 4084SOL     OW23470   3.561   5.602   0.629  0.0009  0.3194  0.0931
 4084SOL    HW123471   3.552   5.613   0.530  1.0332  0.6283  0.0328
 4084SOL    HW223472   3.624   5.527   0.649  0.8247  1.1092  0.5065
 4085SOL     OW23473   4.868   8.357   5.948 -0.4504 -0.3545  0.3375
 4085SOL    HW123474   4.848   8.326   5.855 -0.3200 -0.8075  0.4577
 4085SOL    HW223475   4.830   8.448   5.962  1.0014  0.4461 -0.7218
 4086SOL     OW23476   5.169   9.504   6.525  0.3123  0.1797  0.4476
 4086SOL    HW123477   5.237   9.559   6.476  1.6650  0.2334  2.3113
 4086SOL    HW223478   5.209   9.471   6.611 -1.8430 -0.2712  1.3140
 4087SOL     OW23479   6.376   7.730   6.603  0.3326 -0.5213  0.2009
 4087SOL    HW123480   6.280   7.740   6.575  0.9402  0.6876 -1.5633
 4087SOL    HW223481   6.386   7.754   6.699 -1.6231 -3.5684  1.2507
 4088SOL     OW23482   3.840   6.129   0.240  0.3744  0.2578 -0.0431
 4088SOL    HW123483   3.855   6.208   0.180 -0.5798  0.2006 -0.3606
 4088SOL    HW223484   3.800   6.160   0.326 -2.3778 -0.1406 -1.1364
 4089SOL     OW23485   0.869   0.271   0.236 -0.1493 -0.6755 -0.3043
 4089SOL    HW123486   0.829   0.272   0.145 -1.6809 -0.7834  0.3530
 4089SOL    HW223487   0.887   0.364   0.266  1.6451 -0.7003 -1.2595
 4090SOL     OW23488   7.405   6.547   1.087 -0.4250  0.5465 -0.0729
 4090SOL    HW123489   7.403   6.623   1.152  0.1686 -0.4962  1.1878
 4090SOL    HW223490   7.498   6.536   1.052 -0.5884  0.6277 -0.5418
 4091SOL     OW23491   8.175   6.165   5.380  0.4257  0.7904 -0.6193
 4091SOL    HW123492   8.080   6.172   5.349 -0.4936 -0.8853  1.6461
 4091SOL    HW223493   8.185   6.214   5.467  1.2930 -0.2610 -0.1216
 4092SOL     OW23494   2.797   3.948   2.820  0.2656 -0.1171 -0.6021
 4092SOL    HW123495   2.848   3.910   2.897  1.6351 -0.6296 -1.7225
 4092SOL    HW223496   2.700   3.953   2.843  0.8612  1.3816  1.7751
 4093SOL     OW23497   5.355   8.526   4.286 -0.1181 -0.4001 -0.0155
 4093SOL    HW123498   5.447   8.487   4.287  0.7276  1.5280 -0.0077
 4093SOL    HW223499   5.300   8.479   4.216  0.3380 -2.6870  1.1099
 4094SOL     OW23500   1.361   4.709   1.165  0.4743  0.1046 -0.2569
 4094SOL    HW123501   1.435   4.705   1.232  1.0450 -1.5251 -0.9624
 4094SOL    HW223502   1.277   4.674   1.206  1.0694 -1.8884 -0.6841
 4095SOL     OW23503   7.737   5.716   5.958 -0.8310  0.3091  0.0814
 4095SOL    HW123504   7.829   5.681   5.945 -2.2114 -3.5391 -0.1715
 4095SOL    HW223505   7.686   5.707   5.872 -2.1102  0.1715  0.8404
 4096SOL     OW23506   2.238   5.167   3.215 -0.3649 -0.2918 -0.3498
 4096SOL    HW123507   2.288   5.089   3.177  0.9366  0.9259 -1.1587
 4096SOL    HW223508   2.248   5.167   3.315 -0.2807 -1.0958 -0.3533
 4097SOL     OW23509   0.160   1.423   1.430 -0.0346  0.1315 -0.2546
 4097SOL    HW123510   0.173   1.403   1.527  1.5198 -0.9512 -0.6649
 4097SOL    HW223511   0.064   1.445   1.413 -1.0183 -2.8698  1.0151
 4098SOL     OW23512   5.372   3.585   0.266 -0.1592 -0.6006  0.4428
 4098SOL    HW123513   5.277   3.558   0.280  0.2298 -1.5711  1.2193
 4098SOL    HW223514   5.422   3.509   0.223  0.7820 -0.9028  2.0444
 4099SOL     OW23515   9.267   6.472   3.698  0.1329 -0.5455 -0.3705
 4099SOL    HW123516   9.262   6.544   3.628 -1.0116  0.9026  1.1627
 4099SOL    HW223517   9.186   6.413   3.691  0.3891 -0.8591 -0.7374
 4100SOL     OW23518   2.976   7.618   3.022 -0.0018  0.7438  1.0529
 4100SOL    HW123519   2.883   7.654   3.030 -0.7606 -0.6588 -1.0993
 4100SOL    HW223520   2.977   7.521   3.045  0.7149  0.4980  0.0332
 4101SOL     OW23521   6.947   8.951   5.116  0.0913  0.3258  0.7299
 4101SOL    HW123522   6.941   9.045   5.150  0.3003  1.3411 -1.9571
 4101SOL    HW223523   6.881   8.938   5.042  0.8357 -1.3314  0.3451
 4102SOL     OW23524   0.241   4.362   2.436  0.2032 -0.5849 -0.3878
 4102SOL    HW123525   0.235   4.340   2.534  0.9230  0.1694 -0.1712
 4102SOL    HW223526   0.152   4.391   2.403  0.6043  2.1661  0.7771
 4103SOL     OW23527   4.270   6.070   3.298  0.3690  0.0205 -0.0250
 4103SOL    HW123528   4.182   6.114   3.284  0.2317 -0.1350  0.3591
 4103SOL    HW223529   4.277   5.988   3.240 -0.1734 -0.5860  0.7711
 4104SOL     OW23530   2.996   9.291   1.946  0.3701  0.1853 -0.0777
 4104SOL    HW123531   2.904   9.288   1.907  0.4683 -1.6543 -0.2339
 4104SOL    HW223532   3.043   9.373   1.914 -0.8001  0.5305 -0.9697
 4105SOL     OW23533   3.748   7.624   4.263  0.2404  0.2470 -1.2876
 4105SOL    HW123534   3.812   7.623   4.341 -0.9758 -0.8414 -0.2747
 4105SOL    HW223535   3.788   7.571   4.188  0.3516 -0.8283 -0.4910
 4106SOL     OW23536   9.169   9.120   2.738 -0.0711 -0.1161 -0.3385
 4106SOL    HW123537   9.246   9.178   2.763 -0.5165  0.3277 -0.0088
 4106SOL    HW223538   9.127   9.081   2.820 -0.4365 -0.0576 -0.4940
 4107SOL     OW23539   3.668   4.831   0.023  0.6100  0.3293 -0.3919
 4107SOL    HW123540   3.684   4.733   0.035  0.4291  0.1977 -1.2103
 4107SOL    HW223541   3.586   4.858   0.073 -0.2807 -0.2635 -1.5130
 4108SOL     OW23542   3.262   0.778   4.890 -0.4461  0.7284 -0.5135
 4108SOL    HW123543   3.264   0.878   4.886  0.5099  0.8488  2.0721
 4108SOL    HW223544   3.355   0.742   4.886 -0.7620 -0.0503 -0.9669
 4109SOL     OW23545   9.074   1.438   4.885 -0.1806 -0.1212  0.2326
 4109SOL    HW123546   9.046   1.521   4.837 -1.1404  0.7834  2.2797
 4109SOL    HW223547   9.162   1.407   4.850 -0.1082  1.4122 -0.9874
 4110SOL     OW23548   4.041   9.244   2.018  0.0120  0.3917  0.0400
 4110SOL    HW123549   4.059   9.336   2.054 -0.2586  0.7024 -0.6118
 4110SOL    HW223550   3.986   9.193   2.083 -1.5582  1.3766 -0.4788
 4111SOL     OW23551   8.347   4.725   1.370 -0.6493  0.2039  0.1028
 4111SOL    HW123552   8.254   4.758   1.383 -0.6201 -0.4022  2.0485
 4111SOL    HW223553   8.345   4.636   1.325 -1.0910 -0.3126  1.1144
 4112SOL     OW23554   6.028   3.189   3.944 -0.0856 -0.6952 -0.5637
 4112SOL    HW123555   6.079   3.178   3.858  0.8163 -0.5411 -0.0568
 4112SOL    HW223556   6.083   3.153   4.020  0.4283  1.9632  0.3638
 4113SOL     OW23557   1.238   7.833   0.110  0.5973  0.0118  0.1758
 4113SOL    HW123558   1.224   7.884   0.194 -0.7416  1.0813 -0.6798
 4113SOL    HW223559   1.177   7.868   0.039  1.6558 -0.9245 -1.2179
 4114SOL     OW23560   7.001   8.975   6.606 -0.2996  0.3742  0.6825
 4114SOL    HW123561   7.048   8.962   6.694  1.3443  1.1747 -0.0529
 4114SOL    HW223562   6.954   8.890   6.581  1.1493 -0.6260  1.2250
 4115SOL     OW23563   9.098   1.327   3.367 -0.1317  0.1581 -0.4348
 4115SOL    HW123564   9.029   1.260   3.340 -0.1913 -0.0563  0.2548
 4115SOL    HW223565   9.059   1.419   3.363 -0.0252  0.1655 -1.4637
 4116SOL     OW23566   4.517   7.147   4.482 -0.1484  0.3737  0.4983
 4116SOL    HW123567   4.612   7.139   4.452 -0.1244  0.3318  0.5841
 4116SOL    HW223568   4.482   7.237   4.457  0.4125  0.9979  1.8621
 4117SOL     OW23569   6.057   9.904   2.256 -0.3985  0.0542  0.3238
 4117SOL    HW123570   6.091   9.819   2.297  1.1375  1.1570  1.4056
 4117SOL    HW223571   5.962   9.919   2.286 -0.2424 -0.6126  1.1886
 4118SOL     OW23572   6.329   1.183   7.836  0.8128  0.3760  0.3962
 4118SOL    HW123573   6.348   1.188   7.934  1.8743  2.1137  0.1197
 4118SOL    HW223574   6.384   1.111   7.795  1.0265  0.2416  0.9080
 4119SOL     OW23575   8.906   8.093   3.985 -0.1032 -0.2640 -0.0566
 4119SOL    HW123576   8.905   8.144   3.899  1.0206  1.5213  0.9493
 4119SOL    HW223577   8.929   8.155   4.060 -1.4021 -1.7163  1.5936
 4120SOL     OW23578   7.519   1.212   0.258 -0.4055 -0.7170 -0.5381
 4120SOL    HW123579   7.617   1.198   0.267  0.0847  1.8160 -1.3183
 4120SOL    HW223580   7.492   1.205   0.161 -0.9808 -1.3517 -0.3363
 4121SOL     OW23581   1.476   9.077   4.691  0.2519 -0.8352 -0.3717
 4121SOL    HW123582   1.538   9.075   4.612 -1.3049  1.2344 -1.6691
 4121SOL    HW223583   1.394   9.024   4.670  1.0295 -2.5958  0.9169
 4122SOL     OW23584   1.653   7.459   1.865  0.3985  0.1619 -0.2159
 4122SOL    HW123585   1.673   7.550   1.829  0.3735 -0.1753 -1.0766
 4122SOL    HW223586   1.632   7.466   1.963  1.9120  0.8779  0.0612
 4123SOL     OW23587   0.358   0.122   0.732  0.4702  0.4366  0.1634
 4123SOL    HW123588   0.375   0.066   0.651  0.4846  0.1532  0.3627
 4123SOL    HW223589   0.260   0.119   0.754  0.1263  2.1628 -1.0553
 4124SOL     OW23590   4.114   1.814   3.659 -0.2600 -0.2332 -0.4700
 4124SOL    HW123591   4.017   1.836   3.666 -0.0876  0.4479 -0.1381
 4124SOL    HW223592   4.168   1.895   3.684  0.4020 -1.8253  3.6700
 4125SOL     OW23593   9.803   3.513   4.607 -0.2587  0.2503  0.2829
 4125SOL    HW123594   9.869   3.456   4.655 -0.4442  1.1052  1.6112
 4125SOL    HW223595   9.714   3.506   4.652 -0.4903  0.9212 -0.0577
 4126SOL     OW23596   8.359   9.397   5.398 -0.1642  0.3453 -0.2205
 4126SOL    HW123597   8.325   9.484   5.434  1.8158  0.3250  1.7873
 4126SOL    HW223598   8.306   9.322   5.437  0.3082  0.4636  0.6391
 4127SOL     OW23599   2.641   6.875   0.486 -0.3835 -0.0416  0.2098
 4127SOL    HW123600   2.629   6.808   0.559 -0.5053 -0.8685 -0.5590
 4127SOL    HW223601   2.713   6.940   0.511 -0.1640 -0.5511  0.8964
 4128SOL     OW23602   0.506   1.341   2.909  0.0558 -0.6314 -0.1763
 4128SOL    HW123603   0.570   1.286   2.963  1.8678  0.3719 -1.2447
 4128SOL    HW223604   0.498   1.302   2.817  1.8037  1.1827 -1.1234
 4129SOL     OW23605   7.638   2.334   0.250  0.1692  0.0596  0.2388
 4129SOL    HW123606   7.729   2.296   0.238  0.2099  0.1067  0.3997
 4129SOL    HW223607   7.645   2.431   0.272  0.0658  0.1596 -0.1621
 4130SOL     OW23608   2.151   8.721   0.255  0.4519 -0.1719 -0.1418
 4130SOL    HW123609   2.105   8.782   0.320 -1.2633 -1.8100  0.2015
 4130SOL    HW223610   2.248   8.748   0.248 -0.3151  2.7751 -0.2418
 4131SOL     OW23611   8.039   6.057   2.375 -0.4851 -0.2841  0.0551
 4131SOL    HW123612   8.000   6.149   2.385 -2.6595 -1.3872  2.1222
 4131SOL    HW223613   8.126   6.053   2.424  0.4154  1.1065 -1.3797
 4132SOL     OW23614   8.530   4.497   3.470 -0.1163  0.0048 -0.0910
 4132SOL    HW123615   8.625   4.526   3.465  0.2624 -1.5442 -2.2441
 4132SOL    HW223616   8.477   4.541   3.397 -1.2670  1.5302  1.6129
 4133SOL     OW23617   5.278   1.746   0.730  0.4885  0.7358 -0.1618
 4133SOL    HW123618   5.215   1.712   0.660  0.0199  2.1861 -0.4693
 4133SOL    HW223619   5.342   1.810   0.688  1.1203  0.5135  0.4658
 4134SOL     OW23620   9.401   0.601   3.391  0.3721 -0.6568 -0.1703
 4134SOL    HW123621   9.441   0.537   3.457  0.2116 -0.2234  0.3532
 4134SOL    HW223622   9.474   0.649   3.343  0.5086 -2.1071 -1.4395
 4135SOL     OW23623   6.966   8.409   3.800  0.0609 -0.1238  0.0554
 4135SOL    HW123624   6.931   8.329   3.848  2.4274 -2.5656 -2.1494
 4135SOL    HW223625   6.892   8.454   3.750 -1.2794 -0.8938  1.3159
 4136SOL     OW23626   0.239   0.189   3.517 -0.3800  0.1465 -0.3468
 4136SOL    HW123627   0.329   0.147   3.523 -0.7828 -0.4908  1.9485
 4136SOL    HW223628   0.222   0.244   3.599 -2.5073 -0.6945 -0.1803
 4137SOL     OW23629   6.008   5.436   1.839 -0.1083 -0.1084  0.2462
 4137SOL    HW123630   6.039   5.408   1.930 -0.1259 -1.6661 -0.2032
 4137SOL    HW223631   5.948   5.515   1.847 -1.3449 -1.1648  1.7532
 4138SOL     OW23632   7.979   1.895   5.315 -1.0731  0.2622  0.4932
 4138SOL    HW123633   8.019   1.807   5.288 -0.4021  0.6835  0.1035
 4138SOL    HW223634   7.970   1.898   5.415 -0.7101 -0.0820  0.5368
 4139SOL     OW23635   0.204   1.967   5.267  0.3710 -0.9567  0.1019
 4139SOL    HW123636   0.266   1.922   5.203 -0.4152 -0.9899 -0.6573
 4139SOL    HW223637   0.201   1.915   5.352  0.3987 -1.6725 -0.3273
 4140SOL     OW23638   8.377   1.768   5.168 -0.0492  0.9912 -0.4163
 4140SOL    HW123639   8.408   1.835   5.101  1.1014  0.5571 -0.3117
 4140SOL    HW223640   8.440   1.691   5.170 -0.8352  0.3638  0.1800
 4141SOL     OW23641   9.285   4.904   4.910 -0.0071  0.2445 -0.3482
 4141SOL    HW123642   9.325   4.933   4.997 -1.2833  2.1117 -0.3272
 4141SOL    HW223643   9.275   4.805   4.908  0.6532  0.1371  1.3553
 4142SOL     OW23644   0.819   5.685   1.331 -0.6166  0.1724 -0.1766
 4142SOL    HW123645   0.902   5.628   1.333  0.0108  1.0701 -0.4259
 4142SOL    HW223646   0.819   5.741   1.248 -2.0457 -0.6594 -0.7594
 4143SOL     OW23647   5.276   3.499   0.787  0.1454  0.1801  0.3715
 4143SOL    HW123648   5.337   3.442   0.732  1.4103  0.6728  1.2661
 4143SOL    HW223649   5.326   3.577   0.823 -1.0508  0.6702  1.0114
 4144SOL     OW23650   4.209   3.643   2.445 -0.1313 -0.0842 -0.0578
 4144SOL    HW123651   4.302   3.680   2.437 -0.7272  1.2987 -0.7189
 4144SOL    HW223652   4.200   3.563   2.385  1.1220 -1.2524  1.2765
 4145SOL     OW23653   2.329   6.881   6.012 -0.4129  0.2955 -0.2717
 4145SOL    HW123654   2.262   6.922   5.950  0.2238  0.2090 -1.0159
 4145SOL    HW223655   2.408   6.849   5.960 -0.3181 -0.6930  0.4569
 4146SOL     OW23656   5.555   5.838   1.529 -0.2768  0.2391 -0.1112
 4146SOL    HW123657   5.485   5.908   1.519 -1.0572 -0.7057 -1.3741
 4146SOL    HW223658   5.645   5.878   1.512 -0.5510  1.3362  0.9934
 4147SOL     OW23659   3.592   0.562   4.230 -0.5653  0.2324 -0.2595
 4147SOL    HW123660   3.513   0.569   4.291 -0.0729  0.7160  0.3234
 4147SOL    HW223661   3.573   0.613   4.146 -0.9274  0.2286 -0.1824
 4148SOL     OW23662   9.683   8.819   2.230 -0.2984  0.2961  0.1584
 4148SOL    HW123663   9.595   8.773   2.224  0.9162 -2.2025  0.5765
 4148SOL    HW223664   9.740   8.793   2.152  1.0852 -0.4610  1.3788
 4149SOL     OW23665   7.333   3.593   0.564 -0.0954  0.1209  0.3276
 4149SOL    HW123666   7.406   3.623   0.626 -0.0810  0.6216  0.0668
 4149SOL    HW223667   7.357   3.503   0.526  0.6000  0.4832 -0.1000
 4150SOL     OW23668   3.823   1.082   3.732  0.1017 -0.0023 -0.2231
 4150SOL    HW123669   3.893   1.126   3.675  2.4020 -2.7585  0.3684
 4150SOL    HW223670   3.775   1.013   3.679 -0.1569 -0.1532  0.2088
 4151SOL     OW23671   5.311   4.354   0.722  0.2330 -0.3182  0.2913
 4151SOL    HW123672   5.318   4.284   0.651 -0.9736 -1.0767  0.9131
 4151SOL    HW223673   5.334   4.314   0.811 -2.1599 -0.3770  0.9037
 4152SOL     OW23674   8.413   9.566   3.501  0.0018  0.9005  0.3775
 4152SOL    HW123675   8.405   9.662   3.530 -1.8994  0.5212  1.1987
 4152SOL    HW223676   8.337   9.543   3.441  0.1956 -0.2187  0.5451
 4153SOL     OW23677   7.084   1.987   1.689  0.0647 -0.4519  0.3338
 4153SOL    HW123678   6.989   1.955   1.690  0.1363 -0.7044 -0.6265
 4153SOL    HW223679   7.090   2.070   1.633  0.4206 -0.4549  0.3687
 4154SOL     OW23680   6.303   7.756   4.268  0.2052  0.1467 -0.0560
 4154SOL    HW123681   6.218   7.779   4.221 -1.0261  1.4104  2.6317
 4154SOL    HW223682   6.376   7.817   4.238 -0.2393  0.1208 -1.1925
 4155SOL     OW23683   9.230   6.089   4.630  0.1258  0.6536 -0.0218
 4155SOL    HW123684   9.143   6.136   4.644 -0.5501  0.0307 -1.9301
 4155SOL    HW223685   9.213   5.996   4.598  1.4889  0.1178  0.7583
 4156SOL     OW23686   2.750   9.966   2.511 -0.1617 -0.0685 -0.1488
 4156SOL    HW123687   2.707   9.886   2.554 -0.4318  0.4277  0.4942
 4156SOL    HW223688   2.733   9.963   2.412  1.5750 -1.9026 -0.4299
 4157SOL     OW23689   0.843   2.404   1.807  0.6564  0.1709 -0.1394
 4157SOL    HW123690   0.756   2.448   1.832  1.5094  0.5036  2.2929
 4157SOL    HW223691   0.888   2.458   1.736 -0.0623  1.2367  0.1993
 4158SOL     OW23692   6.680   1.739   1.822 -0.6175 -0.2459 -0.1601
 4158SOL    HW123693   6.630   1.825   1.812  1.3794  1.2462  2.1989
 4158SOL    HW223694   6.756   1.751   1.886 -1.3991 -4.2697  1.6850
 4159SOL     OW23695   4.331   9.759   0.671  0.3923 -0.1482 -0.3004
 4159SOL    HW123696   4.276   9.677   0.655 -0.3453  0.3598 -0.3929
 4159SOL    HW223697   4.325   9.819   0.592 -0.6549  0.8860  0.5491
 4160SOL     OW23698   5.106   8.641   2.226  0.4389  0.0032 -0.1795
 4160SOL    HW123699   5.175   8.674   2.161  1.2918  2.0084  1.6763
 4160SOL    HW223700   5.022   8.618   2.177  0.8280  2.1691 -1.9277
 4161SOL     OW23701   2.740   7.916   5.194 -0.0234 -0.0538 -0.5288
 4161SOL    HW123702   2.839   7.929   5.202  0.0765 -0.0546 -1.6529
 4161SOL    HW223703   2.706   7.869   5.275  0.3771  2.7960  1.3571
 4162SOL     OW23704   0.916   0.368   3.172 -0.4133 -0.4210  0.5538
 4162SOL    HW123705   0.845   0.330   3.231 -0.6858 -0.8468 -0.0550
 4162SOL    HW223706   0.907   0.331   3.080 -0.1917  0.5099  0.1528
 4163SOL     OW23707   8.535   1.333   3.158 -0.8894  0.2644  0.0836
 4163SOL    HW123708   8.496   1.377   3.077 -0.1422  1.4994  0.3853
 4163SOL    HW223709   8.622   1.376   3.181 -0.6748 -0.6578  1.0341
 4164SOL     OW23710   8.312   4.214   5.948 -0.1271 -0.3578  0.1848
 4164SOL    HW123711   8.342   4.177   5.860 -2.9215  0.1012 -0.9917
 4164SOL    HW223712   8.372   4.290   5.974  1.9466 -1.7621 -0.2902
 4165SOL     OW23713   2.982   1.123   2.072  0.2140 -0.0045 -0.5102
 4165SOL    HW123714   2.965   1.025   2.086 -1.1222  0.1994 -0.6273
 4165SOL    HW223715   2.896   1.173   2.082  0.9980  1.2313  0.1316
 4166SOL     OW23716   4.070   4.926   5.109  0.1142  0.6083  0.5565
 4166SOL    HW123717   4.114   4.897   5.194  0.1354  0.0896  0.3722
 4166SOL    HW223718   3.981   4.967   5.130  0.6930  1.6785  0.9290
 4167SOL     OW23719   5.480   1.566   6.167  0.4437 -0.0474  0.3629
 4167SOL    HW123720   5.562   1.530   6.213  0.8259  1.1476  0.6470
 4167SOL    HW223721   5.424   1.615   6.234 -0.3540 -0.5956  0.0991
 4168SOL     OW23722   2.224   9.853   0.531  0.2938  0.3160  0.2860
 4168SOL    HW123723   2.245   9.834   0.627  1.5115 -0.8670 -0.1924
 4168SOL    HW223724   2.272   9.935   0.502  1.8935 -0.6763  0.0434
 4169SOL     OW23725   5.727   4.809   0.867  0.6314  0.3769 -0.3325
 4169SOL    HW123726   5.653   4.826   0.931  0.3091 -1.5179 -0.1599
 4169SOL    HW223727   5.727   4.712   0.842  3.8699  0.0529  0.7008
 4170SOL     OW23728   1.487   0.341   6.269  0.9118  0.1676 -0.2156
 4170SOL    HW123729   1.423   0.276   6.309 -0.0204  1.5302  0.5415
 4170SOL    HW223730   1.546   0.294   6.203 -1.9454 -0.7795 -2.1498
 4171SOL     OW23731   7.181   8.574   2.666  0.3406  0.0076  0.3862
 4171SOL    HW123732   7.103   8.538   2.717  0.8137 -0.0776  1.0572
 4171SOL    HW223733   7.155   8.660   2.622  0.0583  0.3157  1.1498
 4172SOL     OW23734   2.697   7.592   3.417 -0.2962 -0.0627 -0.1834
 4172SOL    HW123735   2.787   7.635   3.410 -0.5775  0.7288  0.9199
 4172SOL    HW223736   2.690   7.543   3.503 -1.0799  0.2422 -0.0702
 4173SOL     OW23737   5.965   2.459   5.986 -0.3164 -0.0199  0.0908
 4173SOL    HW123738   5.975   2.493   6.080 -0.8781 -2.2924  1.0043
 4173SOL    HW223739   5.869   2.465   5.959 -0.1612  0.5916 -0.3282
 4174SOL     OW23740   7.123   6.640   3.297 -0.0591 -0.2195  0.4565
 4174SOL    HW123741   7.059   6.627   3.372  0.0866 -0.0855  0.6043
 4174SOL    HW223742   7.177   6.723   3.313 -1.9317  1.3481 -1.1435
 4175SOL     OW23743   4.868   9.866   4.780  0.3415 -0.2276 -0.3874
 4175SOL    HW123744   4.913   9.948   4.745  1.4010 -0.5283  0.2493
 4175SOL    HW223745   4.865   9.797   4.709 -0.0087  0.1500 -0.7396
 4176SOL     OW23746   3.359   1.902   0.819  0.8799 -0.1932 -0.3844
 4176SOL    HW123747   3.333   1.972   0.753 -0.5295 -2.0341 -1.8008
 4176SOL    HW223748   3.428   1.842   0.780  1.2012 -0.3366  0.3860
 4177SOL     OW23749   2.613   9.047   2.043  0.2395 -0.2646  0.8281
 4177SOL    HW123750   2.645   9.059   1.949  3.1955  1.6704  2.0075
 4177SOL    HW223751   2.525   9.000   2.042 -0.6041  1.1664 -2.9950
 4178SOL     OW23752   5.960   4.178   8.016 -0.0740 -0.0905 -0.2208
 4178SOL    HW123753   6.020   4.099   8.024 -0.0487  0.0164  0.8205
 4178SOL    HW223754   5.984   4.231   7.935  1.6097  0.2556  0.4828
 4179SOL     OW23755   3.181   0.323   3.991  0.0186 -0.7515  0.0526
 4179SOL    HW123756   3.214   0.302   4.083  0.0939 -0.5191  0.0801
 4179SOL    HW223757   3.082   0.333   3.993  0.1043  0.1248  0.2849
 4180SOL     OW23758   7.733   9.630   6.428  0.0105 -0.5262  0.0628
 4180SOL    HW123759   7.754   9.546   6.478 -1.3755 -0.9421 -0.0167
 4180SOL    HW223760   7.694   9.606   6.339 -0.1048  0.2052 -0.0873
 4181SOL     OW23761   5.993   8.219   6.435 -0.1099  0.6149 -0.2366
 4181SOL    HW123762   6.088   8.241   6.457  0.2846 -0.0088 -1.3076
 4181SOL    HW223763   5.982   8.210   6.336 -0.7328 -1.8015  0.0102
 4182SOL     OW23764   1.617   0.260   2.880  0.1165 -0.2252 -0.4186
 4182SOL    HW123765   1.576   0.177   2.841 -0.1712  0.5902 -1.8937
 4182SOL    HW223766   1.658   0.315   2.807  1.0609  0.5247  0.6490
 4183SOL     OW23767   9.428   4.447   5.471  0.2874 -1.3088  0.4206
 4183SOL    HW123768   9.492   4.516   5.505 -0.8381  0.3788 -0.7823
 4183SOL    HW223769   9.467   4.356   5.484  1.7431 -0.4674  2.1813
 4184SOL     OW23770   7.651   0.991   2.087 -0.2420 -0.4028  0.1714
 4184SOL    HW123771   7.599   0.925   2.142 -1.7593  0.7613  0.1627
 4184SOL    HW223772   7.596   1.073   2.072  1.8458  1.1463  0.6953
 4185SOL     OW23773   5.152   8.856   3.508  0.1181 -0.2001  0.3008
 4185SOL    HW123774   5.053   8.862   3.526 -0.0183  0.1552 -0.5229
 4185SOL    HW223775   5.174   8.766   3.472 -0.0384  0.0044 -0.3025
 4186SOL     OW23776   8.581   8.542   2.980  0.4424  0.2117 -0.1470
 4186SOL    HW123777   8.492   8.558   2.936  0.6284 -0.4965 -0.8048
 4186SOL    HW223778   8.608   8.622   3.032 -0.6270  0.3971  0.1214
 4187SOL     OW23779   7.713   5.387   6.347 -0.9002 -0.3837 -0.3313
 4187SOL    HW123780   7.755   5.337   6.422 -0.1644 -1.8738 -1.7045
 4187SOL    HW223781   7.783   5.417   6.282 -1.4802  1.2473 -0.2288
 4188SOL     OW23782   7.366   6.451   5.774 -0.9816 -0.4428  0.9279
 4188SOL    HW123783   7.429   6.448   5.696 -1.2381  0.2586  0.6973
 4188SOL    HW223784   7.392   6.526   5.835 -2.4077  0.6870  0.1563
 4189SOL     OW23785   7.016   7.788   4.027  0.0378 -0.2244  0.1638
 4189SOL    HW123786   7.070   7.831   4.099  0.0941 -0.0708  0.0312
 4189SOL    HW223787   6.989   7.696   4.055 -2.1194  0.7656  1.4599
 4190SOL     OW23788   9.982   2.810   6.357 -0.1997 -0.0765  0.2533
 4190SOL    HW123789  10.048   2.871   6.401 -0.0784 -0.8918  1.2158
 4190SOL    HW223790   9.890   2.847   6.368  0.0537  0.9672 -0.9272
 4191SOL     OW23791   6.574   9.312   4.327 -0.8898 -0.0473  0.5644
 4191SOL    HW123792   6.674   9.314   4.319 -1.0785  0.9112 -1.7526
 4191SOL    HW223793   6.541   9.220   4.304 -0.6121 -0.1488  0.5665
 4192SOL     OW23794   0.499   5.270   1.882  0.1541  0.7905 -0.0523
 4192SOL    HW123795   0.498   5.366   1.910 -1.0525  1.1001 -1.1315
 4192SOL    HW223796   0.414   5.248   1.835  0.3690 -0.8461  0.2925
 4193SOL     OW23797   1.324   0.235   3.149  0.8967 -0.2077 -0.1325
 4193SOL    HW123798   1.319   0.305   3.077  1.6219  0.4212  0.4331
 4193SOL    HW223799   1.412   0.240   3.195 -0.1663  0.4208  1.8665
 4194SOL     OW23800   1.770   7.291   0.074 -0.0117  0.8919  0.2096
 4194SOL    HW123801   1.792   7.274   0.170 -3.9316 -0.0998  1.0142
 4194SOL    HW223802   1.729   7.381   0.064 -4.0078 -0.7920  0.3505
 4195SOL     OW23803   0.998   8.617   2.785  0.0043 -0.1333  0.2382
 4195SOL    HW123804   0.913   8.564   2.791 -0.5065  0.5805 -0.6672
 4195SOL    HW223805   1.058   8.576   2.716  1.4654 -2.1003  2.5504
 4196SOL     OW23806   3.225   4.961   2.408  0.2625  0.2310 -0.7510
 4196SOL    HW123807   3.243   4.947   2.505  0.9390  0.0133 -0.9007
 4196SOL    HW223808   3.247   4.878   2.358 -1.3233 -0.0818 -0.9383
 4197SOL     OW23809   5.808   2.140   3.670 -0.4331 -0.0325 -0.0509
 4197SOL    HW123810   5.838   2.235   3.683 -0.2357 -0.1856  0.6578
 4197SOL    HW223811   5.822   2.089   3.755 -3.3336  0.0542  0.5370
 4198SOL     OW23812   5.217   8.902   5.944 -0.1944  0.5156 -0.1296
 4198SOL    HW123813   5.261   8.945   6.022 -3.0103  1.3860  1.0438
 4198SOL    HW223814   5.178   8.973   5.884 -1.9065 -0.2583  0.0366
 4199SOL     OW23815   0.785   6.925   2.139 -0.3962 -0.0814 -0.4095
 4199SOL    HW123816   0.694   6.892   2.164 -0.1057 -0.0504  0.6891
 4199SOL    HW223817   0.777   6.986   2.060 -1.0220 -2.1605 -2.0031
 4200SOL     OW23818   7.058   1.317   5.289  0.4184  0.1912  0.0134
 4200SOL    HW123819   7.145   1.346   5.329  0.0146 -0.5283  1.4779
 4200SOL    HW223820   6.983   1.362   5.337 -0.0196  0.9856 -1.3920
 4201SOL     OW23821   6.114   3.989   0.179  0.3708 -0.1714  0.2499
 4201SOL    HW123822   6.179   4.050   0.134  2.5048 -1.1757  1.8473
 4201SOL    HW223823   6.076   3.925   0.113  1.2343  0.2581 -0.6641
 4202SOL     OW23824   9.401   0.526   1.216 -0.0283 -0.2739 -0.6302
 4202SOL    HW123825   9.304   0.513   1.195  0.0474 -1.8458 -0.0824
 4202SOL    HW223826   9.419   0.498   1.311  0.8453  0.6066 -0.5242
 4203SOL     OW23827   5.198   2.052   4.373 -0.2440 -0.0303 -0.0032
 4203SOL    HW123828   5.257   1.976   4.345  0.1063 -0.2053  1.1928
 4203SOL    HW223829   5.254   2.122   4.418 -0.9841 -0.3296  1.4049
 4204SOL     OW23830   2.030   0.811   3.198 -0.7488 -0.0314 -0.0186
 4204SOL    HW123831   1.981   0.724   3.188  0.1583 -0.5209 -0.2326
 4204SOL    HW223832   1.981   0.869   3.263 -0.4906 -1.3421  1.3827
 4205SOL     OW23833   8.926   0.036   1.805  0.1470  0.7731 -0.0493
 4205SOL    HW123834   8.868  -0.002   1.733  2.5358 -1.7941 -0.7474
 4205SOL    HW223835   8.927  -0.026   1.883  0.9797  1.3845  0.4313
 4206SOL     OW23836   3.777   4.532   4.481 -0.2968 -0.0688  0.6130
 4206SOL    HW123837   3.685   4.571   4.475 -0.8886 -1.6060 -0.6139
 4206SOL    HW223838   3.843   4.598   4.445 -1.0915  0.4758  0.1410
 4207SOL     OW23839   2.855   5.379   4.751  0.0688 -0.1143 -0.6672
 4207SOL    HW123840   2.930   5.408   4.811 -1.6979 -0.2964  1.7152
 4207SOL    HW223841   2.782   5.447   4.754 -0.7497 -0.9460 -1.3020
 4208SOL     OW23842   7.379   1.743   6.238  0.0751  0.6113 -0.2932
 4208SOL    HW123843   7.419   1.810   6.300  2.5844 -1.6161  0.5723
 4208SOL    HW223844   7.296   1.704   6.279  0.1562  1.1779  0.4159
 4209SOL     OW23845   7.826   6.760   5.637 -0.5895  0.3376  0.0271
 4209SOL    HW123846   7.837   6.774   5.538 -0.0473  1.0587  0.1832
 4209SOL    HW223847   7.873   6.833   5.686 -2.0594  0.7717  0.8112
 4210SOL     OW23848   4.573   3.531   4.714  0.8327 -0.3592  0.2813
 4210SOL    HW123849   4.489   3.562   4.670 -0.3629 -2.4600  1.0288
 4210SOL    HW223850   4.626   3.475   4.649  0.7698 -0.5480  0.3930
 4211SOL     OW23851   2.187   4.909   0.954  0.8187  0.5285  0.6315
 4211SOL    HW123852   2.270   4.908   0.899  1.2803 -0.1239  1.3329
 4211SOL    HW223853   2.117   4.852   0.911  0.7594  1.0149  0.0824
 4212SOL     OW23854   7.953   2.088   3.279 -0.5919 -0.2546  0.2188
 4212SOL    HW123855   7.906   2.000   3.287 -2.6335  0.9079  1.5751
 4212SOL    HW223856   8.039   2.084   3.330  0.1897 -1.9921 -1.1720
 4213SOL     OW23857   7.021   8.517   5.851  0.6444  0.5373 -0.4532
 4213SOL    HW123858   6.963   8.444   5.815  0.0540  0.3431  0.8584
 4213SOL    HW223859   6.972   8.604   5.846  0.8458  0.6322 -0.8004
 4214SOL     OW23860   6.678   2.103   5.876 -0.2126  0.0571  0.6274
 4214SOL    HW123861   6.656   2.173   5.807 -0.8737  0.5413  1.3276
 4214SOL    HW223862   6.604   2.037   5.882 -0.2804  0.1694  1.0656
 4215SOL     OW23863   6.540   5.242   2.310  0.0751  0.5218 -0.2962
 4215SOL    HW123864   6.587   5.159   2.283 -0.7362  0.0785 -0.3696
 4215SOL    HW223865   6.602   5.301   2.361  0.2934 -0.6790  0.8421
 4216SOL     OW23866   3.778   3.098   0.925 -0.0231 -0.6261  0.0571
 4216SOL    HW123867   3.826   3.185   0.942  1.2514 -1.1795 -0.6451
 4216SOL    HW223868   3.810   3.030   0.991 -1.7308 -0.3124  1.2291
 4217SOL     OW23869   2.915   5.137   1.790 -0.0907 -0.6743  0.5552
 4217SOL    HW123870   2.955   5.052   1.757 -1.3422 -0.2146 -2.2235
 4217SOL    HW223871   2.899   5.199   1.714  1.0963  2.2269  2.5542
 4218SOL     OW23872   1.826   9.373   4.304  0.3710 -0.1602  0.1158
 4218SOL    HW123873   1.768   9.327   4.237  0.2298  1.5635 -0.9548
 4218SOL    HW223874   1.913   9.397   4.261 -0.1166  1.8927  0.2445
 4219SOL     OW23875   1.232   3.480   3.256 -0.6609 -0.1976 -0.1614
 4219SOL    HW123876   1.199   3.391   3.286 -3.1710  0.9330  0.6474
 4219SOL    HW223877   1.179   3.510   3.177 -1.4661  1.5444  0.9837
 4220SOL     OW23878   9.213   3.202   0.831 -0.4066 -0.6333  0.2886
 4220SOL    HW123879   9.183   3.243   0.917 -0.3761 -0.4805  0.2262
 4220SOL    HW223880   9.301   3.157   0.845 -0.4253 -0.6521  0.3488
 4221SOL     OW23881   3.653   6.903   3.814 -0.1874  0.2055 -0.4577
 4221SOL    HW123882   3.701   6.822   3.849 -0.8863 -0.2644 -0.5808
 4221SOL    HW223883   3.714   6.982   3.820  0.2226 -0.1643  0.4200
 4222SOL     OW23884   6.469   9.903   7.008  0.2131  0.7882 -0.2534
 4222SOL    HW123885   6.485   9.923   6.912  0.0924  1.3921 -0.1497
 4222SOL    HW223886   6.370   9.901   7.026  0.2390  0.8714 -0.1036
 4223SOL     OW23887   9.360   0.921   0.733  0.5213 -0.2029 -0.1647
 4223SOL    HW123888   9.454   0.951   0.722  0.0189  1.8011  0.5972
 4223SOL    HW223889   9.341   0.909   0.831  0.0909 -0.8978 -0.3376
 4224SOL     OW23890   0.085   6.544   3.066 -0.8028  0.0051 -0.0130
 4224SOL    HW123891   0.092   6.614   3.137  0.1023 -1.8953  1.8377
 4224SOL    HW223892  -0.008   6.543   3.029 -0.6719  2.5474 -0.4826
 4225SOL     OW23893   3.495   3.901   1.537 -0.2395 -0.0211  0.3991
 4225SOL    HW123894   3.483   3.986   1.486  1.3053 -0.2281 -0.3593
 4225SOL    HW223895   3.578   3.855   1.504 -1.5547 -2.2805  0.1584
 4226SOL     OW23896   3.199   8.512   5.735 -0.5397 -0.0539 -0.0256
 4226SOL    HW123897   3.279   8.454   5.723 -0.9541 -0.6084 -0.1469
 4226SOL    HW223898   3.207   8.564   5.820 -0.0596 -0.1204 -0.0319
 4227SOL     OW23899   3.123   1.876   0.104 -0.1068  0.0487 -0.1776
 4227SOL    HW123900   3.032   1.901   0.070  1.1511 -0.2571 -3.9755
 4227SOL    HW223901   3.126   1.777   0.119 -0.8646  0.2657  1.6688
 4228SOL     OW23902   7.060   7.914   6.393  0.1759 -0.0093  0.3484
 4228SOL    HW123903   6.993   7.906   6.320 -0.1400 -1.9694  0.8315
 4228SOL    HW223904   7.021   7.880   6.479  0.5646  2.1700  1.4379
 4229SOL     OW23905   2.280   4.753   1.305 -0.3131  0.7866  0.1425
 4229SOL    HW123906   2.196   4.767   1.253  0.4797  0.9595 -1.1175
 4229SOL    HW223907   2.296   4.655   1.318  0.0994  0.6955 -0.9823
 4230SOL     OW23908   8.965   3.648   5.535  0.0850  0.0968 -0.4027
 4230SOL    HW123909   8.985   3.575   5.601  0.6657 -0.0458 -0.7347
 4230SOL    HW223910   8.981   3.737   5.577  0.1853  0.0133 -0.2652
 4231SOL     OW23911   4.403   9.035   3.917 -0.6638  0.5983 -0.2673
 4231SOL    HW123912   4.344   9.076   3.986 -0.5443  1.4519 -0.6642
 4231SOL    HW223913   4.494   9.078   3.921  0.6216 -2.1148  1.7416
 4232SOL     OW23914   9.704   2.831   1.678  0.4178 -0.3323 -0.2251
 4232SOL    HW123915   9.699   2.735   1.704  0.8542 -0.0431  0.9646
 4232SOL    HW223916   9.785   2.847   1.622 -0.2216 -0.8511 -1.3175
 4233SOL     OW23917   4.111   0.885   6.072  0.2945 -0.0546  0.1325
 4233SOL    HW123918   4.091   0.826   5.993 -1.3392  0.3297  0.2397
 4233SOL    HW223919   4.051   0.859   6.148  1.4113  0.0142  1.0365
 4234SOL     OW23920   8.890   6.795   0.810  0.0967  0.5237  0.4273
 4234SOL    HW123921   8.815   6.735   0.784  0.8461 -0.0443 -0.4461
 4234SOL    HW223922   8.956   6.801   0.735 -0.2030  2.8349  0.3059
 4235SOL     OW23923   2.702   0.234   3.113  0.0894  0.0162  0.5798
 4235SOL    HW123924   2.687   0.220   3.015  0.9897 -0.0430  0.4473
 4235SOL    HW223925   2.749   0.154   3.150  2.7451  1.4322  0.3933
 4236SOL     OW23926   7.250   0.689   1.552  0.1156 -0.5816  0.3787
 4236SOL    HW123927   7.298   0.651   1.473 -1.8433 -2.1309 -0.0829
 4236SOL    HW223928   7.166   0.734   1.522  1.5218  2.6730  1.1082
 4237SOL     OW23929   7.432   7.859   2.532 -0.1291  0.3125 -0.4651
 4237SOL    HW123930   7.508   7.817   2.582 -1.6803 -1.9851  0.0437
 4237SOL    HW223931   7.411   7.948   2.573  1.6132  0.5361  0.0226
 4238SOL     OW23932   3.590   5.684   1.024  0.3560  0.2838 -0.5096
 4238SOL    HW123933   3.501   5.713   0.988 -0.5518 -0.9144  0.6787
 4238SOL    HW223934   3.659   5.689   0.952 -0.8424  0.5155 -1.6509
 4239SOL     OW23935   0.198   5.496   2.011 -0.1386 -0.3458 -0.3263
 4239SOL    HW123936   0.194   5.560   1.934 -0.3175  0.4232  0.3131
 4239SOL    HW223937   0.277   5.437   2.001 -0.1839 -0.2855 -1.1272
 4240SOL     OW23938   3.116   7.123   3.947 -0.0890 -0.2152  0.4496
 4240SOL    HW123939   3.214   7.117   3.966 -0.2541  0.5757  1.6675
 4240SOL    HW223940   3.081   7.034   3.920  0.7740 -0.7281  1.0168
 4241SOL     OW23941   8.710   7.969   1.821 -0.0235  0.1414 -0.2757
 4241SOL    HW123942   8.687   7.964   1.724  1.8996 -1.0466 -0.7158
 4241SOL    HW223943   8.637   7.927   1.875  0.0812 -1.6185 -1.4394
 4242SOL     OW23944   6.931   1.088   1.138 -0.4332  0.5126  0.5098
 4242SOL    HW123945   6.917   1.057   1.232 -0.6968 -1.7656 -0.2413
 4242SOL    HW223946   6.849   1.066   1.084  0.5050 -0.0599 -0.6990
 4243SOL     OW23947   7.724   9.732   5.945  0.6814  0.0481 -0.4358
 4243SOL    HW123948   7.808   9.699   5.902  1.8617  0.4496  1.4805
 4243SOL    HW223949   7.712   9.830   5.925 -0.6409 -0.5290 -2.6959
 4244SOL     OW23950   0.676   9.549   0.990 -0.1113  0.1251 -0.8982
 4244SOL    HW123951   0.752   9.610   0.967 -0.7866  1.3174 -0.0245
 4244SOL    HW223952   0.642   9.571   1.081 -1.0269 -0.9042 -0.9799
 4245SOL     OW23953   8.180   6.011   2.686 -0.5877 -0.2904 -0.0398
 4245SOL    HW123954   8.086   5.978   2.701 -1.5442  1.7188 -1.3471
 4245SOL    HW223955   8.220   5.963   2.609 -1.4322  0.5017 -0.9902
 4246SOL     OW23956   5.910   9.515   2.444  0.1530 -0.4071  0.4786
 4246SOL    HW123957   6.010   9.523   2.437  0.1620 -0.9052  0.0629
 4246SOL    HW223958   5.867   9.559   2.366 -0.0151  1.2648  1.4871
 4247SOL     OW23959   5.765   4.087   0.140 -0.5598 -0.3244  0.4676
 4247SOL    HW123960   5.726   4.076   0.049  2.5740  1.0689 -1.1268
 4247SOL    HW223961   5.817   4.005   0.165  1.4842  0.6247 -0.5359
 4248SOL     OW23962   5.271   7.927   6.010 -0.3368 -0.2154  0.2778
 4248SOL    HW123963   5.318   7.951   5.925  0.6584 -0.2751  0.8006
 4248SOL    HW223964   5.175   7.955   6.004 -0.5417 -1.1609 -1.2676
 4249SOL     OW23965   2.190   1.042   3.175 -0.1123 -0.3991 -0.1234
 4249SOL    HW123966   2.287   1.039   3.200  0.2738 -0.8498 -1.6196
 4249SOL    HW223967   2.153   0.949   3.176 -0.5662 -0.2097  0.5947
 4250SOL     OW23968   8.770   8.434   6.194 -0.0454  0.9568 -0.8379
 4250SOL    HW123969   8.827   8.510   6.223  0.3766  1.1314 -2.0659
 4250SOL    HW223970   8.776   8.360   6.261 -2.3141  2.8715  1.5751
 4251SOL     OW23971   4.109   2.622   4.458 -0.7504 -0.4635  0.3382
 4251SOL    HW123972   4.036   2.664   4.511  1.0882  0.8813  1.8820
 4251SOL    HW223973   4.181   2.591   4.519  1.0965  0.4845 -1.2938
 4252SOL     OW23974   9.212   2.060   1.169 -0.3211 -0.0935 -0.0073
 4252SOL    HW123975   9.122   2.092   1.142 -0.1005 -0.5015 -1.2457
 4252SOL    HW223976   9.281   2.126   1.141 -0.3768  1.1464  2.6101
 4253SOL     OW23977   2.714   1.054   5.283  0.1821 -0.0579  0.1756
 4253SOL    HW123978   2.800   1.103   5.295 -0.3154  0.7339  0.5420
 4253SOL    HW223979   2.698   1.038   5.186  0.6850 -0.1147  0.1002
 4254SOL     OW23980   9.988   3.697   0.350 -0.7302  0.1696 -0.2436
 4254SOL    HW123981  10.046   3.665   0.425  0.1354 -0.9726 -1.3663
 4254SOL    HW223982  10.042   3.699   0.265 -2.3814 -1.0972 -1.3596
 4255SOL     OW23983   0.420   3.725   0.676  0.4219  0.2024 -0.1327
 4255SOL    HW123984   0.464   3.668   0.746  1.2783  1.3045  0.2548
 4255SOL    HW223985   0.490   3.760   0.614  0.0579  1.7036  0.2815
 4256SOL     OW23986   3.323   7.679   2.711  0.0430  0.1944  0.2262
 4256SOL    HW123987   3.383   7.759   2.720 -0.3121  0.3577  1.1778
 4256SOL    HW223988   3.297   7.647   2.802 -0.9161 -0.1833 -0.1763
 4257SOL     OW23989   0.275   0.296   5.523  0.3509 -0.1023  0.6865
 4257SOL    HW123990   0.370   0.326   5.527 -0.0207  1.1245  0.7387
 4257SOL    HW223991   0.217   0.374   5.501 -0.5969 -0.9422  0.1770
 4258SOL     OW23992   6.693   0.700   3.002  0.4854 -0.7567 -0.2571
 4258SOL    HW123993   6.659   0.747   2.921 -0.0896 -0.6371  0.0481
 4258SOL    HW223994   6.617   0.653   3.048  0.6045  0.0671  0.8093
 4259SOL     OW23995   6.001   5.796   0.562 -0.2248  0.1582  0.3611
 4259SOL    HW123996   6.053   5.863   0.615 -0.4791  2.2279 -1.9324
 4259SOL    HW223997   6.029   5.704   0.589  0.6493  1.1589  3.0535
 4260SOL     OW23998   5.277   0.629   1.150  0.4202 -0.7033  0.0258
 4260SOL    HW123999   5.259   0.626   1.051  0.2389 -4.0718  0.1153
 4260SOL    HW224000   5.192   0.645   1.199  0.6988  2.2947 -0.3690
 4261SOL     OW24001   7.156   7.862   3.785  0.1347  0.5954  0.6423
 4261SOL    HW124002   7.119   7.830   3.872 -0.3927 -0.1130  0.1694
 4261SOL    HW224003   7.111   7.947   3.759  0.0187  0.6067  0.8803
 4262SOL     OW24004   1.956   6.442   2.803  0.3375 -0.0571 -0.0482
 4262SOL    HW124005   2.055   6.451   2.805  0.4654 -1.3002 -0.3815
 4262SOL    HW224006   1.930   6.368   2.741 -0.7914  0.1633  0.1397
 4263SOL     OW24007   5.054   7.152   2.449 -0.0606 -0.1304 -0.1276
 4263SOL    HW124008   4.995   7.211   2.505  0.7864  0.2473  0.3850
 4263SOL    HW224009   5.054   7.185   2.355 -1.5616 -0.8149 -0.3686
 4264SOL     OW24010   7.322   0.094   7.003  0.2652 -0.2445  0.1224
 4264SOL    HW124011   7.318   0.177   6.947 -1.6486 -0.2315  0.2460
 4264SOL    HW224012   7.398   0.037   6.973  2.4809  2.1899  0.9541
 4265SOL     OW24013   7.980   0.018   2.623  0.5622  0.4977 -0.3632
 4265SOL    HW124014   8.011  -0.065   2.670  0.5958  0.3485 -0.6509
 4265SOL    HW224015   7.960  -0.002   2.528 -0.9128  0.4903 -0.0568
 4266SOL     OW24016   6.636   9.564   2.430 -0.1603  0.1647 -0.2842
 4266SOL    HW124017   6.615   9.635   2.497 -0.3299 -0.6657  0.5516
 4266SOL    HW224018   6.676   9.485   2.476 -3.3769 -1.7676 -0.6919
 4267SOL     OW24019   5.455   1.280   3.741 -0.4867  0.1840 -0.3313
 4267SOL    HW124020   5.371   1.284   3.795 -0.5391 -1.2355 -0.3055
 4267SOL    HW224021   5.489   1.186   3.738  1.5335  0.8666  0.3250
 4268SOL     OW24022   9.027   6.742   2.919  0.1496 -1.3208  0.7264
 4268SOL    HW124023   9.078   6.707   2.998  2.7087 -3.0675 -1.5991
 4268SOL    HW224024   9.091   6.782   2.854 -1.8704 -0.3023 -0.6645
 4269SOL     OW24025   5.281   1.612   1.835  0.7154  0.0130 -0.0152
 4269SOL    HW124026   5.284   1.696   1.890 -2.0370  1.1421 -1.4673
 4269SOL    HW224027   5.374   1.580   1.818  1.7487  1.8378  1.9786
 4270SOL     OW24028   2.314   4.215   1.289 -0.1847 -0.2134 -0.3867
 4270SOL    HW124029   2.344   4.184   1.379  1.0953  0.0944 -0.6939
 4270SOL    HW224030   2.386   4.195   1.222 -1.3190 -0.8744 -1.4236
 4271SOL     OW24031   7.252   3.035   1.259 -0.2311 -0.4684 -0.2694
 4271SOL    HW124032   7.216   2.997   1.174 -1.1467 -0.6424  0.1982
 4271SOL    HW224033   7.274   2.960   1.322 -1.0743 -0.2675  0.2623
 4272SOL     OW24034   2.086   8.362   0.301  0.5793 -0.1191  0.0493
 4272SOL    HW124035   2.013   8.335   0.364 -0.9682  1.7507 -0.8843
 4272SOL    HW224036   2.157   8.411   0.351  0.5691 -0.8104  0.7455
 4273SOL     OW24037   8.167   8.015   6.403 -0.0371 -0.1310 -0.1475
 4273SOL    HW124038   8.242   7.973   6.455 -0.4202  0.0059  0.5095
 4273SOL    HW224039   8.173   7.984   6.308  1.0877  0.1822 -0.1958
 4274SOL     OW24040   3.621   7.254   0.614 -0.0965  0.0584 -0.0560
 4274SOL    HW124041   3.571   7.191   0.673 -2.9774  2.0407 -0.2582
 4274SOL    HW224042   3.659   7.203   0.537 -1.6782 -1.5896  0.2025
 4275SOL     OW24043   5.031   1.003   6.616  0.0513 -0.1725  0.5059
 4275SOL    HW124044   5.099   1.037   6.681  0.8673  1.0728 -0.9785
 4275SOL    HW224045   5.018   1.070   6.543 -1.1646 -1.3731 -0.3974
 4276SOL     OW24046   2.196   0.984   5.246 -0.3612  0.0481 -0.4857
 4276SOL    HW124047   2.258   0.909   5.223 -0.5127 -0.1191 -0.3494
 4276SOL    HW224048   2.238   1.071   5.219 -0.1006 -0.0696 -0.4664
 4277SOL     OW24049   8.700   6.507   0.066 -0.1370 -0.1921  0.3698
 4277SOL    HW124050   8.751   6.576   0.118 -1.9563  0.7300  0.9408
 4277SOL    HW224051   8.745   6.492  -0.022  1.5272  0.0824  1.1446
 4278SOL     OW24052   7.538   2.019   0.648 -0.2148 -0.5790 -0.3374
 4278SOL    HW124053   7.480   1.973   0.716 -0.5786 -0.1151 -0.3324
 4278SOL    HW224054   7.481   2.061   0.578  0.0437  1.0110  0.3876
 4279SOL     OW24055   1.792   4.092   5.332  0.1489  0.2157 -0.0721
 4279SOL    HW124056   1.762   4.187   5.341 -2.2932 -0.3615 -1.4918
 4279SOL    HW224057   1.888   4.090   5.304 -0.2687  2.3198 -1.8169
 4280SOL     OW24058   2.842   9.291   0.733 -0.4634 -0.2819  0.0524
 4280SOL    HW124059   2.793   9.241   0.804 -2.9400  1.1040 -0.6051
 4280SOL    HW224060   2.903   9.358   0.775  1.1730 -2.2683  0.8942
 4281SOL     OW24061   3.996   0.364   6.600 -0.0602 -0.2989  0.3231
 4281SOL    HW124062   4.042   0.404   6.679  0.7026 -0.2311 -0.1466
 4281SOL    HW224063   3.940   0.433   6.555 -0.2009 -0.2404  0.5905
 4282SOL     OW24064   4.474   6.321   0.790  1.0120  0.1115  0.5701
 4282SOL    HW124065   4.406   6.319   0.864 -0.4598 -0.8617 -0.7782
 4282SOL    HW224066   4.436   6.278   0.709  3.2042 -0.2571 -0.2870
 4283SOL     OW24067   2.747   7.120   0.995  0.2905 -0.2804  0.0737
 4283SOL    HW124068   2.718   7.215   1.005  1.9494  0.3095 -0.6145
 4283SOL    HW224069   2.842   7.111   1.027 -0.3582 -2.0284  1.6175
 4284SOL     OW24070   2.073   5.624   4.482 -0.4844 -0.1984  0.3286
 4284SOL    HW124071   2.067   5.710   4.432  1.5577 -0.2129  0.0275
 4284SOL    HW224072   1.986   5.575   4.474 -1.0876  1.0400 -0.9212
 4285SOL     OW24073   0.891   0.401   4.037  0.6135 -0.1395 -0.1843
 4285SOL    HW124074   0.850   0.402   3.946 -0.9831  0.4211  0.5247
 4285SOL    HW224075   0.990   0.413   4.029  0.7933 -2.4524 -1.9768
 4286SOL     OW24076   2.617   8.683   3.687 -0.6283  0.4178 -0.2479
 4286SOL    HW124077   2.537   8.664   3.631 -0.7012  0.3425 -0.1177
 4286SOL    HW224078   2.699   8.655   3.637 -0.7534 -0.5597  0.0695
 4287SOL     OW24079   6.732   2.689   0.286  0.8030  0.3358 -0.0438
 4287SOL    HW124080   6.803   2.638   0.238  0.9438  1.4316 -1.0104
 4287SOL    HW224081   6.774   2.750   0.353  0.6750 -0.1931  0.5303
 4288SOL     OW24082   7.603   0.707   3.463 -0.7856  0.5653  0.5012
 4288SOL    HW124083   7.638   0.689   3.371 -1.5256 -2.9326  0.8122
 4288SOL    HW224084   7.655   0.653   3.529 -2.1671  0.7795  1.7901
 4289SOL     OW24085   7.981   7.954   3.640 -0.0687 -0.2790 -0.1925
 4289SOL    HW124086   8.001   7.935   3.736 -3.1351  1.8713  0.9146
 4289SOL    HW224087   8.037   8.030   3.609 -1.8093  1.5430  1.0422
 4290SOL     OW24088   4.050   8.497   2.554  0.4553 -0.3272  0.0600
 4290SOL    HW124089   3.979   8.495   2.483 -0.1463  0.0129  0.6409
 4290SOL    HW224090   4.088   8.589   2.561 -1.0131  0.1829  1.6491
 4291SOL     OW24091   1.698   6.107   3.754 -0.6998 -0.2119 -0.0740
 4291SOL    HW124092   1.693   6.080   3.658 -1.8344 -0.9062  0.1755
 4291SOL    HW224093   1.726   6.203   3.760 -0.8044 -0.1122 -1.1071
 4292SOL     OW24094   2.304   8.448   5.870  0.1480  0.8370  0.0560
 4292SOL    HW124095   2.380   8.431   5.808  0.2035 -0.7331  0.5237
 4292SOL    HW224096   2.240   8.512   5.827  1.2544  1.4485 -0.7199
 4293SOL     OW24097   3.746   5.760   4.361  0.5606  0.5708 -0.1549
 4293SOL    HW124098   3.723   5.835   4.422 -0.3048 -0.8910  1.3616
 4293SOL    HW224099   3.671   5.747   4.295  0.2351  0.3570  0.2565
 4294SOL     OW24100   8.707   5.139   2.246 -0.0878 -0.2560  0.4002
 4294SOL    HW124101   8.719   5.066   2.314 -0.5890 -0.1269  0.6305
 4294SOL    HW224102   8.781   5.205   2.255 -0.0300 -0.3574  0.6784
 4295SOL     OW24103   7.374   2.754   5.906 -0.1547  0.4151 -0.3452
 4295SOL    HW124104   7.292   2.698   5.899  0.2325 -0.0406 -1.2999
 4295SOL    HW224105   7.442   2.707   5.963 -0.1302  0.2810 -0.4863
 4296SOL     OW24106   3.032   0.889   1.130 -0.6390 -0.2932  0.6224
 4296SOL    HW124107   2.987   0.838   1.057  1.1406 -0.3949 -0.4107
 4296SOL    HW224108   2.967   0.956   1.168 -1.4665  0.0351 -1.3055
 4297SOL     OW24109   9.006   4.859   4.797  0.0094 -0.3728  0.0586
 4297SOL    HW124110   9.088   4.864   4.854 -1.3889  0.7666  2.0497
 4297SOL    HW224111   8.990   4.948   4.754  0.2579 -0.8164 -0.9481
 4298SOL     OW24112   4.462   9.426   1.172 -0.0087  0.8801  0.0229
 4298SOL    HW124113   4.471   9.465   1.263 -0.2849  1.9898 -0.4192
 4298SOL    HW224114   4.440   9.498   1.107  1.8278  0.3665 -1.1957
 4299SOL     OW24115   2.488   2.624   0.686  0.3543  0.2296 -0.2920
 4299SOL    HW124116   2.458   2.644   0.592  0.9139  0.8698 -0.3403
 4299SOL    HW224117   2.422   2.662   0.751 -0.3211 -0.6927 -0.4278
 4300SOL     OW24118   8.608   7.015   5.752 -0.4619 -0.1739 -0.0073
 4300SOL    HW124119   8.628   6.958   5.672 -1.6149 -1.2533  0.4495
 4300SOL    HW224120   8.579   7.106   5.723 -1.5511 -0.7845 -0.8380
 4301SOL     OW24121   0.008   3.312   0.960 -0.4270 -0.3568  0.8412
 4301SOL    HW124122   0.100   3.350   0.973 -0.3290 -0.1095 -0.5022
 4301SOL    HW224123   0.015   3.215   0.939 -0.4930 -0.4161  1.0920
 4302SOL     OW24124   3.974   4.026   8.142  0.1728 -0.0501  0.4348
 4302SOL    HW124125   4.027   4.086   8.202  1.4683 -1.3855  0.6714
 4302SOL    HW224126   4.036   3.978   8.080 -0.8638 -0.9100  0.0534
 4303SOL     OW24127   0.519   9.446   2.280 -0.2502 -0.4741  0.4041
 4303SOL    HW124128   0.525   9.499   2.195 -1.4533 -0.1349  0.5185
 4303SOL    HW224129   0.607   9.449   2.327 -0.3962  1.7117  0.5877
 4304SOL     OW24130   8.161   3.232   5.615 -0.0510  0.2023 -0.2537
 4304SOL    HW124131   8.228   3.288   5.662  1.2221 -1.2541 -0.2743
 4304SOL    HW224132   8.209   3.164   5.558 -1.5362 -0.5882 -0.5796
 4305SOL     OW24133   1.128   9.709   4.503 -0.6585  0.2120  0.2469
 4305SOL    HW124134   1.185   9.692   4.583 -1.6927 -1.5963  0.6319
 4305SOL    HW224135   1.052   9.770   4.529 -2.0271 -1.8150  1.1312
 4306SOL     OW24136   2.524   4.859   4.542 -0.0868 -0.2262 -0.2803
 4306SOL    HW124137   2.577   4.943   4.553 -2.6579  1.2655  1.1194
 4306SOL    HW224138   2.459   4.870   4.467  1.2330 -1.9180 -1.7455
 4307SOL     OW24139   4.509   5.124   0.115  0.2410 -0.1702 -0.2456
 4307SOL    HW124140   4.493   5.123   0.214  1.3607  0.0377 -0.0566
 4307SOL    HW224141   4.607   5.122   0.097  0.0220 -1.9722 -1.3897
 4308SOL     OW24142   0.765   4.891   0.273 -0.1068 -0.4476 -0.7746
 4308SOL    HW124143   0.784   4.960   0.342  3.1914  0.7599 -2.7316
 4308SOL    HW224144   0.743   4.804   0.318  1.5806  0.3892  1.7910
 4309SOL     OW24145   9.723   3.367   1.393  0.3094  0.1672 -0.4143
 4309SOL    HW124146   9.760   3.290   1.445  0.0789  0.7216  0.5956
 4309SOL    HW224147   9.623   3.360   1.390  0.3432 -0.0432 -1.0727
 4310SOL     OW24148   1.843   0.033   5.469 -0.4611 -0.0086  0.1649
 4310SOL    HW124149   1.846   0.117   5.523  0.1346  0.7983 -1.0928
 4310SOL    HW224150   1.800   0.052   5.381 -1.0307 -1.2077  0.1767
 4311SOL     OW24151   8.508   4.282   1.508 -0.1202  0.0420 -0.0435
 4311SOL    HW124152   8.505   4.341   1.589  1.0183 -0.5791  0.4672
 4311SOL    HW224153   8.603   4.267   1.482 -0.4864  0.4062 -1.6352
 4312SOL     OW24154   0.252   8.160   5.102  0.0133 -0.0428  0.0984
 4312SOL    HW124155   0.325   8.222   5.130  0.3166 -0.4912  0.2958
 4312SOL    HW224156   0.192   8.142   5.180 -0.1450  0.0938  0.0098
 4313SOL     OW24157   5.947   0.390   4.315  0.3711  0.2170 -0.1751
 4313SOL    HW124158   5.900   0.409   4.402 -0.0184  0.7765 -0.5013
 4313SOL    HW224159   5.897   0.434   4.241  1.4746  0.9049 -0.5154
 4314SOL     OW24160   7.247   8.018   3.034  0.3085  0.6267 -0.2183
 4314SOL    HW124161   7.316   7.987   2.969 -0.2599 -0.5172 -0.2899
 4314SOL    HW224162   7.291   8.071   3.107  1.2534 -0.0636 -0.2788
 4315SOL     OW24163   2.338   9.591   3.561  0.1712  0.9011 -0.1319
 4315SOL    HW124164   2.374   9.682   3.540 -0.4526  1.4480  1.1256
 4315SOL    HW224165   2.387   9.554   3.640 -0.2923  0.5780  0.0043
 4316SOL     OW24166   9.563   9.600   1.194 -0.2135 -0.5088 -0.0909
 4316SOL    HW124167   9.535   9.602   1.098 -0.5529  1.2923  0.0094
 4316SOL    HW224168   9.487   9.633   1.251 -0.3115 -2.3745  0.8846
 4317SOL     OW24169   0.183   9.421   4.858 -0.3854  0.4752  0.2982
 4317SOL    HW124170   0.249   9.359   4.900 -1.1238  0.6871  1.7738
 4317SOL    HW224171   0.225   9.465   4.778  0.6392 -0.7720  0.1362
 4318SOL     OW24172   6.099   7.926   5.957 -0.3342  0.0890  1.1109
 4318SOL    HW124173   6.191   7.902   5.990 -0.1997  1.1321  1.5085
 4318SOL    HW224174   6.031   7.873   6.008  0.0320 -0.6156  0.8842
 4319SOL     OW24175   9.527   2.870   0.936  0.2989  0.4004  0.0549
 4319SOL    HW124176   9.614   2.822   0.927 -0.1786 -0.6648  1.0284
 4319SOL    HW224177   9.540   2.952   0.991  0.6503  0.1575  0.3333
 4320SOL     OW24178   8.935   7.507   1.643 -0.1339 -0.0505 -0.2768
 4320SOL    HW124179   8.879   7.512   1.561  0.1169 -0.5439 -0.4752
 4320SOL    HW224180   8.965   7.600   1.668 -0.8173  0.1849 -0.3136
 4321SOL     OW24181   8.407   2.575   2.232 -0.2187  0.0523  0.3446
 4321SOL    HW124182   8.494   2.621   2.252 -0.0100 -0.5583  0.8766
 4321SOL    HW224183   8.342   2.641   2.196  0.1705  0.7128  0.8371
 4322SOL     OW24184   1.363   8.526   3.748  0.0831  0.1079 -0.6801
 4322SOL    HW124185   1.435   8.503   3.813  0.7753  1.4895 -0.9473
 4322SOL    HW224186   1.283   8.467   3.765  0.3469  0.2570  1.2235
 4323SOL     OW24187   8.497   4.616   2.310 -0.5251  0.0071  0.4403
 4323SOL    HW124188   8.490   4.674   2.229 -1.9972  0.4969  0.8967
 4323SOL    HW224189   8.556   4.661   2.377  0.3649 -0.2066 -0.1899
 4324SOL     OW24190   0.917   7.688   6.564  0.2849 -0.1024  0.1944
 4324SOL    HW124191   0.975   7.614   6.530 -1.2452 -0.6225 -1.4276
 4324SOL    HW224192   0.828   7.650   6.590 -0.1001  1.0015  0.4982
 4325SOL     OW24193   0.899   4.219   5.524  0.1918 -0.0986  0.0593
 4325SOL    HW124194   0.943   4.131   5.504 -1.5741 -0.9684 -0.0573
 4325SOL    HW224195   0.960   4.274   5.582  1.4182 -1.2713 -0.0824
 4326SOL     OW24196   0.275   1.030   0.343  0.3340 -0.0600  0.2293
 4326SOL    HW124197   0.181   1.002   0.320  0.3486  1.2811 -1.5922
 4326SOL    HW224198   0.288   1.024   0.442 -2.6185  2.4712  0.8454
 4327SOL     OW24199   1.677   5.617   1.505  0.1000 -0.9421  0.1648
 4327SOL    HW124200   1.762   5.566   1.494  2.3328  2.2715  1.5979
 4327SOL    HW224201   1.654   5.623   1.602 -0.5719  0.0661 -0.0470
 4328SOL     OW24202   3.784   8.794   2.117 -0.2087 -0.3892  0.2352
 4328SOL    HW124203   3.866   8.801   2.174 -0.5553  1.5230  0.5374
 4328SOL    HW224204   3.733   8.712   2.141  0.8065 -0.7723  1.1324
 4329SOL     OW24205   3.202   9.722   5.954  0.2933  0.3032  0.0467
 4329SOL    HW124206   3.229   9.636   5.909 -2.2163  0.2107 -1.3718
 4329SOL    HW224207   3.144   9.701   6.034  1.6659  0.6126  1.1433
 4330SOL     OW24208   3.592   9.802   2.928  0.4604 -0.2371  0.4551
 4330SOL    HW124209   3.517   9.856   2.891  1.1517  0.7044  0.4252
 4330SOL    HW224210   3.555   9.726   2.982 -0.5134 -0.3564 -0.3816
 4331SOL     OW24211   9.487   6.415   5.569  0.3239 -0.0181  0.2609
 4331SOL    HW124212   9.437   6.376   5.647 -1.6764  0.9018 -0.5180
 4331SOL    HW224213   9.545   6.345   5.528 -0.4112 -1.1680  1.1396
 4332SOL     OW24214   9.933   2.698   0.407 -0.0663 -0.4142  0.3272
 4332SOL    HW124215   9.879   2.700   0.323  0.3106 -1.9188  0.0279
 4332SOL    HW224216  10.020   2.744   0.392 -0.4396  0.2662  0.2194
 4333SOL     OW24217   0.836   5.263   0.092 -0.1025  0.6698  0.1267
 4333SOL    HW124218   0.756   5.211   0.060 -0.0644 -0.0098  1.1313
 4333SOL    HW224219   0.919   5.218   0.061 -0.0916  1.4173 -0.9803
 4334SOL     OW24220   7.645   4.240   4.026  0.4290  0.6824 -0.4291
 4334SOL    HW124221   7.744   4.247   4.022  0.5331 -0.2844  0.2800
 4334SOL    HW224222   7.618   4.144   4.036 -0.5929  0.8823 -1.1526
 4335SOL     OW24223   1.619   3.270   2.055 -0.2130  0.2778  0.5442
 4335SOL    HW124224   1.520   3.264   2.048 -0.1340 -1.5117  0.6662
 4335SOL    HW224225   1.648   3.256   2.149  0.1185  1.5299  0.6364
 4336SOL     OW24226   9.991   2.096   5.148 -0.8431  0.3889 -0.1605
 4336SOL    HW124227  10.068   2.038   5.172  0.0792  1.9458  0.7411
 4336SOL    HW224228   9.914   2.077   5.209 -0.9358 -0.6271 -0.5757
 4337SOL     OW24229   8.242   9.560   5.624  0.1230  0.3630 -1.2087
 4337SOL    HW124230   8.241   9.521   5.715  0.8046  1.2878 -0.7927
 4337SOL    HW224231   8.160   9.615   5.610  1.0732  2.0405 -0.3282
 4338SOL     OW24232   9.445   7.433   4.612  0.1030 -0.1426  0.2112
 4338SOL    HW124233   9.484   7.467   4.526 -1.3591 -1.1487 -0.8834
 4338SOL    HW224234   9.422   7.336   4.602 -1.8117  0.1918  1.0934
 4339SOL     OW24235   6.104   1.453   6.129  0.4283 -0.4498 -0.4846
 4339SOL    HW124236   6.034   1.489   6.066 -0.6770 -0.7173  0.5622
 4339SOL    HW224237   6.075   1.471   6.224  2.3490  0.4619 -0.0489
 4340SOL     OW24238   6.248   9.093   6.417  0.4542 -0.1973  0.1685
 4340SOL    HW124239   6.346   9.096   6.437  0.5712  1.2901 -0.6217
 4340SOL    HW224240   6.230   9.023   6.347  1.0514  0.1077 -0.2897
 4341SOL     OW24241   0.521   9.587   5.045  0.0177 -0.2373 -0.3955
 4341SOL    HW124242   0.531   9.492   5.016  0.4379 -0.1104 -0.6816
 4341SOL    HW224243   0.503   9.591   5.143  1.3244 -0.5570 -0.1382
 4342SOL     OW24244   4.851   0.299   6.783  0.0412  0.7407  0.0425
 4342SOL    HW124245   4.797   0.260   6.858  0.5652 -0.0041  0.0377
 4342SOL    HW224246   4.840   0.243   6.701  0.5683  0.7641 -0.0462
 4343SOL     OW24247   1.127   2.322   2.978 -0.5318 -0.0618  0.2006
 4343SOL    HW124248   1.033   2.350   2.955 -0.8197 -1.3837 -0.2690
 4343SOL    HW224249   1.134   2.222   2.973  1.0233  0.0597 -0.2251
 4344SOL     OW24250   9.325   0.100   4.647 -0.8659 -0.0723  0.7351
 4344SOL    HW124251   9.344   0.133   4.555 -3.0654 -0.7831 -0.0007
 4344SOL    HW224252   9.244   0.040   4.646 -0.8896 -0.1536  3.0996
 4345SOL     OW24253   7.127   5.843   5.875 -0.8239  0.8904  0.1282
 4345SOL    HW124254   7.044   5.797   5.844 -1.8796  2.8178 -0.0252
 4345SOL    HW224255   7.117   5.869   5.971  0.2721 -0.2852  0.5813
 4346SOL     OW24256   9.894   5.013   4.740 -0.0081  0.2139 -0.0427
 4346SOL    HW124257   9.987   5.023   4.775 -0.2869  0.4488  0.6377
 4346SOL    HW224258   9.894   5.028   4.641  0.6606  0.3274 -0.0280
 4347SOL     OW24259   9.621   6.065   2.868  0.1229  0.5228  0.3855
 4347SOL    HW124260   9.584   5.979   2.905 -0.9894  0.5371 -0.6679
 4347SOL    HW224261   9.581   6.083   2.778  1.0160  1.7070  0.2066
 4348SOL     OW24262   0.218   9.473   4.096  0.3905  0.6963  0.5481
 4348SOL    HW124263   0.221   9.392   4.039 -1.9310  1.7274 -1.1111
 4348SOL    HW224264   0.232   9.448   4.192  0.2635 -1.5676 -0.0196
 4349SOL     OW24265   4.649   2.497   2.021 -0.3083 -0.3948 -0.0722
 4349SOL    HW124266   4.707   2.520   2.100 -0.2247  1.8433 -0.7309
 4349SOL    HW224267   4.704   2.453   1.951  0.5036  1.1743 -0.4468
 4350SOL     OW24268   4.618   1.739   6.268  0.4953  0.1088 -0.0178
 4350SOL    HW124269   4.538   1.750   6.209  1.4084  1.5598 -0.9954
 4350SOL    HW224270   4.668   1.656   6.242 -0.2135 -0.3465  0.0560
 4351SOL     OW24271   6.408   9.458   2.304  0.6905 -0.0129  0.4362
 4351SOL    HW124272   6.490   9.497   2.347  1.2345 -1.1210  0.4147
 4351SOL    HW224273   6.349   9.419   2.374  0.2083  0.7097  0.4428
 4352SOL     OW24274   3.943   7.588   3.468  0.0219 -0.5553  0.4162
 4352SOL    HW124275   4.020   7.527   3.450 -0.5292 -0.8467 -1.0429
 4352SOL    HW224276   3.962   7.644   3.548  1.7495 -0.6248  0.0683
 4353SOL     OW24277   7.518   1.343   2.257  0.0204 -0.5664  0.0085
 4353SOL    HW124278   7.504   1.363   2.160  1.6720 -0.7024 -0.2598
 4353SOL    HW224279   7.451   1.274   2.286 -1.0105  0.0617 -0.8198
 4354SOL     OW24280   2.083   8.104   4.592 -0.0760 -0.0132  0.3850
 4354SOL    HW124281   2.104   8.007   4.601 -0.5617 -0.0351  1.3534
 4354SOL    HW224282   1.984   8.117   4.595 -0.1366  0.2933 -2.0835
 4355SOL     OW24283   5.112   2.167   5.060 -0.5265 -0.5455  0.1308
 4355SOL    HW124284   5.034   2.228   5.078 -0.0987 -0.8326  3.2021
 4355SOL    HW224285   5.093   2.077   5.097  2.5635  0.2731  3.9354
 4356SOL     OW24286   0.654   6.597   5.239 -0.1575 -0.4082 -0.6254
 4356SOL    HW124287   0.626   6.693   5.227 -1.1360 -0.7061 -0.7443
 4356SOL    HW224288   0.576   6.537   5.223  0.0560 -1.1527  1.0529
 4357SOL     OW24289   6.903   3.042   0.327 -0.0699  0.0575  0.0352
 4357SOL    HW124290   6.874   3.001   0.240  0.5197 -0.5340  0.1203
 4357SOL    HW224291   6.922   2.970   0.393 -1.8503  0.5306  1.1009
 4358SOL     OW24292   3.765   8.214   2.794  0.1150 -0.2386 -0.7512
 4358SOL    HW124293   3.761   8.314   2.800 -0.4279 -0.3365  0.7979
 4358SOL    HW224294   3.696   8.180   2.730 -0.8840  0.2743  0.0429
 4359SOL     OW24295   4.490   3.922   4.597  0.3752  0.0931  0.0471
 4359SOL    HW124296   4.590   3.931   4.599  0.3223  1.1615 -1.2722
 4359SOL    HW224297   4.453   3.950   4.686  1.3100 -1.5155  0.9866
 4360SOL     OW24298   1.882   0.284   3.796 -0.0505 -0.0198  0.1036
 4360SOL    HW124299   1.973   0.252   3.822 -0.6232 -1.1138  0.7886
 4360SOL    HW224300   1.882   0.311   3.700 -0.0569 -4.0564 -1.1074
 4361SOL     OW24301   0.992   6.801   4.629 -0.3064 -0.0699  0.2665
 4361SOL    HW124302   1.043   6.741   4.691  0.7457  1.7160  1.1674
 4361SOL    HW224303   1.055   6.849   4.569 -1.1165  0.4420 -0.1852
 4362SOL     OW24304   1.423   7.523   2.903 -0.3553  0.2790  0.5283
 4362SOL    HW124305   1.387   7.459   2.970 -0.5938 -1.1374 -0.9149
 4362SOL    HW224306   1.519   7.504   2.885 -0.1438  1.0060  0.8772
 4363SOL     OW24307   3.547   2.454   5.301 -0.0111 -0.0231 -0.0980
 4363SOL    HW124308   3.586   2.373   5.259  1.2891  1.4525 -1.7962
 4363SOL    HW224309   3.450   2.439   5.320 -0.3315 -1.1427 -2.5266
 4364SOL     OW24310   8.077   0.195   2.324 -0.2316  0.0255  0.0281
 4364SOL    HW124311   8.016   0.249   2.266 -1.2021 -1.9520 -0.8374
 4364SOL    HW224312   8.071   0.099   2.298  1.9029 -0.4448  1.1597
 4365SOL     OW24313   5.260   9.396   6.764  0.6394  0.6395  0.5327
 4365SOL    HW124314   5.241   9.298   6.772  2.0308  0.3095  0.1141
 4365SOL    HW224315   5.352   9.415   6.800  0.3179  1.8140  0.7555
 4366SOL     OW24316   6.166   9.676   7.015  0.0619  0.2249  0.0956
 4366SOL    HW124317   6.239   9.669   7.083 -0.3747  0.7539  0.6157
 4366SOL    HW224318   6.113   9.760   7.030  0.0696  0.4441 -0.9951
 4367SOL     OW24319   7.930   0.488   2.994 -0.1941  0.4799 -0.3203
 4367SOL    HW124320   8.020   0.465   2.956  0.4854 -0.0787  1.5593
 4367SOL    HW224321   7.888   0.559   2.937  1.6703  1.1374 -0.9452
 4368SOL     OW24322   7.657   4.908   6.188  0.3125 -0.5379 -0.0847
 4368SOL    HW124323   7.652   5.007   6.200  2.4746 -0.4437  0.1724
 4368SOL    HW224324   7.639   4.885   6.092 -2.2932 -0.0996  0.2564
 4369SOL     OW24325   8.924   1.773   1.620  0.1823 -0.4901  0.6283
 4369SOL    HW124326   8.885   1.711   1.552 -1.2663  0.4708  0.5532
 4369SOL    HW224327   8.988   1.724   1.678  0.4392 -1.6212 -0.6113
 4370SOL     OW24328   6.165   4.750   0.206  0.2058 -0.3277 -0.1920
 4370SOL    HW124329   6.256   4.791   0.215 -0.1201  0.2952  0.3388
 4370SOL    HW224330   6.167   4.655   0.237  1.0991 -0.9147 -1.9447
 4371SOL     OW24331   2.377   3.266   1.587  0.3079  0.4771  0.2207
 4371SOL    HW124332   2.403   3.241   1.680  1.1952  1.8995  0.3645
 4371SOL    HW224333   2.389   3.364   1.574 -0.6944  0.4384 -1.1171
 4372SOL     OW24334   3.359   8.290   5.720  0.3469  0.1058  0.6765
 4372SOL    HW124335   3.287   8.258   5.782 -0.3575  0.6600  0.1521
 4372SOL    HW224336   3.357   8.238   5.636  0.7836 -0.1076  0.8002
 4373SOL     OW24337   2.807   1.980   1.033  0.2767  0.2285 -0.5029
 4373SOL    HW124338   2.871   1.930   0.975 -1.1628 -1.0616 -1.0174
 4373SOL    HW224339   2.765   1.917   1.098  0.2307  1.2485  0.4799
 4374SOL     OW24340   5.815   1.761   5.405  0.1574  0.1271  0.4154
 4374SOL    HW124341   5.768   1.792   5.322  2.6525  1.6191 -0.4945
 4374SOL    HW224342   5.781   1.670   5.431 -1.1743 -0.0414 -1.7980
 4375SOL     OW24343   8.128   0.224   6.334  0.4472  0.2241 -0.2935
 4375SOL    HW124344   8.138   0.268   6.245  2.0378 -0.0260 -0.2629
 4375SOL    HW224345   8.084   0.135   6.322  0.3107  0.3573 -0.7920
 4376SOL     OW24346   8.582   5.814   1.155  0.2292 -0.4107 -0.9153
 4376SOL    HW124347   8.584   5.795   1.057  0.5137 -0.3271 -0.9248
 4376SOL    HW224348   8.662   5.774   1.199  0.7897  0.6977 -0.9230
 4377SOL     OW24349   2.922   0.071   1.006  0.0503  0.2961  0.6268
 4377SOL    HW124350   2.927   0.156   1.058  0.2949  0.2181  0.7284
 4377SOL    HW224351   2.833   0.029   1.021 -0.8527  1.5581 -1.0172
 4378SOL     OW24352   9.914   8.806   3.878 -0.7155  0.1403  0.7325
 4378SOL    HW124353   9.820   8.778   3.860 -0.9647  0.8265  0.9384
 4378SOL    HW224354   9.915   8.877   3.948 -0.3188  2.6181 -1.7108
 4379SOL     OW24355   9.731   2.126   5.658 -0.4331 -0.8579 -0.0001
 4379SOL    HW124356   9.633   2.126   5.679 -0.3603  1.7281  0.5337
 4379SOL    HW224357   9.782   2.150   5.740  0.6962 -2.5715 -0.1802
 4380SOL     OW24358   5.714   1.373   3.702 -0.0762  0.1142 -0.6410
 4380SOL    HW124359   5.722   1.463   3.746  0.9641  0.3153 -1.2332
 4380SOL    HW224360   5.619   1.343   3.705 -0.2455  0.7353  0.5488
 4381SOL     OW24361   4.916   6.660   1.200  1.0173  0.1001 -0.1958
 4381SOL    HW124362   4.822   6.648   1.170  1.1614  1.2570 -1.1426
 4381SOL    HW224363   4.965   6.719   1.136  2.1237  0.2844  0.7856
 4382SOL     OW24364   3.231   7.013   3.539  0.1240  0.5673  1.2849
 4382SOL    HW124365   3.191   7.007   3.447  3.4317  1.9141 -0.3282
 4382SOL    HW224366   3.229   6.922   3.582 -1.6444 -0.0397  0.0080
 4383SOL     OW24367   7.538   6.207   1.373 -0.6183 -0.5756 -0.0107
 4383SOL    HW124368   7.449   6.228   1.332 -0.4321 -2.8866 -1.6783
 4383SOL    HW224369   7.611   6.228   1.308 -0.1813 -2.2512 -0.0939
 4384SOL     OW24370   1.180   4.112   4.066 -0.2261  0.3859 -0.3207
 4384SOL    HW124371   1.167   4.013   4.069 -0.5999  0.4699  1.7047
 4384SOL    HW224372   1.273   4.133   4.034  0.0709 -0.6323 -0.1225
 4385SOL     OW24373   3.317   5.647   4.302 -0.1978 -0.2006  0.4758
 4385SOL    HW124374   3.342   5.588   4.379 -0.3822 -1.4893 -0.4301
 4385SOL    HW224375   3.399   5.681   4.257 -0.0897  0.0880  0.8918
 4386SOL     OW24376   4.017   9.410   6.703 -0.3271  0.3013  0.3856
 4386SOL    HW124377   4.002   9.318   6.669  0.3153  0.1525  0.4951
 4386SOL    HW224378   3.992   9.477   6.633  2.1465 -0.0196 -0.8561
 4387SOL     OW24379   4.162   8.326   3.462  0.8541 -0.2306 -0.9602
 4387SOL    HW124380   4.209   8.265   3.526  0.0197 -0.6326 -0.7241
 4387SOL    HW224381   4.180   8.421   3.486 -0.2552 -0.3659  0.4826
 4388SOL     OW24382   0.615   5.449   4.739 -0.1805  0.2127 -0.1848
 4388SOL    HW124383   0.620   5.452   4.839  0.8800  1.4373 -0.2574
 4388SOL    HW224384   0.706   5.466   4.701 -0.6683  0.2064 -1.3695
 4389SOL     OW24385   1.393   0.640   3.126  0.5326 -0.2888 -0.6514
 4389SOL    HW124386   1.414   0.570   3.058 -0.6156 -0.4474 -0.8677
 4389SOL    HW224387   1.313   0.611   3.180  1.9945 -0.6171  1.4256
 4390SOL     OW24388   1.182   2.228   4.734 -0.1976 -0.2718  0.1626
 4390SOL    HW124389   1.152   2.180   4.652  0.2322 -2.1949  1.0707
 4390SOL    HW224390   1.128   2.197   4.812  2.1153 -1.6628  1.3078
 4391SOL     OW24391   8.383   6.873   3.095 -0.0467 -0.1379 -0.6077
 4391SOL    HW124392   8.469   6.915   3.124 -0.1441 -0.5116  0.2358
 4391SOL    HW224393   8.371   6.886   2.996  1.1728 -0.4514 -0.8015
 4392SOL     OW24394   4.035   9.318   3.051  0.0354 -0.8323  0.2136
 4392SOL    HW124395   4.090   9.257   2.993 -1.3913 -1.8460 -0.0824
 4392SOL    HW224396   4.001   9.394   2.997 -0.6901 -1.3868 -0.1049
 4393SOL     OW24397   3.650   2.218   0.087  0.2480 -0.1479 -0.5958
 4393SOL    HW124398   3.565   2.170   0.067 -0.0679 -0.1214  0.6596
 4393SOL    HW224399   3.689   2.184   0.172  1.6175 -0.3099 -1.2774
 4394SOL     OW24400   2.978   5.006   4.756 -0.3488 -0.3932  0.3025
 4394SOL    HW124401   3.077   4.994   4.747  0.0002  1.1732  1.6678
 4394SOL    HW224402   2.946   4.953   4.834 -0.3083  0.2909  0.7957
 4395SOL     OW24403   1.640   8.982   5.123 -0.0555  0.1400  0.0929
 4395SOL    HW124404   1.549   9.003   5.088  0.2754 -1.7683 -2.0892
 4395SOL    HW224405   1.633   8.942   5.215 -1.1229  3.0880  1.3457
 4396SOL     OW24406   4.871   9.504   6.540 -0.1942  0.4243 -0.1580
 4396SOL    HW124407   4.828   9.554   6.465 -0.5876  0.6043  0.1864
 4396SOL    HW224408   4.965   9.537   6.551 -0.3551  0.8863 -0.1255
 4397SOL     OW24409   2.360   3.587   4.646 -0.2211  0.7790 -0.0571
 4397SOL    HW124410   2.302   3.598   4.726  1.0493  0.9973  0.8457
 4397SOL    HW224411   2.350   3.493   4.610  2.0985 -0.5733  2.6740
 4398SOL     OW24412   4.676   4.120   7.524 -0.7192  0.5248  0.3036
 4398SOL    HW124413   4.613   4.054   7.565 -1.4278  0.7024 -0.4664
 4398SOL    HW224414   4.754   4.134   7.584  0.6937 -2.8903 -0.6482
 4399SOL     OW24415   2.223   9.823   1.185  0.2973  0.1485  0.0602
 4399SOL    HW124416   2.203   9.848   1.090  0.7640  2.0591  0.4352
 4399SOL    HW224417   2.143   9.781   1.226 -0.7017  1.4500 -0.5045
 4400SOL     OW24418   5.373   0.044   3.630  0.0924  0.0407 -0.0791
 4400SOL    HW124419   5.364   0.143   3.632  0.9911  0.1133  0.8309
 4400SOL    HW224420   5.452   0.018   3.576  0.3015 -0.1378  0.3055
 4401SOL     OW24421   0.323   0.995   0.626  0.6824 -0.0765 -0.0164
 4401SOL    HW124422   0.246   1.043   0.668  1.6985  2.3670 -0.8625
 4401SOL    HW224423   0.405   1.007   0.682  0.4316 -2.8607  1.0010
 4402SOL     OW24424   6.102   1.957   8.118 -0.1252  0.3536  0.0656
 4402SOL    HW124425   6.197   1.984   8.103 -0.8727  1.8679 -2.1247
 4402SOL    HW224426   6.068   1.908   8.037 -0.5584 -2.1584  1.7046
 4403SOL     OW24427   7.973   2.295   0.541 -0.0682  0.1374 -0.3900
 4403SOL    HW124428   7.880   2.259   0.548 -0.1097  0.1432 -0.9075
 4403SOL    HW224429   8.004   2.324   0.632  0.2823 -2.0162  0.2011
 4404SOL     OW24430   0.285   5.963   0.298 -0.2368  0.2132 -0.1838
 4404SOL    HW124431   0.344   6.037   0.265  0.2855 -0.9044 -1.8314
 4404SOL    HW224432   0.342   5.889   0.334 -0.4999 -1.4884 -3.0870
 4405SOL     OW24433   1.929   6.878   0.629  0.6231 -0.6209  0.0395
 4405SOL    HW124434   1.848   6.929   0.603 -0.5775 -1.4367  2.0671
 4405SOL    HW224435   1.994   6.876   0.552 -1.5824 -0.6202 -1.8666
 4406SOL     OW24436   1.096   6.479   0.918 -0.1307 -0.1603  0.6251
 4406SOL    HW124437   1.112   6.405   0.984  1.6547 -1.8966 -1.6941
 4406SOL    HW224438   0.998   6.501   0.916 -0.6317 -2.2235  1.5752
 4407SOL     OW24439   9.995   9.614   4.001  0.8466  0.3542  0.8647
 4407SOL    HW124440  10.072   9.555   4.026  0.8902 -0.0356 -0.1746
 4407SOL    HW224441  10.029   9.696   3.955  0.7342  0.8800  1.6985
 4408SOL     OW24442   2.327   9.835   4.081  0.5196  0.1533  0.1307
 4408SOL    HW124443   2.415   9.815   4.124  0.5450 -1.9695 -0.8833
 4408SOL    HW224444   2.342   9.892   4.000  0.8417  0.7779  0.6239
 4409SOL     OW24445   2.122   8.786   2.103 -0.0537  0.0111  0.7924
 4409SOL    HW124446   2.074   8.806   2.017 -2.2229 -1.5961  1.5810
 4409SOL    HW224447   2.090   8.849   2.173  2.6647  2.1754  0.1616
 4410SOL     OW24448   0.263   5.821   0.681  0.4053 -0.3835  0.3152
 4410SOL    HW124449   0.271   5.921   0.670 -2.8167 -0.0945  0.1351
 4410SOL    HW224450   0.323   5.776   0.616  0.7077  1.4613 -0.7266
 4411SOL     OW24451   8.786   4.291   1.495  0.0952 -0.2652 -0.4852
 4411SOL    HW124452   8.868   4.334   1.533 -0.1037  0.5911 -1.0191
 4411SOL    HW224453   8.793   4.286   1.396 -0.4895 -0.2183 -0.5308
 4412SOL     OW24454   0.254   3.424   5.855  0.2361 -0.3087  0.2203
 4412SOL    HW124455   0.281   3.331   5.881  1.3523 -1.1960 -3.7614
 4412SOL    HW224456   0.331   3.486   5.872 -0.0890 -0.3063  1.7493
 4413SOL     OW24457   3.105   1.455   4.464  0.6448 -0.5621  0.0748
 4413SOL    HW124458   3.139   1.399   4.539  0.6763 -1.9172 -0.9284
 4413SOL    HW224459   3.134   1.416   4.377  0.1121  0.6545 -0.6718
 4414SOL     OW24460   8.898   3.368   4.674  0.0670  0.5359  0.0223
 4414SOL    HW124461   8.895   3.467   4.682  1.5620  0.6254 -0.4322
 4414SOL    HW224462   8.855   3.339   4.589  0.5048  0.8559 -0.3034
 4415SOL     OW24463   8.169   5.217   2.572 -0.1626  0.1421  0.1036
 4415SOL    HW124464   8.126   5.268   2.497  0.0315 -0.0237 -0.1212
 4415SOL    HW224465   8.103   5.154   2.611 -0.4143  0.5881  0.4021
 4416SOL     OW24466   3.711   2.577   1.988 -0.3936  0.0059 -0.1914
 4416SOL    HW124467   3.732   2.648   1.921 -0.1163 -0.1499 -0.2694
 4416SOL    HW224468   3.764   2.592   2.071  1.1380 -1.2061 -0.9171
 4417SOL     OW24469   6.639   8.420   3.054  0.3262 -0.7868 -0.0085
 4417SOL    HW124470   6.670   8.362   2.978 -2.5857 -1.8383 -0.4645
 4417SOL    HW224471   6.604   8.362   3.128  0.4927  0.3029  0.9283
 4418SOL     OW24472   7.577   6.894   6.436 -0.6686 -0.4675 -0.1336
 4418SOL    HW124473   7.504   6.881   6.369 -0.0155 -1.9051 -0.5707
 4418SOL    HW224474   7.544   6.872   6.527 -1.6491  1.7722  0.0957
 4419SOL     OW24475   5.002   3.248   3.919 -0.1388 -0.3438  0.0385
 4419SOL    HW124476   5.044   3.241   4.009 -0.1912  0.0340  0.0928
 4419SOL    HW224477   4.984   3.344   3.898  0.9088 -0.3376 -0.8475
 4420SOL     OW24478   2.186   2.842   3.206  0.5492 -0.4498  0.1573
 4420SOL    HW124479   2.151   2.756   3.243 -0.1446  0.0810  0.7466
 4420SOL    HW224480   2.121   2.878   3.139  0.1557  0.3265  0.9480
 4421SOL     OW24481   5.159   6.085   1.172 -0.8714 -0.5745 -0.1914
 4421SOL    HW124482   5.060   6.095   1.172 -0.5985  2.9812 -2.6597
 4421SOL    HW224483   5.191   6.067   1.079  1.0130  1.5966 -0.0132
 4422SOL     OW24484   7.983   0.574   1.863  0.2754  0.6787  0.1016
 4422SOL    HW124485   8.040   0.655   1.848  1.5187 -0.3024 -0.5356
 4422SOL    HW224486   7.890   0.603   1.884  0.8131  2.2899  0.3652
 4423SOL     OW24487   1.000   8.264   5.770  0.4034  0.4346 -0.2130
 4423SOL    HW124488   1.010   8.267   5.670  0.8595  0.3832 -0.1700
 4423SOL    HW224489   1.091   8.271   5.812  0.2291  0.2313  0.1904
 4424SOL     OW24490   8.899   0.231   0.405 -0.6086  0.4532  0.2341
 4424SOL    HW124491   8.921   0.312   0.352  0.0074  2.0111  2.7714
 4424SOL    HW224492   8.955   0.154   0.374  1.3040  1.8741  0.0383
 4425SOL     OW24493   2.559   0.695   4.743 -0.0337  0.1948 -0.5379
 4425SOL    HW124494   2.643   0.743   4.717 -0.3210  1.2850  0.4612
 4425SOL    HW224495   2.527   0.639   4.667  0.7075  1.0385 -1.4879
 4426SOL     OW24496   6.429   2.851   6.132 -0.5782 -0.2221  0.6528
 4426SOL    HW124497   6.370   2.848   6.051 -0.5430 -3.3728  0.6727
 4426SOL    HW224498   6.374   2.843   6.214 -0.4165  0.6912  0.8580
 4427SOL     OW24499   3.199   9.077   4.462  0.7415  0.1279 -0.4002
 4427SOL    HW124500   3.191   9.031   4.374 -1.5668  1.1571 -0.7699
 4427SOL    HW224501   3.158   9.019   4.534  3.3877 -1.0974  0.1907
 4428SOL     OW24502   8.239   7.919   5.584 -0.2295 -0.0709 -0.4086
 4428SOL    HW124503   8.238   7.822   5.563 -0.2652  0.0453 -0.9614
 4428SOL    HW224504   8.332   7.948   5.604 -0.1700 -0.1513 -0.5647
 4429SOL     OW24505   9.764   2.046   2.966  0.3860  0.4777 -0.5081
 4429SOL    HW124506   9.791   2.123   3.024 -0.6297  1.6060 -1.4990
 4429SOL    HW224507   9.667   2.025   2.981  0.8993 -1.3072  0.5157
 4430SOL     OW24508   8.902   8.470   4.819  0.5035  0.0173 -0.0778
 4430SOL    HW124509   8.822   8.483   4.761  1.8712  0.5138 -1.8919
 4430SOL    HW224510   8.882   8.501   4.912 -1.3429  0.2823 -0.5605
 4431SOL     OW24511   3.394   2.999   5.780 -0.5030 -0.0946 -0.3833
 4431SOL    HW124512   3.484   3.028   5.814 -0.6106 -0.1886 -0.0123
 4431SOL    HW224513   3.348   3.076   5.738  0.0525 -0.2161 -1.2274
 4432SOL     OW24514   9.741   2.402   4.103  0.8913 -0.0349  0.0030
 4432SOL    HW124515   9.655   2.360   4.132 -0.1795  0.3272 -2.5943
 4432SOL    HW224516   9.724   2.469   4.031  3.3619 -0.0572 -0.6498
 4433SOL     OW24517   1.677   5.501   1.207  0.3625 -0.0410 -0.2254
 4433SOL    HW124518   1.611   5.479   1.135  0.4558  0.0362 -0.3344
 4433SOL    HW224519   1.629   5.541   1.285  0.0760 -1.4370  0.3271
 4434SOL     OW24520   4.687   9.529   1.800  0.2712 -0.4431  0.0703
 4434SOL    HW124521   4.751   9.509   1.875  0.7451 -1.3343 -0.5587
 4434SOL    HW224522   4.706   9.468   1.723 -0.1217  0.5512 -0.8333
 4435SOL     OW24523   8.312   8.298   5.285 -0.1665  0.3525 -0.4171
 4435SOL    HW124524   8.359   8.338   5.364  1.3316 -1.6977 -0.2584
 4435SOL    HW224525   8.215   8.289   5.306  0.3480 -0.8946  1.4981
 4436SOL     OW24526   3.258   8.839   0.887 -0.0931  0.2707  0.5208
 4436SOL    HW124527   3.335   8.828   0.950  0.0659 -0.9344  0.1216
 4436SOL    HW224528   3.175   8.801   0.928 -0.7449  2.5945  1.4285
 4437SOL     OW24529   7.634   0.415   5.130  0.1725  0.2062 -0.3783
 4437SOL    HW124530   7.617   0.317   5.117 -2.9007  0.7648 -1.1424
 4437SOL    HW224531   7.613   0.440   5.224 -1.6946  0.5783 -0.8695
 4438SOL     OW24532   7.917   0.806   4.345  0.4083 -0.7161 -0.4499
 4438SOL    HW124533   7.860   0.842   4.271  0.0380  0.5053  0.4037
 4438SOL    HW224534   7.867   0.736   4.396  0.3783 -1.0012 -0.8747
 4439SOL     OW24535   1.138   6.747   6.057  0.4271 -1.0605  0.2534
 4439SOL    HW124536   1.180   6.658   6.071  0.3382 -0.8976  1.5838
 4439SOL    HW224537   1.080   6.770   6.135 -2.2923 -1.3622 -1.5788
 4440SOL     OW24538   4.449   2.546   1.665 -0.6216  0.2111  0.4650
 4440SOL    HW124539   4.385   2.609   1.621 -0.6734 -0.0597  0.1504
 4440SOL    HW224540   4.472   2.580   1.756 -1.6793  0.0094  0.8166
 4441SOL     OW24541   1.254   6.183   3.644 -0.1997  0.2157  0.4870
 4441SOL    HW124542   1.318   6.125   3.694  1.0535  1.1947  0.0544
 4441SOL    HW224543   1.240   6.144   3.552  2.5135  1.8194 -0.6750
 4442SOL     OW24544   5.928   2.024   4.723  0.2193 -0.3489 -0.1722
 4442SOL    HW124545   5.974   1.952   4.671  0.0837  1.0356 -2.2782
 4442SOL    HW224546   5.960   2.114   4.691 -0.5372  0.5553  1.5341
 4443SOL     OW24547   2.273   0.561   2.314  0.2857  0.2750 -0.0564
 4443SOL    HW124548   2.186   0.518   2.292  0.7683 -0.5967 -0.2866
 4443SOL    HW224549   2.262   0.619   2.395 -0.9291  1.6360 -1.2010
 4444SOL     OW24550   9.536   7.527   5.901  0.1241  0.0049  0.4928
 4444SOL    HW124551   9.483   7.505   5.983 -0.0379  0.8808  0.6285
 4444SOL    HW224552   9.633   7.509   5.917  0.1408  0.5260  1.0069
 4445SOL     OW24553   1.995   2.240   3.585  0.3573 -0.8419  0.7961
 4445SOL    HW124554   2.061   2.174   3.622  0.3122 -2.0431 -1.1581
 4445SOL    HW224555   1.971   2.213   3.492 -0.0253  1.7001  0.1203
 4446SOL     OW24556   1.098   7.195   3.488 -0.2663  0.5354  0.5108
 4446SOL    HW124557   1.118   7.107   3.530 -0.0286  0.7194  0.7888
 4446SOL    HW224558   1.135   7.268   3.546 -1.6534  0.8769  1.0011
 4447SOL     OW24559   2.950   7.476   4.234 -0.6191 -0.2523  0.4455
 4447SOL    HW124560   3.029   7.523   4.272 -0.3761 -0.2604 -0.0409
 4447SOL    HW224561   2.978   7.385   4.201 -0.9649 -0.5111  0.8554
 4448SOL     OW24562   8.212   8.478   1.006 -0.0582  0.0245 -0.1324
 4448SOL    HW124563   8.295   8.470   0.951  0.0570  0.4938 -0.0351
 4448SOL    HW224564   8.231   8.537   1.085 -0.1692 -0.7870  0.5039
 4449SOL     OW24565   3.545   0.728   4.018  0.3817 -0.1720 -0.5338
 4449SOL    HW124566   3.564   0.738   3.920 -1.7966 -2.1762 -1.1902
 4449SOL    HW224567   3.497   0.810   4.050  0.3739  0.1475 -1.3351
 4450SOL     OW24568   0.259   8.011   2.333 -0.2601 -0.8923  0.2347
 4450SOL    HW124569   0.185   7.949   2.311  0.5528 -1.5228 -0.7604
 4450SOL    HW224570   0.320   8.020   2.254  0.1924  0.3732  0.7095
 4451SOL     OW24571   8.207   3.596   2.339  0.5025  0.1244 -0.0913
 4451SOL    HW124572   8.111   3.620   2.324 -0.0191 -2.4063 -1.0565
 4451SOL    HW224573   8.249   3.569   2.253  0.9413 -2.6143  0.9136
 4452SOL     OW24574   3.385   6.448   5.595  0.3445  0.4213 -0.1930
 4452SOL    HW124575   3.405   6.462   5.498  1.0451  0.5676 -0.0305
 4452SOL    HW224576   3.391   6.351   5.618  0.4196  0.4141 -0.2438
 4453SOL     OW24577   8.066   2.104   5.134 -0.0136  0.1336 -0.4468
 4453SOL    HW124578   7.979   2.140   5.101 -0.5641  1.1345  1.9720
 4453SOL    HW224579   8.049   2.035   5.205  1.1433  0.1137 -0.1677
 4454SOL     OW24580   3.895   8.044   4.579 -0.1974 -0.0047 -0.6478
 4454SOL    HW124581   3.803   8.078   4.562 -0.1913 -0.1653 -1.0156
 4454SOL    HW224582   3.949   8.048   4.495  0.1608  0.1750 -0.4119
 4455SOL     OW24583   1.032   6.241   5.736  0.4677  0.0205 -0.1265
 4455SOL    HW124584   1.084   6.188   5.803 -0.4124 -0.4798  0.1648
 4455SOL    HW224585   0.937   6.250   5.766  0.5885  1.7144 -0.2034
 4456SOL     OW24586   0.496   1.681   2.183 -0.0350  0.1718 -0.8132
 4456SOL    HW124587   0.497   1.739   2.102  1.4902  0.8017 -0.3523
 4456SOL    HW224588   0.589   1.669   2.217 -0.7734  0.7960  1.4884
 4457SOL     OW24589   5.892   3.219   0.569  0.0641 -0.5311 -0.6523
 4457SOL    HW124590   5.933   3.296   0.618 -0.4269  0.3828 -1.6655
 4457SOL    HW224591   5.950   3.193   0.492 -1.2695  0.8183 -2.1406
 4458SOL     OW24592   5.182   1.200   5.401  0.5184 -0.0346  0.6448
 4458SOL    HW124593   5.146   1.168   5.313  0.2711  0.6990  0.4760
 4458SOL    HW224594   5.230   1.125   5.446 -2.4797 -1.5022  1.5648
 4459SOL     OW24595   4.267   3.282   2.126 -0.0209 -0.6628  0.0424
 4459SOL    HW124596   4.340   3.236   2.077  0.1241 -1.1407  0.6963
 4459SOL    HW224597   4.288   3.284   2.224 -1.3423 -1.7199  0.3778
 4460SOL     OW24598   4.524   5.116   0.668  0.1190  0.0141 -0.3435
 4460SOL    HW124599   4.449   5.160   0.717 -0.3523  0.2780 -1.3055
 4460SOL    HW224600   4.495   5.026   0.635  0.9814 -0.9060  1.3490
 4461SOL     OW24601   1.391   9.571   6.414 -0.4872 -0.0890  0.5343
 4461SOL    HW124602   1.294   9.562   6.392 -0.1350 -2.4131 -0.1786
 4461SOL    HW224603   1.442   9.593   6.331 -0.2491 -0.0154  0.6995
 4462SOL     OW24604   9.289   2.919   3.431 -0.4172 -0.2882  0.0806
 4462SOL    HW124605   9.276   3.008   3.476  1.0653 -0.5725  1.1193
 4462SOL    HW224606   9.240   2.918   3.344  1.5735  2.4907 -1.1698
 4463SOL     OW24607   0.193   6.731   2.665  0.0420  0.3869  0.3099
 4463SOL    HW124608   0.148   6.818   2.689  1.7601  1.1302  0.8608
 4463SOL    HW224609   0.291   6.746   2.654 -0.0735 -0.8032 -2.9463
 4464SOL     OW24610   1.967   3.003   5.274 -0.4095 -0.3221  0.3861
 4464SOL    HW124611   1.935   3.056   5.196  1.2436 -0.4842 -0.4238
 4464SOL    HW224612   1.890   2.983   5.334 -1.1479  2.5579  0.4750
 4465SOL     OW24613   9.510   7.170   1.444  0.5932 -0.5182 -0.5379
 4465SOL    HW124614   9.489   7.082   1.486  1.4015  0.2447  1.5714
 4465SOL    HW224615   9.431   7.231   1.452 -0.0966 -1.1643 -2.3359
 4466SOL     OW24616   4.844   5.324   2.122 -0.6818  0.1146 -0.1728
 4466SOL    HW124617   4.827   5.225   2.126  1.0035 -0.2001 -0.2542
 4466SOL    HW224618   4.794   5.364   2.046 -1.3674 -0.6860 -0.1439
 4467SOL     OW24619   0.660   4.384   0.753  0.1762  0.0784 -0.3025
 4467SOL    HW124620   0.567   4.355   0.775  0.1800  0.7760  0.6876
 4467SOL    HW224621   0.682   4.359   0.659 -1.2140  0.4045 -0.7279
 4468SOL     OW24622   1.441   7.216   3.595  0.4967 -0.8427  0.1849
 4468SOL    HW124623   1.498   7.184   3.671 -0.5663  0.5965  1.6364
 4468SOL    HW224624   1.359   7.260   3.632 -0.1181 -0.2618 -1.8156
 4469SOL     OW24625   9.481   0.857   5.119 -0.1479  0.6241  0.2837
 4469SOL    HW124626   9.403   0.888   5.064 -1.6296 -1.7311  0.9606
 4469SOL    HW224627   9.477   0.757   5.128  2.9947  0.4603  0.3013
 4470SOL     OW24628   9.951   8.538   1.389 -0.7709 -0.6007 -0.2249
 4470SOL    HW124629   9.886   8.491   1.447 -0.5673  1.0818  1.4407
 4470SOL    HW224630   9.915   8.628   1.364  0.7769  0.2587  0.5270
 4471SOL     OW24631   2.034   1.892   3.436  0.2688 -0.0487 -0.3044
 4471SOL    HW124632   2.122   1.874   3.480  0.4183 -0.1387 -0.6359
 4471SOL    HW224633   2.037   1.980   3.389  0.8207 -0.9065 -1.9079
 4472SOL     OW24634   2.997   1.946   0.574  0.9619  0.2379 -0.4983
 4472SOL    HW124635   2.924   1.911   0.515 -0.3335  2.8227 -0.4946
 4472SOL    HW224636   3.085   1.938   0.527  0.3498 -0.5607 -1.5166
 4473SOL     OW24637   1.483   9.574   5.909  0.4228  0.3745  0.0470
 4473SOL    HW124638   1.505   9.664   5.946 -0.2304 -0.3968  2.4186
 4473SOL    HW224639   1.566   9.518   5.906  0.4896  0.4609  0.2955
 4474SOL     OW24640   3.798   9.455   3.401  0.4593 -0.1396 -0.0235
 4474SOL    HW124641   3.844   9.366   3.394 -0.3704 -0.4790 -1.3220
 4474SOL    HW224642   3.795   9.498   3.311 -2.7445 -0.6102 -0.1824
 4475SOL     OW24643   4.025   9.288   5.052  0.0580 -0.2854  0.2044
 4475SOL    HW124644   4.103   9.226   5.048  0.5754  0.4601 -1.4636
 4475SOL    HW224645   3.988   9.302   4.960  0.9356  3.1352  0.3190
 4476SOL     OW24646   7.590   5.380   1.763 -0.1880 -0.2843 -0.3152
 4476SOL    HW124647   7.645   5.357   1.682 -1.5536 -0.9101 -1.0753
 4476SOL    HW224648   7.626   5.463   1.805  1.3989 -0.7298 -0.7506
 4477SOL     OW24649   1.736   2.252   5.776 -0.1698  0.0268 -0.0550
 4477SOL    HW124650   1.795   2.193   5.831 -0.6303 -0.0180  0.3996
 4477SOL    HW224651   1.712   2.205   5.691  0.5998  0.1221 -0.3307
 4478SOL     OW24652   1.786   9.679   0.679 -0.3218 -0.7866 -0.0697
 4478SOL    HW124653   1.830   9.747   0.621  0.9200 -1.1381  0.4479
 4478SOL    HW224654   1.692   9.664   0.648 -0.9005  1.7973  0.3663
 4479SOL     OW24655   5.924   2.467   5.554 -0.0892  0.4792 -0.1212
 4479SOL    HW124656   5.932   2.510   5.464  0.6390 -1.1829 -0.8746
 4479SOL    HW224657   5.843   2.409   5.556  1.7497 -2.1979 -0.9070
 4480SOL     OW24658   9.186   5.730   3.398 -0.6754 -0.2470  0.3105
 4480SOL    HW124659   9.213   5.827   3.393 -0.8828 -0.1768  0.5203
 4480SOL    HW224660   9.140   5.714   3.485  0.8716 -0.9139  1.0226
 4481SOL     OW24661   7.530   5.985   1.517 -0.4734  0.0090  0.3909
 4481SOL    HW124662   7.537   6.077   1.479  0.8337 -0.1845  0.1466
 4481SOL    HW224663   7.522   5.990   1.616 -1.0313  0.4082  0.3267
 4482SOL     OW24664   3.143   8.171   0.935 -0.4019 -0.1900  0.2875
 4482SOL    HW124665   3.070   8.197   0.999  0.1513  0.4147  0.6793
 4482SOL    HW224666   3.197   8.097   0.974 -0.6397 -0.4545  0.1147
 4483SOL     OW24667   8.341   5.122   3.178  0.5374 -0.7344  0.1827
 4483SOL    HW124668   8.267   5.104   3.113 -0.3327  0.8165  0.7382
 4483SOL    HW224669   8.409   5.181   3.135 -0.9654  1.8619  1.2468
 4484SOL     OW24670   8.722   5.838   1.548 -0.5962  0.0204  0.2490
 4484SOL    HW124671   8.624   5.860   1.553 -0.4839  0.7756 -0.7736
 4484SOL    HW224672   8.742   5.761   1.609 -1.7453  0.1524  0.8020
 4485SOL     OW24673   4.998   8.935   4.260 -0.1813  0.2205  0.7320
 4485SOL    HW124674   5.091   8.942   4.297 -0.3820  0.1882  1.2515
 4485SOL    HW224675   5.000   8.951   4.161  0.3883  0.1426  0.7271
 4486SOL     OW24676   5.338   8.373   3.389  0.5226 -0.1423  0.0616
 4486SOL    HW124677   5.322   8.404   3.295  0.1671 -1.4529 -0.3261
 4486SOL    HW224678   5.306   8.443   3.453  2.1503  1.4113 -0.7991
 4487SOL     OW24679   1.832   6.413   1.034  0.0594  0.5821  0.7777
 4487SOL    HW124680   1.734   6.399   1.022  0.2497 -0.5791  0.5356
 4487SOL    HW224681   1.864   6.485   0.971  0.0426 -1.6303 -1.8240
 4488SOL     OW24682   6.242   7.977   5.262  0.0527 -0.1113 -0.2074
 4488SOL    HW124683   6.196   7.974   5.173  1.2390 -0.7252 -0.8034
 4488SOL    HW224684   6.309   7.903   5.268  1.3031  1.0518  0.4612
 4489SOL     OW24685   6.424   1.122   0.524  0.3547  0.4541 -0.1824
 4489SOL    HW124686   6.490   1.077   0.464  0.6514  0.0194  0.4589
 4489SOL    HW224687   6.344   1.149   0.471  1.1922  1.2996 -1.0336
 4490SOL     OW24688   3.370   6.488   4.278  0.5489  0.5295  0.1554
 4490SOL    HW124689   3.462   6.460   4.250  0.4143 -0.2154  0.4316
 4490SOL    HW224690   3.328   6.414   4.331 -0.4648  0.5865 -0.5519
 4491SOL     OW24691   8.183   9.405   2.777  0.2631 -0.4282 -0.2487
 4491SOL    HW124692   8.096   9.357   2.771  0.4889 -0.7841 -0.7505
 4491SOL    HW224693   8.239   9.363   2.850  0.4517 -0.9162 -0.6706
 4492SOL     OW24694   8.083   0.514   1.102  0.1857 -0.2169 -0.2280
 4492SOL    HW124695   8.139   0.595   1.088  1.4150 -0.8412  0.9134
 4492SOL    HW224696   8.030   0.524   1.186  0.5207 -0.6831  0.0448
 4493SOL     OW24697   3.092   0.142   2.075 -0.1976  0.1533  0.5134
 4493SOL    HW124698   3.089   0.146   1.975  1.9824  1.7400  0.4827
 4493SOL    HW224699   3.024   0.204   2.113 -1.4408 -0.8898  0.0426
 4494SOL     OW24700   3.353   6.927   4.730 -0.3189  0.4861  0.5855
 4494SOL    HW124701   3.309   7.015   4.715 -0.9458  0.1954  0.6869
 4494SOL    HW224702   3.306   6.856   4.677  1.5543  0.5698 -1.2633
 4495SOL     OW24703   3.810   9.757   2.778  0.1510 -0.1574  0.2801
 4495SOL    HW124704   3.724   9.789   2.817  1.0018  1.6315  0.7401
 4495SOL    HW224705   3.870   9.725   2.852 -0.3467 -2.0132 -0.0954
 4496SOL     OW24706   9.297   9.298   1.150 -0.6845  0.4107  0.7338
 4496SOL    HW124707   9.267   9.204   1.167 -2.8586  0.5129 -2.2760
 4496SOL    HW224708   9.217   9.358   1.146  0.5930  2.1793  1.1760
 4497SOL     OW24709   8.492   5.747   4.794 -0.7424  0.2333 -0.5254
 4497SOL    HW124710   8.541   5.827   4.827 -0.1421  0.2925 -1.5428
 4497SOL    HW224711   8.394   5.762   4.802 -0.6228  0.2145  1.2916
 4498SOL     OW24712   6.488   5.358   1.736 -0.4112 -0.1721  0.7062
 4498SOL    HW124713   6.402   5.343   1.786  0.3338 -0.6700  1.8518
 4498SOL    HW224714   6.528   5.445   1.764 -1.3181  0.8046 -0.9753
 4499SOL     OW24715   6.374   2.131   4.873  0.0791  0.9124 -0.0946
 4499SOL    HW124716   6.427   2.055   4.837  0.7353  2.1005 -1.6904
 4499SOL    HW224717   6.329   2.180   4.798 -0.5377  1.9557  0.9258
 4500SOL     OW24718   2.599   7.529   1.626 -0.2097 -0.1134 -0.1771
 4500SOL    HW124719   2.609   7.628   1.611  2.4298 -0.0515  1.6897
 4500SOL    HW224720   2.562   7.513   1.717 -1.6866 -0.8531 -0.8922
 4501SOL     OW24721   9.728   5.329   0.333 -0.0854  0.1846  0.0197
 4501SOL    HW124722   9.776   5.340   0.420  1.9610  1.6190 -1.2322
 4501SOL    HW224723   9.735   5.413   0.280 -1.6206 -0.5376 -1.3848
 4502SOL     OW24724   2.519   2.324   0.123 -0.8708  0.4416  0.2792
 4502SOL    HW124725   2.544   2.400   0.061  2.3349 -0.7007  0.0987
 4502SOL    HW224726   2.467   2.256   0.071 -1.5241  1.2817 -0.1980
 4503SOL     OW24727   3.932   1.581   5.537 -0.2470 -0.2947 -0.6834
 4503SOL    HW124728   3.959   1.536   5.451 -2.0422 -1.7240 -0.5507
 4503SOL    HW224729   3.865   1.653   5.517 -2.4318 -2.1554 -0.3408
 4504SOL     OW24730   8.938   7.563   0.814  0.0815  0.6113  0.0209
 4504SOL    HW124731   8.869   7.500   0.778  0.0618  1.1394 -0.8788
 4504SOL    HW224732   8.905   7.604   0.899  1.3429 -2.8923  2.3216
 4505SOL     OW24733   2.307   4.367   5.679 -0.0886  0.4383  0.0043
 4505SOL    HW124734   2.336   4.405   5.767  1.9678  1.4934 -1.1022
 4505SOL    HW224735   2.382   4.374   5.613 -0.5196 -3.2194 -0.9756
 4506SOL     OW24736   5.317   8.896   2.422  1.4088  0.1610  0.0729
 4506SOL    HW124737   5.307   8.992   2.448 -4.0070 -0.5058  0.9545
 4506SOL    HW224738   5.306   8.886   2.323  0.5559  0.2759  0.1580
 4507SOL     OW24739   0.390   4.965   4.578  0.2310  0.2552  0.2490
 4507SOL    HW124740   0.383   4.960   4.478 -0.3869  2.4967  0.1564
 4507SOL    HW224741   0.458   5.033   4.603 -0.0212  0.1059  1.3555
 4508SOL     OW24742   1.939   9.098   2.749  0.0472  0.8492 -0.2643
 4508SOL    HW124743   1.863   9.163   2.748 -0.2214  0.5524  0.3480
 4508SOL    HW224744   1.964   9.077   2.844 -0.0419 -0.1218 -0.4446
 4509SOL     OW24745   0.098   1.979   4.643 -0.4791 -0.2151 -0.6774
 4509SOL    HW124746   0.122   2.076   4.644  1.3914 -0.6382 -1.4832
 4509SOL    HW224747   0.176   1.926   4.677 -1.6549 -1.4118  0.2010
 4510SOL     OW24748   0.796   5.199   5.393 -0.2940  0.1905  0.2301
 4510SOL    HW124749   0.830   5.108   5.370  0.7847  0.4910  0.5862
 4510SOL    HW224750   0.846   5.234   5.473  0.2343  1.6382 -0.7022
 4511SOL     OW24751   7.081   3.348   5.957  0.2658  0.0442 -0.1194
 4511SOL    HW124752   7.121   3.299   5.879 -0.0765  1.5634 -1.2661
 4511SOL    HW224753   6.982   3.336   5.956  0.3755 -1.0322  0.8606
 4512SOL     OW24754   9.144   0.131   1.120 -0.0150 -0.3487  0.1086
 4512SOL    HW124755   9.119   0.035   1.136 -0.6121 -0.4127 -1.0898
 4512SOL    HW224756   9.140   0.150   1.022  2.2659  0.3205  0.1256
 4513SOL     OW24757   4.858   9.189   2.121 -0.3305  0.3105 -0.0709
 4513SOL    HW124758   4.910   9.191   2.035 -0.1472  1.2008  0.0557
 4513SOL    HW224759   4.880   9.270   2.175 -0.4017 -0.2734  0.8469
 4514SOL     OW24760   0.976   8.544   4.955 -0.2517  0.5862  0.3698
 4514SOL    HW124761   1.046   8.489   5.001  0.5024  0.0408 -1.3774
 4514SOL    HW224762   1.019   8.624   4.913 -0.3405 -0.6731 -2.2241
 4515SOL     OW24763   2.265   2.748   1.542  0.5507  0.1807 -0.0643
 4515SOL    HW124764   2.331   2.674   1.557 -0.2120 -1.4547 -4.0568
 4515SOL    HW224765   2.178   2.709   1.511 -0.6656  2.6084  0.2165
 4516SOL     OW24766   9.910   3.291   2.187 -0.2207 -0.1840  0.2317
 4516SOL    HW124767   9.894   3.196   2.216  0.0045 -0.8313 -1.6797
 4516SOL    HW224768  10.001   3.320   2.216  0.9114 -1.6144 -1.7852
 4517SOL     OW24769   1.537   1.605   4.020  0.4981 -0.0624 -0.4064
 4517SOL    HW124770   1.607   1.634   3.955  1.5597 -0.2984  0.6168
 4517SOL    HW224771   1.574   1.534   4.079 -0.5244  0.0146  0.3387
 4518SOL     OW24772   4.921   1.672   0.963  0.2525 -0.1087 -0.0992
 4518SOL    HW124773   4.966   1.729   1.032 -0.5320  1.2042 -0.6548
 4518SOL    HW224774   4.943   1.706   0.872 -0.0325 -0.8527 -0.4524
 4519SOL     OW24775   8.451   6.162   6.536  0.6348  0.5613  0.3691
 4519SOL    HW124776   8.531   6.104   6.522  1.3563  1.5521  0.3517
 4519SOL    HW224777   8.388   6.118   6.600  0.8193 -0.5836 -0.2276
 4520SOL     OW24778   8.165   1.980   1.613  0.5932  0.3879 -0.3175
 4520SOL    HW124779   8.107   1.899   1.611 -0.8879  1.3900  0.9225
 4520SOL    HW224780   8.220   1.984   1.530 -1.7748 -0.1039 -1.9538
 4521SOL     OW24781   8.688   8.210   5.735 -0.1438 -0.1521  0.0935
 4521SOL    HW124782   8.598   8.225   5.775  0.0126 -0.4661  0.5717
 4521SOL    HW224783   8.758   8.249   5.795 -0.0120  0.8592 -0.6990
 4522SOL     OW24784   0.341   0.310   2.197 -0.3051 -0.3649 -0.0191
 4522SOL    HW124785   0.430   0.328   2.156  0.4952 -0.0607  1.8403
 4522SOL    HW224786   0.298   0.234   2.149  2.1437 -2.3325  0.8048
 4523SOL     OW24787   7.497   3.477   0.877 -0.0635 -0.4441  0.0141
 4523SOL    HW124788   7.596   3.489   0.885 -0.2084  0.1149  1.0417
 4523SOL    HW224789   7.450   3.561   0.905 -0.8180 -0.5614 -0.8732
 4524SOL     OW24790   1.600   7.369   1.209  0.0241 -0.5141 -0.1550
 4524SOL    HW124791   1.503   7.388   1.198 -0.0232 -0.9597 -0.5566
 4524SOL    HW224792   1.615   7.320   1.296 -0.2442 -1.3222 -0.5547
 4525SOL     OW24793   8.034   2.528   2.737 -0.6459  0.6513 -0.1058
 4525SOL    HW124794   7.967   2.577   2.794 -1.4366 -0.0939 -0.3810
 4525SOL    HW224795   8.036   2.569   2.646 -1.5511 -0.0168 -0.4386
 4526SOL     OW24796   5.661   4.496   1.074  0.1849 -1.0316 -0.6151
 4526SOL    HW124797   5.640   4.491   0.976 -0.6786  0.7535 -0.5368
 4526SOL    HW224798   5.576   4.512   1.125  0.4562 -3.0739  0.5411
 4527SOL     OW24799   0.156   9.225   3.941 -0.3502  0.0927 -0.2474
 4527SOL    HW124800   0.209   9.247   3.859  0.0743 -0.4070 -0.1108
 4527SOL    HW224801   0.060   9.214   3.916  0.1796 -2.8633 -1.1973
 4528SOL     OW24802   2.646   8.199   4.673  0.0285 -0.0485  0.5475
 4528SOL    HW124803   2.662   8.289   4.714  1.2069  0.6040 -1.3083
 4528SOL    HW224804   2.716   8.135   4.704 -0.5287 -0.2236  1.4829
 4529SOL     OW24805   3.860   8.792   2.938  0.1758 -0.0966 -0.3444
 4529SOL    HW124806   3.880   8.748   3.026 -1.8296 -0.8069 -0.2162
 4529SOL    HW224807   3.828   8.885   2.954  0.0350 -0.1477 -0.3148
 4530SOL     OW24808   8.590   9.438   3.359  0.0643  0.4447 -0.2359
 4530SOL    HW124809   8.529   9.486   3.423 -1.0647 -0.2315 -0.7865
 4530SOL    HW224810   8.676   9.417   3.405 -0.7479 -0.0640  1.0993
 4531SOL     OW24811   1.054   7.872   4.079  0.1237  0.0128  0.2665
 4531SOL    HW124812   1.109   7.943   4.036 -1.1113 -0.2264 -1.7736
 4531SOL    HW224813   0.958   7.882   4.051 -0.3655 -1.4260  1.3214
 4532SOL     OW24814   8.641   0.098   2.550  0.4221  0.4567  0.0065
 4532SOL    HW124815   8.631   0.020   2.489 -1.7854  2.1730 -1.9794
 4532SOL    HW224816   8.738   0.120   2.562  0.9834 -1.5085 -0.8229
 4533SOL     OW24817   1.769   7.578   2.608  0.4530  0.3356 -0.1429
 4533SOL    HW124818   1.679   7.581   2.565 -0.1244  1.3639  1.0984
 4533SOL    HW224819   1.825   7.508   2.564  0.1750  1.8792 -3.0990
 4534SOL     OW24820   0.532   3.197   4.739  0.4554 -0.2702  0.3555
 4534SOL    HW124821   0.605   3.260   4.763  0.8610 -0.5852 -0.0558
 4534SOL    HW224822   0.455   3.209   4.802  0.6892  0.3578  0.5154
 4535SOL     OW24823   4.184   4.152   3.985  0.0972  0.0131  0.1345
 4535SOL    HW124824   4.269   4.139   4.034  1.7092  1.0599 -2.2427
 4535SOL    HW224825   4.176   4.248   3.957 -1.7191 -0.1314  0.0618
 4536SOL     OW24826   9.452   0.371   6.604 -0.0462 -0.5536  0.2586
 4536SOL    HW124827   9.353   0.367   6.614 -0.2618 -0.2849 -1.5983
 4536SOL    HW224828   9.480   0.464   6.582  0.5012 -0.8532 -0.3356
 4537SOL     OW24829   4.557   0.287   3.275 -0.0349 -0.5630  0.0151
 4537SOL    HW124830   4.536   0.190   3.289  0.0296 -0.4555  0.9445
 4537SOL    HW224831   4.586   0.327   3.362 -0.1931  0.3195 -0.3318
 4538SOL     OW24832   8.893   9.019   6.302 -0.3248  0.1929 -0.3769
 4538SOL    HW124833   8.909   9.010   6.204 -0.3119 -0.2744 -0.3337
 4538SOL    HW224834   8.820   9.086   6.318 -1.1701 -0.6277 -0.7679
 4539SOL     OW24835   2.362   8.178   0.468  0.1148  0.3943 -0.6969
 4539SOL    HW124836   2.328   8.127   0.547  0.4821 -1.8583 -1.9279
 4539SOL    HW224837   2.315   8.145   0.385  1.9468  0.5144 -1.8039
 4540SOL     OW24838   6.270   5.305   1.879 -0.2027  0.4422  0.2644
 4540SOL    HW124839   6.197   5.371   1.861  0.3562  0.9728 -0.0651
 4540SOL    HW224840   6.230   5.214   1.890 -0.7389  0.3860 -1.8933
 4541SOL     OW24841   2.724   6.924   1.900 -0.5403 -0.4625 -0.1703
 4541SOL    HW124842   2.802   6.944   1.960 -0.9788 -1.2787  0.6765
 4541SOL    HW224843   2.679   7.010   1.875 -0.4590 -0.1248  0.8202
 4542SOL     OW24844   3.725   4.768   4.293 -0.2421 -0.1539  0.1064
 4542SOL    HW124845   3.679   4.813   4.370  1.2924  1.2093  0.2544
 4542SOL    HW224846   3.820   4.748   4.318  0.2402  0.2089 -1.4027
 4543SOL     OW24847   2.473   1.101   3.208  0.0694  0.0098 -0.1529
 4543SOL    HW124848   2.530   1.184   3.207 -0.8113  0.6939  1.9663
 4543SOL    HW224849   2.523   1.026   3.165  1.0679  1.5108 -1.7244
 4544SOL     OW24850   2.628   8.582   2.450 -0.1305  0.2696  0.0193
 4544SOL    HW124851   2.574   8.635   2.384  0.7234 -1.3021 -2.0052
 4544SOL    HW224852   2.722   8.574   2.416 -0.1788 -2.2703  0.4284
 4545SOL     OW24853   1.449   0.145   4.043 -0.2978  0.0766 -0.4493
 4545SOL    HW124854   1.447   0.045   4.037 -0.9329 -0.0029  0.8246
 4545SOL    HW224855   1.543   0.177   4.036  0.0473 -0.7096  0.4964
 4546SOL     OW24856   0.615   8.228   1.100  0.0115  0.1798 -0.3819
 4546SOL    HW124857   0.680   8.303   1.117  1.2475 -0.9277 -0.1415
 4546SOL    HW224858   0.611   8.209   1.002 -0.8699  1.0471 -0.5226
 4547SOL     OW24859   5.692   9.240   5.550 -0.0973 -0.1933 -0.5411
 4547SOL    HW124860   5.655   9.333   5.553  1.1612  0.3198 -0.6467
 4547SOL    HW224861   5.686   9.198   5.641 -0.8001 -0.0631 -0.5279
 4548SOL     OW24862   9.174   9.057   1.945  0.3773 -0.4862  0.5360
 4548SOL    HW124863   9.086   9.038   1.901  0.9107 -3.4133  0.6757
 4548SOL    HW224864   9.176   9.014   2.035  1.5680  0.5109  1.0047
 4549SOL     OW24865   8.820   2.351   0.754  0.4222 -0.1968 -0.5756
 4549SOL    HW124866   8.910   2.368   0.793 -0.2461 -1.4547  1.5963
 4549SOL    HW224867   8.829   2.288   0.676  1.4476 -0.0575 -0.5765
 4550SOL     OW24868   5.132   1.950   3.480 -0.2663 -0.4968 -0.0727
 4550SOL    HW124869   5.103   1.965   3.575  0.6491 -0.6160  0.2351
 4550SOL    HW224870   5.229   1.971   3.472 -0.9591  2.2098 -1.6197
 4551SOL     OW24871   0.864   5.759   2.870  0.2056  0.0520  0.0818
 4551SOL    HW124872   0.939   5.697   2.893  0.0848  0.2345  0.9866
 4551SOL    HW224873   0.828   5.736   2.780  2.8397  1.3596 -1.3974
 4552SOL     OW24874   3.878   5.068   0.199 -0.1472  0.0353  0.4469
 4552SOL    HW124875   3.842   5.013   0.123  0.9174 -0.8852  0.5941
 4552SOL    HW224876   3.885   5.163   0.171 -0.0706 -0.2455 -0.5009
 4553SOL     OW24877   4.016   7.099   1.427  0.2048 -0.0991  0.5774
 4553SOL    HW124878   3.954   7.040   1.376  2.1502 -1.1319 -0.6769
 4553SOL    HW224879   4.018   7.190   1.385  1.1265 -0.6866 -0.6836
 4554SOL     OW24880   9.980   6.737   4.529  0.0708  0.1387  0.2098
 4554SOL    HW124881   9.981   6.651   4.580 -0.7298 -0.6353 -1.0491
 4554SOL    HW224882   9.977   6.718   4.431  0.8287  1.6081 -0.1157
 4555SOL     OW24883   3.972   2.201   2.907 -0.2585 -0.3243 -0.5781
 4555SOL    HW124884   3.975   2.113   2.955 -2.2578 -1.2712 -2.1071
 4555SOL    HW224885   3.891   2.252   2.935 -1.1770 -0.6721 -2.5326
 4556SOL     OW24886   9.784   0.654   5.709 -0.1687  0.0033 -0.0192
 4556SOL    HW124887   9.829   0.574   5.748  0.1582 -0.2583 -0.9164
 4556SOL    HW224888   9.849   0.704   5.652 -0.0933  1.4612  1.3139
 4557SOL     OW24889   2.230   8.069   1.030  0.0434 -0.1302 -0.1298
 4557SOL    HW124890   2.276   8.063   1.119  1.2868  0.3404 -0.7168
 4557SOL    HW224891   2.203   8.164   1.013 -0.3766 -0.2555 -0.1702
 4558SOL     OW24892   0.838   4.807   1.349 -0.3780 -0.4971 -0.1727
 4558SOL    HW124893   0.852   4.740   1.421 -0.5923  1.3706  1.6566
 4558SOL    HW224894   0.925   4.823   1.301  0.0336 -0.8801  0.4422
 4559SOL     OW24895   3.927   6.541   3.137  0.2847  0.5470 -0.3350
 4559SOL    HW124896   3.875   6.456   3.138  2.8975 -1.1224 -0.2905
 4559SOL    HW224897   3.942   6.570   3.043 -1.0015  1.2220 -0.3377
 4560SOL     OW24898   3.615   4.136   5.098 -0.3418  0.1504  0.1309
 4560SOL    HW124899   3.676   4.084   5.157  0.8688 -0.3666 -1.5745
 4560SOL    HW224900   3.653   4.227   5.083 -0.4465  0.1387 -0.2007
 4561SOL     OW24901   4.133   1.285   2.495 -0.2448 -0.3811  0.5827
 4561SOL    HW124902   4.229   1.315   2.495 -0.5970  0.8656 -1.0282
 4561SOL    HW224903   4.092   1.303   2.584  0.4286  1.1116  0.6097
 4562SOL     OW24904   3.883   3.136   5.810  0.3994 -0.5273 -0.0987
 4562SOL    HW124905   3.856   3.065   5.745  0.5255  0.2057 -0.9563
 4562SOL    HW224906   3.813   3.208   5.812 -0.3291 -1.2363  1.6553
 4563SOL     OW24907   2.491   7.867   0.533 -0.1543  0.1702 -0.3684
 4563SOL    HW124908   2.398   7.845   0.564 -0.6334  0.5974 -1.4940
 4563SOL    HW224909   2.493   7.873   0.433  1.3175 -0.8709 -0.4130
 4564SOL     OW24910   4.435   7.548   1.198 -0.0464 -0.3855  0.3660
 4564SOL    HW124911   4.474   7.587   1.282 -0.5820 -0.5301  0.6834
 4564SOL    HW224912   4.434   7.448   1.205  1.8364 -0.5034 -0.6721
 4565SOL     OW24913   1.314   6.673   4.865  0.1770 -0.1865  0.1436
 4565SOL    HW124914   1.280   6.655   4.773  2.2620 -1.2382 -0.4373
 4565SOL    HW224915   1.337   6.770   4.874 -2.1752  0.3862  0.3082
 4566SOL     OW24916   1.987   2.971   0.986  0.1152 -0.1832  0.4164
 4566SOL    HW124917   2.042   2.899   0.943  0.7257  0.6725 -0.2363
 4566SOL    HW224918   1.937   2.932   1.064  0.8037 -1.2095  0.3559
 4567SOL     OW24919   6.213   0.106   2.351  0.2040 -0.0530 -0.8905
 4567SOL    HW124920   6.165   0.049   2.284  1.4568 -3.0142  0.6677
 4567SOL    HW224921   6.147   0.138   2.420 -0.1789 -1.1255 -0.7518
 4568SOL     OW24922   6.734   8.603   6.149 -0.0074 -0.0430  0.3429
 4568SOL    HW124923   6.813   8.546   6.169  1.0432  0.9361 -0.8872
 4568SOL    HW224924   6.743   8.691   6.195  0.2996  0.5802 -0.8809
 4569SOL     OW24925   1.123   9.710   1.791 -0.0085 -0.2360 -0.5364
 4569SOL    HW124926   1.041   9.681   1.841 -0.2728 -0.7783 -1.2819
 4569SOL    HW224927   1.202   9.659   1.824  0.1266  0.6531  0.5438
 4570SOL     OW24928   8.955   6.672   1.984  0.3159  0.5101 -0.3959
 4570SOL    HW124929   9.042   6.666   1.935  0.4263  0.9327 -0.2546
 4570SOL    HW224930   8.957   6.751   2.045  1.0890 -1.3121  2.0467
 4571SOL     OW24931   1.807   6.848   6.373  0.5174  0.0050  0.1974
 4571SOL    HW124932   1.809   6.867   6.471  1.3791  0.5999  0.0651
 4571SOL    HW224933   1.747   6.913   6.328  1.1854  0.5929  0.1472
 4572SOL     OW24934   3.253   8.129   0.602  0.1211 -0.1710  0.4776
 4572SOL    HW124935   3.338   8.168   0.636 -0.6721  1.8416  0.2532
 4572SOL    HW224936   3.176   8.186   0.632 -1.0871 -1.5996  0.1481
 4573SOL     OW24937   3.974   1.606   1.542 -0.4645  0.1621  0.5712
 4573SOL    HW124938   4.043   1.678   1.535  0.7718 -1.1343 -1.1238
 4573SOL    HW224939   3.986   1.556   1.627 -0.5530  1.1711  1.1829
 4574SOL     OW24940   6.238   5.705   8.049 -0.8244  0.2290 -0.1838
 4574SOL    HW124941   6.208   5.765   8.123  0.8404  0.7691  0.0693
 4574SOL    HW224942   6.263   5.616   8.087 -0.2168  0.4239 -0.1187
 4575SOL     OW24943   3.408   1.704   0.210 -0.1134 -0.8435  0.2806
 4575SOL    HW124944   3.472   1.732   0.138  1.1402 -1.9356  0.9275
 4575SOL    HW224945   3.446   1.730   0.299 -1.6946  0.5727  0.5592
 4576SOL     OW24946   9.753   6.254   0.869 -0.7899  0.2095  0.0232
 4576SOL    HW124947   9.825   6.298   0.923 -1.8407  0.5495  1.1569
 4576SOL    HW224948   9.765   6.155   0.872 -0.9923  0.2119  1.1114
 4577SOL     OW24949   4.958   9.854   4.023 -0.2497 -0.2145  0.3991
 4577SOL    HW124950   5.052   9.889   4.021  0.0765 -1.0356  1.2792
 4577SOL    HW224951   4.959   9.756   4.002 -1.1045  0.1485 -1.4833
 4578SOL     OW24952   3.548   2.835   0.929  0.1247 -0.3580  0.3395
 4578SOL    HW124953   3.519   2.873   1.017 -0.2099  0.0286  0.0615
 4578SOL    HW224954   3.582   2.908   0.870  0.0777 -0.5766  0.0396
 4579SOL     OW24955   9.551   2.984   3.431 -0.3790 -0.2906  0.8602
 4579SOL    HW124956   9.454   2.964   3.417 -0.0991 -0.0094 -1.9460
 4579SOL    HW224957   9.593   2.910   3.483 -1.8406 -1.0377  1.0088
 4580SOL     OW24958   1.599   0.066   0.629  0.2042  0.3780  0.4779
 4580SOL    HW124959   1.551   0.065   0.541 -0.2347  0.3277  0.7166
 4580SOL    HW224960   1.694   0.036   0.616  0.1072  0.2562  0.0428
 4581SOL     OW24961   2.814   8.490   6.167  0.0864 -0.3592  0.2670
 4581SOL    HW124962   2.752   8.503   6.090  2.1933 -3.2241 -2.0509
 4581SOL    HW224963   2.768   8.441   6.240 -1.7784  1.8852  0.6398
 4582SOL     OW24964   0.229   1.214   4.009  0.2607 -0.2859 -0.1055
 4582SOL    HW124965   0.191   1.236   4.098  0.0269  0.0853 -0.2914
 4582SOL    HW224966   0.310   1.157   4.020  0.9497  0.7606  0.4165
 4583SOL     OW24967   3.481   4.944   3.443  0.1035 -0.7956 -0.3711
 4583SOL    HW124968   3.546   4.876   3.408 -1.2200 -1.5997 -1.3324
 4583SOL    HW224969   3.468   4.930   3.541  1.9835 -0.0967  0.0122
 4584SOL     OW24970   0.177   3.188   0.382  0.6330 -0.4171 -0.1133
 4584SOL    HW124971   0.197   3.140   0.297  3.1910  0.2718  0.0738
 4584SOL    HW224972   0.078   3.189   0.396  0.2385 -1.5563 -2.4643
 4585SOL     OW24973   7.145   6.556   3.045  0.2620 -0.2171  0.4726
 4585SOL    HW124974   7.109   6.582   3.135 -0.3090 -0.2883  0.2719
 4585SOL    HW224975   7.082   6.588   2.974  0.7788 -0.0449  0.0909
 4586SOL     OW24976   0.832   9.708   2.583  0.2887 -0.1175 -0.0789
 4586SOL    HW124977   0.800   9.641   2.516 -0.2269  0.3855 -0.3433
 4586SOL    HW224978   0.913   9.754   2.548  1.0162 -1.0384  0.3717
 4587SOL     OW24979   4.317   1.883   6.522 -0.2349 -0.8065  0.2783
 4587SOL    HW124980   4.394   1.830   6.559 -1.4764 -2.5280  0.4705
 4587SOL    HW224981   4.272   1.830   6.450  1.4418  2.0384 -3.0094
 4588SOL     OW24982   4.368   5.361   4.668 -0.0542  0.4803  0.3670
 4588SOL    HW124983   4.358   5.373   4.767 -3.4580 -0.8724  0.2652
 4588SOL    HW224984   4.363   5.263   4.647  2.0083  0.6613 -1.0429
 4589SOL     OW24985   2.228   4.091   0.450  0.4156 -0.2724 -0.1969
 4589SOL    HW124986   2.201   4.008   0.401 -0.2964 -0.4368  0.4640
 4589SOL    HW224987   2.249   4.163   0.384 -0.9684 -0.3523 -0.7453
 4590SOL     OW24988   1.255   5.096   5.435 -0.2291  0.5426  0.1274
 4590SOL    HW124989   1.316   5.047   5.373 -0.3522  0.6058 -0.0461
 4590SOL    HW224990   1.308   5.157   5.493 -0.0238 -0.2360  0.7482
 4591SOL     OW24991   5.447   0.082   1.957 -0.1335 -0.2068 -0.4332
 4591SOL    HW124992   5.466  -0.013   1.981 -0.2062 -0.0448  0.2824
 4591SOL    HW224993   5.387   0.122   2.026  0.8488  0.7024 -0.0839
 4592SOL     OW24994   9.129   9.694   4.263 -0.4951  0.1356  0.6241
 4592SOL    HW124995   9.183   9.732   4.338 -0.4095  1.5297 -0.1341
 4592SOL    HW224996   9.132   9.756   4.185 -1.2891 -0.8965 -0.2364
 4593SOL     OW24997   3.316   0.794   3.842 -0.3026  0.5322 -0.1768
 4593SOL    HW124998   3.334   0.720   3.907  2.2432  1.4989  0.2998
 4593SOL    HW224999   3.362   0.775   3.756 -0.2253  1.2169 -0.2915
 4594SOL     OW25000   3.280   7.482   5.839 -0.1766 -0.0057  0.0045
 4594SOL    HW125001   3.197   7.492   5.894  0.1938 -0.3605  0.6278
 4594SOL    HW225002   3.273   7.401   5.781 -0.9214  0.8408 -1.0912
 4595SOL     OW25003   4.383   9.136   2.089 -0.2688 -0.2452  0.2921
 4595SOL    HW125004   4.475   9.126   2.127 -0.1490  1.8937  0.6661
 4595SOL    HW225005   4.336   9.212   2.136 -2.1778 -1.2188  0.0154
 4596SOL     OW25006   7.136   7.251   6.441  0.2178  0.2255  0.1778
 4596SOL    HW125007   7.130   7.151   6.434  1.3412  0.0368  1.6369
 4596SOL    HW225008   7.106   7.280   6.532 -0.8825  1.3021 -0.5167
 4597SOL     OW25009   6.578   9.723   5.380 -0.2211 -0.0842 -0.4045
 4597SOL    HW125010   6.598   9.820   5.368  0.7561 -0.3688 -1.0859
 4597SOL    HW225011   6.663   9.670   5.379 -0.7085 -0.9139  0.3760
 4598SOL     OW25012   2.075   8.384   1.661  0.0520 -0.3804 -0.1258
 4598SOL    HW125013   2.151   8.380   1.597  0.3477  1.2680  0.0957
 4598SOL    HW225014   2.088   8.460   1.724 -0.9350 -1.1174  1.0057
 4599SOL     OW25015   1.896   8.380   5.438 -0.1096 -0.1617  0.6039
 4599SOL    HW125016   1.964   8.306   5.441  1.2790  1.0547 -0.2048
 4599SOL    HW225017   1.928   8.456   5.495  1.8890  2.6156 -3.9623
 4600SOL     OW25018   1.539   1.285   2.246  0.2102 -0.5651 -0.3458
 4600SOL    HW125019   1.505   1.213   2.305 -0.9664  1.6139  1.7239
 4600SOL    HW225020   1.463   1.325   2.194  0.7252 -0.3345 -0.9372
 4601SOL     OW25021   3.063   1.427   3.807 -0.1559 -0.1917  0.9200
 4601SOL    HW125022   3.063   1.504   3.872  1.5949  2.4032 -2.0391
 4601SOL    HW225023   3.013   1.454   3.724  2.9403 -1.1688 -1.3247
 4602SOL     OW25024   8.768   2.796   2.574  0.5026 -0.1727 -0.5146
 4602SOL    HW125025   8.810   2.728   2.634 -1.7002 -2.3859 -1.3938
 4602SOL    HW225026   8.676   2.817   2.607  0.4944  1.0298 -1.2780
 4603SOL     OW25027   9.416   9.823   1.568 -0.2646 -0.2869  0.2442
 4603SOL    HW125028   9.429   9.873   1.482  0.2953 -1.2961 -0.2667
 4603SOL    HW225029   9.490   9.846   1.631  1.1662 -2.0160 -0.7454
 4604SOL     OW25030   8.522   0.412   0.889  0.3010 -0.2932  0.1846
 4604SOL    HW125031   8.591   0.392   0.959  0.0208  1.9641  1.1461
 4604SOL    HW225032   8.552   0.375   0.801  3.2722  1.5869  0.3504
 4605SOL     OW25033   1.919   2.965   2.559 -0.5376  0.0990 -0.3868
 4605SOL    HW125034   1.887   2.999   2.471 -0.5078  1.2501  0.0434
 4605SOL    HW225035   1.867   3.008   2.633 -0.3356 -0.6071  0.1738
 4606SOL     OW25036   5.242   0.216   6.587 -0.2909  0.1072  0.8360
 4606SOL    HW125037   5.311   0.184   6.652 -1.4203 -0.6425  1.6846
 4606SOL    HW225038   5.227   0.314   6.601  0.2372  0.1701  0.9852
 4607SOL     OW25039   9.920   9.396   4.944  0.3101  0.2126 -0.0192
 4607SOL    HW125040  10.007   9.392   4.894  0.7943 -2.3910  0.9318
 4607SOL    HW225041   9.930   9.458   5.023  0.4647  1.9476 -1.3623
 4608SOL     OW25042   6.990   2.612   2.614 -0.0814 -0.5766 -0.5259
 4608SOL    HW125043   7.044   2.671   2.673 -0.7911  1.0755 -1.5184
 4608SOL    HW225044   6.893   2.618   2.639 -0.3044 -0.3820 -1.4039
 4609SOL     OW25045   9.676   4.537   0.333 -0.3708  0.4007  0.5818
 4609SOL    HW125046   9.698   4.454   0.281 -1.4939 -0.3225  1.2226
 4609SOL    HW225047   9.654   4.512   0.428 -2.4897  1.1943  0.3303
 4610SOL     OW25048   7.267   8.765   3.565  0.0828 -0.0380 -0.4882
 4610SOL    HW125049   7.190   8.810   3.611 -0.9250  0.7475 -2.8491
 4610SOL    HW225050   7.247   8.668   3.554 -0.1688 -0.0068 -0.3096
 4611SOL     OW25051   7.811   9.149   4.350  0.0509  0.3083 -0.5329
 4611SOL    HW125052   7.892   9.192   4.311 -2.3804  4.2942 -1.4116
 4611SOL    HW225053   7.777   9.079   4.287  0.2629  1.7094 -2.2319
 4612SOL     OW25054   8.690   8.177   2.321 -0.4040  0.5019 -0.4562
 4612SOL    HW125055   8.643   8.090   2.301  0.0936 -0.0515  0.7054
 4612SOL    HW225056   8.623   8.246   2.346 -0.8221  0.5136 -1.5810
 4613SOL     OW25057   1.277   2.979   5.294 -0.0088 -0.0780 -0.0977
 4613SOL    HW125058   1.356   2.958   5.235  0.1779 -0.6747  0.3553
 4613SOL    HW225059   1.308   3.034   5.371 -0.4411  1.5882 -1.1084
 4614SOL     OW25060   1.036   5.408   4.822 -0.0501  0.3912  0.1746
 4614SOL    HW125061   0.996   5.321   4.795  1.5134 -0.8203  1.6628
 4614SOL    HW225062   1.015   5.427   4.918 -1.6245  2.3996 -0.5217
 4615SOL     OW25063   0.834   5.739   1.604 -0.5139  0.6354 -0.1841
 4615SOL    HW125064   0.931   5.717   1.613 -1.2123 -2.0945  1.2627
 4615SOL    HW225065   0.811   5.751   1.507  1.0825  0.3853 -0.6016
 4616SOL     OW25066   0.380   0.083   1.656  0.5320  0.1905  0.0964
 4616SOL    HW125067   0.415   0.078   1.563 -0.3315  0.1088 -0.2280
 4616SOL    HW225068   0.313   0.157   1.663 -0.9168 -1.0820  0.1281
 4617SOL     OW25069   2.480   1.608   3.159  0.1738 -0.0736  0.4362
 4617SOL    HW125070   2.425   1.529   3.134 -0.7810 -0.2487  3.0050
 4617SOL    HW225071   2.493   1.666   3.078  0.1004 -2.3336 -1.2500
 4618SOL     OW25072   9.821   8.924   5.008  0.4795  0.2170  0.7270
 4618SOL    HW125073   9.815   8.889   5.101 -0.7643  0.1610  0.6403
 4618SOL    HW225074   9.841   8.849   4.945 -0.9612 -0.1461  0.6857
 4619SOL     OW25075   3.660   8.249   1.424  0.3157  0.5331 -0.2005
 4619SOL    HW125076   3.579   8.240   1.365  0.0592 -1.3775  0.3881
 4619SOL    HW225077   3.738   8.204   1.380  0.7348  1.2442 -0.1854
 4620SOL     OW25078   2.197   2.130   2.097 -0.1493  0.0696  0.1575
 4620SOL    HW125079   2.177   2.045   2.145 -1.0031  0.7833  1.0742
 4620SOL    HW225080   2.167   2.208   2.152  1.0921  0.9947 -0.4375
 4621SOL     OW25081   2.002   6.510   1.496 -0.2144  0.2183  0.6507
 4621SOL    HW125082   1.957   6.599   1.488 -2.5798 -0.9725  0.3658
 4621SOL    HW225083   1.954   6.443   1.439  2.9376 -0.7454 -0.9984
 4622SOL     OW25084   2.596   9.787   6.094 -0.4270 -0.2314 -0.3194
 4622SOL    HW125085   2.634   9.728   6.023  1.1307 -0.7593  0.9260
 4622SOL    HW225086   2.507   9.821   6.065 -0.8799 -2.3579 -1.5026
 4623SOL     OW25087   4.989   0.153   3.257  0.5933 -0.0003  0.5358
 4623SOL    HW125088   4.946   0.180   3.342 -0.1345  0.0371  0.1597
 4623SOL    HW225089   5.001   0.233   3.198  0.9786 -0.0449  0.5535
 4624SOL     OW25090   3.484   9.265   6.248  0.1231  0.1292  0.8326
 4624SOL    HW125091   3.554   9.272   6.320  1.7196 -0.8453 -0.5896
 4624SOL    HW225092   3.498   9.337   6.180  1.6964 -1.9145 -1.0810
 4625SOL     OW25093   6.809   9.349   6.289  0.2987 -0.8193 -0.3461
 4625SOL    HW125094   6.713   9.363   6.311  0.5968  0.0838  0.4298
 4625SOL    HW225095   6.822   9.258   6.250 -0.6042 -1.5519  1.0382
 4626SOL     OW25096   8.535   4.767   5.297  0.6989  0.5433 -0.1768
 4626SOL    HW125097   8.611   4.780   5.234  0.1168 -0.9061 -1.2213
 4626SOL    HW225098   8.568   4.728   5.383  1.5669  2.9887  0.6488
 4627SOL     OW25099   2.461   6.887   4.255  0.5989 -0.7058 -0.0103
 4627SOL    HW125100   2.534   6.884   4.186  0.5648 -1.3420 -0.0153
 4627SOL    HW225101   2.459   6.801   4.306  0.4761 -0.3249  0.6373
 4628SOL     OW25102   8.714   4.493   5.998 -0.9128 -0.0064  0.4904
 4628SOL    HW125103   8.699   4.448   5.910 -1.8592 -0.5148  0.9062
 4628SOL    HW225104   8.801   4.462   6.036  0.5675  1.8856 -1.2793
 4629SOL     OW25105   4.383   4.545   3.322  0.0881  0.2438  0.9128
 4629SOL    HW125106   4.374   4.551   3.222 -2.1688 -1.1702  0.9926
 4629SOL    HW225107   4.354   4.631   3.364  0.6018  0.6842  0.3615
 4630SOL     OW25108   4.781   0.300   2.317  0.0880  0.0139 -0.0068
 4630SOL    HW125109   4.736   0.220   2.278  0.1635 -0.4570  0.8808
 4630SOL    HW225110   4.734   0.383   2.285 -1.3415 -0.4654  0.8223
 4631SOL     OW25111   8.249   3.956   0.491  0.2971  0.1359  0.4975
 4631SOL    HW125112   8.165   3.902   0.500  0.4910  0.0292  1.7915
 4631SOL    HW225113   8.324   3.897   0.460 -0.1994  0.3267 -1.0955
 4632SOL     OW25114   2.140   7.585   4.826 -0.1884 -0.5758 -0.2477
 4632SOL    HW125115   2.096   7.513   4.773 -2.4626 -0.9371  2.0039
 4632SOL    HW225116   2.230   7.553   4.857  0.0798 -1.2914 -1.7237
 4633SOL     OW25117   4.495   9.273   5.230  0.6512 -0.1241  0.2941
 4633SOL    HW125118   4.523   9.269   5.134  0.6617 -0.6414  0.3174
 4633SOL    HW225119   4.415   9.215   5.243  0.8973 -0.3719  0.6880
 4634SOL     OW25120   8.213   5.736   3.029  0.3610 -0.4118  0.4567
 4634SOL    HW125121   8.309   5.724   3.056  0.6489 -0.1022 -0.4083
 4634SOL    HW225122   8.202   5.714   2.932 -0.4113 -0.2681  0.5052
 4635SOL     OW25123   0.878   9.171   3.733  0.3173  0.1373  0.7063
 4635SOL    HW125124   0.967   9.200   3.769  0.7546 -1.7995  1.2356
 4635SOL    HW225125   0.871   9.199   3.637  2.8794 -2.5020 -0.3347
 4636SOL     OW25126   9.284   8.459   0.097 -0.5218 -0.5883 -0.5038
 4636SOL    HW125127   9.317   8.382   0.043  1.1910 -1.0799  1.1948
 4636SOL    HW225128   9.346   8.537   0.086  0.0706 -0.8192  1.0173
 4637SOL     OW25129   2.112   8.395   4.212 -0.1165  0.0792  0.1603
 4637SOL    HW125130   2.153   8.347   4.289  1.1036  0.6173 -0.1309
 4637SOL    HW225131   2.110   8.493   4.231 -0.7184  0.1133 -0.0821
 4638SOL     OW25132   7.698   6.335   2.486  0.2082 -0.4231 -0.2054
 4638SOL    HW125133   7.607   6.339   2.445  0.8004  0.0927 -1.5131
 4638SOL    HW225134   7.694   6.365   2.581 -1.1297 -1.2635  0.0110
 4639SOL     OW25135   0.120   5.054   0.584 -0.0533  0.1897 -0.6124
 4639SOL    HW125136   0.127   5.013   0.675  0.0045 -0.0888 -0.7427
 4639SOL    HW225137   0.035   5.107   0.578 -2.2422 -3.3034 -1.8076
 4640SOL     OW25138   9.114   5.140   1.822 -0.5531 -0.6910  0.2875
 4640SOL    HW125139   9.081   5.113   1.732 -0.3290 -1.1123  0.3320
 4640SOL    HW225140   9.213   5.154   1.818 -0.4765 -1.1581  0.5818
 4641SOL     OW25141   1.576   9.692   3.138 -0.1179 -0.3038  0.0069
 4641SOL    HW125142   1.513   9.614   3.143 -0.9344  0.2189 -1.7758
 4641SOL    HW225143   1.523   9.776   3.120  0.9394  0.3890  0.1062
 4642SOL     OW25144   9.296   9.681   1.006  0.3745  0.3112  0.1498
 4642SOL    HW125145   9.266   9.772   0.977 -1.4029 -0.1387  0.5009
 4642SOL    HW225146   9.382   9.658   0.961  0.5436  1.9328 -0.3780
 4643SOL     OW25147   4.274   9.450   2.698  0.6798  0.5141  0.5320
 4643SOL    HW125148   4.345   9.404   2.645 -0.1681  0.2526 -0.3938
 4643SOL    HW225149   4.223   9.512   2.639  0.7491  1.4224  1.4064
 4644SOL     OW25150   6.106   8.256   2.822 -0.3513  0.0063 -0.0057
 4644SOL    HW125151   6.020   8.287   2.780  0.0700  0.6380 -0.4151
 4644SOL    HW225152   6.181   8.268   2.757  0.2424  0.6210  0.7797
 4645SOL     OW25153   9.545   1.276   6.133 -0.1043  0.0265 -0.0831
 4645SOL    HW125154   9.522   1.354   6.075 -1.6094 -0.1075  0.3330
 4645SOL    HW225155   9.468   1.254   6.192  0.5835 -1.3021  0.3366
 4646SOL     OW25156   8.022   5.078   4.806 -0.4404  0.7784 -0.0562
 4646SOL    HW125157   8.054   5.075   4.900 -1.4982 -0.2800  0.2826
 4646SOL    HW225158   7.984   5.168   4.786 -0.2886  0.9813  0.5627
 4647SOL     OW25159   2.898   1.928   4.295 -0.2110  0.3672 -0.2677
 4647SOL    HW125160   2.952   2.010   4.277  0.4344 -0.5244 -2.4493
 4647SOL    HW225161   2.952   1.847   4.273 -1.3648 -0.6107  0.4729
 4648SOL     OW25162   5.127   5.264   1.607  0.3488  0.0707 -0.3119
 4648SOL    HW125163   5.033   5.296   1.606 -0.5146 -2.3373 -0.4305
 4648SOL    HW225164   5.189   5.342   1.617 -1.5844  1.8079 -1.3600
 4649SOL     OW25165   4.681   4.796   4.836 -0.1467 -0.3531  0.1718
 4649SOL    HW125166   4.765   4.837   4.871 -1.4591  3.2271 -0.7071
 4649SOL    HW225167   4.701   4.748   4.750  1.1397 -0.3396  0.4419
 4650SOL     OW25168   8.725   5.621   2.430 -0.3056  0.3423  0.0529
 4650SOL    HW125169   8.686   5.708   2.400 -0.1101  0.1556 -0.7355
 4650SOL    HW225170   8.701   5.549   2.365 -1.4895 -0.4400  1.3137
 4651SOL     OW25171   6.593   7.791   3.176  0.0863 -0.0454 -0.2728
 4651SOL    HW125172   6.538   7.737   3.239 -0.5630  2.2563  1.2064
 4651SOL    HW225173   6.540   7.808   3.093 -0.3666 -0.1974 -0.0169
 4652SOL     OW25174   6.928   1.608   0.825  0.3457 -0.3137  0.5952
 4652SOL    HW125175   6.898   1.599   0.919  0.3713 -0.0889  0.6253
 4652SOL    HW225176   6.848   1.606   0.764  0.2159  0.8265  0.7135
 4653SOL     OW25177   1.703   1.237   6.037  0.4590  0.0631 -0.2697
 4653SOL    HW125178   1.709   1.294   6.119 -2.4333 -0.7892  0.6119
 4653SOL    HW225179   1.706   1.295   5.955 -0.7501  1.3356  0.5665
 4654SOL     OW25180   7.136   8.848   2.625  0.1649  0.4760 -0.2211
 4654SOL    HW125181   7.091   8.929   2.662  0.1173  0.4055 -0.1212
 4654SOL    HW225182   7.099   8.827   2.535  0.7000  1.0006 -0.5701
 4655SOL     OW25183   0.463   2.001   5.883 -0.0021  0.0400  0.4692
 4655SOL    HW125184   0.375   2.002   5.834 -0.0922 -1.2079  0.5844
 4655SOL    HW225185   0.537   2.014   5.818 -0.1544 -1.0907  0.0532
 4656SOL     OW25186   7.452   4.148   5.894 -0.2091 -0.2811  0.3778
 4656SOL    HW125187   7.375   4.100   5.936  1.2636 -1.2380  2.0169
 4656SOL    HW225188   7.521   4.083   5.864  0.0314  0.5786 -1.0142
 4657SOL     OW25189   9.141   1.597   4.575  0.0331 -0.4823 -0.3037
 4657SOL    HW125190   9.183   1.631   4.660 -2.9558  1.6305  0.4209
 4657SOL    HW225191   9.158   1.499   4.567  0.4269 -0.7234  2.7296
 4658SOL     OW25192   9.580   4.664   0.995 -0.6577  0.1628 -0.2763
 4658SOL    HW125193   9.671   4.681   1.033 -1.1370  0.4898  0.7450
 4658SOL    HW225194   9.563   4.730   0.921 -1.2409  2.1132  1.5395
 4659SOL     OW25195   3.129   9.006   1.204  0.3529 -0.0521 -0.5668
 4659SOL    HW125196   3.109   9.017   1.107  1.6944  1.0415 -0.7411
 4659SOL    HW225197   3.180   9.086   1.236  0.4414 -0.6858  0.8945
 4660SOL     OW25198   8.579   8.387   1.105  0.1497 -0.6118  0.0595
 4660SOL    HW125199   8.562   8.483   1.126 -0.4611 -0.7821  0.3756
 4660SOL    HW225200   8.676   8.366   1.116 -0.1729 -0.7747  3.0751
 4661SOL     OW25201   1.410   8.671   4.729  0.0282  0.5633 -0.6955
 4661SOL    HW125202   1.495   8.706   4.768  0.3171 -1.9157  1.0320
 4661SOL    HW225203   1.409   8.571   4.737 -3.4912  0.6276  0.1940
 4662SOL     OW25204   3.480   1.582   2.877  0.3695 -0.4328 -0.8284
 4662SOL    HW125205   3.477   1.671   2.923 -1.9639  0.9488 -3.5429
 4662SOL    HW225206   3.569   1.571   2.831  1.1115 -0.0459  0.4884
 4663SOL     OW25207   1.091   2.286   1.424  0.5856 -0.5470  0.2474
 4663SOL    HW125208   1.051   2.372   1.393  0.1016 -1.0647 -0.6044
 4663SOL    HW225209   1.188   2.282   1.397  1.1564  0.5930  2.0769
 4664SOL     OW25210   4.937   1.672   2.892  0.0160  0.3141 -0.2447
 4664SOL    HW125211   4.882   1.719   2.823 -1.6150  0.3147  1.0049
 4664SOL    HW225212   4.991   1.738   2.943 -0.1222  0.5175 -0.3615
 4665SOL     OW25213   9.784   0.824   0.960  0.9641 -0.1068 -0.4588
 4665SOL    HW125214   9.697   0.779   0.981  0.9681 -0.6028 -1.4423
 4665SOL    HW225215   9.838   0.834   1.043 -0.3814  0.9639  0.3152
 4666SOL     OW25216   1.463   9.137   6.153 -0.0275  0.1325 -0.3950
 4666SOL    HW125217   1.537   9.148   6.220 -0.2249 -1.8120  0.1699
 4666SOL    HW225218   1.443   9.225   6.111 -0.4897  1.5630  2.7340
 4667SOL     OW25219   2.623   6.361   4.054  0.1133 -0.6500  0.1033
 4667SOL    HW125220   2.695   6.333   4.118  0.4211  0.8334  0.4138
 4667SOL    HW225221   2.571   6.437   4.093 -1.0403 -1.0936 -0.5219
 4668SOL     OW25222   5.265   6.255   8.178 -0.0581  0.3551  0.3707
 4668SOL    HW125223   5.201   6.180   8.162  0.5335 -0.6414  2.5335
 4668SOL    HW225224   5.314   6.276   8.093 -0.6474 -1.3026 -0.4025
 4669SOL     OW25225   1.760   3.510   2.637 -0.5777 -0.5445 -0.1826
 4669SOL    HW125226   1.690   3.440   2.651 -0.0480 -1.2593 -1.1050
 4669SOL    HW225227   1.801   3.500   2.547 -1.0880  1.4976 -0.6618
 4670SOL     OW25228   8.044   2.776   3.993 -0.3428  0.2429 -0.3597
 4670SOL    HW125229   8.109   2.839   4.036 -0.2027 -0.1369 -0.0051
 4670SOL    HW225230   8.053   2.782   3.894 -0.3613  0.8108 -0.3305
 4671SOL     OW25231   9.237   7.111   0.382  0.4930 -0.1519 -0.0065
 4671SOL    HW125232   9.270   7.171   0.309  0.2680  0.3277  0.2849
 4671SOL    HW225233   9.308   7.045   0.405  0.6152 -0.2214 -0.5662
 4672SOL     OW25234   7.945   2.921   0.189 -0.0554 -0.2783  0.5358
 4672SOL    HW125235   7.940   3.020   0.174 -2.2725 -0.1618  1.7846
 4672SOL    HW225236   7.857   2.880   0.163 -0.0486 -1.5673  2.4944
 4673SOL     OW25237   4.501   1.930   0.562 -0.5795  0.1852 -0.2196
 4673SOL    HW125238   4.505   2.018   0.608 -2.5327  0.4767 -0.6012
 4673SOL    HW225239   4.587   1.915   0.511  0.6230  0.8948  1.5611
 4674SOL     OW25240   3.770   7.141   3.826  0.3047 -0.0500  0.0033
 4674SOL    HW125241   3.676   7.169   3.805 -0.1874 -2.0012 -0.4973
 4674SOL    HW225242   3.805   7.197   3.901 -1.2437  0.7305  0.1804
 4675SOL     OW25243   2.029   6.440   0.136  0.2475  0.2764  0.1738
 4675SOL    HW125244   2.026   6.540   0.135 -0.9879  0.2342 -1.0650
 4675SOL    HW225245   1.971   6.403   0.063 -0.0580 -1.3704  1.2104
 4676SOL     OW25246   9.207   8.793   2.353 -0.1221  0.0751  0.6685
 4676SOL    HW125247   9.274   8.738   2.304 -0.8429 -0.5222  0.3351
 4676SOL    HW225248   9.135   8.734   2.389  1.3463  0.2654  4.0906
 4677SOL     OW25249   3.878   1.645   3.890 -0.0820 -0.0829  0.2677
 4677SOL    HW125250   3.930   1.710   3.947  0.9048  0.5068 -1.2683
 4677SOL    HW225251   3.907   1.552   3.911 -0.1590  0.0826  1.1472
 4678SOL     OW25252   3.573   0.729   5.180 -0.3219 -0.4857  0.0398
 4678SOL    HW125253   3.512   0.799   5.217  0.5660 -0.2694  1.0971
 4678SOL    HW225254   3.562   0.644   5.230 -1.2596 -1.0725 -1.1217
 4679SOL     OW25255   4.293   4.728   4.210 -0.2198 -0.2908 -0.1833
 4679SOL    HW125256   4.360   4.693   4.275  2.0143  0.5003 -2.0057
 4679SOL    HW225257   4.261   4.653   4.152 -0.6643 -0.6039  0.4616
 4680SOL     OW25258   3.060   7.220   0.519  0.0547 -0.3188  0.1892
 4680SOL    HW125259   3.021   7.308   0.547 -0.1101  0.0295 -1.1237
 4680SOL    HW225260   3.001   7.146   0.551 -0.4146  0.1000  0.2989
 4681SOL     OW25261   1.494   6.977   0.049  0.8114 -0.0289  0.1557
 4681SOL    HW125262   1.451   7.067   0.042  0.3519 -0.1961  0.7913
 4681SOL    HW225263   1.439   6.918   0.109  0.8806 -0.8703 -0.5956
 4682SOL     OW25264   3.215   8.811   0.111  0.8200  0.4687  0.5517
 4682SOL    HW125265   3.188   8.719   0.081 -1.5321  1.5001 -0.5617
 4682SOL    HW225266   3.165   8.834   0.194  0.4787  1.2271  0.1352
 4683SOL     OW25267   8.418   1.941   5.400 -0.0369 -0.7094 -0.2788
 4683SOL    HW125268   8.383   1.879   5.330  1.8857 -0.2654 -1.6782
 4683SOL    HW225269   8.404   1.901   5.490 -1.3649 -1.8933 -0.9944
 4684SOL     OW25270   3.896   1.413   0.756 -0.9339  0.3296  0.4675
 4684SOL    HW125271   3.954   1.333   0.741 -0.2986  1.4606 -3.8568
 4684SOL    HW225272   3.940   1.475   0.821  2.2464  0.6445 -1.8883
 4685SOL     OW25273   5.208   0.387   5.395 -0.3771 -0.2568  0.3165
 4685SOL    HW125274   5.280   0.330   5.356 -0.9949  0.1105 -1.4171
 4685SOL    HW225275   5.121   0.338   5.389 -0.7778  0.5499 -0.4536
 4686SOL     OW25276   0.989   1.824   2.970 -0.3954  0.3448  0.1358
 4686SOL    HW125277   0.901   1.860   3.000 -0.8905 -0.0055 -0.8816
 4686SOL    HW225278   1.004   1.734   3.011  0.0522  0.9393  1.2894
 4687SOL     OW25279   1.497   2.659   5.817  0.1107 -0.1187 -0.1821
 4687SOL    HW125280   1.430   2.612   5.759  0.6156  1.4019 -2.0793
 4687SOL    HW225281   1.588   2.622   5.800  0.1601 -0.1453  0.1455
 4688SOL     OW25282   8.388   0.714   1.327 -0.3056  0.2077 -0.3039
 4688SOL    HW125283   8.386   0.788   1.394 -2.2113  1.0436 -1.2415
 4688SOL    HW225284   8.371   0.750   1.236 -0.5302 -1.2894 -0.8786
 4689SOL     OW25285   2.074   1.514   1.013  0.5650 -0.1351 -0.4583
 4689SOL    HW125286   2.035   1.590   0.962  3.5049  3.5459  2.4665
 4689SOL    HW225287   2.161   1.487   0.972 -0.8668 -2.6061 -1.9950
 4690SOL     OW25288   8.163   0.602   3.244 -0.3067  0.2111 -0.2481
 4690SOL    HW125289   8.112   0.686   3.267 -1.2938 -0.3983 -0.1680
 4690SOL    HW225290   8.256   0.626   3.215 -0.9827  1.4363 -1.4769
 4691SOL     OW25291   3.599   9.952   6.080  0.0114  0.3548 -0.0763
 4691SOL    HW125292   3.600   9.870   6.137 -1.6690  0.6766  0.4473
 4691SOL    HW225293   3.677  10.010   6.102  0.3939 -0.4127  0.5807
 4692SOL     OW25294   1.769   1.130   8.080 -0.3911  0.1298 -0.4144
 4692SOL    HW125295   1.719   1.060   8.131  0.5363 -0.2436 -0.0214
 4692SOL    HW225296   1.730   1.220   8.099 -0.2713 -0.0493  0.6718
 4693SOL     OW25297   9.356   7.767   4.521  0.1687 -0.6817 -0.2082
 4693SOL    HW125298   9.413   7.715   4.458  1.9407 -0.7027  1.3737
 4693SOL    HW225299   9.397   7.856   4.538 -0.9164 -0.2095 -0.0088
 4694SOL     OW25300   4.825   6.753   2.839 -0.5257  0.9528 -0.1252
 4694SOL    HW125301   4.861   6.814   2.909  0.8135  1.2614 -1.0669
 4694SOL    HW225302   4.835   6.796   2.749 -1.7251  0.3352 -0.5631
 4695SOL     OW25303   1.558   7.226   1.464 -0.0063 -0.3899 -0.2436
 4695SOL    HW125304   1.557   7.134   1.426  0.9929 -1.1835  1.5969
 4695SOL    HW225305   1.626   7.231   1.537  0.0791  1.8619 -0.4468
 4696SOL     OW25306   8.994   4.414   1.611  0.1798 -0.0045 -0.2022
 4696SOL    HW125307   8.992   4.480   1.687  2.4515 -0.0781 -0.0494
 4696SOL    HW225308   9.055   4.338   1.634  0.2882 -0.4178 -1.7909
 4697SOL     OW25309   5.209   4.480   2.367  0.1671  0.0338 -0.0156
 4697SOL    HW125310   5.110   4.478   2.377  0.1412  0.7684 -0.0628
 4697SOL    HW225311   5.240   4.399   2.317 -0.3385 -0.5332  0.5825
 4698SOL     OW25312   2.882   1.990   0.058  0.8536 -0.1218 -0.1666
 4698SOL    HW125313   2.916   2.063  -0.001 -0.7060  1.1619  0.5149
 4698SOL    HW225314   2.866   2.025   0.150 -1.1971 -0.9893 -0.1646
 4699SOL     OW25315   0.826   6.737   0.290  0.6479 -0.3440  0.7422
 4699SOL    HW125316   0.871   6.756   0.377 -0.8950 -1.7949  1.8779
 4699SOL    HW225317   0.730   6.763   0.294  0.3061 -1.3971 -0.1665
 4700SOL     OW25318   6.329   1.506   5.711 -0.2246  0.3318 -0.1176
 4700SOL    HW125319   6.376   1.552   5.786  0.3751 -0.5163  0.0357
 4700SOL    HW225320   6.359   1.411   5.706 -1.3079 -0.0003 -0.5401
 4701SOL     OW25321   5.238   6.207   0.278  0.0674  0.0560  0.3440
 4701SOL    HW125322   5.255   6.235   0.184  0.2299  1.0201  0.6628
 4701SOL    HW225323   5.309   6.243   0.338  0.5782 -1.4701  0.6854
 4702SOL     OW25324   7.473   5.497   0.381  0.0113  0.6294 -0.1852
 4702SOL    HW125325   7.482   5.596   0.395 -0.6656  0.6429  0.1896
 4702SOL    HW225326   7.376   5.472   0.381  0.1619  0.0371 -0.8012
 4703SOL     OW25327   4.002   3.793   3.318 -0.5509  0.2963 -0.0629
 4703SOL    HW125328   4.090   3.763   3.281 -0.7553 -1.8452  1.1134
 4703SOL    HW225329   4.000   3.775   3.417 -2.0659  0.9561  0.0340
 4704SOL     OW25330   5.188   5.641   1.864  0.3410 -0.0148  0.1841
 4704SOL    HW125331   5.231   5.576   1.802 -0.5094  1.2372 -1.7635
 4704SOL    HW225332   5.243   5.724   1.870  0.0961  0.1205  0.6204
 4705SOL     OW25333   6.393   8.291   5.981  0.2459  0.1532 -0.2572
 4705SOL    HW125334   6.453   8.340   6.044  1.0515 -0.0480 -0.8512
 4705SOL    HW225335   6.438   8.206   5.951 -0.2147  0.1379 -0.9274
 4706SOL     OW25336   8.035   2.915   8.078 -0.0235  0.0702 -0.1818
 4706SOL    HW125337   8.118   2.967   8.059 -1.0692  0.9765 -2.2965
 4706SOL    HW225338   8.005   2.935   8.171  1.6968  0.2954  0.3584
 4707SOL     OW25339   9.322   1.889   5.602  0.4743 -0.3249  0.0090
 4707SOL    HW125340   9.307   1.906   5.700 -1.5458  1.0593 -0.5133
 4707SOL    HW225341   9.266   1.811   5.573 -0.9103  0.8751 -0.5820
 4708SOL     OW25342   9.292   7.223   5.406 -0.2260 -0.5107  0.9604
 4708SOL    HW125343   9.259   7.144   5.354 -0.9708 -0.5495  1.4945
 4708SOL    HW225344   9.266   7.307   5.359  1.6823 -0.5812 -0.2982
 4709SOL     OW25345   4.309   4.158   5.151  0.2787  0.7848  0.4472
 4709SOL    HW125346   4.243   4.110   5.094 -0.0148  1.0395  0.5694
 4709SOL    HW225347   4.261   4.222   5.212  0.5678  0.3753  1.1171
 4710SOL     OW25348   1.997   8.232   2.380 -0.1157  0.0541 -0.5775
 4710SOL    HW125349   1.984   8.137   2.406  0.0306  0.4090  0.8187
 4710SOL    HW225350   2.095   8.253   2.376 -0.1609  0.6122  0.8944
 4711SOL     OW25351   1.844   7.013   1.122 -0.1175  0.4500 -0.4853
 4711SOL    HW125352   1.908   7.002   1.047  0.1675  2.4423 -0.5733
 4711SOL    HW225353   1.795   6.927   1.138  0.8903 -0.4094 -1.9458
 4712SOL     OW25354   2.206   9.072   4.308 -0.8026 -0.6435  0.1738
 4712SOL    HW125355   2.304   9.092   4.318 -0.6876 -0.9898 -0.2628
 4712SOL    HW225356   2.162   9.144   4.255 -0.6150 -0.9322 -0.3783
 4713SOL     OW25357   9.743   5.531   1.322 -0.2577  0.6466 -0.0362
 4713SOL    HW125358   9.708   5.516   1.414 -0.8111 -1.9470 -0.6157
 4713SOL    HW225359   9.721   5.624   1.292 -1.0880  1.1230  1.9808
 4714SOL     OW25360   3.477   0.008   2.337 -0.3215 -0.6163 -0.1908
 4714SOL    HW125361   3.568   0.031   2.304  0.2568 -0.4288  1.4628
 4714SOL    HW225362   3.425   0.092   2.355 -0.0140 -0.6787  1.0125
 4715SOL     OW25363   4.559   6.077   2.934  0.2341  0.2406  0.4959
 4715SOL    HW125364   4.504   6.136   2.993 -0.4168  0.2516 -0.1165
 4715SOL    HW225365   4.595   6.130   2.857  1.9819  0.4757  1.4386
 4716SOL     OW25366   4.002   0.968   1.049 -0.0737  0.2381  0.4087
 4716SOL    HW125367   3.960   0.881   1.072 -1.4077  0.5640 -0.7719
 4716SOL    HW225368   3.935   1.042   1.058  0.3275  0.8139 -1.1240
 4717SOL     OW25369   4.142   7.359   2.545 -0.1876  0.0838 -0.6324
 4717SOL    HW125370   4.193   7.368   2.630 -0.9336 -2.1265  0.0672
 4717SOL    HW225371   4.172   7.276   2.497 -1.6755 -0.1317 -1.2071
 4718SOL     OW25372   0.027   9.078   1.793 -0.4812  0.0492 -0.2225
 4718SOL    HW125373   0.079   9.161   1.814 -0.7330  0.1421  0.0370
 4718SOL    HW225374   0.089   8.999   1.795 -0.8009 -0.2032  2.7339
 4719SOL     OW25375   7.891   1.097   4.549  0.1901 -0.3399 -0.0916
 4719SOL    HW125376   7.804   1.080   4.596  0.6844 -0.4427  0.7839
 4719SOL    HW225377   7.959   1.031   4.579  0.5806 -0.2335 -0.7508
 4720SOL     OW25378   8.555   5.039   0.975  0.5948  0.5905 -0.3005
 4720SOL    HW125379   8.479   5.104   0.969 -0.7435 -0.9452 -0.3181
 4720SOL    HW225380   8.634   5.075   0.924 -0.5672  1.5942 -1.4186
 4721SOL     OW25381   7.743   3.473   2.466  0.3112 -0.0323 -0.2463
 4721SOL    HW125382   7.771   3.555   2.417 -0.8638  1.8039  2.0560
 4721SOL    HW225383   7.644   3.459   2.455  0.1317  0.0994  1.1270
 4722SOL     OW25384   1.674   4.220   3.630 -0.1264 -0.4436 -0.0675
 4722SOL    HW125385   1.756   4.275   3.612 -0.3118 -0.4781 -1.0506
 4722SOL    HW225386   1.700   4.140   3.684  0.0952  0.7298  1.6118
 4723SOL     OW25387   2.665   0.155   5.764 -0.4895 -0.3159  0.6009
 4723SOL    HW125388   2.672   0.232   5.700 -0.2595 -0.8504 -0.0268
 4723SOL    HW225389   2.603   0.180   5.839  0.8220  1.0591  1.2672
 4724SOL     OW25390   2.089   1.210   3.459  0.2116 -0.4946  0.5469
 4724SOL    HW125391   2.112   1.116   3.483  0.7367 -1.1215 -2.3069
 4724SOL    HW225392   2.172   1.265   3.453  0.2024 -0.6226 -0.9312
 4725SOL     OW25393   1.859   4.350   4.149 -0.3057  0.1445  0.2388
 4725SOL    HW125394   1.920   4.417   4.106  0.4705  0.2844  1.5275
 4725SOL    HW225395   1.912   4.269   4.176 -1.3030 -1.1552 -1.6167
 4726SOL     OW25396   2.676   0.229   2.299  0.0073 -0.4237  0.0925
 4726SOL    HW125397   2.706   0.137   2.270 -0.0666 -1.2169  2.4292
 4726SOL    HW225398   2.756   0.288   2.308  0.5824 -1.5639  2.9526
 4727SOL     OW25399   9.703   1.891   1.998  0.2570 -0.5604  0.9053
 4727SOL    HW125400   9.733   1.918   1.907 -1.0447 -1.5272  0.1643
 4727SOL    HW225401   9.740   1.801   2.021 -0.1027 -0.6898  0.9828
 4728SOL     OW25402   8.909   4.735   1.611  0.5865  0.4406  0.0088
 4728SOL    HW125403   8.954   4.768   1.694 -0.6238  0.4805  0.6701
 4728SOL    HW225404   8.811   4.756   1.616 -0.2225 -3.1436  0.3943
 4729SOL     OW25405   7.184   8.374   6.717  0.5170  0.2254  0.7140
 4729SOL    HW125406   7.112   8.426   6.762  0.7056  0.5683  0.6202
 4729SOL    HW225407   7.181   8.279   6.748 -1.3545 -0.2714 -0.9014
 4730SOL     OW25408   2.422   7.973   3.312  0.2421 -0.7167  0.9145
 4730SOL    HW125409   2.346   7.953   3.373  0.9762 -0.3096  1.9873
 4730SOL    HW225410   2.439   8.071   3.311  0.9393 -0.8294  0.9320
 4731SOL     OW25411   1.276   7.970   6.402  0.2933  0.1977 -0.6813
 4731SOL    HW125412   1.257   7.878   6.366  1.2709  0.2049 -1.2293
 4731SOL    HW225413   1.375   7.985   6.407  0.1462  1.1093 -0.2978
 4732SOL     OW25414   8.430   8.461   5.500  0.7327 -0.3215 -0.7043
 4732SOL    HW125415   8.492   8.538   5.485 -0.2193  1.0123  1.8087
 4732SOL    HW225416   8.457   8.413   5.584  0.0483 -1.4480 -1.1204
 4733SOL     OW25417   4.830   2.727   0.952 -0.1086 -0.0426  0.3339
 4733SOL    HW125418   4.778   2.654   0.997  0.1797  0.4758  1.5360
 4733SOL    HW225419   4.774   2.809   0.945 -0.0183  0.0006  0.1039
 4734SOL     OW25420   8.376   0.108   4.705 -0.6799  0.4753 -0.4652
 4734SOL    HW125421   8.361   0.203   4.734 -1.7367  0.3022 -0.4291
 4734SOL    HW225422   8.433   0.108   4.623  0.0445  1.0950  0.0191
 4735SOL     OW25423   3.698   1.511   2.752 -0.0219  0.0750  1.1684
 4735SOL    HW125424   3.683   1.412   2.747 -0.9597  0.3221 -2.2104
 4735SOL    HW225425   3.789   1.533   2.716 -0.7117  0.6121 -0.2870
 4736SOL     OW25426   8.547   5.484   5.145  0.1156 -0.1714 -0.2754
 4736SOL    HW125427   8.619   5.443   5.090  0.7952 -1.4512  1.4902
 4736SOL    HW225428   8.530   5.426   5.225 -1.2482  1.3190  0.5413
 4737SOL     OW25429   8.609   5.349   2.831 -0.0428  0.8471 -0.1569
 4737SOL    HW125430   8.583   5.380   2.740 -0.1022  1.3090  0.0166
 4737SOL    HW225431   8.660   5.421   2.878  1.7338 -0.1200 -0.5574
 4738SOL     OW25432   3.948   4.429   2.107  0.2421  0.1441 -0.1018
 4738SOL    HW125433   4.017   4.372   2.149  0.2632 -0.6215 -1.1443
 4738SOL    HW225434   3.915   4.386   2.023 -2.2199 -0.0017  0.8838
 4739SOL     OW25435   1.879   4.314   0.260  0.2018  0.0032 -0.1425
 4739SOL    HW125436   1.807   4.304   0.192  0.6603  1.5504 -0.8819
 4739SOL    HW225437   1.880   4.234   0.319 -0.8878 -0.8881 -1.2965
 4740SOL     OW25438   7.009   4.119   7.770 -0.0587  0.0254  0.1863
 4740SOL    HW125439   7.071   4.196   7.788 -0.4077  0.4408 -0.3568
 4740SOL    HW225440   6.925   4.153   7.727 -0.0499 -0.7086 -0.4217
 4741SOL     OW25441   2.809   7.769   0.394  0.0421  0.0599  0.9842
 4741SOL    HW125442   2.794   7.741   0.489  2.3286 -2.4131  0.6748
 4741SOL    HW225443   2.847   7.861   0.392 -0.5168  0.3364  2.4205
 4742SOL     OW25444   8.786   2.652   1.083 -0.0180  0.0593  0.1457
 4742SOL    HW125445   8.849   2.612   1.016  0.5187  0.7006  0.2619
 4742SOL    HW225446   8.695   2.614   1.069  0.4580 -1.1152  0.1874
 4743SOL     OW25447   0.671   0.226   2.570  0.1044  0.0410 -0.8394
 4743SOL    HW125448   0.590   0.258   2.618  0.6261  1.3275 -0.7785
 4743SOL    HW225449   0.687   0.282   2.489  1.6985  0.7088 -0.0970
 4744SOL     OW25450   3.589   0.084   0.916 -0.1669 -0.0415 -0.2342
 4744SOL    HW125451   3.599   0.034   0.831 -1.4015  0.0148 -0.4198
 4744SOL    HW225452   3.658   0.053   0.982  1.8235  1.0324 -1.7638
 4745SOL     OW25453   0.084   7.715   2.622 -0.2764 -0.2623  0.4072
 4745SOL    HW125454   0.113   7.624   2.591  0.7211 -0.4318  1.7904
 4745SOL    HW225455   0.008   7.706   2.687  0.7674 -0.2226  1.6618
 4746SOL     OW25456   0.749   8.792   3.283 -0.3095 -0.0748  0.3537
 4746SOL    HW125457   0.809   8.777   3.204  1.6517 -1.8878  2.0775
 4746SOL    HW225458   0.691   8.871   3.267  2.6444  1.8395 -1.3776
 4747SOL     OW25459   9.420   9.924   2.697  0.2714 -0.5152  0.2875
 4747SOL    HW125460   9.366   9.934   2.614  2.6788  0.4300 -1.2271
 4747SOL    HW225461   9.423   9.827   2.723 -1.5390 -0.6572  0.0190
 4748SOL     OW25462   2.675   9.950   3.019 -0.7802 -0.0448  0.1181
 4748SOL    HW125463   2.633   9.893   2.948  0.3456 -0.5540 -0.1394
 4748SOL    HW225464   2.761   9.988   2.985  0.4686 -1.4094  1.6773
 4749SOL     OW25465   5.751   4.021   1.051 -0.7492  0.0282  0.1944
 4749SOL    HW125466   5.806   4.049   1.130 -0.2960 -0.0835 -0.0811
 4749SOL    HW225467   5.782   4.071   0.970 -0.3701 -0.7990 -0.1698
 4750SOL     OW25468   6.000   8.099   3.761 -0.4708 -0.7464  0.2996
 4750SOL    HW125469   6.078   8.150   3.797 -0.3237 -0.0199 -1.0408
 4750SOL    HW225470   5.997   8.009   3.805  1.2156 -0.8480  0.2412
 4751SOL     OW25471   1.310   0.700   5.793  0.8966 -0.0934 -0.1735
 4751SOL    HW125472   1.346   0.640   5.865  0.7787  0.8833  0.7151
 4751SOL    HW225473   1.210   0.703   5.798  0.8942  0.0712 -0.2946
 4752SOL     OW25474   0.996   6.778   3.343  0.0959 -0.0098  0.5594
 4752SOL    HW125475   1.092   6.774   3.370 -0.0885 -0.5294  1.1359
 4752SOL    HW225476   0.989   6.813   3.249  0.9387 -1.3166 -0.0006
 4753SOL     OW25477   2.178   9.835   0.795 -0.3582  0.1250  0.0003
 4753SOL    HW125478   2.177   9.934   0.802 -1.9530  0.1275  0.0301
 4753SOL    HW225479   2.112   9.796   0.860  1.2121 -1.0283  0.9514
 4754SOL     OW25480   1.792   7.538   4.460  0.0510 -0.2037  0.5327
 4754SOL    HW125481   1.866   7.595   4.424 -0.6667  0.4309  0.0674
 4754SOL    HW225482   1.815   7.441   4.446  0.3515  0.0125 -0.4883
 4755SOL     OW25483   0.365   6.830   6.285  0.6995 -0.5061 -0.5334
 4755SOL    HW125484   0.458   6.817   6.319  1.1888 -1.9910 -2.3885
 4755SOL    HW225485   0.330   6.744   6.249 -0.9876  0.3075 -0.8769
 4756SOL     OW25486   8.911   3.246   0.446 -0.0105  0.3658 -0.5048
 4756SOL    HW125487   8.815   3.269   0.465  0.2957  0.8745  0.4603
 4756SOL    HW225488   8.970   3.296   0.510  0.8200 -1.1003 -0.0988
 4757SOL     OW25489   8.373   5.368   5.947  0.3956  0.2084  0.0645
 4757SOL    HW125490   8.356   5.357   5.850 -0.5072 -0.9989  0.3449
 4757SOL    HW225491   8.457   5.319   5.972  0.8383  0.8471 -0.1809
 4758SOL     OW25492   1.024   7.822   6.046 -0.0785  0.0404 -0.8326
 4758SOL    HW125493   0.948   7.758   6.040  0.8657 -1.1416 -0.4195
 4758SOL    HW225494   1.006   7.901   5.988 -1.9740  0.1563 -0.1130
 4759SOL     OW25495   3.411   4.339   2.580  0.1268 -0.2619  0.1538
 4759SOL    HW125496   3.440   4.302   2.492 -0.6457 -2.6359  0.8594
 4759SOL    HW225497   3.312   4.335   2.588  0.1305  0.6424  0.8535
 4760SOL     OW25498   9.875   7.517   0.552  0.3933 -0.1402 -0.0663
 4760SOL    HW125499   9.838   7.605   0.584 -0.3273 -0.7300  0.7628
 4760SOL    HW225500   9.800   7.452   0.542  1.0059 -0.8350 -0.1180
 4761SOL     OW25501   5.764   2.705   4.070  0.5315  0.4790 -0.1798
 4761SOL    HW125502   5.794   2.763   3.994 -0.3290  0.2021 -0.7348
 4761SOL    HW225503   5.748   2.612   4.036  0.5407  0.2621  0.4202
 4762SOL     OW25504   1.436   5.424   0.696  0.4538  0.3572  0.2940
 4762SOL    HW125505   1.457   5.357   0.624  1.6454  0.2537  0.7301
 4762SOL    HW225506   1.339   5.446   0.692 -0.1620 -2.0814  0.7193
 4763SOL     OW25507   9.163   3.539   2.425  0.8237 -0.4434  0.7617
 4763SOL    HW125508   9.112   3.591   2.357  0.8956  0.6922  1.5597
 4763SOL    HW225509   9.111   3.457   2.449  0.0790 -0.0730  0.4542
 4764SOL     OW25510   0.408   1.533   5.205  0.1935  0.4348  0.1814
 4764SOL    HW125511   0.437   1.447   5.248  0.0350 -0.2097 -0.9882
 4764SOL    HW225512   0.323   1.564   5.249 -0.9923 -1.2112 -0.9040
 4765SOL     OW25513   3.037   2.521   3.818  0.1468 -0.0890  0.3104
 4765SOL    HW125514   3.098   2.601   3.818 -1.0101  0.8149  1.3827
 4765SOL    HW225515   3.088   2.440   3.844  1.0506  0.5333  0.5083
 4766SOL     OW25516   7.790   0.049   2.217  0.1891 -0.1335  0.6264
 4766SOL    HW125517   7.878   0.014   2.184  0.5493  0.5484  0.8686
 4766SOL    HW225518   7.781   0.028   2.314  0.3928  0.4105  0.7654
 4767SOL     OW25519   0.646   8.032   3.081  0.4745 -0.4820  0.3158
 4767SOL    HW125520   0.549   8.033   3.056  0.2722 -1.1545  1.0645
 4767SOL    HW225521   0.686   7.943   3.058  1.2203  0.2147 -1.1290
 4768SOL     OW25522   0.947   3.061   5.485  0.0081  0.3646 -0.3152
 4768SOL    HW125523   0.990   2.973   5.503  1.5679  1.0259 -0.7088
 4768SOL    HW225524   0.911   3.099   5.570  0.1749 -0.2162  0.0145
 4769SOL     OW25525   8.780   7.569   4.716  1.0767  0.1034 -0.0852
 4769SOL    HW125526   8.867   7.522   4.699  0.9118 -0.2843  0.1523
 4769SOL    HW225527   8.797   7.668   4.724  1.2290  0.2686 -2.0896
 4770SOL     OW25528   1.078   1.547   3.064 -0.3047 -0.5659 -0.3911
 4770SOL    HW125529   1.162   1.513   3.106  0.7064  0.3224 -1.6605
 4770SOL    HW225530   1.063   1.500   2.977 -1.5715 -1.3012  0.2055
 4771SOL     OW25531   5.321   7.978   3.989  0.7217  0.8634 -0.4270
 4771SOL    HW125532   5.224   7.998   3.999  0.8384  1.7358 -1.0532
 4771SOL    HW225533   5.353   8.006   3.899  2.1324  2.9226  0.6649
 4772SOL     OW25534   9.004   1.885   5.893  0.3155  0.1183  0.2225
 4772SOL    HW125535   8.967   1.804   5.846  1.4917 -1.0126  1.2347
 4772SOL    HW225536   8.976   1.883   5.989 -0.2549  1.3078  0.0905
 4773SOL     OW25537   6.486   8.020   5.776 -0.4093 -0.0048  0.1688
 4773SOL    HW125538   6.576   7.984   5.801 -0.5089 -0.4777 -0.1469
 4773SOL    HW225539   6.418   7.947   5.786 -0.7486  0.3388  0.3596
 4774SOL     OW25540   6.042   0.094   2.558 -0.3686  0.5347  0.0017
 4774SOL    HW125541   6.058   0.018   2.620  1.3963 -0.6184 -1.8332
 4774SOL    HW225542   5.946   0.093   2.529 -0.5978 -0.3566  0.7623
 4775SOL     OW25543   0.507   5.202   0.079  0.2495 -0.2252 -0.1599
 4775SOL    HW125544   0.488   5.106   0.103 -1.1145 -0.1832 -1.0648
 4775SOL    HW225545   0.422   5.250   0.062  0.9914  0.8345 -0.9668
 4776SOL     OW25546   3.925   3.728   1.374  0.1537  0.2576  0.1602
 4776SOL    HW125547   3.983   3.760   1.300  1.2474 -0.8071  0.5422
 4776SOL    HW225548   3.902   3.632   1.359  1.0363 -0.1854  1.6013
 4777SOL     OW25549   0.678   5.875   4.381 -0.3059 -0.0504 -0.0081
 4777SOL    HW125550   0.715   5.875   4.288 -0.8729  0.2744 -0.2370
 4777SOL    HW225551   0.614   5.799   4.391  1.8694 -1.8271  0.9853
 4778SOL     OW25552   9.374   4.157   2.000  0.7796 -0.0588 -0.0016
 4778SOL    HW125553   9.437   4.094   1.954  2.5822 -0.0975  2.4269
 4778SOL    HW225554   9.302   4.105   2.046  0.2510 -0.1427 -0.9225
 4779SOL     OW25555   3.579   8.623   3.091  0.9192 -0.1501 -0.0305
 4779SOL    HW125556   3.550   8.635   3.186  0.4205  0.9917 -0.3133
 4779SOL    HW225557   3.578   8.526   3.068  1.0450 -0.4339  1.1309
 4780SOL     OW25558   7.445   4.649   1.482  0.1697 -0.5507 -0.3680
 4780SOL    HW125559   7.417   4.564   1.436 -0.0270 -2.0749  2.4459
 4780SOL    HW225560   7.394   4.659   1.567  2.1593  0.9815  0.6967
 4781SOL     OW25561   5.519   3.769   0.912  0.2245  0.1083  0.0385
 4781SOL    HW125562   5.613   3.749   0.884  0.3321 -1.1970  1.2672
 4781SOL    HW225563   5.521   3.830   0.992  0.0225  0.0549  0.0845
 4782SOL     OW25564   7.743   6.820   3.020  0.0471 -0.0084  0.6695
 4782SOL    HW125565   7.643   6.819   3.027 -0.0447 -0.4475 -0.6724
 4782SOL    HW225566   7.782   6.846   3.109 -1.2872  1.8988  0.7266
 4783SOL     OW25567   4.398   1.191   3.691 -1.0722 -0.1329  0.0283
 4783SOL    HW125568   4.367   1.269   3.636 -1.4889 -0.9204 -0.8801
 4783SOL    HW225569   4.340   1.182   3.772 -0.7521  0.7566  0.3598
 4784SOL     OW25570   1.851   0.222   0.585  0.1975 -0.2271 -0.7067
 4784SOL    HW125571   1.877   0.163   0.662 -1.2076 -0.5635 -0.4754
 4784SOL    HW225572   1.896   0.189   0.502  0.8823 -0.5067 -0.2301
 4785SOL     OW25573   2.602   7.642   5.983  0.2770  0.7938 -0.0042
 4785SOL    HW125574   2.698   7.654   5.955 -0.6572 -0.4547 -3.9993
 4785SOL    HW225575   2.542   7.659   5.905 -2.8122  1.3974  2.3968
 4786SOL     OW25576   1.673   4.142   3.304  0.4488  0.0049 -1.0934
 4786SOL    HW125577   1.592   4.170   3.252 -0.8680 -1.5298  0.0958
 4786SOL    HW225578   1.664   4.047   3.333  0.1691  1.3748  3.7523
 4787SOL     OW25579   2.060   5.858   4.324 -0.4699 -0.1778 -0.0599
 4787SOL    HW125580   2.010   5.934   4.366  2.8265  1.5368  0.9853
 4787SOL    HW225581   2.125   5.895   4.257  0.0295 -2.2243 -0.7205
 4788SOL     OW25582   0.195   1.959   0.777  0.2320  0.3092 -0.8553
 4788SOL    HW125583   0.154   1.942   0.688  1.0905 -1.5828 -0.9114
 4788SOL    HW225584   0.293   1.976   0.766  0.2982  0.3342 -0.2817
 4789SOL     OW25585   2.489   3.966   4.968 -0.2090 -0.1702 -0.4844
 4789SOL    HW125586   2.448   3.970   4.877 -1.3663 -1.8176 -0.0412
 4789SOL    HW225587   2.428   4.010   5.034  0.6402  1.0437 -0.4794
 4790SOL     OW25588   7.106   7.461   5.274  0.2380  0.4335  0.0168
 4790SOL    HW125589   7.076   7.385   5.332  1.5430  0.3858  0.6580
 4790SOL    HW225590   7.048   7.541   5.291 -2.3047 -0.9254 -1.9918
 4791SOL     OW25591   3.877   8.909   2.543  0.4024  0.1417  0.3802
 4791SOL    HW125592   3.806   8.840   2.557  0.2224  0.2357 -0.0305
 4791SOL    HW225593   3.966   8.865   2.537  0.3793  0.0268  0.9386
 4792SOL     OW25594   7.671   6.125   2.749  0.4534  0.0651 -0.7433
 4792SOL    HW125595   7.748   6.187   2.764 -0.0444  0.5450 -0.1830
 4792SOL    HW225596   7.591   6.157   2.800  0.5522 -1.7380  0.5932
 4793SOL     OW25597   4.436   6.405   0.004  0.1754 -0.4942 -0.3536
 4793SOL    HW125598   4.493   6.349   0.064 -0.3667  0.7235  1.3395
 4793SOL    HW225599   4.464   6.501   0.011 -1.8965  0.0881  0.3149
 4794SOL     OW25600   0.557   0.735   5.156  1.1937 -0.4422 -0.6827
 4794SOL    HW125601   0.516   0.771   5.072 -0.3710 -0.5681  0.0069
 4794SOL    HW225602   0.616   0.805   5.197 -0.3863  0.7340 -0.3210
 4795SOL     OW25603   9.806   4.686   1.389 -0.7411  0.8248  0.0911
 4795SOL    HW125604   9.904   4.695   1.410 -0.4358  0.1460 -0.9845
 4795SOL    HW225605   9.757   4.766   1.424  0.3411  1.6174 -0.1769
 4796SOL     OW25606   4.166   2.866   3.534  0.0174  0.3880  0.0234
 4796SOL    HW125607   4.234   2.855   3.462  0.0731 -0.1465  0.1525
 4796SOL    HW225608   4.181   2.796   3.604 -1.0319 -0.1086 -0.2355
 4797SOL     OW25609   4.788   5.423   2.861 -0.0846  0.0298  0.2757
 4797SOL    HW125610   4.847   5.503   2.857  2.0187 -1.4207  1.4237
 4797SOL    HW225611   4.748   5.416   2.952 -0.4885 -0.0905  0.0907
 4798SOL     OW25612   2.248   1.852   5.131  0.5146 -0.1553 -0.0386
 4798SOL    HW125613   2.182   1.846   5.206  2.2295 -0.5571  1.4945
 4798SOL    HW225614   2.231   1.935   5.078 -0.7737  0.1090  0.7672
 4799SOL     OW25615   5.698   8.235   6.646  0.1140  0.1921 -0.1286
 4799SOL    HW125616   5.613   8.261   6.600 -0.4497  0.4221  1.0082
 4799SOL    HW225617   5.710   8.136   6.641 -0.5506  0.0860  0.2299
 4800SOL     OW25618   1.478   2.146   3.173 -0.3534  0.1735  0.3897
 4800SOL    HW125619   1.473   2.049   3.151 -1.6783  0.4961 -0.8475
 4800SOL    HW225620   1.533   2.159   3.255  1.3813 -1.4581 -0.4717
 4801SOL     OW25621   3.065   8.862   0.374 -0.2392 -0.2163  0.1383
 4801SOL    HW125622   3.098   8.875   0.468 -1.2323  0.1033  0.4457
 4801SOL    HW225623   2.968   8.886   0.369 -0.1704 -0.1528 -0.9911
 4802SOL     OW25624   3.754   2.474   0.149  0.0450  0.0571 -0.6196
 4802SOL    HW125625   3.779   2.509   0.058  0.7909  0.5874 -0.2181
 4802SOL    HW225626   3.741   2.375   0.144  1.5327 -0.1310 -1.0070
 4803SOL     OW25627   3.112   8.138   0.284 -0.4616  0.0452 -0.8132
 4803SOL    HW125628   3.016   8.159   0.264 -0.0822  1.2117 -1.4323
 4803SOL    HW225629   3.121   8.114   0.381 -1.0913  1.7499 -0.3098
 4804SOL     OW25630   9.399   0.979   5.575 -0.5058  0.2924  0.5335
 4804SOL    HW125631   9.497   0.961   5.586 -1.0824 -2.1964  1.9261
 4804SOL    HW225632   9.355   0.979   5.665 -1.9974  0.1143 -0.1835
 4805SOL     OW25633   1.103   1.239   3.568  0.6098 -0.2429 -0.0750
 4805SOL    HW125634   1.145   1.330   3.566  0.6226 -0.2191  1.0019
 4805SOL    HW225635   1.006   1.247   3.548  0.7935 -0.1034 -0.9284
 4806SOL     OW25636   2.096   4.352   0.624  0.2867  0.3588 -0.7135
 4806SOL    HW125637   2.088   4.264   0.576  2.2262 -1.0463  1.4021
 4806SOL    HW225638   2.041   4.350   0.707  0.1854  1.2233 -0.7572
 4807SOL     OW25639   0.997   3.772   3.988  0.6756 -0.1401 -0.5838
 4807SOL    HW125640   0.973   3.710   4.062  0.1058  0.9547  0.1565
 4807SOL    HW225641   0.952   3.743   3.904 -0.2985 -0.2170 -0.0381
 4808SOL     OW25642   7.684   8.019   6.186  0.3632  0.3743  0.4724
 4808SOL    HW125643   7.685   8.065   6.097 -2.9339  1.5762  0.9940
 4808SOL    HW225644   7.769   8.040   6.235  1.6107  0.8278 -1.7909
 4809SOL     OW25645   7.332   6.442   3.350 -0.5676 -0.1547  0.3266
 4809SOL    HW125646   7.281   6.526   3.368 -2.0396 -0.7354 -1.0509
 4809SOL    HW225647   7.325   6.381   3.430  2.1546  1.8017  2.1301
 4810SOL     OW25648   0.133   1.584   6.319 -0.1437  0.2611 -0.4220
 4810SOL    HW125649   0.232   1.572   6.324 -0.1543  0.0066 -0.7913
 4810SOL    HW225650   0.088   1.496   6.339 -0.2783  0.2247 -0.8698
 4811SOL     OW25651   4.536   6.786   2.958  0.3599  0.1726 -0.3586
 4811SOL    HW125652   4.460   6.802   2.895  0.1105 -1.4528 -0.5099
 4811SOL    HW225653   4.623   6.793   2.908  0.2270  0.4000 -0.5558
 4812SOL     OW25654   9.046   7.854   0.729 -0.1504 -0.5101  0.4025
 4812SOL    HW125655   9.139   7.890   0.722 -0.2731  0.6191  3.8598
 4812SOL    HW225656   9.049   7.759   0.761 -0.0690 -1.9908 -3.6914
 4813SOL     OW25657   8.701   4.754   6.055 -0.6475  0.0497  0.5709
 4813SOL    HW125658   8.738   4.782   5.966 -1.2326 -0.8643  0.0300
 4813SOL    HW225659   8.682   4.656   6.054 -1.2540  0.1513  1.4836
 4814SOL     OW25660   2.228   4.722   4.039 -0.0667  0.2528 -0.0450
 4814SOL    HW125661   2.187   4.695   3.951 -1.3594  0.7453  0.3873
 4814SOL    HW225662   2.298   4.656   4.065 -0.1189 -0.2495 -1.1424
 4815SOL     OW25663   7.174   0.321   5.538  0.2567  0.4126  0.0616
 4815SOL    HW125664   7.110   0.329   5.615  0.4092  1.4231  0.0850
 4815SOL    HW225665   7.264   0.295   5.574  0.2500  0.5711  0.1970
 4816SOL     OW25666   5.146   0.875   4.736 -0.1838 -0.3037  0.0352
 4816SOL    HW125667   5.053   0.906   4.750  0.5525  1.2692  1.6783
 4816SOL    HW225668   5.205   0.954   4.718  1.2831 -0.9792  1.7345
 4817SOL     OW25669   7.575   7.994   5.353 -0.2551  0.3313  0.6199
 4817SOL    HW125670   7.552   7.916   5.295 -2.3799 -1.2997  3.5796
 4817SOL    HW225671   7.667   7.982   5.390  0.1860  0.2276 -0.4727
 4818SOL     OW25672   0.959   9.002   0.166 -0.4611  0.1229  0.5655
 4818SOL    HW125673   0.904   8.924   0.140  0.0664 -0.1849  0.3579
 4818SOL    HW225674   1.018   8.978   0.243  0.3065  0.0596 -0.0388
 4819SOL     OW25675   9.775   6.290   2.882 -0.1851  0.5164 -0.3887
 4819SOL    HW125676   9.729   6.203   2.866 -1.9389  1.2529  0.4510
 4819SOL    HW225677   9.853   6.277   2.943 -0.8463 -0.3521  0.2739
 4820SOL     OW25678   5.457   6.304   0.451 -0.2418 -0.3314 -0.0948
 4820SOL    HW125679   5.534   6.360   0.421 -0.8438  0.5862  0.0428
 4820SOL    HW225680   5.483   6.207   0.449  0.6043 -0.0947 -0.9551
 4821SOL     OW25681   1.754   2.213   0.700  0.0191  0.6333 -0.1829
 4821SOL    HW125682   1.731   2.137   0.639  0.1674  1.7445 -1.6775
 4821SOL    HW225683   1.816   2.181   0.771 -1.5717 -1.1009  0.4696
 4822SOL     OW25684   9.923   2.238   4.893  0.0685 -0.4074  0.4001
 4822SOL    HW125685   9.823   2.233   4.884  0.0761 -0.6655  0.4565
 4822SOL    HW225686   9.950   2.201   4.982  0.1815  0.0782  0.5689
 4823SOL     OW25687   1.353   9.675   1.003  0.3187 -0.4607  0.2692
 4823SOL    HW125688   1.450   9.653   1.002  0.8345  1.5956  1.4138
 4823SOL    HW225689   1.328   9.720   0.917 -0.2163 -3.2536 -1.0822
 4824SOL     OW25690   6.556   9.852   2.223  0.1753 -0.3678  0.0568
 4824SOL    HW125691   6.586   9.784   2.155  0.2104  1.0046 -1.3142
 4824SOL    HW225692   6.635   9.901   2.258 -0.0029  0.0348 -0.1051
 4825SOL     OW25693   7.983   4.645   5.927 -0.1501 -0.2649 -0.0609
 4825SOL    HW125694   7.939   4.702   5.857  1.3595  0.5232 -0.3900
 4825SOL    HW225695   7.988   4.551   5.894  2.4955  0.4807 -2.0079
 4826SOL     OW25696   9.444   2.124   5.647  0.3609 -0.0961  0.1608
 4826SOL    HW125697   9.425   2.027   5.628  0.7127  0.0329 -0.8914
 4826SOL    HW225698   9.358   2.171   5.666  0.1511 -0.5436  0.3439
 4827SOL     OW25699   3.489   7.257   1.510 -0.4223 -0.1630  0.0130
 4827SOL    HW125700   3.462   7.353   1.505 -0.5598 -0.1476  0.9248
 4827SOL    HW225701   3.459   7.209   1.428  0.5317  0.7904 -0.9131
 4828SOL     OW25702   0.642   0.856   4.522 -0.1784  0.5691 -0.3562
 4828SOL    HW125703   0.712   0.819   4.582  0.2862  0.9891 -0.6330
 4828SOL    HW225704   0.606   0.784   4.463  1.7100  0.8504 -1.8667
 4829SOL     OW25705   4.849   6.275   3.312 -0.2498  0.1315  0.0040
 4829SOL    HW125706   4.769   6.334   3.303 -0.7364 -0.4313  0.6113
 4829SOL    HW225707   4.873   6.237   3.222 -0.7972  0.1156 -0.1333
 4830SOL     OW25708   6.583   3.600   8.046  0.1521 -0.1635 -0.2285
 4830SOL    HW125709   6.501   3.544   8.057  0.5765 -0.4996  1.4091
 4830SOL    HW225710   6.557   3.696   8.033 -0.5044 -0.2364  0.5118
 4831SOL     OW25711   2.800   0.734   1.291  0.2618  0.0518 -0.2793
 4831SOL    HW125712   2.826   0.830   1.279  1.4067  0.0144  1.6394
 4831SOL    HW225713   2.747   0.724   1.375  0.8932 -1.1227 -0.0144
 4832SOL     OW25714   1.222   7.302   6.285 -0.1028 -0.2217  0.3697
 4832SOL    HW125715   1.285   7.320   6.210 -0.5236  0.6653  0.2255
 4832SOL    HW225716   1.179   7.212   6.272 -1.1623  0.4931 -1.1431
 4833SOL     OW25717   9.968   8.365   2.439 -0.3782  0.3578 -0.2000
 4833SOL    HW125718  10.058   8.333   2.411 -0.2904  0.2788  0.1839
 4833SOL    HW225719   9.906   8.287   2.448 -0.0420  0.2522  1.1946
 4834SOL     OW25720   5.506   1.662   4.894  0.1063  0.1329 -0.0481
 4834SOL    HW125721   5.589   1.704   4.856 -0.8000  0.3700 -1.8022
 4834SOL    HW225722   5.425   1.705   4.854 -0.8595 -1.7316 -0.1814
 4835SOL     OW25723   4.347   1.864   4.633  0.5377  0.3190  0.0510
 4835SOL    HW125724   4.373   1.805   4.709  0.1852  2.3420  1.8080
 4835SOL    HW225725   4.350   1.960   4.662 -3.0380  0.9826 -1.4063
 4836SOL     OW25726   2.101   8.632   2.746 -0.3356  0.2928 -0.1167
 4836SOL    HW125727   2.176   8.633   2.812 -1.6262 -1.5691  1.4363
 4836SOL    HW225728   2.035   8.704   2.770  0.0522  0.7579 -0.4281
 4837SOL     OW25729   6.573   9.429   6.403  1.0264  0.3874 -0.3414
 4837SOL    HW125730   6.491   9.486   6.396  0.5528 -0.0068  1.6980
 4837SOL    HW225731   6.632   9.465   6.475  0.5069 -1.9143  1.3059
 4838SOL     OW25732   7.179   0.117   2.437  0.3170  0.2104 -0.4487
 4838SOL    HW125733   7.119   0.129   2.517 -0.1378 -0.5167 -0.6760
 4838SOL    HW225734   7.132   0.062   2.368  0.3521  1.6429 -1.6202
 4839SOL     OW25735   9.389   2.893   6.214 -0.1258 -0.2281 -0.4740
 4839SOL    HW125736   9.477   2.930   6.183 -0.1682 -0.3545 -0.7444
 4839SOL    HW225737   9.320   2.906   6.142 -0.5794  0.7887  0.1274
 4840SOL     OW25738   2.293   4.252   2.826  0.4389  0.6159 -0.3043
 4840SOL    HW125739   2.235   4.274   2.905  0.3333  0.0957 -0.2339
 4840SOL    HW225740   2.236   4.212   2.754  0.8427 -0.6902  0.0881
 4841SOL     OW25741   9.102   2.815   1.787 -0.4421 -0.2359 -0.3383
 4841SOL    HW125742   9.198   2.790   1.773 -0.0271  1.0300  0.1025
 4841SOL    HW225743   9.046   2.733   1.793  0.4253 -0.9535 -1.9517
 4842SOL     OW25744   0.741   4.706   0.870  0.0189  0.8152 -0.0665
 4842SOL    HW125745   0.730   4.668   0.778 -1.0566  1.6036 -0.2718
 4842SOL    HW225746   0.692   4.649   0.936  0.2820  0.5891 -0.0663
 4843SOL     OW25747   1.572   1.970   0.247 -0.2973  0.3213  0.1738
 4843SOL    HW125748   1.480   1.934   0.260 -0.3635 -0.3080 -1.9327
 4843SOL    HW225749   1.568   2.064   0.215 -0.1820  0.5554  0.8294
 4844SOL     OW25750   8.230   2.226   0.857  0.1757  0.0104  0.0180
 4844SOL    HW125751   8.303   2.213   0.789 -1.4411 -0.7229 -1.6537
 4844SOL    HW225752   8.159   2.285   0.818 -0.4240  0.1930  1.3719
 4845SOL     OW25753   3.907   1.242   0.310 -0.3188  0.1891  0.0694
 4845SOL    HW125754   3.852   1.324   0.327  0.0388  0.8363 -1.7755
 4845SOL    HW225755   3.847   1.165   0.291 -0.6537  1.1543 -3.1167
 4846SOL     OW25756   2.629   9.337   4.040  0.0695  0.0918  0.8696
 4846SOL    HW125757   2.672   9.248   4.028 -0.4511 -0.1808  1.0144
 4846SOL    HW225758   2.695   9.400   4.081  1.7605  0.9249 -2.8946
 4847SOL     OW25759   9.286   2.590   0.223 -0.5103 -0.0266 -0.1152
 4847SOL    HW125760   9.263   2.607   0.319  2.7181  1.1557  0.5252
 4847SOL    HW225761   9.343   2.508   0.216 -1.3697 -0.5470 -1.1308
 4848SOL     OW25762   6.266   9.487   2.074 -0.1614 -0.0492  0.4830
 4848SOL    HW125763   6.318   9.457   2.154  0.2391 -2.4920 -0.6307
 4848SOL    HW225764   6.179   9.439   2.072  0.5374 -1.2914 -1.4183
 4849SOL     OW25765   9.317   4.795   4.430  0.0584  0.1473 -0.4203
 4849SOL    HW125766   9.220   4.812   4.444 -0.3032 -1.3755 -1.0660
 4849SOL    HW225767   9.340   4.806   4.333  0.7442  1.4963 -0.1250
 4850SOL     OW25768   9.114   6.656   5.671 -0.2811  0.5262  0.3245
 4850SOL    HW125769   9.115   6.568   5.718 -2.9301 -0.1592 -0.8112
 4850SOL    HW225770   9.162   6.724   5.726  0.9612 -1.3853  1.6747
 4851SOL     OW25771   2.165   0.761   3.923 -0.1577  0.6787 -0.0530
 4851SOL    HW125772   2.157   0.779   4.021  0.5260 -0.4143  0.2132
 4851SOL    HW225773   2.248   0.803   3.887  0.7513 -0.7658  0.3015
 4852SOL     OW25774   4.387   3.785   4.247  0.6898 -0.1694 -0.1075
 4852SOL    HW125775   4.383   3.825   4.155  0.5161  0.4406  0.1655
 4852SOL    HW225776   4.366   3.855   4.315  1.5828 -0.4387  0.4501
 4853SOL     OW25777   9.035   9.126   4.404 -0.4602  0.2854  0.4335
 4853SOL    HW125778   9.082   9.122   4.492 -0.1717  0.1469  0.2727
 4853SOL    HW225779   8.942   9.090   4.415  0.4682 -2.3657  0.0993
 4854SOL     OW25780   6.983   1.552   2.939 -0.2594 -0.1411 -0.1066
 4854SOL    HW125781   7.067   1.545   2.885 -1.0344  1.0546 -1.5205
 4854SOL    HW225782   6.994   1.620   3.011 -0.0492  0.0627 -0.3342
 4855SOL     OW25783   3.371   6.083   5.220  0.1000 -0.1528 -0.3545
 4855SOL    HW125784   3.410   6.148   5.286 -0.8102 -0.0470  0.0854
 4855SOL    HW225785   3.408   6.102   5.129  0.5855  0.3530 -0.0585
 4856SOL     OW25786   9.067   8.831   3.132  0.6159  0.1640 -0.0819
 4856SOL    HW125787   9.165   8.849   3.136  1.0193 -0.5242 -4.3419
 4856SOL    HW225788   9.051   8.733   3.117 -0.6739  0.4028 -0.3760
 4857SOL     OW25789   2.573   0.155   2.618  0.0907  0.5503 -0.3017
 4857SOL    HW125790   2.636   0.091   2.574 -2.7329 -0.7524 -2.6367
 4857SOL    HW225791   2.570   0.240   2.566 -2.1176 -0.4367 -1.8841
 4858SOL     OW25792   4.499   2.530   5.299 -0.1114  0.5657  0.9032
 4858SOL    HW125793   4.490   2.499   5.205 -0.8454 -0.3906  1.2779
 4858SOL    HW225794   4.533   2.624   5.300 -0.7727  0.8309 -0.3280
 4859SOL     OW25795   2.554   4.452   5.561  0.3673 -0.0105 -0.0361
 4859SOL    HW125796   2.563   4.509   5.642  0.8575 -1.2309  0.7826
 4859SOL    HW225797   2.641   4.406   5.543 -0.2267 -1.0634 -0.2649
 4860SOL     OW25798   8.563   7.425   4.789 -0.6876 -0.6433  0.1856
 4860SOL    HW125799   8.640   7.489   4.794  1.0490 -2.6687 -0.0923
 4860SOL    HW225800   8.561   7.382   4.699 -1.0848 -1.8878  0.7775
 4861SOL     OW25801   7.065   7.424   6.253 -0.3245  0.1719 -0.1858
 4861SOL    HW125802   7.088   7.355   6.321 -0.6407 -1.6462 -1.8868
 4861SOL    HW225803   7.148   7.456   6.208 -0.2657  0.2337 -0.0341
 4862SOL     OW25804   6.986   3.664   7.929 -0.1293 -0.1405 -0.3967
 4862SOL    HW125805   6.955   3.709   8.013 -0.9867  1.5195 -1.5525
 4862SOL    HW225806   7.028   3.732   7.869 -1.9403 -0.7589 -2.4278
 4863SOL     OW25807   8.821   5.396   1.822  0.1132  0.0911 -0.0000
 4863SOL    HW125808   8.755   5.464   1.851  2.3239  2.5397 -0.5561
 4863SOL    HW225809   8.786   5.348   1.741 -1.0174  1.2681 -0.2233
 4864SOL     OW25810   2.208   8.420   5.050 -0.0629 -0.5537  0.1907
 4864SOL    HW125811   2.151   8.365   4.989 -0.0372 -1.1835  0.7317
 4864SOL    HW225812   2.150   8.464   5.119  0.1365 -1.4187  0.9136
 4865SOL     OW25813   3.271   3.210   5.681  0.4996  0.8432  0.5333
 4865SOL    HW125814   3.283   3.308   5.699 -1.0475  0.9285  1.1681
 4865SOL    HW225815   3.174   3.188   5.679  0.8616 -1.0847  2.5784
 4866SOL     OW25816   9.968   9.981   6.559  0.1473  0.6580 -0.0494
 4866SOL    HW125817   9.952  10.012   6.653 -0.3481  0.0966  0.0571
 4866SOL    HW225818   9.880   9.967   6.514  0.3050 -2.0618  0.4038
 4867SOL     OW25819   7.499   5.775   0.400  0.2312  0.5405 -0.5114
 4867SOL    HW125820   7.584   5.786   0.451 -1.7782  0.8215  2.9526
 4867SOL    HW225821   7.421   5.791   0.461 -2.3613 -1.9557 -2.9912
 4868SOL     OW25822   1.384   7.943   5.445  0.0943  0.0433  0.1437
 4868SOL    HW125823   1.326   7.990   5.512  0.0156  2.0547 -1.2805
 4868SOL    HW225824   1.367   7.980   5.354  3.0971  0.2088 -0.4145
 4869SOL     OW25825   8.473   3.647   0.109  0.5587 -0.2364  0.1115
 4869SOL    HW125826   8.548   3.600   0.063  0.1710 -0.8215  0.0727
 4869SOL    HW225827   8.386   3.611   0.077  0.2452  0.9002 -0.3286
 4870SOL     OW25828   2.714   4.637   1.319 -0.4234 -0.0438  0.2900
 4870SOL    HW125829   2.660   4.721   1.311 -0.6294 -0.1486  0.5589
 4870SOL    HW225830   2.792   4.653   1.379  0.0405  0.2045 -0.3817
 4871SOL     OW25831   4.110   3.302   0.473 -0.4928  0.4656  0.4111
 4871SOL    HW125832   4.139   3.375   0.411  0.2659 -0.6279 -0.5488
 4871SOL    HW225833   4.039   3.247   0.429  1.2614 -1.3746 -0.2380
 4872SOL     OW25834   6.918   6.607   5.773 -0.2381  0.3053  0.5168
 4872SOL    HW125835   6.883   6.548   5.846  0.2426  1.4216  1.6698
 4872SOL    HW225836   7.014   6.627   5.790  0.1026 -0.1024 -0.8893
 4873SOL     OW25837   4.994   9.205   1.880  0.1549  0.0950 -0.2600
 4873SOL    HW125838   5.091   9.196   1.903  0.4692  0.4780 -1.4095
 4873SOL    HW225839   4.979   9.292   1.833 -0.6999 -0.1017 -0.3621
 4874SOL     OW25840   4.596   9.902   3.519 -0.1000  0.5697  0.1799
 4874SOL    HW125841   4.553   9.812   3.528 -1.6191  1.4264  1.8064
 4874SOL    HW225842   4.669   9.911   3.588  0.5309  0.3308 -0.4493
 4875SOL     OW25843   7.284   8.777   4.424 -0.2137  0.1619 -0.0513
 4875SOL    HW125844   7.360   8.841   4.434 -0.4307  0.3294  0.5760
 4875SOL    HW225845   7.198   8.828   4.422 -0.3600 -0.0825  0.0452
 4876SOL     OW25846   0.134   7.058   4.266 -0.1607  0.0997  0.5382
 4876SOL    HW125847   0.208   7.007   4.310 -0.0353 -1.5747 -1.5109
 4876SOL    HW225848   0.053   7.001   4.258 -0.1568  0.3069 -1.4091
 4877SOL     OW25849   1.089   4.569   4.692 -0.3157  0.7387  0.2192
 4877SOL    HW125850   1.032   4.537   4.617  1.2974 -0.2554 -0.6048
 4877SOL    HW225851   1.122   4.661   4.672 -2.0780  1.5624  0.9742
 4878SOL     OW25852   0.493   2.474   3.853 -0.5080 -0.0035  0.4153
 4878SOL    HW125853   0.542   2.561   3.844  0.0292 -0.4615 -1.0677
 4878SOL    HW225854   0.527   2.408   3.786 -0.2185 -1.6959  2.1747
 4879SOL     OW25855   8.935   4.442   3.323  0.0776  0.5926  0.5357
 4879SOL    HW125856   8.931   4.353   3.369 -0.1622  0.5763  0.4864
 4879SOL    HW225857   9.006   4.440   3.253 -1.0376 -0.1082 -0.6107
 4880SOL     OW25858   7.103   1.898   4.069  0.3774 -0.1819  0.5341
 4880SOL    HW125859   7.201   1.917   4.068  0.0324  1.9218  2.2736
 4880SOL    HW225860   7.088   1.801   4.090  2.0885 -0.9127 -1.4552
 4881SOL     OW25861   3.386   3.396   1.018 -0.5551  0.5099  0.0400
 4881SOL    HW125862   3.358   3.311   0.975  0.0765  1.3198 -2.0643
 4881SOL    HW225863   3.420   3.378   1.110 -0.2235 -1.5354 -0.4603
 4882SOL     OW25864   1.486   8.803   0.789 -0.2505 -0.7058 -0.1286
 4882SOL    HW125865   1.392   8.820   0.760 -0.7681 -3.2127  0.0303
 4882SOL    HW225866   1.543   8.787   0.709  0.0323  0.6775 -0.2166
 4883SOL     OW25867   1.239   6.516   2.017  0.3392 -0.3956  0.6538
 4883SOL    HW125868   1.283   6.488   2.102  1.0309 -0.5676  0.2411
 4883SOL    HW225869   1.268   6.610   1.995  0.4852 -0.5031  0.3921
 4884SOL     OW25870   0.653   2.955   2.755  0.1101 -0.2197  0.0933
 4884SOL    HW125871   0.667   3.014   2.835  0.5905 -0.2675  0.0443
 4884SOL    HW225872   0.693   2.999   2.674 -0.7260  0.0137 -0.1974
 4885SOL     OW25873   5.141   2.500   5.963 -0.1104 -0.0858  0.0612
 4885SOL    HW125874   5.122   2.405   5.989  1.1440 -0.0018  1.3346
 4885SOL    HW225875   5.066   2.558   5.995 -1.0975 -0.6920 -1.1038
 4886SOL     OW25876   9.300   6.712   3.449  0.2430  0.1155 -0.5110
 4886SOL    HW125877   9.358   6.665   3.382  0.2940 -2.1474  1.0462
 4886SOL    HW225878   9.206   6.678   3.441 -0.1226  1.1198 -0.5842
 4887SOL     OW25879   4.842   5.073   1.891  0.0478  0.9375 -0.0558
 4887SOL    HW125880   4.908   5.045   1.961  0.4023  0.1198 -0.7004
 4887SOL    HW225881   4.770   5.004   1.885  0.9816  0.0710 -1.7383
 4888SOL     OW25882   2.051   9.601   2.640 -0.0951 -0.1100 -0.3547
 4888SOL    HW125883   2.110   9.682   2.637 -0.6194  0.2602 -0.9046
 4888SOL    HW225884   2.062   9.550   2.555  0.3727 -0.7190  0.0689
 4889SOL     OW25885   0.123   9.620   4.602  0.4635 -0.5549  0.4416
 4889SOL    HW125886   0.190   9.679   4.646 -0.8064  1.2603  0.0112
 4889SOL    HW225887   0.064   9.676   4.543  1.1211 -2.6695 -2.3301
 4890SOL     OW25888   2.616   7.180   0.038  0.3756 -0.2175  0.0029
 4890SOL    HW125889   2.655   7.262   0.081 -2.8598  1.5105 -0.1879
 4890SOL    HW225890   2.533   7.153   0.087  1.1852 -3.2398 -0.1512
 4891SOL     OW25891   9.313   1.860   3.707  0.3003 -0.1743  1.0121
 4891SOL    HW125892   9.412   1.869   3.699  0.4882 -0.9190  2.3521
 4891SOL    HW225893   9.285   1.880   3.801 -0.9261  0.9226  0.4294
 4892SOL     OW25894   8.923   6.406   5.622  0.5083 -0.6116  0.0776
 4892SOL    HW125895   8.913   6.401   5.523 -0.8555 -0.6487  0.2093
 4892SOL    HW225896   8.832   6.412   5.665  1.0230 -1.8426  1.3840
 4893SOL     OW25897   9.863   5.975   0.253  0.3371 -0.4515 -0.1378
 4893SOL    HW125898   9.781   6.031   0.248  1.3499  0.9331 -1.6979
 4893SOL    HW225899   9.922   6.007   0.327 -0.0665 -0.8153  0.3416
 4894SOL     OW25900   8.462   2.586   4.166  0.4701 -0.3439  0.1415
 4894SOL    HW125901   8.537   2.630   4.217  0.0667  0.5236 -0.0095
 4894SOL    HW225902   8.394   2.551   4.231  1.1664 -1.4483  0.2953
 4895SOL     OW25903   8.008   0.288   2.735  0.0563  0.7639  0.0940
 4895SOL    HW125904   8.013   0.253   2.829 -0.9825 -1.1017 -0.5086
 4895SOL    HW225905   8.041   0.217   2.672  0.3735  1.8548 -0.9774
 4896SOL     OW25906   0.850   2.201   1.618 -0.5145  0.3184 -0.2492
 4896SOL    HW125907   0.942   2.177   1.652 -0.9227 -0.0616  0.5981
 4896SOL    HW225908   0.823   2.289   1.656 -0.0013  1.0167 -1.4749
 4897SOL     OW25909   8.582   9.206   1.670 -0.1896 -0.1967  0.0655
 4897SOL    HW125910   8.670   9.163   1.653 -1.1429 -2.3775  0.4041
 4897SOL    HW225911   8.593   9.281   1.735  1.5909  0.3845 -0.8729
 4898SOL     OW25912   6.112   1.476   2.420  0.6781  0.2782 -0.1520
 4898SOL    HW125913   6.198   1.437   2.453  1.7864 -1.0733 -4.2637
 4898SOL    HW225914   6.124   1.574   2.404  1.3485  0.1742 -0.3085
 4899SOL     OW25915   1.217   5.597   0.798 -0.6577 -0.9613  0.4047
 4899SOL    HW125916   1.201   5.605   0.699 -0.5073  1.4557  0.5518
 4899SOL    HW225917   1.251   5.684   0.833 -0.9057 -1.7430  2.6408
 4900SOL     OW25918   8.652   2.325   2.015  0.4804  0.0984  0.3939
 4900SOL    HW125919   8.689   2.410   2.052  1.2513 -0.2502  0.4163
 4900SOL    HW225920   8.591   2.282   2.082  1.1946 -0.0907  0.9218
 4901SOL     OW25921   4.572   3.764   1.240 -0.1538 -0.2394  1.2470
 4901SOL    HW125922   4.608   3.755   1.148 -0.3062  1.9517  0.9399
 4901SOL    HW225923   4.478   3.729   1.243  0.2914 -1.4760  0.8869
 4902SOL     OW25924   2.405   1.101   1.950 -0.2452  0.2816 -0.4894
 4902SOL    HW125925   2.423   1.003   1.937  1.9036  0.4814  0.7106
 4902SOL    HW225926   2.379   1.142   1.863  2.0492 -0.7251 -1.6991
 4903SOL     OW25927   6.625   1.431   5.596 -0.2935  0.5551  0.1014
 4903SOL    HW125928   6.554   1.373   5.637 -0.7738  2.0266  1.4220
 4903SOL    HW225929   6.625   1.520   5.641  0.7169  1.4482 -1.6049
 4904SOL     OW25930   6.651   3.825   0.600  0.3269  0.2184 -0.3310
 4904SOL    HW125931   6.569   3.880   0.613 -0.4118 -0.7194 -0.9717
 4904SOL    HW225932   6.693   3.850   0.512 -0.3605 -0.6897 -0.9178
 4905SOL     OW25933   4.479   6.075   3.503 -0.0703 -0.0634 -0.2384
 4905SOL    HW125934   4.413   6.050   3.432 -1.0687  0.9239  0.3274
 4905SOL    HW225935   4.495   6.174   3.500  0.9801 -0.2196 -0.0229
 4906SOL     OW25936   8.670   8.227   5.439  0.3757  0.1052  0.7322
 4906SOL    HW125937   8.681   8.325   5.423 -0.8936  0.5462  2.4782
 4906SOL    HW225938   8.704   8.204   5.531 -1.0251 -0.7601  1.0428
 4907SOL     OW25939   8.181   5.276   4.469  0.0222 -0.5058  0.3503
 4907SOL    HW125940   8.267   5.235   4.438  0.3428  0.4694 -0.1157
 4907SOL    HW225941   8.132   5.313   4.390  0.0847  0.6200  0.8293
 4908SOL     OW25942   1.976   7.833   1.575 -0.9245 -0.0409  0.2426
 4908SOL    HW125943   1.985   7.745   1.620  1.5134  0.7026  1.3048
 4908SOL    HW225944   1.974   7.821   1.475 -1.9990 -1.3592  0.4141
 4909SOL     OW25945   5.875   8.362   2.675  0.6435  0.0906 -0.0162
 4909SOL    HW125946   5.839   8.331   2.762  0.2043  0.7811  0.0524
 4909SOL    HW225947   5.801   8.364   2.607  0.9540 -0.3191 -0.3733
 4910SOL     OW25948   3.153   1.661   3.473  0.2379 -0.1488  0.0358
 4910SOL    HW125949   3.242   1.627   3.441  0.3283 -1.6863  1.8101
 4910SOL    HW225950   3.081   1.629   3.412  0.7979  0.3825 -0.9234
 4911SOL     OW25951   3.266   0.737   2.102 -0.2756 -0.7267  0.5877
 4911SOL    HW125952   3.252   0.773   2.010  0.1643 -4.1193 -0.9094
 4911SOL    HW225953   3.357   0.697   2.109 -1.6893 -4.0459  1.1417
 4912SOL     OW25954   2.658   4.215   4.734 -0.3758  0.0690 -0.0918
 4912SOL    HW125955   2.625   4.152   4.664 -2.2249  1.0035 -0.1103
 4912SOL    HW225956   2.748   4.186   4.767 -1.0240 -2.3166 -0.3823
 4913SOL     OW25957   8.227   7.720   3.631 -0.1488  0.0724  0.6019
 4913SOL    HW125958   8.170   7.645   3.599  0.2921 -0.2933  0.6777
 4913SOL    HW225959   8.177   7.772   3.701 -0.2856 -0.4077  0.8609
 4914SOL     OW25960   2.432   1.549   2.381  0.3342 -0.4986  0.1260
 4914SOL    HW125961   2.358   1.487   2.355 -0.8982  1.4390 -1.1354
 4914SOL    HW225962   2.464   1.599   2.300  1.9720 -0.1889  0.9382
 4915SOL     OW25963   6.044   9.802   3.054 -0.8022 -0.2313  0.0688
 4915SOL    HW125964   5.976   9.874   3.040 -1.5484 -1.3694 -2.4695
 4915SOL    HW225965   6.132   9.833   3.018 -0.3193  0.6166  1.9016
 4916SOL     OW25966   0.944   6.168   1.196  0.0868 -0.1907  0.5715
 4916SOL    HW125967   0.971   6.131   1.284  0.6060  1.2886  1.0422
 4916SOL    HW225968   1.019   6.221   1.157 -0.2126 -0.6550 -0.6631
 4917SOL     OW25969   7.376   0.019   5.475  0.0826  0.1691  0.3094
 4917SOL    HW125970   7.397   0.040   5.571 -0.5209  0.4632  0.3748
 4917SOL    HW225971   7.395  -0.078   5.458 -1.4591 -0.3082  1.1862
 4918SOL     OW25972   9.665   0.071   2.699 -0.2494  0.0113  0.3426
 4918SOL    HW125973   9.639   0.166   2.716 -0.0663 -0.5481  4.1457
 4918SOL    HW225974   9.586   0.012   2.714  0.5116 -0.7332  1.4668
 4919SOL     OW25975   0.826   2.141   1.088 -0.0755 -0.6389  0.0424
 4919SOL    HW125976   0.745   2.194   1.064  0.3904  0.0435 -0.0179
 4919SOL    HW225977   0.821   2.114   1.184 -0.4589 -0.7480 -0.0079
 4920SOL     OW25978   9.457   0.807   6.732 -0.1182 -0.2571 -0.7476
 4920SOL    HW125979   9.382   0.752   6.768 -0.4208 -0.0728 -1.0967
 4920SOL    HW225980   9.421   0.891   6.692  0.1887 -0.5968 -1.7380
 4921SOL     OW25981   1.312   1.352   2.106  0.0102 -0.3874  0.6968
 4921SOL    HW125982   1.213   1.365   2.102 -0.3300 -2.5473  1.4238
 4921SOL    HW225983   1.353   1.369   2.016 -1.0017  0.5717  0.4162
 4922SOL     OW25984   9.554   7.386   4.008  0.7201 -0.6819  0.0621
 4922SOL    HW125985   9.500   7.437   3.941  1.5958 -0.8259 -0.7740
 4922SOL    HW225986   9.597   7.308   3.963 -0.3835 -2.0158  1.2606
 4923SOL     OW25987   4.616   4.117   4.363  1.0749  0.2984 -0.2790
 4923SOL    HW125988   4.693   4.054   4.366  0.6629 -0.1908  0.5196
 4923SOL    HW225989   4.602   4.157   4.454 -1.3786 -1.8293  0.3380
 4924SOL     OW25990   4.693   1.247   6.205 -0.1104  0.1910  0.1912
 4924SOL    HW125991   4.702   1.158   6.158 -0.5825 -0.0071  0.4808
 4924SOL    HW225992   4.677   1.232   6.302 -1.5086  0.5764  0.0265
 4925SOL     OW25993   5.340   5.877   1.911 -0.9548 -0.3065  0.3088
 4925SOL    HW125994   5.374   5.966   1.942 -3.5628  1.6577 -2.2617
 4925SOL    HW225995   5.418   5.820   1.884  0.8941  0.4181  3.7314
 4926SOL     OW25996   3.944   4.671   1.969 -0.8981 -1.2027 -0.4705
 4926SOL    HW125997   3.909   4.751   2.019  0.6347 -1.2373  0.6901
 4926SOL    HW225998   3.943   4.591   2.030  0.3450 -1.4009 -0.7066
 4927SOL     OW25999   2.984   0.140   4.435  0.2806  0.5786  0.0968
 4927SOL    HW126000   2.907   0.204   4.432  0.4195  0.7146 -1.9458
 4927SOL    HW226001   3.055   0.172   4.372  1.8732  0.2755  1.7035
 4928SOL     OW26002   0.951   4.874   1.898 -0.4035  0.6985  0.3298
 4928SOL    HW126003   0.912   4.858   1.989 -0.4224  0.8943  0.3568
 4928SOL    HW226004   1.048   4.896   1.907 -0.3144  0.3330  0.2721
 4929SOL     OW26005   5.189   1.729   1.546 -0.0086 -0.1169  0.1270
 4929SOL    HW126006   5.250   1.655   1.575 -0.8119 -0.6199  0.5622
 4929SOL    HW226007   5.203   1.748   1.449  0.9755 -0.0923  0.2669
 4930SOL     OW26008   8.653   4.737   0.567  0.0160 -0.3176  0.3192
 4930SOL    HW126009   8.633   4.757   0.663  0.2926 -2.7852  0.9163
 4930SOL    HW226010   8.612   4.650   0.542  1.0950 -0.3447 -1.4363
 4931SOL     OW26011   8.311   5.913   4.138  0.0237 -0.1015  0.7754
 4931SOL    HW126012   8.275   5.868   4.056  0.5458 -0.2269  0.6161
 4931SOL    HW226013   8.319   6.011   4.122 -0.1151 -0.0911  0.7665
 4932SOL     OW26014   9.086   0.882   5.160 -0.4553  0.1233 -0.9079
 4932SOL    HW126015   9.002   0.936   5.154 -0.6933 -0.0388  0.7219
 4932SOL    HW226016   9.137   0.910   5.241  1.4119  0.6863 -2.2301
 4933SOL     OW26017   9.808   7.861   3.976 -0.2921 -0.1567  0.1374
 4933SOL    HW126018   9.830   7.956   3.997 -0.7192 -0.1002  0.3384
 4933SOL    HW226019   9.820   7.845   3.878 -0.3148  0.1308  0.0878
 4934SOL     OW26020   4.128   7.640   3.742 -0.8824 -0.5962  0.1328
 4934SOL    HW126021   4.135   7.561   3.803 -0.0836  0.1149  0.9664
 4934SOL    HW226022   4.196   7.632   3.669 -0.6279 -0.5585  0.3632
 4935SOL     OW26023   0.615   5.155   4.611  0.0777  0.1982 -0.9792
 4935SOL    HW126024   0.624   5.249   4.645  1.7191 -0.5118  0.6458
 4935SOL    HW226025   0.631   5.154   4.512 -0.6201  1.7119 -1.1187
 4936SOL     OW26026   1.157   3.908   2.416  0.2961 -0.6155  0.1138
 4936SOL    HW126027   1.127   3.964   2.338 -1.7074  0.1260  1.3827
 4936SOL    HW226028   1.252   3.879   2.401  1.2404  2.6632 -0.8714
 4937SOL     OW26029   7.761   0.973   5.255 -0.4948 -0.0757 -1.0467
 4937SOL    HW126030   7.778   1.056   5.308 -2.0565 -0.1273 -0.4173
 4937SOL    HW226031   7.729   0.997   5.164 -0.2202  0.0209 -1.1160
 4938SOL     OW26032   7.077   1.561   8.082 -0.3101 -0.0904  0.0352
 4938SOL    HW126033   7.154   1.553   8.019 -0.6064 -1.2637 -0.1870
 4938SOL    HW226034   7.110   1.592   8.171  1.0595 -4.5814  1.1864
 4939SOL     OW26035   7.866   3.034   0.633 -0.5054  0.0159  0.2932
 4939SOL    HW126036   7.923   2.992   0.562  0.2546  0.4629  0.6412
 4939SOL    HW226037   7.799   2.967   0.665  0.3434 -0.7630  0.4514
 4940SOL     OW26038   4.191   0.976   6.645  0.3452  0.4131 -0.0689
 4940SOL    HW126039   4.148   1.048   6.590  0.3966  0.1765 -0.4183
 4940SOL    HW226040   4.133   0.957   6.724 -0.8558 -0.8008 -1.2088
 4941SOL     OW26041   7.913   3.077   6.473  0.7026 -0.1980  0.4922
 4941SOL    HW126042   7.882   3.012   6.404 -0.8931 -0.3790  1.3364
 4941SOL    HW226043   7.928   3.028   6.560  1.2034  0.2743  0.6737
 4942SOL     OW26044   8.237   4.367   6.298  0.0210  0.2229 -0.0992
 4942SOL    HW126045   8.266   4.460   6.322  0.4830  0.6172 -2.1458
 4942SOL    HW226046   8.294   4.332   6.224 -0.0096 -1.7947  0.7756
 4943SOL     OW26047   7.989   4.096   3.442  0.3255  0.2972  0.1880
 4943SOL    HW126048   7.935   4.024   3.487  0.2536  0.2193 -0.0236
 4943SOL    HW226049   7.952   4.113   3.351  0.0309  0.9523  0.4262
 4944SOL     OW26050   2.541   5.201   4.174 -0.5026 -0.2944 -0.1618
 4944SOL    HW126051   2.541   5.292   4.216  0.3544  0.0545 -0.8952
 4944SOL    HW226052   2.456   5.154   4.198 -0.6879  0.4601  0.7273
 4945SOL     OW26053   3.827   3.887   2.289  0.0907 -0.0424 -0.0378
 4945SOL    HW126054   3.745   3.836   2.312  0.8455 -0.1374  2.5733
 4945SOL    HW226055   3.902   3.859   2.348  1.9929  0.1660 -2.2551
 4946SOL     OW26056   2.334   0.483   6.020 -0.2325 -0.1218 -0.4318
 4946SOL    HW126057   2.316   0.458   6.115 -0.0167 -1.0663 -0.6386
 4946SOL    HW226058   2.420   0.534   6.015 -1.6137  2.3753  0.2405
 4947SOL     OW26059   2.507   9.914   1.663  0.3130  0.4047 -0.1093
 4947SOL    HW126060   2.580   9.915   1.594  0.4491  1.5254  0.0525
 4947SOL    HW226061   2.420   9.893   1.618  0.2906  1.7936 -0.7456
 4948SOL     OW26062   0.470   5.527   1.649  0.3514  0.0725 -0.2377
 4948SOL    HW126063   0.555   5.484   1.679 -0.8497 -0.3216  2.8085
 4948SOL    HW226064   0.459   5.615   1.694 -1.7755 -0.7609  0.9532
 4949SOL     OW26065   8.992   2.193   2.377  0.2046 -0.2064  0.1256
 4949SOL    HW126066   8.981   2.265   2.308  0.5832  0.4880  0.7804
 4949SOL    HW226067   8.904   2.148   2.391  0.0156 -0.0402 -0.4743
 4950SOL     OW26068   1.707   4.421   5.692  0.2961  0.4390  0.7097
 4950SOL    HW126069   1.773   4.494   5.707  0.7011 -0.1981  2.1598
 4950SOL    HW226070   1.753   4.342   5.651  0.0738  0.6046  0.1292
 4951SOL     OW26071   4.646   1.067   2.990  0.6138  0.2163  0.2667
 4951SOL    HW126072   4.618   1.070   3.086 -0.0184 -0.0453  0.0999
 4951SOL    HW226073   4.568   1.092   2.932  0.9211  0.1396 -0.1842
 4952SOL     OW26074   8.784   5.254   2.536  0.2476 -0.5055 -0.3978
 4952SOL    HW126075   8.698   5.305   2.540  0.8271  0.5009 -0.7663
 4952SOL    HW226076   8.764   5.156   2.535 -0.9408 -0.2685 -1.2240
 4953SOL     OW26077   1.560   7.938   5.825 -0.2355 -0.2902 -0.5875
 4953SOL    HW126078   1.575   7.863   5.761 -1.2158 -1.2631  0.2815
 4953SOL    HW226079   1.634   7.940   5.892  0.2918  0.1164 -1.1925
 4954SOL     OW26080   9.620   0.350   1.173  0.1121 -1.0148 -0.5557
 4954SOL    HW126081   9.557   0.423   1.198 -0.9045 -1.8539 -0.6083
 4954SOL    HW226082   9.590   0.307   1.088  1.1689 -0.9539 -0.9657
 4955SOL     OW26083   7.952   3.563   0.862  0.0196  0.7614 -0.2512
 4955SOL    HW126084   7.957   3.622   0.943  0.3310  1.6756 -0.9204
 4955SOL    HW226085   8.028   3.584   0.800 -0.1517  0.0001 -0.7302
 4956SOL     OW26086   0.993   1.909   4.309  0.1531 -0.4407 -0.4945
 4956SOL    HW126087   1.043   1.830   4.345 -0.2805 -0.6415 -0.3292
 4956SOL    HW226088   0.895   1.888   4.306  0.0439  0.0641 -0.5210
 4957SOL     OW26089   8.805   1.896   1.284 -0.3060 -0.9842 -0.2949
 4957SOL    HW126090   8.796   1.982   1.233 -0.7439 -1.0862 -0.3920
 4957SOL    HW226091   8.872   1.908   1.357  0.5272 -0.9199 -1.0580
 4958SOL     OW26092   8.001   1.528   0.679 -0.4380 -0.1839 -0.0484
 4958SOL    HW126093   7.994   1.498   0.584  1.9960 -1.5123  0.1730
 4958SOL    HW226094   7.988   1.627   0.684  0.0015 -0.0348 -1.8180
 4959SOL     OW26095   4.359   5.300   0.792  0.0605  0.1533 -0.1799
 4959SOL    HW126096   4.401   5.390   0.780 -0.9535  1.1553  3.0244
 4959SOL    HW226097   4.274   5.295   0.739  0.6986  0.6609 -1.2505
 4960SOL     OW26098   2.626   4.256   1.779  0.2229 -0.5410 -0.6026
 4960SOL    HW126099   2.592   4.349   1.786  0.5356 -0.4590 -0.1582
 4960SOL    HW226100   2.648   4.236   1.683  0.0092 -0.2100 -0.7204
 4961SOL     OW26101   1.708   2.739   3.715  0.9382  0.0113 -0.6434
 4961SOL    HW126102   1.701   2.639   3.713 -1.8585  0.1502  0.2200
 4961SOL    HW226103   1.721   2.770   3.809 -0.9395  0.5837 -0.5484
 4962SOL     OW26104   8.974   8.332   4.155  0.4989  0.6355 -0.0332
 4962SOL    HW126105   9.042   8.405   4.164  0.1035  1.0120 -0.0976
 4962SOL    HW226106   8.973   8.277   4.239 -0.4702  1.8122  0.7578
 4963SOL     OW26107   7.355   1.736   0.781  0.3676  0.8935 -0.0697
 4963SOL    HW126108   7.281   1.687   0.736  0.2715  0.0596  0.9995
 4963SOL    HW226109   7.326   1.830   0.799 -0.0076  0.9013 -0.6813
 4964SOL     OW26110   0.311   8.337   6.069 -0.5896 -0.1805 -0.4223
 4964SOL    HW126111   0.407   8.324   6.095 -0.4147  0.2166 -0.8525
 4964SOL    HW226112   0.289   8.434   6.073 -0.3854 -0.0490 -2.3383
 4965SOL     OW26113   7.008   7.441   5.979 -0.0461 -0.4941 -0.4819
 4965SOL    HW126114   6.986   7.538   5.982 -3.0426 -1.1177  0.2389
 4965SOL    HW226115   7.028   7.409   6.072  0.8839 -0.5905 -0.7105
 4966SOL     OW26116   2.834   6.032   2.400  0.0061  0.4364  0.2475
 4966SOL    HW126117   2.804   6.087   2.322  2.2428  1.3059 -0.0294
 4966SOL    HW226118   2.898   6.085   2.455  0.1368 -0.9606  1.4737
 4967SOL     OW26119   4.776   0.776   1.015 -0.2676 -0.6274  0.0508
 4967SOL    HW126120   4.760   0.866   1.056 -1.4214 -0.7779 -0.0517
 4967SOL    HW226121   4.874   0.755   1.018  0.0958  0.9283 -0.5652
 4968SOL     OW26122   8.215   0.589   2.552  0.2350 -0.4182  0.7243
 4968SOL    HW126123   8.117   0.574   2.561  0.2231 -0.3498  0.7046
 4968SOL    HW226124   8.237   0.616   2.458  0.2747 -0.4521  0.7236
 4969SOL     OW26125   3.699   5.602   1.272  0.2417 -0.2184 -0.4179
 4969SOL    HW126126   3.652   5.614   1.184 -1.2989  2.0341  0.6857
 4969SOL    HW226127   3.764   5.677   1.286 -0.6389  0.2771  1.0602
 4970SOL     OW26128   0.298   3.224   4.871 -0.0150  0.1198 -0.4887
 4970SOL    HW126129   0.243   3.294   4.825 -0.1074  0.3921  0.0444
 4970SOL    HW226130   0.313   3.250   4.966  1.2003  0.1453 -0.6749
 4971SOL     OW26131   8.480   1.146   0.820  0.1037  0.0927 -0.0865
 4971SOL    HW126132   8.453   1.210   0.749 -0.4436  0.1645  0.1864
 4971SOL    HW226133   8.400   1.117   0.872  0.5867  0.6170  0.9794
 4972SOL     OW26134   5.556   1.694   0.322  0.3280  0.2279 -0.2370
 4972SOL    HW126135   5.471   1.739   0.350  0.2081 -0.7087  0.9264
 4972SOL    HW226136   5.632   1.726   0.378  0.7701  1.1048 -1.3132
 4973SOL     OW26137   0.872   4.546   3.111 -0.0847 -0.0198  0.2664
 4973SOL    HW126138   0.893   4.644   3.106 -0.9659  0.2345  1.4180
 4973SOL    HW226139   0.902   4.501   3.026 -2.1475  1.6998 -1.4211
 4974SOL     OW26140   2.959   1.786   3.710  0.0999  0.0020 -0.4214
 4974SOL    HW126141   3.058   1.797   3.723 -0.1052  2.8324 -1.0841
 4974SOL    HW226142   2.911   1.823   3.789 -0.4506 -1.5832  0.0065
 4975SOL     OW26143   2.071   8.837   0.486  0.0170 -0.4719  0.3659
 4975SOL    HW126144   2.170   8.835   0.502 -0.4121 -2.7448  3.2274
 4975SOL    HW226145   2.033   8.921   0.526  0.6169 -0.2429  0.4646
 4976SOL     OW26146   1.351   5.277   1.339  0.4767  0.1151 -1.0484
 4976SOL    HW126147   1.405   5.193   1.324  1.4590  0.3497  0.9827
 4976SOL    HW226148   1.258   5.252   1.366  0.6361 -0.3296 -0.8923
 4977SOL     OW26149   3.504   8.907   2.634  0.1237  0.0163  0.2060
 4977SOL    HW126150   3.568   8.840   2.597  2.0485  0.0927  3.2155
 4977SOL    HW226151   3.500   8.898   2.734 -3.0597  1.3757  0.2720
 4978SOL     OW26152   3.424   2.919   0.548 -0.3793 -0.5276 -0.8451
 4978SOL    HW126153   3.508   2.874   0.578  1.0746  1.0862 -2.3651
 4978SOL    HW226154   3.371   2.949   0.627  1.5809  0.4063  0.1508
 4979SOL     OW26155   0.750   5.497   4.201  0.3199 -0.1248  0.6457
 4979SOL    HW126156   0.797   5.583   4.179 -2.0111  1.0449  0.0839
 4979SOL    HW226157   0.813   5.438   4.251  2.2151  1.6032  0.4181
 4980SOL     OW26158   1.171   9.148   1.864  0.2424 -0.5270  0.5762
 4980SOL    HW126159   1.105   9.083   1.826 -0.9790  1.4273 -0.7000
 4980SOL    HW226160   1.261   9.105   1.869  0.0935 -1.3566 -3.0301
 4981SOL     OW26161   0.919   1.083   1.493  0.3885  0.5147 -0.0104
 4981SOL    HW126162   0.840   1.046   1.542 -0.8146  2.0065 -0.8007
 4981SOL    HW226163   0.899   1.086   1.395  0.5280  3.1369  0.0249
 4982SOL     OW26164   4.706   0.742   3.194 -0.6775 -0.5330 -0.6988
 4982SOL    HW126165   4.761   0.814   3.151 -1.5709  0.1156 -0.7682
 4982SOL    HW226166   4.623   0.782   3.233  0.3229 -1.0324  2.0683
 4983SOL     OW26167   0.023   9.622   5.681 -0.4992 -0.1135  0.1923
 4983SOL    HW126168  -0.017   9.653   5.767 -0.1958  3.5360 -0.9249
 4983SOL    HW226169   0.123   9.624   5.688 -0.4758  0.2206 -0.2674
 4984SOL     OW26170   2.686   7.464   6.163  0.1948  0.1328 -0.1494
 4984SOL    HW126171   2.680   7.372   6.124  1.7219  0.1986 -0.5603
 4984SOL    HW226172   2.651   7.530   6.098 -1.7378 -0.2248  0.4875
 4985SOL     OW26173   7.650   3.513   8.074 -0.6565  0.0116  0.8136
 4985SOL    HW126174   7.734   3.475   8.036  0.3522  2.9177 -0.0451
 4985SOL    HW226175   7.606   3.445   8.132  0.2978 -2.8865 -1.6752
 4986SOL     OW26176   7.388   0.508   1.402  0.0550  0.2196 -0.4959
 4986SOL    HW126177   7.482   0.472   1.405  0.4575  1.2494 -0.6754
 4986SOL    HW226178   7.327   0.443   1.447  0.5565 -1.3869 -2.0581
 4987SOL     OW26179   2.998   5.550   3.951 -0.2254 -0.8673 -0.1614
 4987SOL    HW126180   3.032   5.519   4.040  1.7517  1.7589  0.0769
 4987SOL    HW226181   2.934   5.625   3.963  0.9549  0.3019 -0.9561
 4988SOL     OW26182   8.190   9.010   3.086 -0.2095 -0.5330 -0.0950
 4988SOL    HW126183   8.269   8.996   3.146 -0.1298 -0.8076 -0.2613
 4988SOL    HW226184   8.106   9.009   3.140 -0.1567 -1.0226 -0.0226
 4989SOL     OW26185   2.754   7.234   4.264  0.2750  0.0328  0.1498
 4989SOL    HW126186   2.748   7.332   4.283  0.2357 -0.2400  1.5780
 4989SOL    HW226187   2.671   7.189   4.295  0.0164 -0.3728 -1.0966
 4990SOL     OW26188   4.162   9.536   0.667 -0.0063  0.1509 -0.1155
 4990SOL    HW126189   4.115   9.550   0.754  0.0434  1.6051 -0.3078
 4990SOL    HW226190   4.094   9.527   0.594 -0.0384 -0.4643 -0.0077
 4991SOL     OW26191   7.504   6.405   5.151 -0.3621 -0.4160  0.3122
 4991SOL    HW126192   7.571   6.377   5.221  0.3289 -1.6381 -0.8168
 4991SOL    HW226193   7.512   6.344   5.072 -1.3671  0.7594 -0.6985
 4992SOL     OW26194   8.566   3.025   0.651  0.0896  0.2311 -0.3794
 4992SOL    HW126195   8.475   2.985   0.637  0.1944 -0.3308  0.4934
 4992SOL    HW226196   8.566   3.119   0.618 -1.0788  0.5303  0.4369
 4993SOL     OW26197   4.433   0.071   3.692  0.6935 -0.0716 -0.0841
 4993SOL    HW126198   4.505   0.116   3.745  1.2654 -1.2469  0.1372
 4993SOL    HW226199   4.473   0.013   3.621 -0.0375 -0.3606 -0.2705
 4994SOL     OW26200   5.187   1.060   3.115  0.5436  0.3485  0.4027
 4994SOL    HW126201   5.226   1.004   3.189  2.6992  0.9117 -0.2542
 4994SOL    HW226202   5.149   1.144   3.154 -1.1235 -0.7410  1.1922
 4995SOL     OW26203   3.590   9.328   4.262  0.3046 -0.0060 -0.0923
 4995SOL    HW126204   3.571   9.262   4.335 -0.4390 -1.3728 -1.4930
 4995SOL    HW226205   3.685   9.358   4.267  0.2346  0.0068  1.4900
 4996SOL     OW26206   4.787   6.637   0.706 -0.1325  0.2369 -0.3147
 4996SOL    HW126207   4.790   6.689   0.621 -2.2771  0.4186 -0.3083
 4996SOL    HW226208   4.862   6.665   0.765  1.2677  0.2354 -2.0547
 4997SOL     OW26209   9.716   5.405   3.647  0.3912  0.4078  0.3336
 4997SOL    HW126210   9.787   5.434   3.584 -0.8044 -0.6867 -1.5685
 4997SOL    HW226211   9.669   5.485   3.685  1.1206  1.0654 -0.1432
 4998SOL     OW26212   2.142   0.314   3.633  0.4131 -0.3432 -0.1537
 4998SOL    HW126213   2.061   0.362   3.598  0.1963 -1.3791 -1.0912
 4998SOL    HW226214   2.222   0.338   3.577  0.6459  0.2625  0.4400
 4999SOL     OW26215   3.830   0.909   5.437 -0.5164 -0.1707  0.2217
 4999SOL    HW126216   3.803   0.868   5.350 -0.6293  0.5474 -0.0795
 4999SOL    HW226217   3.930   0.909   5.443 -0.5274 -1.5366  0.7276
 5000SOL     OW26218   8.437   6.512   5.540  0.0050  0.0633 -0.5821
 5000SOL    HW126219   8.378   6.484   5.464 -0.4292 -0.9103  0.1179
 5000SOL    HW226220   8.499   6.437   5.563  0.1447  0.3653  0.0312
 5001SOL     OW26221   6.950   2.870   8.059 -0.2459  0.1232 -0.2117
 5001SOL    HW126222   6.964   2.776   8.029  0.1272  0.5022 -1.2416
 5001SOL    HW226223   7.033   2.904   8.103 -0.0507  0.2693 -0.6787
 5002SOL     OW26224   5.652   1.531   4.160 -0.1268 -0.6024 -1.0566
 5002SOL    HW126225   5.599   1.492   4.085 -2.9867  1.7445 -0.3527
 5002SOL    HW226226   5.620   1.624   4.180  0.2535 -1.2832  3.3217
 5003SOL     OW26227   9.928   1.838   2.944  0.2486 -0.4771  0.3302
 5003SOL    HW126228   9.869   1.918   2.951 -0.0183 -0.7332  1.0369
 5003SOL    HW226229   9.937   1.795   3.034  0.6780 -1.0342  0.0240
 5004SOL     OW26230   4.795   6.701   2.225 -0.7515  0.2596  0.5741
 5004SOL    HW126231   4.788   6.653   2.138  2.0674  0.9898 -0.0788
 5004SOL    HW226232   4.813   6.635   2.298  1.8372  0.1224 -0.1412
 5005SOL     OW26233   9.513   0.642   2.233  0.5623 -0.9034 -0.3691
 5005SOL    HW126234   9.455   0.584   2.291  0.7892 -1.0360 -0.2755
 5005SOL    HW226235   9.484   0.737   2.242 -1.6213 -1.3104 -2.6411
 5006SOL     OW26236   6.864   0.801   2.549 -0.4924 -0.9022  0.0639
 5006SOL    HW126237   6.877   0.890   2.505  0.2076  0.7301  3.3385
 5006SOL    HW226238   6.953   0.765   2.578 -0.9410 -1.7300  0.4303
 5007SOL     OW26239   7.443   1.228   4.668  0.0530  0.0495 -0.1008
 5007SOL    HW126240   7.353   1.268   4.649  0.5819  0.6964 -1.3743
 5007SOL    HW226241   7.436   1.162   4.742 -1.5587 -0.2346 -0.4923
 5008SOL     OW26242   3.424   4.452   3.449 -0.5348  0.0567 -0.2310
 5008SOL    HW126243   3.447   4.501   3.365  0.6996 -1.9650 -1.0995
 5008SOL    HW226244   3.375   4.367   3.426  0.3329 -0.8094  1.0543
 5009SOL     OW26245   4.516   0.654   2.512 -0.1528  0.2614 -0.3927
 5009SOL    HW126246   4.455   0.586   2.553  0.5912 -0.5213 -0.5940
 5009SOL    HW226247   4.606   0.648   2.554  0.3607  0.0648 -1.4968
 5010SOL     OW26248   0.877   6.832   1.780 -0.2565  0.0223  0.0528
 5010SOL    HW126249   0.965   6.788   1.758 -1.0116 -0.7931 -1.4088
 5010SOL    HW226250   0.891   6.930   1.791  0.9325 -0.1673  0.4093
 5011SOL     OW26251   4.206   2.925   1.845  0.2430  0.0614  0.6291
 5011SOL    HW126252   4.107   2.930   1.833  0.1548 -0.5074  1.0807
 5011SOL    HW226253   4.226   2.892   1.938  0.8380 -1.3875  0.0053
 5012SOL     OW26254   5.767   5.375   0.050 -0.3659  0.3405  0.3911
 5012SOL    HW126255   5.760   5.467   0.011  0.3470  1.0868  1.9458
 5012SOL    HW226256   5.862   5.358   0.078 -1.1099  0.4430  3.1415
 5013SOL     OW26257   1.055   1.297   1.636  0.0700 -0.2863  0.3697
 5013SOL    HW126258   1.151   1.301   1.612 -0.0751 -0.5409 -0.2522
 5013SOL    HW226259   1.014   1.214   1.597 -0.1938 -0.6414  1.3676
 5014SOL     OW26260   3.738   0.561   5.575 -0.5043  0.0058  0.0710
 5014SOL    HW126261   3.661   0.556   5.511  0.1633 -0.2100 -0.7361
 5014SOL    HW226262   3.718   0.506   5.656 -0.5736 -1.3222 -0.8221
 5015SOL     OW26263   4.503   8.587   2.247 -0.2898  0.0208  0.4280
 5015SOL    HW126264   4.445   8.577   2.328 -0.2959 -2.5039  0.1495
 5015SOL    HW226265   4.556   8.671   2.254 -2.1677  1.1313  1.8470
 5016SOL     OW26266   3.925   3.097   5.091 -0.2099 -0.4364 -0.3332
 5016SOL    HW126267   3.893   3.004   5.072  1.2200 -0.8962 -0.5818
 5016SOL    HW226268   3.851   3.150   5.131 -1.7973 -0.9463 -2.4989
 5017SOL     OW26269   9.814   4.747   4.743 -0.2453  0.0637  0.2856
 5017SOL    HW126270   9.883   4.676   4.731  0.5137  1.1321 -1.8397
 5017SOL    HW226271   9.856   4.837   4.728 -2.4016  0.6660 -2.5367
 5018SOL     OW26272   1.586   9.825   5.555  0.2730  0.5817  0.2447
 5018SOL    HW126273   1.685   9.817   5.545  0.2670  0.8279 -0.0296
 5018SOL    HW226274   1.551   9.747   5.607  0.5184  0.1156 -0.2807
 5019SOL     OW26275   0.585   6.837   0.406 -0.4884  0.7508  0.8025
 5019SOL    HW126276   0.523   6.798   0.338  0.8583  0.3751 -0.2401
 5019SOL    HW226277   0.565   6.797   0.496  0.8582 -2.4458 -0.2179
 5020SOL     OW26278   3.293   4.081   1.822  0.7708  0.2928  0.1631
 5020SOL    HW126279   3.237   4.000   1.805 -0.4866  1.2900 -0.4497
 5020SOL    HW226280   3.240   4.148   1.874  1.2920  1.3751 -0.6998
 5021SOL     OW26281   8.454   4.248   4.005  0.5797 -0.1452  0.6750
 5021SOL    HW126282   8.509   4.210   4.079  0.7276 -0.4778  0.3974
 5021SOL    HW226283   8.457   4.348   4.009  0.6502 -0.1613  1.0685
 5022SOL     OW26284   7.675   3.871   4.854  0.1899 -0.7693  0.3419
 5022SOL    HW126285   7.628   3.851   4.940 -1.7825 -0.7944 -0.7024
 5022SOL    HW226286   7.683   3.970   4.843 -1.0210 -0.7189 -0.1835
 5023SOL     OW26287   0.149   7.629   4.504 -0.3110  0.3352  0.0581
 5023SOL    HW126288   0.233   7.624   4.557 -0.4821  0.7422  0.3703
 5023SOL    HW226289   0.170   7.621   4.406  0.4355  3.4131 -0.1112
 5024SOL     OW26290   5.087   3.597   0.304 -0.1115 -0.2348  0.1934
 5024SOL    HW126291   5.127   3.669   0.247 -2.5927  1.4936  0.5565
 5024SOL    HW226292   4.999   3.628   0.340  0.0148 -2.4304  2.5620
 5025SOL     OW26293   0.617   8.351   3.622 -0.0782 -0.0095 -0.1166
 5025SOL    HW126294   0.552   8.299   3.567 -0.6250  0.8272 -0.2817
 5025SOL    HW226295   0.568   8.424   3.670  0.9925  1.6721 -1.5290
 5026SOL     OW26296   8.475   0.885   0.707 -0.2590 -0.6119 -0.0016
 5026SOL    HW126297   8.478   0.972   0.756 -0.8626 -0.8009  0.3793
 5026SOL    HW226298   8.502   0.811   0.768 -1.0738 -0.8555  0.0627
 5027SOL     OW26299   1.424   7.822   3.995  0.1507  0.2145 -0.0113
 5027SOL    HW126300   1.470   7.734   4.011  0.1477  0.3591  0.7925
 5027SOL    HW226301   1.340   7.806   3.943 -0.4131 -0.3889  1.0658
 5028SOL     OW26302   6.820   9.877   2.944  0.1759 -0.2377 -0.6223
 5028SOL    HW126303   6.784   9.786   2.922 -1.1472 -0.1521  1.0957
 5028SOL    HW226304   6.829   9.886   3.043 -1.6783  2.2329 -0.6391
 5029SOL     OW26305   8.113   5.343   2.336 -0.2639 -0.7940 -0.1523
 5029SOL    HW126306   8.150   5.281   2.267  0.7615  0.5112 -0.7790
 5029SOL    HW226307   8.029   5.385   2.301  1.2025  1.2338 -1.3756
 5030SOL     OW26308   7.288   9.132   6.595 -0.0666 -0.7213 -0.5162
 5030SOL    HW126309   7.200   9.088   6.613 -0.1859 -0.7670 -1.2127
 5030SOL    HW226310   7.273   9.228   6.571  0.0150 -0.9451 -1.4566
 5031SOL     OW26311   4.405   7.360   1.547  0.2405  0.2592  0.2671
 5031SOL    HW126312   4.450   7.447   1.524 -1.0605  0.4085 -1.8302
 5031SOL    HW226313   4.475   7.291   1.566  1.3684  0.7576 -1.9133
 5032SOL     OW26314   1.862   9.692   5.205 -0.3798 -0.6513 -1.0357
 5032SOL    HW126315   1.874   9.658   5.298 -0.5704 -1.2001 -1.2111
 5032SOL    HW226316   1.766   9.680   5.178 -0.3447 -0.4034 -1.2712
 5033SOL     OW26317   0.349   4.028   7.987 -0.9659 -0.4152  0.1144
 5033SOL    HW126318   0.415   3.968   8.033  3.5579  3.0556 -1.4316
 5033SOL    HW226319   0.317   3.985   7.903  1.8125 -0.9907 -0.7209
 5034SOL     OW26320   4.109   1.191   0.066 -0.3945 -0.1262 -0.3511
 5034SOL    HW126321   4.044   1.215   0.138  0.0816 -1.3300  0.4918
 5034SOL    HW226322   4.082   1.236  -0.019 -1.7244  0.2304  0.2464
 5035SOL     OW26323   1.399   2.218   5.034  0.6892  0.6619  0.1101
 5035SOL    HW126324   1.367   2.128   5.065  1.3745  0.3733 -0.0257
 5035SOL    HW226325   1.433   2.270   5.112  0.9659  0.5300  0.0763
 5036SOL     OW26326   9.184   8.510   5.099 -0.0710 -0.2556  0.2878
 5036SOL    HW126327   9.252   8.446   5.063 -0.1015 -0.2653  0.2485
 5036SOL    HW226328   9.093   8.467   5.097 -0.1995  0.0447 -0.4121
 5037SOL     OW26329   0.520   7.623   1.518  0.3835 -0.6102 -0.3292
 5037SOL    HW126330   0.447   7.568   1.478  0.9182 -0.9220 -0.8922
 5037SOL    HW226331   0.493   7.654   1.609 -1.2483  0.8723 -1.2772
 5038SOL     OW26332   5.177   9.827   6.246  0.0606  0.3690 -0.2660
 5038SOL    HW126333   5.211   9.922   6.243  0.0078  0.3600 -1.3842
 5038SOL    HW226334   5.120   9.810   6.166 -0.8657 -0.2679  0.5200
 5039SOL     OW26335   3.841   9.282   1.769 -0.1571 -0.9151 -0.4454
 5039SOL    HW126336   3.939   9.260   1.762 -0.3174 -1.1514 -2.1168
 5039SOL    HW226337   3.813   9.280   1.865  1.6507 -0.1371  0.1251
 5040SOL     OW26338   1.064   8.238   2.501 -0.6012 -0.2472  0.3249
 5040SOL    HW126339   0.985   8.299   2.488 -0.8842 -0.3067  1.7090
 5040SOL    HW226340   1.033   8.143   2.497 -0.8956 -0.2689  2.4695
 5041SOL     OW26341   1.938   9.345   4.823  0.0618  0.5763  0.4355
 5041SOL    HW126342   1.839   9.343   4.816  0.0690 -2.1437  0.7032
 5041SOL    HW226343   1.977   9.372   4.734 -0.8493 -1.2633 -0.5631
 5042SOL     OW26344   6.073   9.742   4.172 -0.0208 -0.2489  0.1653
 5042SOL    HW126345   6.073   9.677   4.096 -0.9466  0.9646 -0.9021
 5042SOL    HW226346   6.083   9.693   4.259  0.8668 -1.6620 -0.7244
 5043SOL     OW26347   0.878   4.408   1.811  0.7592  0.0964  0.2385
 5043SOL    HW126348   0.961   4.420   1.756  1.3598 -2.7237  0.4454
 5043SOL    HW226349   0.891   4.450   1.901  2.1437 -0.6601  0.4093
 5044SOL     OW26350   8.157   1.107   4.160  0.2901  0.0995  0.1137
 5044SOL    HW126351   8.167   1.034   4.227  0.0982  0.2516  0.3090
 5044SOL    HW226352   8.063   1.140   4.161  0.1062 -0.3890 -0.7385
 5045SOL     OW26353   4.243   2.538   3.010  0.0104  0.4413  0.4636
 5045SOL    HW126354   4.343   2.533   3.012  0.1362  2.2828 -0.3952
 5045SOL    HW226355   4.207   2.464   2.954  1.0225  1.0610 -1.0324
 5046SOL     OW26356   8.821   9.864   4.181  0.7790 -0.3947 -0.0039
 5046SOL    HW126357   8.752   9.818   4.126  1.6933  0.9301 -2.3740
 5046SOL    HW226358   8.784   9.950   4.216  0.6823 -0.4881  0.1193
 5047SOL     OW26359   7.831   8.634   2.396 -0.3670 -0.1459 -0.0714
 5047SOL    HW126360   7.872   8.683   2.473 -0.9129  0.0796  0.0757
 5047SOL    HW226361   7.745   8.592   2.425 -1.1012  0.8062 -0.8321
 5048SOL     OW26362   0.083   5.825   5.325 -0.0578  0.0478 -0.0469
 5048SOL    HW126363   0.010   5.849   5.389  1.1054  0.3273  1.1915
 5048SOL    HW226364   0.115   5.732   5.345  0.2701  0.1160 -0.2595
 5049SOL     OW26365   7.970   3.295   1.855  0.4174 -0.0230 -0.6153
 5049SOL    HW126366   8.001   3.290   1.950  1.5318  0.1829 -0.9643
 5049SOL    HW226367   7.972   3.391   1.825  2.3911 -0.3438 -1.5930
 5050SOL     OW26368   5.881   0.057   4.049  0.3531 -0.0401  0.2556
 5050SOL    HW126369   5.973   0.081   4.080  0.9035 -1.0424 -0.5536
 5050SOL    HW226370   5.829   0.020   4.125  1.6220 -2.2917  0.0900
 5051SOL     OW26371   7.438   8.891   6.509  0.0750 -0.0057  0.3191
 5051SOL    HW126372   7.410   8.987   6.519  0.6408  0.1128  0.8297
 5051SOL    HW226373   7.453   8.851   6.600  2.2404  0.1496  0.0516
 5052SOL     OW26374   1.328   9.661   0.092 -0.3813  0.0045 -0.1188
 5052SOL    HW126375   1.383   9.601   0.151  1.3204  1.2736 -0.3909
 5052SOL    HW226376   1.382   9.741   0.066 -2.2974  1.1655 -0.5901
 5053SOL     OW26377   2.470   9.120   6.637 -0.4893  0.2519 -0.8395
 5053SOL    HW126378   2.528   9.144   6.715 -0.5033 -2.0160 -0.1038
 5053SOL    HW226379   2.527   9.095   6.559 -0.4924  0.5655 -0.9461
 5054SOL     OW26380   0.290   0.160   4.850  0.2852 -0.4413  0.3302
 5054SOL    HW126381   0.295   0.223   4.927 -1.5860  0.9055 -0.5930
 5054SOL    HW226382   0.346   0.195   4.775 -0.0952 -0.2750  0.1173
 5055SOL     OW26383   3.147   1.614   0.186  0.3489  0.6577 -0.0068
 5055SOL    HW126384   3.235   1.653   0.212  0.0788  0.3431  1.4046
 5055SOL    HW226385   3.157   1.515   0.172  0.3841  0.7468 -0.6502
 5056SOL     OW26386   0.052   5.003   5.372  0.0947 -0.2544 -0.0843
 5056SOL    HW126387  -0.024   5.008   5.437  1.0647 -0.5523  1.0944
 5056SOL    HW226388   0.136   5.033   5.417  0.7116 -0.0780 -1.3313
 5057SOL     OW26389   4.207   5.762   2.918  0.7424 -0.7335 -0.4092
 5057SOL    HW126390   4.231   5.789   3.011 -0.4425 -0.3345 -0.2100
 5057SOL    HW226391   4.214   5.662   2.909 -0.7574 -0.9381  0.5874
 5058SOL     OW26392   8.592   0.780   3.566  0.6720 -0.1462  0.4550
 5058SOL    HW126393   8.504   0.732   3.560 -0.3323  1.7117 -0.0101
 5058SOL    HW226394   8.588   0.864   3.513  2.5118  0.3270  1.0237
 5059SOL     OW26395   2.259   2.439   3.012  0.3455  0.6099 -0.4129
 5059SOL    HW126396   2.278   2.528   2.970  2.4416 -1.2123 -3.4626
 5059SOL    HW226397   2.327   2.420   3.082  1.0440  0.5842 -1.0929
 5060SOL     OW26398   7.522   0.907   3.620 -0.0472 -0.2004 -0.3179
 5060SOL    HW126399   7.550   0.833   3.560 -0.9899 -0.1533 -0.8261
 5060SOL    HW226400   7.582   0.986   3.606 -0.2656 -0.1907 -1.2031
 5061SOL     OW26401   0.955   5.981   2.215  0.1201 -0.4340  0.0418
 5061SOL    HW126402   1.010   6.052   2.259  0.4140 -1.2258  0.9490
 5061SOL    HW226403   0.864   5.979   2.257 -0.0564 -0.2475 -0.3317
 5062SOL     OW26404   6.543   4.594   1.033  0.6253  0.2521  0.2855
 5062SOL    HW126405   6.613   4.550   0.975 -0.9912  0.8560 -2.2166
 5062SOL    HW226406   6.486   4.653   0.976 -0.4171  1.6626  2.7313
 5063SOL     OW26407   9.423   0.181   4.412  0.1800  0.0737  0.4063
 5063SOL    HW126408   9.447   0.106   4.350  2.6976  0.2960  1.0216
 5063SOL    HW226409   9.487   0.257   4.397 -1.5110  1.5868  0.7196
 5064SOL     OW26410   3.776   7.956   1.582  0.0619  0.0703  0.1730
 5064SOL    HW126411   3.842   8.013   1.632  0.4170 -0.9878  0.9340
 5064SOL    HW226412   3.798   7.860   1.596 -1.2329 -0.2832 -0.1486
 5065SOL     OW26413   7.669   2.406   6.496  0.5415  0.2537  0.0907
 5065SOL    HW126414   7.715   2.407   6.408  0.3231  0.1148 -0.0264
 5065SOL    HW226415   7.660   2.500   6.531 -1.5679  0.5698 -1.1939
 5066SOL     OW26416   8.860   6.739   0.490 -0.5081  0.4338  0.0926
 5066SOL    HW126417   8.945   6.765   0.535  0.2455  0.5133 -1.3656
 5066SOL    HW226418   8.807   6.822   0.469 -0.2334  0.4844 -0.3958
 5067SOL     OW26419   4.273   7.179   3.878  0.3305 -0.1976  0.2829
 5067SOL    HW126420   4.202   7.132   3.931 -0.4038  2.4164  1.7316
 5067SOL    HW226421   4.310   7.118   3.808 -3.4770 -1.5544 -0.6250
 5068SOL     OW26422   6.812   1.281   4.404 -0.7501 -0.6370 -0.0864
 5068SOL    HW126423   6.766   1.358   4.448 -0.0285 -0.4220  0.3041
 5068SOL    HW226424   6.747   1.206   4.392 -1.3304 -0.1560 -0.0118
 5069SOL     OW26425   9.470   1.365   0.691  0.0437 -0.0136 -0.2081
 5069SOL    HW126426   9.397   1.300   0.716  0.0305 -0.5359 -1.5486
 5069SOL    HW226427   9.431   1.439   0.637  0.3851  0.0689 -0.3425
 5070SOL     OW26428   3.447   3.947   2.232  0.4297 -0.4483  0.1501
 5070SOL    HW126429   3.350   3.927   2.251  0.6280  0.0392  1.7147
 5070SOL    HW226430   3.504   3.878   2.275  0.8448  0.1213  0.5177
 5071SOL     OW26431   1.123   9.165   0.465  0.6529 -0.1140 -0.0999
 5071SOL    HW126432   1.097   9.101   0.393 -1.4904  0.1984  0.3884
 5071SOL    HW226433   1.064   9.154   0.544  0.9995  1.6728  0.4396
 5072SOL     OW26434   0.548   3.207   2.334 -0.2474 -0.1581 -0.3532
 5072SOL    HW126435   0.640   3.227   2.366  0.6013 -1.9912 -1.5679
 5072SOL    HW226436   0.533   3.108   2.337 -2.7998  0.2243  1.4848
 5073SOL     OW26437   6.623   2.483   2.792  0.0519  0.1329 -0.4776
 5073SOL    HW126438   6.687   2.414   2.758  0.6610  0.9594 -1.0351
 5073SOL    HW226439   6.529   2.451   2.777  0.3270 -0.2957 -1.3282
 5074SOL     OW26440   7.338   0.858   2.680  0.3337  0.8048 -0.2537
 5074SOL    HW126441   7.252   0.902   2.704 -0.0986 -0.5414  0.7504
 5074SOL    HW226442   7.369   0.890   2.590 -1.4780  0.9079 -0.8599
 5075SOL     OW26443   8.273   6.320   0.259  0.0470  0.5592  0.3080
 5075SOL    HW126444   8.255   6.295   0.354  1.8861  0.1686  0.5666
 5075SOL    HW226445   8.239   6.247   0.199  0.1554  0.1539  0.7369
 5076SOL     OW26446   5.443   0.261   5.268  0.1063  0.0075  0.0745
 5076SOL    HW126447   5.470   0.200   5.342  0.9962 -0.8952 -0.9668
 5076SOL    HW226448   5.519   0.271   5.204 -0.6317  0.8177 -0.6932
 5077SOL     OW26449   9.761   8.647   3.350 -0.9639  0.4415  0.3155
 5077SOL    HW126450   9.777   8.614   3.443 -0.4583 -2.5751 -0.7818
 5077SOL    HW226451   9.664   8.641   3.328 -1.0400  0.8649  0.5425
 5078SOL     OW26452   2.478   2.362   3.161  0.3504  0.5861  0.0259
 5078SOL    HW126453   2.568   2.328   3.189 -0.0085 -0.3266  0.0941
 5078SOL    HW226454   2.488   2.451   3.118  1.4931 -0.2518 -1.4998
 5079SOL     OW26455   0.526   1.354   2.321 -0.2118  0.0473  0.3004
 5079SOL    HW126456   0.492   1.393   2.235  1.5976  0.0145 -0.4647
 5079SOL    HW226457   0.591   1.280   2.300  1.3007  0.9485  1.6814
 5080SOL     OW26458   9.523   4.629   5.214  0.5991  0.7245 -0.7372
 5080SOL    HW126459   9.512   4.590   5.123  0.1588  0.3323 -0.5229
 5080SOL    HW226460   9.578   4.567   5.270  1.7795  1.4793 -1.0557
 5081SOL     OW26461   2.668   0.878   0.460 -0.0086  0.2827  0.5183
 5081SOL    HW126462   2.703   0.959   0.507  0.8804  0.3605 -0.2639
 5081SOL    HW226463   2.680   0.798   0.519  2.0555  0.2144  0.0536
 5082SOL     OW26464   3.838   9.033   4.747  0.1047 -0.1002  0.1865
 5082SOL    HW126465   3.859   9.129   4.732 -0.1378 -0.0205  0.3574
 5082SOL    HW226466   3.756   9.025   4.803 -0.8055 -0.4135 -1.1744
 5083SOL     OW26467   9.019   0.736   0.901  0.5445 -0.2824  0.4977
 5083SOL    HW126468   9.085   0.764   0.970  0.9930 -0.2176  0.0491
 5083SOL    HW226469   9.067   0.701   0.821  0.0772  1.3547 -0.5185
 5084SOL     OW26470   0.829   5.837   0.332 -0.7633 -0.5773 -0.6617
 5084SOL    HW126471   0.767   5.760   0.315 -0.7586 -0.7164 -0.0686
 5084SOL    HW226472   0.923   5.809   0.313 -0.4512 -1.5617  2.1028
 5085SOL     OW26473   3.358   5.340   2.942 -0.0316 -0.4879 -0.2807
 5085SOL    HW126474   3.267   5.300   2.951 -0.2581  0.3573  1.3593
 5085SOL    HW226475   3.395   5.319   2.852 -2.6510  0.8231 -1.6845
 5086SOL     OW26476   9.520   5.721   4.147  0.7280 -0.4076 -0.0057
 5086SOL    HW126477   9.496   5.818   4.136  0.8722 -0.2354  1.0872
 5086SOL    HW226478   9.517   5.698   4.244 -0.9654 -1.9405 -0.4155
 5087SOL     OW26479   8.517   3.764   2.399 -0.3023 -0.3059  0.0276
 5087SOL    HW126480   8.593   3.772   2.336  0.5397  0.1941  1.0808
 5087SOL    HW226481   8.551   3.740   2.490 -1.3485  0.3267  0.6076
 5088SOL     OW26482   2.196   6.197   5.508  0.2020 -0.3031 -0.2967
 5088SOL    HW126483   2.244   6.268   5.456 -0.0586  1.0714  1.2931
 5088SOL    HW226484   2.252   6.170   5.586  0.1058 -1.5765 -0.6460
 5089SOL     OW26485   7.903   0.432   4.159 -0.3385 -0.3091  0.1448
 5089SOL    HW126486   7.825   0.464   4.105 -0.4723 -0.4737  0.2367
 5089SOL    HW226487   7.902   0.332   4.163 -0.0610 -0.3155  0.0588
 5090SOL     OW26488   2.570   2.211   4.259  0.0320  0.1327 -0.0237
 5090SOL    HW126489   2.587   2.131   4.317  0.2379  0.2791  0.1183
 5090SOL    HW226490   2.546   2.290   4.317 -1.7286 -0.2121 -0.2453
 5091SOL     OW26491   3.628   8.600   6.187 -0.2526 -0.1022  0.1346
 5091SOL    HW126492   3.534   8.567   6.184 -0.0024 -0.9239  1.1305
 5091SOL    HW226493   3.654   8.623   6.280  0.3687  0.6191 -0.2066
 5092SOL     OW26494   4.712   5.219   2.705 -0.9702 -0.1089  0.3977
 5092SOL    HW126495   4.746   5.295   2.759 -0.4033  0.1517 -0.3203
 5092SOL    HW226496   4.751   5.134   2.738 -0.8839  0.0159  0.6155
 5093SOL     OW26497   0.442   4.446   2.669 -0.4693  0.6827 -0.4964
 5093SOL    HW126498   0.524   4.462   2.723 -1.5504  0.8859  1.1225
 5093SOL    HW226499   0.368   4.417   2.729 -1.5743  0.4469 -1.9439
 5094SOL     OW26500   1.213   8.556   5.572  0.1097  0.3066  0.5952
 5094SOL    HW126501   1.302   8.529   5.537 -0.0796 -0.0775  0.4059
 5094SOL    HW226502   1.177   8.631   5.516 -0.0323 -0.0627  0.1898
 5095SOL     OW26503   1.200   4.888   0.757 -0.3045 -0.4128  0.5409
 5095SOL    HW126504   1.125   4.913   0.695  0.3905  2.4609  0.7662
 5095SOL    HW226505   1.248   4.971   0.786  3.3477 -2.2103 -0.0525
 5096SOL     OW26506   7.254   6.938   5.043  0.2613 -0.0361 -0.3932
 5096SOL    HW126507   7.266   6.985   5.131  1.3869 -1.6831  0.3677
 5096SOL    HW226508   7.227   7.004   4.973  0.3780  1.4797  0.9638
 5097SOL     OW26509   7.636   2.916   0.465 -0.4383 -0.1109 -0.2502
 5097SOL    HW126510   7.649   2.881   0.558 -0.8816  1.1437  0.3088
 5097SOL    HW226511   7.617   3.014   0.470 -0.4184 -0.0317 -1.6770
 5098SOL     OW26512   4.349   7.924   2.665  0.3371 -0.1669  0.5641
 5098SOL    HW126513   4.317   7.911   2.571  0.7587  2.5952  0.0059
 5098SOL    HW226514   4.449   7.926   2.666  0.3121  1.0390  0.8873
 5099SOL     OW26515   3.758   3.196   2.938 -0.0001  0.2332 -0.8919
 5099SOL    HW126516   3.724   3.263   3.005 -0.5256  1.1241 -2.0399
 5099SOL    HW226517   3.720   3.106   2.959  0.1860  0.4088  0.2651
 5100SOL     OW26518   2.731   4.561   1.962 -0.0763  0.4187 -0.3288
 5100SOL    HW126519   2.690   4.652   1.975  0.6937  0.6284  0.6435
 5100SOL    HW226520   2.732   4.513   2.050  0.1279 -0.2739 -0.7160
 5101SOL     OW26521   9.550   1.682   4.896  0.2464 -0.0109 -0.2338
 5101SOL    HW126522   9.532   1.735   4.813 -0.0777  0.6672  0.2628
 5101SOL    HW226523   9.619   1.612   4.877 -0.8133 -0.7501 -1.4184
 5102SOL     OW26524   6.067   9.313   4.905 -0.1942 -0.0299  0.1530
 5102SOL    HW126525   6.128   9.281   4.978 -0.1319 -1.4045 -0.4806
 5102SOL    HW226526   6.119   9.322   4.820 -0.3824  1.0556  0.1433
 5103SOL     OW26527   8.332   0.720   3.015 -0.2878 -0.0556 -0.8703
 5103SOL    HW126528   8.417   0.669   3.000 -0.5385 -0.3542 -1.2631
 5103SOL    HW226529   8.353   0.818   3.021  0.5823 -0.3839  2.7955
 5104SOL     OW26530   2.253   2.646   4.200 -0.8062  0.3512 -0.2184
 5104SOL    HW126531   2.285   2.693   4.283 -0.5055  1.1781 -0.7901
 5104SOL    HW226532   2.165   2.685   4.172 -0.9301  0.0397 -0.2567
 5105SOL     OW26533   3.976   9.422   5.294 -0.4936 -0.3618  0.0663
 5105SOL    HW126534   4.065   9.399   5.334 -0.3904 -0.2760 -0.1112
 5105SOL    HW226535   3.968   9.379   5.204  0.3658  1.5998 -0.9807
 5106SOL     OW26536   4.195   6.320   3.882 -0.6267 -0.1428 -0.0653
 5106SOL    HW126537   4.276   6.369   3.913 -1.0366  0.8374 -0.5152
 5106SOL    HW226538   4.219   6.262   3.804 -0.1184 -0.7613  0.5430
 5107SOL     OW26539   7.817   4.670   6.244  0.1353  0.0997  0.5615
 5107SOL    HW126540   7.772   4.742   6.193  0.8697  0.8152  0.9108
 5107SOL    HW226541   7.783   4.670   6.339  1.2483  0.9879  0.9676
 5108SOL     OW26542   5.033   1.032   5.161  0.1678  0.8129 -0.3317
 5108SOL    HW126543   5.071   0.949   5.120  2.2795  0.9024  1.3608
 5108SOL    HW226544   4.946   1.010   5.207  0.3199 -0.2809 -0.5607
 5109SOL     OW26545   9.749   8.611   3.615 -0.2882  0.5200 -0.0442
 5109SOL    HW126546   9.704   8.616   3.705  1.2724 -2.2276  0.9403
 5109SOL    HW226547   9.839   8.654   3.621 -0.4447  0.9211 -0.5105
 5110SOL     OW26548   0.753   9.429   6.253  0.5063 -0.2628 -0.3593
 5110SOL    HW126549   0.751   9.329   6.247 -1.5578 -0.4003  2.1488
 5110SOL    HW226550   0.846   9.459   6.272  0.4445 -1.9970  2.9119
 5111SOL     OW26551   7.639   5.299   1.085 -0.2166  0.1197 -0.3558
 5111SOL    HW126552   7.724   5.248   1.074 -0.0057  0.7559 -1.7056
 5111SOL    HW226553   7.629   5.326   1.181  2.1056  1.7867 -0.5528
 5112SOL     OW26554   8.644   9.526   4.178  0.1427  0.5283  0.2455
 5112SOL    HW126555   8.642   9.435   4.221 -2.8603 -0.2671 -1.4935
 5112SOL    HW226556   8.736   9.565   4.189  1.1685 -2.2100  2.0143
 5113SOL     OW26557   6.316   9.726   3.779 -0.4311  0.5284  0.4991
 5113SOL    HW126558   6.387   9.687   3.838 -0.6413 -0.0257  0.3865
 5113SOL    HW226559   6.314   9.826   3.791  0.8645  0.6256 -0.0411
 5114SOL     OW26560   4.876   0.718   3.390 -0.0541  0.0379  0.1650
 5114SOL    HW126561   4.811   0.712   3.315  1.7715 -1.4246 -1.3236
 5114SOL    HW226562   4.826   0.714   3.477 -2.0428  0.0562 -0.9473
 5115SOL     OW26563   9.232   4.621   4.837 -0.2438  0.0881  0.0718
 5115SOL    HW126564   9.259   4.551   4.772 -1.2196  0.0572 -0.3087
 5115SOL    HW226565   9.133   4.615   4.853 -0.5912  2.2781 -1.0616
 5116SOL     OW26566   8.987   5.974   5.811 -0.0745 -0.1866  0.6075
 5116SOL    HW126567   8.979   5.987   5.713  2.0555  1.6676  0.6215
 5116SOL    HW226568   9.062   6.032   5.846 -0.9865 -0.5850  3.3416
 5117SOL     OW26569   3.989   0.695   1.126  0.1208  0.1054  0.3602
 5117SOL    HW126570   3.937   0.642   1.059 -0.1000 -1.2421  1.5723
 5117SOL    HW226571   4.086   0.674   1.117  0.2287  0.9167 -0.4026
 5118SOL     OW26572   1.310   7.573   3.297  0.3965 -0.3133  0.0231
 5118SOL    HW126573   1.250   7.592   3.219  1.5042  3.1258 -0.0401
 5118SOL    HW226574   1.261   7.591   3.382  1.1445  2.1469 -0.0240
 5119SOL     OW26575   1.964   8.594   2.238  0.0252 -0.0532  0.3035
 5119SOL    HW126576   2.010   8.581   2.326 -0.1991  0.9952  0.5899
 5119SOL    HW226577   2.002   8.674   2.193 -0.4132 -0.1287 -0.1960
 5120SOL     OW26578   2.550   1.946   3.146  0.2555 -0.0803  0.1886
 5120SOL    HW126579   2.501   2.030   3.121  2.7803  1.4654  0.2401
 5120SOL    HW226580   2.561   1.888   3.065 -2.9739 -1.2148  0.4869
 5121SOL     OW26581   4.557   3.562   5.448 -0.2241 -0.0095  0.5218
 5121SOL    HW126582   4.610   3.478   5.434 -1.6395 -1.0698  1.3877
 5121SOL    HW226583   4.506   3.584   5.365 -0.5240 -0.5006  0.5721
 5122SOL     OW26584   9.209   0.847   2.041 -0.0824  0.1127 -0.2750
 5122SOL    HW126585   9.182   0.758   2.079 -0.8161  1.1097  1.6227
 5122SOL    HW226586   9.173   0.857   1.949 -2.0059 -0.5970  0.3823
 5123SOL     OW26587   1.717   0.027   0.027 -0.4098  0.2084  0.1803
 5123SOL    HW126588   1.783   0.011  -0.046  0.2247  1.1120  0.5366
 5123SOL    HW226589   1.733   0.118   0.067 -1.0213 -0.0985  1.1515
 5124SOL     OW26590   9.344   7.256   0.179  0.4633  0.1464 -0.6757
 5124SOL    HW126591   9.391   7.225   0.097 -1.6805 -0.0750 -1.8708
 5124SOL    HW226592   9.352   7.355   0.187  0.1337  0.2396 -1.5062
 5125SOL     OW26593   5.083   6.374   1.024 -0.1315  0.2586  0.5819
 5125SOL    HW126594   5.056   6.460   0.981 -0.2004  0.2569  0.6213
 5125SOL    HW226595   5.015   6.349   1.093 -0.3256 -0.0361  0.2862
 5126SOL     OW26596   6.934   1.134   4.604 -0.1367  0.0223  0.4801
 5126SOL    HW126597   6.874   1.154   4.526  0.1178  0.2345  0.3384
 5126SOL    HW226598   6.924   1.038   4.630  0.9377 -0.4515 -0.8162
 5127SOL     OW26599   7.161   9.077   5.321 -0.9013 -0.3084 -0.4997
 5127SOL    HW126600   7.082   9.136   5.304  1.9750  3.8307 -0.4675
 5127SOL    HW226601   7.203   9.051   5.234 -0.9718 -0.5401 -0.4636
 5128SOL     OW26602   5.059   0.004   5.285  0.2247  0.1707  0.2424
 5128SOL    HW126603   5.041  -0.066   5.354  0.3420  0.3219  0.4239
 5128SOL    HW226604   5.006   0.086   5.306  0.0871  0.1373  0.0297
 5129SOL     OW26605   5.996   2.074   4.323  0.2914  0.6175 -0.1059
 5129SOL    HW126606   6.039   2.162   4.341 -0.0631  0.7188  0.2745
 5129SOL    HW226607   6.033   2.006   4.386  2.9285 -0.2732 -2.5096
 5130SOL     OW26608   0.160   9.727   4.330  0.3326  0.2606  0.2470
 5130SOL    HW126609   0.069   9.701   4.298  0.7646  0.8379 -1.5033
 5130SOL    HW226610   0.218   9.646   4.336 -0.1104 -0.0215  0.7845
 5131SOL     OW26611   3.970   4.058   5.481  0.1761  0.6581 -0.1247
 5131SOL    HW126612   3.984   4.075   5.383  3.6420 -0.0929  0.1744
 5131SOL    HW226613   3.951   4.145   5.527  0.6633  1.3299 -1.1603
 5132SOL     OW26614   7.980   7.963   2.156  0.1728 -0.2282  0.3238
 5132SOL    HW126615   7.953   7.938   2.249 -1.6662 -3.3485 -0.9837
 5132SOL    HW226616   7.926   8.041   2.125  0.5429  0.6007  1.7079
 5133SOL     OW26617   7.106   3.297   3.821  0.2908 -0.0091 -0.0382
 5133SOL    HW126618   7.200   3.266   3.828 -1.0382 -4.4138 -0.0479
 5133SOL    HW226619   7.078   3.340   3.908  1.9201  0.2341  0.3755
 5134SOL     OW26620   4.118   3.649   1.775  0.1124  0.0182  0.2082
 5134SOL    HW126621   4.046   3.705   1.815  0.2356 -0.6933  1.4762
 5134SOL    HW226622   4.080   3.561   1.746 -0.2615  1.0412 -2.5903
 5135SOL     OW26623   0.700   7.628   5.597  0.1133  0.4011 -0.0038
 5135SOL    HW126624   0.752   7.562   5.651 -1.1815 -1.4837 -0.9997
 5135SOL    HW226625   0.705   7.604   5.500 -0.7509  1.5145 -0.3459
 5136SOL     OW26626   5.102   7.952   2.001 -0.4330 -0.1173 -0.0480
 5136SOL    HW126627   5.138   8.045   2.012 -0.1716 -0.1606 -0.5209
 5136SOL    HW226628   5.122   7.899   2.084  0.9513 -0.2521 -0.4601
 5137SOL     OW26629   1.611   7.025   6.277  0.1086  0.4467 -0.2519
 5137SOL    HW126630   1.571   7.112   6.307 -0.3393  0.1012  0.1617
 5137SOL    HW226631   1.598   7.015   6.178  0.1934  0.8668 -0.3040
 5138SOL     OW26632   8.207   4.489   1.901  0.3050  0.3968 -0.3461
 5138SOL    HW126633   8.183   4.529   1.812 -1.6974  0.0053 -0.0080
 5138SOL    HW226634   8.162   4.540   1.974  2.5148  1.1551  0.5264
 5139SOL     OW26635   2.927   5.091   5.646  0.4417  0.5078  0.5654
 5139SOL    HW126636   2.831   5.074   5.667 -0.2575  0.1058 -2.7551
 5139SOL    HW226637   2.936   5.173   5.591  1.9824  0.2873  0.4531
 5140SOL     OW26638   9.697   9.325   1.371 -0.1627 -0.1237  0.1805
 5140SOL    HW126639   9.704   9.240   1.423 -0.8001 -0.7346 -0.7177
 5140SOL    HW226640   9.601   9.349   1.357 -0.0510 -0.9663 -2.2980
 5141SOL     OW26641   8.435   9.260   3.236  0.3483  0.1734 -0.6757
 5141SOL    HW126642   8.452   9.162   3.225  0.3744  0.3038 -1.8184
 5141SOL    HW226643   8.522   9.309   3.240  0.3350  0.1532 -0.0900
 5142SOL     OW26644   1.273   1.982   4.541  0.0325  0.5100  0.1260
 5142SOL    HW126645   1.301   2.063   4.490  0.3007  0.2274 -0.1757
 5142SOL    HW226646   1.196   1.938   4.495 -1.2823  1.5836  1.2358
 5143SOL     OW26647   1.706   1.727   2.180 -0.3622 -0.1880  0.3431
 5143SOL    HW126648   1.738   1.633   2.196 -1.2519 -0.6616 -0.5914
 5143SOL    HW226649   1.721   1.751   2.084 -0.8735  0.3421  0.3965
 5144SOL     OW26650   0.022   4.206   4.792 -0.1538 -0.4622 -0.0005
 5144SOL    HW126651   0.039   4.257   4.708 -0.6250 -0.1878  0.0703
 5144SOL    HW226652   0.078   4.244   4.866 -0.5320 -0.0174  0.0613
 5145SOL     OW26653   4.867   0.345   4.178 -0.8652  0.2788  0.0487
 5145SOL    HW126654   4.771   0.319   4.170 -1.2971  2.1519 -1.1795
 5145SOL    HW226655   4.896   0.393   4.095  1.1201 -0.2126  0.4368
 5146SOL     OW26656   4.113   0.983   5.425 -0.0896 -0.1447 -0.4421
 5146SOL    HW126657   4.126   1.070   5.473 -0.1241  0.4259 -1.4444
 5146SOL    HW226658   4.132   0.908   5.487  1.0885  0.5952  0.1121
 5147SOL     OW26659   0.173   5.621   4.513 -0.1287  0.2054 -0.3882
 5147SOL    HW126660   0.181   5.606   4.414 -0.3092  1.2349 -0.5657
 5147SOL    HW226661   0.224   5.550   4.562 -1.3723 -1.2549 -1.1815
 5148SOL     OW26662   7.375   1.151   3.636  0.1861  0.0391 -0.7800
 5148SOL    HW126663   7.390   1.059   3.672 -0.7572 -0.3948 -1.4749
 5148SOL    HW226664   7.463   1.196   3.621  0.6176  0.3981  2.4837
 5149SOL     OW26665   8.943   7.837   4.192  0.1391  0.6808  0.0768
 5149SOL    HW126666   8.847   7.857   4.173  0.1770 -0.1258 -1.0522
 5149SOL    HW226667   8.948   7.758   4.253  0.0655  1.4399  1.0674
 5150SOL     OW26668   9.444   1.602   3.097  0.3972  0.2185 -0.6846
 5150SOL    HW126669   9.414   1.666   3.167  3.4492 -0.0216  0.9333
 5150SOL    HW226670   9.368   1.542   3.072 -0.9073  0.6003  2.1314
 5151SOL     OW26671   1.713   2.064   2.679 -0.5994  0.1516 -0.3872
 5151SOL    HW126672   1.708   2.100   2.772 -2.7960  0.8326 -0.7492
 5151SOL    HW226673   1.624   2.027   2.653  0.2008 -0.7105 -1.9679
 5152SOL     OW26674   5.416   5.485   1.144 -0.1572 -0.2461  0.1414
 5152SOL    HW126675   5.366   5.469   1.059 -1.0858 -1.0226  0.8237
 5152SOL    HW226676   5.376   5.562   1.193 -0.9158 -1.0761  0.8485
 5153SOL     OW26677   5.766   0.435   2.928  0.2202  0.4761  0.2271
 5153SOL    HW126678   5.690   0.487   2.889  0.0919  0.4888  0.4950
 5153SOL    HW226679   5.738   0.392   3.014  0.9518  1.7488  1.1409
 5154SOL     OW26680   1.969   3.871   4.959  0.8462 -0.3744 -0.5595
 5154SOL    HW126681   1.938   3.868   4.864 -0.1889 -0.0062 -0.2433
 5154SOL    HW226682   1.908   3.815   5.016  1.2232 -0.2729 -0.0504
 5155SOL     OW26683   9.188   7.393   0.500  0.2725 -0.0021 -0.1010
 5155SOL    HW126684   9.234   7.312   0.537 -0.9111 -0.4066  0.5144
 5155SOL    HW226685   9.131   7.366   0.422  0.5158  0.3716 -0.4045
 5156SOL     OW26686   5.176   2.558   2.989 -0.3006 -0.4299  0.2417
 5156SOL    HW126687   5.098   2.553   3.051  0.0948 -3.8419  0.5463
 5156SOL    HW226688   5.164   2.494   2.914  1.1490  0.7030 -1.0012
 5157SOL     OW26689   9.854   0.748   6.099  0.5090  0.7914 -0.2089
 5157SOL    HW126690   9.937   0.693   6.087  0.0216 -0.2158  0.9503
 5157SOL    HW226691   9.816   0.769   6.009  0.8768 -0.5354 -0.6926
 5158SOL     OW26692   4.405   9.533   5.129  0.0142 -0.1876 -0.2980
 5158SOL    HW126693   4.502   9.545   5.110 -0.2931  0.3347 -1.5815
 5158SOL    HW226694   4.393   9.460   5.197  1.2587 -0.7943 -0.7172
 5159SOL     OW26695   7.927   3.983   0.597 -0.5551  0.0251  0.5299
 5159SOL    HW126696   7.874   3.937   0.525 -1.2110  0.9255  0.4298
 5159SOL    HW226697   7.942   3.919   0.673 -0.5005 -0.6992 -0.0845
 5160SOL     OW26698   3.816   9.167   3.577  0.2521 -0.5128 -0.3595
 5160SOL    HW126699   3.854   9.079   3.604  0.0910 -1.1044 -1.9556
 5160SOL    HW226700   3.717   9.163   3.579  0.1945 -1.0623 -2.3885
 5161SOL     OW26701   3.476   9.394   0.408 -0.1160  0.3411 -0.0738
 5161SOL    HW126702   3.504   9.395   0.504  0.5644 -0.0589 -0.2622
 5161SOL    HW226703   3.481   9.487   0.371  0.7450  0.3114 -0.0359
 5162SOL     OW26704   9.936   1.052   3.597  0.0956 -0.7558  0.1607
 5162SOL    HW126705   9.864   1.091   3.539 -1.6558 -3.0683  0.7530
 5162SOL    HW226706   9.900   1.036   3.688  1.9837 -0.0319  1.0535
 5163SOL     OW26707   4.379   6.224   8.001 -0.1161  0.6189  0.4999
 5163SOL    HW126708   4.392   6.304   8.059  0.8475  2.2456 -1.9085
 5163SOL    HW226709   4.285   6.221   7.968 -0.2700  0.5191  0.9516
 5164SOL     OW26710   9.503   0.032   2.080 -0.1231  0.0158 -0.5437
 5164SOL    HW126711   9.558  -0.050   2.097  1.4826  1.2437  0.3441
 5164SOL    HW226712   9.555   0.096   2.023 -0.8057  1.0385 -0.0332
 5165SOL     OW26713   8.335   0.679   3.526  0.0367  0.5031  0.1912
 5165SOL    HW126714   8.307   0.770   3.496  3.3140  1.3437 -0.5395
 5165SOL    HW226715   8.373   0.628   3.449  3.1307  0.5128  1.6447
 5166SOL     OW26716   0.686   6.640   1.836  0.0515 -0.0756 -0.5828
 5166SOL    HW126717   0.778   6.679   1.836  0.8202 -1.7987  1.2159
 5166SOL    HW226718   0.638   6.666   1.752  1.5125  2.3664 -0.6913
 5167SOL     OW26719   1.912   2.233   0.069  0.3218 -0.0713 -0.1918
 5167SOL    HW126720   1.814   2.225   0.050  0.2633  0.3746 -0.0727
 5167SOL    HW226721   1.926   2.286   0.152  0.5620 -2.4010  1.2857
 5168SOL     OW26722   1.675   1.258   1.155 -0.0409  0.1904 -0.2300
 5168SOL    HW126723   1.676   1.159   1.136 -0.8598  0.1918 -0.2802
 5168SOL    HW226724   1.769   1.289   1.171 -0.0570 -1.2423  3.0911
 5169SOL     OW26725   8.156   5.056   3.017 -0.1096  0.1372  0.1457
 5169SOL    HW126726   8.125   4.982   3.076  1.6759  0.1056  1.0864
 5169SOL    HW226727   8.087   5.130   3.016 -0.6396 -0.3373  1.3834
 5170SOL     OW26728   9.489   7.256   3.261  0.1976  0.2541  0.3954
 5170SOL    HW126729   9.416   7.285   3.200  0.2293  0.2492  0.3544
 5170SOL    HW226730   9.466   7.280   3.355 -0.7576 -1.4906  0.6315
 5171SOL     OW26731   8.399   3.435   0.532 -0.3196 -0.1943 -0.9133
 5171SOL    HW126732   8.339   3.432   0.612 -0.3256 -0.4389 -0.9263
 5171SOL    HW226733   8.456   3.517   0.536  1.1341 -1.2438  0.3904
 5172SOL     OW26734   4.564   8.838   2.728  0.1899 -0.3516  0.1184
 5172SOL    HW126735   4.564   8.738   2.728 -1.0981 -0.3654  2.2451
 5172SOL    HW226736   4.626   8.872   2.798  1.7040  0.3892 -1.5298
 5173SOL     OW26737   2.538   9.265   4.617  0.3549 -0.2553  0.5487
 5173SOL    HW126738   2.594   9.271   4.534  1.1556 -1.5419  1.0005
 5173SOL    HW226739   2.584   9.209   4.685 -1.6691 -1.6880  0.7684
 5174SOL     OW26740   1.906   7.359   4.701 -0.3463  0.1055  0.2575
 5174SOL    HW126741   1.813   7.326   4.712 -0.5750  0.6933  0.1049
 5174SOL    HW226742   1.928   7.365   4.603 -1.2100  2.8753  0.1959
 5175SOL     OW26743   0.196   3.378   2.747 -0.0108 -0.5478  0.0920
 5175SOL    HW126744   0.163   3.472   2.740  0.5934 -0.2980  0.5094
 5175SOL    HW226745   0.287   3.372   2.706  0.3812 -0.7203  0.9622
 5176SOL     OW26746   8.517   0.655   5.621  0.4896  0.0460 -0.3021
 5176SOL    HW126747   8.532   0.613   5.531  1.3113  0.8261 -0.5316
 5176SOL    HW226748   8.558   0.746   5.623 -0.3247  0.4036  0.5648
 5177SOL     OW26749   7.780   1.380   2.149 -0.0909  0.0274 -0.2240
 5177SOL    HW126750   7.698   1.346   2.196  0.5267  0.6274  1.3306
 5177SOL    HW226751   7.796   1.475   2.175  0.7850  0.0883 -0.9621
 5178SOL     OW26752   4.115   8.899   6.490 -0.0990  0.5682 -0.3883
 5178SOL    HW126753   4.074   8.886   6.400 -0.7665  0.4548 -0.0745
 5178SOL    HW226754   4.213   8.883   6.485 -0.1439  0.5079 -1.0831
 5179SOL     OW26755   2.852   7.394   0.603 -0.2081 -0.0050  0.2813
 5179SOL    HW126756   2.788   7.323   0.633 -0.2668 -0.4924 -0.9843
 5179SOL    HW226757   2.840   7.410   0.505  1.7699 -0.2470 -0.0185
 5180SOL     OW26758   5.525   0.874   3.092  0.0626 -0.4535  0.8194
 5180SOL    HW126759   5.453   0.846   3.155 -0.5119  0.1667  0.4408
 5180SOL    HW226760   5.515   0.825   3.006 -0.4970  0.3659  0.4187
 5181SOL     OW26761   9.013   6.487   4.045  0.2566 -0.4853 -0.2831
 5181SOL    HW126762   9.002   6.571   4.099  2.7118  0.1940 -0.7838
 5181SOL    HW226763   8.979   6.409   4.098  1.6326  0.3050  1.8401
 5182SOL     OW26764   0.286   6.679   5.211 -0.3441  0.0494 -0.2118
 5182SOL    HW126765   0.300   6.593   5.160 -1.1041 -0.2269  0.0476
 5182SOL    HW226766   0.333   6.753   5.163  1.8218 -0.8073  0.4915
 5183SOL     OW26767   3.479   6.872   3.328 -0.0324  0.1692  0.2769
 5183SOL    HW126768   3.472   6.772   3.335 -1.1556  0.2785  0.7902
 5183SOL    HW226769   3.509   6.910   3.416 -0.8011  0.3763  0.4597
 5184SOL     OW26770   6.216   0.807   3.015  0.0335 -0.7863  0.2583
 5184SOL    HW126771   6.259   0.718   3.004  1.6588  0.0474 -0.3543
 5184SOL    HW226772   6.284   0.874   3.045 -1.2050  0.2023  0.9152
 5185SOL     OW26773   5.252   4.086   7.531 -0.0210 -0.7459 -0.1848
 5185SOL    HW126774   5.335   4.140   7.527 -0.3404 -0.3256 -1.1640
 5185SOL    HW226775   5.177   4.135   7.487 -0.4740 -1.6915 -0.4851
 5186SOL     OW26776   0.801   6.303   3.471 -0.1872 -0.2902  0.3151
 5186SOL    HW126777   0.791   6.392   3.428 -0.0329 -0.2963  0.2649
 5186SOL    HW226778   0.890   6.264   3.447 -0.5719 -0.7978 -0.2890
 5187SOL     OW26779   1.529   9.538   3.779 -0.7792  0.2140  0.3598
 5187SOL    HW126780   1.535   9.637   3.775 -0.6644  0.1703 -0.6998
 5187SOL    HW226781   1.519   9.509   3.874 -2.4053  1.3098  0.5446
 5188SOL     OW26782   4.256   5.045   1.516 -0.2892  0.4507 -0.4207
 5188SOL    HW126783   4.206   5.118   1.562  0.6030  1.9653 -1.8012
 5188SOL    HW226784   4.341   5.082   1.478 -0.0212 -1.2163 -1.4958
 5189SOL     OW26785   9.093   0.701   3.060 -0.1473  0.4250 -0.2255
 5189SOL    HW126786   9.128   0.780   3.111 -1.8895  0.3987  1.0259
 5189SOL    HW226787   9.076   0.727   2.965 -0.2587  1.4158  0.0674
 5190SOL     OW26788   2.881   8.717   0.563 -0.0514  0.2346 -0.0345
 5190SOL    HW126789   2.948   8.754   0.627  0.0751  0.5223 -0.3280
 5190SOL    HW226790   2.908   8.625   0.536 -0.2842 -0.0151  0.5839
 5191SOL     OW26791   0.162   9.128   0.443  0.4017  0.0574 -0.3393
 5191SOL    HW126792   0.229   9.200   0.423 -0.8152  0.5531 -2.8532
 5191SOL    HW226793   0.095   9.162   0.508  0.7321  0.6654 -0.3100
 5192SOL     OW26794   8.641   8.523   4.704 -0.5742  0.1075 -0.2510
 5192SOL    HW126795   8.651   8.499   4.608 -0.1508  0.4140 -0.2869
 5192SOL    HW226796   8.608   8.617   4.712 -0.6658  0.0628 -0.0974
 5193SOL     OW26797   2.579   4.010   4.559  0.5610 -0.1188 -0.0493
 5193SOL    HW126798   2.541   4.074   4.493  2.0457  0.7601 -0.0678
 5193SOL    HW226799   2.507   3.980   4.622 -0.8354 -0.9054 -1.9922
 5194SOL     OW26800   7.838   3.520   0.512  0.1645 -0.3558  0.5822
 5194SOL    HW126801   7.825   3.449   0.581 -1.8337 -0.7785 -0.1943
 5194SOL    HW226802   7.756   3.577   0.506  1.1320  1.0197  0.0593
 5195SOL     OW26803   0.098   7.442   4.757  0.8134 -0.1225 -0.0151
 5195SOL    HW126804   0.099   7.497   4.673 -1.5976 -0.0037  0.0233
 5195SOL    HW226805   0.094   7.345   4.734 -1.9867 -0.0225 -0.0518
 5196SOL     OW26806   2.536   7.144   1.795  0.1919  0.3875 -0.2398
 5196SOL    HW126807   2.517   7.242   1.788  0.0496  0.4651  1.0657
 5196SOL    HW226808   2.456   7.097   1.832  0.9087  0.0609  0.9358
 5197SOL     OW26809   3.334   8.039   5.346  0.3049  0.1560  0.9082
 5197SOL    HW126810   3.352   8.008   5.252 -2.3045  0.9608  0.1179
 5197SOL    HW226811   3.278   7.971   5.393  1.9431 -0.4399  2.0635
 5198SOL     OW26812   1.336   9.977   5.430  0.3490 -0.4746 -0.4727
 5198SOL    HW126813   1.332   9.892   5.378 -0.4468 -0.1210 -0.9893
 5198SOL    HW226814   1.429   9.991   5.464  0.3588 -1.8336  0.0861
 5199SOL     OW26815   9.691   3.759   8.184 -0.1112 -0.0177 -0.0562
 5199SOL    HW126816   9.654   3.739   8.275 -1.5126 -0.9085 -0.8106
 5199SOL    HW226817   9.618   3.791   8.124  1.2047  2.7247 -0.2824
 5200SOL     OW26818   4.643   0.230   3.793  0.2054 -0.0856  0.2005
 5200SOL    HW126819   4.606   0.300   3.855  1.5451  0.9988 -0.1990
 5200SOL    HW226820   4.703   0.168   3.845  0.4658  0.1715  0.2110
 5201SOL     OW26821   0.427   8.536   5.342 -0.4047 -0.2520  0.6088
 5201SOL    HW126822   0.514   8.499   5.374  0.6946  1.1827 -0.7151
 5201SOL    HW226823   0.356   8.466   5.353  1.5474 -2.6611 -1.4457
 5202SOL     OW26824   5.851   0.076   5.473  0.0963 -0.4486  0.4135
 5202SOL    HW126825   5.768   0.128   5.492  0.4488 -0.1591  1.1509
 5202SOL    HW226826   5.850  -0.009   5.526 -0.0161 -0.7378 -0.0463
 5203SOL     OW26827   1.666   0.741   4.635  0.3619 -0.7590 -0.1062
 5203SOL    HW126828   1.731   0.814   4.613 -0.5204  0.2268  0.4722
 5203SOL    HW226829   1.707   0.652   4.616  1.9910 -0.1666  0.5681
 5204SOL     OW26830   4.426   4.828   0.220  0.4136  0.0732 -0.0820
 5204SOL    HW126831   4.433   4.882   0.136  0.7399 -0.5126 -0.4386
 5204SOL    HW226832   4.516   4.821   0.263 -0.1585  2.3297  1.5750
 5205SOL     OW26833   4.190   6.914   1.514 -0.0504 -0.5401  0.0040
 5205SOL    HW126834   4.135   6.991   1.483 -0.8668 -0.2466  2.1198
 5205SOL    HW226835   4.153   6.829   1.477 -1.2816 -0.2382  0.5048
 5206SOL     OW26836   8.943   3.610   0.611  0.1675 -0.2783  0.0119
 5206SOL    HW126837   8.895   3.683   0.563 -0.8965 -0.3006  1.0168
 5206SOL    HW226838   9.014   3.650   0.669  0.7704 -0.1772 -0.7981
 5207SOL     OW26839   7.513   3.218   2.328  0.0394  0.4091  0.3586
 5207SOL    HW126840   7.440   3.151   2.341 -0.8054  0.8827 -1.7099
 5207SOL    HW226841   7.491   3.302   2.378 -0.7878  0.4997 -0.1467
 5208SOL     OW26842   3.089   0.560   2.049 -0.0725  0.8727 -0.3413
 5208SOL    HW126843   3.151   0.635   2.072  1.2608 -0.3625  0.0878
 5208SOL    HW226844   3.123   0.511   1.969 -1.0948  0.8884 -0.7959
 5209SOL     OW26845   7.593   0.507   2.349 -0.8714  0.1262 -0.0694
 5209SOL    HW126846   7.583   0.555   2.437 -1.0429 -0.2328  0.1116
 5209SOL    HW226847   7.639   0.420   2.364 -1.0789 -0.0267 -0.3046
 5210SOL     OW26848   7.636   6.095   5.671  0.2673 -0.5373 -0.2156
 5210SOL    HW126849   7.569   6.125   5.604  0.8525  0.5791 -0.3207
 5210SOL    HW226850   7.689   6.018   5.634  0.3245 -0.1829 -0.8739
 5211SOL     OW26851   2.318   7.039   8.059  0.1626  0.1462  0.1449
 5211SOL    HW126852   2.358   7.125   8.029 -0.4574  0.0134 -1.0621
 5211SOL    HW226853   2.229   7.025   8.016 -0.9325  0.1261  2.3333
 5212SOL     OW26854   8.666   3.494   0.795  0.2898  0.0713  0.2641
 5212SOL    HW126855   8.760   3.496   0.832 -0.4626  0.0086  2.2690
 5212SOL    HW226856   8.639   3.587   0.771  0.5719  0.2072  0.4610
 5213SOL     OW26857   0.429   1.331   1.878 -0.3685 -0.1517 -0.4609
 5213SOL    HW126858   0.421   1.318   1.779  0.9278 -3.6649 -0.1857
 5213SOL    HW226859   0.439   1.242   1.923 -0.9952  1.3675  2.8632
 5214SOL     OW26860   1.826   9.637   3.598  0.3139  0.7112 -0.6901
 5214SOL    HW126861   1.847   9.549   3.641 -0.0737  1.6754  1.5688
 5214SOL    HW226862   1.825   9.627   3.499  1.8039 -1.4820 -0.5061
 5215SOL     OW26863   8.486   9.940   3.292  0.4471 -0.1749 -0.0110
 5215SOL    HW126864   8.462  10.035   3.309  0.1664 -0.1697 -0.4294
 5215SOL    HW226865   8.554   9.910   3.359 -1.1540 -0.3872  1.5452
 5216SOL     OW26866   7.999   4.165   0.107  0.4371  0.1070  0.2334
 5216SOL    HW126867   8.018   4.247   0.052  2.0680 -0.8199 -0.6262
 5216SOL    HW226868   8.048   4.171   0.194  1.5787 -0.5278 -0.3629
 5217SOL     OW26869   9.165   2.190   0.501 -0.1833  0.2694 -0.0779
 5217SOL    HW126870   9.132   2.113   0.446 -0.4551  0.7912 -0.6546
 5217SOL    HW226871   9.110   2.271   0.481  0.5960  0.8128 -0.0549
 5218SOL     OW26872   8.601   7.464   5.625  0.1548 -0.3776 -0.2717
 5218SOL    HW126873   8.534   7.521   5.672  1.2514  0.3571  0.4166
 5218SOL    HW226874   8.591   7.477   5.526 -1.1018 -0.7303 -0.2086
 5219SOL     OW26875   6.498   9.353   3.696  0.0197  0.0525  0.0265
 5219SOL    HW126876   6.551   9.437   3.686  1.5068 -1.0150 -1.2020
 5219SOL    HW226877   6.528   9.304   3.778  0.0184  0.1014  0.0552
 5220SOL     OW26878   0.384   4.715   0.183 -0.0506  0.1855 -0.1920
 5220SOL    HW126879   0.410   4.811   0.168 -0.2615  0.1657 -0.7183
 5220SOL    HW226880   0.284   4.709   0.185 -0.0260  0.0956  0.6527
 5221SOL     OW26881   4.288   4.503   0.589  0.3691 -0.0652 -0.0136
 5221SOL    HW126882   4.325   4.548   0.670 -1.0940  0.0627  0.5823
 5221SOL    HW226883   4.331   4.542   0.507  1.3622  0.2571  0.6496
 5222SOL     OW26884   9.832   3.236   4.502 -0.2507 -0.0654 -0.4843
 5222SOL    HW126885   9.840   3.325   4.546 -0.1882 -0.1077 -0.4098
 5222SOL    HW226886   9.869   3.165   4.562  1.0491  0.0385 -1.1501
 5223SOL     OW26887   8.880   5.215   5.683  0.6007 -0.1061  0.2720
 5223SOL    HW126888   8.880   5.148   5.609  0.0436  0.4031 -0.1971
 5223SOL    HW226889   8.787   5.245   5.701  0.7066 -0.4244  1.3747
 5224SOL     OW26890   8.878   9.930   3.705  0.0199  0.8097  0.3053
 5224SOL    HW126891   8.837   9.977   3.783  0.7466  3.8768 -1.0935
 5224SOL    HW226892   8.950   9.869   3.738 -0.6658  0.9495  2.1511
 5225SOL     OW26893   3.903   4.996   4.525 -0.3721 -0.1396  0.1672
 5225SOL    HW126894   3.919   5.091   4.552  0.0618 -0.0636 -0.3549
 5225SOL    HW226895   3.810   4.970   4.551  0.5662 -0.6135  3.3057
 5226SOL     OW26896   4.505   9.660   6.303 -0.4205  0.0340  0.3479
 5226SOL    HW126897   4.539   9.568   6.281 -1.5544 -0.9061  2.4293
 5226SOL    HW226898   4.524   9.721   6.226  0.8923 -1.7886 -0.8262
 5227SOL     OW26899   4.877   4.926   0.901  0.0024 -0.2568  0.1221
 5227SOL    HW126900   4.932   4.921   0.985 -0.7423 -3.1625  0.4861
 5227SOL    HW226901   4.938   4.942   0.823  0.9101  0.5313  0.9642
 5228SOL     OW26902   8.610   0.441   6.278 -0.1231  0.7458  0.4012
 5228SOL    HW126903   8.550   0.498   6.335  0.7168  0.1296  1.9410
 5228SOL    HW226904   8.705   0.454   6.306  0.3870  1.0231 -1.4191
 5229SOL     OW26905   0.187   7.944   2.636 -0.2670  0.3297 -0.5699
 5229SOL    HW126906   0.215   7.975   2.545 -0.5733 -0.0081 -0.7826
 5229SOL    HW226907   0.157   7.849   2.631 -0.8215  0.4826 -0.2243
 5230SOL     OW26908   7.536   2.867   2.976 -0.1735 -0.7756 -0.2248
 5230SOL    HW126909   7.574   2.956   2.951 -0.3760 -0.1633  1.5219
 5230SOL    HW226910   7.516   2.814   2.894  1.1756  0.2786 -1.2451
 5231SOL     OW26911   9.993   3.703   0.793 -0.2288  0.1887 -0.3097
 5231SOL    HW126912   9.936   3.690   0.875  2.1736  0.0614  1.4178
 5231SOL    HW226913  10.013   3.613   0.753  0.0615  0.0969  0.0320
 5232SOL     OW26914   2.251   6.247   1.745  0.0777 -0.0845 -0.3372
 5232SOL    HW126915   2.307   6.328   1.763  1.2345 -0.6492 -1.3085
 5232SOL    HW226916   2.164   6.255   1.793  1.2128  0.5735  1.6734
 5233SOL     OW26917   7.629   1.174   5.394 -0.0855  0.3985  0.3260
 5233SOL    HW126918   7.615   1.268   5.425 -0.1012  0.4456  0.1786
 5233SOL    HW226919   7.581   1.160   5.307  0.1634  0.3416  0.1976
 5234SOL     OW26920   5.487   0.059   3.296  0.1139  0.2911  0.4299
 5234SOL    HW126921   5.414   0.127   3.290  0.5690  0.7964  0.6423
 5234SOL    HW226922   5.451  -0.031   3.269 -0.3706  0.6900 -0.2643
 5235SOL     OW26923   3.509   7.936   2.712 -0.0234  0.3339 -0.0810
 5235SOL    HW126924   3.550   7.887   2.789  1.4920  2.2104  0.3423
 5235SOL    HW226925   3.568   7.927   2.632 -0.3558  0.4494 -0.3413
 5236SOL     OW26926   0.344   7.742   1.290  0.3992 -0.3606 -0.4731
 5236SOL    HW126927   0.410   7.729   1.216  0.8291  1.0540 -0.3654
 5236SOL    HW226928   0.267   7.796   1.256  1.3171  1.5979  0.4673
 5237SOL     OW26929   8.659   0.359   6.660  0.1439  0.2689 -0.0147
 5237SOL    HW126930   8.656   0.265   6.627 -0.4836  0.3586 -0.2095
 5237SOL    HW226931   8.672   0.422   6.583 -0.5068  0.4182 -0.0058
 5238SOL     OW26932   0.807   6.544   2.779  0.1192  0.2489  0.4439
 5238SOL    HW126933   0.740   6.526   2.707 -0.2074  2.3160  0.1915
 5238SOL    HW226934   0.759   6.571   2.863  0.5740  0.3465  0.6737
 5239SOL     OW26935   3.696   3.519   1.225 -0.1412  0.0058 -0.5455
 5239SOL    HW126936   3.645   3.441   1.190  0.3101 -1.5079  2.0678
 5239SOL    HW226937   3.640   3.572   1.289  0.4939  0.1745 -0.1130
 5240SOL     OW26938   2.120   2.874   2.708 -0.1304 -0.1305 -0.8520
 5240SOL    HW126939   2.028   2.879   2.670 -0.0069  1.0975 -1.0069
 5240SOL    HW226940   2.169   2.959   2.689  0.1080  0.3148  1.6026
 5241SOL     OW26941   9.789   0.924   3.246 -0.0772  0.0969  0.3653
 5241SOL    HW126942   9.885   0.940   3.225 -0.3616  0.6889 -0.5059
 5241SOL    HW226943   9.744   1.011   3.264 -0.5484 -0.1417  0.3439
 5242SOL     OW26944   4.650   3.194   7.801 -0.0046  0.0794 -0.5989
 5242SOL    HW126945   4.732   3.237   7.837 -1.6172  3.4040 -0.6787
 5242SOL    HW226946   4.675   3.120   7.739  2.9728  2.2784 -2.1385
 5243SOL     OW26947   4.050   8.728   5.157 -0.3415  0.2228 -0.0791
 5243SOL    HW126948   4.035   8.632   5.133 -0.8227  0.5633 -1.1604
 5243SOL    HW226949   4.091   8.775   5.080  1.6974  0.4609  1.1122
 5244SOL     OW26950   8.754   7.546   4.031  0.4762  0.6994 -0.5672
 5244SOL    HW126951   8.835   7.572   3.980 -0.6178  2.6015 -1.4001
 5244SOL    HW226952   8.734   7.615   4.100 -0.2605  0.0831 -0.1452
 5245SOL     OW26953   4.305   4.046   1.735 -0.7360 -0.5952 -0.3216
 5245SOL    HW126954   4.221   4.040   1.681 -0.5088  0.2366 -0.7786
 5245SOL    HW226955   4.371   3.980   1.702 -0.5677 -0.0296 -1.1283
 5246SOL     OW26956   2.825   0.324   2.061 -0.5375  0.2261  0.0945
 5246SOL    HW126957   2.785   0.393   2.001 -2.3808 -0.2719  0.7198
 5246SOL    HW226958   2.804   0.346   2.156 -0.8962 -1.0302  0.3135
 5247SOL     OW26959   0.737   8.369   5.931 -0.1252  0.2762 -0.2017
 5247SOL    HW126960   0.678   8.395   5.855  1.3285  0.4794 -1.2826
 5247SOL    HW226961   0.824   8.335   5.896  1.2180  1.9408  1.3976
 5248SOL     OW26962   8.299   9.447   4.592 -0.1538 -0.5435 -0.5944
 5248SOL    HW126963   8.256   9.536   4.610 -0.2574 -0.6733 -0.1823
 5248SOL    HW226964   8.245   9.375   4.634 -0.8525 -0.9508 -2.1674
 5249SOL     OW26965   9.809   3.257   6.374  0.4887  0.2476 -0.5847
 5249SOL    HW126966   9.901   3.219   6.366  1.1105  1.8489 -1.2247
 5249SOL    HW226967   9.804   3.344   6.325 -1.5000 -0.0376 -0.9436
 5250SOL     OW26968   4.392   9.616   0.982  0.6667 -0.2721  0.4617
 5250SOL    HW126969   4.303   9.660   0.993  0.7898 -0.4302  2.2276
 5250SOL    HW226970   4.396   9.571   0.893 -0.5679  0.7453 -0.1263
 5251SOL     OW26971   4.144   4.183   3.085  0.0230  0.9858  0.1612
 5251SOL    HW126972   4.124   4.244   3.008  0.2326  0.5592 -0.2404
 5251SOL    HW226973   4.241   4.191   3.109  0.1128  0.6162 -0.0699
 5252SOL     OW26974   9.153   5.670   5.191 -0.1254  0.1560 -0.3324
 5252SOL    HW126975   9.251   5.654   5.198  0.0045  1.6659  2.4484
 5252SOL    HW226976   9.127   5.742   5.256 -3.6266 -2.6758  1.6143
 5253SOL     OW26977   7.791   9.544   5.642  0.2475  0.3956 -0.1289
 5253SOL    HW126978   7.782   9.444   5.645  0.3935  0.3742 -0.4421
 5253SOL    HW226979   7.843   9.575   5.722 -0.7596  0.3271  0.5648
 5254SOL     OW26980   0.695   2.294   1.388 -0.9414 -0.4634 -0.1815
 5254SOL    HW126981   0.784   2.273   1.427 -0.8206 -0.3655 -0.4052
 5254SOL    HW226982   0.707   2.344   1.302 -1.1885 -1.2077 -0.6590
 5255SOL     OW26983   2.734   6.224   3.092 -0.1573 -0.5982 -0.0616
 5255SOL    HW126984   2.713   6.140   3.141 -2.2039 -0.3215 -0.4245
 5255SOL    HW226985   2.691   6.302   3.138 -0.5334 -0.0974 -1.2195
 5256SOL     OW26986   7.023   7.501   3.932 -0.2548  0.1077  0.0654
 5256SOL    HW126987   7.116   7.525   3.908 -0.4604  0.5345 -0.3131
 5256SOL    HW226988   6.978   7.457   3.854 -0.7220  0.9145 -0.1265
 5257SOL     OW26989   5.814   9.343   5.120 -0.4631  0.9093 -0.2323
 5257SOL    HW126990   5.905   9.375   5.145 -0.5036  0.3808  0.5974
 5257SOL    HW226991   5.815   9.311   5.025  0.0936  1.3495 -0.3795
 5258SOL     OW26992   5.356   0.075   6.287 -0.3278  0.5850  0.1265
 5258SOL    HW126993   5.318   0.147   6.345  0.7757  1.2891 -0.0041
 5258SOL    HW226994   5.455   0.088   6.278 -0.2100 -0.5818 -0.4218
 5259SOL     OW26995   0.350   2.872   5.541  0.0283 -0.0584  0.3050
 5259SOL    HW126996   0.278   2.823   5.589  0.9324 -0.7144  1.0051
 5259SOL    HW226997   0.382   2.948   5.598  1.5639 -1.2402  1.0603
 5260SOL     OW26998   5.797   9.052   4.004 -0.0145  0.8066 -0.2588
 5260SOL    HW126999   5.723   8.986   4.016 -0.2651  1.2577  0.7028
 5260SOL    HW227000   5.858   9.048   4.083  0.5131  1.0388 -0.6554
 5261SOL     OW27001   6.700   9.681   1.950  0.3151 -0.0560 -0.0072
 5261SOL    HW127002   6.604   9.652   1.957 -0.0162  0.8811 -0.5607
 5261SOL    HW227003   6.746   9.665   2.037 -0.4389 -0.1782  0.3752
 5262SOL     OW27004   3.299   1.452   3.687  0.5348 -0.8011 -0.1049
 5262SOL    HW127005   3.350   1.538   3.694  1.4509 -1.3239 -0.2770
 5262SOL    HW227006   3.210   1.462   3.732 -0.6565  1.2244 -2.7967
 5263SOL     OW27007   4.414   7.559   2.722 -0.5037 -0.5076  0.2709
 5263SOL    HW127008   4.345   7.622   2.756 -1.4113 -0.5191 -1.5017
 5263SOL    HW227009   4.384   7.465   2.737 -1.4178 -0.5213 -1.4990
 5264SOL     OW27010   5.099   0.248   2.842  0.1170 -0.1612 -0.4212
 5264SOL    HW127011   5.178   0.198   2.877 -0.8583 -0.4275  1.4463
 5264SOL    HW227012   5.053   0.295   2.917 -1.8368 -0.4509 -1.4036
 5265SOL     OW27013   2.001   8.579   5.187  0.6512 -0.0677 -0.3151
 5265SOL    HW127014   1.921   8.536   5.145  2.4982 -2.7769 -1.2362
 5265SOL    HW227015   2.020   8.535   5.275 -0.3444  2.3117  1.1327
 5266SOL     OW27016   8.472   4.888   4.099 -0.1128 -0.4285 -0.0860
 5266SOL    HW127017   8.401   4.879   4.169 -0.4265  1.2461 -0.1621
 5266SOL    HW227018   8.472   4.981   4.064  2.7697 -0.1445  0.5634
 5267SOL     OW27019   4.677   0.344   6.472 -0.1058 -0.5393 -0.3253
 5267SOL    HW127020   4.682   0.249   6.502  0.5808 -0.1396  0.8763
 5267SOL    HW227021   4.765   0.389   6.488 -0.3308  0.2196 -1.1710
 5268SOL     OW27022   3.872   4.139   1.964 -0.5629 -0.0557 -0.0184
 5268SOL    HW127023   3.821   4.110   1.883  0.8684  0.1819 -1.0276
 5268SOL    HW227024   3.936   4.067   1.990  1.2753  1.1703 -1.0608
 5269SOL     OW27025   5.317   1.279   1.745  0.0588  0.3191 -0.1806
 5269SOL    HW127026   5.376   1.355   1.773  0.8777  0.5181 -2.3523
 5269SOL    HW227027   5.225   1.295   1.778 -0.0487  2.8874 -1.5801
 5270SOL     OW27028   1.445   3.037   3.585 -0.2998 -0.3398 -0.2682
 5270SOL    HW127029   1.456   3.132   3.612 -1.0563 -0.4726  0.5068
 5270SOL    HW227030   1.535   2.995   3.572  0.0501 -0.0885  1.3467
 5271SOL     OW27031   0.892   9.520   1.917 -0.7378  0.4932 -0.0464
 5271SOL    HW127032   0.803   9.506   1.873 -0.3604  0.7521 -0.9091
 5271SOL    HW227033   0.964   9.478   1.861 -0.3503 -0.0327  0.8284
 5272SOL     OW27034   2.204   5.908   2.131 -0.2960 -0.2115 -0.0532
 5272SOL    HW127035   2.254   5.920   2.045  4.0967 -1.1258  2.2512
 5272SOL    HW227036   2.180   5.811   2.142  1.4263 -0.5626  0.8667
 5273SOL     OW27037   0.037   3.874   2.496 -0.1345  0.0244 -0.3626
 5273SOL    HW127038   0.023   3.941   2.570  0.4371 -2.5932  2.2106
 5273SOL    HW227039  -0.027   3.798   2.508 -0.4571 -0.1550 -2.9770
 5274SOL     OW27040   3.628   9.680   3.934  0.4872  0.4103 -0.5125
 5274SOL    HW127041   3.554   9.673   4.002 -0.5162 -0.6562 -1.6837
 5274SOL    HW227042   3.613   9.761   3.877  1.2711  1.2469  0.4463
 5275SOL     OW27043   9.540   2.371   3.777 -0.2408  0.1684  0.3850
 5275SOL    HW127044   9.504   2.454   3.736  1.3127  1.0130  0.7135
 5275SOL    HW227045   9.482   2.343   3.853  0.3629  2.0686  1.5441
 5276SOL     OW27046   5.495   0.670   2.461 -0.1010 -0.0340  0.1428
 5276SOL    HW127047   5.584   0.680   2.505  0.2371 -0.0899 -0.5184
 5276SOL    HW227048   5.495   0.719   2.374 -0.4231 -0.7545 -0.2723
 5277SOL     OW27049   2.130   6.667   5.617 -0.3424  0.0173  0.0159
 5277SOL    HW127050   2.200   6.687   5.550 -0.9305 -1.4397 -1.0601
 5277SOL    HW227051   2.145   6.723   5.699  1.1084  0.8820 -0.8213
 5278SOL     OW27052   3.487   7.503   3.852  0.2646 -0.6563  0.3668
 5278SOL    HW127053   3.498   7.533   3.946  1.1948  1.9519 -0.5252
 5278SOL    HW227054   3.530   7.413   3.840  2.2034  0.0291  1.8989
 5279SOL     OW27055   4.131   2.100   1.904 -0.4893 -0.3140 -0.9210
 5279SOL    HW127056   4.222   2.134   1.881 -0.5412  0.3311 -0.1698
 5279SOL    HW227057   4.065   2.134   1.837 -0.2110 -0.6548 -1.3746
 5280SOL     OW27058   9.408   8.643   2.523  0.3638 -0.6380 -0.2210
 5280SOL    HW127059   9.312   8.631   2.549  0.0172  2.9598  0.4200
 5280SOL    HW227060   9.413   8.663   2.425  0.6108 -2.2917 -0.5551
 5281SOL     OW27061   4.249   9.861   2.262 -0.6405  0.0184  0.2759
 5281SOL    HW127062   4.190   9.941   2.251  0.1473  0.5865  0.1367
 5281SOL    HW227063   4.314   9.857   2.186  0.4805  0.2379  1.2084
 5282SOL     OW27064   1.798   9.268   5.793  0.1094 -0.5581 -0.0616
 5282SOL    HW127065   1.853   9.236   5.716  1.9341 -1.7003  1.6708
 5282SOL    HW227066   1.743   9.192   5.828  0.6439 -0.5242  0.8763
 5283SOL     OW27067   1.726   5.909   2.546  0.0812 -0.1046 -0.2354
 5283SOL    HW127068   1.747   5.977   2.476 -0.3975  1.5434  1.2060
 5283SOL    HW227069   1.654   5.848   2.512  0.8743 -0.2357 -1.7326
 5284SOL     OW27070   3.757   1.016   3.343 -0.1967 -0.0258  0.6199
 5284SOL    HW127071   3.745   1.103   3.295  0.4137 -0.5639 -0.5127
 5284SOL    HW227072   3.672   0.993   3.391 -0.7980  0.5381 -0.1540
 5285SOL     OW27073   4.572   4.168   8.010 -0.0878 -0.3170  0.0112
 5285SOL    HW127074   4.501   4.199   7.946 -0.9787 -0.4660  0.9168
 5285SOL    HW227075   4.648   4.232   8.008  0.1832 -0.6824 -1.6908
 5286SOL     OW27076   7.253   1.723   6.633  0.1001  0.2399  0.1178
 5286SOL    HW127077   7.161   1.733   6.595  0.6415  2.2948 -0.7563
 5286SOL    HW227078   7.315   1.787   6.587  1.5469  0.2564  2.0135
 5287SOL     OW27079   9.976   8.594   2.208 -0.0242  0.0205  0.1840
 5287SOL    HW127080  10.023   8.647   2.279  0.7845  0.1178 -0.4225
 5287SOL    HW227081   9.896   8.549   2.248  0.1037  0.5330  1.0299
 5288SOL     OW27082   9.064   3.019   0.375  0.8002 -0.3522  0.5007
 5288SOL    HW127083   9.145   3.036   0.431  1.4160 -1.2741 -0.0896
 5288SOL    HW227084   9.001   3.096   0.383  3.0531  1.7683 -1.3015
 5289SOL     OW27085   3.251   1.075   4.528  0.3046 -0.0351 -0.2488
 5289SOL    HW127086   3.330   1.016   4.516  0.5701  0.6544 -2.0397
 5289SOL    HW227087   3.174   1.038   4.475  0.1705  0.6498 -0.5369
 5290SOL     OW27088   9.458   1.976   1.345  0.0578  0.2799  0.0002
 5290SOL    HW127089   9.389   2.044   1.372 -0.6423 -0.4894  0.1460
 5290SOL    HW227090   9.413   1.892   1.317  0.8720  0.3305 -1.5031
 5291SOL     OW27091   8.353   0.731   2.169  0.4198  0.4560 -0.5294
 5291SOL    HW127092   8.299   0.722   2.085 -0.0294 -0.0063 -0.1907
 5291SOL    HW227093   8.387   0.825   2.176  0.4779  0.4963 -1.2391
 5292SOL     OW27094   2.721   5.073   1.256  0.1918 -0.2166  0.3283
 5292SOL    HW127095   2.668   4.991   1.280  1.2546 -1.1020 -0.2972
 5292SOL    HW227096   2.658   5.148   1.236 -0.7882 -0.7904  1.2229
 5293SOL     OW27097   9.261   2.175   3.429  0.3209 -0.0557 -0.5252
 5293SOL    HW127098   9.210   2.261   3.428 -0.8095 -0.7195 -1.1227
 5293SOL    HW227099   9.221   2.113   3.497  1.0506 -0.1668 -0.1889
 5294SOL     OW27100   1.142   8.879   3.460 -0.2658  0.1856 -0.1194
 5294SOL    HW127101   1.183   8.851   3.373 -1.1453 -2.5933  0.3118
 5294SOL    HW227102   1.205   8.862   3.535  0.0481  1.5044 -0.0691
 5295SOL     OW27103   8.203   6.505   5.322 -0.1554  0.3990 -0.4808
 5295SOL    HW127104   8.259   6.555   5.256  3.1017 -0.3447  1.6057
 5295SOL    HW227105   8.167   6.570   5.390  0.0682  0.5822 -0.5344
 5296SOL     OW27106   3.177   3.532   1.136  1.0256  0.3831 -0.5610
 5296SOL    HW127107   3.250   3.473   1.103  0.8634 -1.7356  2.6574
 5296SOL    HW227108   3.089   3.495   1.106  0.9943 -0.2644  0.3169
 5297SOL     OW27109   5.891   0.020   2.846 -0.0836  0.6208  0.1345
 5297SOL    HW127110   5.915   0.112   2.815 -1.0740  0.6372 -0.6074
 5297SOL    HW227111   5.795   0.018   2.873  0.0420 -0.0951  0.5367
 5298SOL     OW27112   0.075   3.697   1.754 -0.1303 -0.7439 -0.0645
 5298SOL    HW127113  -0.005   3.678   1.811  0.2053 -1.7401  0.0835
 5298SOL    HW227114   0.055   3.772   1.691 -0.1166  1.2002  2.1760
 5299SOL     OW27115   7.869   0.365   5.932 -0.4508  0.4656 -0.2606
 5299SOL    HW127116   7.894   0.269   5.922  1.3215  0.9495 -0.4955
 5299SOL    HW227117   7.885   0.413   5.845 -1.3940  0.9686 -0.1663
 5300SOL     OW27118   8.585   7.985   6.077  0.4279  0.2295  0.3493
 5300SOL    HW127119   8.666   7.970   6.134 -0.6177  0.6647  1.9858
 5300SOL    HW227120   8.568   8.084   6.070 -0.5715  0.1022  0.9230
 5301SOL     OW27121   8.795   9.773   0.368  0.4053  0.1276 -0.1875
 5301SOL    HW127122   8.888   9.737   0.360 -0.1468 -1.0468 -1.3802
 5301SOL    HW227123   8.730   9.697   0.375 -0.4567  0.9404  0.8503
 5302SOL     OW27124   9.993   4.850   3.887  0.5448 -0.4331  0.2183
 5302SOL    HW127125   9.906   4.879   3.847  1.2052  1.9399  0.4476
 5302SOL    HW227126  10.040   4.788   3.824  0.0777  0.6809 -1.2536
 5303SOL     OW27127   9.027   3.152   6.061  0.1908 -0.0012 -0.4760
 5303SOL    HW127128   8.938   3.129   6.100  1.1711 -2.4752  0.3819
 5303SOL    HW227129   9.085   3.192   6.132 -0.2984  1.9320 -1.1149
 5304SOL     OW27130   2.119   1.558   8.175 -0.1308  0.2816  0.4755
 5304SOL    HW127131   2.127   1.651   8.141  1.3908 -0.2138 -0.6039
 5304SOL    HW227132   2.029   1.521   8.152 -0.4738  1.2259  0.2901
 5305SOL     OW27133   4.668   4.875   1.946  0.3162 -0.2552  0.0224
 5305SOL    HW127134   4.721   4.844   2.026 -0.2533  0.2396  0.6003
 5305SOL    HW227135   4.582   4.824   1.942  0.0657  0.1584  0.0892
 5306SOL     OW27136   1.767   5.379   4.030  0.1991  0.1998  0.4850
 5306SOL    HW127137   1.774   5.331   4.117  1.0559 -0.5908 -0.0086
 5306SOL    HW227138   1.773   5.313   3.955 -2.2794  0.6724 -0.1596
 5307SOL     OW27139   8.840   5.489   2.648 -0.4118  0.1141  0.3010
 5307SOL    HW127140   8.779   5.548   2.595 -0.0922  0.1329 -0.0507
 5307SOL    HW227141   8.840   5.397   2.609 -0.1680  0.1302  0.2586
 5308SOL     OW27142   5.383   1.678   2.620 -0.1339 -0.3485 -0.4360
 5308SOL    HW127143   5.481   1.666   2.634  0.3720  1.2688 -2.4784
 5308SOL    HW227144   5.343   1.724   2.700  1.4304  2.2643 -1.1180
 5309SOL     OW27145   9.460   9.270   0.930 -0.1036  0.4202  0.0901
 5309SOL    HW127146   9.386   9.236   0.871 -0.9193 -0.2313  1.4604
 5309SOL    HW227147   9.425   9.283   1.023  1.0952  1.7162  0.3789
 5310SOL     OW27148   4.554   3.862   5.040  0.7223 -0.1109 -0.2404
 5310SOL    HW127149   4.490   3.788   5.021  1.1960 -0.6708  0.3249
 5310SOL    HW227150   4.633   3.826   5.089  1.6041  0.5244 -1.1616
 5311SOL     OW27151   5.924   9.513   5.724  0.1849 -0.2732  0.0560
 5311SOL    HW127152   5.941   9.469   5.812  0.2544 -2.2043 -0.9030
 5311SOL    HW227153   5.997   9.580   5.706  0.6693 -0.5315  1.0287
 5312SOL     OW27154   8.727   7.532   1.450  0.2742 -0.3703 -0.1278
 5312SOL    HW127155   8.725   7.615   1.394  0.6803  1.7391  2.8190
 5312SOL    HW227156   8.638   7.520   1.495  1.2081  0.3594  1.9946
 5313SOL     OW27157   8.161   5.904   1.013  0.4310 -0.3917 -0.0420
 5313SOL    HW127158   8.065   5.889   1.038  0.6864 -1.5116  0.3073
 5313SOL    HW227159   8.211   5.936   1.093  0.1977  0.9240 -0.4145
 5314SOL     OW27160   9.507   0.719   1.025 -0.3129 -0.1988  0.2655
 5314SOL    HW127161   9.469   0.645   1.079  0.3857 -0.3850  0.5051
 5314SOL    HW227162   9.452   0.802   1.038 -2.0755 -1.0897 -1.2838
 5315SOL     OW27163   9.578   2.429   5.763 -0.7244 -0.3459 -0.1206
 5315SOL    HW127164   9.623   2.512   5.796 -1.8121  0.2200 -0.0542
 5315SOL    HW227165   9.632   2.390   5.688  0.1220  0.0642  0.2651
 5316SOL     OW27166   5.771   0.299   6.738  0.3282  0.7844 -0.3894
 5316SOL    HW127167   5.739   0.271   6.648  1.1898 -1.1259 -0.1204
 5316SOL    HW227168   5.819   0.387   6.730 -0.6555  1.2357 -1.5696
 5317SOL     OW27169   7.216   2.389   2.967  0.2002 -0.0384 -0.6607
 5317SOL    HW127170   7.132   2.390   3.021  0.1733 -0.9259 -0.6732
 5317SOL    HW227171   7.217   2.309   2.908  0.7305  0.3508 -1.1892
 5318SOL     OW27172   8.599   0.192   5.467  0.0422 -0.0955  0.0204
 5318SOL    HW127173   8.536   0.269   5.471 -1.9945 -1.6763 -1.0422
 5318SOL    HW227174   8.559   0.113   5.512  0.9400 -1.3432 -1.3033
 5319SOL     OW27175   1.654   6.054   4.925  0.0103  0.3137 -0.7332
 5319SOL    HW127176   1.560   6.022   4.933  0.1401 -0.3485 -1.7245
 5319SOL    HW227177   1.661   6.118   4.849  0.0701  1.4954  0.2565
 5320SOL     OW27178   3.992   3.141   0.026  0.2908  0.2599 -0.1132
 5320SOL    HW127179   3.927   3.076   0.065  0.6094 -0.6801 -1.1316
 5320SOL    HW227180   3.945   3.227   0.006 -0.5980 -0.3454 -0.6591
 5321SOL     OW27181   5.906   9.069   6.301 -0.5977  0.2911  0.8253
 5321SOL    HW127182   5.833   9.042   6.364 -0.4016 -3.0704 -0.2634
 5321SOL    HW227183   5.995   9.040   6.338 -0.2059  0.9091  0.3697
 5322SOL     OW27184   1.212   9.521   5.068 -0.2076  0.2066  0.0933
 5322SOL    HW127185   1.235   9.450   5.002  0.9564 -0.1259  0.8507
 5322SOL    HW227186   1.208   9.482   5.160 -0.0719  1.0087  0.4493
 5323SOL     OW27187   6.344   0.693   5.870  0.1439  0.1916  0.3467
 5323SOL    HW127188   6.407   0.740   5.932 -0.2707 -0.3578  1.2021
 5323SOL    HW227189   6.257   0.676   5.917 -0.6892  1.0450 -0.8585
 5324SOL     OW27190   8.872   1.033   5.139 -0.1047 -0.3636 -0.3226
 5324SOL    HW127191   8.829   0.972   5.073  0.9518 -0.5168 -0.8809
 5324SOL    HW227192   8.874   1.126   5.102  0.9049 -0.5341 -0.7198
 5325SOL     OW27193   4.165   9.259   1.783  0.1078  0.4429 -0.3678
 5325SOL    HW127194   4.178   9.358   1.782 -1.8977  0.7332  0.7722
 5325SOL    HW227195   4.151   9.228   1.877 -1.9602 -0.5469 -0.9860
 5326SOL     OW27196   3.356   4.634   5.064  0.0150  0.4734  0.2723
 5326SOL    HW127197   3.335   4.718   5.014 -0.7102  0.2179  0.1299
 5326SOL    HW227198   3.313   4.639   5.155  0.0469  0.2915  0.2956
 5327SOL     OW27199   2.374   1.570   4.108 -0.2704  0.0636  0.1093
 5327SOL    HW127200   2.279   1.603   4.111  0.6025  2.8156 -0.7451
 5327SOL    HW227201   2.432   1.633   4.160  1.4688 -0.2211 -1.4647
 5328SOL     OW27202   0.310   5.833   2.926 -0.3902  0.1175 -0.0978
 5328SOL    HW127203   0.324   5.913   2.984  0.4193  1.1986 -1.7609
 5328SOL    HW227204   0.396   5.808   2.881 -0.4361 -2.1853  1.0146
 5329SOL     OW27205   7.718   7.960   3.401 -0.1216  0.3977 -0.2804
 5329SOL    HW127206   7.626   7.958   3.364 -0.7095 -0.9127  1.1913
 5329SOL    HW227207   7.767   8.040   3.366 -1.2125  0.1406 -2.4660
 5330SOL     OW27208   2.047   0.149   2.070  0.3967 -0.4153 -0.0967
 5330SOL    HW127209   2.079   0.131   2.163  1.5600  1.9026  0.0052
 5330SOL    HW227210   2.115   0.116   2.005  1.1406  0.8523  0.0062
 5331SOL     OW27211   2.509   4.174   1.116  0.0379  0.1546 -0.5512
 5331SOL    HW127212   2.470   4.222   1.037  0.0377  1.5481  0.2874
 5331SOL    HW227213   2.601   4.209   1.134  0.0544 -0.1938  0.0448
 5332SOL     OW27214   3.897   6.753   2.015  0.3796  0.0761 -0.1706
 5332SOL    HW127215   3.879   6.689   2.089  0.3198 -0.7494 -0.8981
 5332SOL    HW227216   3.811   6.796   1.986  0.4020  0.3919  0.2343
 5333SOL     OW27217   7.891   4.506   3.763 -0.6568 -0.3758 -0.3180
 5333SOL    HW127218   7.925   4.599   3.779 -0.5743 -0.4981  0.2081
 5333SOL    HW227219   7.889   4.456   3.849 -0.6309 -0.8890 -0.6141
 5334SOL     OW27220   1.122   0.923   2.627 -0.7862 -0.1508 -0.2912
 5334SOL    HW127221   1.054   0.926   2.700  0.6070  0.2786  1.0106
 5334SOL    HW227222   1.162   0.832   2.621 -1.0701 -0.2534 -0.6995
 5335SOL     OW27223   4.647   5.101   3.565 -0.0441  0.9057  0.0936
 5335SOL    HW127224   4.689   5.188   3.542 -0.3415  1.3882  1.3250
 5335SOL    HW227225   4.701   5.026   3.528  0.5594  1.5965 -0.4194
 5336SOL     OW27226   2.912   7.004   2.102 -0.0489 -0.0422 -0.0506
 5336SOL    HW127227   2.989   6.953   2.141  0.7119  0.5947 -0.6775
 5336SOL    HW227228   2.947   7.085   2.055 -1.1698  0.5918  0.1984
 5337SOL     OW27229   9.153   1.992   3.188 -0.0884 -0.1521 -0.2536
 5337SOL    HW127230   9.116   1.901   3.211  0.4802 -0.2245  0.3908
 5337SOL    HW227231   9.220   2.018   3.257  2.1602 -0.6648 -2.2108
 5338SOL     OW27232   9.559   8.741   4.459 -0.6828  0.7362 -0.4243
 5338SOL    HW127233   9.510   8.790   4.387 -0.7161  2.1993  0.5691
 5338SOL    HW227234   9.515   8.760   4.547  0.6639  0.7415  0.2597
 5339SOL     OW27235   7.690   1.991   4.454 -0.3742 -0.1347 -0.4639
 5339SOL    HW127236   7.748   1.948   4.523 -0.1204 -0.0599 -0.6261
 5339SOL    HW227237   7.747   2.018   4.376 -0.9686 -2.0431 -1.5824
 5340SOL     OW27238   4.455   1.414   3.127 -0.0916 -0.1021 -0.5619
 5340SOL    HW127239   4.417   1.401   3.036 -0.5717  0.2300 -0.4097
 5340SOL    HW227240   4.429   1.336   3.185 -0.4412  0.0681 -0.4904
 5341SOL     OW27241   2.456   8.759   0.233 -0.0008  0.5078  0.4165
 5341SOL    HW127242   2.522   8.735   0.305 -0.4974 -0.3873  0.5870
 5341SOL    HW227243   2.474   8.705   0.151 -2.0351 -1.5952  1.2887
 5342SOL     OW27244   9.416   7.786   6.202 -0.1799 -0.0434  0.1995
 5342SOL    HW127245   9.387   7.857   6.266 -2.6687 -1.4206  0.6923
 5342SOL    HW227246   9.361   7.791   6.119  0.2028 -0.8467 -0.1095
 5343SOL     OW27247   0.857   2.864   5.309  0.6799  0.0604 -0.2882
 5343SOL    HW127248   0.767   2.831   5.337 -0.2022  1.6925 -1.1127
 5343SOL    HW227249   0.877   2.951   5.354  2.4913 -0.9924  1.0079
 5344SOL     OW27250   9.339   9.677   2.761 -0.6519 -0.2348 -0.4863
 5344SOL    HW127251   9.353   9.596   2.703 -0.4245  0.0312 -0.8142
 5344SOL    HW227252   9.253   9.669   2.811  0.1890 -1.4641  0.7872
 5345SOL     OW27253   8.870   9.160   1.651  0.1029 -0.0868 -0.0997
 5345SOL    HW127254   8.910   9.243   1.690  0.1204  0.7651 -1.8394
 5345SOL    HW227255   8.914   9.140   1.564 -0.4128 -1.5123 -0.0399
 5346SOL     OW27256   5.278   9.187   2.528 -0.0463  0.3856  0.1744
 5346SOL    HW127257   5.248   9.201   2.434  0.8533 -0.1564 -0.1963
 5346SOL    HW227258   5.221   9.243   2.589 -0.4554  0.9544 -0.7047
 5347SOL     OW27259   7.545   8.313   2.698  0.0867 -0.5525  0.4528
 5347SOL    HW127260   7.552   8.326   2.797 -0.0795  0.2372  0.3666
 5347SOL    HW227261   7.468   8.252   2.678  2.9874 -4.6678  1.0601
 5348SOL     OW27262   0.791   3.612   2.430 -0.4108 -0.0821  0.1780
 5348SOL    HW127263   0.756   3.664   2.508 -1.2159 -1.5567  0.8018
 5348SOL    HW227264   0.746   3.644   2.347 -0.1603  0.9099  0.4084
 5349SOL     OW27265   7.190   6.995   6.402  0.3286  0.4483 -0.1140
 5349SOL    HW127266   7.110   6.936   6.387  0.3634 -0.3924  2.7269
 5349SOL    HW227267   7.262   6.969   6.338 -0.6429 -0.7140 -0.7728
 5350SOL     OW27268   3.493   2.486   1.183 -0.5247 -0.6078  0.4065
 5350SOL    HW127269   3.445   2.411   1.228  1.8230 -1.6597  1.2236
 5350SOL    HW227270   3.590   2.464   1.175 -0.0279  1.7651 -0.5782
 5351SOL     OW27271   3.653   4.825   1.920  0.4885 -0.0322 -0.6400
 5351SOL    HW127272   3.656   4.826   1.820 -0.1447 -1.6927 -0.7055
 5351SOL    HW227273   3.746   4.826   1.956  0.7620 -0.7579 -1.2947
 5352SOL     OW27274   6.796   0.233   6.226 -0.3781  0.5791 -0.4122
 5352SOL    HW127275   6.821   0.166   6.156  0.6071  1.2969 -0.7689
 5352SOL    HW227276   6.764   0.186   6.308 -1.1083 -0.2801 -1.1821
 5353SOL     OW27277   4.421   4.793   3.828 -0.1114 -0.5696 -0.5813
 5353SOL    HW127278   4.402   4.873   3.886 -0.5963 -1.2876  0.2661
 5353SOL    HW227279   4.339   4.770   3.775 -0.0665 -0.6895 -0.5977
 5354SOL     OW27280   0.514   7.941   5.434 -0.2419 -0.1056 -0.7712
 5354SOL    HW127281   0.419   7.970   5.443 -0.4504 -1.2081  0.7556
 5354SOL    HW227282   0.517   7.851   5.390 -0.0817 -1.2282  1.4682
 5355SOL     OW27283   8.454   7.803   5.399  0.3054 -0.2167 -0.1849
 5355SOL    HW127284   8.355   7.788   5.398  0.4684 -1.2800 -0.8856
 5355SOL    HW227285   8.475   7.893   5.360 -0.4312  0.3240  0.6526
 5356SOL     OW27286   2.331   6.826   5.417 -0.2732  0.2809 -0.5404
 5356SOL    HW127287   2.295   6.806   5.325 -2.1816  0.0495  0.2186
 5356SOL    HW227288   2.410   6.768   5.435 -1.2901 -1.3676 -1.1887
 5357SOL     OW27289   1.129   3.063   0.669  0.1937 -0.5274 -0.6557
 5357SOL    HW127290   1.039   3.059   0.713 -0.4208  0.6644 -1.7745
 5357SOL    HW227291   1.185   3.133   0.713  0.9444 -1.8962  0.6514
 5358SOL     OW27292   0.382   7.727   6.114  0.2073  0.1951 -0.1038
 5358SOL    HW127293   0.360   7.648   6.171 -2.2945  0.4775 -0.5959
 5358SOL    HW227294   0.428   7.797   6.169 -1.5556  0.1896  1.4255
 5359SOL     OW27295   8.880   0.333   1.047 -0.1728  0.1761 -0.6207
 5359SOL    HW127296   8.891   0.343   0.948  2.1179  0.7403 -0.3379
 5359SOL    HW227297   8.970   0.327   1.090 -1.1637 -3.5546  1.1139
 5360SOL     OW27298   4.777   9.172   4.767 -0.7600  0.1824 -0.3408
 5360SOL    HW127299   4.798   9.074   4.766  0.4608  0.4388 -0.2249
 5360SOL    HW227300   4.861   9.224   4.775 -1.3651  1.2730 -0.9814
 5361SOL     OW27301   8.755   5.706   0.243  0.1576  0.2175  0.0987
 5361SOL    HW127302   8.786   5.611   0.257 -0.8147 -0.0376  0.5187
 5361SOL    HW227303   8.801   5.766   0.309  0.9305  0.0746 -0.3018
 5362SOL     OW27304   1.499   9.476   4.690 -0.0855  0.3787  0.6538
 5362SOL    HW127305   1.524   9.497   4.785  0.4253  0.2246  0.5574
 5362SOL    HW227306   1.582   9.450   4.640 -0.4084  0.1257  0.2563
 5363SOL     OW27307   3.978   4.988   1.430  0.3018 -0.1351 -0.6555
 5363SOL    HW127308   4.023   5.077   1.424 -1.2746  0.7192 -0.1363
 5363SOL    HW227309   4.047   4.917   1.439  1.6094  0.9738 -1.6720
 5364SOL     OW27310   4.481   1.857   0.852 -0.2620 -0.1579  0.0374
 5364SOL    HW127311   4.553   1.800   0.892  0.3439  0.3468 -0.3456
 5364SOL    HW227312   4.490   1.858   0.753 -0.9166 -0.2483 -0.0260
 5365SOL     OW27313   9.531   7.115   0.646 -0.4944 -0.7687 -0.0642
 5365SOL    HW127314   9.583   7.110   0.731  0.8719  3.6392 -0.4906
 5365SOL    HW227315   9.436   7.136   0.665  0.1950  2.1369  0.3926
 5366SOL     OW27316   0.387   5.113   0.466 -0.5837 -0.3251  0.2336
 5366SOL    HW127317   0.299   5.086   0.505 -0.4101  0.1060  0.9363
 5366SOL    HW227318   0.387   5.212   0.448 -0.4255 -0.4107 -0.2384
 5367SOL     OW27319   8.261   7.082   2.391  0.0748  0.1173  0.2212
 5367SOL    HW127320   8.240   6.993   2.352  0.4163 -0.3114  0.9868
 5367SOL    HW227321   8.321   7.133   2.329  0.0703 -0.2806 -0.1113
 5368SOL     OW27322   4.459   9.753   6.052 -0.4795 -0.5249 -0.0882
 5368SOL    HW127323   4.384   9.689   6.036 -1.2572  0.3954 -0.1600
 5368SOL    HW227324   4.486   9.794   5.965 -1.8975  1.3617  0.3399
 5369SOL     OW27325   7.074   4.828   7.417  0.0149  0.3428  1.0006
 5369SOL    HW127326   7.146   4.868   7.361  0.0410  1.3368  1.7497
 5369SOL    HW227327   7.022   4.900   7.462 -0.4691 -0.4217  1.6819
 5370SOL     OW27328   7.339   3.802   2.082  0.0991  0.1277  0.5369
 5370SOL    HW127329   7.346   3.874   2.013 -1.1012  0.2321  0.5110
 5370SOL    HW227330   7.243   3.783   2.101  0.3916 -2.1513 -0.1383
 5371SOL     OW27331   0.397   9.869   2.698  0.0622 -0.3236  1.1784
 5371SOL    HW127332   0.330   9.796   2.691 -0.4556  0.2517 -0.1882
 5371SOL    HW227333   0.357   9.946   2.748 -0.6307  0.3431 -0.3466
 5372SOL     OW27334   8.539   0.366   2.525  0.3992  0.3740 -0.3595
 5372SOL    HW127335   8.583   0.277   2.512  2.0892  1.0954  0.3899
 5372SOL    HW227336   8.514   0.404   2.436 -0.8295 -1.0815 -0.6585
 5373SOL     OW27337   3.405   5.375   1.000 -0.0925 -0.1922 -0.5461
 5373SOL    HW127338   3.390   5.373   0.901 -0.7823  1.8731 -0.5037
 5373SOL    HW227339   3.408   5.470   1.031  0.7969 -0.8126  1.3247
 5374SOL     OW27340   5.739   9.144   5.276 -0.4048  0.2167 -0.4754
 5374SOL    HW127341   5.733   9.163   5.374 -0.2104 -0.2799 -0.3639
 5374SOL    HW227342   5.763   9.228   5.227  0.9347  0.1652  0.0629
 5375SOL     OW27343   1.496   3.742   4.891 -0.0575 -0.4182  0.0907
 5375SOL    HW127344   1.426   3.699   4.835  0.2310  0.1999 -0.7624
 5375SOL    HW227345   1.455   3.811   4.950 -0.6727 -2.5820  2.2384
 5376SOL     OW27346   8.692   6.814   1.657  0.0078  0.1953  0.3951
 5376SOL    HW127347   8.682   6.794   1.560 -2.2995  0.0886  0.6361
 5376SOL    HW227348   8.651   6.903   1.678 -0.9390 -0.4913  1.5439
 5377SOL     OW27349   9.604   3.964   5.010 -0.2070  0.1909 -0.3891
 5377SOL    HW127350   9.590   3.868   5.032 -0.2282  0.0455 -1.0355
 5377SOL    HW227351   9.677   4.001   5.067 -1.9365  0.4751  1.7266
 5378SOL     OW27352   8.062   5.783   0.636 -0.2761  0.1645  0.3689
 5378SOL    HW127353   8.118   5.718   0.586 -0.6335  0.5145 -0.4944
 5378SOL    HW227354   8.045   5.749   0.728  1.8351  0.3212  0.8356
 5379SOL     OW27355   2.187   0.432   4.423 -0.7442 -0.3604 -0.2390
 5379SOL    HW127356   2.232   0.346   4.398 -0.5733 -0.0281 -1.1079
 5379SOL    HW227357   2.112   0.412   4.487 -0.7704 -1.1740 -0.5043
 5380SOL     OW27358   1.803   8.208   6.028  0.3901  0.4439  0.2621
 5380SOL    HW127359   1.774   8.197   6.123 -0.0010  0.1498  0.1112
 5380SOL    HW227360   1.723   8.206   5.968  0.6508  0.4299 -0.0898
 5381SOL     OW27361   3.461   6.528   5.333  0.2720  0.0667 -0.4048
 5381SOL    HW127362   3.379   6.508   5.281  0.8222 -1.9432 -0.5556
 5381SOL    HW227363   3.478   6.627   5.334 -1.4038  0.3704 -1.4585
 5382SOL     OW27364   7.734   3.482   3.027  0.0774 -0.2825  0.3584
 5382SOL    HW127365   7.750   3.525   2.938  0.1680 -1.5792 -0.2713
 5382SOL    HW227366   7.780   3.393   3.030  0.8779  0.1692  2.0724
 5383SOL     OW27367   9.424   8.232   8.158 -0.2823 -0.3563 -0.4489
 5383SOL    HW127368   9.512   8.233   8.112  0.6746 -1.0245  1.3216
 5383SOL    HW227369   9.363   8.167   8.112  1.3174 -2.5125  0.3773
 5384SOL     OW27370   0.507   0.891   5.897 -0.3901  0.0482 -0.2209
 5384SOL    HW127371   0.436   0.958   5.921 -0.7923 -0.1020 -0.9631
 5384SOL    HW227372   0.463   0.807   5.865  0.0780 -1.1427  2.1477
 5385SOL     OW27373   9.725   3.414   3.620  0.0985  0.5804 -0.0813
 5385SOL    HW127374   9.665   3.339   3.593  0.7738  0.0471 -0.0992
 5385SOL    HW227375   9.808   3.378   3.663  0.6958  1.2888 -0.6168
 5386SOL     OW27376   5.033   0.305   1.248  0.4594  0.0160 -0.0441
 5386SOL    HW127377   5.016   0.330   1.153  2.6688 -0.0430 -0.4791
 5386SOL    HW227378   4.994   0.374   1.308 -0.8977  0.0900 -0.9811
 5387SOL     OW27379   5.265   2.894   0.262 -0.5113 -0.2745  0.1691
 5387SOL    HW127380   5.300   2.982   0.230 -0.1827 -0.3857  0.2181
 5387SOL    HW227381   5.165   2.894   0.258 -0.5171  0.1448  0.2855
 5388SOL     OW27382   6.676   9.732   7.025 -0.5885  0.0585 -0.7231
 5388SOL    HW127383   6.614   9.805   7.055  1.2066  1.4309 -0.2522
 5388SOL    HW227384   6.738   9.768   6.956  0.8514 -0.8042  0.1006
 5389SOL     OW27385   6.232   5.697   0.756  0.5886  0.0902  0.1798
 5389SOL    HW127386   6.222   5.796   0.751 -1.2646  0.1997  3.9007
 5389SOL    HW227387   6.324   5.671   0.727  1.2806  2.9371 -0.3234
 5390SOL     OW27388   0.029   6.747   5.675  0.5143  0.0222  0.7499
 5390SOL    HW127389  -0.039   6.744   5.748 -0.6049 -1.0790 -0.3131
 5390SOL    HW227390   0.106   6.688   5.699 -1.0957 -2.5050 -0.1393
 5391SOL     OW27391   2.101   9.644   5.064 -0.2940 -0.0001 -0.5160
 5391SOL    HW127392   2.036   9.688   5.125  0.2564 -0.5787  0.4984
 5391SOL    HW227393   2.100   9.545   5.079 -0.6319 -0.2193 -1.9151
 5392SOL     OW27394   9.680   7.101   5.446 -0.3449  0.2415  0.0745
 5392SOL    HW127395   9.712   7.172   5.383 -1.3584  0.7969  0.1608
 5392SOL    HW227396   9.758   7.053   5.485  0.3134  0.2774 -1.1693
 5393SOL     OW27397   4.192   8.125   2.435  0.0089 -0.1122 -0.2626
 5393SOL    HW127398   4.165   8.117   2.339  0.1868  0.1056 -0.3314
 5393SOL    HW227399   4.115   8.158   2.489  0.0654  0.2712 -0.4165
 5394SOL     OW27400   1.522   4.254   0.709 -0.7961 -0.1971  0.1039
 5394SOL    HW127401   1.547   4.201   0.790  1.4159 -0.0942 -0.4717
 5394SOL    HW227402   1.445   4.313   0.730 -0.5222 -0.4858  2.0094
 5395SOL     OW27403   2.055   7.585   2.359 -0.0844 -0.3506  0.6449
 5395SOL    HW127404   2.112   7.668   2.357  1.2914 -1.2417  2.1287
 5395SOL    HW227405   2.013   7.572   2.269  1.2432  0.8941 -0.1829
 5396SOL     OW27406   1.101   4.651   1.196 -0.2787  0.1332  0.5248
 5396SOL    HW127407   1.031   4.601   1.247 -0.7183  2.8565  2.7541
 5396SOL    HW227408   1.063   4.682   1.109 -0.5942 -1.7159 -0.0082
 5397SOL     OW27409   2.323   0.454   0.576  0.0466  0.4021  0.4019
 5397SOL    HW127410   2.381   0.475   0.497  0.3616  0.7561  0.7269
 5397SOL    HW227411   2.312   0.355   0.584  0.7725  0.3272  0.4652
 5398SOL     OW27412   6.234   2.246   3.537  0.1497 -0.1071 -0.8770
 5398SOL    HW127413   6.325   2.228   3.576 -0.0361 -0.1620 -0.4604
 5398SOL    HW227414   6.241   2.318   3.468  0.0232  2.2250  1.4398
 5399SOL     OW27415   3.580   3.981   5.705 -0.1440 -0.0001 -0.1668
 5399SOL    HW127416   3.528   3.914   5.757  0.6862 -0.3354  0.2485
 5399SOL    HW227417   3.558   4.073   5.736 -0.1691 -0.1639  0.3059
 5400SOL     OW27418   3.107   2.268   0.896 -0.1944 -0.0593  0.2735
 5400SOL    HW127419   3.067   2.225   0.977  1.3675 -1.3952  0.3555
 5400SOL    HW227420   3.187   2.322   0.923 -1.2258  1.6360 -0.0376
 5401SOL     OW27421   2.381   3.073   5.036  0.3896  0.1564  0.0216
 5401SOL    HW127422   2.315   3.093   5.109 -0.3904 -1.5508 -0.1958
 5401SOL    HW227423   2.425   3.157   5.007  1.7347  0.7241  3.4464
 5402SOL     OW27424   6.134   3.705   0.678 -0.1977  1.0378  0.7280
 5402SOL    HW127425   6.081   3.787   0.657 -2.5148 -1.0327 -1.9649
 5402SOL    HW227426   6.196   3.686   0.601 -0.7481 -0.5142  0.6583
 5403SOL     OW27427   6.178   0.332   5.839  0.4478  0.7689 -0.2781
 5403SOL    HW127428   6.101   0.281   5.878  0.9870 -0.1563 -0.3861
 5403SOL    HW227429   6.150   0.373   5.753 -0.2233  1.2990  0.1935
 5404SOL     OW27430   8.192   2.393   3.374 -0.1046  0.6029  0.3071
 5404SOL    HW127431   8.168   2.427   3.284 -0.6337  1.1346  0.6543
 5404SOL    HW227432   8.176   2.294   3.378  1.5786  0.2595 -0.7411
 5405SOL     OW27433   6.913   3.467   1.996  0.0625 -0.0843  0.5076
 5405SOL    HW127434   6.895   3.506   1.906  0.4040  0.5056  0.6944
 5405SOL    HW227435   6.839   3.404   2.021 -0.9145  1.0858  0.5761
 5406SOL     OW27436   2.534   5.542   4.078  0.2108 -0.1500 -0.6748
 5406SOL    HW127437   2.554   5.472   4.009 -0.3162 -0.1326 -0.8518
 5406SOL    HW227438   2.577   5.517   4.165 -0.8641 -1.2556 -0.4410
 5407SOL     OW27439   9.768   4.406   4.177  0.5846  0.6268  0.7373
 5407SOL    HW127440   9.768   4.482   4.243  2.6829  0.0781  1.4025
 5407SOL    HW227441   9.844   4.418   4.113 -0.8806  0.6533 -1.0451
 5408SOL     OW27442   0.019   1.149   5.320 -0.3209  0.1887 -0.3639
 5408SOL    HW127443  -0.028   1.234   5.343  0.0169 -0.0497  1.2456
 5408SOL    HW227444  -0.006   1.122   5.227 -3.0417  0.3066  0.2720
 5409SOL     OW27445   0.648   1.280   4.337 -0.3891  0.7516  0.3816
 5409SOL    HW127446   0.744   1.307   4.345  0.3189 -1.3821 -0.6823
 5409SOL    HW227447   0.595   1.358   4.302  1.2347  1.4436 -0.6014
 5410SOL     OW27448   4.579   1.193   4.002  0.8103  0.5666  0.0954
 5410SOL    HW127449   4.613   1.285   4.015  1.7203  0.2128  0.2523
 5410SOL    HW227450   4.627   1.150   3.925 -0.4860  0.6581 -0.7794
 5411SOL     OW27451   9.104   1.035   4.674  0.2722 -0.3465  0.4238
 5411SOL    HW127452   9.111   0.995   4.583  0.0278  0.2417  0.1419
 5411SOL    HW227453   9.148   0.975   4.741  0.1321 -0.9609 -0.0261
 5412SOL     OW27454   0.662   9.014   5.222  0.0714  0.3653  0.5747
 5412SOL    HW127455   0.636   8.922   5.254  1.1242  0.5983  2.1701
 5412SOL    HW227456   0.677   9.073   5.301 -1.9989  2.3237 -0.4711
 5413SOL     OW27457   1.731   6.534   3.263 -0.0477 -0.0352  0.2236
 5413SOL    HW127458   1.702   6.501   3.173 -1.6669  0.2504  0.6241
 5413SOL    HW227459   1.657   6.588   3.304  0.5439 -0.4563  1.8751
 5414SOL     OW27460   9.896   8.590   5.682  0.1288 -0.2683 -0.6924
 5414SOL    HW127461   9.836   8.524   5.639 -3.3655  1.1419  1.7852
 5414SOL    HW227462   9.859   8.682   5.670  2.4057  0.7615 -0.0997
 5415SOL     OW27463   2.640   2.404   3.596 -0.1248 -0.1394  0.0156
 5415SOL    HW127464   2.540   2.400   3.605 -0.3961  1.3611 -2.0051
 5415SOL    HW227465   2.681   2.331   3.651 -2.3313 -0.9221  0.6925
 5416SOL     OW27466   9.189   8.814   3.629 -0.3833  0.1197  0.0883
 5416SOL    HW127467   9.225   8.905   3.653 -0.2602  0.2639 -0.6462
 5416SOL    HW227468   9.145   8.774   3.710 -0.3872  0.8072  0.4338
 5417SOL     OW27469   7.685   5.800   2.694 -0.0571 -0.0719  0.1053
 5417SOL    HW127470   7.678   5.802   2.594  2.2817  0.0875 -0.0811
 5417SOL    HW227471   7.640   5.880   2.732 -1.8665 -0.6654 -0.7543
 5418SOL     OW27472   3.907   5.993   4.096  0.2634  0.0184  0.3224
 5418SOL    HW127473   3.920   5.903   4.056  1.0904 -0.6908  2.1480
 5418SOL    HW227474   3.986   6.050   4.077 -0.0993  0.2536 -0.5141
 5419SOL     OW27475   3.265   3.128   4.380 -0.0833 -0.0475  0.0806
 5419SOL    HW127476   3.169   3.149   4.399 -0.1163  0.1399 -0.2892
 5419SOL    HW227477   3.273   3.094   4.286  0.2571  0.2371  0.0076
 5420SOL     OW27478   3.789   9.437   1.209 -0.0030 -0.7545 -0.4898
 5420SOL    HW127479   3.696   9.458   1.177 -0.1068 -1.8325 -0.9356
 5420SOL    HW227480   3.792   9.341   1.238  1.1069 -0.8654 -0.9678
 5421SOL     OW27481   9.221   0.661   6.809 -0.3769  0.2703 -0.5923
 5421SOL    HW127482   9.201   0.565   6.793 -0.6881  0.4380 -1.2384
 5421SOL    HW227483   9.149   0.703   6.863  0.1321 -0.0370  0.3292
 5422SOL     OW27484   1.615   4.976   4.228 -0.4209 -0.5975 -0.0963
 5422SOL    HW127485   1.537   5.008   4.282 -0.7789 -1.2422 -0.2229
 5422SOL    HW227486   1.605   4.878   4.209  0.8667 -0.8777  0.6330
 5423SOL     OW27487   6.289   1.707   7.970  0.2482  0.4863 -0.1655
 5423SOL    HW127488   6.260   1.632   7.911 -1.2319  0.1298  0.9727
 5423SOL    HW227489   6.291   1.676   8.065 -0.7448  1.9772  0.3597
 5424SOL     OW27490   8.852   8.576   1.019 -0.0807 -0.3035 -0.0265
 5424SOL    HW127491   8.886   8.487   1.051  0.5519 -0.5642 -1.3611
 5424SOL    HW227492   8.817   8.566   0.926 -0.0803  0.8271 -0.1496
 5425SOL     OW27493   8.494   5.686   3.839  0.0595  0.1029 -0.1207
 5425SOL    HW127494   8.425   5.745   3.797 -0.5824 -0.5871 -0.0350
 5425SOL    HW227495   8.464   5.591   3.835  1.4272 -0.3139 -0.9280
 5426SOL     OW27496   2.326   3.573   1.538 -0.0158  0.0331  0.0368
 5426SOL    HW127497   2.271   3.637   1.483  0.5219  0.9545  0.5625
 5426SOL    HW227498   2.308   3.589   1.635  0.5374 -0.2341  0.1825
 5427SOL     OW27499   0.229   5.297   4.332 -0.3092  0.0546  0.1728
 5427SOL    HW127500   0.313   5.317   4.382  0.5289 -2.0685 -0.3220
 5427SOL    HW227501   0.243   5.218   4.272 -2.9338 -0.9909  0.8244
 5428SOL     OW27502   7.199   4.370   6.161  0.0332 -0.5254 -0.2972
 5428SOL    HW127503   7.293   4.371   6.127  0.3711 -1.0818  0.5739
 5428SOL    HW227504   7.178   4.457   6.204 -0.0687 -0.1689 -1.0600
 5429SOL     OW27505   9.798   1.625   1.791 -0.4433  0.0864 -0.1422
 5429SOL    HW127506   9.814   1.631   1.890 -1.1754  1.0721 -0.0839
 5429SOL    HW227507   9.726   1.559   1.773  2.2630 -2.9461 -0.2812
 5430SOL     OW27508   7.737   8.149   3.725  0.6666  0.7615  0.3655
 5430SOL    HW127509   7.805   8.079   3.706 -0.6249 -0.0172 -1.5220
 5430SOL    HW227510   7.736   8.215   3.651  0.6609  1.8326  1.2981
 5431SOL     OW27511   2.215   2.396   1.626 -0.3326  0.0562  0.2708
 5431SOL    HW127512   2.143   2.380   1.558 -1.5433 -0.2087  1.6060
 5431SOL    HW227513   2.233   2.312   1.676 -0.2968  0.5662  1.1179
 5432SOL     OW27514   9.218   0.713   3.988  0.1504  0.1082  0.5625
 5432SOL    HW127515   9.257   0.664   4.066  0.9577 -1.4994 -0.8202
 5432SOL    HW227516   9.118   0.706   3.991  0.1114  1.0949  2.0988
 5433SOL     OW27517   9.042   4.197   3.696  0.4657  1.0006 -0.0334
 5433SOL    HW127518   9.039   4.277   3.757 -0.2867  0.7222  0.3027
 5433SOL    HW227519   9.075   4.225   3.606 -0.3172  1.7978 -0.0760
 5434SOL     OW27520   7.825   7.619   5.188 -0.6709 -0.3214 -0.1395
 5434SOL    HW127521   7.808   7.521   5.178 -0.6806 -0.3344  0.0063
 5434SOL    HW227522   7.902   7.646   5.131  1.0449 -0.9132  1.8314
 5435SOL     OW27523   7.009   7.720   3.557 -0.1550  0.2096  0.4355
 5435SOL    HW127524   7.010   7.719   3.657 -0.0374  0.0592  0.4329
 5435SOL    HW227525   6.949   7.793   3.525 -0.4204  0.0709  0.6168
 5436SOL     OW27526   5.783   8.966   6.038  0.3697 -0.1119 -0.1375
 5436SOL    HW127527   5.819   9.034   6.102  1.5282 -0.3555 -0.5343
 5436SOL    HW227528   5.730   8.898   6.088  2.0552 -0.8338  0.6764
 5437SOL     OW27529   4.237   8.631   3.484  0.2214  0.4939 -0.4084
 5437SOL    HW127530   4.326   8.657   3.446  0.0827 -0.7985 -1.6792
 5437SOL    HW227531   4.166   8.691   3.447  0.3854  0.6354 -0.4917
 5438SOL     OW27532   0.988   2.907   2.115  0.4056 -0.1087  0.3769
 5438SOL    HW127533   1.017   2.954   2.198 -0.4935 -0.6062  0.9901
 5438SOL    HW227534   0.929   2.830   2.139 -1.5701  0.9811 -0.8112
 5439SOL     OW27535   3.500   5.220   1.207  0.2083  0.5280  0.2971
 5439SOL    HW127536   3.486   5.131   1.250  0.8476  0.1375 -0.2984
 5439SOL    HW227537   3.451   5.224   1.120  0.1782  0.7608  0.3231
 5440SOL     OW27538   1.694   9.562   1.395 -0.1986 -0.1570 -0.1215
 5440SOL    HW127539   1.673   9.660   1.395 -0.5104 -0.1975 -2.5062
 5440SOL    HW227540   1.678   9.525   1.304  2.8160 -1.8046 -0.0389
 5441SOL     OW27541   0.499   6.013   6.153 -0.0606 -0.1666 -0.2816
 5441SOL    HW127542   0.587   5.967   6.142  0.1278  0.4254 -1.2535
 5441SOL    HW227543   0.506   6.107   6.121 -1.3342 -0.4389 -1.3944
 5442SOL     OW27544   1.872   3.776   4.710 -0.0327  0.3922  0.3989
 5442SOL    HW127545   1.852   3.687   4.750  1.5545  1.0033  2.6582
 5442SOL    HW227546   1.787   3.823   4.686 -0.9662 -0.5612  1.8326
 5443SOL     OW27547   3.106   4.298   3.560  1.1448  0.0262  0.3075
 5443SOL    HW127548   3.199   4.275   3.533  2.1855 -0.4555  3.9572
 5443SOL    HW227549   3.058   4.215   3.587  0.0822  0.4350 -0.3044
 5444SOL     OW27550   8.803   8.455   5.462 -0.4580  0.0119 -0.0330
 5444SOL    HW127551   8.739   8.532   5.468 -0.4051  0.1711 -1.4582
 5444SOL    HW227552   8.865   8.458   5.540 -0.3272  1.5347 -0.1816
 5445SOL     OW27553   8.866   9.984   5.829  0.2813 -0.4167  0.2573
 5445SOL    HW127554   8.907   9.938   5.751 -0.7178  0.1064 -0.5930
 5445SOL    HW227555   8.838  10.077   5.802 -1.9006 -0.9375  0.6650
 5446SOL     OW27556   8.963   0.534   3.479  0.1401 -0.5616  0.2819
 5446SOL    HW127557   8.881   0.525   3.536 -0.5601 -3.7087 -1.1163
 5446SOL    HW227558   9.039   0.565   3.535 -1.4152  0.0144  2.1322
 5447SOL     OW27559   7.792   5.276   2.101  0.3769 -0.1868 -0.8235
 5447SOL    HW127560   7.834   5.355   2.145  0.8601 -1.1028  0.3879
 5447SOL    HW227561   7.692   5.282   2.110  0.4330  0.0650 -0.3498
 5448SOL     OW27562   6.330   9.919   4.713 -0.2329 -0.6771  0.2376
 5448SOL    HW127563   6.418   9.933   4.667 -0.3516 -2.4193 -0.5952
 5448SOL    HW227564   6.258   9.969   4.664  0.3739  1.2203  1.2599
 5449SOL     OW27565   2.354   0.221   3.193  0.1223  0.1128  0.2621
 5449SOL    HW127566   2.425   0.151   3.208 -0.9819 -1.5106 -1.7658
 5449SOL    HW227567   2.374   0.271   3.108 -1.0810 -0.2828 -0.2595
 5450SOL     OW27568   8.672   9.131   1.302 -0.2053  0.1792  0.5913
 5450SOL    HW127569   8.727   9.210   1.277 -0.3422 -0.2112 -1.0284
 5450SOL    HW227570   8.719   9.047   1.274 -0.0298 -0.3254  2.3399
 5451SOL     OW27571   2.795   3.251   5.023  0.2813 -0.5106 -0.1228
 5451SOL    HW127572   2.761   3.264   4.930 -1.6723 -1.0125  0.5160
 5451SOL    HW227573   2.859   3.175   5.025  2.7087  1.4063 -1.6234
 5452SOL     OW27574   4.031   3.924   7.610  0.1391  0.3113  0.3333
 5452SOL    HW127575   3.953   3.932   7.673 -1.1063 -0.3488 -1.1000
 5452SOL    HW227576   4.013   3.852   7.543  1.5729  0.8065 -0.6124
 5453SOL     OW27577   3.744   8.708   5.414 -0.3904 -0.3135  0.0825
 5453SOL    HW127578   3.729   8.720   5.316 -1.4182  1.7766  0.4646
 5453SOL    HW227579   3.815   8.771   5.445  0.1756 -1.2116  0.6298
 5454SOL     OW27580   5.832   1.126   6.358  0.0204  0.5290 -0.3458
 5454SOL    HW127581   5.773   1.098   6.434 -0.0707  2.5966  0.3775
 5454SOL    HW227582   5.926   1.137   6.390  0.3367 -0.3721 -0.9487
 5455SOL     OW27583   8.954   7.364   5.029 -0.8325 -0.3590 -0.2081
 5455SOL    HW127584   8.947   7.274   5.072 -1.1100  0.1429  0.8151
 5455SOL    HW227585   8.966   7.353   4.930 -0.2287 -1.5257 -0.0158
 5456SOL     OW27586   0.307   1.047   5.998 -0.6070 -0.1583  0.7552
 5456SOL    HW127587   0.363   1.117   6.043 -3.5435  1.8052  1.4419
 5456SOL    HW227588   0.210   1.068   6.010 -1.5231 -2.4728 -2.0207
 5457SOL     OW27589   5.532   1.113   4.852 -0.5984 -0.6686  0.2599
 5457SOL    HW127590   5.581   1.045   4.905  0.3062 -0.9516 -0.9178
 5457SOL    HW227591   5.595   1.161   4.791 -1.6030 -0.3376 -0.5477
 5458SOL     OW27592   3.015   5.881   4.252  0.1892 -0.1000  0.0246
 5458SOL    HW127593   2.991   5.793   4.294  0.4607 -0.2437 -0.1199
 5458SOL    HW227594   2.941   5.946   4.269 -0.2474 -0.5030 -0.3130
 5459SOL     OW27595   9.188   1.249   4.353  0.8540 -0.8592 -0.1076
 5459SOL    HW127596   9.091   1.258   4.331  1.0253 -0.4671 -0.7198
 5459SOL    HW227597   9.204   1.281   4.447  0.5436 -0.0154 -0.3358
 5460SOL     OW27598   3.714   8.699   2.595 -0.1425 -0.3438 -0.2218
 5460SOL    HW127599   3.739   8.607   2.566 -1.9604 -0.5223 -1.2780
 5460SOL    HW227600   3.718   8.705   2.695  0.1584 -1.5013 -0.1556
 5461SOL     OW27601   9.275   8.616   1.007  0.4066  0.3264  0.1723
 5461SOL    HW127602   9.214   8.688   0.973  0.0425  0.2797  0.7177
 5461SOL    HW227603   9.309   8.562   0.930 -0.7050 -0.0209 -0.0753
 5462SOL     OW27604   0.411   5.869   3.309  0.0592 -0.6077 -0.5355
 5462SOL    HW127605   0.327   5.818   3.329  0.2104 -0.7328 -0.2222
 5462SOL    HW227606   0.388   5.959   3.272 -0.2163 -0.3473  0.2615
 5463SOL     OW27607   0.572   6.642   3.417  0.3908  0.2806 -0.0280
 5463SOL    HW127608   0.649   6.596   3.374  0.3437 -0.5923  0.7906
 5463SOL    HW227609   0.590   6.652   3.515 -1.6003 -2.2709  0.6693
 5464SOL     OW27610   1.969   5.839   2.402 -0.1025  0.0141 -0.3405
 5464SOL    HW127611   2.012   5.750   2.382 -1.3781 -0.6903 -0.0040
 5464SOL    HW227612   1.917   5.832   2.487  1.3560  1.6315  0.7236
 5465SOL     OW27613   2.372   1.351   2.064  0.1002 -0.8291  0.0367
 5465SOL    HW127614   2.303   1.361   2.137  0.0403 -1.8618  0.1242
 5465SOL    HW227615   2.383   1.254   2.041  2.0082 -0.7386  0.4786
 5466SOL     OW27616   4.319   3.993   0.098 -0.1093 -0.0951 -0.1014
 5466SOL    HW127617   4.329   4.088   0.126  2.0475 -0.1657 -0.5073
 5466SOL    HW227618   4.291   3.989   0.002 -3.6582  0.1101  0.8408
 5467SOL     OW27619   8.696   4.826   3.959  0.2829 -0.1339 -0.1477
 5467SOL    HW127620   8.750   4.907   3.938  1.0782 -0.0225  2.2049
 5467SOL    HW227621   8.611   4.854   4.004  0.8837 -0.6533  1.3054
 5468SOL     OW27622   0.882   8.320   1.412  0.3911  0.4188  0.1848
 5468SOL    HW127623   0.880   8.384   1.488  2.3397  2.0707 -1.1075
 5468SOL    HW227624   0.802   8.336   1.353  0.2121  0.8246  0.5334
 5469SOL     OW27625   1.170   7.576   0.926  0.3053  0.0565  0.0515
 5469SOL    HW127626   1.176   7.489   0.975 -0.2122  0.2754  0.5051
 5469SOL    HW227627   1.090   7.576   0.866  0.6515 -0.0167 -0.4131
 5470SOL     OW27628   4.366   3.008   4.140  0.2493 -0.1702 -0.0498
 5470SOL    HW127629   4.443   3.031   4.082  1.3037 -0.4035  1.2300
 5470SOL    HW227630   4.296   3.079   4.134  0.3354 -0.2101 -1.5944
 5471SOL     OW27631   8.432   4.914   4.579  0.4164  0.0464 -0.3687
 5471SOL    HW127632   8.371   4.957   4.645 -0.2489  0.3159 -1.1524
 5471SOL    HW227633   8.437   4.816   4.597  1.6683  0.3771  1.2164
 5472SOL     OW27634   6.040   4.276   0.967  0.2905  1.0487 -0.1889
 5472SOL    HW127635   5.955   4.290   1.018  0.1047 -0.7263  0.0150
 5472SOL    HW227636   6.040   4.335   0.886 -1.0402  1.2317 -0.0669
 5473SOL     OW27637   6.476   2.060   2.320  0.2028  0.5061 -0.0221
 5473SOL    HW127638   6.382   2.035   2.299 -0.0200 -0.0675  1.6061
 5473SOL    HW227639   6.534   1.979   2.321  0.4376  0.6743  0.4034
 5474SOL     OW27640   8.952   5.261   0.133  0.1087  0.6850  0.0005
 5474SOL    HW127641   9.029   5.247   0.072  1.1812  3.6578  0.5943
 5474SOL    HW227642   8.924   5.174   0.172  1.3656 -0.8149 -2.3440
 5475SOL     OW27643   1.102   0.229   1.799  0.7004 -0.0814  0.0350
 5475SOL    HW127644   1.073   0.278   1.881 -1.2959  0.7159 -1.1107
 5475SOL    HW227645   1.120   0.294   1.726  1.3044 -0.8635 -0.5251
 5476SOL     OW27646   3.048   9.385   1.538  0.2556  0.0852 -0.2323
 5476SOL    HW127647   3.126   9.381   1.601  0.8242  0.1787 -0.9166
 5476SOL    HW227648   2.990   9.306   1.551 -0.9480  1.3278  2.0952
 5477SOL     OW27649   7.192   2.427   4.344 -0.1164 -0.3397  0.1020
 5477SOL    HW127650   7.282   2.452   4.309  0.9185 -0.2033  2.6923
 5477SOL    HW227651   7.201   2.352   4.410 -2.3236 -2.5800 -2.0545
 5478SOL     OW27652   2.287   0.019   3.003 -0.0320  0.0064 -0.1585
 5478SOL    HW127653   2.200   0.003   3.048 -0.3798  1.4371 -0.2986
 5478SOL    HW227654   2.283   0.105   2.951  1.1782 -0.3364 -0.8456
 5479SOL     OW27655   6.571   2.149   2.575  0.5681 -0.6204  0.2545
 5479SOL    HW127656   6.543   2.141   2.479  0.0922  0.6237  0.2821
 5479SOL    HW227657   6.499   2.113   2.634  0.8973 -1.4658  0.1532
 5480SOL     OW27658   5.252   8.365   2.350 -0.3100 -0.2217 -0.4547
 5480SOL    HW127659   5.262   8.323   2.440 -0.9200 -0.3939 -0.4676
 5480SOL    HW227660   5.204   8.452   2.358  2.1021  1.1290 -0.2626
 5481SOL     OW27661   4.479   6.738   3.841 -0.1375  0.0268  0.4084
 5481SOL    HW127662   4.531   6.822   3.851  1.5575 -1.0822  1.0363
 5481SOL    HW227663   4.411   6.732   3.914 -0.9046  1.2826 -0.1827
 5482SOL     OW27664   8.678   9.180   0.740  0.3722  1.1023  0.6534
 5482SOL    HW127665   8.669   9.278   0.718  0.3420  1.6251  2.8759
 5482SOL    HW227666   8.673   9.168   0.839  1.4750 -1.0578  0.4651
 5483SOL     OW27667   5.725   0.864   2.601  0.3785  0.4017  0.0633
 5483SOL    HW127668   5.638   0.914   2.601 -0.0680 -0.3496 -0.8946
 5483SOL    HW227669   5.749   0.838   2.694  0.0556  1.4315  0.4452
 5484SOL     OW27670   2.209   5.422   1.732  0.3299 -0.0558 -0.2470
 5484SOL    HW127671   2.228   5.337   1.782  0.1663  0.2333  0.3090
 5484SOL    HW227672   2.123   5.461   1.765  0.4245  0.3457 -0.4757
 5485SOL     OW27673   2.193   4.887   2.108 -0.4087 -0.2714 -0.6629
 5485SOL    HW127674   2.229   4.831   2.033  0.7253  1.2205 -1.2491
 5485SOL    HW227675   2.120   4.946   2.075 -0.8524 -0.5957 -0.2798
 5486SOL     OW27676   3.108   6.521   0.717  0.5243 -0.4711  0.6077
 5486SOL    HW127677   3.040   6.545   0.786  3.1810  2.0137  2.4598
 5486SOL    HW227678   3.106   6.589   0.643  1.3284 -0.0860  0.9325
 5487SOL     OW27679   4.084   7.079   4.710  0.1626 -0.2250  0.1293
 5487SOL    HW127680   3.993   7.038   4.708 -0.1044  0.3270  0.9291
 5487SOL    HW227681   4.079   7.171   4.749  0.5690  1.0887 -2.7684
 5488SOL     OW27682   9.921   9.148   0.650 -0.0909 -0.1162 -0.0874
 5488SOL    HW127683   9.893   9.225   0.707 -1.6161  0.1952 -1.2410
 5488SOL    HW227684   9.845   9.083   0.641  0.8009 -1.1838 -0.0975
 5489SOL     OW27685   2.710   6.570   3.194 -0.0291  0.6188  0.0074
 5489SOL    HW127686   2.624   6.616   3.173 -0.6158 -0.4079  0.1169
 5489SOL    HW227687   2.786   6.635   3.185 -0.6477  1.1480 -1.5628
 5490SOL     OW27688   0.942   9.109   3.453  0.7716  0.0567  0.0698
 5490SOL    HW127689   0.948   9.024   3.504 -0.6893  0.2218  0.5232
 5490SOL    HW227690   1.017   9.113   3.386  2.1085 -0.6055  1.4945
 5491SOL     OW27691   9.177   8.735   4.581  0.6417  0.0014 -0.0613
 5491SOL    HW127692   9.245   8.773   4.644 -1.7873  4.3181  0.2198
 5491SOL    HW227693   9.110   8.681   4.633  1.8781 -1.3356  0.1602
 5492SOL     OW27694   5.011   4.220   7.783 -0.6981  0.1749  0.3738
 5492SOL    HW127695   4.996   4.187   7.876 -1.0561  1.1810  0.6747
 5492SOL    HW227696   5.093   4.177   7.745  0.7653  1.4975  1.9799
 5493SOL     OW27697   2.970   7.902   0.080 -0.5555 -0.1036 -0.5794
 5493SOL    HW127698   2.944   7.952   0.162  0.9982 -0.1090 -0.0618
 5493SOL    HW227699   3.001   7.810   0.105  0.2502  0.0102 -1.1183
 5494SOL     OW27700   6.956   1.553   2.111  0.5859  0.0452 -0.5835
 5494SOL    HW127701   6.917   1.488   2.046  0.3365  0.5984 -0.9990
 5494SOL    HW227702   7.052   1.569   2.088  1.1770 -1.6124  0.6773
 5495SOL     OW27703   9.162   8.523   4.777 -0.3274 -0.3132 -0.2133
 5495SOL    HW127704   9.222   8.488   4.849 -1.8304  1.3848  1.9402
 5495SOL    HW227705   9.067   8.505   4.801 -0.9215  1.6023 -1.0531
 5496SOL     OW27706   2.354   1.598   0.910 -0.0759  0.8453 -0.3044
 5496SOL    HW127707   2.410   1.610   0.828  1.6525 -0.1343  0.7082
 5496SOL    HW227708   2.351   1.502   0.935 -1.1657  1.0481  0.4091
 5497SOL     OW27709   9.930   9.394   6.051 -0.2996  0.3192 -0.1362
 5497SOL    HW127710  10.011   9.425   6.001 -0.8438  0.6403 -0.8366
 5497SOL    HW227711   9.873   9.338   5.991 -1.0520  0.8612  0.0587
 5498SOL     OW27712   9.139   7.774   0.117  0.2046  0.4890 -0.0154
 5498SOL    HW127713   9.222   7.739   0.161 -0.4173  0.5814  1.2547
 5498SOL    HW227714   9.078   7.699   0.095  0.4985  0.4461 -0.7049
 5499SOL     OW27715   0.054   7.779   0.850  0.4239  0.5696  0.4325
 5499SOL    HW127716  -0.006   7.781   0.931 -0.0712  0.2504  0.0769
 5499SOL    HW227717   0.114   7.699   0.856  1.1332  1.1334  1.0094
 5500SOL     OW27718   0.228   6.128   5.522 -0.6846  0.0387  0.5369
 5500SOL    HW127719   0.290   6.061   5.482 -0.8243  0.7084 -0.8394
 5500SOL    HW227720   0.143   6.082   5.548  0.6874 -1.0597  3.2939
 5501SOL     OW27721   4.652   3.374   0.599  0.1596 -0.0033  0.5734
 5501SOL    HW127722   4.595   3.296   0.624 -0.0208 -0.6117 -1.6048
 5501SOL    HW227723   4.748   3.353   0.620 -0.2155  0.3817  2.7320
 5502SOL     OW27724   9.754   1.181   3.342 -0.9343 -0.8210  0.3135
 5502SOL    HW127725   9.686   1.250   3.369 -0.6768 -0.5601  0.2950
 5502SOL    HW227726   9.795   1.207   3.255 -0.3414 -0.6487  0.6466
 5503SOL     OW27727   0.780   0.221   0.499  0.0193  0.3148  0.5920
 5503SOL    HW127728   0.841   0.248   0.573  1.5215  1.7622 -1.1474
 5503SOL    HW227729   0.829   0.224   0.412 -2.4450  1.3222 -0.8216
 5504SOL     OW27730   3.420   1.708   4.567 -0.2706  0.2738 -0.0325
 5504SOL    HW127731   3.363   1.790   4.576  0.0160  0.4272  0.4113
 5504SOL    HW227732   3.367   1.628   4.594 -0.7201  0.2500 -0.9849
 5505SOL     OW27733   0.825   7.481   6.206 -0.4089 -0.1316  0.1959
 5505SOL    HW127734   0.739   7.471   6.257 -1.0069 -1.0287 -0.9582
 5505SOL    HW227735   0.901   7.487   6.270 -1.2930  0.3070  1.2309
 5506SOL     OW27736   6.355   2.097   8.070  0.2701  0.1742 -0.0511
 5506SOL    HW127737   6.343   2.190   8.035  0.4502  0.4619  0.6385
 5506SOL    HW227738   6.388   2.101   8.164  2.6047 -0.5902 -0.8147
 5507SOL     OW27739   4.435   9.641   1.880 -0.2553 -0.4373  0.1402
 5507SOL    HW127740   4.505   9.576   1.849  0.7033  0.2621  0.8500
 5507SOL    HW227741   4.448   9.662   1.977 -3.3317 -2.7174  1.1416
 5508SOL     OW27742   6.358   0.941   1.036  0.4436 -0.2871  0.4027
 5508SOL    HW127743   6.270   0.975   1.000  0.3829 -0.5570  0.2994
 5508SOL    HW227744   6.411   1.019   1.070  0.1829 -0.1163  0.4279
 5509SOL     OW27745   8.933   5.987   0.751  0.3133  0.1515  0.3120
 5509SOL    HW127746   8.953   6.082   0.772 -1.3496  0.3112  1.3528
 5509SOL    HW227747   8.843   5.980   0.708  1.1651 -0.7920 -1.3827
 5510SOL     OW27748   5.852   5.071   8.127  0.4155  0.9541  0.6530
 5510SOL    HW127749   5.820   5.163   8.152 -0.4201  0.7898  0.2078
 5510SOL    HW227750   5.801   5.039   8.047 -0.3973 -0.5400  1.7354
 5511SOL     OW27751   7.374   9.420   5.507  0.7603  0.1285  0.2861
 5511SOL    HW127752   7.447   9.457   5.564  2.4952 -0.8070 -1.2529
 5511SOL    HW227753   7.386   9.451   5.413 -0.1894 -0.9569 -0.2066
 5512SOL     OW27754   0.831   6.527   3.344  0.2130  0.0394  0.3651
 5512SOL    HW127755   0.884   6.608   3.369  0.7785 -0.2975  0.2510
 5512SOL    HW227756   0.853   6.499   3.251 -1.8614  1.2695 -0.5358
 5513SOL     OW27757   1.863   4.086   0.945 -0.0294 -0.5522 -0.0123
 5513SOL    HW127758   1.803   4.052   0.872 -0.2948  0.4608 -0.2625
 5513SOL    HW227759   1.822   4.166   0.988 -0.2536 -1.5714  1.7704
 5514SOL     OW27760   9.269   6.334   0.830 -0.2516  0.2232  0.1380
 5514SOL    HW127761   9.343   6.269   0.815 -0.4848 -0.1361  0.5288
 5514SOL    HW227762   9.183   6.285   0.837 -0.4137  0.5678  0.5442
 5515SOL     OW27763   9.408   6.496   2.900  0.3861  0.5261  0.0341
 5515SOL    HW127764   9.424   6.410   2.950 -2.0941 -1.6996 -2.8084
 5515SOL    HW227765   9.481   6.509   2.833  1.4833  1.3590  1.3722
 5516SOL     OW27766   3.622   1.285   4.208  0.0094 -0.2337 -0.3442
 5516SOL    HW127767   3.553   1.243   4.149 -1.1593 -0.1387  0.9373
 5516SOL    HW227768   3.580   1.312   4.295  1.3558  1.0520 -0.0675
 5517SOL     OW27769   8.396   9.542   1.750 -1.2417 -0.2401 -0.1059
 5517SOL    HW127770   8.416   9.639   1.763 -0.8357 -0.1210 -1.4589
 5517SOL    HW227771   8.474   9.487   1.779 -0.5740 -0.0208 -1.4536
 5518SOL     OW27772   3.215   6.604   5.721 -0.8672 -0.1301  0.2634
 5518SOL    HW127773   3.292   6.551   5.685  0.9908  1.5588  1.6659
 5518SOL    HW227774   3.158   6.635   5.645 -1.6700 -3.5421 -0.6491
 5519SOL     OW27775   4.307   6.520   0.328 -0.1632 -0.2559 -0.6775
 5519SOL    HW127776   4.322   6.537   0.425 -1.1382 -0.2657 -0.5187
 5519SOL    HW227777   4.341   6.428   0.305 -0.2938 -0.4102 -0.2652
 5520SOL     OW27778   9.775   4.064   5.200  0.5145 -0.1660  0.1114
 5520SOL    HW127779   9.743   4.158   5.191  0.6696  0.0301  1.6388
 5520SOL    HW227780   9.873   4.060   5.181  0.5256 -0.0090  0.1415
 5521SOL     OW27781   0.509   3.588   5.829 -0.0468 -0.2369 -0.3553
 5521SOL    HW127782   0.542   3.551   5.742  0.5854 -0.2312 -0.1234
 5521SOL    HW227783   0.569   3.557   5.903 -1.2511 -1.1964  0.2431
 5522SOL     OW27784   5.166   5.374   7.931 -0.0634  0.7811  0.2498
 5522SOL    HW127785   5.174   5.472   7.912  1.1110  0.1619 -2.8264
 5522SOL    HW227786   5.203   5.354   8.021  1.1997  2.9602  0.2457
 5523SOL     OW27787   9.807   3.148   2.990 -0.2092  0.0557  0.0164
 5523SOL    HW127788   9.764   3.059   3.002  0.2861 -0.3447 -1.0680
 5523SOL    HW227789   9.905   3.136   2.973  0.0229  0.8588  0.7593
 5524SOL     OW27790   5.522   2.379   0.503  0.1334  0.1929  0.0225
 5524SOL    HW127791   5.617   2.375   0.471  1.4757  1.8743  3.5692
 5524SOL    HW227792   5.468   2.434   0.439  2.0290  0.9648 -0.9705
 5525SOL     OW27793   4.880   7.791   4.220  0.1888 -0.0869  0.2749
 5525SOL    HW127794   4.862   7.850   4.142 -1.7641 -0.0675  0.7162
 5525SOL    HW227795   4.920   7.705   4.188  2.7540  1.2936 -0.3932
 5526SOL     OW27796   2.616   2.329   5.897 -0.0395 -0.5583  0.5666
 5526SOL    HW127797   2.542   2.293   5.954 -0.5319  1.2183  1.1039
 5526SOL    HW227798   2.700   2.279   5.916 -1.0555 -2.5032  0.0669
 5527SOL     OW27799   9.321   1.067   4.171 -0.2777  0.2181 -0.3242
 5527SOL    HW127800   9.270   1.137   4.220 -0.4654 -0.8901  1.1004
 5527SOL    HW227801   9.398   1.036   4.226 -0.3322 -0.8466 -0.8177
 5528SOL     OW27802   9.532   9.426   4.483  0.4047  0.4669  0.1378
 5528SOL    HW127803   9.436   9.434   4.509  0.4196 -1.2340  0.7729
 5528SOL    HW227804   9.571   9.517   4.470 -0.9456  1.2007  1.1677
 5529SOL     OW27805   9.572   8.260   3.725  0.2021  0.1894 -0.1160
 5529SOL    HW127806   9.667   8.261   3.756 -0.1897  1.4228  1.0899
 5529SOL    HW227807   9.569   8.248   3.626  1.5514 -1.3960  0.0132
 5530SOL     OW27808   8.239   9.972   6.084 -0.2057  0.3946 -0.1583
 5530SOL    HW127809   8.190   9.988   6.170 -1.5319  0.4289 -0.8935
 5530SOL    HW227810   8.254  10.060   6.038  0.5121  0.3774  0.0430
 5531SOL     OW27811   9.910   4.271   1.994 -0.5042 -0.0993  0.1470
 5531SOL    HW127812   9.867   4.224   1.917  1.0501  0.2828 -0.9592
 5531SOL    HW227813   9.929   4.205   2.067 -0.2558 -0.8139 -0.5539
 5532SOL     OW27814   2.992   9.491   0.860 -0.3219  0.0063  0.0813
 5532SOL    HW127815   3.015   9.581   0.824 -0.5930 -0.5090 -1.4160
 5532SOL    HW227816   2.944   9.500   0.947  1.9728  1.2248  1.2740
 5533SOL     OW27817   1.247   7.322   0.615  1.1896  0.7184  0.2334
 5533SOL    HW127818   1.277   7.338   0.710 -0.9414 -0.5945  1.1564
 5533SOL    HW227819   1.159   7.367   0.600  0.7036 -0.4905 -0.5942
 5534SOL     OW27820   6.969   2.593   8.026 -0.4922 -0.0742  0.2369
 5534SOL    HW127821   7.006   2.514   8.075  0.2324  0.4092  0.4764
 5534SOL    HW227822   6.898   2.563   7.962  0.7715 -1.1038 -0.7117
 5535SOL     OW27823   7.757   6.672   4.025 -0.2492  0.0733 -0.1480
 5535SOL    HW127824   7.706   6.730   3.961 -0.1088 -0.2133 -0.5221
 5535SOL    HW227825   7.854   6.695   4.022  0.0849 -1.3572 -1.6083
 5536SOL     OW27826   8.782   8.415   5.895  0.2678 -0.3399 -0.3660
 5536SOL    HW127827   8.691   8.445   5.866 -0.2793 -0.9288  0.6975
 5536SOL    HW227828   8.793   8.432   5.993  0.4674 -2.2797 -0.0330
 5537SOL     OW27829   7.652   5.831   2.425 -0.4225 -0.3290  0.4221
 5537SOL    HW127830   7.609   5.768   2.360  2.7655 -2.0510 -0.0949
 5537SOL    HW227831   7.751   5.830   2.412  0.2528 -0.0908  4.7596
 5538SOL     OW27832   7.217   3.146   5.680 -0.5003 -0.2809  0.0755
 5538SOL    HW127833   7.136   3.131   5.623 -0.8421  0.6433  0.3183
 5538SOL    HW227834   7.242   3.243   5.678 -0.2329 -0.3221  1.1198
 5539SOL     OW27835   6.534   7.971   6.177 -0.4115 -0.3108 -0.0037
 5539SOL    HW127836   6.593   7.893   6.196  0.2783  0.2434  0.1856
 5539SOL    HW227837   6.496   8.006   6.263  0.3818  0.4053  0.0607
 5540SOL     OW27838   1.742   0.299   3.514 -0.5924  0.5448  0.4407
 5540SOL    HW127839   1.695   0.279   3.428 -0.0811  0.3805  0.1990
 5540SOL    HW227840   1.796   0.383   3.504  0.1106  0.0835  0.3518
 5541SOL     OW27841   8.206   1.736   0.184  0.3276 -0.4569  0.6315
 5541SOL    HW127842   8.251   1.649   0.206  1.2311  0.3285  1.9261
 5541SOL    HW227843   8.243   1.809   0.241 -1.7755  0.4432  0.9087
 5542SOL     OW27844   9.291   4.144   5.556  0.0291  0.3358  0.3845
 5542SOL    HW127845   9.263   4.119   5.463  0.0168  0.9213  0.2340
 5542SOL    HW227846   9.390   4.155   5.559  0.0652 -0.0101  0.5200
 5543SOL     OW27847   2.134   5.744   3.014  0.2776 -0.5228  0.5981
 5543SOL    HW127848   2.208   5.811   3.011  0.7088 -0.8783  2.7444
 5543SOL    HW227849   2.169   5.657   3.047 -0.7570 -1.1872 -0.0184
 5544SOL     OW27850   9.540   5.455   6.028  0.4908 -0.3022 -0.3388
 5544SOL    HW127851   9.517   5.507   5.945  0.1109 -0.3311 -0.2518
 5544SOL    HW227852   9.491   5.495   6.106  0.3227 -0.6918 -0.2451
 5545SOL     OW27853   0.504   9.846   5.431 -0.3252  0.0770  0.0784
 5545SOL    HW127854   0.575   9.879   5.369 -0.2391  0.5536  0.4302
 5545SOL    HW227855   0.518   9.885   5.522  0.3857 -1.7306  0.7790
 5546SOL     OW27856   8.140   4.584   5.634  0.3123  0.4562  0.2115
 5546SOL    HW127857   8.051   4.627   5.648  0.7633  0.5978  3.0294
 5546SOL    HW227858   8.202   4.610   5.709  2.2920 -0.7355 -0.9545
 5547SOL     OW27859   2.493   9.226   1.341 -0.6274 -0.3311 -0.3212
 5547SOL    HW127860   2.448   9.314   1.326  1.1877 -0.0001 -4.4541
 5547SOL    HW227861   2.425   9.154   1.354 -2.1369  1.4955  2.4856
 5548SOL     OW27862   9.783   9.060   4.328 -0.2029  0.1463 -0.3920
 5548SOL    HW127863   9.809   9.075   4.424 -0.2399  1.5487 -0.5799
 5548SOL    HW227864   9.820   8.973   4.296 -0.2900 -0.3915  0.9329
 5549SOL     OW27865   5.141   9.302   6.315 -0.0554 -0.4267 -0.5858
 5549SOL    HW127866   5.195   9.227   6.351  1.5782  0.6439 -0.7549
 5549SOL    HW227867   5.143   9.379   6.378  0.4487  0.4175 -1.6047
 5550SOL     OW27868   8.848   9.548   6.136  0.8081 -0.0940  0.3427
 5550SOL    HW127869   8.870   9.600   6.053 -0.0755 -0.8063 -0.3438
 5550SOL    HW227870   8.827   9.454   6.112  0.5338 -0.3038  1.3797
 5551SOL     OW27871   2.540   3.778   2.366  0.0846 -0.2673 -0.3014
 5551SOL    HW127872   2.622   3.772   2.423 -0.0715 -0.9025 -0.1366
 5551SOL    HW227873   2.548   3.713   2.290 -0.9338 -1.4693  0.5872
 5552SOL     OW27874   5.305   1.070   3.388  0.4096  0.4254  0.0954
 5552SOL    HW127875   5.216   1.038   3.422  0.0069  1.4781  0.0647
 5552SOL    HW227876   5.374   0.999   3.402 -0.2607 -0.0764  0.8948
 5553SOL     OW27877   2.766   6.556   2.251  0.4009 -0.2293 -0.6240
 5553SOL    HW127878   2.815   6.539   2.165  1.3067 -0.1799 -0.1247
 5553SOL    HW227879   2.723   6.471   2.282 -0.4927 -0.0938 -1.4653
 5554SOL     OW27880   2.701   9.071   5.821 -0.3362  0.1688  0.0143
 5554SOL    HW127881   2.607   9.087   5.794 -0.6768 -0.1251  0.9930
 5554SOL    HW227882   2.762   9.130   5.769 -0.8754 -1.0987 -2.1102
 5555SOL     OW27883   2.585   3.652   2.946  0.4440  0.2996 -0.3868
 5555SOL    HW127884   2.683   3.665   2.936  0.3447  1.0716 -0.3932
 5555SOL    HW227885   2.552   3.589   2.876  0.9838 -0.2075 -0.1880
 5556SOL     OW27886   9.394   8.219   2.720 -0.2202 -0.0381  0.1783
 5556SOL    HW127887   9.466   8.289   2.719  0.5050 -0.7824 -0.4396
 5556SOL    HW227888   9.401   8.166   2.805  1.4597 -1.6052 -0.8772
 5557SOL     OW27889   1.879   2.017   5.876 -0.5988 -0.3417  0.7881
 5557SOL    HW127890   1.818   1.938   5.870  2.1980 -2.5088 -0.3674
 5557SOL    HW227891   1.955   1.996   5.938 -0.3979  1.8683  1.3208
 5558SOL     OW27892   0.289   0.067   2.040 -0.6701 -0.2381 -0.0820
 5558SOL    HW127893   0.346   0.021   1.972 -1.5756 -1.4268 -0.0442
 5558SOL    HW227894   0.204   0.096   1.998 -2.1655 -2.8656  1.0013
 5559SOL     OW27895   1.539   2.054   4.199  0.5442 -0.5861 -0.6988
 5559SOL    HW127896   1.532   1.955   4.186  1.1002 -0.6266 -0.6723
 5559SOL    HW227897   1.448   2.095   4.186  0.4883 -0.9882 -1.6336
 5560SOL     OW27898   2.753   9.775   0.782  0.2758 -0.9682 -0.2849
 5560SOL    HW127899   2.696   9.820   0.852  0.5996 -0.3164 -0.4357
 5560SOL    HW227900   2.848   9.773   0.813  0.3383 -1.1218 -0.4882
 5561SOL     OW27901   5.162   3.916   7.738 -0.1576 -0.5944 -0.1248
 5561SOL    HW127902   5.212   3.932   7.823 -3.0197  1.4750  1.2222
 5561SOL    HW227903   5.205   3.967   7.664  0.2505  0.4295  0.8122
 5562SOL     OW27904   3.222   1.040   3.833  0.1300  0.1516 -0.3947
 5562SOL    HW127905   3.192   1.084   3.917 -1.5107  0.4181 -1.0983
 5562SOL    HW227906   3.246   0.945   3.852 -0.3629  0.1698  0.3600
 5563SOL     OW27907   2.526   5.397   1.560  0.2167 -0.6515  0.1725
 5563SOL    HW127908   2.519   5.462   1.636 -1.4449  0.6938 -1.0994
 5563SOL    HW227909   2.615   5.407   1.515  0.0292  0.6693  0.0726
 5564SOL     OW27910   6.764   9.637   2.200 -0.7046 -0.2041  0.0943
 5564SOL    HW127911   6.734   9.545   2.225 -2.2988  0.0088 -0.9811
 5564SOL    HW227912   6.769   9.694   2.282  0.4514 -1.2813  0.7890
 5565SOL     OW27913   1.607   1.152   1.985  0.4783  0.2432 -0.0398
 5565SOL    HW127914   1.586   1.054   1.983 -1.0204  0.5697 -1.0025
 5565SOL    HW227915   1.606   1.184   2.080 -1.0001 -0.2676  0.1329
 5566SOL     OW27916   8.529   5.368   4.512 -0.1786  0.3935  0.8105
 5566SOL    HW127917   8.546   5.272   4.535  2.5846  0.2920 -1.3225
 5566SOL    HW227918   8.586   5.426   4.569  0.0979  0.6028  0.3268
 5567SOL     OW27919   4.528   4.781   2.322  0.4056  0.3726  0.0401
 5567SOL    HW127920   4.482   4.714   2.380 -0.1414  0.5667 -0.1626
 5567SOL    HW227921   4.459   4.835   2.273  0.8236  1.4864  0.6542
 5568SOL     OW27922   9.513   4.486   0.577 -0.3472  0.3226  0.1411
 5568SOL    HW127923   9.417   4.496   0.604 -0.5319  0.9009 -0.7108
 5568SOL    HW227924   9.565   4.565   0.607 -0.5383  0.9342 -1.1116
 5569SOL     OW27925   8.438   6.119   1.434 -0.0853  0.1716 -0.1162
 5569SOL    HW127926   8.393   6.181   1.498 -2.2914 -0.7182 -0.7927
 5569SOL    HW227927   8.534   6.148   1.423  0.4551  0.1955  3.7380
 5570SOL     OW27928   4.693   1.367   5.198 -0.2062 -0.2941  0.4261
 5570SOL    HW127929   4.773   1.366   5.256  0.4081 -2.9550 -0.4024
 5570SOL    HW227930   4.612   1.344   5.252 -0.0987  0.2898  0.8370
 5571SOL     OW27931   8.768   8.569   0.753  0.0885  0.0970  0.0873
 5571SOL    HW127932   8.722   8.652   0.721 -1.0193 -0.4751  0.1653
 5571SOL    HW227933   8.752   8.495   0.688  0.8493 -0.1233  0.1524
 5572SOL     OW27934   4.680   5.367   8.060 -0.2686  0.5446  0.4699
 5572SOL    HW127935   4.665   5.369   7.962  0.5022 -0.1478  0.3305
 5572SOL    HW227936   4.594   5.345   8.107 -0.4444 -0.0196 -0.1084
 5573SOL     OW27937   1.620   0.917   2.247  0.1355  0.8787  0.1882
 5573SOL    HW127938   1.717   0.894   2.238 -0.1525  0.2933 -1.4855
 5573SOL    HW227939   1.576   0.915   2.157 -1.2703  1.8892  0.8334
 5574SOL     OW27940   0.088   9.895   3.304  0.6853  0.0524 -0.4728
 5574SOL    HW127941   0.086   9.915   3.206  0.2944 -1.9998 -0.9103
 5574SOL    HW227942   0.127   9.804   3.318  1.5656  0.6880  1.3556
 5575SOL     OW27943   7.311   3.230   3.571  0.0395  0.3721  0.0622
 5575SOL    HW127944   7.396   3.184   3.546  0.9028  1.1889  1.4710
 5575SOL    HW227945   7.289   3.211   3.667 -1.7559 -0.4179 -0.4694
 5576SOL     OW27946   6.475   8.203   4.273 -0.4940  0.2939  0.5598
 5576SOL    HW127947   6.405   8.244   4.214  0.6136  2.4954  0.6852
 5576SOL    HW227948   6.497   8.267   4.347  1.0041 -0.7314  1.0205
 5577SOL     OW27949   8.728   5.132   1.836  0.5517 -0.8759 -0.0274
 5577SOL    HW127950   8.765   5.202   1.896 -1.5559  0.9761 -0.8048
 5577SOL    HW227951   8.779   5.130   1.750  0.4725 -0.1211 -0.0914
 5578SOL     OW27952   5.960   4.597   1.907 -0.1037 -0.4533 -0.0658
 5578SOL    HW127953   6.056   4.578   1.928  0.0044 -0.8214 -0.8690
 5578SOL    HW227954   5.916   4.513   1.875 -0.5542 -0.1577 -0.2260
 5579SOL     OW27955   3.788   6.191   4.257 -0.2689 -0.2701 -0.4054
 5579SOL    HW127956   3.778   6.282   4.216 -3.6192 -0.6244 -0.5144
 5579SOL    HW227957   3.840   6.132   4.196 -0.2040  0.8626 -1.4694
 5580SOL     OW27958   9.725   6.239   2.396  0.2780  0.2138  0.1868
 5580SOL    HW127959   9.646   6.275   2.445 -0.3405 -1.0368  0.1155
 5580SOL    HW227960   9.695   6.177   2.324  1.2601  0.8921 -0.8114
 5581SOL     OW27961   1.605   0.998   0.615 -0.3763 -0.4494 -0.2281
 5581SOL    HW127962   1.652   0.935   0.553 -0.5382 -1.2804  0.4735
 5581SOL    HW227963   1.667   1.074   0.638 -0.1498 -0.3911 -1.0157
 5582SOL     OW27964   0.435   9.050   4.097  0.1639 -0.5938 -1.4465
 5582SOL    HW127965   0.493   9.025   4.175 -1.1013 -1.0378 -0.6187
 5582SOL    HW227966   0.432   9.149   4.088  0.0491 -0.5252 -0.7007
 5583SOL     OW27967   5.124   1.326   3.192 -0.4932  0.9405  0.6341
 5583SOL    HW127968   5.217   1.362   3.195 -1.5626  3.8467  0.9603
 5583SOL    HW227969   5.077   1.362   3.111 -1.0647 -1.2153 -0.0111
 5584SOL     OW27970   8.392   2.646   3.446 -0.1640  0.2599  0.2502
 5584SOL    HW127971   8.335   2.564   3.444  2.4961 -1.6424  0.4527
 5584SOL    HW227972   8.356   2.709   3.515 -0.8355 -1.8043  1.8649
 5585SOL     OW27973   8.339   3.135   1.713  0.2757 -0.0800 -0.1192
 5585SOL    HW127974   8.288   3.093   1.788  0.8687  0.4032  0.5557
 5585SOL    HW227975   8.374   3.063   1.653  0.7858 -0.5331  0.7023
 5586SOL     OW27976   0.203   5.780   2.138 -0.8270  0.0245  0.5636
 5586SOL    HW127977   0.178   5.842   2.064  0.2426 -0.1934  0.0028
 5586SOL    HW227978   0.180   5.686   2.112 -0.5033 -0.0462  0.5280
 5587SOL     OW27979   2.050   8.059   5.661 -0.2031 -0.2868  0.1405
 5587SOL    HW127980   1.982   7.985   5.667 -1.5442  1.0084  1.4109
 5587SOL    HW227981   2.055   8.092   5.567 -2.0061  0.2013  0.1920
 5588SOL     OW27982   0.286   5.580   2.736  0.8579  0.0274 -0.1078
 5588SOL    HW127983   0.374   5.534   2.734  0.9381 -0.1154  3.2888
 5588SOL    HW227984   0.300   5.677   2.758  0.1466 -0.2383  1.6227
 5589SOL     OW27985   3.890   8.079   1.326 -0.0371 -0.3091 -0.5148
 5589SOL    HW127986   3.834   8.024   1.389  0.4226 -0.5760 -0.3433
 5589SOL    HW227987   3.982   8.042   1.323  0.9796  1.9018  1.4821
 5590SOL     OW27988   3.055   6.152   0.253 -0.5983 -0.3118  0.3445
 5590SOL    HW127989   3.108   6.212   0.313 -1.4808 -0.1095  0.9423
 5590SOL    HW227990   3.093   6.060   0.256 -0.0171 -0.0705  0.4211
 5591SOL     OW27991   9.193   7.661   5.784 -0.3117  0.4382  0.2116
 5591SOL    HW127992   9.261   7.588   5.792  0.5396  1.0798 -1.0819
 5591SOL    HW227993   9.136   7.644   5.703  1.0816  2.1698 -1.1598
 5592SOL     OW27994   5.881   5.046   0.972  0.2341  0.4402 -0.2152
 5592SOL    HW127995   5.841   5.123   1.020 -0.1275 -0.2252  0.5573
 5592SOL    HW227996   5.809   4.990   0.931  0.4566  0.1239 -0.1835
 5593SOL     OW27997   1.859   6.714   5.571 -0.1649  0.7382 -0.4153
 5593SOL    HW127998   1.803   6.640   5.607 -0.0421  0.6710 -0.3643
 5593SOL    HW227999   1.956   6.692   5.584 -0.0860  0.0241 -2.1399
 5594SOL     OW28000   6.003   1.384   8.004  0.0333  0.3399  0.0135
 5594SOL    HW128001   5.936   1.312   7.984  1.5651 -0.7843 -1.2206
 5594SOL    HW228002   5.967   1.472   7.975 -0.4433 -0.4156 -1.7280
 5595SOL     OW28003   2.459   7.466   1.409  0.0928 -0.2188 -0.0847
 5595SOL    HW128004   2.499   7.391   1.355 -0.1177 -2.4575  2.7426
 5595SOL    HW228005   2.515   7.482   1.490 -2.2096 -0.2770  1.5687
 5596SOL     OW28006   1.339   0.670   1.301  0.4627  0.1106 -0.9328
 5596SOL    HW128007   1.425   0.721   1.301  0.6149 -0.1371 -0.4610
 5596SOL    HW228008   1.279   0.707   1.372  1.0606 -1.1477  0.2740
 5597SOL     OW28009   1.205   1.851   5.630 -0.4954  0.6677 -0.2205
 5597SOL    HW128010   1.285   1.834   5.687 -1.5763 -1.8592  0.6148
 5597SOL    HW228011   1.220   1.811   5.539 -0.1581  1.6419 -0.5966
 5598SOL     OW28012   7.498   0.130   3.339  0.3375 -0.3001 -0.1468
 5598SOL    HW128013   7.443   0.055   3.301  0.1199 -0.7931  1.1096
 5598SOL    HW228014   7.578   0.144   3.281 -0.9824  0.2816 -1.8773
 5599SOL     OW28015   1.952   6.252   2.198 -0.2508 -0.1562  0.1742
 5599SOL    HW128016   2.047   6.234   2.224 -0.0409 -0.5003 -0.7878
 5599SOL    HW228017   1.939   6.350   2.182 -0.1579 -0.0600  0.6901
 5600SOL     OW28018   5.669   8.572   2.681 -0.0053 -0.0980  0.7739
 5600SOL    HW128019   5.750   8.618   2.717  0.6517 -1.7375  1.4393
 5600SOL    HW228020   5.591   8.634   2.686  1.2842  1.6671 -0.3072
 5601SOL     OW28021   7.641   6.206   2.023  0.2217 -0.4566  0.3161
 5601SOL    HW128022   7.707   6.158   1.965 -0.9121 -1.4952 -0.1393
 5601SOL    HW228023   7.643   6.168   2.115  0.4101 -0.3409  0.3602
 5602SOL     OW28024   1.251   8.023   3.047 -0.5929  0.6057 -0.0195
 5602SOL    HW128025   1.259   8.043   2.949  2.6950  1.8127  0.4319
 5602SOL    HW228026   1.317   7.952   3.072 -0.5471  1.1739  1.5401
 5603SOL     OW28027   7.767   9.161   4.613  0.0161 -0.1894  0.0024
 5603SOL    HW128028   7.816   9.243   4.640  0.3255 -0.0936 -0.8193
 5603SOL    HW228029   7.759   9.159   4.513 -0.6120 -0.7962  0.0653
 5604SOL     OW28030   5.197   8.153   5.003 -0.2842 -0.5695 -0.3538
 5604SOL    HW128031   5.143   8.227   5.042 -2.2986 -2.1190 -0.1037
 5604SOL    HW228032   5.180   8.148   4.904  1.2286  0.4163 -0.6746
 5605SOL     OW28033   0.641   3.297   2.891  0.6383 -0.0984  0.3558
 5605SOL    HW128034   0.696   3.359   2.835  1.8906 -1.2712  0.2527
 5605SOL    HW228035   0.702   3.234   2.940 -0.4818  0.2411  2.2395
 5606SOL     OW28036   1.951   7.064   3.068 -0.5620  0.4551 -0.5995
 5606SOL    HW128037   1.854   7.079   3.051 -0.2523  1.4163 -1.5755
 5606SOL    HW228038   1.964   7.033   3.163 -1.7701  0.7657 -0.3267
 5607SOL     OW28039   4.534   2.136   2.137  0.9889 -0.3200  0.1948
 5607SOL    HW128040   4.585   2.092   2.063 -1.0080  0.4471 -1.6875
 5607SOL    HW228041   4.587   2.212   2.173  2.4282 -1.3389  0.2574
 5608SOL     OW28042   4.349   6.498   3.435  0.6344 -0.1600 -0.3453
 5608SOL    HW128043   4.418   6.437   3.473  1.4110  0.1329 -1.2712
 5608SOL    HW228044   4.258   6.459   3.449  0.9077 -0.0776  1.7722
 5609SOL     OW28045   3.560   0.311   3.518 -0.3290  0.5219  0.6374
 5609SOL    HW128046   3.598   0.244   3.454  1.3478  2.5067 -0.5238
 5609SOL    HW228047   3.564   0.274   3.611 -1.4809 -1.8310 -0.2192
 5610SOL     OW28048   6.934   9.905   4.554  0.2162  0.1499 -0.7614
 5610SOL    HW128049   6.837   9.928   4.548  0.3949  2.2078  3.1392
 5610SOL    HW228050   6.989   9.988   4.549  1.4893 -0.4751  2.2053
 5611SOL     OW28051   7.973   0.119   5.881  0.6626  0.2930 -0.0479
 5611SOL    HW128052   8.069   0.143   5.895  1.2538 -1.0504 -1.6730
 5611SOL    HW228053   7.962   0.077   5.791 -0.9816 -2.0033  1.1806
 5612SOL     OW28054   8.064   7.349   5.920 -0.4864  0.2236 -0.0646
 5612SOL    HW128055   8.143   7.391   5.965 -0.2466  0.4329 -0.6726
 5612SOL    HW228056   8.019   7.287   5.984  1.1737 -1.2074 -0.2567
 5613SOL     OW28057   3.065   7.684   4.044 -0.2328 -0.4932 -0.2303
 5613SOL    HW128058   3.138   7.638   3.994 -0.4871 -0.3263 -0.7596
 5613SOL    HW228059   2.977   7.640   4.023  0.1371 -3.0124  3.1709
 5614SOL     OW28060   0.985   1.007   4.297 -0.1988  0.3445  0.1954
 5614SOL    HW128061   1.080   0.992   4.271  0.1973  0.8593  1.3051
 5614SOL    HW228062   0.945   0.921   4.328 -0.2889 -0.0030 -0.8553
 5615SOL     OW28063   3.583   1.056   0.420  0.0928  0.8355  0.0150
 5615SOL    HW128064   3.570   1.077   0.516 -1.3242 -1.5914  0.4092
 5615SOL    HW228065   3.680   1.041   0.401  0.4101  1.6899  0.9665
 5616SOL     OW28066   8.833   8.723   4.019 -0.1569  0.3799 -0.2609
 5616SOL    HW128067   8.933   8.728   4.017 -0.0218 -1.6527  0.8540
 5616SOL    HW228068   8.799   8.771   4.100  0.1822 -2.4491  1.5985
 5617SOL     OW28069   1.193   2.101   6.067 -0.1527 -0.1753  0.4466
 5617SOL    HW128070   1.115   2.103   6.130 -1.3857 -0.6367 -1.0257
 5617SOL    HW228071   1.168   2.048   5.985  1.0318  1.3493 -0.9325
 5618SOL     OW28072   0.740   8.968   0.736 -0.3370  0.1768  0.1403
 5618SOL    HW128073   0.685   9.015   0.805  0.5136  0.8724  0.3602
 5618SOL    HW228074   0.745   9.023   0.653  1.1420  0.7726  0.6021
 5619SOL     OW28075   4.308   7.282   2.762 -0.6094 -0.0507  0.2121
 5619SOL    HW128076   4.350   7.307   2.850 -1.3518  0.9051  0.2991
 5619SOL    HW228077   4.322   7.184   2.746 -3.1081 -0.9056  2.8697
 5620SOL     OW28078   4.659   5.425   0.977 -0.2088 -0.0719 -0.5013
 5620SOL    HW128079   4.593   5.499   0.961  0.2208 -0.0813 -2.5278
 5620SOL    HW228080   4.682   5.382   0.889  1.3529 -1.0440  0.3648
 5621SOL     OW28081   8.469   9.700   0.491 -0.1614  0.4180 -0.0031
 5621SOL    HW128082   8.372   9.681   0.472  0.1400 -0.8496 -0.2976
 5621SOL    HW228083   8.489   9.796   0.469 -1.4807  0.8455  0.6158
 5622SOL     OW28084   9.804   7.031   0.053 -0.1080  0.0396 -0.2016
 5622SOL    HW128085   9.891   7.049   0.099 -0.2076 -0.2256  0.0939
 5622SOL    HW228086   9.819   7.030  -0.046  0.4163 -0.9490 -0.1275
 5623SOL     OW28087   1.390   9.868   2.564 -0.2379 -0.1044  0.6783
 5623SOL    HW128088   1.397   9.967   2.557  0.5368 -0.1993 -0.0107
 5623SOL    HW228089   1.351   9.831   2.480  0.9069 -0.5074  0.3166
 5624SOL     OW28090   3.813   6.310   0.026  0.1801 -0.1814  0.2319
 5624SOL    HW128091   3.839   6.406   0.018  0.0527 -0.1394  0.3186
 5624SOL    HW228092   3.714   6.303   0.032  0.0964 -0.4221 -1.2274
 5625SOL     OW28093   3.061   7.475   6.008 -0.2852 -0.1371  0.3500
 5625SOL    HW128094   3.026   7.546   6.069  0.4074  0.0134  0.5807
 5625SOL    HW228095   3.092   7.397   6.062  0.7762  0.1941  0.2271
 5626SOL     OW28096   0.829   2.662   2.119 -0.1452 -0.6772  0.4952
 5626SOL    HW128097   0.815   2.692   2.024 -0.6147  3.2976  1.7600
 5626SOL    HW228098   0.922   2.625   2.128  0.6576  0.8850 -1.0345
 5627SOL     OW28099   2.056   8.808   1.042 -0.6171 -0.3145  0.3470
 5627SOL    HW128100   2.039   8.904   1.020  0.3278  0.0886  1.3137
 5627SOL    HW228101   2.132   8.773   0.986 -3.3009 -1.5820 -2.6473
 5628SOL     OW28102   2.772   2.714   4.049  0.2916  0.5227  0.2857
 5628SOL    HW128103   2.683   2.681   4.083  0.5137  0.9074  1.2465
 5628SOL    HW228104   2.785   2.683   3.955 -0.8781  0.4853  0.1300
 5629SOL     OW28105   0.443   2.863   0.705 -0.2331 -0.2354 -0.1025
 5629SOL    HW128106   0.383   2.937   0.736  1.8341  1.7246 -0.6544
 5629SOL    HW228107   0.389   2.795   0.655 -2.5023 -0.1361  2.0732
 5630SOL     OW28108   7.526   9.603   6.066 -0.5121  0.3712  0.0504
 5630SOL    HW128109   7.497   9.682   6.120 -1.9124  1.7157 -2.5547
 5630SOL    HW228110   7.612   9.624   6.019 -0.4084  0.0160  0.0800
 5631SOL     OW28111   1.791   2.544   2.204 -0.2371  0.8640  0.6375
 5631SOL    HW128112   1.858   2.492   2.258  0.9360 -0.1989 -1.7515
 5631SOL    HW228113   1.819   2.640   2.200  0.1577  0.7739  1.1419
 5632SOL     OW28114   9.067   4.106   8.035  0.1474  0.1431  0.0216
 5632SOL    HW128115   9.088   4.148   7.947  1.4821 -0.0715  0.2289
 5632SOL    HW228116   9.007   4.167   8.087  0.7358  1.0622 -0.3503
 5633SOL     OW28117   0.315   9.729   5.657  0.1974 -0.1265 -0.6287
 5633SOL    HW128118   0.387   9.746   5.590  1.5174 -2.2487  0.2375
 5633SOL    HW228119   0.275   9.817   5.685  2.8251  1.1183 -0.6695
 5634SOL     OW28120   3.109   0.858   4.118 -0.3418 -0.3036  0.3296
 5634SOL    HW128121   3.073   0.768   4.142 -1.5618  0.6379  2.1333
 5634SOL    HW228122   3.209   0.853   4.115 -0.2891 -1.2778  2.4141
 5635SOL     OW28123   5.725   0.359   3.688  0.3926 -0.3086  0.1113
 5635SOL    HW128124   5.685   0.290   3.748  0.8115 -1.2103 -0.6346
 5635SOL    HW228125   5.727   0.324   3.594  1.5606  0.3183 -0.1037
 5636SOL     OW28126   5.060   6.866   1.051  0.3635 -0.0959 -0.1941
 5636SOL    HW128127   4.992   6.936   1.033 -0.5594 -0.9840 -0.1947
 5636SOL    HW228128   5.142   6.908   1.090  0.2243  1.1038 -1.1876
 5637SOL     OW28129   0.485   2.157   3.207  0.0634 -0.1390  0.1960
 5637SOL    HW128130   0.439   2.068   3.214  0.6711 -0.4188  0.7381
 5637SOL    HW228131   0.417   2.230   3.206 -0.5923 -0.7422 -3.3655
 5638SOL     OW28132   1.798   5.780   5.440 -0.0176  0.4343 -0.1602
 5638SOL    HW128133   1.856   5.795   5.520 -1.5239  0.3569  0.9549
 5638SOL    HW228134   1.810   5.855   5.376  0.5321  0.9390  0.5303
 5639SOL     OW28135   1.834   0.580   5.871 -0.3542 -0.1537 -0.1024
 5639SOL    HW128136   1.913   0.563   5.930 -1.8276 -0.3019  1.8818
 5639SOL    HW228137   1.835   0.676   5.841 -0.0257  0.1418  0.8303
 5640SOL     OW28138   6.783   7.914   4.010  0.0324  0.1171  0.1806
 5640SOL    HW128139   6.874   7.871   4.007 -0.1480 -0.2947  0.5846
 5640SOL    HW228140   6.782   7.983   4.083 -0.6164 -1.3436  1.5723
 5641SOL     OW28141   8.974   1.027   6.613  0.0107  0.0120  0.0276
 5641SOL    HW128142   9.002   0.989   6.701  0.8698  0.9078  0.1423
 5641SOL    HW228143   9.054   1.036   6.553 -0.5574 -0.5500 -0.8331
 5642SOL     OW28144   8.963   8.052   0.482 -0.3006 -0.2849  0.5825
 5642SOL    HW128145   8.972   7.959   0.446 -1.4371 -0.1612 -0.0721
 5642SOL    HW228146   8.880   8.057   0.538 -0.0391  0.2460  0.9229
 5643SOL     OW28147   4.156   7.894   3.833  0.5183  0.0713 -0.4497
 5643SOL    HW128148   4.165   7.801   3.798  1.5163  0.1166 -0.3278
 5643SOL    HW228149   4.064   7.906   3.871  0.0837 -0.5820 -1.2574
 5644SOL     OW28150   7.788   1.533   4.804 -0.1661 -0.0660  0.4253
 5644SOL    HW128151   7.693   1.506   4.817 -0.1807 -0.3059 -0.1612
 5644SOL    HW228152   7.848   1.454   4.815 -0.0812 -0.0254  0.2664
 5645SOL     OW28153   2.838   1.920   5.353  0.0349  0.4283 -0.0930
 5645SOL    HW128154   2.814   1.890   5.446 -1.1435 -1.6416 -1.0099
 5645SOL    HW228155   2.818   2.017   5.342 -2.6537  0.0209  0.9289
 5646SOL     OW28156   3.556   3.528   3.512  0.1937 -0.1490  0.4135
 5646SOL    HW128157   3.649   3.565   3.517 -0.3912  1.3345  0.7412
 5646SOL    HW228158   3.525   3.504   3.605 -0.0644  0.1725  0.4115
 5647SOL     OW28159   3.601   1.742   0.538  0.2820  0.1300  0.2247
 5647SOL    HW128160   3.671   1.735   0.467 -0.3313 -0.1710 -0.3562
 5647SOL    HW228161   3.600   1.657   0.592  0.0751 -0.0343 -0.0375
 5648SOL     OW28162   9.158   5.743   1.384  0.0080 -0.4934 -0.6164
 5648SOL    HW128163   9.215   5.784   1.455 -0.4868 -2.4571  0.9467
 5648SOL    HW228164   9.216   5.714   1.308  0.6164  0.9731 -0.7356
 5649SOL     OW28165   1.260   0.298   5.844 -0.5045 -0.1808  0.6991
 5649SOL    HW128166   1.174   0.333   5.808 -0.4638 -0.6779  0.1230
 5649SOL    HW228167   1.254   0.199   5.856  1.3962 -0.9114 -3.4439
 5650SOL     OW28168   0.547   3.366   1.277 -0.1127 -0.1896  0.2041
 5650SOL    HW128169   0.546   3.266   1.264 -2.2185 -0.3477  1.3299
 5650SOL    HW228170   0.494   3.389   1.358  1.0785  1.8035  0.4211
 5651SOL     OW28171   7.560   2.426   3.399 -0.4651  0.5621 -0.6172
 5651SOL    HW128172   7.642   2.371   3.386  0.4520  1.6849  0.2710
 5651SOL    HW228173   7.505   2.425   3.315 -0.6019 -1.8859 -0.5309
 5652SOL     OW28174   5.685   1.549   5.510 -0.1021  0.6960  0.3461
 5652SOL    HW128175   5.621   1.619   5.540 -1.7930 -0.2735 -0.9031
 5652SOL    HW228176   5.651   1.507   5.426  2.0708  0.0006 -0.2262
 5653SOL     OW28177   1.121   2.801   0.867  0.0092 -0.2618  0.0982
 5653SOL    HW128178   1.116   2.891   0.910 -2.1788  0.2877 -1.2264
 5653SOL    HW228179   1.200   2.797   0.806 -0.1124  0.8986 -0.1362
 5654SOL     OW28180   0.382   8.035   3.818 -0.0899 -0.0092 -0.3678
 5654SOL    HW128181   0.454   7.986   3.769  0.7219  0.7290  0.0860
 5654SOL    HW228182   0.308   8.056   3.754  0.3070 -0.3461 -0.9444
 5655SOL     OW28183   1.257   8.926   5.811  0.3632  0.4635 -0.2299
 5655SOL    HW128184   1.291   8.933   5.717  4.6258  0.3369  1.2287
 5655SOL    HW228185   1.312   8.859   5.862 -1.7062  0.7329  2.4722
 5656SOL     OW28186   9.777   8.478   5.963 -0.8673  0.8071 -0.0402
 5656SOL    HW128187   9.864   8.526   5.952  1.5475 -2.2851  3.9255
 5656SOL    HW228188   9.774   8.399   5.902 -1.3012  1.4064 -0.8006
 5657SOL     OW28189   4.965   1.042   5.976 -0.1146 -0.2261  0.0610
 5657SOL    HW128190   4.948   1.024   6.073 -1.2735 -0.6353 -0.2065
 5657SOL    HW228191   5.051   1.092   5.966 -0.4587  0.6756  1.3839
 5658SOL     OW28192   4.489   1.348   0.288  0.0653 -0.7223 -0.3250
 5658SOL    HW128193   4.553   1.377   0.217  1.4368  0.3508  1.3027
 5658SOL    HW228194   4.417   1.416   0.298  0.1697 -0.6106 -0.3286
 5659SOL     OW28195   0.824   8.182   4.654 -0.0326 -0.2700  0.1038
 5659SOL    HW128196   0.899   8.116   4.649  0.8949  0.8885 -2.9536
 5659SOL    HW228197   0.770   8.177   4.570 -1.3951  1.1847  0.8617
 5660SOL     OW28198   2.894   7.161   3.238  0.4164 -0.2337  0.2837
 5660SOL    HW128199   2.814   7.214   3.209  0.7341  0.6594  1.0114
 5660SOL    HW228200   2.920   7.189   3.331  0.7972 -1.4324  0.5424
 5661SOL     OW28201   6.182   9.103   2.529 -0.1661  0.4206 -0.1985
 5661SOL    HW128202   6.273   9.078   2.564 -1.0738 -1.3702  0.9673
 5661SOL    HW228203   6.153   9.190   2.569  1.9884  2.1992 -2.3517
 5662SOL     OW28204   2.128   9.370   5.893  0.0474  0.2219  0.2088
 5662SOL    HW128205   2.192   9.446   5.905 -0.1250  0.7531 -2.0204
 5662SOL    HW228206   2.077   9.382   5.808  0.5622 -2.7478 -0.5897
 5663SOL     OW28207   7.015   7.588   5.564  0.1154 -0.0247  0.0381
 5663SOL    HW128208   7.013   7.664   5.498 -1.3753 -1.6010 -1.7908
 5663SOL    HW228209   7.009   7.501   5.515 -3.9417 -1.1799  2.3690
 5664SOL     OW28210   6.330   8.320   2.608 -0.0566 -0.6402  0.4598
 5664SOL    HW128211   6.286   8.269   2.533 -1.9018  0.3408  0.8373
 5664SOL    HW228212   6.367   8.255   2.674 -2.8636 -1.5674  1.2068
 5665SOL     OW28213   9.589   8.322   4.469  0.0752  0.1407  1.1117
 5665SOL    HW128214   9.575   8.361   4.560 -0.4162  0.3401  0.9532
 5665SOL    HW228215   9.524   8.246   4.456 -1.0620  1.2391  0.2660
 5666SOL     OW28216   9.865   1.461   3.444 -0.0012 -0.2134  0.0853
 5666SOL    HW128217   9.832   1.533   3.506  0.5698  0.1268  0.0025
 5666SOL    HW228218   9.788   1.408   3.410 -0.4952  0.7804 -0.3691
 5667SOL     OW28219   8.603   1.115   5.241 -0.0249  0.5931 -0.0918
 5667SOL    HW128220   8.532   1.146   5.304 -0.6646 -0.4904 -0.2610
 5667SOL    HW228221   8.587   1.019   5.217  0.9565  0.6124 -0.8783
 5668SOL     OW28222   5.974   9.827   6.097  0.1172 -0.3338 -0.2057
 5668SOL    HW128223   6.017   9.915   6.118  2.4012 -1.6014  0.4929
 5668SOL    HW228224   6.040   9.766   6.055 -2.0525 -0.9845 -2.8452
 5669SOL     OW28225   7.003   0.762   1.457  0.3639 -0.1855 -0.0184
 5669SOL    HW128226   7.021   0.860   1.463 -0.4324 -0.1593  2.6280
 5669SOL    HW228227   6.904   0.746   1.466  0.3868 -1.1639 -1.4055
 5670SOL     OW28228   2.399   4.431   5.938 -0.4466  0.2946  0.2370
 5670SOL    HW128229   2.357   4.485   6.011  0.4097  1.2946  0.0112
 5670SOL    HW228230   2.370   4.336   5.945 -3.7251  1.1815 -0.6405
 5671SOL     OW28231   3.885   0.345   1.752 -0.3961  0.4170  0.1168
 5671SOL    HW128232   3.788   0.323   1.747 -0.3233  0.2187 -0.4685
 5671SOL    HW228233   3.939   0.268   1.717 -0.1565  1.7026 -2.4377
 5672SOL     OW28234   0.428   9.336   4.967 -0.5729  0.1022 -0.8239
 5672SOL    HW128235   0.495   9.303   5.034 -1.5907 -0.5755 -0.1164
 5672SOL    HW228236   0.459   9.316   4.875  1.1635  1.6185 -0.6025
 5673SOL     OW28237   3.518   0.219   5.140 -0.1326  0.0951  0.1519
 5673SOL    HW128238   3.421   0.214   5.115  0.2609 -3.9646 -1.0551
 5673SOL    HW228239   3.541   0.140   5.197  2.8246  0.0604 -1.0179
 5674SOL     OW28240   7.057   0.925   1.804  0.4867 -0.2384 -0.0552
 5674SOL    HW128241   6.959   0.929   1.821  0.4433 -0.4200 -0.2673
 5674SOL    HW228242   7.079   0.843   1.750  0.4746  0.9615 -1.9047
 5675SOL     OW28243   2.810   7.161   4.010 -0.3007 -0.6864 -0.5563
 5675SOL    HW128244   2.794   7.206   4.098 -1.8750 -1.8675 -0.2122
 5675SOL    HW228245   2.908   7.148   3.996 -0.0340 -0.3260  0.9457
 5676SOL     OW28246   3.219   0.243   5.211  0.3140 -0.1038 -0.3239
 5676SOL    HW128247   3.246   0.221   5.305 -0.9361  0.9442  0.3081
 5676SOL    HW228248   3.126   0.209   5.195 -0.6823  2.3736 -0.1405
 5677SOL     OW28249   4.371   1.652   6.203  0.0480 -0.3227 -0.1704
 5677SOL    HW128250   4.310   1.698   6.139  0.3494 -0.0073 -0.2350
 5677SOL    HW228251   4.317   1.606   6.274 -0.3051 -1.1356 -0.9652
 5678SOL     OW28252   3.372   3.069   1.705  0.5451 -0.2935  0.1480
 5678SOL    HW128253   3.413   2.978   1.701  0.1576 -0.5040  0.9927
 5678SOL    HW228254   3.341   3.088   1.798  0.3415  0.5791 -0.0937
 5679SOL     OW28255   0.991   4.904   2.648  0.3605 -0.1681 -0.0935
 5679SOL    HW128256   0.918   4.969   2.670 -1.3152 -1.9599 -0.2980
 5679SOL    HW228257   1.048   4.890   2.730  0.7553  1.5322 -0.0448
 5680SOL     OW28258   7.526   4.019   1.428 -0.0272 -0.3478 -0.0429
 5680SOL    HW128259   7.537   4.072   1.513  0.7659  0.9197 -0.9233
 5680SOL    HW228260   7.613   3.973   1.407  0.9906  2.4294 -2.1931
 5681SOL     OW28261   9.644   8.593   1.394  0.2723  0.3186  0.2011
 5681SOL    HW128262   9.615   8.612   1.487 -1.8047 -0.0722 -0.3342
 5681SOL    HW228263   9.602   8.659   1.331 -1.3251 -1.6414 -0.8520
 5682SOL     OW28264   7.318   8.658   3.930  0.3109  0.0823 -0.2542
 5682SOL    HW128265   7.379   8.662   4.010  0.3413 -0.5760 -0.2356
 5682SOL    HW228266   7.275   8.568   3.927  0.6875 -0.0699 -1.2579
 5683SOL     OW28267   9.808   4.552   5.219 -0.0793 -0.0196  0.0584
 5683SOL    HW128268   9.777   4.468   5.175 -1.1595  0.2153  0.3536
 5683SOL    HW228269   9.834   4.619   5.149  2.3639 -1.1649 -0.1606
 5684SOL     OW28270   6.665   7.742   5.198 -0.6514 -0.6313  0.0451
 5684SOL    HW128271   6.662   7.652   5.241  0.6209 -1.1498 -0.8990
 5684SOL    HW228272   6.728   7.739   5.120 -1.1825  0.8767 -0.4564
 5685SOL     OW28273   0.740   9.513   5.610  0.0719 -0.1936  0.2824
 5685SOL    HW128274   0.773   9.575   5.682 -1.5624  1.5056 -0.3718
 5685SOL    HW228275   0.640   9.516   5.609  0.0630 -1.1037 -1.3016
 5686SOL     OW28276   8.869   2.008   0.877  0.1306 -0.1999  0.3119
 5686SOL    HW128277   8.907   1.918   0.855 -1.1723 -0.8172  0.5449
 5686SOL    HW228278   8.903   2.076   0.812  0.1826 -1.0851 -0.5872
 5687SOL     OW28279   4.747   7.417   3.267 -0.0597  0.7189 -0.6339
 5687SOL    HW128280   4.784   7.331   3.232  0.1247  1.3464 -2.0461
 5687SOL    HW228281   4.815   7.461   3.326  0.1192  0.2403 -0.4803
 5688SOL     OW28282   3.035   9.129   0.651 -0.7004 -0.1191  0.4604
 5688SOL    HW128283   3.065   9.135   0.556 -0.6450 -0.8729  0.4262
 5688SOL    HW228284   2.951   9.182   0.663 -0.4544  0.3552  0.0996
 5689SOL     OW28285   7.861   5.893   1.067  0.1715  0.4967 -0.2420
 5689SOL    HW128286   7.884   5.854   1.156 -1.3787 -0.4178 -0.2136
 5689SOL    HW228287   7.782   5.954   1.077  0.5801  1.1210 -0.8244
 5690SOL     OW28288   3.096   0.634   3.530  0.0800 -0.6081  0.5340
 5690SOL    HW128289   3.056   0.679   3.610  1.1972  0.2096  0.6507
 5690SOL    HW228290   3.192   0.662   3.521 -0.2684 -0.0161 -1.5909
 5691SOL     OW28291   8.458   0.483   2.256 -0.1527  0.4712  0.2803
 5691SOL    HW128292   8.393   0.412   2.228 -1.6451  0.7573  2.9005
 5691SOL    HW228293   8.436   0.568   2.208 -1.5690  0.5022  0.9650
 5692SOL     OW28294   6.948   1.701   4.685 -0.4162  0.2756 -0.2367
 5692SOL    HW128295   6.917   1.772   4.622 -1.5965  0.7671  0.8757
 5692SOL    HW228296   6.898   1.709   4.771  0.3087 -1.1525  0.3290
 5693SOL     OW28297   5.650   3.450   0.475 -0.7565  0.1896 -0.3017
 5693SOL    HW128298   5.691   3.409   0.394  1.6722  1.2166  0.3811
 5693SOL    HW228299   5.684   3.543   0.487 -0.8500 -0.0465  2.0652
 5694SOL     OW28300   1.486   9.537   4.397 -0.0215  0.3100 -0.0471
 5694SOL    HW128301   1.489   9.501   4.490 -1.4075  2.9494  1.0903
 5694SOL    HW228302   1.576   9.570   4.370  0.5086 -0.9875  0.1440
 5695SOL     OW28303   8.309   2.189   3.000 -0.1743  0.5778  0.1905
 5695SOL    HW128304   8.283   2.268   2.945 -0.4244  0.3635  0.0005
 5695SOL    HW228305   8.363   2.126   2.944  0.3722  0.8038  0.4537
 5696SOL     OW28306   0.114   5.913   3.195  0.2763  0.1629 -0.1452
 5696SOL    HW128307   0.060   5.932   3.277 -1.6865 -4.1142 -0.3419
 5696SOL    HW228308   0.059   5.931   3.114  1.5076  2.3306 -0.5394
 5697SOL     OW28309   6.506   2.747   4.475 -0.1957  0.4920 -0.2906
 5697SOL    HW128310   6.462   2.834   4.497  0.8660  0.9571  0.0044
 5697SOL    HW228311   6.455   2.702   4.402 -3.1710 -0.5676  2.3290
 5698SOL     OW28312   2.844   8.746   0.124 -0.0207  0.4573 -0.0061
 5698SOL    HW128313   2.924   8.780   0.173  0.7163 -1.1043 -0.1075
 5698SOL    HW228314   2.776   8.714   0.190 -0.2085  0.9657  0.0535
 5699SOL     OW28315   0.595   2.831   5.421  0.2604  0.0943 -0.0151
 5699SOL    HW128316   0.614   2.928   5.405 -2.3407  0.4643 -1.0895
 5699SOL    HW228317   0.509   2.821   5.472  0.6337 -1.6465  0.3236
 5700SOL     OW28318   1.290   3.082   1.708 -0.1684 -0.5665 -0.1780
 5700SOL    HW128319   1.367   3.019   1.711  2.0258  2.0744  0.4277
 5700SOL    HW228320   1.234   3.071   1.790  0.9224 -0.8447  0.5366
 5701SOL     OW28321   3.955   6.081   1.497  0.3295  0.1021  0.3088
 5701SOL    HW128322   4.013   6.045   1.570 -0.1624 -0.6783  0.3189
 5701SOL    HW228323   3.902   6.158   1.533 -0.8230 -1.0505  1.1409
 5702SOL     OW28324   2.845   4.850   0.660 -0.0233 -0.3982 -0.6233
 5702SOL    HW128325   2.837   4.775   0.727  0.6748 -0.6096 -0.7693
 5702SOL    HW228326   2.929   4.901   0.679 -1.0960  1.0695  0.2009
 5703SOL     OW28327   2.079   5.378   2.264  0.3694  0.2518  0.2629
 5703SOL    HW128328   2.004   5.312   2.263  1.8115 -1.4312  0.7044
 5703SOL    HW228329   2.148   5.349   2.330  1.5567  1.6017 -0.3585
 5704SOL     OW28330   4.671   3.329   4.980 -0.1875 -0.3127 -0.3963
 5704SOL    HW128331   4.593   3.303   4.924 -1.0750  0.1504  0.6089
 5704SOL    HW228332   4.710   3.415   4.946 -0.9850  0.1912 -0.0494
 5705SOL     OW28333   5.934   1.803   1.512 -0.1091  0.1512  0.3954
 5705SOL    HW128334   5.886   1.819   1.599 -1.4190  1.0919 -0.4914
 5705SOL    HW228335   5.875   1.828   1.436  1.4588  0.4296 -0.7583
 5706SOL     OW28336   9.461   2.466   4.912 -0.3273  0.7136  0.0597
 5706SOL    HW128337   9.388   2.413   4.955  1.7397  0.1626  3.0659
 5706SOL    HW228338   9.424   2.554   4.882 -2.4092  0.1444  0.8180
 5707SOL     OW28339   6.029   9.450   3.627  0.0808 -0.1471  0.1578
 5707SOL    HW128340   6.127   9.435   3.610  0.3997  1.1473  0.7775
 5707SOL    HW228341   5.978   9.369   3.599  1.3263 -0.8227 -0.2219
 5708SOL     OW28342   5.940   5.097   0.278 -0.1992 -0.0211 -0.1446
 5708SOL    HW128343   5.856   5.142   0.309  0.4912  0.6601  0.7895
 5708SOL    HW228344   5.941   5.002   0.310 -0.8757 -0.2066 -0.6603
 5709SOL     OW28345   9.364   0.445   0.335 -0.3877 -0.1516  0.4009
 5709SOL    HW128346   9.423   0.484   0.264  2.3681 -0.8372  2.2710
 5709SOL    HW228347   9.304   0.377   0.294  1.2120 -0.5908 -1.2771
 5710SOL     OW28348   1.666   3.643   4.190 -0.1183  0.2806 -0.0757
 5710SOL    HW128349   1.594   3.589   4.145  0.6409 -2.0032  1.3697
 5710SOL    HW228350   1.643   3.740   4.184 -2.1731 -0.2567 -1.6080
 5711SOL     OW28351   1.499   6.947   3.479  0.2318  0.2745 -0.0701
 5711SOL    HW128352   1.563   6.890   3.530 -0.4020 -1.4310 -1.1376
 5711SOL    HW228353   1.511   7.042   3.506  0.6296 -0.4468  2.4889
 5712SOL     OW28354   7.783   4.438   2.650  0.0929 -0.3997 -0.1727
 5712SOL    HW128355   7.874   4.404   2.623  0.0759 -0.9546  0.4433
 5712SOL    HW228356   7.720   4.360   2.657 -0.6447  0.0731 -1.3934
 5713SOL     OW28357   6.718   2.348   4.636  0.3066 -0.1520  0.3399
 5713SOL    HW128358   6.753   2.377   4.547  1.0544  0.7358  0.9214
 5713SOL    HW228359   6.705   2.249   4.636 -0.5753 -0.0570 -1.0650
 5714SOL     OW28360   2.000   8.086   2.683  0.0975 -0.6163 -0.1908
 5714SOL    HW128361   2.049   8.040   2.608 -0.2405 -0.9130 -0.2281
 5714SOL    HW228362   2.057   8.159   2.719  1.0949 -1.7698  0.6005
 5715SOL     OW28363   0.972   0.887   2.877 -0.1406 -0.5775 -0.2864
 5715SOL    HW128364   0.941   0.907   2.970 -3.1064  0.0675 -1.3484
 5715SOL    HW228365   0.911   0.818   2.837 -0.5248  1.0773 -2.6420
 5716SOL     OW28366   0.216   2.596   4.633  0.4297 -0.1390  0.0374
 5716SOL    HW128367   0.219   2.696   4.631 -1.9507 -0.0395  0.2434
 5716SOL    HW228368   0.234   2.564   4.726  1.9722  0.0434 -0.1834
 5717SOL     OW28369   6.289   9.345   5.981 -0.2435  0.3720  0.4029
 5717SOL    HW128370   6.345   9.280   6.033  0.1687 -0.5552 -1.1535
 5717SOL    HW228371   6.348   9.399   5.921 -0.9801 -0.8593 -1.5163
 5718SOL     OW28372   8.156   1.194   3.251 -0.2599  0.3093  0.1491
 5718SOL    HW128373   8.251   1.165   3.240 -0.0028  1.0431  0.3912
 5718SOL    HW228374   8.108   1.130   3.310  0.1716  0.1175  0.2921
 5719SOL     OW28375   2.471   1.305   2.975  0.4409  0.5321 -0.5970
 5719SOL    HW128376   2.540   1.243   2.937 -0.7198 -1.5309  0.5909
 5719SOL    HW228377   2.501   1.339   3.064  0.0006 -0.2798 -0.1297
 5720SOL     OW28378   7.368   7.209   4.712 -0.3075  0.1958 -0.0860
 5720SOL    HW128379   7.387   7.140   4.643 -0.0283  1.5069 -1.3584
 5720SOL    HW228380   7.413   7.295   4.686 -3.4644  1.8413 -0.3572
 5721SOL     OW28381   4.199   8.093   4.304  0.1424 -1.1364 -0.1617
 5721SOL    HW128382   4.101   8.110   4.312  0.0046 -1.7224 -0.5518
 5721SOL    HW228383   4.216   8.025   4.232  1.1620  1.8813 -2.8555
 5722SOL     OW28384   6.934   8.168   6.805 -0.6632  0.6450  0.1472
 5722SOL    HW128385   7.030   8.142   6.805  0.1400  3.3927 -0.2545
 5722SOL    HW228386   6.926   8.264   6.833 -3.2863  0.4272  0.2253
 5723SOL     OW28387   4.424   0.815   3.285 -0.1287  0.7810 -0.2298
 5723SOL    HW128388   4.374   0.794   3.202 -1.3000 -2.4250  1.2129
 5723SOL    HW228389   4.362   0.813   3.363  1.9966 -2.5763  1.5229
 5724SOL     OW28390   0.016   7.834   3.325 -0.0883  0.0022 -0.2604
 5724SOL    HW128391  -0.054   7.905   3.313  0.5108  0.8867  1.2352
 5724SOL    HW228392   0.106   7.872   3.303  0.0768 -0.7183 -0.8335
 5725SOL     OW28393   6.467   0.945   1.339 -0.2710 -0.1891 -0.0620
 5725SOL    HW128394   6.435   0.964   1.432  4.5699  0.9685  1.4985
 5725SOL    HW228395   6.476   1.032   1.290 -1.6193 -0.7081 -1.2656
 5726SOL     OW28396   2.355   9.513   1.752  0.2189  0.2869 -0.3732
 5726SOL    HW128397   2.436   9.499   1.809 -0.1885  0.9271  0.3747
 5726SOL    HW228398   2.365   9.596   1.697 -0.6520  1.3393  1.0236
 5727SOL     OW28399   5.063   9.724   2.984 -0.4668 -0.3690  0.0521
 5727SOL    HW128400   5.136   9.664   3.016  0.0329  0.4086  0.3783
 5727SOL    HW228401   4.978   9.672   2.977  0.0823 -1.2393 -0.1839
 5728SOL     OW28402   3.150   4.790   1.225  0.0502  0.2520 -0.2755
 5728SOL    HW128403   3.246   4.798   1.253  0.6204 -0.9211 -1.7912
 5728SOL    HW228404   3.091   4.820   1.299  1.5788  0.2813  0.9655
 5729SOL     OW28405   9.991   9.531   3.139  0.0421 -0.2716  0.2328
 5729SOL    HW128406  10.005   9.522   3.040  0.7150  0.7602  0.2283
 5729SOL    HW228407  10.044   9.460   3.186  0.1475 -0.4306 -0.1210
 5730SOL     OW28408   5.376   0.867   6.289  0.5142 -0.3251  0.2675
 5730SOL    HW128409   5.279   0.884   6.308  0.6120  1.4809 -0.6792
 5730SOL    HW228410   5.386   0.834   6.195  0.9684  1.7051 -0.4438
 5731SOL     OW28411   5.917   4.799   1.716 -0.2438  1.0655 -0.3627
 5731SOL    HW128412   5.937   4.741   1.795  0.6035  0.8351 -0.7314
 5731SOL    HW228413   5.842   4.760   1.663  0.6030  0.0661 -0.8416
 5732SOL     OW28414   8.041   8.860   1.881  0.0837 -0.1060 -0.1681
 5732SOL    HW128415   8.010   8.879   1.975 -0.1229 -2.0585  0.1821
 5732SOL    HW228416   8.009   8.933   1.821  1.6646  2.0629  1.5465
 5733SOL     OW28417   2.430   0.859   2.511  0.1048  0.2331 -0.1906
 5733SOL    HW128418   2.479   0.777   2.480 -0.4808 -0.0889 -0.2684
 5733SOL    HW228419   2.446   0.933   2.446 -0.5986 -0.2561 -0.9353
 5734SOL     OW28420   2.980   4.783   5.176  0.1511 -0.1226  0.2639
 5734SOL    HW128421   2.921   4.788   5.257 -1.8093 -1.8054 -1.0034
 5734SOL    HW228422   3.065   4.736   5.200 -0.7931 -1.3982  1.1713
 5735SOL     OW28423   8.460   6.183   4.703 -0.2802 -0.7356  0.2142
 5735SOL    HW128424   8.396   6.200   4.778  0.8433  0.6051  0.8890
 5735SOL    HW228425   8.524   6.111   4.730  0.2564 -0.1078  0.6432
 5736SOL     OW28426   1.542   3.722   0.995  0.1396 -0.1021 -0.3060
 5736SOL    HW128427   1.467   3.702   1.059 -0.8349  0.8243 -1.1389
 5736SOL    HW228428   1.511   3.705   0.902  1.8849 -2.4269 -0.4913
 5737SOL     OW28429   5.416   5.915   2.424 -0.3724  0.2774 -0.2410
 5737SOL    HW128430   5.399   5.955   2.334  1.4533  0.7933 -0.3783
 5737SOL    HW228431   5.514   5.898   2.435 -0.3427  1.7207  2.2533
 5738SOL     OW28432   7.335   1.700   4.479  0.3368 -0.5977  0.3785
 5738SOL    HW128433   7.418   1.648   4.459 -0.3526 -0.7507 -2.3187
 5738SOL    HW228434   7.341   1.789   4.434 -1.2112 -0.8504 -0.3449
 5739SOL     OW28435   9.574   8.154   2.175 -0.7096  0.2258  0.4962
 5739SOL    HW128436   9.591   8.077   2.114 -2.0308 -0.2285  0.6903
 5739SOL    HW228437   9.537   8.121   2.262 -2.4791  1.1676  0.1246
 5740SOL     OW28438   4.499   8.741   5.044 -0.3913  0.4113  0.3025
 5740SOL    HW128439   4.463   8.719   5.135 -0.8769  1.1531  0.2927
 5740SOL    HW228440   4.587   8.787   5.054 -0.6624  0.9056  0.4120
 5741SOL     OW28441   2.329   7.953   4.708 -0.1104 -0.0550  0.1533
 5741SOL    HW128442   2.334   8.033   4.648  1.0761 -0.8444 -0.8030
 5741SOL    HW228443   2.244   7.903   4.690  0.2585 -0.3068 -0.9023
 5742SOL     OW28444   2.718   8.795   3.145 -0.2633  0.5063  0.3154
 5742SOL    HW128445   2.694   8.702   3.170  0.1661  0.6177  1.1952
 5742SOL    HW228446   2.639   8.854   3.157  0.1886  0.7412  2.4912
 5743SOL     OW28447   2.441   6.097   0.445  0.0736 -0.1368 -0.0472
 5743SOL    HW128448   2.373   6.067   0.512 -0.4958  0.1058 -0.5140
 5743SOL    HW228449   2.397   6.113   0.357  0.7971 -0.3247 -0.4521
 5744SOL     OW28450   7.947   3.640   5.777  0.3307 -0.4628 -0.1449
 5744SOL    HW128451   7.922   3.735   5.760 -0.4284 -0.9061 -1.5955
 5744SOL    HW228452   7.884   3.580   5.728  2.3260 -1.6802 -1.2741
 5745SOL     OW28453   1.179   6.122   1.931  0.7071  0.1431 -0.2696
 5745SOL    HW128454   1.191   6.105   2.029  0.7503  0.5112 -0.2088
 5745SOL    HW228455   1.158   6.036   1.884 -1.9191  0.3675  0.4390
 5746SOL     OW28456   0.731   6.534   4.637 -0.1254  0.1047 -0.2119
 5746SOL    HW128457   0.710   6.506   4.544 -0.9485 -1.7472  0.5122
 5746SOL    HW228458   0.721   6.456   4.699  0.5089  1.2816  1.4137
 5747SOL     OW28459   0.178   7.693   2.051 -0.2043  0.0655 -0.5477
 5747SOL    HW128460   0.156   7.634   2.129  1.8913 -0.0184  0.0002
 5747SOL    HW228461   0.103   7.757   2.036 -1.9283 -1.8215 -0.3060
 5748SOL     OW28462   3.925   9.549   5.911 -0.2691  0.8785  0.2657
 5748SOL    HW128463   3.955   9.644   5.910 -1.0714  1.1538  1.2526
 5748SOL    HW228464   3.834   9.543   5.952 -0.3246 -0.2860  0.0004
 5749SOL     OW28465   4.280   7.025   4.503  0.0449  0.1997 -0.1166
 5749SOL    HW128466   4.363   7.079   4.515 -0.3614  0.7646  0.1835
 5749SOL    HW228467   4.214   7.050   4.574 -0.4194 -0.1743 -0.4137
 5750SOL     OW28468   8.032   3.440   1.549 -0.2756 -0.0519  0.7689
 5750SOL    HW128469   7.965   3.483   1.609 -1.9798 -0.2407 -0.9360
 5750SOL    HW228470   8.036   3.342   1.569 -1.5212 -0.2768 -0.0168
 5751SOL     OW28471   0.001   6.121   4.528 -0.0255  0.2229  0.2389
 5751SOL    HW128472   0.060   6.187   4.574  1.5575  1.1255 -2.9417
 5751SOL    HW228473   0.056   6.048   4.489 -1.0748  0.5277 -1.8881
 5752SOL     OW28474   5.845   5.970   0.130  0.3967 -0.0199 -0.0108
 5752SOL    HW128475   5.911   5.947   0.058 -1.5617  1.7204 -2.4599
 5752SOL    HW228476   5.847   6.068   0.147  0.6072 -0.3801  2.1298
 5753SOL     OW28477   9.854   9.973   3.667  0.3730  0.3749  0.5852
 5753SOL    HW128478   9.887   9.885   3.633  0.3339  0.5832  0.0015
 5753SOL    HW228479   9.931  10.029   3.698  0.3153 -0.2475  1.8729
 5754SOL     OW28480   4.846   5.307   2.462 -0.0834  0.1266 -0.4203
 5754SOL    HW128481   4.779   5.328   2.390  0.1914  3.2613  0.1333
 5754SOL    HW228482   4.798   5.275   2.543 -0.8237  0.9753 -0.5091
 5755SOL     OW28483   3.587   6.755   4.576  0.5587 -0.5860 -0.3181
 5755SOL    HW128484   3.587   6.656   4.586 -0.2448 -0.7735 -2.1393
 5755SOL    HW228485   3.602   6.797   4.666 -0.1005 -2.3246  0.6242
 5756SOL     OW28486   5.426   9.912   6.889  0.8394  0.0077  0.4837
 5756SOL    HW128487   5.383   9.888   6.976 -0.0630 -1.5214 -0.3686
 5756SOL    HW228488   5.430   9.831   6.830  0.3149  1.3002 -1.3744
 5757SOL     OW28489   4.088   4.115   0.462 -0.3628 -0.2212 -0.1566
 5757SOL    HW128490   4.005   4.061   0.451 -0.5323  0.2057 -1.0410
 5757SOL    HW228491   4.064   4.209   0.487 -0.3047  0.5800 -2.8833
 5758SOL     OW28492   8.943   7.568   4.315  0.1336  0.0481 -0.4918
 5758SOL    HW128493   9.025   7.526   4.354  0.5021  0.2930 -0.9903
 5758SOL    HW228494   8.864   7.510   4.334  0.2180  0.4437  1.0878
 5759SOL     OW28495   4.551   6.334   3.537 -0.1338  0.2492  0.0239
 5759SOL    HW128496   4.577   6.353   3.442  0.1821  0.8312  0.2239
 5759SOL    HW228497   4.599   6.397   3.598 -1.0228  0.4734  0.5023
 5760SOL     OW28498   0.984   2.697   2.823  0.1822  0.6660  0.3071
 5760SOL    HW128499   1.073   2.663   2.855  1.2683  2.5662 -0.6370
 5760SOL    HW228500   0.971   2.790   2.855 -0.3753  1.2700 -1.6307
 5761SOL     OW28501   9.616   5.444   2.517  0.5757 -1.0346  0.1920
 5761SOL    HW128502   9.648   5.514   2.453  1.9763 -0.1568  1.8135
 5761SOL    HW228503   9.608   5.484   2.608 -2.2338 -2.0471  0.4131
 5762SOL     OW28504   0.144   9.003   4.140  0.0204 -0.2915  0.1698
 5762SOL    HW128505   0.238   8.970   4.153  0.9123  2.1144  0.0344
 5762SOL    HW228506   0.146   9.088   4.088 -2.3284 -0.7227 -0.6745
 5763SOL     OW28507   7.314   0.826   6.734  0.0377 -0.1865 -0.0036
 5763SOL    HW128508   7.282   0.917   6.759  0.5811 -0.3651  1.3823
 5763SOL    HW228509   7.406   0.833   6.693 -0.0389 -0.0862 -0.1588
 5764SOL     OW28510   7.219   5.413   0.378 -0.7893  0.0819  0.2384
 5764SOL    HW128511   7.190   5.321   0.404  0.3322 -0.8139 -1.6076
 5764SOL    HW228512   7.200   5.428   0.281 -0.3737  1.5660  0.3767
 5765SOL     OW28513   3.812   0.443   5.246 -0.0854  0.5653 -0.4315
 5765SOL    HW128514   3.751   0.477   5.318 -2.3921 -0.1775 -1.9730
 5765SOL    HW228515   3.783   0.480   5.158  2.1937  0.8019 -1.1114
 5766SOL     OW28516   2.003   9.674   6.254  0.2476  0.0385 -0.7762
 5766SOL    HW128517   1.912   9.659   6.292  0.9431  0.1810  1.0269
 5766SOL    HW228518   2.058   9.591   6.265  1.3191  0.9587  1.1085
 5767SOL     OW28519   8.120   9.076   6.405 -0.3602  0.5262  0.4004
 5767SOL    HW128520   8.133   9.105   6.310 -3.0687 -1.1483 -0.5290
 5767SOL    HW228521   8.160   8.985   6.418 -0.7670  0.3787  0.6270
 5768SOL     OW28522   8.709   3.783   3.034  0.0928 -0.7019  0.1398
 5768SOL    HW128523   8.740   3.723   3.107 -0.6279 -1.4492 -0.1638
 5768SOL    HW228524   8.614   3.809   3.050  0.4232  0.4356  0.3164
 5769SOL     OW28525   1.540   9.211   5.396 -0.0027 -0.0688 -0.5212
 5769SOL    HW128526   1.501   9.254   5.478  0.7916  1.4712 -0.9348
 5769SOL    HW228527   1.631   9.177   5.417  1.1994  2.5032 -1.3818
 5770SOL     OW28528   6.316   5.411   1.488 -0.1479 -0.3979  0.6057
 5770SOL    HW128529   6.375   5.343   1.444 -0.9522  0.4093 -1.8141
 5770SOL    HW228530   6.367   5.458   1.560  1.7262 -0.6439 -0.5465
 5771SOL     OW28531   6.620   6.515   5.770 -0.8472  0.3430 -0.0612
 5771SOL    HW128532   6.634   6.419   5.744 -2.2703  0.3074 -0.7187
 5771SOL    HW228533   6.663   6.574   5.701  0.8833  0.1922  0.8487
 5772SOL     OW28534   5.171   5.746   2.622 -0.4537  0.5836  0.0581
 5772SOL    HW128535   5.259   5.706   2.597  0.5231  2.6403  0.1098
 5772SOL    HW228536   5.186   5.826   2.680 -2.4162  0.1994  1.1312
 5773SOL     OW28537   1.157   7.062   1.621  0.4538  0.8468 -0.3870
 5773SOL    HW128538   1.176   6.967   1.646 -0.5330  0.9079  0.6493
 5773SOL    HW228539   1.073   7.065   1.566 -0.7388  1.3325  1.4388
 5774SOL     OW28540   9.637   6.823   5.585 -0.5169 -0.2905 -0.2586
 5774SOL    HW128541   9.659   6.787   5.494 -1.1375  0.3242 -0.6554
 5774SOL    HW228542   9.616   6.921   5.578 -1.6358 -0.4780  0.3801
 5775SOL     OW28543   6.218   2.613   5.511  0.6797 -0.0829  0.4993
 5775SOL    HW128544   6.306   2.564   5.511  0.5357 -0.4073 -2.1747
 5775SOL    HW228545   6.155   2.568   5.574  1.8076 -0.9717  1.0265
 5776SOL     OW28546   4.584   5.013   2.471  0.2356 -0.2525  0.5948
 5776SOL    HW128547   4.518   4.941   2.450 -0.1944 -0.0612  1.2746
 5776SOL    HW228548   4.582   5.032   2.569  0.1528  0.8661  0.3846
 5777SOL     OW28549   1.503   4.743   3.865  0.0992  0.0289  1.1252
 5777SOL    HW128550   1.457   4.830   3.852  4.1454  2.0191 -0.9010
 5777SOL    HW228551   1.602   4.758   3.872  1.2978 -4.6355 -2.7301
 5778SOL     OW28552   3.124   5.426   1.080 -0.0957  0.3654  0.0167
 5778SOL    HW128553   3.176   5.433   1.165  0.2275  0.4197 -0.1855
 5778SOL    HW228554   3.152   5.344   1.031 -0.8877 -0.1240  0.3663
 5779SOL     OW28555   9.584   3.168   5.019 -0.7449  0.3640 -0.3353
 5779SOL    HW128556   9.488   3.158   4.991 -0.4491 -2.3294 -0.5594
 5779SOL    HW228557   9.588   3.206   5.111 -1.9491  2.6432 -1.2012
 5780SOL     OW28558   9.119   8.555   3.048  0.2599  0.2914  0.3407
 5780SOL    HW128559   9.214   8.552   3.016  0.2472  1.6650  0.1499
 5780SOL    HW228560   9.058   8.569   2.970 -0.0038  0.6005  0.6026
 5781SOL     OW28561   9.425   0.574   5.117  0.2498  0.1460  0.5225
 5781SOL    HW128562   9.353   0.602   5.054  0.3308  0.4325  0.5562
 5781SOL    HW228563   9.403   0.485   5.155 -0.0762  0.2230  0.5155
 5782SOL     OW28564   8.867   3.685   2.609 -0.5620 -0.1914  0.3396
 5782SOL    HW128565   8.901   3.762   2.555 -1.1196 -0.3533 -0.2547
 5782SOL    HW228566   8.868   3.602   2.553  1.1975 -0.8707  1.3632
 5783SOL     OW28567   3.784   3.204   2.077  0.6399 -0.3539  0.3598
 5783SOL    HW128568   3.756   3.202   1.981 -0.0594 -0.0321  0.5536
 5783SOL    HW228569   3.870   3.153   2.088  1.8173  1.3206 -0.7804
 5784SOL     OW28570   3.797   4.571   8.176 -0.1113  0.7298  0.0877
 5784SOL    HW128571   3.814   4.584   8.078  0.4063  1.1262  0.2307
 5784SOL    HW228572   3.884   4.568   8.225 -0.3143 -0.6994  0.3833
 5785SOL     OW28573   7.309   6.451   3.831  0.0543 -0.0181  0.0297
 5785SOL    HW128574   7.291   6.359   3.864 -1.0735  1.4179  3.6590
 5785SOL    HW228575   7.406   6.474   3.845 -0.3747  0.5218  2.4075
 5786SOL     OW28576   8.730   2.685   1.996 -0.3758  0.7545 -0.2091
 5786SOL    HW128577   8.752   2.763   2.055 -1.2410  1.2946 -0.5939
 5786SOL    HW228578   8.678   2.717   1.916 -1.3751 -0.3203 -0.0035
 5787SOL     OW28579   3.427   6.392   8.062  0.1024  0.1667  1.0024
 5787SOL    HW128580   3.415   6.347   7.973  0.8073  1.0579  0.4355
 5787SOL    HW228581   3.338   6.422   8.097 -0.2494 -0.7526  0.8930
 5788SOL     OW28582   8.334   7.983   3.685  0.0800  0.1646  0.3807
 5788SOL    HW128583   8.419   8.015   3.644 -0.4239 -0.0884 -0.9074
 5788SOL    HW228584   8.310   7.894   3.645 -2.2929  1.5782 -1.4692
 5789SOL     OW28585   3.285   0.321   5.518 -0.1659  0.0950  0.0517
 5789SOL    HW128586   3.297   0.420   5.517 -0.0056  0.0975 -3.5986
 5789SOL    HW228587   3.187   0.299   5.514 -0.1183  0.1440 -1.7828
 5790SOL     OW28588   6.833   1.037   2.341 -0.0829  0.4426 -0.2259
 5790SOL    HW128589   6.865   1.102   2.410 -0.3488  1.4644 -1.0459
 5790SOL    HW228590   6.894   1.039   2.262 -1.4031  1.4389 -1.2467
 5791SOL     OW28591   2.655   8.085   6.511  0.8794  0.1536  0.5017
 5791SOL    HW128592   2.603   8.046   6.435 -0.6774  1.1727  1.0280
 5791SOL    HW228593   2.698   8.170   6.480  2.0572 -0.5599  0.1390
 5792SOL     OW28594   6.078   5.528   0.584  0.2024 -0.1984 -0.0311
 5792SOL    HW128595   6.150   5.525   0.653 -0.0063  0.8771  0.2439
 5792SOL    HW228596   6.029   5.441   0.583  1.4772 -0.9251 -0.1990
 5793SOL     OW28597   4.799   1.545   3.547 -0.3336  0.7513  0.5383
 5793SOL    HW128598   4.812   1.447   3.563  1.3637  1.0662  1.1906
 5793SOL    HW228599   4.885   1.586   3.515 -1.4010  1.7766 -1.1069
 5794SOL     OW28600   2.475   0.817   1.911 -0.7584 -0.1877 -0.3155
 5794SOL    HW128601   2.426   0.822   1.998  2.1359 -0.0641  1.3637
 5794SOL    HW228602   2.495   0.722   1.889 -0.7499 -0.1648 -0.4061
 5795SOL     OW28603   6.068   0.528   3.637  0.3217  0.0783 -0.8062
 5795SOL    HW128604   6.034   0.478   3.717  3.0478  0.5677  0.7161
 5795SOL    HW228605   6.026   0.490   3.555 -1.4906 -1.3615  0.7203
 5796SOL     OW28606   2.991   8.580   5.085 -1.0011 -0.1400  0.0208
 5796SOL    HW128607   3.040   8.571   5.171 -0.9500  0.2157  0.0293
 5796SOL    HW228608   2.986   8.677   5.059  3.5923 -0.5475 -2.9961
 5797SOL     OW28609   7.012   3.313   0.811  0.4921  0.3247  0.4131
 5797SOL    HW128610   7.033   3.402   0.851 -0.4502  0.8463 -0.2294
 5797SOL    HW228611   6.920   3.286   0.838 -0.5232  1.1192 -2.1242
 5798SOL     OW28612   9.399   5.516   5.779 -0.5814 -0.4904 -0.4171
 5798SOL    HW128613   9.472   5.568   5.735  1.2585  0.0167  3.0717
 5798SOL    HW228614   9.323   5.577   5.800  0.3102  0.1789  0.9196
 5799SOL     OW28615   4.647   1.681   2.341  0.1972 -0.4971 -0.9421
 5799SOL    HW128616   4.642   1.640   2.432  0.5607 -0.0728 -0.7288
 5799SOL    HW228617   4.579   1.639   2.281 -0.7607 -0.0407 -0.1781
 5800SOL     OW28618   7.983   4.032   2.209  0.3516  0.1866  0.4059
 5800SOL    HW128619   8.066   4.015   2.156 -0.2614 -0.9331 -0.2163
 5800SOL    HW228620   7.927   3.949   2.211 -1.4405  1.3417 -0.3883
 5801SOL     OW28621   1.970   1.664   2.969  0.1388  0.2676 -0.4157
 5801SOL    HW128622   1.999   1.594   3.034  1.2971 -0.7116 -1.9616
 5801SOL    HW228623   2.007   1.753   2.997 -1.3485  0.3037  1.5577
 5802SOL     OW28624   4.430   7.251   5.119  0.6007  0.0419 -0.1616
 5802SOL    HW128625   4.341   7.215   5.147 -1.0588  3.9956 -0.0377
 5802SOL    HW228626   4.489   7.261   5.200 -0.1375  0.7659  0.2926
 5803SOL     OW28627   1.842   0.718   2.217 -0.4836  0.0679  0.0859
 5803SOL    HW128628   1.872   0.745   2.308  2.4941  1.3376 -1.2078
 5803SOL    HW228629   1.905   0.755   2.149 -1.5640 -2.4607 -2.3898
 5804SOL     OW28630   0.721   9.656   4.514  0.8093 -0.2412 -0.0576
 5804SOL    HW128631   0.633   9.611   4.529 -0.0814  1.4474 -0.0434
 5804SOL    HW228632   0.794   9.588   4.518 -0.3552 -1.4608  1.3193
 5805SOL     OW28633   8.993   3.837   4.861 -0.1776  0.2822 -0.2705
 5805SOL    HW128634   8.926   3.894   4.908 -0.7822  0.5664 -1.4545
 5805SOL    HW228635   9.041   3.780   4.927 -2.4410 -0.8110  0.4586
 5806SOL     OW28636   0.923   2.848   1.092 -0.5174 -0.2421 -0.4931
 5806SOL    HW128637   1.005   2.799   1.061 -1.0244 -0.7438 -1.0509
 5806SOL    HW228638   0.919   2.848   1.191 -0.3869 -1.1275 -0.4863
 5807SOL     OW28639   8.957   5.744   4.091  0.6222  0.0380 -0.0400
 5807SOL    HW128640   9.019   5.666   4.100  0.5731 -0.1752 -1.4256
 5807SOL    HW228641   8.900   5.732   4.010  1.7968  2.3102 -1.2864
 5808SOL     OW28642   1.185   2.177   0.348  0.3124 -0.1501 -0.5786
 5808SOL    HW128643   1.256   2.157   0.415  1.0080 -0.5849 -1.4436
 5808SOL    HW228644   1.148   2.269   0.365 -0.5522 -0.8364  1.3056
 5809SOL     OW28645   6.887   2.641   1.538  0.1823 -0.8379 -0.2663
 5809SOL    HW128646   6.902   2.565   1.601  0.1450 -0.0145  0.7603
 5809SOL    HW228647   6.795   2.634   1.498 -0.4310 -0.4945  1.0286
 5810SOL     OW28648   6.207   8.916   2.920 -0.2057  0.2664 -1.1094
 5810SOL    HW128649   6.194   8.830   2.872  0.0393 -0.8320  0.7497
 5810SOL    HW228650   6.118   8.950   2.951 -0.2028  0.1535 -0.9733
 5811SOL     OW28651   1.061   0.070   6.213  0.5499 -0.4165  0.3322
 5811SOL    HW128652   1.062   0.168   6.230  0.6957 -0.2430 -0.6644
 5811SOL    HW228653   0.967   0.036   6.217  0.3309  0.0406 -0.8900
 5812SOL     OW28654   1.907   8.092   6.406 -0.1677 -0.0432 -1.2858
 5812SOL    HW128655   1.957   8.100   6.492 -0.5779  0.8444 -1.1220
 5812SOL    HW228656   1.973   8.086   6.331  0.2637  3.3799 -1.2707
 5813SOL     OW28657   8.378   2.289   2.557  0.3212 -0.5801 -0.2991
 5813SOL    HW128658   8.381   2.221   2.484 -2.4814 -0.2126 -0.8034
 5813SOL    HW228659   8.315   2.259   2.628 -1.6378  1.8385 -0.9439
 5814SOL     OW28660   1.274   2.542   5.618  0.0038 -0.5321  0.6327
 5814SOL    HW128661   1.191   2.577   5.576  0.2205 -0.8281 -0.0511
 5814SOL    HW228662   1.347   2.537   5.549  0.1485 -1.7306  0.8478
 5815SOL     OW28663   2.610   9.528   5.022 -0.0654  0.2558  0.0672
 5815SOL    HW128664   2.614   9.492   5.115 -1.4450  0.0931  0.0786
 5815SOL    HW228665   2.545   9.474   4.969  0.8572  0.2251 -1.0528
 5816SOL     OW28666   7.287   1.918   5.497  0.5921  0.0590 -0.5532
 5816SOL    HW128667   7.289   1.825   5.534 -0.0117  0.1114 -0.3832
 5816SOL    HW228668   7.381   1.950   5.483  0.8040 -0.6492 -0.8067
 5817SOL     OW28669   4.225   5.047   0.521  0.0183  0.0599  0.6003
 5817SOL    HW128670   4.164   4.990   0.468 -0.1814  0.4087  0.4513
 5817SOL    HW228671   4.296   4.991   0.563 -0.4912 -0.3664  0.8974
 5818SOL     OW28672   0.906   2.959   0.419  0.7803  0.0585 -0.1586
 5818SOL    HW128673   0.898   3.045   0.469  0.6132 -0.7498  1.2321
 5818SOL    HW228674   0.990   2.959   0.365  0.1663  1.5851 -1.1400
 5819SOL     OW28675   4.362   8.006   1.847  0.0048  0.1426 -0.2785
 5819SOL    HW128676   4.335   7.929   1.789  0.0676  0.0389 -0.1732
 5819SOL    HW228677   4.292   8.077   1.843 -0.1284  0.0143 -0.2597
 5820SOL     OW28678   7.704   5.842   1.978  0.2311 -0.1955 -0.8075
 5820SOL    HW128679   7.730   5.818   1.884  1.2390 -0.1440 -0.5476
 5820SOL    HW228680   7.769   5.908   2.015  0.2193 -0.7053  0.1498
 5821SOL     OW28681   2.848   5.408   4.476  0.2859 -0.4272  0.1386
 5821SOL    HW128682   2.840   5.390   4.574  0.8695  0.2472  0.3141
 5821SOL    HW228683   2.927   5.358   4.439 -1.3054 -2.5763 -0.4711
 5822SOL     OW28684   7.388   8.703   2.446  0.0379 -0.2530  1.0369
 5822SOL    HW128685   7.321   8.732   2.514 -0.9896 -1.3842  0.5114
 5822SOL    HW228686   7.361   8.615   2.407  0.7752  0.2432 -0.6251
 5823SOL     OW28687   0.201   0.828   4.838 -0.3443  0.1885  0.4390
 5823SOL    HW128688   0.132   0.899   4.824  1.7570  2.1998  0.0739
 5823SOL    HW228689   0.164   0.757   4.898 -2.3968  1.6901  0.9958
 5824SOL     OW28690   1.723   7.926   6.089 -0.4157  0.1150 -0.0516
 5824SOL    HW128691   1.800   7.909   6.150 -1.4460  0.1530  1.2781
 5824SOL    HW228692   1.637   7.907   6.137 -1.2820  1.1403 -1.1571
 5825SOL     OW28693   2.839   3.757   1.277 -0.3338  0.4649  0.0234
 5825SOL    HW128694   2.909   3.787   1.343 -0.0607 -1.1550  0.4792
 5825SOL    HW228695   2.837   3.657   1.273 -4.2592  0.4105  1.7427
 5826SOL     OW28696   2.739   5.541   0.071  0.3156  0.1609 -0.3757
 5826SOL    HW128697   2.728   5.475   0.145 -0.2385 -0.3163 -0.8758
 5826SOL    HW228698   2.832   5.535   0.034 -0.0698 -1.1705 -1.1859
 5827SOL     OW28699   9.180   7.332   2.727 -0.0744 -0.0084  0.2072
 5827SOL    HW128700   9.202   7.353   2.632  2.1082  2.2106  1.1657
 5827SOL    HW228701   9.080   7.331   2.738 -0.3618 -0.9762 -2.2259
 5828SOL     OW28702   7.448   8.104   3.540 -0.2791 -0.3415 -0.2849
 5828SOL    HW128703   7.437   8.050   3.457  3.8466  0.0457 -1.2020
 5828SOL    HW228704   7.474   8.043   3.616  0.1387 -0.2057 -0.3142
 5829SOL     OW28705   0.598   9.463   5.985  0.3757 -0.2086 -0.3674
 5829SOL    HW128706   0.671   9.511   6.033  1.5059 -0.9436 -1.3137
 5829SOL    HW228707   0.536   9.529   5.944 -0.2205  0.4207  1.5096
 5830SOL     OW28708   3.158   8.603   0.438 -0.4524  0.3592  0.2136
 5830SOL    HW128709   3.126   8.693   0.407  1.1784  1.1941  0.8834
 5830SOL    HW228710   3.086   8.560   0.493 -0.2757  2.4265  2.1199
 5831SOL     OW28711   9.266   4.383   4.673  0.1487  0.0662  0.2229
 5831SOL    HW128712   9.297   4.288   4.685 -3.2114 -1.2882 -1.2650
 5831SOL    HW228713   9.323   4.429   4.605  1.5325 -1.0129  0.6387
 5832SOL     OW28714   8.375   1.301   4.090 -0.2862 -0.0101  0.2086
 5832SOL    HW128715   8.414   1.361   4.160 -0.8616  1.9685 -1.1005
 5832SOL    HW228716   8.280   1.279   4.113 -0.2113 -0.0529  0.4703
 5833SOL     OW28717   1.981   7.325   3.738 -0.0168 -0.1701  0.2728
 5833SOL    HW128718   2.014   7.231   3.727 -2.2672 -1.1430  1.3820
 5833SOL    HW228719   1.893   7.335   3.692  0.5385  1.6045 -0.4348
 5834SOL     OW28720   5.264   9.173   1.985  0.3530  0.2722 -0.1730
 5834SOL    HW128721   5.308   9.261   1.972  0.7425  0.0978 -0.0300
 5834SOL    HW228722   5.275   9.118   1.902  0.5230  0.1783 -0.0895
 5835SOL     OW28723   9.181   6.388   2.674 -0.5621 -0.1402 -0.0800
 5835SOL    HW128724   9.185   6.288   2.680 -1.5876 -0.1533  0.5205
 5835SOL    HW228725   9.266   6.427   2.709 -0.6423 -0.7721  0.8544
 5836SOL     OW28726   5.006   1.592   2.275 -0.3536 -0.1597 -0.3902
 5836SOL    HW128727   5.084   1.548   2.320  2.1996  1.0672 -3.3804
 5836SOL    HW228728   4.923   1.539   2.292  1.4512 -2.5323  1.4100
 5837SOL     OW28729   7.182   2.976   3.925 -0.2687  0.7147 -0.4591
 5837SOL    HW128730   7.242   3.050   3.957 -0.1556 -0.1751  1.4810
 5837SOL    HW228731   7.232   2.890   3.929 -1.1262  0.2114 -0.5580
 5838SOL     OW28732   6.919   2.957   3.986  0.2190 -0.4364  0.1047
 5838SOL    HW128733   7.013   2.953   3.952  0.1228  0.3143 -0.2598
 5838SOL    HW228734   6.855   2.949   3.909 -0.0084 -0.3394  0.2833
 5839SOL     OW28735   9.737   1.041   4.103 -0.2907  0.0925 -0.1003
 5839SOL    HW128736   9.709   0.946   4.087  0.6951  0.0991 -1.9717
 5839SOL    HW228737   9.830   1.042   4.139 -0.1005  0.3580 -0.5923
 5840SOL     OW28738   3.875   2.924   0.182 -0.6823 -0.0430  0.4447
 5840SOL    HW128739   3.907   2.952   0.273 -1.8086  0.5280  0.6822
 5840SOL    HW228740   3.790   2.871   0.193 -1.4046  0.9428 -0.3433
 5841SOL     OW28741   8.502   8.103   5.278  0.3073 -0.4940 -0.7813
 5841SOL    HW128742   8.437   8.174   5.251  0.5965  0.9092  2.0315
 5841SOL    HW228743   8.573   8.142   5.336  1.1515 -2.8659 -0.1235
 5842SOL     OW28744   7.583   4.411   3.221 -0.3974 -0.2161 -0.2406
 5842SOL    HW128745   7.560   4.401   3.317 -0.7827 -0.0488 -0.3148
 5842SOL    HW228746   7.530   4.346   3.167 -0.5468  0.0310 -0.3914
 5843SOL     OW28747   3.607   6.144   3.418 -0.1488 -0.0508 -0.3390
 5843SOL    HW128748   3.515   6.143   3.455  0.2252 -2.3463  0.6680
 5843SOL    HW228749   3.607   6.104   3.326 -0.1759  0.0417 -0.3790
 5844SOL     OW28750   4.212   9.266   1.506 -0.4706 -0.4090  0.0446
 5844SOL    HW128751   4.221   9.365   1.499  0.1408 -0.4960 -0.3914
 5844SOL    HW228752   4.213   9.240   1.603 -0.4555 -0.0094  0.1553
 5845SOL     OW28753   4.125   3.915   4.702  0.9157 -0.1834  0.4577
 5845SOL    HW128754   4.156   3.824   4.729  1.9716 -0.3793 -1.2714
 5845SOL    HW228755   4.118   3.919   4.602 -0.8163  1.1119  0.6035
 5846SOL     OW28756   3.507   7.668   0.782  0.4225 -0.1612  0.1498
 5846SOL    HW128757   3.589   7.704   0.738 -0.2787  0.8531 -0.3483
 5846SOL    HW228758   3.448   7.744   0.811 -0.3010 -0.8747  0.5867
 5847SOL     OW28759   2.039   1.080   0.883  0.4315 -0.0016 -0.3305
 5847SOL    HW128760   2.129   1.042   0.907  1.3224  2.3565  0.2481
 5847SOL    HW228761   1.972   1.052   0.952  1.2250  0.0146  0.4643
 5848SOL     OW28762   8.626   6.377   4.608 -0.1863 -0.8895  0.3908
 5848SOL    HW128763   8.705   6.384   4.669  0.3670 -2.2516 -0.1415
 5848SOL    HW228764   8.565   6.306   4.642 -0.7520 -0.4327  0.3252
 5849SOL     OW28765   1.257   6.148   2.925  0.8689 -0.0725 -0.1755
 5849SOL    HW128766   1.303   6.234   2.902 -0.6418  0.6307 -0.6024
 5849SOL    HW228767   1.278   6.079   2.855  2.4400 -0.2070  0.4002
 5850SOL     OW28768   1.668   1.350   5.761  0.2293  0.7954  0.1176
 5850SOL    HW128769   1.571   1.323   5.755 -0.0725  1.8356  0.3123
 5850SOL    HW228770   1.719   1.306   5.687 -0.6776  1.4342 -0.9089
 5851SOL     OW28771   1.246   8.893   1.171 -0.1962  0.3895  0.2477
 5851SOL    HW128772   1.238   8.795   1.189  2.8634  0.5058  2.5884
 5851SOL    HW228773   1.154   8.933   1.167 -1.4712 -2.4344 -0.1485
 5852SOL     OW28774   8.862   2.673   5.872  0.1020  0.0185  0.2732
 5852SOL    HW128775   8.902   2.685   5.963 -0.9871 -0.4162  0.8067
 5852SOL    HW228776   8.786   2.608   5.877  1.0868 -1.2773 -1.2458
 5853SOL     OW28777   3.509   0.966   2.451 -0.0867  0.8467 -0.2405
 5853SOL    HW128778   3.464   1.004   2.531  1.6689  0.9251  0.7277
 5853SOL    HW228779   3.515   0.867   2.459 -2.8028  0.5155 -1.8032
 5854SOL     OW28780   4.068   7.935   4.751  0.0089  0.3872  0.2919
 5854SOL    HW128781   4.153   7.987   4.743  0.6970 -0.4286  2.0497
 5854SOL    HW228782   4.003   7.968   4.683  1.1380  2.1453  0.0204
 5855SOL     OW28783   8.106   9.562   6.107 -0.1193  0.2290  0.8763
 5855SOL    HW128784   8.091   9.577   6.009 -0.4346  0.5702  0.9768
 5855SOL    HW228785   8.125   9.465   6.123  0.8266  0.3240  0.3658
 5856SOL     OW28786   2.582   0.425   6.272 -0.4228  0.0714 -0.2624
 5856SOL    HW128787   2.563   0.523   6.270  1.4058  0.4856  0.9295
 5856SOL    HW228788   2.561   0.389   6.362  0.6765 -0.2302 -0.1126
 5857SOL     OW28789   4.121   5.062   4.258  0.2582  0.1227  0.7946
 5857SOL    HW128790   4.123   5.162   4.264 -3.7796  0.2680  1.1696
 5857SOL    HW228791   4.129   5.034   4.163  0.6149  0.8427  0.6111
 5858SOL     OW28792   9.104   0.398   1.495 -0.3754 -0.6147  0.0421
 5858SOL    HW128793   9.122   0.495   1.507 -1.6456 -0.2752 -0.7105
 5858SOL    HW228794   9.070   0.359   1.581 -0.5447 -0.2403  0.1440
 5859SOL     OW28795   2.298   1.117   4.080  0.1351 -0.2763  0.2337
 5859SOL    HW128796   2.238   1.113   4.000  0.7523 -1.7151 -0.1684
 5859SOL    HW228797   2.244   1.141   4.161 -0.6940  0.0193 -0.4000
 5860SOL     OW28798   8.010   1.933   1.269 -0.2359  0.8158 -0.2887
 5860SOL    HW128799   8.028   1.874   1.191 -0.6355  2.0993 -1.3735
 5860SOL    HW228800   8.086   1.997   1.281 -0.6194  1.2777 -0.2617
 5861SOL     OW28801   3.436   6.599   3.367 -0.2398 -0.3020  0.0028
 5861SOL    HW128802   3.367   6.532   3.340  0.1029 -0.3087 -0.8829
 5861SOL    HW228803   3.525   6.554   3.372 -0.1940 -0.1556  0.5179
 5862SOL     OW28804   3.703   2.136   5.402 -0.0647  0.2682  0.3709
 5862SOL    HW128805   3.627   2.074   5.424 -1.0890  1.2686 -0.2903
 5862SOL    HW228806   3.733   2.183   5.485 -1.7273  1.5882  0.2522
 5863SOL     OW28807   9.798   8.557   2.508  0.1320  0.2174  0.2459
 5863SOL    HW128808   9.859   8.481   2.486 -0.3171  0.2475 -1.1922
 5863SOL    HW228809   9.846   8.625   2.562  0.7747 -0.7187  0.8587
 5864SOL     OW28810   7.258   0.320   1.527  0.0868  0.3155  0.5089
 5864SOL    HW128811   7.167   0.311   1.486  1.2791 -1.3838 -1.8452
 5864SOL    HW228812   7.262   0.268   1.612 -0.5185 -1.3754 -0.4809
 5865SOL     OW28813   2.414   7.148   2.968  0.2289  0.1514  0.3906
 5865SOL    HW128814   2.355   7.219   3.008 -1.3230  0.4206 -2.2644
 5865SOL    HW228815   2.358   7.081   2.919  2.0240 -0.3635 -1.0381
 5866SOL     OW28816   9.311   2.467   0.731 -0.2096  0.5977  0.1122
 5866SOL    HW128817   9.389   2.408   0.712 -0.9919 -0.4347  0.1198
 5866SOL    HW228818   9.315   2.548   0.671 -0.4857 -0.6785 -1.6625
 5867SOL     OW28819   0.506   0.777   0.495  0.3486  0.8089  0.2731
 5867SOL    HW128820   0.577   0.796   0.563 -0.3115  1.7742  0.7010
 5867SOL    HW228821   0.428   0.837   0.511 -0.6501 -0.3809 -0.0749
 5868SOL     OW28822   3.386   0.212   2.794 -0.0183 -0.5062  0.2006
 5868SOL    HW128823   3.465   0.255   2.750 -2.1525  0.4040 -2.9756
 5868SOL    HW228824   3.321   0.282   2.821 -0.3798 -1.3336  1.5084
 5869SOL     OW28825   3.100   7.122   1.934 -0.1886 -0.0438  0.1394
 5869SOL    HW128826   3.153   7.205   1.918  1.0514 -0.4773  1.7975
 5869SOL    HW228827   3.157   7.042   1.913 -0.5601 -0.4995  0.8493
 5870SOL     OW28828   6.716   1.538   0.678 -0.3569  0.4403  0.1632
 5870SOL    HW128829   6.677   1.568   0.591  0.3519  1.2632  0.1232
 5870SOL    HW228830   6.743   1.442   0.671  0.9718  0.8886 -0.9617
 5871SOL     OW28831   9.267   5.526   2.004  0.1110 -0.2198 -0.1622
 5871SOL    HW128832   9.247   5.478   2.089 -1.4087  1.0459  0.2051
 5871SOL    HW228833   9.203   5.497   1.933 -1.4603  1.9393  0.3236
 5872SOL     OW28834   2.558   0.821   5.639 -0.3916 -0.3064  0.0519
 5872SOL    HW128835   2.535   0.865   5.553  1.6930 -0.9225 -0.8465
 5872SOL    HW228836   2.564   0.722   5.626 -2.3465 -0.6612  1.4491
 5873SOL     OW28837   2.923   4.113   5.406 -0.3110  0.8662 -0.4306
 5873SOL    HW128838   3.001   4.079   5.353  0.7854  2.3465  0.2103
 5873SOL    HW228839   2.908   4.053   5.485  0.5985  0.9417 -0.1939
 5874SOL     OW28840   1.348   2.915   5.777 -0.1610  0.5256 -0.6588
 5874SOL    HW128841   1.278   2.909   5.848  0.7783  2.4378  0.4603
 5874SOL    HW228842   1.417   2.844   5.792  0.5303  1.5167  0.9012
 5875SOL     OW28843   9.193   0.650   6.466  0.2846 -0.4220  0.1049
 5875SOL    HW128844   9.164   0.569   6.516 -3.7031  0.9255  0.1752
 5875SOL    HW228845   9.231   0.623   6.378 -3.0182 -2.3345 -0.8242
 5876SOL     OW28846   4.398   2.029   3.507 -0.5193  1.0489  0.6311
 5876SOL    HW128847   4.422   2.055   3.601  1.8319  2.4843 -0.3238
 5876SOL    HW228848   4.465   1.962   3.473 -0.8512  1.1927 -0.3168
 5877SOL     OW28849   0.358   5.701   3.787  0.0418  0.3262  0.7397
 5877SOL    HW128850   0.372   5.737   3.695 -0.5763 -0.8404  0.1683
 5877SOL    HW228851   0.261   5.708   3.811 -0.0977 -0.9862  0.5928
 5878SOL     OW28852   7.815   8.344   4.417 -0.4996 -0.2989  0.3697
 5878SOL    HW128853   7.894   8.284   4.424 -0.8542 -0.9145 -0.7540
 5878SOL    HW228854   7.784   8.348   4.322 -1.8039 -0.0535  0.7882
 5879SOL     OW28855   7.226   8.108   6.747 -1.2870 -0.0647 -0.1218
 5879SOL    HW128856   7.217   8.122   6.648 -1.9383 -0.8126 -0.1695
 5879SOL    HW228857   7.239   8.011   6.766  1.4418  0.3428  0.3456
 5880SOL     OW28858   2.062   0.871   5.755 -0.2905  0.1688 -0.0059
 5880SOL    HW128859   1.973   0.911   5.732  0.3964  1.1235 -1.0362
 5880SOL    HW228860   2.119   0.867   5.673  1.6570  2.2586  1.1923
 5881SOL     OW28861   3.870   0.507   3.602  0.2181  0.3592 -0.0609
 5881SOL    HW128862   3.783   0.507   3.554  0.0996  0.5081  0.1520
 5881SOL    HW228863   3.924   0.586   3.573  0.9331 -0.5724 -1.3550
 5882SOL     OW28864   3.791   6.405   0.786 -0.1457  0.1571  0.3837
 5882SOL    HW128865   3.863   6.450   0.733 -0.1169 -2.0659 -1.5391
 5882SOL    HW228866   3.704   6.451   0.769 -0.3184 -1.1359 -2.4669
 5883SOL     OW28867   8.144   4.842   0.625 -0.6909 -0.0861 -0.4764
 5883SOL    HW128868   8.106   4.903   0.555  0.5117  0.3674 -0.7430
 5883SOL    HW228869   8.112   4.871   0.715 -0.3029  0.8158 -0.6207
 5884SOL     OW28870   0.045   9.806   2.117 -0.2289 -0.5770  0.2627
 5884SOL    HW128871   0.004   9.866   2.186  1.1339  0.3949  0.2422
 5884SOL    HW228872   0.029   9.710   2.142 -0.2148 -0.2316  1.6391
 5885SOL     OW28873   0.261   6.743   3.600  0.1502 -0.3184  0.5567
 5885SOL    HW128874   0.207   6.702   3.526 -1.0149  0.7115  0.8150
 5885SOL    HW228875   0.346   6.692   3.612 -0.6825 -1.8679  0.0126
 5886SOL     OW28876   6.390   0.755   4.161  0.1490 -0.3554 -0.3780
 5886SOL    HW128877   6.295   0.761   4.130 -0.5855 -0.0470  1.8114
 5886SOL    HW228878   6.451   0.776   4.085 -1.4989 -1.3261 -2.0285
 5887SOL     OW28879   0.950   8.804   5.501 -0.0335 -0.0722 -0.3703
 5887SOL    HW128880   0.983   8.883   5.451  0.4723 -1.0654 -1.6299
 5887SOL    HW228881   0.956   8.821   5.600  1.1887  0.9841 -0.6282
 5888SOL     OW28882   2.269   5.482   4.155 -0.1297 -0.6924 -0.7232
 5888SOL    HW128883   2.352   5.534   4.133 -0.5682 -0.0480 -0.8571
 5888SOL    HW228884   2.191   5.521   4.107 -0.3142 -2.0323 -1.5217
 5889SOL     OW28885   0.530   6.126   0.557  0.0976 -0.0997  0.4294
 5889SOL    HW128886   0.446   6.129   0.611  1.1093  1.6916  1.9633
 5889SOL    HW228887   0.597   6.067   0.601 -0.4421 -1.8424 -0.9960
 5890SOL     OW28888   9.190   5.318   3.091 -0.6330  0.5634  0.0160
 5890SOL    HW128889   9.193   5.416   3.111  1.6968  0.6018 -0.3435
 5890SOL    HW228890   9.138   5.302   3.008 -1.5167  1.4423  0.3949
 5891SOL     OW28891   2.823   7.430   1.518 -0.1780  0.1895 -0.6036
 5891SOL    HW128892   2.732   7.435   1.559 -0.4606  1.4535 -1.3621
 5891SOL    HW228893   2.841   7.514   1.467  1.5575  0.1083 -0.1539
 5892SOL     OW28894   7.275   9.548   2.787 -0.1644 -0.2153 -0.3355
 5892SOL    HW128895   7.218   9.469   2.809  0.2460 -0.2406  0.6515
 5892SOL    HW228896   7.370   9.519   2.777 -0.0081  0.1552  0.0615
 5893SOL     OW28897   5.358   4.174   0.144  0.6530  0.0266  0.7506
 5893SOL    HW128898   5.262   4.201   0.137  0.4635 -0.9118 -0.4828
 5893SOL    HW228899   5.368   4.103   0.214  0.3675 -0.1846  0.5810
 5894SOL     OW28900   4.741   6.537   1.997 -0.3539  0.2129 -0.2425
 5894SOL    HW128901   4.760   6.514   1.901 -0.8620 -1.3145  0.0076
 5894SOL    HW228902   4.701   6.457   2.043 -0.2663  0.9862  1.2010
 5895SOL     OW28903   9.820   5.355   5.725  0.8317 -0.1320 -0.1950
 5895SOL    HW128904   9.830   5.410   5.642  0.5786  2.6686  1.5733
 5895SOL    HW228905   9.906   5.354   5.776  0.3425  0.1091  0.6577
 5896SOL     OW28906   0.037   7.010   1.952 -0.4302 -0.5351 -0.1505
 5896SOL    HW128907   0.127   7.042   1.980 -1.0028  0.1686  0.9223
 5896SOL    HW228908   0.006   6.939   2.015  0.5324 -2.7590 -2.1054
 5897SOL     OW28909   1.599   9.285   3.361  0.1227 -0.0852 -0.7173
 5897SOL    HW128910   1.590   9.186   3.371  0.5284 -0.1460 -0.9634
 5897SOL    HW228911   1.690   9.307   3.326 -0.1111  0.3533 -1.0459
 5898SOL     OW28912   7.623   2.252   2.185 -0.7348 -0.4009 -0.8437
 5898SOL    HW128913   7.664   2.317   2.122  0.2288 -0.8682 -0.7191
 5898SOL    HW228914   7.631   2.286   2.279  0.2570 -0.9330 -0.7264
 5899SOL     OW28915   4.226   1.986   2.318 -0.2741  0.1998 -0.3628
 5899SOL    HW128916   4.253   1.937   2.235 -2.4040 -0.7111 -0.5361
 5899SOL    HW228917   4.229   1.923   2.396 -0.3443  0.5163 -0.1041
 5900SOL     OW28918   8.476   8.392   4.304  0.3190 -0.2689 -0.2510
 5900SOL    HW128919   8.386   8.349   4.296 -0.6145  1.4493  0.5176
 5900SOL    HW228920   8.510   8.417   4.214 -1.4345  1.8646 -0.3788
 5901SOL     OW28921   7.829   5.661   5.065  0.1894  0.2224 -0.3079
 5901SOL    HW128922   7.923   5.654   5.096 -0.0606  1.9959  0.9384
 5901SOL    HW228923   7.767   5.636   5.140 -0.3731  2.5154  0.0524
 5902SOL     OW28924   8.458   8.113   1.431  0.1788  0.0623  0.3642
 5902SOL    HW128925   8.403   8.062   1.497 -1.0052  2.3493  1.1843
 5902SOL    HW228926   8.401   8.179   1.384  1.6103  0.3725 -0.9996
 5903SOL     OW28927   3.487   6.969   4.413  0.4541  0.1766 -0.0724
 5903SOL    HW128928   3.409   6.951   4.352 -0.2428  0.4159  0.7376
 5903SOL    HW228929   3.513   6.884   4.458  1.0330 -0.0212 -0.7650
 5904SOL     OW28930   5.761   1.106   5.886 -0.2709 -0.2023  0.0134
 5904SOL    HW128931   5.802   1.125   5.797  1.5150 -0.5924  0.7276
 5904SOL    HW228932   5.691   1.175   5.906 -0.3647  0.1607 -1.4616
 5905SOL     OW28933   1.352   0.537   5.104 -0.4222 -0.6872 -0.4662
 5905SOL    HW128934   1.292   0.615   5.120 -1.0108 -0.9607 -1.3312
 5905SOL    HW228935   1.423   0.562   5.038 -0.2696 -0.7083 -0.3097
 5906SOL     OW28936   3.657   3.057   5.389  0.7362  0.2991 -0.6242
 5906SOL    HW128937   3.627   2.976   5.338  1.7516  0.4521 -1.4796
 5906SOL    HW228938   3.692   3.126   5.326  1.6346  0.6505  0.2341
 5907SOL     OW28939   7.972   7.483   4.012 -0.0011 -0.3019 -0.2553
 5907SOL    HW128940   7.930   7.392   4.016  2.3945 -1.3664  1.6343
 5907SOL    HW228941   7.929   7.542   4.080  1.5189 -1.3962  1.6935
 5908SOL     OW28942   8.656   4.348   5.762 -0.1567 -0.1580  0.3348
 5908SOL    HW128943   8.596   4.387   5.693 -0.4674 -1.6139 -0.2451
 5908SOL    HW228944   8.749   4.339   5.726 -0.1609 -0.2498  0.3429
 5909SOL     OW28945   1.833   7.980   2.030  0.8407 -0.0156 -0.1778
 5909SOL    HW128946   1.927   8.013   2.028  0.6893  0.7143  2.5361
 5909SOL    HW228947   1.773   8.046   1.984  0.9791  2.0381  2.4901
 5910SOL     OW28948   2.866   4.572   4.522 -0.1638 -0.5451 -0.3111
 5910SOL    HW128949   2.824   4.515   4.451 -0.9263 -0.1175 -0.2072
 5910SOL    HW228950   2.796   4.632   4.562  0.2553 -0.8121  0.8322
 5911SOL     OW28951   9.345   5.440   4.501 -0.0480 -0.0345  0.4666
 5911SOL    HW128952   9.270   5.401   4.448  1.2024 -0.8602 -0.7315
 5911SOL    HW228953   9.345   5.400   4.593  0.4988 -2.0461 -0.3660
 5912SOL     OW28954   0.264   6.099   3.795  0.0184  0.0406  0.0318
 5912SOL    HW128955   0.249   6.047   3.711 -0.5285 -1.0680  0.8001
 5912SOL    HW228956   0.269   6.197   3.774  1.9331 -0.3647 -1.5575
 5913SOL     OW28957   1.386   6.914   1.094  0.1852  0.3498 -0.6237
 5913SOL    HW128958   1.325   6.979   1.048 -1.2359  0.1638  0.9518
 5913SOL    HW228959   1.445   6.869   1.026 -0.5545  1.4544 -2.0136
 5914SOL     OW28960   6.845   9.515   6.956  0.0091  0.6466 -0.1474
 5914SOL    HW128961   6.861   9.452   7.032 -1.5150  1.7418  1.1007
 5914SOL    HW228962   6.788   9.591   6.986 -1.9589  0.2994 -2.7876
 5915SOL     OW28963   8.808   4.544   3.957 -0.5547  0.1515  0.0352
 5915SOL    HW128964   8.763   4.497   3.881  2.0329  1.0040 -2.0903
 5915SOL    HW228965   8.800   4.643   3.944 -0.2758  0.3012  0.9923
 5916SOL     OW28966   5.398   9.646   4.647 -0.3630  0.5847 -0.5431
 5916SOL    HW128967   5.478   9.622   4.701 -0.8192  0.6578  0.1601
 5916SOL    HW228968   5.362   9.564   4.603 -1.2948  0.1504  1.0157
 5917SOL     OW28969   7.851   6.928   1.556 -0.0408  0.7772  0.3986
 5917SOL    HW128970   7.943   6.897   1.582 -0.1581 -1.1470 -1.3423
 5917SOL    HW228971   7.786   6.897   1.625  0.3696  0.5104  0.6719
 5918SOL     OW28972   1.472   2.324   4.804  0.1153  0.3799  0.5096
 5918SOL    HW128973   1.460   2.294   4.898  0.0667 -0.1566  0.3387
 5918SOL    HW228974   1.383   2.333   4.760  0.1540  0.2032  0.3909
 5919SOL     OW28975   9.965   3.904   4.829  0.0595  0.5786  0.0895
 5919SOL    HW128976   9.948   3.866   4.738 -2.1121 -0.7340  0.9915
 5919SOL    HW228977   9.983   4.002   4.821 -0.8419  0.6241 -1.6980
 5920SOL     OW28978   2.588   2.706   5.613  0.0101 -0.4250  0.6011
 5920SOL    HW128979   2.663   2.711   5.547 -1.6587  1.3893 -1.2278
 5920SOL    HW228980   2.515   2.649   5.576  0.6719 -2.6826  2.6317
 5921SOL     OW28981   2.625   3.150   2.097  0.7869 -0.8585 -0.0258
 5921SOL    HW128982   2.700   3.215   2.096 -0.7208  0.8960 -0.5127
 5921SOL    HW228983   2.581   3.151   2.187 -0.4868  0.2775 -0.6415
 5922SOL     OW28984   9.871   7.058   4.603 -0.1781  0.3776  0.2097
 5922SOL    HW128985   9.824   7.052   4.516 -0.9328  1.5876  0.5240
 5922SOL    HW228986   9.872   6.969   4.648  0.3538 -0.2795 -1.0955
 5923SOL     OW28987   3.229   4.747   5.287  0.4655 -0.3406  0.0203
 5923SOL    HW128988   3.158   4.744   5.357 -0.3814  0.8819 -0.7648
 5923SOL    HW228989   3.295   4.818   5.310 -1.0825  1.6830 -1.5664
 5924SOL     OW28990   8.389   0.060   2.732 -0.5485 -0.6301 -0.2794
 5924SOL    HW128991   8.350   0.121   2.662  1.2962 -0.4189 -1.1556
 5924SOL    HW228992   8.486   0.046   2.713 -0.9695 -3.9832 -0.1679
 5925SOL     OW28993   8.729   3.541   3.246 -0.3314  0.0694  0.2361
 5925SOL    HW128994   8.668   3.471   3.208  0.2494 -1.3075  1.7653
 5925SOL    HW228995   8.696   3.568   3.336  0.4940  0.3841  0.4480
 5926SOL     OW28996   3.437   2.612   4.051  0.2762  0.0601  0.0459
 5926SOL    HW128997   3.344   2.579   4.041  0.3865 -0.4967  0.8242
 5926SOL    HW228998   3.445   2.702   4.008  0.1454 -1.1818 -2.7210
 5927SOL     OW28999   2.755   1.271   2.169 -0.3379  0.6417  0.0021
 5927SOL    HW129000   2.778   1.367   2.179  0.6608  0.4956 -0.8196
 5927SOL    HW229001   2.727   1.233   2.257 -0.1585  1.5321  0.4371
 5928SOL     OW29002   3.216   9.718   3.503  0.5614  0.6802  0.1950
 5928SOL    HW129003   3.295   9.779   3.507 -0.8380  2.5640 -0.1820
 5928SOL    HW229004   3.144   9.752   3.564 -0.9531  0.4795 -1.4370
 5929SOL     OW29005   5.356   2.296   5.329 -0.3684 -0.3853  0.2395
 5929SOL    HW129006   5.351   2.361   5.253 -0.2687 -1.6785 -0.8862
 5929SOL    HW229007   5.432   2.233   5.313 -0.3102 -0.6282  1.4494
 5930SOL     OW29008   1.989   9.668   4.349 -0.2707  0.3082  0.5446
 5930SOL    HW129009   1.892   9.647   4.362  0.0127  0.8187  3.7535
 5930SOL    HW229010   1.999   9.734   4.274 -2.1196 -1.8619 -1.7231
 5931SOL     OW29011   0.006   1.150   2.719 -0.1176  0.6320  0.0914
 5931SOL    HW129012  -0.012   1.159   2.621 -1.1669  1.6183  0.3590
 5931SOL    HW229013   0.104   1.149   2.735  0.0947 -1.0963 -1.1035
 5932SOL     OW29014   7.720   0.274   2.066 -0.1748 -0.1458  0.1770
 5932SOL    HW129015   7.728   0.197   2.130 -0.9084  0.8707  1.5279
 5932SOL    HW229016   7.630   0.316   2.076  0.5306  1.4403  0.0875
 5933SOL     OW29017   0.522   2.358   4.365 -0.3059  0.4131 -0.2725
 5933SOL    HW129018   0.440   2.368   4.422  0.0701 -1.0606  0.5608
 5933SOL    HW229019   0.501   2.387   4.272 -1.5997  0.6289  0.0723
 5934SOL     OW29020   8.177   9.809   5.848  0.0310 -0.2722 -0.3480
 5934SOL    HW129021   8.271   9.792   5.817  0.3471  1.7921 -0.6014
 5934SOL    HW229022   8.179   9.873   5.925 -1.2124  0.4028 -0.8648
 5935SOL     OW29023   7.718   0.430   1.652 -0.3772 -0.1627  0.1820
 5935SOL    HW129024   7.685   0.408   1.560  1.2672 -0.4477 -0.3623
 5935SOL    HW229025   7.767   0.352   1.689  0.3714  0.5030  0.6287
 5936SOL     OW29026   9.611   5.126   0.466  0.0373  0.3839  0.0980
 5936SOL    HW129027   9.643   5.199   0.406  0.5289 -1.8371 -2.4081
 5936SOL    HW229028   9.661   5.042   0.447 -2.9304 -1.5516  0.4829
 5937SOL     OW29029   2.104   6.190   2.650  0.3212 -0.5381 -0.2204
 5937SOL    HW129030   2.135   6.284   2.634  1.1431 -0.7386  0.1624
 5937SOL    HW229031   2.138   6.131   2.577 -0.7756 -0.4203 -0.8348
 5938SOL     OW29032   8.683   4.337   0.230  0.2817 -0.1578 -0.1640
 5938SOL    HW129033   8.688   4.305   0.325  0.7887 -3.0524 -1.0996
 5938SOL    HW229034   8.595   4.311   0.191 -0.4389  2.1414 -0.1553
 5939SOL     OW29035   7.917   9.398   2.584 -0.3410 -0.5121 -0.0361
 5939SOL    HW129036   7.858   9.442   2.652  0.5685  0.6435  0.0295
 5939SOL    HW229037   7.890   9.303   2.573 -2.3890  0.0581 -0.1975
 5940SOL     OW29038   8.447   5.180   4.017 -0.0190  0.5789  0.1218
 5940SOL    HW129039   8.526   5.236   4.041  0.7007 -1.5064  2.8186
 5940SOL    HW229040   8.445   5.166   3.918  2.9542  0.7323  0.0066
 5941SOL     OW29041   0.906   6.638   1.187  0.0788  0.3127 -0.3612
 5941SOL    HW129042   0.824   6.583   1.198 -0.7907  1.6260 -0.2010
 5941SOL    HW229043   0.890   6.709   1.118  1.5970 -0.4092 -1.4864
 5942SOL     OW29044   2.874   9.389   0.476 -0.0551  0.2739  0.6718
 5942SOL    HW129045   2.949   9.339   0.434 -1.4120 -1.9393  0.8001
 5942SOL    HW229046   2.853   9.349   0.565 -1.2043  1.0253  0.7453
 5943SOL     OW29047   0.726   3.096   4.108  0.1358  0.7808  0.0897
 5943SOL    HW129048   0.661   3.032   4.147 -1.2788  2.9509  1.4103
 5943SOL    HW229049   0.691   3.189   4.117  2.0236  1.7450 -1.9914
 5944SOL     OW29050   5.054   6.061   1.469 -0.0488  0.6130 -0.5886
 5944SOL    HW129051   5.073   6.120   1.548 -0.0952 -1.6075  1.1335
 5944SOL    HW229052   5.006   6.114   1.399  0.0565  2.6561  0.8261
 5945SOL     OW29053   0.305   4.513   1.678  0.3473  0.2739 -0.5303
 5945SOL    HW129054   0.359   4.515   1.762  0.8089 -1.9966 -0.7388
 5945SOL    HW229055   0.208   4.521   1.700  0.4947  0.1280  0.1720
 5946SOL     OW29056   6.603   5.472   7.804  0.1632  0.5235 -0.1446
 5946SOL    HW129057   6.697   5.505   7.799  0.8817 -1.1836  1.4071
 5946SOL    HW229058   6.601   5.373   7.787 -1.6539  0.9026 -2.4360
 5947SOL     OW29059   4.229   9.134   4.132 -0.6093  0.1550  0.5019
 5947SOL    HW129060   4.157   9.197   4.102 -0.3396 -0.0819 -0.6739
 5947SOL    HW229061   4.188   9.052   4.172 -0.9740  0.4749  0.7838
 5948SOL     OW29062   1.408   4.544   4.491  0.3597  0.0239  0.0420
 5948SOL    HW129063   1.430   4.530   4.394 -1.0640  2.3583 -0.6561
 5948SOL    HW229064   1.391   4.456   4.534  0.8122 -1.0399 -1.8833
 5949SOL     OW29065   0.058   6.920   6.282  0.1151 -0.2074 -0.2108
 5949SOL    HW129066   0.145   6.952   6.320 -0.6146  0.9893  0.4827
 5949SOL    HW229067   0.024   6.986   6.216 -0.3580 -0.5906 -0.3557
 5950SOL     OW29068   6.628   9.772   2.640 -0.2694 -0.1237 -0.6976
 5950SOL    HW129069   6.694   9.800   2.571  0.2566  0.4073  0.0175
 5950SOL    HW229070   6.554   9.839   2.643  1.7370  2.0594  2.0542
 5951SOL     OW29071   8.419   1.095   3.698 -0.3110  0.1590 -0.2003
 5951SOL    HW129072   8.431   1.194   3.696 -2.6486  0.5116  1.2264
 5951SOL    HW229073   8.441   1.057   3.609 -0.5650  2.0863 -1.1147
 5952SOL     OW29074   8.554   6.440   1.684  0.1019  0.2822  0.2116
 5952SOL    HW129075   8.611   6.411   1.760 -0.5657 -1.8218 -0.0634
 5952SOL    HW229076   8.610   6.486   1.616  1.1050  0.0767  0.8894
 5953SOL     OW29077   9.286   7.947   0.720 -0.2463  0.4149 -0.1156
 5953SOL    HW129078   9.306   8.038   0.758 -0.5956  0.3566  0.2031
 5953SOL    HW229079   9.337   7.878   0.772 -0.8136  0.3240  0.3220
 5954SOL     OW29080   2.628   3.048   1.741 -0.5157 -0.1009 -0.2632
 5954SOL    HW129081   2.624   3.025   1.644 -1.4032 -0.1519 -0.2135
 5954SOL    HW229082   2.722   3.072   1.765  0.1856 -2.3446 -0.6193
 5955SOL     OW29083   3.880   5.641   4.638  0.0806  0.0710  0.5933
 5955SOL    HW129084   3.978   5.627   4.625  0.1787 -0.7019  1.9825
 5955SOL    HW229085   3.836   5.659   4.550  1.5331  0.8724  0.0213
 5956SOL     OW29086   3.654   0.017   2.711  0.9286  0.1474 -0.0243
 5956SOL    HW129087   3.651   0.057   2.803 -0.4037 -0.5070  0.2208
 5956SOL    HW229088   3.580  -0.049   2.701  0.8413  0.4887 -1.6990
 5957SOL     OW29089   9.666   5.017   4.878 -0.4843  0.0586 -0.2431
 5957SOL    HW129090   9.743   5.013   4.814 -0.4364 -1.1825 -0.1055
 5957SOL    HW229091   9.582   5.034   4.827 -0.5492 -1.6552 -0.7309
 5958SOL     OW29092   1.287   5.917   3.561  0.4123  0.6914  0.3278
 5958SOL    HW129093   1.342   5.894   3.642  0.9418 -1.0789 -0.5000
 5958SOL    HW229094   1.347   5.956   3.491 -0.0362  2.1658  0.7555
 5959SOL     OW29095   3.523   9.569   1.813  0.0820 -0.3667  0.5397
 5959SOL    HW129096   3.512   9.502   1.886 -0.3167  1.0267  1.7653
 5959SOL    HW229097   3.594   9.634   1.838 -1.5177  1.3686  0.6106
 5960SOL     OW29098   0.731   7.319   4.273  0.3229  0.4650 -0.0343
 5960SOL    HW129099   0.743   7.224   4.302 -0.2716  0.3900 -0.0189
 5960SOL    HW229100   0.709   7.376   4.353  0.3642  0.5562 -0.0880
 5961SOL     OW29101   9.764   7.173   4.254 -0.0970  0.1131  0.4463
 5961SOL    HW129102   9.836   7.180   4.185  0.8559 -1.4894  1.2557
 5961SOL    HW229103   9.790   7.225   4.335 -1.5484  2.6252 -0.5978
 5962SOL     OW29104   9.106   3.344   0.642  0.0689 -0.4451 -0.0511
 5962SOL    HW129105   9.143   3.301   0.725  0.0186 -0.7023 -0.1628
 5962SOL    HW229106   9.071   3.435   0.665  1.7770  0.2557 -0.1492
 5963SOL     OW29107   3.686   9.711   2.222 -0.1223 -0.2109 -0.6832
 5963SOL    HW129108   3.714   9.738   2.314 -0.3665 -2.2363  0.0118
 5963SOL    HW229109   3.720   9.619   2.203 -2.2561 -0.8280 -1.6323
 5964SOL     OW29110   7.162   1.847   1.918  0.4230  0.0452 -0.0841
 5964SOL    HW129111   7.185   1.924   1.979  1.8973  1.0993 -1.9241
 5964SOL    HW229112   7.161   1.879   1.824 -0.8601 -1.8074 -0.7127
 5965SOL     OW29113   1.252   8.648   0.488 -0.7314  0.4765  0.3758
 5965SOL    HW129114   1.188   8.643   0.564  1.6502  0.7869  2.4314
 5965SOL    HW229115   1.343   8.620   0.518 -0.0273 -0.8138 -2.7041
 5966SOL     OW29116   1.251   7.264   3.980 -0.3651  0.0654 -0.6864
 5966SOL    HW129117   1.176   7.296   3.922  0.8274  0.4949 -2.0144
 5966SOL    HW229118   1.315   7.339   3.996 -0.8803  0.0654  1.5354
 5967SOL     OW29119   1.166   0.454   4.067 -0.0339 -0.1903  0.5464
 5967SOL    HW129120   1.185   0.425   4.161  2.2698  2.6070  1.0211
 5967SOL    HW229121   1.171   0.554   4.062 -1.0574 -0.2581 -2.3656
 5968SOL     OW29122   9.672   4.176   3.531 -0.3838  0.3206  0.2651
 5968SOL    HW129123   9.577   4.153   3.511 -0.2037  0.9258 -1.3609
 5968SOL    HW229124   9.706   4.120   3.606 -1.5035 -1.0988 -0.2869
 5969SOL     OW29125   1.727   3.331   1.638  0.4037  0.0126  0.2494
 5969SOL    HW129126   1.631   3.338   1.612 -0.0153 -0.8774  1.5113
 5969SOL    HW229127   1.776   3.414   1.610 -0.6339  0.2717 -0.7993
 5970SOL     OW29128   3.750   1.278   3.233 -0.1345 -0.0820 -0.2956
 5970SOL    HW129129   3.691   1.293   3.313 -0.4174 -2.1301 -0.1105
 5970SOL    HW229130   3.696   1.287   3.150 -0.3678 -0.4304 -0.1802
 5971SOL     OW29131   9.052   5.459   3.829  0.0913 -0.1271  0.4759
 5971SOL    HW129132   9.087   5.470   3.922 -0.8975  2.8685  0.5554
 5971SOL    HW229133   8.956   5.433   3.831  0.2403 -0.6997  0.2877
 5972SOL     OW29134   2.060   8.557   6.051  0.2517 -0.2905 -0.0688
 5972SOL    HW129135   2.120   8.483   6.022 -0.3030 -0.6266 -0.3760
 5972SOL    HW229136   2.005   8.587   5.973 -2.6822 -2.5410  1.0419
 5973SOL     OW29137   8.327   2.733   5.662  0.2259 -0.5703 -0.1876
 5973SOL    HW129138   8.342   2.819   5.614 -0.8927 -0.4518 -0.3420
 5973SOL    HW229139   8.393   2.724   5.737  3.3671 -1.7029 -2.9670
 5974SOL     OW29140   6.215   2.143   3.845  0.4888 -0.0448  0.6571
 5974SOL    HW129141   6.206   2.044   3.833 -1.2974  0.0216  1.3020
 5974SOL    HW229142   6.272   2.180   3.772  0.7560 -1.4805  0.1181
 5975SOL     OW29143   9.754   0.742   0.571  0.0724  0.4226  0.4426
 5975SOL    HW129144   9.839   0.733   0.518 -0.7009 -1.1986 -0.5646
 5975SOL    HW229145   9.754   0.675   0.646 -1.5011 -1.5301 -1.2400
 5976SOL     OW29146   3.310   1.626   1.254 -0.0798  0.4812 -0.0589
 5976SOL    HW129147   3.272   1.672   1.174 -2.8933 -0.7405  0.5284
 5976SOL    HW229148   3.271   1.534   1.261 -0.0481  0.6542  2.8359
 5977SOL     OW29149   4.632   5.290   7.796  0.2339  0.0905 -0.3421
 5977SOL    HW129150   4.691   5.211   7.812  1.5787  0.9492 -1.0138
 5977SOL    HW229151   4.626   5.308   7.698 -2.6297 -1.0917 -0.4461
 5978SOL     OW29152   4.223   9.463   6.865  0.1773 -0.0293  1.1206
 5978SOL    HW129153   4.143   9.416   6.828  1.5204 -0.1955 -1.7054
 5978SOL    HW229154   4.207   9.562   6.865 -0.1795 -0.0873  0.8919
 5979SOL     OW29155   5.614   0.302   6.509  0.3269  0.1778 -0.1778
 5979SOL    HW129156   5.533   0.254   6.477 -0.3881  2.1463 -1.3778
 5979SOL    HW229157   5.587   0.385   6.558  1.5962  1.2740 -1.2730
 5980SOL     OW29158   5.265   1.668   3.124 -0.3188 -0.0910 -0.5808
 5980SOL    HW129159   5.299   1.575   3.133  1.2872  0.5879  0.6982
 5980SOL    HW229160   5.225   1.697   3.211 -0.8991  0.3924 -1.0004
 5981SOL     OW29161   1.471   8.117   0.121  0.0108  0.0431  0.1609
 5981SOL    HW129162   1.566   8.112   0.154  0.1033  0.0803 -0.0968
 5981SOL    HW229163   1.469   8.167   0.035 -0.3646  0.8588  0.6336
 5982SOL     OW29164   1.058   5.883   3.407  0.9050  0.5019  0.1981
 5982SOL    HW129165   1.152   5.901   3.437  1.2883 -0.1755 -0.5695
 5982SOL    HW229166   1.041   5.932   3.321  1.0373 -0.5401 -0.4303
 5983SOL     OW29167   5.443   5.134   1.019 -0.3013 -0.4970  0.5958
 5983SOL    HW129168   5.480   5.201   0.954 -0.1450  0.6792  1.8664
 5983SOL    HW229169   5.464   5.163   1.112 -3.4193 -0.3644  1.3187
 5984SOL     OW29170   1.988   9.812   3.068  0.2840 -0.4256 -0.3202
 5984SOL    HW129171   1.918   9.845   3.131  0.4828  0.0837 -0.3660
 5984SOL    HW229172   1.994   9.712   3.075 -1.7203 -0.6621 -1.6490
 5985SOL     OW29173   7.873   4.305   3.279 -0.1166  0.0063  0.3284
 5985SOL    HW129174   7.919   4.341   3.360 -0.7275  2.7395 -0.4878
 5985SOL    HW229175   7.775   4.324   3.286 -0.6018 -2.3677  0.2857
 5986SOL     OW29176   0.475   9.597   5.317  0.1216 -0.5779  0.4083
 5986SOL    HW129177   0.486   9.663   5.392  1.1046 -1.1977  0.8206
 5986SOL    HW229178   0.418   9.521   5.349 -0.4317 -0.2724  0.1524
 5987SOL     OW29179   6.253   0.226   1.581  0.0638  0.1994  0.1495
 5987SOL    HW129180   6.164   0.250   1.620  0.6058  0.2038  1.4149
 5987SOL    HW229181   6.276   0.290   1.509 -0.1270  1.3175  1.0674
 5988SOL     OW29182   3.255   5.013   4.743 -0.2587 -0.0548 -0.2557
 5988SOL    HW129183   3.260   5.111   4.764 -0.8540 -0.0178 -0.2665
 5988SOL    HW229184   3.299   4.996   4.655  1.1720 -0.0315  0.4515
 5989SOL     OW29185   9.431   5.496   0.664 -0.0235 -0.1437 -0.0834
 5989SOL    HW129186   9.480   5.534   0.585 -0.9497 -1.5012 -1.3207
 5989SOL    HW229187   9.483   5.418   0.701  0.4732  0.5683  0.7499
 5990SOL     OW29188   3.646   6.647   1.821  0.2708  0.0126  0.3257
 5990SOL    HW129189   3.591   6.701   1.885 -1.1458 -0.8255 -0.1494
 5990SOL    HW229190   3.632   6.550   1.838  1.9551 -0.2119  0.4607
 5991SOL     OW29191   3.385   2.118   5.494 -0.1264  0.0412  0.1917
 5991SOL    HW129192   3.328   2.091   5.572 -3.2431  2.1480 -1.2524
 5991SOL    HW229193   3.418   2.036   5.447  0.8733 -1.2460  3.0274
 5992SOL     OW29194   2.502   8.266   2.892 -0.3911  0.2527  0.8098
 5992SOL    HW129195   2.597   8.242   2.910 -0.1350 -0.4142 -1.3129
 5992SOL    HW229196   2.442   8.202   2.938  0.2227 -0.5717  0.4644
 5993SOL     OW29197   0.145   5.196   1.292 -0.4144 -0.8950  0.3445
 5993SOL    HW129198   0.191   5.168   1.376 -1.6875 -1.8498  0.7257
 5993SOL    HW229199   0.211   5.243   1.233  0.2342  0.7970  2.3240
 5994SOL     OW29200   7.015   8.015   3.197  0.4174  0.3281  0.1082
 5994SOL    HW129201   7.063   8.016   3.109 -0.9707  1.3701 -0.6655
 5994SOL    HW229202   6.998   7.920   3.224 -0.1090  0.0061 -1.3137
 5995SOL     OW29203   2.598   7.445   6.432 -0.3804  0.1171 -0.5519
 5995SOL    HW129204   2.648   7.456   6.346  0.5527 -0.4785 -0.0993
 5995SOL    HW229205   2.500   7.445   6.414 -0.1846 -0.3138 -1.6526
 5996SOL     OW29206   7.549   8.387   4.254  0.2627 -0.0474 -0.3789
 5996SOL    HW129207   7.621   8.434   4.204 -0.2314 -0.0230 -1.0707
 5996SOL    HW229208   7.466   8.444   4.254  0.1121 -0.2638  0.0468
 5997SOL     OW29209   5.146   4.664   0.546  0.1814  0.0499  0.5360
 5997SOL    HW129210   5.134   4.609   0.628 -0.4159 -0.0577  0.3830
 5997SOL    HW229211   5.150   4.761   0.570 -2.1173  0.1703  0.5075
 5998SOL     OW29212   2.941   0.098   2.926  0.0217 -0.1745 -0.0806
 5998SOL    HW129213   2.949   0.198   2.932 -1.7398 -0.1109  1.6034
 5998SOL    HW229214   3.025   0.056   2.961  0.6928  0.6993 -0.6062
 5999SOL     OW29215   2.060   6.987   4.545 -0.5108 -0.3129  0.0439
 5999SOL    HW129216   2.006   6.949   4.620  0.3954 -2.2380 -0.2387
 5999SOL    HW229217   2.023   6.955   4.458 -0.0402 -0.1415 -0.2207
 6000SOL     OW29218   1.978   2.407   2.351 -0.2341  0.4214 -0.3825
 6000SOL    HW129219   1.947   2.382   2.443  1.6179  0.6441  0.3350
 6000SOL    HW229220   2.076   2.430   2.354 -0.3480  1.2505 -2.2582
 6001SOL     OW29221   7.978   8.381   3.061  0.3719 -0.0442 -0.1876
 6001SOL    HW129222   7.977   8.282   3.075  0.7144 -0.0583 -0.2719
 6001SOL    HW229223   7.947   8.402   2.969  1.8718 -0.1741 -0.7466
 6002SOL     OW29224   5.314   1.129   5.052  0.0824  0.5031 -0.4302
 6002SOL    HW129225   5.308   1.029   5.043 -0.4625  0.5338 -0.3895
 6002SOL    HW229226   5.319   1.171   4.962 -0.3706  0.4824 -0.4663
 6003SOL     OW29227   3.152   8.888   0.643 -0.1719 -0.4790 -0.5249
 6003SOL    HW129228   3.211   8.884   0.724 -0.3177  1.9261 -0.2606
 6003SOL    HW229229   3.108   8.978   0.638 -1.7540 -1.3073 -2.1762
 6004SOL     OW29230   4.163   8.263   1.178 -0.0466 -0.0301 -0.1678
 6004SOL    HW129231   4.240   8.314   1.139 -0.6974 -0.1310 -1.6196
 6004SOL    HW229232   4.169   8.168   1.148  0.2946 -0.4542  1.2506
 6005SOL     OW29233   7.729   1.161   3.370 -0.3720  0.5264 -0.2419
 6005SOL    HW129234   7.787   1.082   3.389 -0.5152  0.5274  0.1934
 6005SOL    HW229235   7.691   1.196   3.455  1.5597  2.4996 -0.1401
 6006SOL     OW29236   8.991   9.155   0.519 -0.1701  0.5065  0.0259
 6006SOL    HW129237   8.933   9.235   0.538 -1.3854 -0.6006  1.0444
 6006SOL    HW229238   8.934   9.073   0.515  0.8248 -0.1223 -2.6919
 6007SOL     OW29239   0.723   9.279   0.893  0.0241  0.1202 -0.3164
 6007SOL    HW129240   0.669   9.279   0.809  0.7932  1.5976 -0.8302
 6007SOL    HW229241   0.731   9.373   0.927  0.8370 -0.3017  0.6742
 6008SOL     OW29242   7.201   2.734   2.807 -0.4253  0.3500 -0.1270
 6008SOL    HW129243   7.211   2.834   2.798  2.3840  0.1378  0.2563
 6008SOL    HW229244   7.126   2.714   2.870 -1.5938  2.1873 -0.8641
 6009SOL     OW29245   9.646   9.317   4.093 -0.2985 -0.4125  0.3198
 6009SOL    HW129246   9.598   9.269   4.168  0.4422  0.1695  1.1694
 6009SOL    HW229247   9.691   9.398   4.129 -0.8643  0.4913 -0.9784
 6010SOL     OW29248   1.889   6.940   5.026  1.1332 -0.2649  0.5803
 6010SOL    HW129249   1.984   6.968   5.037  0.5416  1.7883  0.8360
 6010SOL    HW229250   1.831   6.997   5.084 -0.3716 -0.6173 -0.5370
 6011SOL     OW29251   2.091   6.040   5.095  0.5417  0.0901 -0.0015
 6011SOL    HW129252   2.081   5.963   5.032  0.8162  0.3426 -0.3574
 6011SOL    HW229253   2.030   6.114   5.069  1.1726  0.4757 -0.4044
 6012SOL     OW29254   9.362   8.516   2.929  0.0626 -0.0644  0.5389
 6012SOL    HW129255   9.420   8.571   2.870  0.3158 -0.0124  0.8311
 6012SOL    HW229256   9.409   8.431   2.952 -0.0048 -0.0560  0.7148
 6013SOL     OW29257   0.872   6.341   6.186  0.6209 -0.1593  0.1965
 6013SOL    HW129258   0.777   6.310   6.188  0.3052  0.8281  1.9057
 6013SOL    HW229259   0.890   6.389   6.100 -1.2722  2.1578  1.0455
 6014SOL     OW29260   4.631   9.199   3.965  0.5840 -0.4214 -0.1599
 6014SOL    HW129261   4.635   9.262   4.043  0.8064  0.4055 -0.8365
 6014SOL    HW229262   4.700   9.225   3.898  1.7032 -2.2856  0.2244
 6015SOL     OW29263   5.459   8.421   2.809  0.3349 -0.0035  0.3071
 6015SOL    HW129264   5.475   8.326   2.835 -0.3080  0.2425  1.6217
 6015SOL    HW229265   5.544   8.459   2.771  0.2236 -1.4792 -1.4851
 6016SOL     OW29266   0.323   1.992   2.430 -0.1412  0.5086  0.4196
 6016SOL    HW129267   0.387   2.067   2.413  0.6825 -0.0928  0.8333
 6016SOL    HW229268   0.343   1.951   2.519  0.0882 -0.8652 -0.2463
 6017SOL     OW29269   4.656   8.145   2.619  0.2438 -0.0987 -0.3131
 6017SOL    HW129270   4.726   8.160   2.688  1.0540 -2.7786 -0.4862
 6017SOL    HW229271   4.680   8.193   2.535  0.8060  0.6675  0.2822
 6018SOL     OW29272   2.588   3.407   1.768 -0.4791  0.0006 -0.1412
 6018SOL    HW129273   2.676   3.366   1.788  0.5050  2.2878  0.3570
 6018SOL    HW229274   2.539   3.426   1.853 -0.4576  0.8356 -0.3095
 6019SOL     OW29275   5.532   8.819   5.736 -0.6650  0.5596  0.0901
 6019SOL    HW129276   5.582   8.770   5.807 -0.5739 -1.4729 -1.3385
 6019SOL    HW229277   5.547   8.918   5.746 -0.0217  0.2419  2.3816
 6020SOL     OW29278   3.449   1.069   5.870 -0.6894 -0.0212  0.0946
 6020SOL    HW129279   3.387   1.032   5.939  1.5715 -1.6726  1.3068
 6020SOL    HW229280   3.512   1.134   5.913  0.5709 -0.8626 -0.4520
 6021SOL     OW29281   7.678   0.764   0.844  0.1959 -0.0506 -0.4711
 6021SOL    HW129282   7.682   0.769   0.944 -0.1959  1.1552 -0.5081
 6021SOL    HW229283   7.583   0.754   0.816  0.0607  2.0290 -0.8109
 6022SOL     OW29284   2.854   1.111   5.539  0.3610 -0.1870 -0.2331
 6022SOL    HW129285   2.884   1.024   5.578  1.1848  0.2281  0.0610
 6022SOL    HW229286   2.908   1.132   5.458  1.4282  0.9557  0.7609
 6023SOL     OW29287   9.787   9.394   1.097  0.1114 -0.6956 -0.3779
 6023SOL    HW129288   9.773   9.333   1.175 -0.9922 -1.0286 -0.8224
 6023SOL    HW229289   9.721   9.469   1.101  1.6233  0.6179  0.2935
 6024SOL     OW29290   2.520   2.430   2.051 -0.2684  0.5579 -0.0361
 6024SOL    HW129291   2.504   2.348   1.996 -2.8091 -0.0777  1.5829
 6024SOL    HW229292   2.573   2.406   2.132  0.0278  0.7697 -0.1632
 6025SOL     OW29293   4.097   5.089   5.661  0.2720 -0.2380  0.1366
 6025SOL    HW129294   4.156   5.064   5.585  0.2608  2.7037 -0.8925
 6025SOL    HW229295   4.149   5.141   5.729 -0.7980  1.2900 -0.1784
 6026SOL     OW29296   9.920   3.007   4.360  0.0065 -0.4219 -0.0299
 6026SOL    HW129297   9.904   2.985   4.264 -0.9300  0.5599 -0.1132
 6026SOL    HW229298   9.833   3.024   4.406  0.5614  1.4546  0.4080
 6027SOL     OW29299   8.880   1.484   2.245 -0.1306  0.2476 -0.4069
 6027SOL    HW129300   8.876   1.424   2.166  0.1924  0.4105 -0.5473
 6027SOL    HW229301   8.796   1.475   2.298  0.9184 -2.2334  0.9496
 6028SOL     OW29302   8.809   5.379   5.452  0.1781 -0.1413  0.3609
 6028SOL    HW129303   8.908   5.367   5.462  0.4710  0.2645 -1.8866
 6028SOL    HW229304   8.790   5.472   5.420 -0.9719 -0.1095  1.1054
 6029SOL     OW29305   2.368   2.194   3.832  0.7092 -0.5014 -0.2628
 6029SOL    HW129306   2.300   2.139   3.784  0.2073 -0.6709  0.6391
 6029SOL    HW229307   2.351   2.191   3.930  2.8401 -1.6866  0.0984
 6030SOL     OW29308   3.928   7.838   5.092 -0.3072  0.3131 -0.1081
 6030SOL    HW129309   4.022   7.872   5.089  0.1318 -0.9295 -0.9886
 6030SOL    HW229310   3.892   7.847   5.185  0.9024  0.2231  0.3778
 6031SOL     OW29311   3.223   1.245   1.318  0.9147  0.1124  0.1348
 6031SOL    HW129312   3.171   1.285   1.243  1.7253  0.8373 -0.0437
 6031SOL    HW229313   3.259   1.156   1.289  2.9316  1.2819 -1.0670
 6032SOL     OW29314   8.233   3.524   0.069 -0.3460 -0.0395  0.4223
 6032SOL    HW129315   8.193   3.450   0.015  0.1935 -1.0932  1.4435
 6032SOL    HW229316   8.223   3.504   0.167 -0.4705  1.3877  0.7156
 6033SOL     OW29317   1.671   7.587   0.094 -0.0195  0.4372  0.0206
 6033SOL    HW129318   1.632   7.665   0.143  3.1121  1.8018  0.4486
 6033SOL    HW229319   1.760   7.612   0.057  0.6849 -2.7060 -0.5659
 6034SOL     OW29320   7.229   6.668   3.696  0.5372 -0.2755 -0.1557
 6034SOL    HW129321   7.239   6.739   3.766  1.3746 -0.8212  0.2863
 6034SOL    HW229322   7.263   6.581   3.732  0.0999 -0.7664 -0.9154
 6035SOL     OW29323   0.507   7.712   5.297 -0.0957  0.4285 -0.0338
 6035SOL    HW129324   0.444   7.776   5.255 -0.3442  0.9428  1.0977
 6035SOL    HW229325   0.543   7.649   5.228 -1.3456  0.5497 -0.7982
 6036SOL     OW29326   3.208   1.753   1.024 -0.5162 -0.0201  0.3064
 6036SOL    HW129327   3.115   1.777   0.996 -0.4636 -0.9350 -0.6996
 6036SOL    HW229328   3.272   1.779   0.952 -0.1798 -0.8508  0.3028
 6037SOL     OW29329   3.855   2.842   5.027  0.0331  0.2009 -0.1968
 6037SOL    HW129330   3.864   2.788   5.111  0.2234 -0.0934 -0.4045
 6037SOL    HW229331   3.787   2.801   4.967 -0.4542  0.6833  0.0198
 6038SOL     OW29332   5.362   8.388   4.578  0.1959 -0.1737  0.2698
 6038SOL    HW129333   5.441   8.407   4.637  1.1203 -0.0273 -0.9950
 6038SOL    HW229334   5.391   8.336   4.498 -1.1294 -0.7839  0.1666
 6039SOL     OW29335   4.657   0.365   3.553 -0.0100  0.1996  0.2024
 6039SOL    HW129336   4.638   0.339   3.648  1.9715  0.1061  0.5997
 6039SOL    HW229337   4.621   0.456   3.535 -0.3807  0.2258  1.0418
 6040SOL     OW29338   4.468   2.803   5.304  0.4559 -0.1173  0.4046
 6040SOL    HW129339   4.494   2.861   5.226 -2.0486  2.3378  1.3059
 6040SOL    HW229340   4.541   2.803   5.372  2.7260 -2.3754 -1.9254
 6041SOL     OW29341   1.515   6.049   1.959  0.2227  0.7583  0.7364
 6041SOL    HW129342   1.461   5.986   2.015 -0.7102  1.7644  0.9837
 6041SOL    HW229343   1.604   6.008   1.939 -0.8794 -1.1957 -0.2566
 6042SOL     OW29344   3.739   5.777   3.507 -0.1399 -0.1400 -0.2984
 6042SOL    HW129345   3.828   5.822   3.512 -0.1470 -0.1053 -0.4650
 6042SOL    HW229346   3.690   5.809   3.426  0.5345 -1.6633 -1.3370
 6043SOL     OW29347   1.146   8.374   3.779 -0.1863  0.0171  0.8452
 6043SOL    HW129348   1.114   8.356   3.871  0.4132  1.8086  1.4342
 6043SOL    HW229349   1.068   8.390   3.719 -0.5780 -1.2180  1.0246
 6044SOL     OW29350   5.124   0.753   5.967 -0.1579  0.0199 -0.1875
 6044SOL    HW129351   5.206   0.762   6.024 -1.0606 -1.2194  1.3346
 6044SOL    HW229352   5.044   0.785   6.018 -0.8185 -0.0127 -1.1839
 6045SOL     OW29353   9.532   3.324   6.285 -0.4774  0.0925  0.2944
 6045SOL    HW129354   9.548   3.419   6.258  0.5498 -0.1023  0.1959
 6045SOL    HW229355   9.606   3.293   6.345 -2.3042  0.2464  2.6883
 6046SOL     OW29356   8.176   1.574   1.791  0.2662 -0.6894 -0.0757
 6046SOL    HW129357   8.205   1.528   1.707  1.7255 -0.7296  0.4439
 6046SOL    HW229358   8.175   1.508   1.867  3.3927  0.3137  0.9029
 6047SOL     OW29359   2.036   7.310   3.232  0.5878  0.0540  0.4554
 6047SOL    HW129360   2.071   7.282   3.322 -0.2121 -0.0073  0.7505
 6047SOL    HW229361   1.951   7.362   3.244  0.5675  0.1896 -0.2587
 6048SOL     OW29362   2.096   0.049   3.527  0.1350  0.2001  0.0507
 6048SOL    HW129363   2.122  -0.042   3.558  0.7010 -0.4213 -2.1664
 6048SOL    HW229364   2.080   0.108   3.606  0.9707 -1.4740  1.4951
 6049SOL     OW29365   4.452   9.626   2.229 -0.0249 -0.5848 -0.6350
 6049SOL    HW129366   4.356   9.599   2.233 -0.1268 -0.3073 -1.0718
 6049SOL    HW229367   4.471   9.693   2.301 -0.5434  0.5130 -1.4930
 6050SOL     OW29368   4.535   4.351   3.443 -0.1153 -0.5082 -0.5088
 6050SOL    HW129369   4.534   4.384   3.538 -2.9247  0.1301 -0.7067
 6050SOL    HW229370   4.501   4.424   3.383  1.0834 -1.1164 -1.9418
 6051SOL     OW29371   9.487   0.681   2.750  0.5382  0.0134  0.3610
 6051SOL    HW129372   9.408   0.621   2.750  0.1831  0.4650  1.8391
 6051SOL    HW229373   9.470   0.759   2.810  1.7797  0.5467  0.0403
 6052SOL     OW29374   0.631   3.111   5.405 -0.1789 -0.5587 -0.2191
 6052SOL    HW129375   0.612   3.154   5.317 -0.4050 -2.0350 -0.9234
 6052SOL    HW229376   0.721   3.141   5.439 -0.2077  0.2144 -0.8234
 6053SOL     OW29377   4.370   7.351   0.906 -0.3918 -0.0733 -0.0149
 6053SOL    HW129378   4.417   7.439   0.909 -0.5836  0.0384 -0.2557
 6053SOL    HW229379   4.427   7.285   0.856  0.1707 -0.3438  0.9598
 6054SOL     OW29380   6.020   0.648   2.639 -0.3713  0.4426 -0.1303
 6054SOL    HW129381   6.108   0.640   2.592 -0.2759 -0.9879  0.2438
 6054SOL    HW229382   5.968   0.563   2.627 -0.2325 -0.0753  2.5104
 6055SOL     OW29383   7.008   7.742   5.290  0.2192 -0.1066 -0.5968
 6055SOL    HW129384   6.911   7.766   5.283  0.3428  0.4602 -0.3496
 6055SOL    HW229385   7.063   7.815   5.250  0.6776  0.7242  1.5393
 6056SOL     OW29386   2.381   2.514   0.996  0.1359  0.3917  0.2853
 6056SOL    HW129387   2.352   2.601   0.957 -1.3351 -0.9863 -1.8224
 6056SOL    HW229388   2.306   2.449   0.992  1.9770 -1.7525 -0.5497
 6057SOL     OW29389   1.524   4.115   1.000  0.2954  0.5221 -0.3104
 6057SOL    HW129390   1.538   4.190   1.065 -1.6759  0.3393  0.3602
 6057SOL    HW229391   1.441   4.132   0.947 -0.2967 -1.2965 -0.0051
 6058SOL     OW29392   7.350   2.734   1.058  0.5334  0.3365  0.4778
 6058SOL    HW129393   7.257   2.724   1.092  0.4566  1.3527  0.5656
 6058SOL    HW229394   7.353   2.806   0.989  1.0504 -0.4303 -0.3046
 6059SOL     OW29395   3.604   0.454   4.998 -0.3215  0.0412  0.0417
 6059SOL    HW129396   3.572   0.367   5.035  0.1337  0.3498  1.1861
 6059SOL    HW229397   3.543   0.527   5.030  0.0272  0.3000  0.1129
 6060SOL     OW29398   4.741   0.337   5.206 -0.2590  0.0895 -0.4577
 6060SOL    HW129399   4.741   0.287   5.120  0.2525 -1.0800  0.2066
 6060SOL    HW229400   4.659   0.313   5.259 -0.3036  0.3915 -0.3880
 6061SOL     OW29401   3.142   8.284   3.896 -0.1190  0.0822  0.1460
 6061SOL    HW129402   3.117   8.215   3.829  1.4333  0.2485 -0.6220
 6061SOL    HW229403   3.105   8.259   3.985 -1.0644 -0.8175 -0.4860
 6062SOL     OW29404   9.713   2.483   5.058  0.3248 -0.7677 -0.1821
 6062SOL    HW129405   9.637   2.496   4.995  0.0974  0.6662  0.3457
 6062SOL    HW229406   9.766   2.568   5.064 -0.7660 -0.2224  2.9583
 6063SOL     OW29407   2.343   0.765   5.156  0.4263 -0.1769  0.4843
 6063SOL    HW129408   2.375   0.735   5.245 -0.6160 -0.8016  0.6667
 6063SOL    HW229409   2.248   0.736   5.143  0.0418  1.3089 -0.1740
 6064SOL     OW29410   9.790   1.284   1.935 -0.2161 -0.0417  0.1709
 6064SOL    HW129411   9.716   1.352   1.927 -0.3775 -0.1007  1.0796
 6064SOL    HW229412   9.777   1.213   1.866  0.7874  1.6135 -1.7950
 6065SOL     OW29413   9.265   7.357   5.853  0.0774 -0.3884  0.4581
 6065SOL    HW129414   9.338   7.289   5.847 -1.4186 -2.0165  0.3455
 6065SOL    HW229415   9.189   7.331   5.793 -0.8531  0.9599  1.0123
 6066SOL     OW29416   1.112   9.962   2.907 -0.1600  0.1615 -0.6763
 6066SOL    HW129417   1.134   9.955   3.004 -0.7881  0.4712 -0.5124
 6066SOL    HW229418   1.144   9.879   2.860  1.4231  0.6319 -0.4614
 6067SOL     OW29419   2.506   5.934   0.986  0.0253 -0.1485 -0.2700
 6067SOL    HW129420   2.434   5.992   0.947 -0.3674  0.6873  1.6686
 6067SOL    HW229421   2.516   5.852   0.930 -1.6538  0.2573 -1.1961
 6068SOL     OW29422   6.612   5.233   1.990  0.7396 -0.1362 -0.3627
 6068SOL    HW129423   6.547   5.251   2.064 -0.1962 -2.1061 -0.6813
 6068SOL    HW229424   6.567   5.245   1.902  1.1121 -0.4248 -0.5935
 6069SOL     OW29425   3.841   5.891   1.812 -0.6111 -0.2111  0.1595
 6069SOL    HW129426   3.875   5.800   1.788  1.0081  0.3826  0.1561
 6069SOL    HW229427   3.906   5.936   1.874 -2.5779  0.0068  2.1251
 6070SOL     OW29428   7.683   3.000   5.059  0.2287 -0.7902 -0.2477
 6070SOL    HW129429   7.616   3.072   5.040 -0.5241 -1.3695  0.2098
 6070SOL    HW229430   7.651   2.942   5.133  1.2405 -1.0773 -0.0176
 6071SOL     OW29431   5.057   9.504   5.341  0.2840 -0.9368  0.3513
 6071SOL    HW129432   5.031   9.568   5.268  2.1127 -0.5690 -0.0052
 6071SOL    HW229433   4.975   9.462   5.379 -1.0494  2.4941  1.4075
 6072SOL     OW29434   2.677   2.401   1.661  0.1762 -0.3565  0.2240
 6072SOL    HW129435   2.771   2.436   1.664 -0.3876  1.1462  0.8285
 6072SOL    HW229436   2.671   2.328   1.593  1.6464 -0.0538 -0.2537
 6073SOL     OW29437   1.610   3.742   2.923  0.4062  0.6652 -0.0005
 6073SOL    HW129438   1.698   3.740   2.876  1.4990 -1.0425  2.0217
 6073SOL    HW229439   1.546   3.680   2.877  1.3382 -0.7023  0.5421
 6074SOL     OW29440   4.358   1.701   1.790  0.2439 -0.0012  0.3232
 6074SOL    HW129441   4.454   1.718   1.814  0.3881  0.9465 -0.8691
 6074SOL    HW229442   4.299   1.752   1.852  0.5278 -0.2348  0.7852
 6075SOL     OW29443   8.010   9.875   6.576 -0.2372  0.0037 -0.2797
 6075SOL    HW129444   8.033   9.911   6.666  1.0421  0.6776 -0.8644
 6075SOL    HW229445   8.031   9.777   6.574  1.3977  0.3290 -0.3739
 6076SOL     OW29446   0.141   9.825   0.389 -0.0138 -0.1222  0.2198
 6076SOL    HW129447   0.234   9.830   0.426 -0.0012 -0.3857  0.2208
 6076SOL    HW229448   0.102   9.917   0.387 -0.1062 -0.1399  1.1177
 6077SOL     OW29449   8.033   3.836   3.079  0.8935  0.5907 -0.9471
 6077SOL    HW129450   7.937   3.851   3.059  0.4051 -0.3625  0.5374
 6077SOL    HW229451   8.062   3.747   3.043  1.2255  0.8753 -1.3933
 6078SOL     OW29452   7.636   3.646   5.424  0.1398 -0.8571  0.7774
 6078SOL    HW129453   7.559   3.603   5.376 -0.7275  2.6180 -1.2065
 6078SOL    HW229454   7.609   3.738   5.452  2.5689 -0.7687  2.9641
 6079SOL     OW29455   0.473   6.145   5.832 -0.0771  0.0441  0.9564
 6079SOL    HW129456   0.509   6.171   5.922 -2.5405  1.8723  1.4630
 6079SOL    HW229457   0.379   6.114   5.841 -0.3041  0.0822 -1.0041
 6080SOL     OW29458   6.690   6.943   5.634 -0.2132 -0.0563  0.8322
 6080SOL    HW129459   6.753   6.878   5.593 -1.9822  0.3164 -2.6524
 6080SOL    HW229460   6.644   6.901   5.712  1.5881 -1.5879  1.0934
 6081SOL     OW29461   0.545   2.894   4.132  0.1124 -0.2596  0.1683
 6081SOL    HW129462   0.586   2.803   4.131  1.4246  0.3092 -2.4880
 6081SOL    HW229463   0.540   2.930   4.038 -0.8347  2.2021  1.1052
 6082SOL     OW29464   3.522   3.233   3.657  0.4149  0.1084  0.4905
 6082SOL    HW129465   3.621   3.236   3.668  0.4400 -2.3648  1.1628
 6082SOL    HW229466   3.478   3.227   3.747 -0.3641  1.4626  0.2113
 6083SOL     OW29467   8.707   8.510   2.444  0.1845 -0.0647 -0.0679
 6083SOL    HW129468   8.708   8.445   2.520 -0.1335  0.2899  0.2437
 6083SOL    HW229469   8.641   8.583   2.464 -0.0666 -0.0929 -0.7878
 6084SOL     OW29470   3.602   5.673   5.514  0.0386 -0.4331 -0.3469
 6084SOL    HW129471   3.523   5.731   5.496  0.1286 -0.0007  0.6629
 6084SOL    HW229472   3.639   5.693   5.605  1.6816 -0.1796 -1.0417
 6085SOL     OW29473   0.838   6.692   3.812  0.0531  0.3303  0.3207
 6085SOL    HW129474   0.839   6.598   3.778 -0.1325  0.3852  0.1638
 6085SOL    HW229475   0.759   6.705   3.872 -1.2035  1.0102 -1.4381
 6086SOL     OW29476   0.788   8.251   3.034 -0.0622 -0.3585  0.5107
 6086SOL    HW129477   0.725   8.174   3.023  1.1055 -1.1538 -0.6819
 6086SOL    HW229478   0.844   8.236   3.115  0.0971 -0.7107  0.3357
 6087SOL     OW29479   7.017   0.688   4.372  0.5738 -0.6246 -0.1304
 6087SOL    HW129480   7.078   0.619   4.411  1.0380  0.9102  1.9828
 6087SOL    HW229481   7.011   0.765   4.435 -1.6451  0.3091 -1.4424
 6088SOL     OW29482   7.485   1.409   5.128 -0.1922  0.2654 -0.3030
 6088SOL    HW129483   7.537   1.467   5.192  0.9730 -1.3180  0.2062
 6088SOL    HW229484   7.521   1.420   5.036  0.0353  0.3310 -0.2068
 6089SOL     OW29485   9.637   3.378   8.107 -0.3881 -0.9549  0.4609
 6089SOL    HW129486   9.591   3.416   8.027 -1.6148 -1.3595  0.9593
 6089SOL    HW229487   9.710   3.317   8.078  0.4819  0.4322 -0.3446
 6090SOL     OW29488   8.866   6.213   2.524 -0.3441 -0.1998 -0.0643
 6090SOL    HW129489   8.857   6.127   2.573  1.1979 -0.3483 -0.0265
 6090SOL    HW229490   8.870   6.289   2.589  0.3251 -0.2788 -0.0093
 6091SOL     OW29491   7.749   6.723   4.306  0.4327  0.2712  0.0498
 6091SOL    HW129492   7.749   6.679   4.216 -0.0198 -0.5785  0.4611
 6091SOL    HW229493   7.759   6.654   4.377 -0.6858  0.7904  0.7233
 6092SOL     OW29494   1.617   8.870   3.646  0.0808  0.0506 -0.4586
 6092SOL    HW129495   1.534   8.817   3.625  1.3107 -2.8130  1.4758
 6092SOL    HW229496   1.613   8.901   3.741  1.0520  0.2578 -0.4828
 6093SOL     OW29497   6.494   7.686   3.746 -0.4875  0.0269  0.0961
 6093SOL    HW129498   6.524   7.610   3.803  2.6989  0.8576 -0.3936
 6093SOL    HW229499   6.499   7.660   3.650  0.4737  0.7789 -0.0685
 6094SOL     OW29500   4.911   0.275   3.484 -0.4733 -0.3823 -0.1012
 6094SOL    HW129501   4.817   0.296   3.509  0.1343  1.4545  0.7985
 6094SOL    HW229502   4.958   0.233   3.562 -0.7798 -2.1390 -0.8434
 6095SOL     OW29503   1.933   4.124   4.823 -0.4445 -0.1171  0.6015
 6095SOL    HW129504   1.922   4.196   4.891  0.8978  0.0975  0.6081
 6095SOL    HW229505   1.978   4.045   4.864  0.7849  0.1876 -0.1369
 6096SOL     OW29506   1.351   5.787   0.939  0.5898 -0.4370 -0.2514
 6096SOL    HW129507   1.300   5.873   0.934  0.6288 -0.4148 -0.2657
 6096SOL    HW229508   1.442   5.805   0.977  0.2733 -0.6133  0.6084
 6097SOL     OW29509   2.723   0.395   5.656  0.4996  0.0515 -0.5815
 6097SOL    HW129510   2.685   0.467   5.715 -0.0982 -1.3198  0.7343
 6097SOL    HW229511   2.777   0.437   5.582 -0.3638  1.8643 -0.2012
 6098SOL     OW29512   7.902   7.416   5.449 -0.8463  0.2604 -0.4947
 6098SOL    HW129513   7.893   7.347   5.521 -0.4247 -0.4765 -1.1428
 6098SOL    HW229514   7.813   7.430   5.405 -1.1137  0.7399  0.1847
 6099SOL     OW29515   8.517   8.175   6.564 -0.8606 -0.0997  0.2653
 6099SOL    HW129516   8.472   8.086   6.553 -1.2146  0.1880 -0.7070
 6099SOL    HW229517   8.458   8.235   6.617 -0.2974 -0.6689  1.5716
 6100SOL     OW29518   8.794   8.734   5.977  0.7208 -0.1817 -0.4501
 6100SOL    HW129519   8.700   8.719   6.009  0.4999 -0.2916 -1.1444
 6100SOL    HW229520   8.793   8.765   5.882  1.4510 -1.9537 -1.0696
 6101SOL     OW29521   8.142   6.714   5.905  0.5088 -0.7549  0.2827
 6101SOL    HW129522   8.185   6.798   5.873  1.0040 -0.5936  1.3441
 6101SOL    HW229523   8.202   6.670   5.973 -0.8072 -0.7348  1.4805
 6102SOL     OW29524   6.187   4.290   1.226  0.1067  0.2174 -0.2584
 6102SOL    HW129525   6.133   4.285   1.142  1.9870  1.1825 -1.5550
 6102SOL    HW229526   6.138   4.344   1.294  0.0235  2.2235 -1.8779
 6103SOL     OW29527   6.847   8.194   3.892 -0.5112 -0.5127 -0.4404
 6103SOL    HW129528   6.864   8.157   3.984 -0.4723 -1.7557 -0.9431
 6103SOL    HW229529   6.753   8.227   3.887 -0.0292  1.0580  0.5443
 6104SOL     OW29530   0.946   6.114   4.468 -0.1110 -0.0820 -0.0274
 6104SOL    HW129531   1.015   6.166   4.518 -1.2594  1.3906  0.0845
 6104SOL    HW229532   0.871   6.090   4.530 -1.1510  1.0450 -0.8191
 6105SOL     OW29533   6.761   2.958   1.092  0.0107 -0.6080  0.0575
 6105SOL    HW129534   6.712   3.035   1.133  0.9872 -0.4864  1.0053
 6105SOL    HW229535   6.697   2.901   1.041 -1.1066 -0.4021  1.2136
 6106SOL     OW29536   3.820   7.521   3.149  0.4790 -0.1098  0.0110
 6106SOL    HW129537   3.725   7.506   3.122  0.4898 -0.8719  0.4030
 6106SOL    HW229538   3.827   7.525   3.248  0.8561  0.0020 -0.0168
 6107SOL     OW29539   4.623   9.702   5.499  0.2633  0.3821  0.4707
 6107SOL    HW129540   4.556   9.628   5.492 -0.0496  0.5803  1.3761
 6107SOL    HW229541   4.701   9.672   5.554  1.4569 -0.2296 -1.4934
 6108SOL     OW29542   1.205   4.664   0.645 -0.0652 -0.2890  0.3175
 6108SOL    HW129543   1.196   4.687   0.549  0.0269 -0.8064  0.1828
 6108SOL    HW229544   1.195   4.747   0.701 -1.2136 -0.1618 -0.0674
 6109SOL     OW29545   2.060   3.961   5.755  0.0247 -0.4012 -0.2281
 6109SOL    HW129546   2.133   3.912   5.803 -0.1425  0.5619  1.0372
 6109SOL    HW229547   2.100   4.036   5.701  0.0595 -0.4468 -0.2663
 6110SOL     OW29548   8.320   7.343   2.148  0.7681  0.2379  0.4091
 6110SOL    HW129549   8.264   7.415   2.108  2.4091  1.3559  0.0983
 6110SOL    HW229550   8.360   7.375   2.234 -0.1765 -1.0399  1.3464
 6111SOL     OW29551   0.191   7.583   4.239 -0.0666 -0.0050  0.3086
 6111SOL    HW129552   0.286   7.558   4.222  0.5047  0.4475  2.7416
 6111SOL    HW229553   0.135   7.500   4.242  0.2291 -0.2738 -1.1139
 6112SOL     OW29554   0.830   4.570   4.943  0.0731  0.7462 -0.1636
 6112SOL    HW129555   0.816   4.656   4.992 -0.2748 -0.0773  1.1931
 6112SOL    HW229556   0.795   4.579   4.850 -0.8722  1.7506  0.2758
 6113SOL     OW29557   9.100   9.667   6.169  0.2975 -0.1906 -0.4272
 6113SOL    HW129558   9.091   9.721   6.085  0.1786 -1.8316 -1.4990
 6113SOL    HW229559   9.030   9.596   6.171  2.3734 -2.3078 -0.6082
 6114SOL     OW29560   4.277   3.286   4.352  0.2229  0.0550  0.5202
 6114SOL    HW129561   4.339   3.355   4.317  1.3481 -0.3758  1.6215
 6114SOL    HW229562   4.228   3.243   4.276  0.5030  1.1302 -0.2655
 6115SOL     OW29563   0.188   6.230   2.327  0.3275 -0.2779 -0.1382
 6115SOL    HW129564   0.226   6.154   2.378  0.8809  0.3868  0.4455
 6115SOL    HW229565   0.121   6.278   2.384 -0.4168 -0.6384 -0.6897
 6116SOL     OW29566   6.521   9.163   5.442  0.2125 -0.1535 -0.4830
 6116SOL    HW129567   6.503   9.238   5.378 -1.9485 -0.4575 -0.2756
 6116SOL    HW229568   6.461   9.172   5.521  2.0953 -0.4012  1.0034
 6117SOL     OW29569   9.199   2.927   6.018 -0.1313 -0.4736 -0.0726
 6117SOL    HW129570   9.204   2.830   5.992  1.4887 -0.6115  0.6777
 6117SOL    HW229571   9.106   2.960   6.003 -0.7722 -2.2062 -0.1373
 6118SOL     OW29572   5.042   1.220   1.770  0.2336  0.2021 -0.1914
 6118SOL    HW129573   5.049   1.266   1.858 -1.1380 -0.6751  0.3866
 6118SOL    HW229574   4.988   1.136   1.780  1.8512 -1.0231 -1.4262
 6119SOL     OW29575   1.385   1.100   0.800 -0.1797 -0.3369 -0.6958
 6119SOL    HW129576   1.475   1.056   0.805 -0.3613 -0.7590 -1.2060
 6119SOL    HW229577   1.390   1.189   0.845 -0.2394 -1.5475  1.7736
 6120SOL     OW29578   3.453   4.484   3.736  0.3024  0.4358 -0.2609
 6120SOL    HW129579   3.466   4.479   3.637 -0.8558  0.2966 -0.4077
 6120SOL    HW229580   3.543   4.491   3.780  0.7963  1.3375 -1.3575
 6121SOL     OW29581   8.226   3.076   0.662  0.5399 -0.1573 -0.0623
 6121SOL    HW129582   8.199   2.981   0.676 -1.6915  0.4242 -0.2593
 6121SOL    HW229583   8.181   3.134   0.730  0.8947  0.9164 -0.7211
 6122SOL     OW29584   3.716   9.376   0.204 -0.5983  0.0541 -0.4948
 6122SOL    HW129585   3.619   9.385   0.179 -0.7254 -0.4979 -0.2136
 6122SOL    HW229586   3.766   9.456   0.173 -1.4973  1.2311  1.0190
 6123SOL     OW29587   8.566   7.402   3.207  0.2995 -0.5266  0.3168
 6123SOL    HW129588   8.616   7.384   3.291  1.0713  0.3330  0.0452
 6123SOL    HW229589   8.478   7.355   3.210  0.5447 -0.9270  1.3760
 6124SOL     OW29590   0.580   5.448   0.177 -0.6271 -0.3589  0.2219
 6124SOL    HW129591   0.638   5.498   0.112  0.3933  0.6490  1.8859
 6124SOL    HW229592   0.570   5.353   0.147  1.0683 -0.2894 -0.5874
 6125SOL     OW29593   1.590   9.376   5.640  0.1899 -0.2218  0.5166
 6125SOL    HW129594   1.658   9.325   5.692 -0.0090  2.0685  3.1165
 6125SOL    HW229595   1.502   9.328   5.644  1.2077 -2.4050 -1.6076
 6126SOL     OW29596   2.091   8.576   3.160 -0.2334 -0.1022  0.3187
 6126SOL    HW129597   2.016   8.636   3.133  1.0971  1.2082 -0.5566
 6126SOL    HW229598   2.177   8.613   3.126  0.3921 -3.8187 -2.4587
 6127SOL     OW29599   0.926   9.767   0.785  0.0578  0.1456  0.0506
 6127SOL    HW129600   0.919   9.756   0.884  0.1625  0.4088  0.0867
 6127SOL    HW229601   0.910   9.863   0.761 -3.0023 -0.4423 -0.4609
 6128SOL     OW29602   4.613   1.387   2.825 -0.1194  0.5432  0.2203
 6128SOL    HW129603   4.632   1.452   2.898  0.4755 -1.2337  1.6782
 6128SOL    HW229604   4.696   1.336   2.803 -1.0576 -1.1653  0.5464
 6129SOL     OW29605   5.547   8.667   3.807  0.4089 -0.0518 -0.2036
 6129SOL    HW129606   5.547   8.714   3.719  2.4451 -1.2800 -0.9014
 6129SOL    HW229607   5.612   8.713   3.869  1.3151 -1.0439 -0.4041
 6130SOL     OW29608   4.401   3.682   4.509  0.3980  0.5297 -0.1336
 6130SOL    HW129609   4.410   3.681   4.410  1.5328  0.8449 -0.0377
 6130SOL    HW229610   4.459   3.753   4.548  1.0576 -0.5223  0.8628
 6131SOL     OW29611   7.965   0.853   0.136 -0.7980 -0.2718  0.0972
 6131SOL    HW129612   7.996   0.916   0.207 -0.3691  1.5544 -1.6665
 6131SOL    HW229613   8.014   0.871   0.051 -2.2552 -1.4996 -1.0459
 6132SOL     OW29614   1.818   2.998   1.234 -0.4290 -0.0902  0.0391
 6132SOL    HW129615   1.790   3.090   1.260  0.7966  0.4421 -0.4722
 6132SOL    HW229616   1.884   2.962   1.301  1.6265  0.7208 -1.4933
 6133SOL     OW29617   7.251   1.046   4.010  0.4586 -0.0553  0.3604
 6133SOL    HW129618   7.166   1.023   4.056  1.2508 -1.7534  0.9922
 6133SOL    HW229619   7.286   0.966   3.961  0.6530  1.1820 -1.5859
 6134SOL     OW29620   2.673   0.150   1.860  0.5613  0.0746  0.4253
 6134SOL    HW129621   2.736   0.182   1.931  1.0563 -0.8282  0.3972
 6134SOL    HW229622   2.723   0.095   1.794  0.3927  2.1100 -1.4440
 6135SOL     OW29623   5.532   1.460   3.404 -0.0549  0.1382  0.3821
 6135SOL    HW129624   5.623   1.490   3.374 -0.3505  0.3148 -0.3534
 6135SOL    HW229625   5.515   1.491   3.497  1.4548 -1.6108  1.2910
 6136SOL     OW29626   0.005   5.285   4.495 -0.0022  0.1867  0.6360
 6136SOL    HW129627   0.023   5.283   4.593 -0.3993  1.8411  0.7670
 6136SOL    HW229628   0.092   5.291   4.446  0.1786 -0.1719  0.9118
 6137SOL     OW29629   2.753   3.829   0.049 -0.2433  0.1901 -0.5614
 6137SOL    HW129630   2.676   3.851   0.109  0.4400  0.1943  0.3125
 6137SOL    HW229631   2.830   3.797   0.103  0.4276  0.3246 -1.4237
 6138SOL     OW29632   6.231   2.128   0.609 -0.1443 -0.3842  0.4039
 6138SOL    HW129633   6.187   2.096   0.525 -0.1016 -1.2474  0.7092
 6138SOL    HW229634   6.278   2.052   0.654 -1.6822 -0.3596  2.1536
 6139SOL     OW29635   5.268   7.843   4.317  0.1495  0.0356 -0.3093
 6139SOL    HW129636   5.337   7.900   4.361 -0.1726 -0.3335  0.7072
 6139SOL    HW229637   5.310   7.790   4.244  0.7038  0.6565 -0.4409
 6140SOL     OW29638   3.392   2.485   3.335 -0.7686  0.1148 -0.0633
 6140SOL    HW129639   3.338   2.503   3.417  0.5727 -1.1151  1.1298
 6140SOL    HW229640   3.362   2.545   3.260 -0.6427  2.7161  1.9039
 6141SOL     OW29641   5.411   5.598   2.552 -0.1810 -0.3385  0.4950
 6141SOL    HW129642   5.510   5.585   2.553 -0.1802 -0.4111 -0.2959
 6141SOL    HW229643   5.377   5.592   2.458 -0.7468  1.1003  0.5890
 6142SOL     OW29644   4.051   1.480   4.876 -0.0327  0.1018 -0.3193
 6142SOL    HW129645   4.114   1.444   4.807 -1.5432 -0.4908 -1.4376
 6142SOL    HW229646   4.102   1.508   4.957  1.5839 -0.9445 -0.9507
 6143SOL     OW29647   1.053   2.701   0.456  0.0282  0.1906 -0.0000
 6143SOL    HW129648   0.980   2.735   0.515  0.3240  1.5256 -0.3783
 6143SOL    HW229649   1.063   2.762   0.377 -0.3851 -1.5777 -1.4534
 6144SOL     OW29650   0.459   6.946   5.490  0.1061 -0.3948 -0.1066
 6144SOL    HW129651   0.359   6.944   5.500  0.1902 -1.4901  0.6696
 6144SOL    HW229652   0.498   6.865   5.535  1.3368 -0.0133 -0.4785
 6145SOL     OW29653   8.249   2.342   5.712  0.2857  0.7571  0.1332
 6145SOL    HW129654   8.335   2.351   5.662 -0.9064  2.5115 -1.7273
 6145SOL    HW229655   8.204   2.432   5.716 -0.7059  0.1890  2.4595
 6146SOL     OW29656   9.191   0.113   2.943  0.2228  0.0898 -0.0469
 6146SOL    HW129657   9.257   0.187   2.954  0.1300 -0.0907  1.8276
 6146SOL    HW229658   9.099   0.151   2.940  0.1677  0.0413  1.0285
 6147SOL     OW29659   3.062   8.058   8.057 -0.0941  0.0206 -0.0358
 6147SOL    HW129660   3.152   8.069   8.100 -0.3230 -0.0251  0.4657
 6147SOL    HW229661   3.003   8.005   8.118 -0.7976  0.9721  0.1183
 6148SOL     OW29662   7.063   1.344   3.948  0.0714 -0.0533  0.2941
 6148SOL    HW129663   7.086   1.262   4.001 -0.2335 -1.0113 -1.0183
 6148SOL    HW229664   6.974   1.331   3.904 -0.1772  1.1676  0.4243
 6149SOL     OW29665   2.599   8.777   6.206  0.4233 -0.3121 -0.2681
 6149SOL    HW129666   2.674   8.805   6.146 -0.3977 -1.9366 -2.1160
 6149SOL    HW229667   2.518   8.759   6.150 -0.7638 -0.5295  1.4962
 6150SOL     OW29668   6.511   1.938   1.793 -0.3258  0.4802 -0.6961
 6150SOL    HW129669   6.413   1.925   1.808 -0.0653 -0.2662  0.3614
 6150SOL    HW229670   6.541   2.020   1.843  0.0783 -0.7060  1.0565
 6151SOL     OW29671   5.005   1.361   4.261 -0.2848 -0.0961  0.1723
 6151SOL    HW129672   4.971   1.373   4.167 -1.8993 -2.5014  0.3848
 6151SOL    HW229673   5.034   1.266   4.274  4.5334  1.3318  0.7257
 6152SOL     OW29674   3.287   8.753   3.020 -0.0631  0.8350 -0.0057
 6152SOL    HW129675   3.376   8.785   2.988  0.7874 -0.5879  0.8537
 6152SOL    HW229676   3.282   8.761   3.119 -0.1451 -0.8561  0.1456
 6153SOL     OW29677   1.842   8.380   2.696 -0.3020  0.6444 -0.1621
 6153SOL    HW129678   1.939   8.360   2.678  0.0941  0.7218  1.7389
 6153SOL    HW229679   1.831   8.477   2.716 -0.9254  0.8088 -1.2960
 6154SOL     OW29680   1.569   5.018   0.143  0.1740 -0.2777 -0.3483
 6154SOL    HW129681   1.598   5.047   0.235  1.1654  0.7995 -0.9899
 6154SOL    HW229682   1.578   4.919   0.134 -3.1666 -0.8898  1.8677
 6155SOL     OW29683   1.970   2.583   3.876 -0.1458  0.1294  0.2743
 6155SOL    HW129684   2.063   2.574   3.841 -0.7504  0.2849 -1.4365
 6155SOL    HW229685   1.905   2.561   3.803 -1.4588  0.3766  1.3455
 6156SOL     OW29686   1.720   5.803   1.195  0.0917 -0.2980  0.1076
 6156SOL    HW129687   1.718   5.704   1.207  1.5476 -0.6762 -2.3319
 6156SOL    HW229688   1.807   5.839   1.231  0.0819 -0.0735 -0.0950
 6157SOL     OW29689   0.996   3.326   2.245 -0.6482 -0.5666 -0.7451
 6157SOL    HW129690   0.961   3.408   2.199  0.8341 -1.3176 -3.3306
 6157SOL    HW229691   1.090   3.342   2.274  0.1766 -1.8278 -2.6401
 6158SOL     OW29692   4.405   4.227   7.805 -0.2857 -0.1871  0.5145
 6158SOL    HW129693   4.398   4.325   7.822 -0.3616 -0.2546  0.8879
 6158SOL    HW229694   4.347   4.202   7.728 -0.9146 -0.0674  0.9382
 6159SOL     OW29695   2.727   5.762   1.025 -0.4495  0.0472  0.2340
 6159SOL    HW129696   2.653   5.746   0.960  0.5880 -1.5731 -0.5785
 6159SOL    HW229697   2.744   5.678   1.077  2.4818 -0.3854 -1.3536
 6160SOL     OW29698   2.706   0.456   1.283 -0.4121  0.1355  0.1393
 6160SOL    HW129699   2.744   0.543   1.316 -2.3463  1.0178  0.1346
 6160SOL    HW229700   2.777   0.404   1.236  1.1379  1.0754  1.3963
 6161SOL     OW29701   9.156   3.688   0.790  0.1253 -0.0917  0.3613
 6161SOL    HW129702   9.139   3.771   0.843  2.3501 -0.4982  1.8072
 6161SOL    HW229703   9.255   3.681   0.772 -0.2653 -1.4898 -1.3308
 6162SOL     OW29704   8.565   2.449   1.459 -0.3356 -0.3452 -0.3860
 6162SOL    HW129705   8.581   2.354   1.430 -0.9122 -0.2383 -1.0528
 6162SOL    HW229706   8.637   2.508   1.423 -0.2636 -0.4464 -0.4081
 6163SOL     OW29707   2.528   6.859   0.240  0.6822  0.3524 -0.1285
 6163SOL    HW129708   2.587   6.868   0.321  3.0849  2.7449 -2.0702
 6163SOL    HW229709   2.485   6.946   0.219 -1.7549 -0.8105 -0.1366
 6164SOL     OW29710   7.890   5.537   3.127  0.0556 -0.1835 -0.4082
 6164SOL    HW129711   7.803   5.501   3.163 -0.0608 -0.1540 -0.6598
 6164SOL    HW229712   7.875   5.628   3.089  0.2269 -0.1211 -0.3275
 6165SOL     OW29713   9.836   3.077   0.232 -0.3226  0.0711  0.0281
 6165SOL    HW129714   9.803   2.984   0.215 -0.4870 -0.4096  2.7571
 6165SOL    HW229715   9.877   3.081   0.323 -1.2289  2.9214  0.3472
 6166SOL     OW29716   2.186   1.325   2.721  0.2137 -0.0505 -0.6305
 6166SOL    HW129717   2.143   1.411   2.749  0.1556  0.0168 -0.9241
 6166SOL    HW229718   2.280   1.343   2.692  0.1040 -0.0356 -0.9861
 6167SOL     OW29719   0.575   1.124   1.325  0.0393 -0.0066  0.4592
 6167SOL    HW129720   0.657   1.074   1.296 -1.1269 -1.3355 -0.6731
 6167SOL    HW229721   0.514   1.061   1.374 -0.7613  0.6996  0.3764
 6168SOL     OW29722   1.470   7.325   6.103 -0.6739 -0.1012  0.4053
 6168SOL    HW129723   1.470   7.394   6.030  2.8338  0.4561  0.8450
 6168SOL    HW229724   1.529   7.356   6.178 -0.2996 -2.8729  1.2874
 6169SOL     OW29725   2.956   6.581   0.945 -0.3477  0.3580 -0.0889
 6169SOL    HW129726   2.862   6.551   0.967 -0.5836  1.0746 -0.1158
 6169SOL    HW229727   2.995   6.628   1.024 -0.1766  0.4681 -0.2403
 6170SOL     OW29728   2.666   4.181   1.517  0.0063  0.7266 -0.2038
 6170SOL    HW129729   2.570   4.155   1.527  0.5837 -1.4232 -0.0180
 6170SOL    HW229730   2.690   4.186   1.420  0.2130 -0.7356 -0.2383
 6171SOL     OW29731   0.815   7.004   5.148  0.4256  0.6191 -0.4244
 6171SOL    HW129732   0.858   7.072   5.207 -1.1920  1.8410 -0.6248
 6171SOL    HW229733   0.840   7.022   5.053  1.2193 -0.0011 -0.3421
 6172SOL     OW29734   3.801   5.335   1.304  0.3185 -0.7624 -0.4515
 6172SOL    HW129735   3.858   5.311   1.225  0.4467 -1.6918 -0.0751
 6172SOL    HW229736   3.765   5.428   1.291  2.7676  0.2405 -0.1977
 6173SOL     OW29737   0.261   5.922   3.590 -0.4816 -0.8193 -0.5150
 6173SOL    HW129738   0.162   5.935   3.597 -0.2095  1.3494 -0.5969
 6173SOL    HW229739   0.279   5.834   3.545 -2.3504 -1.4655 -0.0693
 6174SOL     OW29740   3.250   7.860   4.509 -0.0326  0.3325  0.4749
 6174SOL    HW129741   3.341   7.822   4.491 -0.5197 -0.0714 -1.2234
 6174SOL    HW229742   3.259   7.949   4.552  1.1674  0.0528  0.8233
 6175SOL     OW29743   9.534   8.790   5.712 -0.0100 -0.2150 -0.0138
 6175SOL    HW129744   9.612   8.842   5.678  0.3991 -0.8975 -0.1208
 6175SOL    HW229745   9.560   8.738   5.793 -0.0980 -1.1769 -0.5967
 6176SOL     OW29746   4.810   9.229   3.142 -0.1312  0.9347 -0.2360
 6176SOL    HW129747   4.814   9.316   3.192  0.8745  0.3022  0.8065
 6176SOL    HW229748   4.721   9.221   3.097 -0.2517  2.4864 -0.3265
 6177SOL     OW29749   6.714   1.685   3.267 -0.9059 -0.4842 -0.0860
 6177SOL    HW129750   6.770   1.766   3.247 -0.4794 -0.7492  0.0289
 6177SOL    HW229751   6.772   1.612   3.303 -1.0451 -1.3539 -1.5973
 6178SOL     OW29752   4.873   7.003   2.208 -0.0016  0.2079 -0.1697
 6178SOL    HW129753   4.936   6.979   2.282 -1.5594 -1.4180  0.6811
 6178SOL    HW229754   4.846   6.919   2.160  0.1870  1.1354 -1.9497
 6179SOL     OW29755   8.080   5.142   1.746  0.5067 -0.3505  0.2362
 6179SOL    HW129756   8.069   5.042   1.751  0.6526 -0.4436 -1.1352
 6179SOL    HW229757   8.004   5.186   1.794 -1.2139 -1.1004 -1.7219
 6180SOL     OW29758   8.743   7.918   6.311 -0.4529 -0.7763 -0.1567
 6180SOL    HW129759   8.686   7.848   6.354 -0.6538 -1.6754 -1.8278
 6180SOL    HW229760   8.833   7.879   6.290  0.0183 -0.0223  0.4491
 6181SOL     OW29761   8.671   8.847   2.659 -0.2809  0.2089  0.4088
 6181SOL    HW129762   8.691   8.872   2.564  1.2747  0.3180  0.7572
 6181SOL    HW229763   8.721   8.907   2.721 -1.5345  0.3349  1.3092
 6182SOL     OW29764   6.918   6.051   5.966  0.6071  0.2971  0.1934
 6182SOL    HW129765   6.949   5.968   6.013 -0.7705 -0.3309  0.0135
 6182SOL    HW229766   6.991   6.120   5.969  1.2282 -0.3949  1.6117
 6183SOL     OW29767   3.665   3.321   3.936  0.4970 -0.1368  0.1001
 6183SOL    HW129768   3.667   3.411   3.979  2.2239  0.6938 -1.6226
 6183SOL    HW229769   3.723   3.322   3.854 -1.6337 -2.0255 -1.4981
 6184SOL     OW29770   1.486   4.395   1.600 -0.3819  0.6129  0.1675
 6184SOL    HW129771   1.510   4.304   1.635 -1.8816  0.1421  0.0077
 6184SOL    HW229772   1.553   4.423   1.531  1.1884  0.4741  1.6010
 6185SOL     OW29773   7.830   6.659   1.829  0.0297  0.2732  0.2116
 6185SOL    HW129774   7.923   6.647   1.795  0.6203  0.5649  1.6819
 6185SOL    HW229775   7.809   6.588   1.896 -0.3032  1.0442  0.9287
 6186SOL     OW29776   6.896   5.554   0.292 -0.7996  0.1693  0.0046
 6186SOL    HW129777   6.908   5.644   0.250  1.0369  0.2242  0.5962
 6186SOL    HW229778   6.841   5.497   0.232 -0.3031  1.0494 -1.3147
 6187SOL     OW29779   8.635   3.565   4.158  0.6191  0.5321  0.5066
 6187SOL    HW129780   8.689   3.649   4.160  0.3271  0.7467 -0.5237
 6187SOL    HW229781   8.687   3.492   4.115  0.3157  0.5784  0.0617
 6188SOL     OW29782   4.939   1.085   5.518 -0.1914 -0.0271 -0.2618
 6188SOL    HW129783   4.843   1.080   5.489 -0.6648  0.0262  1.2560
 6188SOL    HW229784   4.986   1.154   5.463 -1.9890  2.7568  1.5398
 6189SOL     OW29785   8.638   6.749   3.406  0.0250 -0.0995  0.0738
 6189SOL    HW129786   8.632   6.839   3.450 -1.8406 -0.2634  0.1986
 6189SOL    HW229787   8.664   6.760   3.310 -2.5504  0.7688 -0.5464
 6190SOL     OW29788   8.372   3.433   2.918 -0.0346  0.3585 -0.3542
 6190SOL    HW129789   8.431   3.445   2.838  0.8747 -0.5936  0.1566
 6190SOL    HW229790   8.309   3.510   2.925  0.4082  0.8406 -1.5388
 6191SOL     OW29791   0.892   3.266   1.205  0.2278  0.0976  0.6811
 6191SOL    HW129792   0.830   3.208   1.259 -0.1351 -0.7136 -0.5814
 6191SOL    HW229793   0.965   3.300   1.263  0.4976 -1.7152  1.4309
 6192SOL     OW29794   9.832   2.933   4.101  0.0127 -0.0836 -0.2241
 6192SOL    HW129795   9.911   2.899   4.050  1.2297  2.2169  0.0941
 6192SOL    HW229796   9.783   3.001   4.046 -0.5251  0.0721  0.4339
 6193SOL     OW29797   5.279   2.395   4.436 -0.0928 -0.1399  0.1650
 6193SOL    HW129798   5.193   2.377   4.483  0.6503 -0.2755  1.5049
 6193SOL    HW229799   5.343   2.321   4.453  1.1847  1.2092  1.3903
 6194SOL     OW29800   9.905   5.526   3.479 -0.4322 -0.6253 -0.0334
 6194SOL    HW129801   9.984   5.468   3.461 -0.2804 -0.5881  0.5095
 6194SOL    HW229802   9.827   5.494   3.425  0.1713 -0.1595 -1.2085
 6195SOL     OW29803   8.972   0.257   6.243  0.1676 -0.0805  0.0129
 6195SOL    HW129804   8.917   0.192   6.191  0.2800 -0.3739  0.2592
 6195SOL    HW229805   8.967   0.347   6.201 -1.3255  0.1235  0.5948
 6196SOL     OW29806   4.849   2.207   5.798 -0.0602 -0.2203  0.2263
 6196SOL    HW129807   4.807   2.214   5.707  1.6539  0.0130 -0.5650
 6196SOL    HW229808   4.777   2.199   5.867 -1.3700 -1.1013 -1.2057
 6197SOL     OW29809   0.824   4.088   0.269 -0.0049 -0.0619  0.1853
 6197SOL    HW129810   0.786   4.162   0.213 -0.0970  0.9351  1.5477
 6197SOL    HW229811   0.753   4.020   0.286 -0.5779  0.7103  0.8971
 6198SOL     OW29812   5.121   9.404   4.412  0.0697  0.4905 -0.7873
 6198SOL    HW129813   5.078   9.317   4.388  0.8595 -0.2170  0.3121
 6198SOL    HW229814   5.055   9.478   4.401 -1.1906 -0.4836  0.1223
 6199SOL     OW29815   0.715   2.453   1.160 -0.0441  0.6187  0.5191
 6199SOL    HW129816   0.621   2.476   1.184 -1.0503 -2.3921 -0.2179
 6199SOL    HW229817   0.722   2.440   1.061  0.9037 -0.0465  0.6668
 6200SOL     OW29818   0.035   4.589   4.740  0.4093  0.3021 -0.2950
 6200SOL    HW129819   0.066   4.614   4.648  1.7363  1.9103  0.5617
 6200SOL    HW229820   0.051   4.491   4.755  0.2480  0.0495 -1.7572
 6201SOL     OW29821   2.841   5.909   2.787  0.5076  0.5247  0.0934
 6201SOL    HW129822   2.862   5.856   2.870 -0.5193  0.1798  0.1439
 6201SOL    HW229823   2.797   5.849   2.720  0.6917  0.9719 -0.4257
 6202SOL     OW29824   4.058   0.706   2.919 -0.4235  0.2011 -0.0048
 6202SOL    HW129825   4.047   0.607   2.927  1.7639 -0.1482 -0.9111
 6202SOL    HW229826   4.148   0.726   2.881 -0.6306  2.5699  0.6939
 6203SOL     OW29827   9.004   8.790   2.677 -0.2197 -0.2158 -0.0016
 6203SOL    HW129828   8.948   8.868   2.649 -0.7615 -1.0927 -1.4290
 6203SOL    HW229829   8.955   8.739   2.748  0.0674  0.6371  0.8292
 6204SOL     OW29830   9.422   2.041   1.913  0.6144 -0.3423 -0.5113
 6204SOL    HW129831   9.489   1.973   1.944  0.2821 -1.1551 -1.5220
 6204SOL    HW229832   9.330   2.009   1.936  0.5702  1.0110  1.3338
 6205SOL     OW29833   1.456   4.691   3.123 -0.5345  0.2901 -0.1578
 6205SOL    HW129834   1.399   4.741   3.187 -0.3074  1.0383 -0.5339
 6205SOL    HW229835   1.540   4.743   3.104 -0.4411 -0.0786 -0.7904
 6206SOL     OW29836   8.538   7.546   0.347  0.1155  0.1949  0.1410
 6206SOL    HW129837   8.488   7.622   0.389 -0.0993 -0.6649  1.4889
 6206SOL    HW229838   8.489   7.515   0.266  0.2199  1.5105 -0.4284
 6207SOL     OW29839   9.017   2.828   2.914  0.2472 -0.3925 -0.0288
 6207SOL    HW129840   9.015   2.927   2.899  0.3686 -0.4529 -0.4669
 6207SOL    HW229841   8.963   2.783   2.842  1.2885 -0.7334 -0.6093
 6208SOL     OW29842   2.386   2.007   6.046  0.8004 -0.1189 -0.2002
 6208SOL    HW129843   2.455   1.957   5.994 -0.3096  0.1803 -2.0055
 6208SOL    HW229844   2.310   2.033   5.986 -0.1385  0.9702  1.3884
 6209SOL     OW29845   3.142   9.358   3.175  0.1817  0.3343 -0.3462
 6209SOL    HW129846   3.102   9.290   3.236  0.7308 -0.6663 -1.0813
 6209SOL    HW229847   3.133   9.328   3.081  0.0721  1.4809 -0.7114
 6210SOL     OW29848   9.396   3.325   4.117 -0.1808  0.1416  0.1318
 6210SOL    HW129849   9.350   3.288   4.198  0.8924 -1.5943 -0.0241
 6210SOL    HW229850   9.426   3.419   4.136 -0.4265 -0.0607  1.5574
 6211SOL     OW29851   1.347   4.466   0.740 -0.0321 -0.1547 -0.0136
 6211SOL    HW129852   1.285   4.537   0.705 -1.4395 -1.6255 -0.5554
 6211SOL    HW229853   1.379   4.492   0.831 -2.0372  0.3058  0.6034
 6212SOL     OW29854   1.648   7.200   5.541 -0.2278  0.5379 -0.4848
 6212SOL    HW129855   1.735   7.240   5.571 -1.3717  1.4580  1.7077
 6212SOL    HW229856   1.666   7.111   5.499  1.6164 -0.0738  1.5137
 6213SOL     OW29857   9.245   0.835   5.372 -0.3567 -0.7903  0.2328
 6213SOL    HW129858   9.262   0.737   5.381  0.6912 -0.4719  2.2172
 6213SOL    HW229859   9.301   0.885   5.439 -0.6794  1.1831 -0.9110
 6214SOL     OW29860   3.750   3.882   3.403 -0.4745  0.0051 -0.3269
 6214SOL    HW129861   3.766   3.979   3.387 -0.4917  0.1271  0.3579
 6214SOL    HW229862   3.794   3.828   3.331 -0.4167  0.5163 -0.6741
 6215SOL     OW29863   3.200   9.856   4.788  0.3354  0.5812  0.6226
 6215SOL    HW129864   3.196   9.952   4.762 -1.6585  0.6124  0.9557
 6215SOL    HW229865   3.133   9.804   4.736  0.5661 -0.4274  1.3031
 6216SOL     OW29866   2.296   7.977   5.793  0.0307 -0.1246 -0.6193
 6216SOL    HW129867   2.330   8.055   5.845  0.2842  0.6022 -1.8679
 6216SOL    HW229868   2.208   8.000   5.752  0.8543  0.0471 -2.2918
 6217SOL     OW29869   9.052   7.363   3.952 -0.0214 -0.4559 -1.0830
 6217SOL    HW129870   9.006   7.360   4.041  0.5078  0.2429 -0.7794
 6217SOL    HW229871   9.115   7.440   3.950  1.0780 -1.3517 -1.5312
 6218SOL     OW29872   8.811   2.526   3.309 -0.2599 -0.0190 -0.1371
 6218SOL    HW129873   8.862   2.573   3.236 -1.7656 -1.1091 -1.9258
 6218SOL    HW229874   8.743   2.589   3.348 -0.1840  0.2371 -0.4171
 6219SOL     OW29875   8.233   3.995   2.088 -0.2940  0.1634 -0.1916
 6219SOL    HW129876   8.250   3.905   2.129  0.2851  0.6620  0.6608
 6219SOL    HW229877   8.304   4.059   2.117 -1.0654  1.0681 -0.2888
 6220SOL     OW29878   8.336   3.964   0.060  0.2589  0.3725  0.1552
 6220SOL    HW129879   8.292   3.878   0.086 -0.7790  1.2886  1.4614
 6220SOL    HW229880   8.328   3.976  -0.039  0.0586 -0.8370  0.0120
 6221SOL     OW29881   3.666   4.343   3.984  0.2583 -0.0575 -0.2558
 6221SOL    HW129882   3.726   4.352   4.063 -0.7663  0.7976  0.4403
 6221SOL    HW229883   3.570   4.349   4.014 -0.2419 -2.7419 -1.1590
 6222SOL     OW29884   6.599   9.890   5.821 -0.3855 -0.2857 -0.0116
 6222SOL    HW129885   6.568   9.979   5.788  0.7714  0.8351  1.8726
 6222SOL    HW229886   6.679   9.861   5.769  1.0730  1.1982  1.3534
 6223SOL     OW29887   6.771   7.221   5.303  0.4284 -0.0410  0.5804
 6223SOL    HW129888   6.818   7.152   5.247 -1.6701  0.4769 -1.9308
 6223SOL    HW229889   6.699   7.177   5.357  0.5652 -0.1291  0.6911
 6224SOL     OW29890   2.434   7.757   5.162  0.2792 -0.1846 -0.0336
 6224SOL    HW129891   2.341   7.733   5.189  0.6654 -0.6624  0.9185
 6224SOL    HW229892   2.435   7.849   5.122 -0.7659 -0.6405 -1.1072
 6225SOL     OW29893   5.205   8.721   4.869 -0.5468  0.1015  0.1325
 6225SOL    HW129894   5.189   8.664   4.788 -0.9419 -0.5486  0.6644
 6225SOL    HW229895   5.147   8.802   4.864  0.6390  0.8937 -1.0456
 6226SOL     OW29896   0.710   8.890   6.411  0.2948 -0.3282  0.5450
 6226SOL    HW129897   0.716   8.790   6.414  0.6406 -0.3250 -0.0330
 6226SOL    HW229898   0.801   8.929   6.422  0.2626 -0.0934 -0.0282
 6227SOL     OW29899   4.684   4.838   0.320  0.5208 -0.1903 -0.0399
 6227SOL    HW129900   4.701   4.825   0.418 -0.0682 -0.3175  0.0447
 6227SOL    HW229901   4.752   4.901   0.283  1.4529 -1.0279  0.2107
 6228SOL     OW29902   0.023   5.993   2.918 -0.5065  0.5324 -0.1458
 6228SOL    HW129903   0.103   5.947   2.880  0.3232  0.5781  1.4766
 6228SOL    HW229904  -0.059   5.937   2.904  0.4082 -1.2219  1.3361
 6229SOL     OW29905   0.596   6.469   2.613  0.0711  0.2726 -0.3741
 6229SOL    HW129906   0.526   6.418   2.664  0.2114 -0.4329 -0.8759
 6229SOL    HW229907   0.614   6.423   2.526  1.2841  0.3465 -0.1796
 6230SOL     OW29908   2.115   8.077   0.609  0.2385  0.5396  0.0119
 6230SOL    HW129909   2.085   8.158   0.659  0.5543  1.3342 -1.0630
 6230SOL    HW229910   2.035   8.030   0.571 -0.0866 -0.6433  2.0996
 6231SOL     OW29911   9.188   8.297   3.666 -0.0963 -0.0250 -0.2551
 6231SOL    HW129912   9.254   8.361   3.627 -0.3785  0.2621 -0.2697
 6231SOL    HW229913   9.142   8.340   3.744  0.8228 -0.7702  0.7071
 6232SOL     OW29914   6.630   1.108   4.403 -0.8147  0.1323  0.1867
 6232SOL    HW129915   6.540   1.151   4.409  0.3387  2.8558 -1.1358
 6232SOL    HW229916   6.630   1.043   4.327 -2.0505 -0.9663  1.0906
 6233SOL     OW29917   5.131   9.367   2.636  0.1279 -0.4675 -0.9155
 6233SOL    HW129918   5.092   9.448   2.592 -0.4210 -0.1463  0.1502
 6233SOL    HW229919   5.063   9.327   2.699  0.9130 -0.8949 -0.3295
 6234SOL     OW29920   0.131   0.752   5.145  0.0763  0.1559  0.4968
 6234SOL    HW129921   0.137   0.660   5.106 -2.0951  0.9467 -1.8513
 6234SOL    HW229922   0.035   0.774   5.162  0.4404  2.6048 -0.4870
 6235SOL     OW29923   4.887   3.328   7.951 -0.6735  0.0905  0.5230
 6235SOL    HW129924   4.886   3.418   7.908  2.2713 -0.4928 -0.9177
 6235SOL    HW229925   4.889   3.338   8.051 -1.7459  1.5632  0.4066
 6236SOL     OW29926   4.268   4.567   2.197  0.4050  0.6471 -0.1578
 6236SOL    HW129927   4.227   4.486   2.238  0.9240  0.3992 -0.1219
 6236SOL    HW229928   4.262   4.560   2.097 -0.1348  0.8745 -0.1459
 6237SOL     OW29929   1.585   5.796   5.166 -0.7753  0.4019 -0.7874
 6237SOL    HW129930   1.680   5.828   5.171 -0.9061  0.5917  0.7112
 6237SOL    HW229931   1.543   5.828   5.081  0.3171  0.8407 -1.1657
 6238SOL     OW29932   1.123   7.238   1.173  0.0186  0.3261  0.2598
 6238SOL    HW129933   1.064   7.288   1.109  0.1231  1.7603  1.2871
 6238SOL    HW229934   1.162   7.158   1.126 -2.8829 -0.7767 -0.3924
 6239SOL     OW29935   7.955   8.414   1.260  0.0920 -0.0865  0.3693
 6239SOL    HW129936   7.993   8.335   1.212  1.1461  0.7443 -0.1802
 6239SOL    HW229937   7.926   8.483   1.194  0.4921  0.5864  0.8928
 6240SOL     OW29938   1.400   3.324   3.679 -0.2284 -0.4420  0.1339
 6240SOL    HW129939   1.496   3.350   3.669  0.3678 -3.2495 -1.7917
 6240SOL    HW229940   1.344   3.379   3.617  0.4522 -0.7102 -0.7121
 6241SOL     OW29941   3.159   5.698   3.144  0.1085 -0.1981 -0.2483
 6241SOL    HW129942   3.233   5.693   3.077  0.6108  0.0619  0.2804
 6241SOL    HW229943   3.124   5.791   3.148  0.3021 -0.1346  0.0743
 6242SOL     OW29944   8.954   7.787   1.722  0.0781 -0.4273 -0.0991
 6242SOL    HW129945   9.001   7.769   1.636  0.2395 -1.2860  0.1691
 6242SOL    HW229946   8.890   7.863   1.709  0.2311 -0.4325 -0.9256
 6243SOL     OW29947   1.643   9.122   1.228  0.0248  0.3937  0.0989
 6243SOL    HW129948   1.682   9.095   1.140 -0.3849  2.8244 -0.8674
 6243SOL    HW229949   1.543   9.118   1.223  0.0154 -1.5384  1.1714
 6244SOL     OW29950   8.247   5.398   8.023  0.0432 -0.4314 -0.4153
 6244SOL    HW129951   8.249   5.490   8.063 -0.4714 -0.0306 -1.2970
 6244SOL    HW229952   8.153   5.363   8.026  0.5595 -1.7304  1.6809
 6245SOL     OW29953   1.066   4.440   1.609  0.1309  0.0204 -0.1347
 6245SOL    HW129954   1.078   4.378   1.532 -0.1323  0.0216 -0.1752
 6245SOL    HW229955   1.155   4.479   1.634  0.4248 -0.9517  0.3826
 6246SOL     OW29956   3.054   9.202   5.340  0.3584  0.1548  0.0160
 6246SOL    HW129957   3.035   9.298   5.358 -0.1719  0.0956 -0.2309
 6246SOL    HW229958   3.114   9.194   5.260 -0.0549  0.2577 -0.3085
 6247SOL     OW29959   1.386   3.465   4.414  0.2881  0.2028  0.2150
 6247SOL    HW129960   1.480   3.436   4.400  0.6907  1.6133 -0.0372
 6247SOL    HW229961   1.328   3.428   4.342  0.2924 -2.2819  1.4446
 6248SOL     OW29962   8.368   8.826   0.626 -0.7762 -0.3390 -0.0700
 6248SOL    HW129963   8.371   8.837   0.726  0.5911 -1.5111  0.0288
 6248SOL    HW229964   8.275   8.845   0.594 -1.4726 -0.8989  1.5464
 6249SOL     OW29965   9.789   3.601   5.822 -0.2293  0.1883  0.0036
 6249SOL    HW129966   9.787   3.689   5.870 -0.7056 -0.0557  0.4347
 6249SOL    HW229967   9.728   3.537   5.868  0.3763 -0.4718 -0.1068
 6250SOL     OW29968   1.154   3.951   3.277  0.0825  0.0308  0.3442
 6250SOL    HW129969   1.200   3.978   3.361 -2.1130 -1.2134  1.9831
 6250SOL    HW229970   1.120   4.033   3.230  1.2294  0.7179  0.6767
 6251SOL     OW29971   8.323   6.656   5.120 -0.1379 -0.0332  0.2574
 6251SOL    HW129972   8.416   6.620   5.122  0.1144  0.6383  1.1918
 6251SOL    HW229973   8.277   6.625   5.037  1.1683  0.2474 -0.5942
 6252SOL     OW29974   7.549   1.183   8.160 -0.5833 -0.2577  0.4630
 6252SOL    HW129975   7.612   1.105   8.150 -2.2260 -1.2677 -3.1370
 6252SOL    HW229976   7.598   1.268   8.140  0.6650 -0.5758  2.0889
 6253SOL     OW29977   9.970   6.397   1.001  0.5510 -0.4526 -0.4203
 6253SOL    HW129978  10.039   6.333   0.966  2.4525  1.2269  0.1782
 6253SOL    HW229979   9.963   6.388   1.100 -1.5315 -1.9721 -0.6631
 6254SOL     OW29980   1.465   0.215   4.433  0.4096 -0.7390 -0.3867
 6254SOL    HW129981   1.553   0.207   4.385  0.8612 -1.3312  0.5353
 6254SOL    HW229982   1.480   0.261   4.521 -0.3439 -0.0663 -0.6059
 6255SOL     OW29983   1.972   0.856   4.952  0.4578  0.0053  0.0412
 6255SOL    HW129984   1.882   0.888   4.981  0.0154 -0.5730 -0.6971
 6255SOL    HW229985   2.038   0.930   4.963 -0.1108  0.4375  0.5669
 6256SOL     OW29986   6.397   1.251   4.422 -0.4354  0.2116  0.2476
 6256SOL    HW129987   6.384   1.328   4.359 -1.6515  0.5570  0.8943
 6256SOL    HW229988   6.336   1.262   4.501  0.8817 -0.3536  1.3602
 6257SOL     OW29989   5.163   8.572   5.488  0.1699  0.3168 -0.3350
 6257SOL    HW129990   5.107   8.570   5.571  1.2616  1.0850  0.4307
 6257SOL    HW229991   5.260   8.573   5.512  0.5265 -0.5174 -1.6456
 6258SOL     OW29992   9.644   2.754   4.167  0.0121  0.1054  0.4920
 6258SOL    HW129993   9.660   2.695   4.088 -1.4032 -0.8127  0.8868
 6258SOL    HW229994   9.705   2.834   4.162  0.4825 -0.3485 -1.1003
 6259SOL     OW29995   7.643   4.877   0.150  0.8265  0.1185 -0.2268
 6259SOL    HW129996   7.721   4.858   0.090  1.7397  0.3830  0.8714
 6259SOL    HW229997   7.666   4.852   0.244 -1.3486 -2.3937 -0.2753
 6260SOL     OW29998   4.778   0.704   5.745  0.1380  0.3328 -0.7381
 6260SOL    HW129999   4.745   0.711   5.651  1.9412 -0.7877 -1.4810
 6260SOL    HW230000   4.876   0.722   5.747  0.3799 -1.1206  0.7239
 6261SOL     OW30001   4.837   0.918   2.287 -0.1359  0.0087  0.6681
 6261SOL    HW130002   4.781   0.916   2.370  0.4472  0.6730  1.0821
 6261SOL    HW230003   4.852   0.824   2.255 -0.4131 -0.2460  1.2737
 6262SOL     OW30004   6.221   1.934   5.809 -0.2297  0.5244  0.1662
 6262SOL    HW130005   6.182   2.005   5.751  1.7124  1.3523 -0.1741
 6262SOL    HW230006   6.238   1.852   5.754  1.0326  1.1006 -0.3413
 6263SOL     OW30007   8.604   4.107   3.490  0.2781  0.0724  0.1735
 6263SOL    HW130008   8.643   4.160   3.566  2.0405  0.5696 -1.0411
 6263SOL    HW230009   8.622   4.010   3.505  2.0971  0.2960 -0.4001
 6264SOL     OW30010   3.714   9.272   2.012  0.2244  0.4789 -0.6032
 6264SOL    HW130011   3.637   9.334   1.998 -0.0315  0.6608  1.3978
 6264SOL    HW230012   3.682   9.177   2.006  0.5467  0.5095 -3.2994
 6265SOL     OW30013   0.892   7.170   2.977 -0.3967 -0.3567 -0.0306
 6265SOL    HW130014   0.905   7.265   3.004  1.7862 -0.9478  1.1071
 6265SOL    HW230015   0.863   7.116   3.056 -2.4665 -0.4942 -0.8648
 6266SOL     OW30016   7.083   2.319   5.420  0.0184 -0.0862 -0.2335
 6266SOL    HW130017   7.156   2.315   5.489 -1.9745 -0.9778  1.8948
 6266SOL    HW230018   7.112   2.269   5.339  2.3980  0.9148 -0.0528
 6267SOL     OW30019   4.995   0.036   5.740 -0.7655  0.1654 -0.2885
 6267SOL    HW130020   4.949   0.101   5.680 -0.3596  0.4113 -0.3340
 6267SOL    HW230021   5.088   0.020   5.708 -0.2577  0.9620  0.7726
 6268SOL     OW30022   2.669   5.790   3.754  0.3209 -0.2571 -0.0358
 6268SOL    HW130023   2.676   5.875   3.700 -0.2854 -0.7060 -0.8353
 6268SOL    HW230024   2.758   5.770   3.796  1.0986 -0.4539 -1.7243
 6269SOL     OW30025   4.233   9.596   5.722  0.4967  0.4348 -0.0796
 6269SOL    HW130026   4.142   9.587   5.682  0.3748  0.9171  0.0887
 6269SOL    HW230027   4.226   9.595   5.821  0.6110  1.1239 -0.0658
 6270SOL     OW30028   3.841   6.330   1.547 -0.1566  0.3834  0.2246
 6270SOL    HW130029   3.836   6.382   1.632 -0.6817  0.6835  0.0113
 6270SOL    HW230030   3.898   6.379   1.481 -0.7982  0.7840 -0.0391
 6271SOL     OW30031   6.760   9.297   3.162  0.2961  0.4212 -0.0086
 6271SOL    HW130032   6.738   9.200   3.165 -0.7672  0.5741 -2.0144
 6271SOL    HW230033   6.742   9.333   3.071  0.3395  2.5880  0.7942
 6272SOL     OW30034   0.627   7.217   6.187 -0.0131  0.3603 -0.0163
 6272SOL    HW130035   0.541   7.170   6.167 -0.1030  0.3347  0.4122
 6272SOL    HW230036   0.608   7.299   6.241  0.1956  0.5644 -0.2562
 6273SOL     OW30037   9.149   7.547   6.375  0.0345 -0.3317 -0.0376
 6273SOL    HW130038   9.150   7.501   6.286 -0.9013 -0.6639  0.1226
 6273SOL    HW230039   9.109   7.638   6.366 -2.1690 -1.2149  0.4396
 6274SOL     OW30040   7.127   0.721   2.566 -0.3122 -0.3260  0.0722
 6274SOL    HW130041   7.206   0.756   2.616 -1.0538  1.9442 -0.3190
 6274SOL    HW230042   7.158   0.681   2.479  0.2327  2.1683 -0.9080
 6275SOL     OW30043   6.803   1.444   4.974 -0.2053  0.1845 -0.2391
 6275SOL    HW130044   6.899   1.430   4.999 -0.4069 -0.7253  0.0324
 6275SOL    HW230045   6.786   1.407   4.883 -0.6793 -1.1408  0.3788
 6276SOL     OW30046   7.725   3.775   4.249  0.6076 -0.0783  0.1772
 6276SOL    HW130047   7.816   3.789   4.288  1.1277 -1.5228 -0.4802
 6276SOL    HW230048   7.678   3.863   4.241  1.4915  0.5474  1.6001
 6277SOL     OW30049   4.644   7.734   2.400  0.3529  0.5034 -0.0299
 6277SOL    HW130050   4.549   7.760   2.419  0.4025  0.9285 -0.3558
 6277SOL    HW230051   4.704   7.777   2.466  0.4037  0.9532 -0.3688
 6278SOL     OW30052   1.237   6.746   4.502 -0.0762 -0.2580  0.3869
 6278SOL    HW130053   1.179   6.810   4.453 -1.0062 -1.0696  0.4259
 6278SOL    HW230054   1.306   6.797   4.554  0.9009  0.6005 -1.7028
 6279SOL     OW30055   3.892   4.290   1.618  0.1359  0.1957 -0.0408
 6279SOL    HW130056   3.975   4.234   1.611  1.6998  2.5439 -1.0069
 6279SOL    HW230057   3.895   4.344   1.702  0.5053  1.6105 -0.9305
 6280SOL     OW30058   9.642   7.956   6.267  0.2470 -0.0986  0.4477
 6280SOL    HW130059   9.593   7.871   6.247 -0.2232  0.0273  1.0646
 6280SOL    HW230060   9.582   8.034   6.249  1.2116  0.1815 -1.7090
 6281SOL     OW30061   7.491   8.706   6.081  0.3709 -0.0426  0.2769
 6281SOL    HW130062   7.545   8.623   6.092  1.3023  0.5687  0.4337
 6281SOL    HW230063   7.427   8.694   6.005 -0.5458 -1.4197  1.2602
 6282SOL     OW30064   3.245   6.715   2.838  0.1477  0.3852 -0.1671
 6282SOL    HW130065   3.243   6.815   2.836 -2.3811  0.4002  0.5286
 6282SOL    HW230066   3.317   6.684   2.899 -0.1886  1.8410  1.0098
 6283SOL     OW30067   3.953   6.592   1.774 -0.1497 -0.6270  0.2908
 6283SOL    HW130068   3.873   6.621   1.723  0.3467  0.3022  0.0276
 6283SOL    HW230069   3.952   6.635   1.865  2.5592  3.4309 -1.4593
 6284SOL     OW30070   8.020   8.108   3.101  0.0861  0.1556 -0.1912
 6284SOL    HW130071   7.966   8.046   3.044  0.3046  0.7925 -1.1064
 6284SOL    HW230072   8.017   8.078   3.197 -1.8941  0.1740 -0.2308
 6285SOL     OW30073   4.815   3.436   5.568  0.4160 -0.7734  0.3046
 6285SOL    HW130074   4.819   3.528   5.606 -0.0254 -1.3986  1.9401
 6285SOL    HW230075   4.906   3.394   5.574  0.7519 -0.2354 -0.9937
 6286SOL     OW30076   7.943   1.533   0.360  0.8722  0.6528 -0.1533
 6286SOL    HW130077   7.891   1.582   0.290  0.7068 -1.0162 -1.2355
 6286SOL    HW230078   7.885   1.462   0.401  1.1365  1.2625  1.3075
 6287SOL     OW30079   2.485   3.880   1.114 -0.1330 -0.0793  0.0275
 6287SOL    HW130080   2.548   3.853   1.041  3.7931  0.3607  3.0401
 6287SOL    HW230081   2.462   3.977   1.104  0.7597  0.0966 -0.3797
 6288SOL     OW30082   9.792   4.951   3.727  0.3702  0.0796  0.4645
 6288SOL    HW130083   9.793   5.051   3.721 -0.0660 -0.0527 -2.0228
 6288SOL    HW230084   9.697   4.919   3.726  0.5742 -0.4831 -0.9580
 6289SOL     OW30085   1.842   9.137   2.285 -0.7889 -0.0133 -0.2358
 6289SOL    HW130086   1.879   9.230   2.277  0.3313 -0.2683  1.5558
 6289SOL    HW230087   1.742   9.140   2.282 -0.7329  1.1365 -1.2242
 6290SOL     OW30088   8.800   5.728   3.860  0.8087  0.7023 -0.0118
 6290SOL    HW130089   8.796   5.774   3.771  1.5363 -0.2346 -0.5380
 6290SOL    HW230090   8.709   5.730   3.903  0.9915  3.3293  0.3529
 6291SOL     OW30091   4.693   7.271   2.799  0.7472 -0.0554 -0.4544
 6291SOL    HW130092   4.666   7.364   2.774  0.2590 -0.0898 -0.0852
 6291SOL    HW230093   4.680   7.258   2.898 -0.3063 -0.8726 -0.6836
 6292SOL     OW30094   8.257   3.605   3.229 -0.2855 -0.4619  0.4921
 6292SOL    HW130095   8.236   3.630   3.135 -0.1896 -0.2842  0.5187
 6292SOL    HW230096   8.290   3.510   3.231 -0.4364 -0.5171  0.3677
 6293SOL     OW30097   6.560   0.548   3.230 -0.0546 -0.0438  0.0381
 6293SOL    HW130098   6.627   0.574   3.299  0.1882 -0.2690 -0.1113
 6293SOL    HW230099   6.476   0.599   3.244 -1.0919 -2.2897  2.4099
 6294SOL     OW30100   4.847   8.340   4.812  0.1230  0.4823  0.3072
 6294SOL    HW130101   4.832   8.368   4.717  0.5050  0.1404  0.1434
 6294SOL    HW230102   4.915   8.267   4.815  0.1873  0.5590  0.8543
 6295SOL     OW30103   4.871   2.444   2.826 -0.6492 -0.2829  0.0010
 6295SOL    HW130104   4.815   2.361   2.814 -1.2528  0.4121 -2.2778
 6295SOL    HW230105   4.967   2.417   2.838 -1.2911 -1.4402  2.9468
 6296SOL     OW30106   1.711   6.252   4.699 -0.6346 -0.2194 -0.6810
 6296SOL    HW130107   1.783   6.303   4.747  0.6582 -0.4450 -2.3347
 6296SOL    HW230108   1.651   6.316   4.652 -1.2348 -0.0507  0.3126
 6297SOL     OW30109   2.216   6.868   1.652 -0.1552  0.0682  0.1922
 6297SOL    HW130110   2.170   6.779   1.654  1.5745 -0.8335  1.9641
 6297SOL    HW230111   2.260   6.881   1.564 -2.3810  0.2204 -0.9308
 6298SOL     OW30112   4.091   9.490   2.156  0.9218 -0.1312  0.2931
 6298SOL    HW130113   4.074   9.571   2.098  3.3767 -0.6039 -1.1984
 6298SOL    HW230114   4.114   9.520   2.248 -2.3940  0.6698  0.9217
 6299SOL     OW30115   8.091   5.607   2.496  0.7102 -0.2017  0.1148
 6299SOL    HW130116   8.010   5.663   2.477 -0.3444 -0.7143  2.8848
 6299SOL    HW230117   8.105   5.544   2.420 -0.7015  0.7978 -1.0168
 6300SOL     OW30118   1.503   5.874   0.502 -0.0118 -0.6633 -0.8507
 6300SOL    HW130119   1.555   5.954   0.474  0.0323 -0.5373 -0.4112
 6300SOL    HW230120   1.409   5.901   0.526  0.3406 -0.5524  0.4467
 6301SOL     OW30121   2.098   1.623   4.102 -0.2334 -0.2102  0.1963
 6301SOL    HW130122   2.057   1.536   4.127  1.4348 -1.4061 -1.1598
 6301SOL    HW230123   2.042   1.669   4.034 -0.9275 -0.3840  0.6503
 6302SOL     OW30124   6.547   7.913   6.482 -0.1310 -0.6405 -0.5074
 6302SOL    HW130125   6.598   7.963   6.551  0.0009  0.3467 -1.3136
 6302SOL    HW230126   6.489   7.845   6.526  1.1556 -1.1213  0.4673
 6303SOL     OW30127   0.554   5.769   2.811 -0.1872 -0.9306  0.2403
 6303SOL    HW130128   0.602   5.736   2.729 -1.1166  0.0175 -0.7024
 6303SOL    HW230129   0.612   5.754   2.891  2.0323  0.8186 -0.9494
 6304SOL     OW30130   9.514   1.733   4.111  0.7778  0.2428  0.2207
 6304SOL    HW130131   9.480   1.640   4.093 -1.3264  1.1231 -0.5923
 6304SOL    HW230132   9.594   1.751   4.055  0.6321 -0.7605 -0.3237
 6305SOL     OW30133   0.618   4.943   3.783  0.3791  0.1748  0.1759
 6305SOL    HW130134   0.678   4.929   3.862  0.4244  1.9982  0.4855
 6305SOL    HW230135   0.618   5.040   3.758 -1.8751  0.0911 -0.2574
 6306SOL     OW30136   8.663   4.103   2.615 -0.2154 -0.0511 -0.3490
 6306SOL    HW130137   8.655   4.139   2.708 -0.1791  0.3535 -0.5044
 6306SOL    HW230138   8.738   4.148   2.568 -3.0454  3.0658 -2.0885
 6307SOL     OW30139   4.712   8.494   4.996 -0.1038 -0.4054  0.6175
 6307SOL    HW130140   4.669   8.566   4.941  1.3362 -0.0813 -0.1103
 6307SOL    HW230141   4.755   8.427   4.936  1.0163 -0.3408  1.3392
 6308SOL     OW30142   2.308   0.742   6.264 -0.4446 -0.5527 -0.4379
 6308SOL    HW130143   2.277   0.657   6.307 -2.0094  0.0489 -0.3287
 6308SOL    HW230144   2.232   0.783   6.213  0.9176 -0.3806 -2.3743
 6309SOL     OW30145   2.615   8.561   3.271 -0.0438  0.2677 -0.4644
 6309SOL    HW130146   2.666   8.476   3.278  1.0540  0.9983  0.6291
 6309SOL    HW230147   2.557   8.573   3.352  1.0394  1.3353  0.1670
 6310SOL     OW30148   1.776   0.205   3.075  0.0072 -0.1056  0.4298
 6310SOL    HW130149   1.854   0.267   3.074  0.3344 -0.5246 -0.1477
 6310SOL    HW230150   1.724   0.216   2.991  0.4508 -1.0960  0.0201
 6311SOL     OW30151   0.243   7.892   0.314 -0.2220  0.3098  0.1659
 6311SOL    HW130152   0.174   7.958   0.285  0.1323  0.4905 -0.2794
 6311SOL    HW230153   0.199   7.807   0.343 -0.5675  0.0217 -1.1674
 6312SOL     OW30154   7.254   9.827   4.582  0.3159 -0.1495 -0.0242
 6312SOL    HW130155   7.231   9.923   4.561 -0.0774 -0.6394 -1.9613
 6312SOL    HW230156   7.266   9.817   4.680 -1.3177  1.5454  0.3979
 6313SOL     OW30157   2.391   2.338   3.591  0.1859 -0.1226  0.5055
 6313SOL    HW130158   2.308   2.392   3.578 -0.2754 -1.1980 -1.2707
 6313SOL    HW230159   2.370   2.259   3.649 -1.1606 -2.6979 -3.2656
 6314SOL     OW30160   7.830   0.007   6.077  0.6619  0.1004 -0.2778
 6314SOL    HW130161   7.878  -0.074   6.108 -0.4316 -0.6509 -0.5009
 6314SOL    HW230162   7.879   0.048   6.000 -0.1626 -1.8641 -1.8775
 6315SOL     OW30163   4.761   3.004   1.160 -0.1795 -0.1110 -0.3550
 6315SOL    HW130164   4.670   2.989   1.123  0.2355  1.5958 -2.0761
 6315SOL    HW230165   4.794   2.918   1.200 -1.7219 -1.2652 -1.4828
 6316SOL     OW30166   4.950   1.762   5.462 -0.6851 -1.0288 -0.0544
 6316SOL    HW130167   4.867   1.726   5.419 -0.2618 -0.3090 -1.5440
 6316SOL    HW230168   4.925   1.829   5.532 -1.3677 -0.2459 -1.0232
 6317SOL     OW30169   9.030   7.723   1.139 -0.2492  0.1000  0.1779
 6317SOL    HW130170   9.049   7.815   1.102  1.1480 -0.5496 -0.7825
 6317SOL    HW230171   8.956   7.681   1.089  0.2069  0.0702 -0.4750
 6318SOL     OW30172   8.017   9.651   5.498 -0.0726 -0.7108 -0.1659
 6318SOL    HW130173   8.054   9.580   5.439 -1.1987 -0.8884 -0.6720
 6318SOL    HW230174   7.930   9.620   5.537 -1.2516  0.8868 -1.4266
 6319SOL     OW30175   1.950   8.753   1.895 -0.4825  0.7394  0.5229
 6319SOL    HW130176   1.898   8.832   1.928  0.7494  1.6078  0.4575
 6319SOL    HW230177   1.890   8.674   1.888 -1.6605  1.5706  0.9683
 6320SOL     OW30178   6.054   0.834   2.074  0.3345  0.0481  0.2108
 6320SOL    HW130179   6.018   0.749   2.035  0.5405  0.4445 -0.8601
 6320SOL    HW230180   6.071   0.821   2.172  0.5161 -1.1844  0.0234
 6321SOL     OW30181   8.041   9.931   2.219 -0.5694  0.6016 -0.0190
 6321SOL    HW130182   8.118   9.900   2.163 -0.0687 -0.7390  1.3466
 6321SOL    HW230183   8.039   9.877   2.303 -1.4376  2.4230  1.1446
 6322SOL     OW30184   8.925   0.319   0.754 -0.0815  0.2434  0.2977
 6322SOL    HW130185   8.844   0.274   0.716 -0.9145  0.4680  1.7752
 6322SOL    HW230186   8.956   0.390   0.690 -1.0117  0.1240 -0.2986
 6323SOL     OW30187   2.554   7.230   1.298 -0.1821  0.3826 -0.0804
 6323SOL    HW130188   2.464   7.203   1.264  0.0416  0.1172 -0.4673
 6323SOL    HW230189   2.615   7.247   1.220  1.2378 -3.2006  0.1540
 6324SOL     OW30190   1.652   8.313   4.941  0.3581 -0.1278 -0.2054
 6324SOL    HW130191   1.692   8.225   4.913 -0.8242 -0.7234 -0.0431
 6324SOL    HW230192   1.558   8.299   4.970 -0.6465  1.5546 -2.4730
 6325SOL     OW30193   3.148   7.074   4.897 -0.0339  0.0826  0.0909
 6325SOL    HW130194   3.090   7.147   4.862 -0.6309  0.0600  1.0230
 6325SOL    HW230195   3.237   7.112   4.925  0.4857  0.0851 -1.5190
 6326SOL     OW30196   2.543   7.923   6.737  0.2107 -0.3720 -0.5478
 6326SOL    HW130197   2.534   7.833   6.694  2.8057  0.4491 -2.9618
 6326SOL    HW230198   2.583   7.987   6.672  0.3859  2.0121  1.8185
 6327SOL     OW30199   1.524   6.354   0.553  0.7718  0.0307 -0.0531
 6327SOL    HW130200   1.571   6.376   0.467 -0.7742  1.5846 -0.5137
 6327SOL    HW230201   1.426   6.350   0.537  0.5710 -1.0956  1.3692
 6328SOL     OW30202   6.061   8.792   5.565 -0.1510 -0.5196 -0.3277
 6328SOL    HW130203   6.141   8.850   5.579 -0.4045 -0.0747 -0.6927
 6328SOL    HW230204   5.987   8.822   5.625  0.0810 -1.1642  0.2720
 6329SOL     OW30205   7.135   2.383   5.087  0.1857 -0.0307  0.2902
 6329SOL    HW130206   7.045   2.418   5.115  0.4395  0.1807  0.8591
 6329SOL    HW230207   7.145   2.391   4.988 -1.5828 -2.7436 -0.1773
 6330SOL     OW30208   1.913   3.371   0.767  0.3662  0.2432  0.3254
 6330SOL    HW130209   1.846   3.298   0.768 -0.3341  0.8776  0.9687
 6330SOL    HW230210   2.005   3.333   0.754 -0.2005 -0.5447 -1.5173
 6331SOL     OW30211   8.920   3.495   5.952  0.4125  0.1915 -0.2540
 6331SOL    HW130212   8.960   3.405   5.938  1.4847  0.5644  0.3531
 6331SOL    HW230213   8.823   3.485   5.973  0.0879 -0.6959 -2.0926
 6332SOL     OW30214   9.030   8.382   3.900 -0.1421  0.1762  0.3758
 6332SOL    HW130215   8.994   8.375   3.993  4.0782 -2.7419  1.9304
 6332SOL    HW230216   9.101   8.452   3.897 -0.2342  0.2324 -0.6751
 6333SOL     OW30217   6.294   5.528   1.160  0.2216  0.4132 -0.1761
 6333SOL    HW130218   6.267   5.561   1.069  2.6476  0.1121 -1.0280
 6333SOL    HW230219   6.250   5.440   1.177 -0.2832  0.4921 -1.0214
 6334SOL     OW30220   2.817   6.790   1.294 -0.3578  0.6399 -0.1403
 6334SOL    HW130221   2.890   6.767   1.359 -0.0503  3.2498  0.4852
 6334SOL    HW230222   2.728   6.777   1.337 -0.2647 -1.4718 -0.5385
 6335SOL     OW30223   7.957   6.856   2.592  0.3517  0.9410 -0.0375
 6335SOL    HW130224   7.959   6.939   2.536 -2.3551 -0.0701 -1.7262
 6335SOL    HW230225   8.023   6.790   2.556  0.0894  1.0819 -0.7971
 6336SOL     OW30226   1.303   1.862   0.607 -0.7971 -0.1744 -0.3019
 6336SOL    HW130227   1.216   1.902   0.635  0.5510  2.6954  0.0428
 6336SOL    HW230228   1.333   1.903   0.521  0.4173 -0.7727 -0.1862
 6337SOL     OW30229   1.276   8.680   3.008 -0.2473 -0.5172  0.0443
 6337SOL    HW130230   1.314   8.605   2.954  1.3562  0.0892  0.3140
 6337SOL    HW230231   1.253   8.756   2.947  1.1464 -0.0011  0.1661
 6338SOL     OW30232   6.930   7.412   6.594 -0.4085  0.0224  0.0276
 6338SOL    HW130233   6.904   7.498   6.550  1.7997  0.4570 -0.5133
 6338SOL    HW230234   6.859   7.384   6.657 -2.3232  0.9236 -1.6587
 6339SOL     OW30235   2.018   2.188   3.319  0.4064  0.4307  0.1770
 6339SOL    HW130236   1.958   2.226   3.249 -0.7930 -1.1449  0.3264
 6339SOL    HW230237   2.110   2.226   3.309 -0.3340  2.0130 -0.7587
 6340SOL     OW30238   9.004   8.958   6.573  0.2599 -0.1282 -0.0746
 6340SOL    HW130239   9.081   8.904   6.606 -1.0116 -1.4119  0.8475
 6340SOL    HW230240   9.014   8.974   6.475  1.9191  0.1039  0.1222
 6341SOL     OW30241   9.275   0.431   5.683 -0.3011  0.2181  0.8026
 6341SOL    HW130242   9.359   0.378   5.696 -0.6584 -0.4377  0.4744
 6341SOL    HW230243   9.285   0.490   5.604 -0.1725  0.0867  0.7203
 6342SOL     OW30244   4.300   3.901   0.450 -0.4383  0.4762  0.0381
 6342SOL    HW130245   4.241   3.823   0.470 -0.6724  1.1560  2.0524
 6342SOL    HW230246   4.244   3.980   0.425 -0.4305  1.2384  2.3535
 6343SOL     OW30247   9.260   4.404   4.104 -0.1855  0.2689  0.3651
 6343SOL    HW130248   9.332   4.455   4.152 -0.0211  0.5771 -0.2031
 6343SOL    HW230249   9.299   4.320   4.066 -0.1297  0.4316  0.0652
 6344SOL     OW30250   6.912   9.714   3.693 -0.3339  0.4233 -0.1173
 6344SOL    HW130251   6.930   9.758   3.605  1.0594  0.1135 -0.0001
 6344SOL    HW230252   6.966   9.629   3.699  1.5025  1.7060  2.0229
 6345SOL     OW30253   2.931   0.318   6.276 -0.0841  0.3779  0.0063
 6345SOL    HW130254   2.915   0.369   6.192  2.1550  0.8476 -0.1831
 6345SOL    HW230255   2.953   0.382   6.350 -1.4056 -0.0705  0.8115
 6346SOL     OW30256   1.568   4.417   3.787 -0.2165  0.7727  0.2455
 6346SOL    HW130257   1.565   4.378   3.879 -0.8913 -1.1005 -0.5338
 6346SOL    HW230258   1.612   4.351   3.725  1.3722  2.5362 -0.5374
 6347SOL     OW30259   0.356   9.212   2.303  0.2693 -0.1352  0.0587
 6347SOL    HW130260   0.419   9.142   2.269 -0.0782 -0.3327 -0.1797
 6347SOL    HW230261   0.395   9.303   2.287  0.2145 -0.2351 -0.6696
 6348SOL     OW30262   1.672   9.585   0.926 -0.3069  0.2334  0.5352
 6348SOL    HW130263   1.687   9.652   0.853 -0.5448 -0.2667  0.0136
 6348SOL    HW230264   1.672   9.493   0.886  1.2901 -0.1617  1.4415
 6349SOL     OW30265   2.016   3.824   2.705  0.1990 -0.2061  0.0679
 6349SOL    HW130266   2.095   3.787   2.656 -0.3965 -2.9135  1.0932
 6349SOL    HW230267   2.048   3.876   2.784  0.9694 -0.5988  0.0256
 6350SOL     OW30268   9.004   2.403   0.482  0.2695 -0.7006  0.3554
 6350SOL    HW130269   8.927   2.463   0.458  0.9991 -1.2634 -3.9071
 6350SOL    HW230270   9.063   2.449   0.547 -0.4036  2.3183 -1.0566
 6351SOL     OW30271   1.604   0.020   5.782 -0.3810  0.1771  0.3862
 6351SOL    HW130272   1.560   0.104   5.748  1.5428  0.8308 -0.5708
 6351SOL    HW230273   1.619  -0.043   5.706  2.4835  0.9700  0.2370
 6352SOL     OW30274   9.343   1.457   6.046  0.1629 -0.1126  0.6811
 6352SOL    HW130275   9.388   1.533   6.093  0.6533  0.2272 -0.3206
 6352SOL    HW230276   9.315   1.486   5.955  1.1531 -1.3897 -0.0574
 6353SOL     OW30277   0.895   1.327   3.160 -0.2845  0.0275 -0.2629
 6353SOL    HW130278   0.846   1.265   3.222 -0.7580  2.1167  1.5395
 6353SOL    HW230279   0.990   1.333   3.189  0.0019 -0.6301 -1.0611
 6354SOL     OW30280   0.837   0.322   2.777 -0.4552  0.2018 -0.2118
 6354SOL    HW130281   0.803   0.296   2.867 -0.3761  0.9812  0.0473
 6354SOL    HW230282   0.801   0.259   2.708 -1.8022  0.5458  0.1564
 6355SOL     OW30283   5.924   0.976   1.854  0.4389 -0.2779  0.1954
 6355SOL    HW130284   5.967   0.962   1.765 -1.6357  0.3476 -0.9216
 6355SOL    HW230285   5.983   0.937   1.925  2.5950  0.1092 -1.3258
 6356SOL     OW30286   2.462   7.402   2.219  0.2386  0.2121 -0.5356
 6356SOL    HW130287   2.506   7.488   2.245  0.0959  1.1416 -3.2077
 6356SOL    HW230288   2.529   7.343   2.174 -0.2011 -0.1649 -0.6962
 6357SOL     OW30289   4.335   2.811   2.856  0.2137 -0.3074 -0.1760
 6357SOL    HW130290   4.297   2.762   2.935 -0.9508 -0.2403 -0.6855
 6357SOL    HW230291   4.363   2.903   2.885 -0.5350 -0.1597  0.0752
 6358SOL     OW30292   9.963   8.795   6.184  0.1233 -0.0226 -0.1534
 6358SOL    HW130293   9.972   8.733   6.106  0.0796 -1.3436  0.8614
 6358SOL    HW230294  10.002   8.751   6.266  0.8207  1.6217  0.4275
 6359SOL     OW30295   1.106   7.936   5.192  0.3769 -0.6360  0.4565
 6359SOL    HW130296   1.200   7.964   5.170  0.0726  0.0578  0.0232
 6359SOL    HW230297   1.093   7.840   5.167  0.9897 -0.7474  0.5631
 6360SOL     OW30298   5.553   8.893   4.731 -0.0788  0.2482  0.0485
 6360SOL    HW130299   5.541   8.796   4.707 -2.2547  0.5824 -0.3698
 6360SOL    HW230300   5.498   8.914   4.812  1.9674  0.6975  1.3606
 6361SOL     OW30301   7.370   4.845   5.808  0.7925 -0.3489  0.7275
 6361SOL    HW130302   7.381   4.786   5.888  0.5510  0.0284  1.0394
 6361SOL    HW230303   7.274   4.865   5.793  0.7339 -1.4023 -0.3829
 6362SOL     OW30304   3.022   1.754   5.121 -0.2080  0.4050  0.2130
 6362SOL    HW130305   2.927   1.763   5.151 -0.1481  0.1728  0.4741
 6362SOL    HW230306   3.073   1.834   5.150 -0.2884  0.4585  0.2081
 6363SOL     OW30307   6.951   5.407   0.508 -0.0680 -0.1630  0.2659
 6363SOL    HW130308   6.940   5.462   0.425 -2.0508 -1.2913 -0.2486
 6363SOL    HW230309   7.046   5.414   0.541  0.1559  2.0820 -0.8098
 6364SOL     OW30310   0.227   7.596   5.344  0.1771 -0.5812  0.3258
 6364SOL    HW130311   0.326   7.606   5.357  0.1332  1.2127 -0.5508
 6364SOL    HW230312   0.209   7.570   5.249 -0.2936  1.1705 -0.0773
 6365SOL     OW30313   4.362   8.508   1.245  0.3856  0.3381  0.6137
 6365SOL    HW130314   4.271   8.527   1.280  0.4126 -0.0653  0.9122
 6365SOL    HW230315   4.369   8.539   1.150  0.7588  2.6989  1.3843
 6366SOL     OW30316   4.483   4.060   1.178  0.8582  0.1198 -0.2096
 6366SOL    HW130317   4.480   3.960   1.190 -0.9800  0.3396  1.5231
 6366SOL    HW230318   4.480   4.082   1.081 -2.0314 -1.4923 -0.5551
 6367SOL     OW30319   7.063   7.994   6.096 -0.1569 -0.0373  0.2835
 6367SOL    HW130320   7.153   7.983   6.138 -1.0081  0.2927  2.2502
 6367SOL    HW230321   7.021   8.079   6.129  0.1971  1.5539 -3.2116
 6368SOL     OW30322   2.267   0.411   1.125 -0.4724  0.4266  0.4713
 6368SOL    HW130323   2.279   0.444   1.031 -2.6194 -0.4905 -0.1568
 6368SOL    HW230324   2.171   0.425   1.152 -0.1500 -0.4659  2.0743
 6369SOL     OW30325   7.670   7.093   3.778 -0.3022  0.1747 -0.4568
 6369SOL    HW130326   7.730   7.096   3.698 -1.7829  1.8994 -1.5211
 6369SOL    HW230327   7.645   7.185   3.805 -0.7161 -0.4422  1.3354
 6370SOL     OW30328   2.144   0.606   5.762 -0.4732 -0.5543 -0.0521
 6370SOL    HW130329   2.094   0.606   5.676  0.1736 -0.9953 -0.4233
 6370SOL    HW230330   2.125   0.692   5.811 -0.9965 -0.3929 -0.5338
 6371SOL     OW30331   5.347   1.252   6.129 -0.1867  0.3651 -0.8033
 6371SOL    HW130332   5.302   1.341   6.142 -1.5973 -0.2614 -1.2520
 6371SOL    HW230333   5.397   1.227   6.211 -0.1154  1.3856 -0.5288
 6372SOL     OW30334   7.055   5.086   8.116 -0.3011 -0.0509 -0.2793
 6372SOL    HW130335   7.073   5.177   8.079  0.3714 -0.0599  0.0145
 6372SOL    HW230336   7.142   5.041   8.138 -0.6939  0.9537  3.6830
 6373SOL     OW30337   2.695   0.918   6.123  0.0806  0.6046 -0.6257
 6373SOL    HW130338   2.615   0.972   6.097 -0.0295  0.0886 -1.3628
 6373SOL    HW230339   2.766   0.929   6.053  1.6823  3.1870  1.3103
 6374SOL     OW30340   8.905   7.324   3.344 -0.2602 -0.3310  0.7001
 6374SOL    HW130341   8.811   7.334   3.374 -0.1245  0.4397  0.8802
 6374SOL    HW230342   8.963   7.306   3.424 -0.0225  0.8450  0.8028
 6375SOL     OW30343   9.094   0.027   2.678 -0.0832  0.0919  0.3486
 6375SOL    HW130344   9.042  -0.042   2.728 -1.0055  1.2162  0.9539
 6375SOL    HW230345   9.143   0.086   2.742  1.0698 -0.2679 -0.1803
 6376SOL     OW30346   9.731   1.367   3.839  0.0963  0.1532 -0.6425
 6376SOL    HW130347   9.772   1.453   3.810 -1.0250  1.3107  1.1091
 6376SOL    HW230348   9.645   1.385   3.888  0.1174 -1.9174  0.2220
 6377SOL     OW30349   8.317   5.236   1.889 -0.3541 -0.2391  0.5435
 6377SOL    HW130350   8.311   5.138   1.869 -0.5773 -0.5012  1.8852
 6377SOL    HW230351   8.225   5.272   1.902 -0.1481 -0.3469  2.3969
 6378SOL     OW30352   7.731   6.465   2.744 -0.4229  0.2883  0.3787
 6378SOL    HW130353   7.785   6.544   2.772  0.4427 -0.1509 -0.0497
 6378SOL    HW230354   7.688   6.424   2.825 -0.4789  0.8953  0.6636
 6379SOL     OW30355   1.277   7.345   5.823  0.4282 -0.6149 -0.4723
 6379SOL    HW130356   1.334   7.293   5.759  2.8627 -0.6331  1.6051
 6379SOL    HW230357   1.268   7.294   5.908  1.5827  1.6759  1.0593
 6380SOL     OW30358   4.193   5.902   0.554  0.0555  0.3115  0.3009
 6380SOL    HW130359   4.205   6.002   0.553 -0.5856  0.3999  1.2840
 6380SOL    HW230360   4.172   5.870   0.462 -1.3726  1.2873  0.2781
 6381SOL     OW30361   2.191   0.036   2.263 -0.5553  0.1630  0.2333
 6381SOL    HW130362   2.250  -0.028   2.215  0.1012  1.7867 -1.1622
 6381SOL    HW230363   2.244   0.081   2.335 -0.2301  1.2125 -0.6552
 6382SOL     OW30364   3.633   1.422   1.018  0.2393 -0.4459 -0.0936
 6382SOL    HW130365   3.559   1.359   0.995  1.3626 -0.4888 -4.0399
 6382SOL    HW230366   3.719   1.370   1.025  0.7357  0.2659 -0.7638
 6383SOL     OW30367   3.525   5.590   3.561 -0.3056 -0.4325  0.1866
 6383SOL    HW130368   3.491   5.603   3.655 -0.6889 -0.4347  0.0492
 6383SOL    HW230369   3.591   5.662   3.540  0.3202 -0.8517  0.7092
 6384SOL     OW30370   9.892   1.329   4.661  0.3580 -0.4307 -0.3903
 6384SOL    HW130371   9.916   1.232   4.654 -0.0765 -0.9261  3.8871
 6384SOL    HW230372   9.975   1.384   4.651  1.1600 -1.4454  0.5387
 6385SOL     OW30373   3.721   5.895   8.044 -0.4175  0.0806  0.4419
 6385SOL    HW130374   3.785   5.966   8.074  0.7691 -0.6588 -0.2627
 6385SOL    HW230375   3.743   5.809   8.090 -2.1803  0.2865  1.6869
 6386SOL     OW30376   6.977   0.823   0.686 -0.3308 -0.3958  0.6830
 6386SOL    HW130377   6.946   0.736   0.648  0.4652 -0.0917 -0.6903
 6386SOL    HW230378   6.941   0.834   0.779 -1.4668 -1.6104  0.3950
 6387SOL     OW30379   5.946   8.726   4.847 -0.3295 -0.4505 -0.2230
 6387SOL    HW130380   5.855   8.685   4.844 -0.3861 -0.3634  0.3050
 6387SOL    HW230381   5.962   8.767   4.937 -0.2755  0.7069 -0.7608
 6388SOL     OW30382   8.118   9.191   5.251 -0.4023 -0.0556  0.3489
 6388SOL    HW130383   8.060   9.163   5.175  0.6978  0.8860 -0.8718
 6388SOL    HW230384   8.186   9.120   5.270  0.1560  0.2642 -0.4260
 6389SOL     OW30385   4.570   2.464   0.746  0.0674 -0.0786  0.2556
 6389SOL    HW130386   4.599   2.378   0.788 -0.1585 -0.2501  0.0563
 6389SOL    HW230387   4.525   2.521   0.814  1.3186  0.3956  0.6948
 6390SOL     OW30388   0.819   0.973   1.249  0.3859  0.0642 -0.5425
 6390SOL    HW130389   0.884   0.997   1.177 -0.2306 -1.5445 -1.6567
 6390SOL    HW230390   0.796   0.876   1.242 -2.4803  0.7021 -0.4690
 6391SOL     OW30391   0.472   9.504   5.642 -0.2005  0.1875  0.3238
 6391SOL    HW130392   0.466   9.412   5.679  1.3955  0.3302  0.9985
 6391SOL    HW230393   0.410   9.565   5.692  0.8312  0.0613  1.7922
 6392SOL     OW30394   5.734   1.236   5.377 -0.0165 -0.6563 -0.0532
 6392SOL    HW130395   5.749   1.214   5.281 -2.0984 -0.3401 -0.4551
 6392SOL    HW230396   5.680   1.165   5.420 -0.0599 -0.2294  0.6105
 6393SOL     OW30397   7.741   1.689   1.714 -0.2038  0.0320 -0.5219
 6393SOL    HW130398   7.737   1.621   1.787  0.2088  1.5741  0.9428
 6393SOL    HW230399   7.836   1.715   1.697 -0.3748  0.3565 -1.0024
 6394SOL     OW30400   5.288   9.742   6.686 -0.2203 -0.4095 -0.4964
 6394SOL    HW130401   5.313   9.722   6.591 -1.0897  0.4229 -0.9097
 6394SOL    HW230402   5.227   9.670   6.719  0.9178 -1.2663 -0.2046
 6395SOL     OW30403   2.160   1.965   0.363  0.9502 -0.3165  0.5088
 6395SOL    HW130404   2.162   2.056   0.405 -0.1549 -0.5309  1.0640
 6395SOL    HW230405   2.230   1.907   0.404  3.9315  1.2523 -2.1816
 6396SOL     OW30406   7.141   3.555   1.899  0.5449 -0.0250  0.2315
 6396SOL    HW130407   7.130   3.654   1.891 -1.9723 -0.4508 -2.5789
 6396SOL    HW230408   7.061   3.516   1.943 -2.8635 -1.6150 -6.6741
 6397SOL     OW30409   9.890   6.953   3.424  1.0864 -0.2239 -0.3313
 6397SOL    HW130410   9.914   6.911   3.512  0.0143 -2.0307 -0.8759
 6397SOL    HW230411   9.862   7.047   3.439  1.3620 -0.3691  1.2113
 6398SOL     OW30412   1.628   7.429   4.119  0.6407 -0.0396 -0.2087
 6398SOL    HW130413   1.699   7.393   4.058  0.0889 -2.5505  0.5417
 6398SOL    HW230414   1.669   7.460   4.204  0.9220 -1.0419  0.0330
 6399SOL     OW30415   4.132   5.780   3.459 -0.5663 -0.0949 -0.5877
 6399SOL    HW130416   4.146   5.814   3.552 -0.0861 -2.4992  0.2709
 6399SOL    HW230417   4.061   5.834   3.413  0.6070  2.3870  0.4595
 6400SOL     OW30418   1.731   0.552   1.418 -0.4795  0.2266 -0.8222
 6400SOL    HW130419   1.697   0.639   1.383  0.3293  0.8918  0.0196
 6400SOL    HW230420   1.657   0.505   1.467 -0.2471  1.6223  0.9108
 6401SOL     OW30421   9.761   4.970   5.157  0.3888  0.3133  0.1470
 6401SOL    HW130422   9.716   5.011   5.236  1.1606  0.8636  0.3066
 6401SOL    HW230423   9.703   4.982   5.076 -1.5698 -2.4503  1.0778
 6402SOL     OW30424   9.437   1.451   2.717  0.3213 -0.0117  0.5453
 6402SOL    HW130425   9.464   1.421   2.626 -0.0420 -1.6726  0.9627
 6402SOL    HW230426   9.510   1.431   2.782 -0.1262 -0.5033  0.9124
 6403SOL     OW30427   6.483   0.149   2.531  0.3934 -0.5356 -0.0556
 6403SOL    HW130428   6.421   0.203   2.588  2.7148  2.0342  0.0994
 6403SOL    HW230429   6.429   0.097   2.465 -2.0255  0.3226  1.1530
 6404SOL     OW30430   0.266   4.250   1.563  0.2781  0.3268 -0.3185
 6404SOL    HW130431   0.287   4.315   1.637  1.1336 -1.4533  1.0541
 6404SOL    HW230432   0.344   4.243   1.502  1.1889 -1.2928  0.9913
 6405SOL     OW30433   5.338   0.108   2.937 -0.4740 -0.4988  0.2087
 6405SOL    HW130434   5.422   0.054   2.930 -2.2932 -3.3115 -0.6463
 6405SOL    HW230435   5.275   0.063   3.000 -1.4576  1.4992  0.7091
 6406SOL     OW30436   8.421   2.128   0.665 -0.0309  0.4372  0.2238
 6406SOL    HW130437   8.497   2.094   0.610 -0.5909  0.6848 -0.7248
 6406SOL    HW230438   8.341   2.142   0.606 -0.8029  0.2054  1.1975
 6407SOL     OW30439   2.708   0.883   4.527 -0.2606 -0.3018  0.2204
 6407SOL    HW130440   2.660   0.938   4.459 -0.5995  1.8532  2.1372
 6407SOL    HW230441   2.784   0.937   4.565 -0.1597 -1.4241  1.6389
 6408SOL     OW30442   5.113   7.955   2.950 -0.3453  0.2154 -0.0824
 6408SOL    HW130443   5.164   7.929   2.868 -0.4394  0.6168 -0.2695
 6408SOL    HW230444   5.127   8.052   2.969 -1.6067  0.5020 -0.5544
 6409SOL     OW30445   4.598   7.801   4.885 -0.4249 -0.2286  0.3123
 6409SOL    HW130446   4.600   7.744   4.968  0.3212 -0.1793  0.3323
 6409SOL    HW230447   4.532   7.764   4.821 -0.0072 -1.0732  0.3619
 6410SOL     OW30448   2.311   1.498   5.522 -0.2496  0.4379 -0.0223
 6410SOL    HW130449   2.316   1.410   5.475 -2.2969 -0.7697  1.8867
 6410SOL    HW230450   2.378   1.500   5.596 -1.0818 -0.0497  0.7523
 6411SOL     OW30451   2.484   5.055   5.162 -0.2776 -0.2416  0.6080
 6411SOL    HW130452   2.548   5.050   5.238 -0.5644  0.1290  0.8745
 6411SOL    HW230453   2.521   5.004   5.084  0.2959 -0.1112  0.7912
 6412SOL     OW30454   4.002   6.865   3.119 -0.7227 -0.5620  0.6440
 6412SOL    HW130455   3.911   6.865   3.161 -0.5861  0.1487  0.9470
 6412SOL    HW230456   4.066   6.817   3.179 -1.3736 -3.1489 -0.6502
 6413SOL     OW30457   1.496   9.342   6.530  0.0709 -0.7704 -0.5649
 6413SOL    HW130458   1.437   9.418   6.504  0.2509 -1.0374 -1.7708
 6413SOL    HW230459   1.554   9.370   6.606 -1.2244 -0.3353  0.2880
 6414SOL     OW30460   3.996   4.616   5.143  0.1387  0.4883 -0.2326
 6414SOL    HW130461   4.062   4.675   5.096  0.8703 -1.3201 -1.5298
 6414SOL    HW230462   3.962   4.547   5.079  0.2763 -1.3109  1.5984
 6415SOL     OW30463   9.881   7.859   8.179  0.9194  0.2001  0.3029
 6415SOL    HW130464   9.858   7.922   8.252 -0.1012 -0.9977  1.0314
 6415SOL    HW230465   9.855   7.899   8.091  1.9245  1.5295  0.5887
 6416SOL     OW30466   6.636   3.269   8.022  0.1182 -0.0202  0.3573
 6416SOL    HW130467   6.708   3.337   8.032  0.0215  0.1882 -0.3229
 6416SOL    HW230468   6.671   3.191   7.970 -0.4761  0.6097 -1.0291
 6417SOL     OW30469   4.130   1.241   1.898 -0.3302 -0.0602  0.1205
 6417SOL    HW130470   4.113   1.337   1.879  0.4301  0.1167  0.2964
 6417SOL    HW230471   4.199   1.207   1.834 -1.9255 -0.9747 -1.1426
 6418SOL     OW30472   0.984   8.085   3.713 -0.2271  0.2703  0.0724
 6418SOL    HW130473   1.045   8.007   3.699 -1.0946 -0.1519 -1.4908
 6418SOL    HW230474   1.021   8.165   3.665 -0.6881  0.1058 -0.5757
 6419SOL     OW30475   3.916   6.532   4.382 -0.1419 -0.5917  0.4449
 6419SOL    HW130476   3.964   6.587   4.450  0.9529 -0.2315 -0.6060
 6419SOL    HW230477   3.963   6.445   4.371 -1.7944 -1.7399  2.0076
 6420SOL     OW30478   5.440   9.672   4.349 -0.2445 -0.2264  0.5887
 6420SOL    HW130479   5.426   9.664   4.448  0.7313 -1.8416  0.6199
 6420SOL    HW230480   5.528   9.631   4.325 -0.2771  0.5460 -0.9002
 6421SOL     OW30481   5.759   0.476   4.635  0.2552 -1.0308 -0.1148
 6421SOL    HW130482   5.733   0.450   4.542 -0.7546  0.2273 -0.2007
 6421SOL    HW230483   5.693   0.438   4.700 -0.5338  0.2220 -0.1467
 6422SOL     OW30484   7.301   4.984   8.151  0.2173 -0.0514  0.4191
 6422SOL    HW130485   7.308   4.891   8.116  2.0890 -0.4964  1.8452
 6422SOL    HW230486   7.375   5.039   8.114 -0.2636  0.5892  0.4018
 6423SOL     OW30487   8.988   0.759   4.907 -0.0667  0.0917 -0.2515
 6423SOL    HW130488   8.912   0.817   4.936 -1.7097 -2.0246 -0.2816
 6423SOL    HW230489   8.977   0.734   4.811  0.7003 -0.1867 -0.2755
 6424SOL     OW30490   0.957   6.563   4.419  0.3170  0.5191 -0.2726
 6424SOL    HW130491   0.937   6.586   4.514 -0.0952  2.3410 -0.7994
 6424SOL    HW230492   0.970   6.464   4.412 -0.4944  0.2590  1.5198
 6425SOL     OW30493   2.280   5.972   1.376  0.1556  0.4074 -0.6628
 6425SOL    HW130494   2.269   5.934   1.468  0.3799 -0.4634 -0.9990
 6425SOL    HW230495   2.268   6.072   1.380 -4.6548 -0.0815 -0.4652
 6426SOL     OW30496   7.830   9.021   6.988  0.6359 -0.0357 -0.4883
 6426SOL    HW130497   7.920   9.059   7.010  0.7487 -0.0029 -1.0051
 6426SOL    HW230498   7.769   9.096   6.962 -0.0475  0.1619  1.5199
 6427SOL     OW30499   8.893   2.221   4.847 -0.6090  0.0911  0.4275
 6427SOL    HW130500   8.960   2.168   4.795 -0.6205 -1.3008  1.7863
 6427SOL    HW230501   8.927   2.315   4.858 -0.0876  0.0859 -1.0983
 6428SOL     OW30502   2.167   8.579   1.822 -0.5279 -0.1088 -0.2518
 6428SOL    HW130503   2.206   8.515   1.889 -1.5788  0.2879  0.7533
 6428SOL    HW230504   2.084   8.619   1.860 -0.8145  0.5511 -1.5850
 6429SOL     OW30505   6.408   3.666   1.119  0.3274 -0.4231  0.3402
 6429SOL    HW130506   6.501   3.653   1.084 -0.1810  0.1943 -1.2937
 6429SOL    HW230507   6.372   3.753   1.086 -0.5162 -0.2435  1.6893
 6430SOL     OW30508   6.188   8.605   4.780 -0.4062  0.3956 -0.2166
 6430SOL    HW130509   6.100   8.649   4.763 -1.3979 -2.0081 -1.6534
 6430SOL    HW230510   6.172   8.510   4.806  1.7222  0.3750  1.0690
 6431SOL     OW30511   9.925   1.699   5.578 -0.5804  0.1944 -0.1316
 6431SOL    HW130512   9.963   1.616   5.537 -0.8502  0.7339 -1.4709
 6431SOL    HW230513   9.831   1.713   5.545 -0.3028  1.3979 -0.4333
 6432SOL     OW30514   0.973   7.682   2.043  0.4630  0.0308 -0.1081
 6432SOL    HW130515   0.992   7.779   2.061  0.1580  0.0443  0.1423
 6432SOL    HW230516   0.919   7.674   1.959  0.5937  0.0697 -0.1964
 6433SOL     OW30517   9.327   1.821   0.870 -0.2276 -0.0700 -0.2372
 6433SOL    HW130518   9.230   1.799   0.862 -0.4332  1.0051 -0.7295
 6433SOL    HW230519   9.369   1.758   0.936 -1.1612 -0.8068 -0.3241
 6434SOL     OW30520   8.245   9.864   1.817  0.8080  0.2427 -0.4303
 6434SOL    HW130521   8.173   9.929   1.795  2.4295  1.8257 -1.1906
 6434SOL    HW230522   8.247   9.792   1.748 -2.0956 -1.6308  1.3199
 6435SOL     OW30523   3.421   4.064   4.163  0.4117  0.4492  0.3719
 6435SOL    HW130524   3.448   4.159   4.179 -0.3843  0.6563  0.4934
 6435SOL    HW230525   3.403   4.019   4.250 -0.6439  0.6122  0.2418
 6436SOL     OW30526   6.115   9.353   7.191  0.6281  0.2658 -0.3365
 6436SOL    HW130527   6.113   9.427   7.259  0.6404  0.3459 -0.4212
 6436SOL    HW230528   6.024   9.313   7.183  0.0344  1.8837 -2.0443
 6437SOL     OW30529   4.541   0.249   1.561 -0.2604  0.5157 -0.2136
 6437SOL    HW130530   4.533   0.348   1.576 -1.1210  0.5377 -0.8230
 6437SOL    HW230531   4.624   0.230   1.509  1.4021  0.6648  2.2978
 6438SOL     OW30532   9.036   8.118   5.000  0.2020  0.0144 -0.1336
 6438SOL    HW130533   8.949   8.155   5.031 -0.2611  0.7954 -2.2655
 6438SOL    HW230534   9.045   8.023   5.029 -1.0435  0.1498  0.7012
 6439SOL     OW30535   6.077   7.736   5.422 -0.5830 -0.2818  0.6063
 6439SOL    HW130536   6.169   7.697   5.409  0.0476  1.2905  0.2828
 6439SOL    HW230537   6.076   7.791   5.505 -1.3788 -0.6655  0.8551
 6440SOL     OW30538   8.475   3.947   5.135  0.4837 -0.0492  0.4482
 6440SOL    HW130539   8.568   3.983   5.131  1.3292 -2.2371 -0.0788
 6440SOL    HW230540   8.458   3.906   5.224  0.6602 -1.2888 -0.0799
 6441SOL     OW30541   7.495   8.460   6.247 -0.4522  0.7145  0.6920
 6441SOL    HW130542   7.497   8.389   6.177 -1.1191 -0.2474  1.6521
 6441SOL    HW230543   7.402   8.496   6.256 -0.1520  1.6302  0.3180
 6442SOL     OW30544   8.473   3.059   2.776  0.7244  0.4461 -0.3316
 6442SOL    HW130545   8.446   2.973   2.733  0.7537  0.3338 -0.1280
 6442SOL    HW230546   8.558   3.045   2.828 -0.6356 -0.0569  1.8441
 6443SOL     OW30547   4.120   3.247   4.953 -0.3507 -0.2160 -0.4643
 6443SOL    HW130548   4.118   3.289   5.044 -0.4116 -0.9579 -0.1171
 6443SOL    HW230549   4.064   3.164   4.954 -1.0489  0.2369 -1.4111
 6444SOL     OW30550   2.969   1.901   4.792  0.0175  0.3301  0.0531
 6444SOL    HW130551   2.997   1.979   4.848 -1.4285  0.6578  0.3365
 6444SOL    HW230552   2.869   1.894   4.792 -0.0101  0.2897 -2.4348
 6445SOL     OW30553   9.962   9.659   0.618  0.0962 -0.1960  0.1611
 6445SOL    HW130554   9.991   9.643   0.524 -0.4330 -3.0798  0.4357
 6445SOL    HW230555  10.037   9.701   0.670  0.3586  1.4823 -1.5433
 6446SOL     OW30556   5.411   0.734   2.863  0.1948 -0.3817  0.0858
 6446SOL    HW130557   5.354   0.775   2.792  0.4077 -1.2953 -0.6248
 6446SOL    HW230558   5.354   0.681   2.926  0.1562 -0.6257 -0.1536
 6447SOL     OW30559   2.126   7.204   5.739  0.3137 -0.2279  0.2528
 6447SOL    HW130560   2.141   7.267   5.816 -0.1486 -0.0555  0.2012
 6447SOL    HW230561   2.210   7.198   5.685  1.0750 -1.4002  1.5369
 6448SOL     OW30562   7.984   7.259   0.911  0.3463 -0.2964 -0.2097
 6448SOL    HW130563   8.024   7.169   0.928  0.5638 -0.4043 -1.2653
 6448SOL    HW230564   8.055   7.322   0.881  0.1107  0.1002  0.0652
 6449SOL     OW30565   8.965   9.416   1.796  0.2638 -0.1303  0.5375
 6449SOL    HW130566   8.928   9.504   1.765 -0.7782 -0.7794 -0.0950
 6449SOL    HW230567   9.058   9.429   1.831  0.6771  0.9791 -0.9355
 6450SOL     OW30568   4.753   6.478   2.826  0.4259 -0.5612 -0.1923
 6450SOL    HW130569   4.835   6.427   2.853  0.1319 -0.7833  0.2891
 6450SOL    HW230570   4.776   6.574   2.814  0.6365 -0.5253  0.4856
 6451SOL     OW30571   9.337   8.335   4.972  0.3917 -0.3950 -0.4303
 6451SOL    HW130572   9.436   8.319   4.973  0.4122 -0.2311  1.2259
 6451SOL    HW230573   9.292   8.263   4.919  1.3024 -1.0965 -0.2538
 6452SOL     OW30574   2.076   7.949   4.288 -0.2009  0.3862 -0.3294
 6452SOL    HW130575   2.150   8.001   4.245 -0.5352 -0.4911 -1.9975
 6452SOL    HW230576   2.071   7.972   4.385  3.7550 -1.2553  0.3518
 6453SOL     OW30577   8.269   2.611   2.507 -0.4910  0.1629  0.5453
 6453SOL    HW130578   8.324   2.569   2.579  0.5742  1.2298  0.3815
 6453SOL    HW230579   8.309   2.587   2.418 -1.6021 -0.8742  0.3178
 6454SOL     OW30580   5.020   7.757   5.586  0.4299 -0.1611  0.1613
 6454SOL    HW130581   5.009   7.793   5.493 -1.5124 -0.6122  0.1977
 6454SOL    HW230582   5.051   7.830   5.646  1.3493  0.2274 -0.7679
 6455SOL     OW30583   1.388   2.985   0.264  0.1474 -0.2315  0.2232
 6455SOL    HW130584   1.319   3.046   0.302 -0.5442 -0.9706  0.1443
 6455SOL    HW230585   1.477   3.031   0.265 -0.0200  0.0814  1.9187
 6456SOL     OW30586   6.521   2.475   0.091  0.4829  0.0049 -0.0537
 6456SOL    HW130587   6.449   2.533   0.130 -0.8695 -1.1675 -0.7342
 6456SOL    HW230588   6.600   2.473   0.152 -0.2347  0.9523  0.9238
 6457SOL     OW30589   1.979   6.988   3.362 -0.1910 -0.1470 -0.6882
 6457SOL    HW130590   1.962   6.894   3.334  1.3883 -0.5079 -0.4844
 6457SOL    HW230591   1.904   7.021   3.418 -1.1195 -1.0230 -1.4115
 6458SOL     OW30592   5.239   8.691   1.947  0.2388  0.5039  0.8928
 6458SOL    HW130593   5.261   8.595   1.966 -1.2590 -0.6366 -2.7215
 6458SOL    HW230594   5.319   8.736   1.908  0.2886  0.1121  0.5347
 6459SOL     OW30595   3.717   6.946   4.114  0.4076 -0.2501  0.3608
 6459SOL    HW130596   3.628   6.951   4.070  0.6492  1.1704  0.0010
 6459SOL    HW230597   3.728   6.857   4.158 -1.8252  0.1142  1.7434
 6460SOL     OW30598   9.157   7.962   4.101  0.0571 -0.2628 -0.7283
 6460SOL    HW130599   9.092   7.948   4.177  0.8295 -1.5902 -0.2949
 6460SOL    HW230600   9.107   7.993   4.020 -1.2067 -1.6494 -0.5137
 6461SOL     OW30601   7.083   3.566   4.016 -0.0672  0.5396 -0.0073
 6461SOL    HW130602   7.182   3.579   4.029  0.0734 -1.3065  0.9759
 6461SOL    HW230603   7.036   3.587   4.101 -0.3144 -0.5183  0.1221
 6462SOL     OW30604   1.474   6.169   2.205  0.2657 -0.1743  0.1984
 6462SOL    HW130605   1.534   6.175   2.126 -0.5837  0.4029 -0.4072
 6462SOL    HW230606   1.418   6.086   2.200  0.1156 -0.0690  0.1239
 6463SOL     OW30607   4.614   6.026   1.314 -0.2140  1.2126 -0.0511
 6463SOL    HW130608   4.578   5.937   1.286  1.0430  1.1163 -1.3945
 6463SOL    HW230609   4.572   6.098   1.260  0.3036  1.2532 -0.4016
 6464SOL     OW30610   1.153   8.566   2.565 -0.7000 -0.6075  0.4914
 6464SOL    HW130611   1.068   8.516   2.552 -0.1690 -1.2102 -0.6767
 6464SOL    HW230612   1.210   8.558   2.484 -0.6554  2.0246  0.2249
 6465SOL     OW30613   3.764   8.276   5.366 -0.4730  0.2813 -0.6318
 6465SOL    HW130614   3.801   8.344   5.428 -1.2743 -0.3278  0.5527
 6465SOL    HW230615   3.838   8.225   5.323  0.0944  0.8259 -0.2968
 6466SOL     OW30616   1.695   6.722   3.019  0.0322 -0.0184 -0.8211
 6466SOL    HW130617   1.713   6.747   3.114 -1.3441  2.6063 -1.2087
 6466SOL    HW230618   1.656   6.629   3.015 -1.9390  0.6644  1.3899
 6467SOL     OW30619   3.649   2.881   1.936  0.1680  0.3979  0.1539
 6467SOL    HW130620   3.670   2.965   1.885 -2.1061 -0.4705 -2.3211
 6467SOL    HW230621   3.599   2.904   2.020 -0.9933  1.4972 -0.8202
 6468SOL     OW30622   3.460   7.031   1.726 -0.3426  0.1802 -0.0841
 6468SOL    HW130623   3.491   7.077   1.810  0.2568 -2.0933  0.9580
 6468SOL    HW230624   3.454   7.099   1.652 -0.5486  2.1454  1.6882
 6469SOL     OW30625   7.335   2.807   4.793 -0.0101 -0.0170  0.5842
 6469SOL    HW130626   7.406   2.737   4.799  0.1301 -0.0914 -1.7006
 6469SOL    HW230627   7.307   2.819   4.698  0.1594  3.2323  0.8928
 6470SOL     OW30628   8.318   6.080   2.898  0.6004 -1.1950 -0.1791
 6470SOL    HW130629   8.258   6.041   2.828 -1.1407  1.4655 -0.2471
 6470SOL    HW230630   8.373   6.153   2.856  0.6376 -0.6089  0.8868
 6471SOL     OW30631   1.981   5.851   0.639  0.2276  0.2106 -0.4291
 6471SOL    HW130632   1.896   5.816   0.679  1.0266 -0.5371  0.6327
 6471SOL    HW230633   1.970   5.948   0.618 -1.1077 -0.0296 -0.9119
 6472SOL     OW30634   8.753   3.968   6.071  0.0534  0.5231 -0.0961
 6472SOL    HW130635   8.709   4.011   5.992  1.3048  1.1969 -0.4276
 6472SOL    HW230636   8.804   4.036   6.123  0.3250 -0.1635  0.5515
 6473SOL     OW30637   9.556   5.782   4.595 -0.3294 -0.3217 -0.2513
 6473SOL    HW130638   9.537   5.716   4.523 -0.5111 -0.5211 -0.0212
 6473SOL    HW230639   9.623   5.745   4.658 -1.0621 -0.6254  0.3513
 6474SOL     OW30640   1.505   5.417   0.192 -0.2629  0.5456 -0.1342
 6474SOL    HW130641   1.474   5.508   0.221 -0.7883  0.8177 -1.4707
 6474SOL    HW230642   1.597   5.424   0.155  1.0602 -0.0926  2.9366
 6475SOL     OW30643   2.299   3.438   2.659  0.5919  0.3895  0.1972
 6475SOL    HW130644   2.211   3.393   2.673  0.3936  0.7295  0.0503
 6475SOL    HW230645   2.354   3.429   2.742  0.5975 -0.2184  0.1289
 6476SOL     OW30646   1.081   7.428   2.746 -0.4189 -0.2268 -0.2839
 6476SOL    HW130647   1.028   7.446   2.664 -0.8788 -0.9391 -0.1434
 6476SOL    HW230648   1.091   7.512   2.799 -0.9211  0.0238 -0.5924
 6477SOL     OW30649   3.721   1.841   1.833  0.6238  0.5319  0.2475
 6477SOL    HW130650   3.675   1.778   1.770  1.5611  1.1622 -1.1101
 6477SOL    HW230651   3.791   1.792   1.884  0.8577  0.3020 -0.2809
 6478SOL     OW30652   2.188   4.593   3.473 -0.6887  0.4069  0.7028
 6478SOL    HW130653   2.090   4.589   3.452 -0.6474  1.0441  0.3729
 6478SOL    HW230654   2.220   4.502   3.502 -1.4260  0.2538  1.0379
 6479SOL     OW30655   0.259   6.462   6.466  0.1064  0.1340 -0.1502
 6479SOL    HW130656   0.273   6.513   6.552  0.4180 -0.3226  0.0734
 6479SOL    HW230657   0.162   6.451   6.449  0.0284  0.9310 -0.2742
 6480SOL     OW30658   0.694   4.591   4.711  0.9411  0.1215 -0.0271
 6480SOL    HW130659   0.692   4.495   4.681  2.4702 -0.4921  1.7542
 6480SOL    HW230660   0.607   4.635   4.686  0.2221 -1.7117 -0.8804
 6481SOL     OW30661   9.781   0.211   5.595 -0.1106 -0.2168 -0.0562
 6481SOL    HW130662   9.706   0.144   5.591  0.6239 -0.9677 -2.0487
 6481SOL    HW230663   9.749   0.299   5.559 -0.0600 -0.5297 -0.8860
 6482SOL     OW30664   4.007   9.302   4.088 -0.2348  0.0264  0.1137
 6482SOL    HW130665   4.035   9.398   4.097 -1.3024  0.2963  0.6853
 6482SOL    HW230666   3.945   9.279   4.164 -0.6366 -0.8691 -0.4872
 6483SOL     OW30667   8.501   6.639   4.676  0.5002 -0.4857  0.3130
 6483SOL    HW130668   8.499   6.731   4.635  1.0925 -0.9299 -0.7412
 6483SOL    HW230669   8.530   6.573   4.607  2.0078 -1.1883  1.5830
 6484SOL     OW30670   8.772   3.394   2.772  0.0136 -0.0022 -0.1986
 6484SOL    HW130671   8.754   3.306   2.816 -0.0866 -0.2477 -0.7292
 6484SOL    HW230672   8.690   3.451   2.777  0.3211  0.3659  0.8390
 6485SOL     OW30673   3.781   7.679   1.658  0.0121 -0.1919  0.1773
 6485SOL    HW130674   3.681   7.667   1.655  0.0743 -0.8636  0.5011
 6485SOL    HW230675   3.825   7.596   1.623  0.4440  1.5065 -3.5060
 6486SOL     OW30676   8.124   5.811   1.437 -0.0865  0.3520 -0.1739
 6486SOL    HW130677   8.112   5.777   1.530  0.6410 -1.8051 -0.8276
 6486SOL    HW230678   8.221   5.804   1.412 -0.5300 -0.7390 -1.6667
 6487SOL     OW30679   2.539   5.745   5.032 -0.2234 -0.2720 -0.0285
 6487SOL    HW130680   2.521   5.647   5.023 -0.0810 -0.3263  0.2658
 6487SOL    HW230681   2.494   5.780   5.114 -1.1017  0.1126 -0.6608
 6488SOL     OW30682   5.474   8.778   2.773 -0.0138 -0.5586 -0.9172
 6488SOL    HW130683   5.505   8.851   2.712  0.3145  0.6809  0.6924
 6488SOL    HW230684   5.536   8.771   2.851 -1.6729 -0.6046  0.4168
 6489SOL     OW30685   5.963   0.355   3.816 -0.6684  0.4704  0.4835
 6489SOL    HW130686   5.871   0.364   3.776 -2.0875 -4.8133  2.1757
 6489SOL    HW230687   6.026   0.318   3.748 -0.8711  0.0217  0.5377
 6490SOL     OW30688   3.201   5.718   0.603 -0.4064  0.1124 -0.1714
 6490SOL    HW130689   3.178   5.795   0.543 -0.3269  0.9034  0.8005
 6490SOL    HW230690   3.122   5.659   0.614 -0.5084  0.1313 -0.8133
 6491SOL     OW30691   0.091   4.226   0.820  0.2367 -0.3518  0.3520
 6491SOL    HW130692   0.091   4.126   0.818 -0.9112 -0.3337 -1.9006
 6491SOL    HW230693   0.000   4.260   0.796  1.5185  1.2671 -2.4552
 6492SOL     OW30694   0.745   3.512   4.312 -0.1889 -0.3144  0.0062
 6492SOL    HW130695   0.688   3.434   4.288 -0.2544  0.7132 -3.4813
 6492SOL    HW230696   0.686   3.591   4.331 -0.0515 -0.4039  0.8036
 6493SOL     OW30697   0.363   2.229   5.547  0.4330 -0.0235  0.1426
 6493SOL    HW130698   0.437   2.282   5.590  1.1997 -1.1734  0.2702
 6493SOL    HW230699   0.367   2.240   5.448  0.0665  0.8268  0.2205
 6494SOL     OW30700   2.673   4.375   4.391 -0.1343  0.5083 -0.0248
 6494SOL    HW130701   2.762   4.335   4.410  0.1531  1.3729  0.4449
 6494SOL    HW230702   2.605   4.301   4.381  0.7705 -0.1811 -1.1801
 6495SOL     OW30703   1.695   2.466   0.275 -0.0890  0.1791  0.0897
 6495SOL    HW130704   1.774   2.480   0.334  0.8882  1.6145 -1.5369
 6495SOL    HW230705   1.679   2.548   0.220 -1.4532 -0.8518 -1.0955
 6496SOL     OW30706   4.273   9.423   4.474  0.4872  0.1493  0.6019
 6496SOL    HW130707   4.329   9.362   4.418  0.3992  1.4393 -0.9312
 6496SOL    HW230708   4.329   9.497   4.510  0.3927 -0.2715  1.6173
 6497SOL     OW30709   1.987   3.369   3.589 -0.1394 -0.1347 -0.3625
 6497SOL    HW130710   1.969   3.459   3.628 -0.9514  0.4676 -2.1154
 6497SOL    HW230711   2.084   3.360   3.569  0.0778  0.0250  0.5959
 6498SOL     OW30712   1.584   5.289   5.093 -0.4557  0.3951  0.1328
 6498SOL    HW130713   1.674   5.325   5.068 -1.5681  2.8174 -0.5348
 6498SOL    HW230714   1.593   5.228   5.172  2.0278 -1.0003 -1.1644
 6499SOL     OW30715   5.396   7.902   6.248  0.0212  0.4083  0.3649
 6499SOL    HW130716   5.346   7.860   6.324 -0.0244 -0.4463 -0.1244
 6499SOL    HW230717   5.335   7.910   6.169  0.4517  0.0343 -0.0061
 6500SOL     OW30718   9.695   9.370   3.068 -0.6069  0.3494  0.1354
 6500SOL    HW130719   9.712   9.276   3.099 -0.5802  0.0878 -0.6635
 6500SOL    HW230720   9.774   9.427   3.092 -0.9674  0.3474  1.3394
 6501SOL     OW30721   4.969   1.233   0.137 -0.6658  0.2440  0.4632
 6501SOL    HW130722   5.039   1.273   0.196 -0.7975 -0.9300  1.4244
 6501SOL    HW230723   4.962   1.135   0.155 -0.9006 -0.0773 -1.3130
 6502SOL     OW30724   1.220   3.812   5.695  0.2668  0.1908  0.7135
 6502SOL    HW130725   1.206   3.716   5.718  0.4563  0.2965  1.2987
 6502SOL    HW230726   1.297   3.820   5.631  2.6258  0.2127  3.4293
 6503SOL     OW30727   4.599   7.645   3.544  0.5620  0.7514 -0.5412
 6503SOL    HW130728   4.576   7.552   3.515 -1.9422  0.7298  1.4069
 6503SOL    HW230729   4.685   7.643   3.595  0.3359 -0.5721 -0.1890
 6504SOL     OW30730   2.286   9.762   2.577 -0.4054 -0.6870  0.1999
 6504SOL    HW130731   2.251   9.810   2.657  0.0327  0.2040 -0.1407
 6504SOL    HW230732   2.383   9.783   2.565  0.0876 -2.5915  0.7298
 6505SOL     OW30733   0.413   2.833   2.085 -0.1205  0.0396 -0.0982
 6505SOL    HW130734   0.355   2.799   2.010 -0.1182  0.9675 -0.5323
 6505SOL    HW230735   0.461   2.756   2.128 -0.1950 -0.5161 -0.9902
 6506SOL     OW30736   8.697   9.815   4.993  0.1683  0.4600 -0.7261
 6506SOL    HW130737   8.684   9.879   4.918  1.7127  0.2655 -1.1776
 6506SOL    HW230738   8.646   9.731   4.973  0.0929  0.6297 -1.2678
 6507SOL     OW30739   3.153   4.606   4.183 -0.0965  0.3722 -0.9513
 6507SOL    HW130740   3.073   4.646   4.137  0.3314  1.8340 -0.4388
 6507SOL    HW230741   3.220   4.578   4.115 -0.6380 -0.0122 -1.3377
 6508SOL     OW30742   6.802   9.580   3.060  0.0600 -0.2243 -0.0807
 6508SOL    HW130743   6.749   9.599   2.978  0.4605  3.5012  0.4223
 6508SOL    HW230744   6.820   9.666   3.109 -0.1332 -2.3143  3.8916
 6509SOL     OW30745   8.562   7.557   5.376 -0.5501  0.0693  0.2018
 6509SOL    HW130746   8.545   7.654   5.389  2.0014  0.6012 -0.2166
 6509SOL    HW230747   8.531   7.529   5.285  0.5741  0.9686 -0.4733
 6510SOL     OW30748   6.628   2.618   1.504  0.3925  0.2986 -0.6056
 6510SOL    HW130749   6.571   2.564   1.566  0.6918  0.6605 -0.0171
 6510SOL    HW230750   6.611   2.589   1.410 -1.7373  1.3187 -0.5470
 6511SOL     OW30751   0.828   1.188   1.766  0.2151  0.5908  0.1032
 6511SOL    HW130752   0.786   1.205   1.855  0.3499  2.9907 -0.2623
 6511SOL    HW230753   0.905   1.250   1.753  2.7168 -2.4181 -0.0667
 6512SOL     OW30754   3.813   0.999   2.681  0.7560 -0.4979  0.3332
 6512SOL    HW130755   3.875   1.022   2.606 -1.8853  0.5512 -1.5814
 6512SOL    HW230756   3.804   0.900   2.687 -0.1413 -0.5575 -1.6943
 6513SOL     OW30757   2.672   4.987   3.222  0.0963  0.5586  0.7241
 6513SOL    HW130758   2.712   4.897   3.239 -2.2698 -0.8780 -1.1563
 6513SOL    HW230759   2.743   5.048   3.187  1.1165 -1.3705 -0.6739
 6514SOL     OW30760   8.639   4.175   4.227  0.0097  0.6948  0.1215
 6514SOL    HW130761   8.738   4.162   4.230 -0.0855  0.3295  2.5985
 6514SOL    HW230762   8.596   4.119   4.298 -1.8164  2.2639  0.2776
 6515SOL     OW30763   3.778   3.324   3.683 -0.1145 -0.2173 -0.9540
 6515SOL    HW130764   3.800   3.421   3.679 -0.1246 -0.1260  0.8211
 6515SOL    HW230765   3.843   3.273   3.625  0.5941  0.7206 -0.9968
 6516SOL     OW30766   4.279   9.199   6.711  0.2141  0.6373  0.1734
 6516SOL    HW130767   4.256   9.278   6.767 -1.7351 -0.4960  1.0321
 6516SOL    HW230768   4.347   9.143   6.758 -0.0304  0.6630  0.5594
 6517SOL     OW30769   4.988   4.740   8.037  0.5144 -0.4805 -0.1234
 6517SOL    HW130770   5.066   4.783   7.991  1.0389 -0.3174  0.9144
 6517SOL    HW230771   4.952   4.801   8.107 -0.4239 -0.6456 -0.4517
 6518SOL     OW30772   8.585   2.705   4.398 -0.6480 -0.0321 -0.4869
 6518SOL    HW130773   8.655   2.751   4.452 -1.0818  0.4067 -0.2990
 6518SOL    HW230774   8.534   2.641   4.456 -1.1246  0.4501 -0.3712
 6519SOL     OW30775   6.719   9.322   5.031  0.3548 -0.0803  0.2121
 6519SOL    HW130776   6.703   9.293   4.936  0.8472  0.7367 -0.1161
 6519SOL    HW230777   6.748   9.417   5.033 -0.1252  0.0499  1.2253
 6520SOL     OW30778   7.610   3.914   1.062  0.0236 -0.2526  0.1394
 6520SOL    HW130779   7.617   4.004   1.106 -0.3959 -0.4827  0.6676
 6520SOL    HW230780   7.549   3.920   0.983 -1.9785 -0.6453  1.6366
 6521SOL     OW30781   9.846   8.868   0.515  0.6506 -0.0491 -0.2051
 6521SOL    HW130782   9.866   8.879   0.613 -0.0711  2.5037 -0.2932
 6521SOL    HW230783   9.931   8.862   0.464  1.0371 -1.1992  0.5616
 6522SOL     OW30784   3.837   5.437   3.727  0.0266  0.6352  0.1248
 6522SOL    HW130785   3.836   5.398   3.820 -0.4619  0.7741  0.1774
 6522SOL    HW230786   3.919   5.491   3.715  0.5560 -0.1442  0.1679
 6523SOL     OW30787   5.086   1.240   5.796  0.2013 -0.1499  0.3329
 6523SOL    HW130788   5.158   1.205   5.856 -1.0696 -0.8724  1.4938
 6523SOL    HW230789   5.064   1.172   5.726  3.1088  1.5207 -2.2871
 6524SOL     OW30790   4.897   1.952   5.658  0.5680  0.2746 -0.5463
 6524SOL    HW130791   4.827   1.906   5.714  1.4923 -0.0365  0.3597
 6524SOL    HW230792   4.861   2.040   5.627 -0.0309  0.3737  0.3777
 6525SOL     OW30793   8.375   3.897   4.330  0.2947  0.3793 -0.3136
 6525SOL    HW130794   8.385   3.823   4.263 -1.1862  0.7435 -0.9524
 6525SOL    HW230795   8.341   3.860   4.416  1.0750  0.0860 -0.1282
 6526SOL     OW30796   0.237   7.126   2.129  0.4807 -0.3852 -0.2633
 6526SOL    HW130797   0.209   7.192   2.059 -1.4267 -2.6031 -1.6898
 6526SOL    HW230798   0.337   7.118   2.128  0.5556  0.3814 -2.0486
 6527SOL     OW30799   1.492   0.198   1.024 -0.2125  0.2142 -0.3542
 6527SOL    HW130800   1.415   0.135   1.039  1.5251 -1.9317 -0.2333
 6527SOL    HW230801   1.487   0.235   0.931 -2.0736  1.0795  0.0677
 6528SOL     OW30802   7.726   5.997   3.346  0.3824 -0.1589 -0.2420
 6528SOL    HW130803   7.710   5.967   3.252 -1.1909 -1.6830  0.4763
 6528SOL    HW230804   7.786   5.932   3.393  2.2404  1.2897 -0.5440
 6529SOL     OW30805   2.187   2.151   5.820 -0.5517 -0.4080 -0.2412
 6529SOL    HW130806   2.266   2.194   5.776 -1.1226  0.3692 -0.5103
 6529SOL    HW230807   2.118   2.131   5.750  0.1566 -2.7844 -0.3057
 6530SOL     OW30808   4.022   4.548   1.501 -0.5060 -0.1284 -0.2868
 6530SOL    HW130809   4.055   4.580   1.590  0.6939 -1.6578 -0.1693
 6530SOL    HW230810   4.044   4.451   1.490 -0.9204 -0.0300 -2.1355
 6531SOL     OW30811   9.463   8.585   4.929  0.2377 -0.5093  0.1630
 6531SOL    HW130812   9.435   8.495   4.962  1.2726 -1.6105 -1.8708
 6531SOL    HW230813   9.487   8.643   5.007  1.2128 -2.5553  1.4317
 6532SOL     OW30814   6.828   3.702   1.216  0.0700 -0.3327 -0.0364
 6532SOL    HW130815   6.787   3.720   1.127  0.3965 -0.6849 -0.2607
 6532SOL    HW230816   6.812   3.780   1.277  2.0343  1.0290 -1.1788
 6533SOL     OW30817   9.036   3.419   3.458 -0.0857 -0.1086 -0.2872
 6533SOL    HW130818   9.068   3.493   3.399  0.0889 -0.4553 -0.6291
 6533SOL    HW230819   8.982   3.355   3.404 -1.6638  0.6478  0.3496
 6534SOL     OW30820   0.590   8.876   3.050  0.3028  0.1444  0.2916
 6534SOL    HW130821   0.687   8.854   3.037  0.4823  0.9698  0.1599
 6534SOL    HW230822   0.556   8.921   2.967 -0.2678 -0.4040  0.2312
 6535SOL     OW30823   5.900   0.512   6.660  0.2374  0.4421  0.5670
 6535SOL    HW130824   5.824   0.566   6.625 -0.3486 -0.1183  0.9503
 6535SOL    HW230825   5.985   0.562   6.649 -0.4466  1.9868  2.0818
 6536SOL     OW30826   5.066   0.673   1.833  0.2452 -0.4160  0.1249
 6536SOL    HW130827   5.134   0.605   1.858 -0.3501 -0.9550  0.2803
 6536SOL    HW230828   5.101   0.764   1.854  0.5836 -0.7397  0.9859
 6537SOL     OW30829   2.623   5.156   1.811 -0.4968  0.5944 -1.1591
 6537SOL    HW130830   2.593   5.232   1.755 -1.0784  0.8562 -0.5091
 6537SOL    HW230831   2.722   5.145   1.805 -0.5156  0.8652 -1.9146
 6538SOL     OW30832   1.633   8.665   2.068  0.2917  0.0161  0.6687
 6538SOL    HW130833   1.690   8.620   2.137 -0.3842  0.3169  1.4322
 6538SOL    HW230834   1.656   8.630   1.977  0.7011 -0.9001  1.1219
 6539SOL     OW30835   4.962   4.357   8.067  0.6275  1.0775 -0.8737
 6539SOL    HW130836   5.013   4.344   8.151 -0.1252 -0.2130 -0.6057
 6539SOL    HW230837   5.016   4.413   8.003  3.5889 -2.5414 -1.6832
 6540SOL     OW30838   8.636   6.978   3.089  0.1132 -0.2190 -0.5065
 6540SOL    HW130839   8.730   7.008   3.078 -0.1327 -0.0611 -2.3744
 6540SOL    HW230840   8.575   7.038   3.037 -1.0797 -0.0237  1.0706
 6541SOL     OW30841   3.822   3.132   4.055 -0.2025 -0.3350  0.3324
 6541SOL    HW130842   3.745   3.192   4.034  0.7569  0.6412 -0.4767
 6541SOL    HW230843   3.788   3.040   4.076 -1.6561  0.3858  1.2158
 6542SOL     OW30844   7.229   7.714   4.961 -0.4346 -1.1918 -0.1839
 6542SOL    HW130845   7.178   7.742   5.043  2.6644  0.5563  1.2646
 6542SOL    HW230846   7.214   7.781   4.888  0.1997 -0.3810  0.4210
 6543SOL     OW30847   8.884   5.697   5.678  0.1014 -0.3306  0.2455
 6543SOL    HW130848   8.905   5.787   5.639  1.1687 -1.2412 -1.3411
 6543SOL    HW230849   8.905   5.698   5.776  2.4556  0.4431 -0.2294
 6544SOL     OW30850   5.446   9.254   4.747 -0.1708  0.3446 -0.0380
 6544SOL    HW130851   5.420   9.282   4.654 -0.6670  0.3565  0.1011
 6544SOL    HW230852   5.406   9.165   4.768  1.7126 -0.6644 -0.6066
 6545SOL     OW30853   9.871   4.210   1.245 -0.0231  0.3171 -0.0113
 6545SOL    HW130854   9.810   4.288   1.263 -0.1883  0.0755  0.4747
 6545SOL    HW230855   9.942   4.238   1.180  0.6159  1.2158  1.0695
 6546SOL     OW30856   7.842   6.868   6.287 -0.5777  0.0994  0.5666
 6546SOL    HW130857   7.754   6.840   6.325  0.8052 -0.9962  3.0124
 6546SOL    HW230858   7.858   6.819   6.201 -2.5621  0.6992 -0.1839
 6547SOL     OW30859   4.118   0.859   4.918  0.5302 -0.1440  0.3752
 6547SOL    HW130860   4.175   0.807   4.854  2.0788  0.2588  1.3901
 6547SOL    HW230861   4.052   0.915   4.867  0.2819 -1.4676 -0.7821
 6548SOL     OW30862   0.441   7.920   1.512  0.4113  0.1874 -0.0864
 6548SOL    HW130863   0.439   7.865   1.428  0.6749  0.2738 -0.1482
 6548SOL    HW230864   0.348   7.925   1.551  0.1073  0.9785 -0.9059
 6549SOL     OW30865   4.856   9.973   6.300  0.1018 -0.4921 -0.4483
 6549SOL    HW130866   4.775  10.032   6.293 -0.6501 -1.5290 -0.5237
 6549SOL    HW230867   4.935  10.029   6.323 -0.6600  0.5167 -0.2212
 6550SOL     OW30868   1.364   9.835   2.077  0.0626  0.6933  0.3790
 6550SOL    HW130869   1.429   9.912   2.082 -0.8280  1.3524  1.8761
 6550SOL    HW230870   1.373   9.791   1.988  2.1241  1.1770  0.3258
 6551SOL     OW30871   7.787   4.127   6.038 -0.4962 -0.1799 -0.0193
 6551SOL    HW130872   7.878   4.166   6.052 -0.7552  1.0827 -1.7661
 6551SOL    HW230873   7.719   4.182   6.085 -0.5755 -0.0478 -0.2908
 6552SOL     OW30874   5.326   8.841   4.062 -0.4130 -0.5153  0.2397
 6552SOL    HW130875   5.425   8.856   4.066 -0.4579 -0.0988 -0.1368
 6552SOL    HW230876   5.301   8.765   4.122  0.0188 -0.0249  1.0530
 6553SOL     OW30877   7.522   7.289   5.686  0.3494 -0.2636  0.2029
 6553SOL    HW130878   7.581   7.229   5.633 -1.1832 -0.1233 -1.6896
 6553SOL    HW230879   7.562   7.381   5.690  0.3135 -0.1927 -1.0002
 6554SOL     OW30880   9.422   0.207   4.943  0.3667 -0.1574 -0.0457
 6554SOL    HW130881   9.461   0.253   4.863  0.2020 -1.2899 -0.7896
 6554SOL    HW230882   9.323   0.199   4.932  0.3755 -0.5427  0.1568
 6555SOL     OW30883   4.045   2.750   4.193 -0.3103 -0.5732 -0.3989
 6555SOL    HW130884   4.086   2.772   4.104 -0.4803 -0.9949 -0.5814
 6555SOL    HW230885   4.101   2.682   4.239  0.2420  0.2688  0.1884
 6556SOL     OW30886   9.986   6.811   2.102 -0.1027  0.7828 -0.1870
 6556SOL    HW130887  10.007   6.743   2.032 -0.4980  0.5096 -0.0492
 6556SOL    HW230888   9.999   6.770   2.192 -0.9340  0.6913 -0.1009
 6557SOL     OW30889   9.716   8.515   2.232 -0.5097 -0.0304 -0.5897
 6557SOL    HW130890   9.712   8.574   2.312 -3.1643  2.3875 -2.4225
 6557SOL    HW230891   9.626   8.474   2.216 -0.4238  0.7053 -3.1603
 6558SOL     OW30892   3.227   4.826   3.350  0.0324 -0.0830 -0.0624
 6558SOL    HW130893   3.228   4.754   3.280  0.6635 -0.9823  0.8561
 6558SOL    HW230894   3.320   4.860   3.364 -0.2214  0.7123 -0.2798
 6559SOL     OW30895   9.344   3.165   1.145 -0.1800 -0.3031  0.6516
 6559SOL    HW130896   9.301   3.076   1.158  0.9606 -0.8414  0.7891
 6559SOL    HW230897   9.273   3.236   1.137 -1.1468 -1.4377 -1.1914
 6560SOL     OW30898   8.369   0.538   0.451 -0.4413 -0.2745 -0.4496
 6560SOL    HW130899   8.339   0.488   0.370 -2.2943  0.7012 -0.4104
 6560SOL    HW230900   8.335   0.492   0.533 -0.2283 -0.1877 -0.3125
 6561SOL     OW30901   7.678   0.889   1.737  0.5069  0.5467  0.3441
 6561SOL    HW130902   7.578   0.885   1.733  0.5196  0.3856  0.1764
 6561SOL    HW230903   7.710   0.837   1.816  0.5292 -0.4801 -0.3329
 6562SOL     OW30904   3.257   3.563   3.953  0.3675 -0.0365  0.0059
 6562SOL    HW130905   3.250   3.623   4.033 -0.9647  0.2958 -0.3405
 6562SOL    HW230906   3.249   3.468   3.983  1.2691  0.0146  0.4212
 6563SOL     OW30907   7.575   9.579   2.571  0.1404  0.0701  0.0615
 6563SOL    HW130908   7.573   9.676   2.595 -1.3638  0.1312 -0.2278
 6563SOL    HW230909   7.656   9.559   2.516  0.3803  1.1872  0.0060
 6564SOL     OW30910   3.514   8.607   5.745 -0.5525  0.0637  0.9482
 6564SOL    HW130911   3.595   8.588   5.799 -0.0557  1.7519  0.8298
 6564SOL    HW230912   3.440   8.637   5.805 -0.6280 -0.0423  0.9079
 6565SOL     OW30913   2.434   2.523   2.639 -0.4227  0.2469 -0.3266
 6565SOL    HW130914   2.396   2.560   2.724  0.6177  0.4947  0.0437
 6565SOL    HW230915   2.361   2.509   2.573 -1.3371 -0.5641  0.8346
 6566SOL     OW30916   3.560   9.074   0.550 -0.5395 -0.0657  0.2991
 6566SOL    HW130917   3.513   8.990   0.523  1.5680 -0.8776 -1.0066
 6566SOL    HW230918   3.656   9.053   0.570  0.1504  2.0925 -0.5415
 6567SOL     OW30919   4.530   5.715   1.425  0.1702  0.0659 -0.3043
 6567SOL    HW130920   4.495   5.668   1.506  1.5287 -1.9258 -0.8473
 6567SOL    HW230921   4.478   5.799   1.410 -0.7629 -0.0626  2.0384
 6568SOL     OW30922   1.534   3.549   2.327 -0.9503 -0.9232  0.1672
 6568SOL    HW130923   1.484   3.463   2.315  0.4743 -1.5828 -1.3721
 6568SOL    HW230924   1.633   3.530   2.323 -0.6307  0.8022 -0.4704
 6569SOL     OW30925   8.109   8.182   1.891 -0.8007  0.4477  0.2060
 6569SOL    HW130926   8.097   8.242   1.812  1.0373  0.6272  0.0378
 6569SOL    HW230927   8.027   8.185   1.948 -2.7500 -0.8061 -2.4238
 6570SOL     OW30928   2.485   6.125   1.193 -0.3509 -0.1612 -0.1829
 6570SOL    HW130929   2.511   6.038   1.152 -0.9647 -0.4665  0.0603
 6570SOL    HW230930   2.557   6.157   1.253 -0.2336 -0.6353 -0.0709
 6571SOL     OW30931   5.752   1.350   2.303  0.6603 -0.4130 -0.0950
 6571SOL    HW130932   5.763   1.268   2.360 -1.9007 -0.3660  0.5638
 6571SOL    HW230933   5.805   1.425   2.342 -0.2680 -0.6624  1.7224
 6572SOL     OW30934   3.478   6.709   2.052 -0.0279 -0.1020 -0.3675
 6572SOL    HW130935   3.469   6.678   2.146  0.7140 -0.2489 -0.3483
 6572SOL    HW230936   3.546   6.781   2.046 -1.1020  0.9251 -0.5604
 6573SOL     OW30937   3.112   7.456   5.059  0.6134 -0.0462 -0.1221
 6573SOL    HW130938   3.180   7.524   5.030 -0.8959  1.5368 -0.0527
 6573SOL    HW230939   3.036   7.456   4.994  0.2695 -1.1703  0.2800
 6574SOL     OW30940   1.680   1.786   5.970 -0.6958  0.1194 -0.1853
 6574SOL    HW130941   1.673   1.710   5.905  0.4401 -1.4292  1.4507
 6574SOL    HW230942   1.589   1.818   5.995 -1.1767 -0.6513 -0.9492
 6575SOL     OW30943   1.689   6.492   5.603 -0.2873  0.2805 -0.3827
 6575SOL    HW130944   1.638   6.414   5.568  0.5347  0.6549 -2.4485
 6575SOL    HW230945   1.644   6.526   5.686 -1.8211 -1.0762 -0.6292
 6576SOL     OW30946   9.177   1.103   1.645 -0.4462  0.0590  0.5558
 6576SOL    HW130947   9.165   1.093   1.546 -0.5625  0.9090  0.4857
 6576SOL    HW230948   9.118   1.176   1.679 -1.9665 -1.6022  1.5837
 6577SOL     OW30949   4.324   2.641   0.175  0.3814 -0.2717  0.0159
 6577SOL    HW130950   4.403   2.676   0.126 -0.2992  1.9127  0.4139
 6577SOL    HW230951   4.240   2.676   0.132 -0.2392  1.0174  2.1829
 6578SOL     OW30952   1.360   6.900   0.649  0.2856 -0.1347  0.1460
 6578SOL    HW130953   1.406   6.882   0.736 -1.4205 -0.3473  1.0315
 6578SOL    HW230954   1.336   6.813   0.606 -0.0252 -0.0252  0.0972
 6579SOL     OW30955   2.436   3.435   2.891  0.5266 -0.0271  0.1214
 6579SOL    HW130956   2.490   3.351   2.895  0.2808 -0.2335 -0.8154
 6579SOL    HW230957   2.424   3.471   2.983  2.0435 -0.1151  0.3640
 6580SOL     OW30958   4.637   7.955   1.837  0.3552  0.5884 -0.4096
 6580SOL    HW130959   4.718   7.972   1.893  1.1737 -0.1008 -1.3617
 6580SOL    HW230960   4.555   7.970   1.891  1.1378 -0.5112  1.1207
 6581SOL     OW30961   0.454   4.576   1.908 -0.3403  0.7455 -0.3327
 6581SOL    HW130962   0.442   4.664   1.954  0.0501  1.2072 -1.1084
 6581SOL    HW230963   0.536   4.531   1.944  1.3067  2.1740 -2.2272
 6582SOL     OW30964   6.881   2.034   5.693 -0.1642 -0.0356  0.1209
 6582SOL    HW130965   6.957   2.006   5.752 -0.3030 -0.5922  0.0408
 6582SOL    HW230966   6.810   2.078   5.748 -0.1394 -0.2399  0.3161
 6583SOL     OW30967   4.279   9.106   5.297 -0.9800  0.0820  0.4027
 6583SOL    HW130968   4.324   9.061   5.220  0.8614 -0.4541  1.7588
 6583SOL    HW230969   4.238   9.036   5.357 -0.8301  0.3857  0.8625
 6584SOL     OW30970   5.202   4.119   2.127 -0.1889  0.3424 -0.8489
 6584SOL    HW130971   5.165   4.080   2.043 -0.9114 -1.1869  0.1632
 6584SOL    HW230972   5.275   4.061   2.162  0.1584  1.0102 -0.4501
 6585SOL     OW30973   7.456   8.327   5.014 -0.2516 -0.1601 -0.5270
 6585SOL    HW130974   7.534   8.345   4.954  0.2685  1.9301  0.7093
 6585SOL    HW230975   7.391   8.402   5.007 -1.5612 -1.2950 -0.6229
 6586SOL     OW30976   7.234   5.092   1.402 -0.4363 -0.0596 -0.0739
 6586SOL    HW130977   7.202   5.181   1.367 -1.5979 -0.7752 -0.9003
 6586SOL    HW230978   7.176   5.064   1.479 -2.4129 -1.7420 -2.0890
 6587SOL     OW30979   9.005   3.628   3.236  0.0393 -0.1532  0.0498
 6587SOL    HW130980   8.906   3.632   3.254  0.1089 -0.8640  0.6173
 6587SOL    HW230981   9.041   3.721   3.231 -0.7493  0.1213 -0.6742
 6588SOL     OW30982   7.977   6.173   3.884 -0.6440  0.2337 -0.6178
 6588SOL    HW130983   8.054   6.175   3.820  0.4699 -1.2117  0.6458
 6588SOL    HW230984   7.992   6.239   3.957 -0.8177  0.2816 -0.6252
 6589SOL     OW30985   4.597   5.893   2.296  0.0164  0.2010  0.0852
 6589SOL    HW130986   4.605   5.802   2.337  0.9802  0.8415  1.3704
 6589SOL    HW230987   4.509   5.901   2.249  0.7437 -2.0643 -1.7701
 6590SOL     OW30988   4.083   2.730   0.024 -0.1169 -0.5794 -0.0087
 6590SOL    HW130989   4.096   2.804  -0.042  0.0993 -0.3170  0.3233
 6590SOL    HW230990   3.987   2.727   0.053  0.3359  1.1701  1.8286
 6591SOL     OW30991   3.325   3.220   0.346 -0.6711 -0.5540  0.4505
 6591SOL    HW130992   3.378   3.142   0.313 -1.4990 -0.7417 -0.4360
 6591SOL    HW230993   3.286   3.269   0.268  1.2471  1.7429  0.8666
 6592SOL     OW30994   8.174   4.416   4.843 -0.3920  0.5058  1.0496
 6592SOL    HW130995   8.148   4.512   4.830  0.6925  0.9182  1.8584
 6592SOL    HW230996   8.226   4.407   4.928 -0.8875 -0.8824  1.2108
 6593SOL     OW30997   1.423   4.421   5.541 -0.1898  0.6762 -0.0940
 6593SOL    HW130998   1.459   4.407   5.633 -2.3356  0.1614  0.6922
 6593SOL    HW230999   1.382   4.336   5.508 -0.6034  1.2286 -1.0031
 6594SOL     OW31000   7.528   0.609   0.320  0.1934  0.5263 -0.0680
 6594SOL    HW131001   7.516   0.519   0.361 -2.6838  0.4955 -0.8371
 6594SOL    HW231002   7.595   0.603   0.246 -0.0692 -1.0155 -0.2047
 6595SOL     OW31003   8.555   2.175   3.425  0.1949  0.3565 -0.0668
 6595SOL    HW131004   8.632   2.214   3.374 -0.0733  0.5308 -0.3476
 6595SOL    HW231005   8.477   2.165   3.363 -0.0634  0.3552  0.2606
 6596SOL     OW31006   3.447   3.332   1.269 -0.2101 -0.6009 -0.5703
 6596SOL    HW131007   3.494   3.246   1.288 -1.6948 -1.0605  1.1063
 6596SOL    HW231008   3.455   3.393   1.347 -0.7253  0.0909 -1.0471
 6597SOL     OW31009   7.187   0.904   1.248 -0.4231 -0.1641  0.1063
 6597SOL    HW131010   7.229   0.930   1.162 -2.8281 -1.8038 -1.6152
 6597SOL    HW231011   7.207   0.808   1.267 -0.2351  0.0807  1.1950
 6598SOL     OW31012   3.054   8.690   1.002  0.4439 -0.0543 -0.3345
 6598SOL    HW131013   2.958   8.663   1.008  0.6867 -1.2363 -1.4958
 6598SOL    HW231014   3.093   8.693   1.094 -1.3324  2.9093  0.3906
 6599SOL     OW31015   3.945   9.658   3.514  0.1843 -0.3586 -0.1389
 6599SOL    HW131016   3.902   9.571   3.488  1.8959 -1.7042  1.4824
 6599SOL    HW231017   4.039   9.660   3.481 -0.2605  1.5153 -1.4066
 6600SOL     OW31018   3.070   6.665   4.141 -0.0374 -0.4418  0.1818
 6600SOL    HW131019   3.005   6.739   4.155 -0.0617 -0.6891  1.4479
 6600SOL    HW231020   3.047   6.615   4.057  0.1104  1.1003 -0.7960
 6601SOL     OW31021   3.575   5.670   4.172 -0.3436 -0.9255 -0.0557
 6601SOL    HW131022   3.592   5.582   4.127  0.8144 -0.9762  0.4529
 6601SOL    HW231023   3.586   5.744   4.106  0.4077 -1.0591 -0.0858
 6602SOL     OW31024   8.792   1.769   5.743  0.8300  0.3764  0.5915
 6602SOL    HW131025   8.842   1.791   5.659 -0.3097 -0.1958 -0.2499
 6602SOL    HW231026   8.748   1.680   5.733 -1.2536  1.3572  0.9141
 6603SOL     OW31027   0.188   3.746   4.270 -0.2112 -0.5245 -0.5002
 6603SOL    HW131028   0.223   3.688   4.196  0.1269  0.7121 -1.3381
 6603SOL    HW231029   0.242   3.731   4.353  1.6492  0.5662 -1.4735
 6604SOL     OW31030   1.656   6.240   2.873 -0.3775  0.0694  0.1171
 6604SOL    HW131031   1.645   6.144   2.847  0.0136  0.5149 -1.8117
 6604SOL    HW231032   1.668   6.295   2.790 -0.8508  1.8147  1.1873
 6605SOL     OW31033   0.050   8.666   1.657 -0.2128 -0.4238 -0.3269
 6605SOL    HW131034   0.007   8.587   1.614 -1.5141  0.5268 -0.7845
 6605SOL    HW231035   0.009   8.750   1.622 -0.1266  0.4108  1.5220
 6606SOL     OW31036   7.876   9.064   5.775  0.2710 -0.3142  0.1709
 6606SOL    HW131037   7.825   8.978   5.771 -0.3842  0.0720  0.1774
 6606SOL    HW231038   7.962   9.049   5.823  0.7650 -1.2692 -0.9845
 6607SOL     OW31039   1.800   2.084   4.115 -0.1484  0.6172 -0.5551
 6607SOL    HW131040   1.708   2.096   4.154 -0.9923  0.1475 -2.3583
 6607SOL    HW231041   1.867   2.087   4.189 -1.4502  2.6805  0.5995
 6608SOL     OW31042   9.419   4.415   3.324  0.0317  0.4365 -0.1523
 6608SOL    HW131043   9.450   4.507   3.301  1.7642  0.3906  1.9109
 6608SOL    HW231044   9.440   4.352   3.250  1.3919  1.1654 -0.3787
 6609SOL     OW31045   1.148   1.027   1.184 -0.5136 -0.6523 -0.5888
 6609SOL    HW131046   1.112   1.020   1.091  2.4776 -0.1430 -1.8691
 6609SOL    HW231047   1.159   1.123   1.209 -0.0810 -0.7898 -0.2344
 6610SOL     OW31048   3.966   8.379   1.767 -0.2868 -0.0674  0.1135
 6610SOL    HW131049   3.943   8.465   1.721  0.3092 -0.2570 -0.5445
 6610SOL    HW231050   4.041   8.395   1.831 -1.1995  0.2235  1.1260
 6611SOL     OW31051   8.531   5.770   0.565 -0.4100 -0.4121 -0.7343
 6611SOL    HW131052   8.460   5.828   0.526  0.1655  0.3643 -0.6298
 6611SOL    HW231053   8.491   5.710   0.635 -0.7302  0.8908  0.2043
 6612SOL     OW31054   9.592   0.986   2.634 -0.3278 -0.5229 -0.3139
 6612SOL    HW131055   9.665   0.922   2.609  2.1729  1.9661  0.4139
 6612SOL    HW231056   9.588   0.994   2.734  0.2903  1.4435 -0.4324
 6613SOL     OW31057   0.309   3.511   4.611 -0.4312 -0.5523 -0.1761
 6613SOL    HW131058   0.337   3.585   4.673  0.2142  0.0261 -1.1252
 6613SOL    HW231059   0.390   3.475   4.565 -0.7310 -1.9614  0.3870
 6614SOL     OW31060   3.622   9.445   0.645 -0.1743 -0.7841 -0.3703
 6614SOL    HW131061   3.589   9.389   0.720 -0.9266  1.1969  0.8197
 6614SOL    HW231062   3.681   9.390   0.586 -0.6240 -2.7134  0.9275
 6615SOL     OW31063   6.800   8.812   4.901 -0.4874  0.3980 -0.1808
 6615SOL    HW131064   6.713   8.824   4.852 -0.3140  1.2150 -0.2985
 6615SOL    HW231065   6.797   8.727   4.953 -2.2170  1.4422  1.5315
 6616SOL     OW31066   2.084   0.667   4.785 -0.0560  0.0462  0.1736
 6616SOL    HW131067   2.025   0.728   4.838 -0.0852 -0.7215  1.0512
 6616SOL    HW231068   2.077   0.574   4.823  0.9265 -0.2499 -0.3705
 6617SOL     OW31069   7.856   8.196   2.064 -0.2300  0.1856 -0.1953
 6617SOL    HW131070   7.829   8.290   2.083 -2.1119 -0.6125  1.2999
 6617SOL    HW231071   7.790   8.155   2.000  0.9794  0.0873 -1.3961
 6618SOL     OW31072   1.509   9.533   2.082  0.0176  0.2146  0.4047
 6618SOL    HW131073   1.600   9.498   2.059  0.5702  0.9607  1.4198
 6618SOL    HW231074   1.518   9.609   2.145 -1.2585  1.2422 -0.6384
 6619SOL     OW31075   8.418   4.185   3.720  0.1268  0.1168  0.1427
 6619SOL    HW131076   8.439   4.209   3.815  2.0335  0.0017 -0.2257
 6619SOL    HW231077   8.498   4.139   3.679  0.3468  2.6136 -2.3422
 6620SOL     OW31078   3.273   0.567   4.035  0.5851  0.3453  0.2900
 6620SOL    HW131079   3.218   0.486   4.015  0.6296  0.6372 -1.0380
 6620SOL    HW231080   3.241   0.608   4.121 -0.7562  0.0611 -0.0638
 6621SOL     OW31081   6.412   9.342   7.110 -0.1789  0.2096 -0.6070
 6621SOL    HW131082   6.464   9.257   7.112  1.1566  1.0189  0.6035
 6621SOL    HW231083   6.339   9.338   7.179  0.8008  0.5853  0.4727
 6622SOL     OW31084   2.227   9.540   0.582 -0.2496 -0.2707  0.9894
 6622SOL    HW131085   2.183   9.450   0.579 -0.6228 -0.0647 -0.1398
 6622SOL    HW231086   2.165   9.607   0.621  0.1936 -0.5922  2.2493
 6623SOL     OW31087   3.515   0.683   2.482  0.1816  0.7252  0.3245
 6623SOL    HW131088   3.603   0.648   2.516 -1.0455 -0.3031  2.5861
 6623SOL    HW231089   3.444   0.663   2.549 -1.8365  1.3453 -1.5767
 6624SOL     OW31090   1.144   3.246   3.075  0.6430  0.2031 -0.0383
 6624SOL    HW131091   1.121   3.186   3.152  0.9436  0.9068  0.6009
 6624SOL    HW231092   1.243   3.247   3.062  0.5764 -0.0829 -0.5727
 6625SOL     OW31093   4.917   8.421   1.834  0.2020  0.4135  0.9981
 6625SOL    HW131094   4.955   8.432   1.926  2.7658  2.1081 -0.1940
 6625SOL    HW231095   4.851   8.495   1.817  0.7565  0.9073  0.9837
 6626SOL     OW31096   1.271   5.071   0.465  0.2133 -0.8248  0.0732
 6626SOL    HW131097   1.334   4.994   0.473 -2.1121 -3.1281 -2.7514
 6626SOL    HW231098   1.177   5.037   0.466 -1.0345  2.3994  2.7323
 6627SOL     OW31099   0.374   1.799   3.884  0.2236 -0.4997 -0.3110
 6627SOL    HW131100   0.389   1.707   3.921  0.3808 -0.2979  0.1359
 6627SOL    HW231101   0.395   1.800   3.786 -0.9641 -1.2315 -0.5869
 6628SOL     OW31102   0.603   1.644   0.622  0.0118 -0.3211  0.3477
 6628SOL    HW131103   0.645   1.554   0.635  0.3513 -0.2746 -0.3683
 6628SOL    HW231104   0.611   1.698   0.706 -0.3595 -1.0214  0.8419
 6629SOL     OW31105   3.981   2.109   0.628 -0.5610 -0.5726 -0.2564
 6629SOL    HW131106   3.920   2.186   0.647 -0.6862 -0.4355 -1.1727
 6629SOL    HW231107   4.074   2.142   0.620 -0.3524 -0.7811  1.1351
 6630SOL     OW31108   0.270   1.141   4.933  0.5057  0.1213  0.2262
 6630SOL    HW131109   0.299   1.236   4.923  0.2946  0.1233 -0.3761
 6630SOL    HW231110   0.349   1.082   4.947  0.6754  0.3208  0.0945
 6631SOL     OW31111   9.913   0.177   2.767 -0.2052  0.6937 -0.2000
 6631SOL    HW131112   9.920   0.219   2.857  1.5081  0.3974 -0.1661
 6631SOL    HW231113   9.827   0.127   2.759  0.4663 -0.8557  1.9583
 6632SOL     OW31114   6.118   2.200   3.213 -0.1680 -0.3406  0.2213
 6632SOL    HW131115   6.173   2.275   3.250 -1.8001  0.9210  0.1606
 6632SOL    HW231116   6.029   2.199   3.258 -1.2826 -0.3378 -1.9136
 6633SOL     OW31117   9.813   3.558   2.223  0.2244  0.3664 -0.3266
 6633SOL    HW131118   9.718   3.532   2.207  0.0675  0.3576  0.5892
 6633SOL    HW231119   9.874   3.486   2.190 -0.0595  0.6506 -1.4915
 6634SOL     OW31120   6.837   2.189   3.478 -0.0941  0.7024 -0.1755
 6634SOL    HW131121   6.770   2.133   3.431  1.4081 -1.6017  0.3410
 6634SOL    HW231122   6.793   2.239   3.553 -0.9628 -2.0689  1.2123
 6635SOL     OW31123   6.598   1.767   4.191 -0.0265 -0.6963  0.1479
 6635SOL    HW131124   6.506   1.728   4.187 -1.3913  2.3683  0.2939
 6635SOL    HW231125   6.630   1.784   4.098  0.7907 -2.5672  0.0621
 6636SOL     OW31126   8.195   4.567   4.228  0.9549  0.1880  0.1657
 6636SOL    HW131127   8.280   4.555   4.176 -0.6177 -0.0906 -2.4133
 6636SOL    HW231128   8.136   4.487   4.215  0.2437  0.4204  1.8667
 6637SOL     OW31129   0.149   2.037   2.227 -0.0485 -0.0812 -0.6775
 6637SOL    HW131130   0.162   1.970   2.154  0.7746 -0.3276 -0.3195
 6637SOL    HW231131   0.215   2.019   2.301 -0.4283  0.5648 -0.1724
 6638SOL     OW31132   2.954   5.268   0.696  0.3547  0.0521  0.7032
 6638SOL    HW131133   2.876   5.266   0.633  0.5720 -3.1046  0.4934
 6638SOL    HW231134   2.943   5.346   0.758 -1.4091  1.4417 -1.2423
 6639SOL     OW31135   2.077   9.097   6.408 -0.1962 -0.7770 -0.4955
 6639SOL    HW131136   2.110   9.137   6.494 -1.0428  0.7521 -0.8642
 6639SOL    HW231137   1.999   9.037   6.428  0.3244 -1.3337 -0.0828
 6640SOL     OW31138   2.451   8.517   5.290  0.5150  0.1135  0.1750
 6640SOL    HW131139   2.550   8.521   5.303  0.2871  1.6899  1.7399
 6640SOL    HW231140   2.413   8.608   5.304 -1.5113 -1.0858  2.9271
 6641SOL     OW31141   2.538   8.868   1.135 -0.0426 -0.6348  0.2351
 6641SOL    HW131142   2.460   8.909   1.181  1.0319 -0.8105  2.2298
 6641SOL    HW231143   2.612   8.935   1.127  0.5063 -1.1941  0.5722
 6642SOL     OW31144   4.100   5.390   3.428 -0.1999  0.3568  0.1343
 6642SOL    HW131145   4.199   5.394   3.434 -0.2935  4.2054  0.2670
 6642SOL    HW231146   4.071   5.294   3.420  3.4696 -0.8287  0.0262
 6643SOL     OW31147   4.703   8.476   1.506 -0.2276 -0.1285  0.7197
 6643SOL    HW131148   4.742   8.528   1.581 -0.0478 -1.5367  1.6324
 6643SOL    HW231149   4.668   8.389   1.541 -2.9698  0.5285 -0.3052
 6644SOL     OW31150   6.820   2.582   5.349  0.5914 -0.2863  0.5703
 6644SOL    HW131151   6.792   2.675   5.373 -1.9684 -0.9275  0.3151
 6644SOL    HW231152   6.833   2.528   5.432 -0.9629 -0.5102  0.6831
 6645SOL     OW31153   3.277   4.705   2.289  0.0670 -0.0236  0.1030
 6645SOL    HW131154   3.206   4.636   2.275 -1.0709  1.3711 -1.2202
 6645SOL    HW231155   3.318   4.729   2.201 -1.8220  3.3178  0.0374
 6646SOL     OW31156   1.724   4.800   3.156 -0.1810 -0.1120  0.6821
 6646SOL    HW131157   1.761   4.880   3.204 -1.8455  0.5803  0.8472
 6646SOL    HW231158   1.799   4.741   3.128  1.0504  1.2851  0.9561
 6647SOL     OW31159   4.439   3.536   3.394 -0.2297 -0.5463 -0.5168
 6647SOL    HW131160   4.429   3.632   3.420  2.4246 -0.1796 -0.7371
 6647SOL    HW231161   4.430   3.528   3.294  2.1617 -0.1305 -0.7810
 6648SOL     OW31162   2.192   9.134   6.649 -0.1265 -0.0106 -0.3097
 6648SOL    HW131163   2.147   9.070   6.711  0.4169 -0.2078 -0.1212
 6648SOL    HW231164   2.290   9.115   6.646  0.0147  0.7127 -0.3695
 6649SOL     OW31165   5.600   9.040   4.301  0.0030  0.1827 -0.2814
 6649SOL    HW131166   5.541   8.988   4.364  0.0179 -0.5158 -0.8499
 6649SOL    HW231167   5.673   9.084   4.353  0.6459 -1.2738  0.0497
 6650SOL     OW31168   8.996   6.854   5.119  0.4216 -0.0318 -0.2538
 6650SOL    HW131169   9.012   6.800   5.036 -0.6911 -0.4855 -0.1866
 6650SOL    HW231170   9.071   6.840   5.183 -0.8524 -3.2379  0.6424
 6651SOL     OW31171   1.174   0.842   5.372 -0.0140 -0.3192  0.1743
 6651SOL    HW131172   1.167   0.834   5.272 -0.4570 -0.1123  0.1872
 6651SOL    HW231173   1.169   0.751   5.413  1.0139 -0.4824 -0.0399
 6652SOL     OW31174   1.765   7.568   0.752 -0.0372  0.4397  0.3232
 6652SOL    HW131175   1.790   7.627   0.675 -0.3662  0.7970  0.4864
 6652SOL    HW231176   1.845   7.552   0.809  0.0954  0.5804  0.1779
 6653SOL     OW31177   6.640   0.503   5.711  0.1950  0.0129  0.1549
 6653SOL    HW131178   6.549   0.541   5.727 -0.9427 -2.8670  0.8089
 6653SOL    HW231179   6.650   0.418   5.763  2.6959 -0.5362 -1.1600
 6654SOL     OW31180   4.228   7.374   4.347  0.1492  0.4225  0.0342
 6654SOL    HW131181   4.210   7.464   4.306  0.2492  0.6177  0.4166
 6654SOL    HW231182   4.188   7.372   4.439  2.2080  0.9009  0.9542
 6655SOL     OW31183   2.763   3.170   0.501  0.2871 -0.1387 -0.1245
 6655SOL    HW131184   2.776   3.208   0.410 -0.2684  0.9052  0.2230
 6655SOL    HW231185   2.852   3.150   0.542  0.5839  0.5820 -0.4092
 6656SOL     OW31186   8.669   4.756   2.580  0.1325  0.6675  0.2027
 6656SOL    HW131187   8.569   4.760   2.578  0.0898  0.0732  0.7620
 6656SOL    HW231188   8.700   4.738   2.673  0.8326  2.3261  0.3029
 6657SOL     OW31189   9.871   8.217   6.331  0.3914 -0.1116 -0.3520
 6657SOL    HW131190   9.940   8.200   6.260  1.4687 -0.3614  0.7442
 6657SOL    HW231191   9.856   8.134   6.384 -0.6784 -0.0246 -0.5033
 6658SOL     OW31192   0.433   0.973   3.451 -0.0405  0.8158 -0.1314
 6658SOL    HW131193   0.437   0.873   3.452 -2.4212  0.6913  1.2519
 6658SOL    HW231194   0.467   1.007   3.363  0.2798 -1.2279 -0.8233
 6659SOL     OW31195   8.846   3.219   3.618 -0.0242 -0.5059  0.6718
 6659SOL    HW131196   8.885   3.271   3.542 -0.6890  0.2398  0.8378
 6659SOL    HW231197   8.797   3.281   3.679 -2.8076 -1.6482 -0.3504
 6660SOL     OW31198   0.149   8.739   2.400 -0.1714  0.4564 -0.1132
 6660SOL    HW131199   0.074   8.797   2.432 -1.1847 -1.3942  0.9553
 6660SOL    HW231200   0.152   8.656   2.455  0.1420 -1.3133 -2.6972
 6661SOL     OW31201   8.466   1.182   4.421  0.1125 -0.1147 -0.3105
 6661SOL    HW131202   8.548   1.170   4.476  1.4536  2.0009 -1.8039
 6661SOL    HW231203   8.473   1.126   4.338 -1.7770 -3.0735  1.4320
 6662SOL     OW31204   1.311   0.863   0.264 -0.3408 -0.0042  0.1186
 6662SOL    HW131205   1.371   0.783   0.277 -0.0281  0.1381 -0.4518
 6662SOL    HW231206   1.284   0.898   0.354 -1.2442 -1.3157  0.3847
 6663SOL     OW31207   3.828   4.101   0.449  0.6766  0.2050  0.1093
 6663SOL    HW131208   3.773   4.017   0.448  1.2889 -0.1980  0.2073
 6663SOL    HW231209   3.788   4.165   0.514  1.1619 -0.6588  1.2786
 6664SOL     OW31210   5.103   2.992   4.192 -0.1318  0.0794  0.0978
 6664SOL    HW131211   5.145   2.953   4.111  0.5576 -0.1497  0.5593
 6664SOL    HW231212   5.106   3.092   4.186  1.5799  0.0720  0.6773
 6665SOL     OW31213   9.495   0.113   2.913 -0.7112  0.0583  0.4542
 6665SOL    HW131214   9.477   0.091   3.009 -0.1097 -1.3924  0.2435
 6665SOL    HW231215   9.438   0.055   2.855 -1.0559  0.9166 -0.0837
 6666SOL     OW31216   1.511   1.392   2.969  0.0161  0.3597  0.6470
 6666SOL    HW131217   1.572   1.458   2.924 -0.2669 -0.6463 -1.2824
 6666SOL    HW231218   1.565   1.314   3.001  0.2788  1.2769  2.4709
 6667SOL     OW31219   9.427   3.021   6.575  0.7732 -0.2454  0.3315
 6667SOL    HW131220   9.496   3.093   6.580  0.6943 -0.1344 -0.1809
 6667SOL    HW231221   9.455   2.945   6.634  0.2616  0.6978  1.8245
 6668SOL     OW31222   3.075   4.127   1.459  0.4171  0.2947  0.3616
 6668SOL    HW131223   3.048   4.221   1.437  0.0483  0.5822  1.9644
 6668SOL    HW231224   3.174   4.120   1.459  0.4289  0.3070 -1.2516
 6669SOL     OW31225   1.193   0.945   4.756 -0.0217  0.4789  0.4470
 6669SOL    HW131226   1.288   0.945   4.724 -0.2051  1.4259 -0.1041
 6669SOL    HW231227   1.136   0.996   4.692 -0.1145  3.7344  2.9613
 6670SOL     OW31228   7.819   2.467   5.103  0.1930  0.2526 -0.1937
 6670SOL    HW131229   7.821   2.367   5.098  0.9847  0.2033  0.9007
 6670SOL    HW231230   7.913   2.502   5.111 -0.1969  0.9796  1.3059
 6671SOL     OW31231   1.445   1.484   5.342  0.5753  0.0869  0.1592
 6671SOL    HW131232   1.348   1.483   5.318  0.8220 -0.6713 -0.8251
 6671SOL    HW231233   1.490   1.404   5.303  1.2703 -0.4602  2.0253
 6672SOL     OW31234   8.316   0.307   2.104 -0.3274  0.2510 -0.2734
 6672SOL    HW131235   8.217   0.300   2.096 -0.4612 -1.6278  2.3000
 6672SOL    HW231236   8.357   0.218   2.086  0.7367  0.5772  0.4992
 6673SOL     OW31237   2.257   7.967   5.332 -1.0635  0.3915  0.6289
 6673SOL    HW131238   2.254   8.051   5.278 -0.4769  0.7562  1.1524
 6673SOL    HW231239   2.188   7.903   5.298  0.0344  0.1774 -1.2534
 6674SOL     OW31240   4.120   6.131   3.652  0.0242  0.1665  0.2338
 6674SOL    HW131241   4.183   6.172   3.586 -0.3869  0.2076 -0.1366
 6674SOL    HW231242   4.027   6.160   3.631 -0.4062 -1.7977 -0.7034
 6675SOL     OW31243   5.979   2.966   5.278 -0.5487 -0.1576 -0.6441
 6675SOL    HW131244   6.029   3.027   5.217 -0.1643 -0.0338 -0.2111
 6675SOL    HW231245   5.917   3.021   5.335  1.8704  0.1787  1.7605
 6676SOL     OW31246   9.946   8.470   6.413 -0.1354 -0.0388 -0.5685
 6676SOL    HW131247   9.882   8.530   6.460 -0.2521  1.3635 -2.4821
 6676SOL    HW231248   9.899   8.385   6.388 -0.6516  0.0997 -0.0871
 6677SOL     OW31249   7.915   9.953   0.481  0.1561  0.2084 -0.1917
 6677SOL    HW131250   7.980   9.896   0.430  0.1726  0.3590 -0.3394
 6677SOL    HW231251   7.954   9.975   0.571  0.2904  0.2640 -0.2639
 6678SOL     OW31252   0.313   1.392   3.392  0.2459 -0.5749  0.5064
 6678SOL    HW131253   0.310   1.422   3.296 -0.7578  1.0025  1.0186
 6678SOL    HW231254   0.223   1.360   3.419 -0.8316  3.6947  2.3773
 6679SOL     OW31255   4.079   9.719   2.026 -0.2160 -0.1685 -0.9676
 6679SOL    HW131256   4.115   9.811   2.043 -1.3634  0.3355 -1.2168
 6679SOL    HW231257   4.007   9.724   1.956 -0.7396 -1.1644 -0.5053
 6680SOL     OW31258   3.343   3.453   5.803 -0.1771 -0.2960  0.2283
 6680SOL    HW131259   3.275   3.452   5.876 -0.1665  0.9632  0.2642
 6680SOL    HW231260   3.406   3.529   5.817  0.7812 -0.9840 -0.2350
 6681SOL     OW31261   0.870   2.399   2.880 -0.2221  0.1528  0.3183
 6681SOL    HW131262   0.900   2.494   2.872 -0.8470  0.2174 -1.4205
 6681SOL    HW231263   0.785   2.396   2.933 -0.8869  0.7082 -0.7018
 6682SOL     OW31264   4.374   8.650   5.292 -0.1248 -0.0062  0.2486
 6682SOL    HW131265   4.310   8.660   5.369  1.8926  0.7953  1.8447
 6682SOL    HW231266   4.340   8.579   5.231 -2.3583  0.1296  1.2696
 6683SOL     OW31267   3.467   3.869   1.084  0.1546  0.3111 -0.0660
 6683SOL    HW131268   3.403   3.918   1.142 -0.5814 -0.8643  0.1283
 6683SOL    HW231269   3.417   3.820   1.013  0.6651 -2.0735  1.1732
 6684SOL     OW31270   4.053   8.723   2.268 -0.1467  0.4729 -0.2621
 6684SOL    HW131271   4.112   8.796   2.233  0.7128 -0.0704  0.0355
 6684SOL    HW231272   4.030   8.742   2.363 -1.5025  1.3328 -0.7487
 6685SOL     OW31273   9.275   4.015   4.287  0.3168 -0.6577 -0.1511
 6685SOL    HW131274   9.221   3.969   4.357  0.0592 -0.2202 -0.0644
 6685SOL    HW231275   9.218   4.030   4.206  0.7849 -1.7100 -0.6878
 6686SOL     OW31276   6.986   4.535   2.609  0.2503 -0.1338 -0.1116
 6686SOL    HW131277   6.920   4.606   2.584 -0.2837 -1.3682 -2.2978
 6686SOL    HW231278   7.070   4.548   2.558  1.4491  0.9558  2.0759
 6687SOL     OW31279   3.348   7.817   6.180 -0.2560 -0.1084  0.0478
 6687SOL    HW131280   3.299   7.731   6.188  0.1427 -0.2684  0.7575
 6687SOL    HW231281   3.434   7.803   6.130 -1.0470  0.2215 -1.4350
 6688SOL     OW31282   4.400   8.266   2.544  0.1342  0.3006  0.0694
 6688SOL    HW131283   4.466   8.207   2.591 -0.1098 -0.2494 -0.2720
 6688SOL    HW231284   4.322   8.211   2.514  0.0209  0.7566 -0.4707
 6689SOL     OW31285   1.117   5.183   1.410 -0.1461  0.2965  0.5338
 6689SOL    HW131286   1.085   5.093   1.378 -1.5624  0.4769  1.3929
 6689SOL    HW231287   1.038   5.244   1.420  0.6026  1.0805  1.6914
 6690SOL     OW31288   1.773   3.705   4.446 -0.1102 -0.2723 -0.2555
 6690SOL    HW131289   1.694   3.695   4.385  1.3583 -1.9138 -1.9732
 6690SOL    HW231290   1.773   3.631   4.513 -0.8459  0.6058  0.7252
 6691SOL     OW31291   0.292   5.585   3.060  0.2476 -0.2936 -0.3458
 6691SOL    HW131292   0.380   5.602   3.105  0.6259  0.9466 -1.5279
 6691SOL    HW231293   0.278   5.652   2.987 -0.7057 -1.8061 -1.5939
 6692SOL     OW31294   3.503   0.640   2.222  0.2885  0.3860 -0.3593
 6692SOL    HW131295   3.511   0.657   2.320  0.5407  0.8283 -0.4537
 6692SOL    HW231296   3.520   0.725   2.172 -1.8023  0.6365 -0.7062
 6693SOL     OW31297   9.984   4.207   0.335 -0.0302 -0.4374 -0.0684
 6693SOL    HW131298  10.069   4.178   0.292 -0.0722 -0.9975  0.2291
 6693SOL    HW231299   9.921   4.130   0.342 -0.7404  0.0747 -0.7012
 6694SOL     OW31300   9.397   3.159   5.883  0.0274 -0.1414  0.0714
 6694SOL    HW131301   9.304   3.144   5.849  0.1545 -1.4325  0.2797
 6694SOL    HW231302   9.455   3.082   5.857  0.2931 -0.8491  2.5791
 6695SOL     OW31303   0.311   3.816   2.062 -0.2935 -0.3854 -0.0866
 6695SOL    HW131304   0.213   3.804   2.079 -0.1965 -2.0338 -0.5197
 6695SOL    HW231305   0.352   3.867   2.138 -1.3459 -0.3678  0.4846
 6696SOL     OW31306   4.473   6.953   4.256 -0.0998  0.3599 -0.4947
 6696SOL    HW131307   4.565   6.947   4.218 -0.4548 -0.1197 -1.2806
 6696SOL    HW231308   4.479   6.970   4.355  0.8187  0.9750 -0.6595
 6697SOL     OW31309   6.852   5.331   7.057  1.3042  0.5291  0.1053
 6697SOL    HW131310   6.823   5.331   7.153  0.4615  1.1590 -0.1443
 6697SOL    HW231311   6.827   5.418   7.015  1.6999  0.2650 -0.6866
 6698SOL     OW31312   3.992   2.153   2.328  0.1498 -0.1503 -0.3351
 6698SOL    HW131313   4.009   2.227   2.263  1.7495 -1.3234 -1.2923
 6698SOL    HW231314   4.064   2.084   2.319 -0.3968 -1.0252  1.6947
 6699SOL     OW31315   3.264   3.839   5.354  0.6565 -0.0164  0.5816
 6699SOL    HW131316   3.202   3.761   5.340  0.3480 -0.1397  2.5823
 6699SOL    HW231317   3.211   3.924   5.348  0.2445 -0.1246  2.3731
 6700SOL     OW31318   2.721   6.171   0.150 -0.0925  0.1258  0.1390
 6700SOL    HW131319   2.809   6.125   0.160 -0.4307 -0.2850  1.3018
 6700SOL    HW231320   2.722   6.227   0.067  1.6577  1.0224  0.7346
 6701SOL     OW31321   4.701   4.433   8.080  0.4431 -0.4435  0.1728
 6701SOL    HW131322   4.794   4.409   8.109  1.4814  1.7029 -1.2638
 6701SOL    HW231323   4.704   4.467   7.986 -1.5838  1.0729  0.6436
 6702SOL     OW31324   9.551   3.279   3.238  0.4376 -0.2179 -0.2354
 6702SOL    HW131325   9.628   3.242   3.289 -0.4311  0.9568  2.0355
 6702SOL    HW231326   9.495   3.205   3.201  1.4589 -1.0848 -0.0330
 6703SOL     OW31327   7.755   6.762   2.411  0.4942  0.3532 -0.4281
 6703SOL    HW131328   7.678   6.812   2.370 -1.3199 -0.5093  1.8736
 6703SOL    HW231329   7.797   6.819   2.481  1.8231  0.7085 -1.4883
 6704SOL     OW31330   9.693   3.387   0.893  0.1731  0.1023  0.6772
 6704SOL    HW131331   9.632   3.409   0.970 -0.9779 -0.5659 -0.0239
 6704SOL    HW231332   9.785   3.418   0.914 -0.3130  0.7334  1.9576
 6705SOL     OW31333   2.696   2.857   6.045  0.2034  0.2150 -0.6103
 6705SOL    HW131334   2.669   2.791   5.975  1.0906  0.0793 -0.8270
 6705SOL    HW231335   2.656   2.831   6.133  0.8251 -0.8107 -0.6188
 6706SOL     OW31336   4.497   4.681   1.575  0.7217  0.2021 -0.1694
 6706SOL    HW131337   4.431   4.726   1.636  1.4132  0.9535  0.0347
 6706SOL    HW231338   4.449   4.615   1.518 -0.2687  0.9698 -0.2514
 6707SOL     OW31339   2.893   3.036   1.160 -0.2568  0.0592  0.0294
 6707SOL    HW131340   2.876   2.938   1.145 -3.7044  1.1272 -4.0731
 6707SOL    HW231341   2.984   3.059   1.126  0.4974 -1.6298  0.8127
 6708SOL     OW31342   0.974   7.057   3.710 -0.4529 -0.7913  0.0055
 6708SOL    HW131343   0.906   6.993   3.675 -0.9698  0.9355 -2.2818
 6708SOL    HW231344   0.957   7.148   3.672  2.1883  0.0098  0.6335
 6709SOL     OW31345   3.765   2.291   5.647  0.0812 -0.1533 -0.1627
 6709SOL    HW131346   3.781   2.220   5.716 -0.8937 -0.3596 -0.1492
 6709SOL    HW231347   3.840   2.358   5.650  1.6794 -1.8507 -1.0252
 6710SOL     OW31348   3.447   6.376   2.339  0.1986 -0.0858 -0.0406
 6710SOL    HW131349   3.419   6.470   2.321  0.7983  0.2000  0.4927
 6710SOL    HW231350   3.452   6.361   2.438 -0.2413 -0.7810 -0.1259
 6711SOL     OW31351   9.771   2.454   2.026  0.0449 -0.1867  0.6940
 6711SOL    HW131352   9.840   2.522   2.049 -0.4737  0.5875  0.0028
 6711SOL    HW231353   9.810   2.362   2.037  0.7020  0.2180  1.7545
 6712SOL     OW31354   2.921   2.795   5.142  0.0145 -0.0441 -0.1780
 6712SOL    HW131355   3.017   2.772   5.159 -0.0051 -0.2896 -0.3895
 6712SOL    HW231356   2.910   2.823   5.046 -0.2089 -0.4717 -0.2812
 6713SOL     OW31357   5.311   5.089   7.781  0.1263 -0.4498 -0.4718
 6713SOL    HW131358   5.334   5.107   7.685  0.8897  1.6688  0.1008
 6713SOL    HW231359   5.218   5.121   7.799  0.7265  1.0348  0.0128
 6714SOL     OW31360   0.479   5.479   0.612  0.1674 -0.4958  0.6369
 6714SOL    HW131361   0.455   5.426   0.531 -0.3745  0.2858  0.2838
 6714SOL    HW231362   0.398   5.487   0.672  0.7017 -1.5355  1.5276
 6715SOL     OW31363   8.868   5.190   5.979 -0.0443 -0.2325  0.6786
 6715SOL    HW131364   8.886   5.102   6.022 -1.1118 -0.7214  0.1229
 6715SOL    HW231365   8.897   5.188   5.884 -1.2017 -0.3907  0.3202
 6716SOL     OW31366   9.588   1.814   0.708 -0.6851 -0.3698 -0.2129
 6716SOL    HW131367   9.512   1.861   0.755  0.9251  0.5335  1.5420
 6716SOL    HW231368   9.638   1.758   0.773 -0.5382 -1.9158 -1.6242
 6717SOL     OW31369   1.907   7.668   0.308 -0.0987  0.2823 -0.6278
 6717SOL    HW131370   1.862   7.736   0.366  1.7838 -0.4648  1.7751
 6717SOL    HW231371   1.843   7.639   0.236 -2.7610  0.7149  1.4598
 6718SOL     OW31372   1.811   4.325   1.077 -0.3882  0.2617  0.0498
 6718SOL    HW131373   1.763   4.411   1.058  0.6344  0.7230 -0.5015
 6718SOL    HW231374   1.894   4.344   1.129 -0.2853 -0.4154  0.1337
 6719SOL     OW31375   3.656   1.323   0.669 -0.2871  0.0242 -0.4238
 6719SOL    HW131376   3.643   1.230   0.705 -2.6272  1.6905  3.3578
 6719SOL    HW231377   3.743   1.360   0.701 -1.6734  0.9402  2.4159
 6720SOL     OW31378   4.686   4.392   1.161 -0.2963 -0.0732  0.2405
 6720SOL    HW131379   4.617   4.460   1.135 -1.4535 -0.9791  0.8923
 6720SOL    HW231380   4.748   4.377   1.084  0.2583  2.0581  0.2551
 6721SOL     OW31381   4.922   2.802   4.703 -0.0458 -0.3056 -0.4575
 6721SOL    HW131382   4.847   2.868   4.702  0.8280  0.6995 -0.9582
 6721SOL    HW231383   4.967   2.802   4.614  1.2355 -0.1131  0.1872
 6722SOL     OW31384   2.673   4.033   3.671  0.0968 -0.5168 -0.5346
 6722SOL    HW131385   2.755   4.090   3.676 -0.2416  0.1101 -1.8553
 6722SOL    HW231386   2.697   3.944   3.632  0.4647 -0.9545  0.6934
 6723SOL     OW31387   4.399   1.188   5.976  0.2394  0.3650 -0.2760
 6723SOL    HW131388   4.438   1.276   6.005 -0.6449  1.1022 -1.2454
 6723SOL    HW231389   4.320   1.206   5.917 -0.6448 -1.0931  0.4607
 6724SOL     OW31390   9.686   9.494   3.407  0.0622  0.2151 -0.0676
 6724SOL    HW131391   9.660   9.515   3.501  0.0287  1.2182 -0.2911
 6724SOL    HW231392   9.782   9.466   3.405  0.5150  1.6878  0.0827
 6725SOL     OW31393   9.566   3.921   4.254  0.2849 -0.1363  0.5805
 6725SOL    HW131394   9.625   4.000   4.270  1.1173  0.4540 -4.3829
 6725SOL    HW231395   9.470   3.950   4.254  0.6112  1.0763 -1.7106
 6726SOL     OW31396   1.992   5.817   3.939  0.0402 -0.2996 -0.6409
 6726SOL    HW131397   1.996   5.717   3.931 -1.2767 -0.3788 -0.4588
 6726SOL    HW231398   2.084   5.853   3.957  0.8292 -1.3073 -2.5048
 6727SOL     OW31399   4.839   1.188   0.839 -0.4223 -0.3409  0.2324
 6727SOL    HW131400   4.872   1.123   0.770 -1.4477  0.1812 -0.7620
 6727SOL    HW231401   4.914   1.250   0.865 -0.3592  0.2537 -1.3367
 6728SOL     OW31402   0.441   4.548   1.457 -0.5246  0.0628 -0.3251
 6728SOL    HW131403   0.459   4.455   1.425  3.1155  0.5039  0.1848
 6728SOL    HW231404   0.386   4.544   1.540 -2.1569 -1.5069 -1.4394
 6729SOL     OW31405   7.260  10.000   2.899 -0.3590 -0.1800 -0.1364
 6729SOL    HW131406   7.164   9.975   2.881  0.2210 -2.3851 -0.3112
 6729SOL    HW231407   7.271  10.098   2.886 -3.2070  0.6013  2.5929
 6730SOL     OW31408   3.275   2.913   0.088 -0.4669  0.1936 -0.2326
 6730SOL    HW131409   3.267   2.813   0.084  1.9509 -0.1782  2.2681
 6730SOL    HW231410   3.208   2.949   0.153 -0.4419  0.0773 -0.1429
 6731SOL     OW31411   1.792   5.979   3.984 -0.1058 -0.2907  0.4321
 6731SOL    HW131412   1.748   6.020   3.905  0.6212  0.1574  0.2523
 6731SOL    HW231413   1.873   5.929   3.955  1.0148  1.1247  1.0427
 6732SOL     OW31414   9.768   5.848   6.077 -0.2889 -0.2617 -0.1725
 6732SOL    HW131415   9.695   5.793   6.118 -0.2878 -0.8573 -0.9670
 6732SOL    HW231416   9.728   5.919   6.019 -0.2294 -1.2845 -1.4973
 6733SOL     OW31417   4.716   2.823   2.464 -0.2887  0.1997 -0.3090
 6733SOL    HW131418   4.659   2.899   2.432 -2.0141 -0.5288  0.9820
 6733SOL    HW231419   4.683   2.791   2.553  2.0870 -0.3018  0.4449
 6734SOL     OW31420   1.029   8.151   4.266  0.0663 -0.4116 -0.3014
 6734SOL    HW131421   1.055   8.156   4.170 -0.2562  0.5702 -0.3470
 6734SOL    HW231422   0.973   8.231   4.290  0.4533 -0.4551  0.7942
 6735SOL     OW31423   1.802   1.119   3.627 -0.3272 -0.4509 -0.2617
 6735SOL    HW131424   1.772   1.142   3.719 -0.2952 -0.6951 -0.1897
 6735SOL    HW231425   1.770   1.188   3.563  1.3130  0.7852  0.2211
 6736SOL     OW31426   6.760   3.268   0.514 -0.6830  0.2704  0.1969
 6736SOL    HW131427   6.811   3.182   0.502 -1.5164 -0.3122  0.7558
 6736SOL    HW231428   6.745   3.310   0.424  2.9627  1.7536  0.2229
 6737SOL     OW31429   9.169   8.987   5.878  0.0655  0.1184 -0.3266
 6737SOL    HW131430   9.180   8.923   5.954 -1.0521  0.7263  0.3689
 6737SOL    HW231431   9.257   9.003   5.834  0.6995 -0.3376  0.7592
 6738SOL     OW31432   9.775   3.667   5.551 -1.1819 -0.1138 -0.2825
 6738SOL    HW131433   9.851   3.689   5.490 -0.3974  0.3958  0.8625
 6738SOL    HW231434   9.810   3.645   5.642 -2.2654 -1.9617 -0.2925
 6739SOL     OW31435   4.747   0.223   1.837 -0.3634 -0.4601 -0.2549
 6739SOL    HW131436   4.659   0.261   1.865  0.5548  0.8265  0.9748
 6739SOL    HW231437   4.732   0.146   1.776 -2.3508 -0.6286  0.4102
 6740SOL     OW31438   1.697   5.742   4.405  0.1966  0.0162  0.5737
 6740SOL    HW131439   1.730   5.754   4.312  1.0126 -1.1297  0.6899
 6740SOL    HW231440   1.695   5.830   4.452 -2.2952  0.9327 -1.1645
 6741SOL     OW31441   3.360   4.313   3.117  0.1760  0.2085 -0.2563
 6741SOL    HW131442   3.330   4.231   3.166  1.0899  0.4718  0.7471
 6741SOL    HW231443   3.331   4.306   3.021 -1.2427 -0.5023  0.1978
 6742SOL     OW31444   9.679   0.988   2.084  0.3910 -0.5075 -0.1068
 6742SOL    HW131445   9.715   0.913   2.139  1.5441 -0.9009 -1.3659
 6742SOL    HW231446   9.755   1.039   2.044 -0.3789  1.5306  0.9725
 6743SOL     OW31447   0.339   3.291   2.138  0.2151  0.0411  0.1697
 6743SOL    HW131448   0.278   3.360   2.177 -2.1443 -2.0897  0.3442
 6743SOL    HW231449   0.398   3.253   2.209 -0.2001  0.1184  0.5526
 6744SOL     OW31450   4.227   8.404   5.193  0.2533  0.3011  0.0791
 6744SOL    HW131451   4.188   8.420   5.284 -0.3682  0.0748 -0.1449
 6744SOL    HW231452   4.164   8.347   5.140  0.8833 -0.0540 -0.2901
 6745SOL     OW31453   8.277   5.845   3.602  0.0417  0.3405 -0.3987
 6745SOL    HW131454   8.213   5.897   3.546 -0.6155 -1.3920 -1.2707
 6745SOL    HW231455   8.312   5.768   3.550  2.9573  1.3186  0.0098
 6746SOL     OW31456   8.273   2.799   1.675  0.7045  0.3053 -0.2861
 6746SOL    HW131457   8.324   2.861   1.734  0.0805 -0.5301  1.1561
 6746SOL    HW231458   8.336   2.749   1.615  1.4015  0.6236  0.1826
 6747SOL     OW31459   6.021   9.147   5.484 -0.0467 -0.5410  0.0570
 6747SOL    HW131460   5.987   9.055   5.502  0.0667 -0.9037 -1.4885
 6747SOL    HW231461   6.111   9.142   5.442  0.6487  0.3398  1.4059
 6748SOL     OW31462   8.936   4.380   0.385 -0.1898 -0.5993  0.0815
 6748SOL    HW131463   8.882   4.435   0.321  0.3246 -1.4626 -1.1202
 6748SOL    HW231464   9.030   4.413   0.386 -0.2528 -0.4341  0.5778
 6749SOL     OW31465   6.767   1.170   5.294 -0.2856 -0.2475 -0.4230
 6749SOL    HW131466   6.801   1.227   5.220 -1.1322 -0.1150 -0.7252
 6749SOL    HW231467   6.769   1.074   5.266  0.5874 -0.3141 -0.1360
 6750SOL     OW31468   3.089   1.855   2.441 -0.2656 -0.1775 -0.2039
 6750SOL    HW131469   3.051   1.767   2.469  2.1983 -0.7660  1.4667
 6750SOL    HW231470   3.172   1.840   2.388 -0.5060  1.1526 -0.9900
 6751SOL     OW31471   9.539   3.990   1.842  0.1520 -0.3678  0.0948
 6751SOL    HW131472   9.636   3.966   1.840  0.3003  0.0979  1.2495
 6751SOL    HW231473   9.516   4.041   1.759  0.9461 -0.2995 -0.0924
 6752SOL     OW31474   9.763   9.377   4.603  0.6267  0.3497 -0.0505
 6752SOL    HW131475   9.758   9.438   4.681  1.5564 -0.7205  0.8673
 6752SOL    HW231476   9.678   9.380   4.551  0.2657  1.5753  0.6176
 6753SOL     OW31477   3.618   1.169   4.837  0.4423 -0.4224 -0.2020
 6753SOL    HW131478   3.647   1.079   4.805  2.0946 -0.0853  0.2684
 6753SOL    HW231479   3.634   1.237   4.765  0.0063 -0.3744 -0.2520
 6754SOL     OW31480   8.806   6.063   1.430 -0.4130 -0.0234 -0.2562
 6754SOL    HW131481   8.773   5.972   1.455 -0.2015  0.2762  1.2008
 6754SOL    HW231482   8.869   6.057   1.353 -2.8924 -0.7487 -2.3003
 6755SOL     OW31483   3.594   3.910   0.827 -0.0747  0.0384 -0.0805
 6755SOL    HW131484   3.607   4.007   0.809  1.5515 -0.1249  0.1488
 6755SOL    HW231485   3.564   3.897   0.922  2.3645  0.1552  0.7407
 6756SOL     OW31486   2.498   6.586   0.165  0.3880  0.0900 -0.1380
 6756SOL    HW131487   2.507   6.505   0.224  1.0101 -0.6822 -1.2742
 6756SOL    HW231488   2.535   6.666   0.213  2.4376 -0.8405 -0.1096
 6757SOL     OW31489   0.006   4.322   5.206 -0.0427 -0.3930  0.7260
 6757SOL    HW131490  -0.071   4.383   5.228  0.8535  0.5701  1.2341
 6757SOL    HW231491   0.092   4.367   5.228  0.7010 -1.3083 -0.2336
 6758SOL     OW31492   8.566   9.460   5.814 -0.2570 -0.5537  0.3298
 6758SOL    HW131493   8.474   9.470   5.853  0.2164 -1.5849  1.7486
 6758SOL    HW231494   8.580   9.364   5.787 -1.1842  0.4389 -3.9881
 6759SOL     OW31495   8.258   5.513   4.090  0.3332  0.2542 -0.1493
 6759SOL    HW131496   8.204   5.597   4.081  0.7229  0.5264  0.0315
 6759SOL    HW231497   8.295   5.507   4.183 -0.0799 -0.3547 -0.0203
 6760SOL     OW31498   4.638   0.510   2.265 -0.7043 -0.6175  0.4442
 6760SOL    HW131499   4.583   0.561   2.331 -0.7761 -1.1290  0.7811
 6760SOL    HW231500   4.616   0.541   2.172 -0.0449  0.6451  0.6932
 6761SOL     OW31501   3.868   5.058   3.799  0.4713  0.4358  0.1980
 6761SOL    HW131502   3.849   5.032   3.893  3.2171 -1.4775  0.2882
 6761SOL    HW231503   3.950   5.115   3.796  1.5909 -1.1789 -1.1666
 6762SOL     OW31504   5.328   0.619   4.175  0.2194 -0.9104 -0.3192
 6762SOL    HW131505   5.265   0.684   4.133  0.3259  0.2842  1.3539
 6762SOL    HW231506   5.357   0.653   4.264  0.8873 -2.8883  0.2372
 6763SOL     OW31507   1.489   9.187   4.092  0.1911  0.4623 -0.0474
 6763SOL    HW131508   1.511   9.172   3.996 -0.7797  0.1597 -0.2314
 6763SOL    HW231509   1.563   9.154   4.150  0.3584 -0.2258 -0.6576
 6764SOL     OW31510   6.718   2.989   1.996  0.0781  0.1091  0.3795
 6764SOL    HW131511   6.801   2.953   2.039  1.4089  1.4931 -0.9648
 6764SOL    HW231512   6.711   3.087   2.015 -0.3732  0.3272 -0.8786
 6765SOL     OW31513   7.642   0.513   6.010 -0.4097  0.1848  0.1583
 6765SOL    HW131514   7.728   0.462   6.004 -0.2742  0.2463  1.5004
 6765SOL    HW231515   7.651   0.600   5.960 -0.0004 -0.2092 -0.4643
 6766SOL     OW31516   0.652   7.314   2.154 -0.1816 -0.1908  0.0983
 6766SOL    HW131517   0.603   7.376   2.215  0.5613  1.3709 -0.8533
 6766SOL    HW231518   0.750   7.334   2.158  0.3295 -2.7762  1.4135
 6767SOL     OW31519   8.537   8.134   3.238 -0.7638  0.5726 -0.5681
 6767SOL    HW131520   8.587   8.220   3.246 -0.8758  0.5997 -0.1391
 6767SOL    HW231521   8.580   8.077   3.167 -0.3516  0.7465 -0.4604
 6768SOL     OW31522   7.568   2.455   1.068 -0.8655  0.1551 -0.6907
 6768SOL    HW131523   7.581   2.374   1.012  0.2345  0.2397 -0.5721
 6768SOL    HW231524   7.599   2.437   1.161 -1.1945  0.5166 -0.5076
 6769SOL     OW31525   3.112   5.215   0.273 -0.2835  0.1088 -0.0025
 6769SOL    HW131526   3.055   5.150   0.223 -1.6044  1.0006  0.3371
 6769SOL    HW231527   3.181   5.253   0.211 -0.9526  0.0785 -0.7725
 6770SOL     OW31528   8.555   9.036   6.026 -0.7507  0.5067 -0.4624
 6770SOL    HW131529   8.497   9.056   6.105 -0.7849 -1.3590  0.0078
 6770SOL    HW231530   8.648   9.066   6.045 -1.1729  1.8500 -0.4955
 6771SOL     OW31531   9.906   1.573   3.737 -0.4043 -0.6606 -0.1716
 6771SOL    HW131532   9.943   1.481   3.726 -1.2389 -0.8062 -1.8317
 6771SOL    HW231533   9.961   1.638   3.683  0.5761 -0.0643  1.4967
 6772SOL     OW31534   3.920   0.117   5.593  0.1162  0.0844  0.4752
 6772SOL    HW131535   3.923   0.211   5.560  0.3158  0.5433  1.7451
 6772SOL    HW231536   3.826   0.085   5.598  0.1115 -0.0996 -0.8308
 6773SOL     OW31537   4.511   1.077   3.258  0.2238 -0.1052 -0.1122
 6773SOL    HW131538   4.561   1.130   3.327  0.3591  0.3619 -0.5669
 6773SOL    HW231539   4.497   0.984   3.292  0.5816  0.0253  0.4101
 6774SOL     OW31540   1.771   1.802   0.169 -0.4050  0.4057  0.2679
 6774SOL    HW131541   1.709   1.877   0.190  0.7286  1.2371  0.7548
 6774SOL    HW231542   1.859   1.840   0.140  0.7253 -0.7165  2.1208
 6775SOL     OW31543   4.725   1.658   5.356  0.3380  0.4379 -0.3724
 6775SOL    HW131544   4.768   1.580   5.309  2.0389  1.7882 -1.1102
 6775SOL    HW231545   4.626   1.648   5.353  0.5312 -1.4781 -0.8575
 6776SOL     OW31546   2.082   7.497   6.237  0.6383  0.3766 -0.0836
 6776SOL    HW131547   2.110   7.592   6.224  0.9928  0.3990  0.8447
 6776SOL    HW231548   1.989   7.484   6.201  1.1451  0.7105 -1.5695
 6777SOL     OW31549   1.307   5.743   2.480  0.3491 -0.4585  0.1307
 6777SOL    HW131550   1.280   5.830   2.521  0.0580 -1.1643  1.4779
 6777SOL    HW231551   1.340   5.681   2.552 -0.1183 -1.7076 -0.7080
 6778SOL     OW31552   7.552   0.007   2.069 -0.8087 -0.7527 -0.0397
 6778SOL    HW131553   7.499   0.089   2.090 -1.3386 -1.1230  0.0911
 6778SOL    HW231554   7.630   0.000   2.131  0.1694  0.5132 -1.1156
 6779SOL     OW31555   1.170   3.149   6.067  0.5240  0.7239 -0.2350
 6779SOL    HW131556   1.255   3.183   6.108  0.9206  1.1616 -1.3998
 6779SOL    HW231557   1.180   3.052   6.044  0.6274  0.7112 -0.1331
 6780SOL     OW31558   3.054   1.974   1.923  0.5131  0.1441  0.0404
 6780SOL    HW131559   3.150   1.996   1.903  0.6928 -0.9391 -0.3303
 6780SOL    HW231560   3.031   2.007   2.015  0.5588  2.4656 -0.7376
 6781SOL     OW31561   0.907   9.239   3.090  0.7164 -0.1445  0.9030
 6781SOL    HW131562   0.967   9.297   3.034  0.6437 -0.0190  0.9542
 6781SOL    HW231563   0.955   9.155   3.115 -0.6042 -2.0654 -2.6883
 6782SOL     OW31564   1.427   6.860   1.583  0.1090 -0.0180 -0.2877
 6782SOL    HW131565   1.327   6.861   1.580 -0.0942 -0.4903  3.4447
 6782SOL    HW231566   1.458   6.766   1.600  1.1200  0.3002 -0.3732
 6783SOL     OW31567   2.185   9.803   1.840  0.0463  0.5336 -0.0607
 6783SOL    HW131568   2.113   9.787   1.772 -0.5019 -0.6071  0.7769
 6783SOL    HW231569   2.146   9.797   1.932  1.6135 -2.3468  0.4628
 6784SOL     OW31570   9.825   7.837   3.692 -0.0132  0.1701 -0.3302
 6784SOL    HW131571   9.727   7.860   3.689 -0.6200 -2.2054  0.1885
 6784SOL    HW231572   9.878   7.912   3.652 -1.9969  1.7286 -0.1209
 6785SOL     OW31573   2.728   3.086   5.903 -0.2554  0.1439  0.1164
 6785SOL    HW131574   2.721   3.002   5.957 -1.2715 -0.2095 -0.5506
 6785SOL    HW231575   2.803   3.077   5.837  0.9977  0.5788  1.4276
 6786SOL     OW31576   6.241   1.929   2.488  0.0100  0.0681  0.7273
 6786SOL    HW131577   6.305   1.866   2.533  1.5659  0.7315 -0.5062
 6786SOL    HW231578   6.263   2.023   2.515  0.3374  0.3969 -0.6326
 6787SOL     OW31579   1.116   9.088   3.218 -0.3981 -0.1386 -0.3732
 6787SOL    HW131580   1.193   9.128   3.168 -0.3774  1.3517  0.8134
 6787SOL    HW231581   1.148   9.010   3.272  0.7292  1.6492  1.6449
 6788SOL     OW31582   0.902   2.632   3.634 -0.7695  0.5569  0.1115
 6788SOL    HW131583   0.984   2.575   3.633  0.1704  1.8402  1.0567
 6788SOL    HW231584   0.829   2.586   3.684 -0.5145 -0.4379 -0.4242
 6789SOL     OW31585   2.099   7.059   3.684 -0.2487 -0.3618  0.2880
 6789SOL    HW131586   2.047   6.974   3.686 -0.5811 -0.2119 -1.3352
 6789SOL    HW231587   2.136   7.074   3.593 -1.3546  1.9215  0.1656
 6790SOL     OW31588   8.573   8.076   0.646 -0.2905 -0.3268  0.0482
 6790SOL    HW131589   8.555   8.147   0.715  0.2151  0.3882 -0.5549
 6790SOL    HW231590   8.661   8.033   0.665 -0.4804 -0.6287  0.2636
 6791SOL     OW31591   2.451   5.797   5.322  0.3071 -0.0964 -0.3892
 6791SOL    HW131592   2.546   5.805   5.353  0.3487  0.5861 -0.6830
 6791SOL    HW231593   2.401   5.880   5.348 -0.4811 -0.8901  0.6876
 6792SOL     OW31594   3.587   0.890   2.088 -0.0202  0.1803  0.3665
 6792SOL    HW131595   3.645   0.898   2.007  0.0104 -0.4752  0.3171
 6792SOL    HW231596   3.606   0.965   2.151  2.3995 -1.2126  1.3256
 6793SOL     OW31597   7.973   1.226   1.510  0.3724  0.6924  0.0304
 6793SOL    HW131598   7.929   1.314   1.492 -1.0393  1.0915  4.6476
 6793SOL    HW231599   7.903   1.158   1.533  1.7844 -0.1024  2.1050
 6794SOL     OW31600   9.886   1.841   4.727  0.3429  0.4723 -0.1457
 6794SOL    HW131601   9.795   1.884   4.726  0.4813  0.7671 -2.0981
 6794SOL    HW231602   9.951   1.902   4.682  1.1307 -0.5414 -0.3899
 6795SOL     OW31603   2.289   0.552   2.835 -0.2202 -0.9866  0.0010
 6795SOL    HW131604   2.228   0.564   2.757  0.8070 -0.6298 -0.7552
 6795SOL    HW231605   2.268   0.621   2.904  0.6528  0.4379 -1.1254
 6796SOL     OW31606   5.804   9.720   6.299  0.0954  0.6184  0.2921
 6796SOL    HW131607   5.850   9.703   6.387 -0.7996 -0.2100  0.6039
 6796SOL    HW231608   5.872   9.742   6.230  0.9376 -0.2502  0.8340
 6797SOL     OW31609   6.572   5.159   0.801  0.7444 -0.5891 -0.1423
 6797SOL    HW131610   6.621   5.210   0.871  0.5787 -0.2311 -0.2879
 6797SOL    HW231611   6.543   5.221   0.728  0.2508 -0.8327 -0.1555
 6798SOL     OW31612   1.266   3.208   3.342  0.4960 -0.6069  0.0147
 6798SOL    HW131613   1.268   3.114   3.375  1.0444  0.0435  1.9284
 6798SOL    HW231614   1.356   3.233   3.307  1.4350  0.3302  2.9314
 6799SOL     OW31615   1.636   8.889   5.627 -0.4292 -0.7780 -0.3769
 6799SOL    HW131616   1.640   8.958   5.699 -2.0566  0.5804 -1.5622
 6799SOL    HW231617   1.643   8.798   5.668  2.0942  0.0747  1.1577
 6800SOL     OW31618   8.906   4.409   2.862 -0.1708 -0.2271  0.1555
 6800SOL    HW131619   8.941   4.326   2.905  1.0277 -0.3284 -0.9936
 6800SOL    HW231620   8.811   4.394   2.832  0.3552 -1.4844 -0.8945
 6801SOL     OW31621   4.391   9.084   1.237  0.4303  0.2431 -0.4177
 6801SOL    HW131622   4.429   9.166   1.195  0.5127  0.6516  0.4363
 6801SOL    HW231623   4.300   9.104   1.274  1.1308  0.4082  1.2478
 6802SOL     OW31624   4.634   0.535   0.935 -0.0289  0.1803  0.4237
 6802SOL    HW131625   4.702   0.606   0.948 -1.1030  1.2100  0.5591
 6802SOL    HW231626   4.679   0.446   0.924  1.4026  1.1053 -1.3914
 6803SOL     OW31627   4.763   6.030   3.429 -0.4816 -0.2488 -0.1101
 6803SOL    HW131628   4.668   6.042   3.458  0.1265  1.9572  1.0975
 6803SOL    HW231629   4.796   6.116   3.388  1.9376  0.0681  2.3661
 6804SOL     OW31630   6.399   3.032   0.819 -0.5805 -0.0527  1.2424
 6804SOL    HW131631   6.457   3.111   0.842  0.6735 -0.0145 -1.8038
 6804SOL    HW231632   6.307   3.064   0.797  0.2348  0.7424 -1.1501
 6805SOL     OW31633   9.914   8.825   2.775  0.3190  0.5377 -0.2604
 6805SOL    HW131634   9.906   8.840   2.677  1.0320 -0.4654 -0.4787
 6805SOL    HW231635   9.852   8.888   2.824 -0.4651  0.6352 -1.3651
 6806SOL     OW31636   3.592   9.999   1.808  0.3510  0.2432 -0.2758
 6806SOL    HW131637   3.561   9.985   1.714 -0.3104 -2.2457  0.2869
 6806SOL    HW231638   3.527  10.057   1.857 -0.4532 -0.2926 -0.7155
 6807SOL     OW31639   3.923   3.210   0.321  0.5134 -0.2810 -0.0236
 6807SOL    HW131640   3.829   3.188   0.347  0.3629  3.0027  2.5846
 6807SOL    HW231641   3.923   3.264   0.238 -0.0199  0.8651  0.7146
 6808SOL     OW31642   2.851   6.312   4.203 -0.4917 -0.1135  0.2531
 6808SOL    HW131643   2.839   6.240   4.271 -0.0398  1.0147  1.5636
 6808SOL    HW231644   2.948   6.335   4.194 -0.2820 -1.8245 -2.4768
 6809SOL     OW31645   7.347   3.267   0.343  0.1512  0.3511  0.4535
 6809SOL    HW131646   7.376   3.338   0.407  1.0067  0.2321  0.1969
 6809SOL    HW231647   7.257   3.290   0.306  0.4084  1.2694  0.4004
 6810SOL     OW31648   5.061   1.916   5.138 -0.8782 -0.4799 -0.3100
 6810SOL    HW131649   5.010   1.839   5.102 -0.4971 -0.6760 -0.4348
 6810SOL    HW231650   5.154   1.887   5.161 -0.0814  0.3949 -2.2776
 6811SOL     OW31651   4.608   3.796   5.785 -0.2937 -0.8151  0.2075
 6811SOL    HW131652   4.610   3.894   5.805  1.9489 -0.5849 -0.9695
 6811SOL    HW231653   4.539   3.778   5.714  0.5681  0.1883 -0.9036
 6812SOL     OW31654   9.297   8.118   1.983 -0.3066  0.1078 -0.2784
 6812SOL    HW131655   9.310   8.019   1.991 -0.3813  0.0706 -0.5876
 6812SOL    HW231656   9.333   8.149   1.895  0.9166  0.5640  0.3648
 6813SOL     OW31657   4.156   6.647   1.397  0.1229 -0.6073  0.4204
 6813SOL    HW131658   4.113   6.561   1.369  0.0066 -0.7139  0.9044
 6813SOL    HW231659   4.159   6.710   1.320  1.8411 -1.7021 -0.4378
 6814SOL     OW31660   9.138   1.696   4.082  0.5397  0.0321 -0.0847
 6814SOL    HW131661   9.160   1.620   4.021  3.5527  1.4526 -0.8694
 6814SOL    HW231662   9.147   1.666   4.177  0.6095 -0.8953 -0.3813
 6815SOL     OW31663   6.587   1.015   0.292  0.0020  0.0130 -0.0623
 6815SOL    HW131664   6.651   0.939   0.287 -0.8649 -0.7466  0.2830
 6815SOL    HW231665   6.554   1.037   0.200  0.8646  0.5070 -0.2592
 6816SOL     OW31666   7.713   6.270   0.767  0.1405 -0.5149 -0.0163
 6816SOL    HW131667   7.782   6.292   0.699  0.6014 -0.4285  0.4778
 6816SOL    HW231668   7.732   6.180   0.807 -2.2788 -2.3141 -2.7235
 6817SOL     OW31669   1.980   7.278   5.988 -0.7609 -0.0341  0.9248
 6817SOL    HW131670   1.939   7.189   5.966 -0.3255 -0.2823  1.1115
 6817SOL    HW231671   1.927   7.321   6.061 -1.1088 -0.0350  0.6780
 6818SOL     OW31672   8.500   5.673   3.114 -0.0130  0.0728  0.7493
 6818SOL    HW131673   8.518   5.589   3.164  3.2378 -0.3355 -0.9652
 6818SOL    HW231674   8.516   5.752   3.174  2.0704 -0.4479  0.9188
 6819SOL     OW31675   0.262   9.674   1.972  0.2188  0.1330 -0.1236
 6819SOL    HW131676   0.196   9.598   1.978  0.7562 -0.2430  1.3223
 6819SOL    HW231677   0.239   9.743   2.040  0.1338  0.9580 -0.9845
 6820SOL     OW31678   0.413   2.449   4.111 -0.0446 -0.4740  0.2804
 6820SOL    HW131679   0.440   2.437   4.016 -2.0558 -1.7651 -0.1521
 6820SOL    HW231680   0.348   2.525   4.118 -1.4232 -1.6383  0.3097
 6821SOL     OW31681   4.309   8.896   5.817  0.1308 -0.6007  0.3292
 6821SOL    HW131682   4.337   8.819   5.876 -0.1886 -0.3842  0.7685
 6821SOL    HW231683   4.389   8.931   5.768  0.0944 -1.9213 -0.7213
 6822SOL     OW31684   8.173   4.664   2.522  0.0230 -0.2177 -0.1184
 6822SOL    HW131685   8.260   4.683   2.568  1.2601 -1.6287 -1.7564
 6822SOL    HW231686   8.189   4.597   2.449 -1.8414  1.9506 -2.5987
 6823SOL     OW31687   2.183   9.963   4.494 -0.2222  1.0365 -0.3553
 6823SOL    HW131688   2.232   9.884   4.456 -0.2334  1.2035 -0.7201
 6823SOL    HW231689   2.096   9.932   4.533  0.6305  0.5775  1.2320
 6824SOL     OW31690   1.058   4.988   3.534 -0.1399  1.0332  0.2308
 6824SOL    HW131691   0.992   4.981   3.609  1.5353 -0.0780  1.6504
 6824SOL    HW231692   1.084   5.083   3.522 -2.1873  1.5253 -0.5331
 6825SOL     OW31693   8.076   4.407   2.826 -0.3497 -0.0257 -0.5180
 6825SOL    HW131694   8.044   4.450   2.742 -0.4246  0.1167 -0.4173
 6825SOL    HW231695   8.170   4.374   2.813 -0.7581 -1.0143 -1.0169
 6826SOL     OW31696   9.501   4.628   1.273  0.5875 -0.2076 -0.1333
 6826SOL    HW131697   9.477   4.618   1.176 -1.2747  0.2773  0.2676
 6826SOL    HW231698   9.562   4.707   1.284  0.5369 -0.0648 -0.8507
 6827SOL     OW31699   8.058   7.821   3.889 -0.3618 -0.0749 -0.0806
 6827SOL    HW131700   7.975   7.859   3.930  0.0160  1.6451 -0.8649
 6827SOL    HW231701   8.116   7.784   3.961 -0.9821  0.3745  0.6635
 6828SOL     OW31702   6.413   9.858   4.250  0.1860  0.3903 -0.3329
 6828SOL    HW131703   6.427   9.764   4.216  0.3891  0.3727 -0.1991
 6828SOL    HW231704   6.375   9.914   4.176 -1.2987 -0.1469 -0.0114
 6829SOL     OW31705   9.255   1.099   0.962 -0.0890 -0.2317 -0.1300
 6829SOL    HW131706   9.226   1.111   0.867 -2.0595 -2.7169  0.0927
 6829SOL    HW231707   9.210   1.168   1.019 -2.1960 -1.3033 -0.4381
 6830SOL     OW31708   2.848   9.273   5.704  0.2043 -0.4822  0.0495
 6830SOL    HW131709   2.790   9.352   5.686 -0.8214 -1.4161 -0.8401
 6830SOL    HW231710   2.874   9.230   5.618  1.3449 -0.6995  0.4917
 6831SOL     OW31711   2.924   3.900   1.065 -0.4090  0.3716  0.2228
 6831SOL    HW131712   2.878   3.855   1.141 -1.9702  0.2630 -0.7582
 6831SOL    HW231713   2.898   3.855   0.979 -2.6751  3.6073 -0.8927
 6832SOL     OW31714   0.573   8.627   0.988 -0.6176 -0.2522 -0.0603
 6832SOL    HW131715   0.520   8.551   0.951 -2.0846  1.9570 -2.6554
 6832SOL    HW231716   0.644   8.653   0.922 -0.3919  0.8919  0.6173
 6833SOL     OW31717   4.553   1.720   6.520  0.0854 -0.7558  0.2925
 6833SOL    HW131718   4.576   1.716   6.423  0.6200 -0.0454  0.3942
 6833SOL    HW231719   4.629   1.684   6.574 -0.6151 -2.1342  0.3998
 6834SOL     OW31720   5.677   9.647   5.736  0.2484 -0.0302 -0.4140
 6834SOL    HW131721   5.607   9.681   5.674  0.0739  1.4320  0.5586
 6834SOL    HW231722   5.715   9.562   5.700 -1.5888 -0.5184 -1.2513
 6835SOL     OW31723   8.455   6.108   3.604  0.4105 -0.1082  0.2838
 6835SOL    HW131724   8.496   6.035   3.658 -1.5949 -0.1636  1.7687
 6835SOL    HW231725   8.421   6.180   3.665  2.1394  2.0031 -1.1216
 6836SOL     OW31726   3.317   7.911   0.804  0.1241  0.3289 -0.0957
 6836SOL    HW131727   3.391   7.962   0.847  0.0714  0.5768 -0.2934
 6836SOL    HW231728   3.259   7.974   0.753 -0.3464  0.1614  0.2358
 6837SOL     OW31729   7.917   5.221   1.096  0.5383 -0.1573 -0.0431
 6837SOL    HW131730   7.981   5.297   1.112  0.9228 -0.2830 -0.9757
 6837SOL    HW231731   7.957   5.137   1.132  1.5839 -0.5118 -1.9826
 6838SOL     OW31732   9.779   7.186   3.505  0.0009 -0.3891 -0.1439
 6838SOL    HW131733   9.696   7.233   3.534  0.7343  1.1268 -0.4434
 6838SOL    HW231734   9.837   7.169   3.584 -0.5774 -1.4466  0.0652
 6839SOL     OW31735   4.482   3.279   1.023 -0.6712 -0.0726 -0.7783
 6839SOL    HW131736   4.468   3.374   0.994 -0.9160  0.3106  0.5324
 6839SOL    HW231737   4.569   3.272   1.072 -1.1784 -0.2828  0.1038
 6840SOL     OW31738   3.168   2.705   2.221 -0.2226 -0.2901  0.5058
 6840SOL    HW131739   3.086   2.759   2.205 -0.0407 -0.5135 -1.2469
 6840SOL    HW231740   3.198   2.663   2.136  1.5174 -0.4906  1.1909
 6841SOL     OW31741   9.298   8.046   2.986 -0.1486 -0.1292 -0.2304
 6841SOL    HW131742   9.380   8.058   3.042  0.9101  0.1950 -1.8120
 6841SOL    HW231743   9.216   8.051   3.044  0.8298  1.9110  1.0394
 6842SOL     OW31744   8.646   3.775   0.780  0.0051 -0.1294 -0.4028
 6842SOL    HW131745   8.564   3.832   0.775  0.4581  0.6284  0.6665
 6842SOL    HW231746   8.727   3.833   0.775  0.4828 -0.8822 -1.5308
 6843SOL     OW31747   8.361   2.213   4.368 -0.4214  0.2011 -0.3138
 6843SOL    HW131748   8.279   2.201   4.312 -0.7741  3.4828 -0.6336
 6843SOL    HW231749   8.432   2.259   4.315  1.2941 -1.6793  0.2838
 6844SOL     OW31750   4.081   9.933   0.343 -0.1082  0.1403  0.4522
 6844SOL    HW131751   4.064   9.835   0.356  0.6616 -0.2295 -1.2059
 6844SOL    HW231752   4.159   9.960   0.400 -0.0661 -0.2962  0.6065
 6845SOL     OW31753   0.665   8.872   1.442  0.2575 -0.0380  0.4168
 6845SOL    HW131754   0.651   8.773   1.444  1.2920 -0.1708  2.0723
 6845SOL    HW231755   0.618   8.914   1.520  0.2467  0.7094  0.0102
 6846SOL     OW31756   8.045   4.680   2.058 -0.1429  0.2058 -0.2970
 6846SOL    HW131757   8.079   4.773   2.072  1.6945 -0.6300  1.1150
 6846SOL    HW231758   8.043   4.633   2.146  0.3868 -1.5553 -1.2138
 6847SOL     OW31759   8.093   6.679   2.070  0.8963 -0.3675 -0.7176
 6847SOL    HW131760   8.105   6.679   1.970 -0.5027  0.2938 -0.8935
 6847SOL    HW231761   7.996   6.681   2.092  1.2158  1.8560  0.6514
 6848SOL     OW31762   3.027   2.143   4.043  0.0091 -0.3949 -0.2686
 6848SOL    HW131763   3.061   2.228   4.003  2.1739  0.1722  2.5646
 6848SOL    HW231764   3.071   2.065   3.998  0.6097  0.1370 -0.6082
 6849SOL     OW31765   8.029   3.235   0.459 -0.3733 -0.0988 -0.0638
 6849SOL    HW131766   8.056   3.139   0.470  0.0094  0.0862  0.6850
 6849SOL    HW231767   7.972   3.262   0.536 -0.0192  0.4326  0.0142
 6850SOL     OW31768   3.824   5.468   3.390  0.1676  0.0076  0.8643
 6850SOL    HW131769   3.773   5.506   3.467  1.9177  0.9647  1.5815
 6850SOL    HW231770   3.920   5.462   3.414  0.5299 -0.9602 -0.7813
 6851SOL     OW31771   2.044   1.519   3.187  0.6471 -0.1397 -0.2656
 6851SOL    HW131772   2.070   1.555   3.277 -0.0379  0.3996 -0.2759
 6851SOL    HW231773   2.107   1.446   3.160  0.9141 -0.2329  0.6087
 6852SOL     OW31774   1.670   2.313   5.123  0.4117  0.8426  0.2670
 6852SOL    HW131775   1.696   2.219   5.100  0.1068  1.2661 -1.8788
 6852SOL    HW231776   1.611   2.312   5.204 -0.6698 -0.9464 -0.5132
 6853SOL     OW31777   3.369   0.077   5.582 -0.2101 -0.2028 -0.2042
 6853SOL    HW131778   3.339   0.020   5.505 -0.7758 -0.4383  0.1920
 6853SOL    HW231779   3.335   0.170   5.569  0.3724 -0.0451 -0.6436
 6854SOL     OW31780   7.958   0.298   5.423  0.1700  0.2957  0.5075
 6854SOL    HW131781   7.901   0.378   5.407 -2.0617 -1.3267  0.1698
 6854SOL    HW231782   8.005   0.308   5.511  1.4118  2.7944 -0.3799
 6855SOL     OW31783   8.702   1.539   6.600  0.1070  0.5487 -0.2201
 6855SOL    HW131784   8.670   1.562   6.692  0.9936  1.1309 -0.0438
 6855SOL    HW231785   8.776   1.602   6.574  0.4677 -0.1801 -0.9781
 6856SOL     OW31786   1.287   9.845   0.519 -0.0829 -0.0968  0.1835
 6856SOL    HW131787   1.226   9.820   0.445 -0.6623  0.5668  0.4374
 6856SOL    HW231788   1.337   9.928   0.496  0.6874 -0.6042  0.0007
 6857SOL     OW31789   8.619   9.485   5.426  0.0843  0.2135 -0.5257
 6857SOL    HW131790   8.529   9.440   5.416  0.3694 -0.3823 -0.4656
 6857SOL    HW231791   8.690   9.424   5.391  0.4143  0.9016 -1.0448
 6858SOL     OW31792   8.911   0.195   2.916 -0.2345  0.4616  0.6111
 6858SOL    HW131793   8.913   0.271   2.851  0.0175 -1.1629 -1.3079
 6858SOL    HW231794   8.826   0.144   2.906  0.3133 -0.4914  0.7644
 6859SOL     OW31795   3.632   9.392   4.591  0.3194 -0.1064 -0.6818
 6859SOL    HW131796   3.709   9.447   4.561  0.0416  0.8889  0.4224
 6859SOL    HW231797   3.554   9.451   4.612 -0.8275 -1.1083 -1.9867
 6860SOL     OW31798   8.785   2.870   5.677 -0.1815  0.3566  0.1804
 6860SOL    HW131799   8.800   2.792   5.737 -1.0662 -0.0063 -0.0609
 6860SOL    HW231800   8.756   2.949   5.731 -1.2853 -0.0582  0.2137
 6861SOL     OW31801   6.830   0.066   3.507 -0.0732  0.2225 -0.5416
 6861SOL    HW131802   6.880   0.088   3.591 -0.1422 -0.6937 -0.2538
 6861SOL    HW231803   6.739   0.107   3.510  0.0615  0.5090 -0.3441
 6862SOL     OW31804   8.074   9.393   1.128  0.1239 -0.1145 -0.0638
 6862SOL    HW131805   7.983   9.425   1.155 -0.4671 -2.3830  0.7676
 6862SOL    HW231806   8.071   9.355   1.036  0.0992 -0.7604  0.2048
 6863SOL     OW31807   3.473   4.345   5.454  0.2182  0.0935 -0.1610
 6863SOL    HW131808   3.439   4.258   5.418  0.1522 -0.3250  0.8932
 6863SOL    HW231809   3.396   4.407   5.470  0.3384  0.6711 -1.7188
 6864SOL     OW31810   0.857   9.561   2.814 -0.0941  0.4754  0.0026
 6864SOL    HW131811   0.953   9.576   2.839  0.0037 -0.6142  0.2994
 6864SOL    HW231812   0.836   9.615   2.732  0.4528  1.6059  0.5922
 6865SOL     OW31813   4.810   7.424   2.371 -0.1737 -0.5591 -0.1778
 6865SOL    HW131814   4.726   7.399   2.419  0.6180 -0.7287  1.1564
 6865SOL    HW231815   4.794   7.421   2.272 -1.9512  0.1840  0.0589
 6866SOL     OW31816   8.831   2.486   1.630  0.4563 -0.3927  0.7708
 6866SOL    HW131817   8.774   2.419   1.678  0.5787 -1.1391 -0.1111
 6866SOL    HW231818   8.806   2.487   1.533  0.9161  0.3626  0.6585
 6867SOL     OW31819   3.077   7.334   3.748  0.0608 -0.1547  0.1657
 6867SOL    HW131820   3.153   7.324   3.683 -1.4675 -0.6156 -1.5710
 6867SOL    HW231821   3.081   7.260   3.815  2.2894  0.9357  1.3031
 6868SOL     OW31822   3.304   0.032   1.518 -0.1337 -0.2347 -0.1302
 6868SOL    HW131823   3.274   0.104   1.580  0.2460  0.3141 -0.5845
 6868SOL    HW231824   3.229  -0.034   1.505 -0.2902 -0.2215  0.7151
 6869SOL     OW31825   6.830   4.575   0.840 -0.3211  0.2860 -0.3135
 6869SOL    HW131826   6.753   4.547   0.783 -0.5621 -2.2597  1.2237
 6869SOL    HW231827   6.898   4.502   0.844  0.1403  0.8007  1.8983
 6870SOL     OW31828   1.804   2.880   4.442 -0.2906 -0.0763  0.3090
 6870SOL    HW131829   1.898   2.854   4.465  0.3043  0.2850 -1.6290
 6870SOL    HW231830   1.764   2.810   4.384 -0.3391  0.9966 -0.9612
 6871SOL     OW31831   3.836   4.794   7.710  0.4368  0.1905  0.2006
 6871SOL    HW131832   3.926   4.834   7.701  0.2401  0.8921  1.2483
 6871SOL    HW231833   3.813   4.744   7.627  1.2776  1.0321 -0.5461
 6872SOL     OW31834   6.253   7.356   5.770 -0.3727  0.5698 -0.4527
 6872SOL    HW131835   6.327   7.314   5.717  0.1228  0.6164  0.1834
 6872SOL    HW231836   6.250   7.454   5.750  0.0910  0.6630 -0.0879
 6873SOL     OW31837   3.661   4.339   0.012  0.1062  0.8095  0.4494
 6873SOL    HW131838   3.577   4.365   0.059 -1.0579  1.6888 -2.0542
 6873SOL    HW231839   3.718   4.419  -0.002  0.5281  0.5216  0.5066
 6874SOL     OW31840   0.445   1.310   0.838  0.1679  0.0187  0.1750
 6874SOL    HW131841   0.383   1.349   0.770 -1.5194 -2.5313  0.1934
 6874SOL    HW231842   0.430   1.354   0.926  1.3563  2.3262 -0.7301
 6875SOL     OW31843   0.494   6.299   6.060  0.4107 -0.7760 -0.3318
 6875SOL    HW131844   0.552   6.356   6.002  2.8988 -2.0779  0.8261
 6875SOL    HW231845   0.406   6.345   6.073  1.5156  1.7264 -1.2672
 6876SOL     OW31846   0.284   4.099   5.166  0.3204 -0.0529  0.0870
 6876SOL    HW131847   0.359   4.046   5.205  0.5373 -1.0372 -1.6021
 6876SOL    HW231848   0.232   4.143   5.239  1.4911 -0.7811  1.3758
 6877SOL     OW31849   2.664   6.256   5.653  0.8720 -0.3988 -0.1715
 6877SOL    HW131850   2.631   6.312   5.577  0.3295  0.6495  0.8307
 6877SOL    HW231851   2.672   6.160   5.623 -1.3770 -0.3631 -0.9283
 6878SOL     OW31852   8.758   3.955   4.931 -0.2748  0.1568 -0.6037
 6878SOL    HW131853   8.727   4.027   4.870 -0.4988  1.0701  0.5581
 6878SOL    HW231854   8.730   3.866   4.896 -1.0691  0.7253 -1.4197
 6879SOL     OW31855   3.395   9.514   5.015 -0.1559 -0.7627 -0.2344
 6879SOL    HW131856   3.468   9.523   4.946 -0.6515  1.5790 -0.4938
 6879SOL    HW231857   3.314   9.473   4.973 -0.5245  0.8489 -1.1115
 6880SOL     OW31858   2.678   4.098   5.703 -0.3810 -0.0997  0.2559
 6880SOL    HW131859   2.743   4.027   5.677 -1.3976 -0.9457 -0.0162
 6880SOL    HW231860   2.587   4.057   5.715 -0.6314  0.8756  1.7320
 6881SOL     OW31861   4.364   1.002   1.648 -0.3056 -0.2324 -0.0102
 6881SOL    HW131862   4.405   0.912   1.636  1.0941  0.4517 -0.3661
 6881SOL    HW231863   4.418   1.071   1.601 -1.6927  0.7303 -0.2437
 6882SOL     OW31864   6.462   0.982   5.560 -0.0170  0.0651  0.4268
 6882SOL    HW131865   6.408   0.902   5.537  1.4779 -0.6466 -0.6910
 6882SOL    HW231866   6.546   0.983   5.506 -0.0152  2.3995  0.3965
 6883SOL     OW31867   2.391   9.966   4.917 -0.1319  0.2926  0.1306
 6883SOL    HW131868   2.389  10.017   5.003  1.2951  0.2851  0.1829
 6883SOL    HW231869   2.356  10.023   4.844 -2.2481 -0.0172  0.8551
 6884SOL     OW31870   0.175   7.176   5.425 -0.6386  0.2679  0.2035
 6884SOL    HW131871   0.232   7.217   5.495  1.8016 -0.6001 -1.2227
 6884SOL    HW231872   0.126   7.097   5.463  1.0666 -0.5132  0.8032
 6885SOL     OW31873   1.469   3.633   3.298 -0.2180  0.3175  0.2398
 6885SOL    HW131874   1.485   3.688   3.216  2.0631 -0.7495 -0.0742
 6885SOL    HW231875   1.384   3.581   3.287  0.2876 -0.1377 -1.6349
 6886SOL     OW31876   1.254   2.384   3.912  0.4115 -0.4371 -0.0561
 6886SOL    HW131877   1.328   2.439   3.950 -0.3924  0.1918  0.6182
 6886SOL    HW231878   1.236   2.412   3.818  0.6286 -0.1986 -0.0258
 6887SOL     OW31879   3.722   3.716   0.082 -0.5535 -0.4200 -0.1874
 6887SOL    HW131880   3.735   3.815   0.086 -2.1276 -0.1223 -1.9185
 6887SOL    HW231881   3.808   3.672   0.054 -1.0012  0.8356 -3.7554
 6888SOL     OW31882   2.352   3.985   4.749 -0.0217  0.1690  0.2937
 6888SOL    HW131883   2.305   4.008   4.664  0.3849  0.6569  0.1959
 6888SOL    HW231884   2.286   3.949   4.815 -0.7257  1.8368  0.5270
 6889SOL     OW31885   8.203   3.558   5.646  0.2168 -0.5450 -0.2212
 6889SOL    HW131886   8.273   3.489   5.662  1.8282  0.9608 -0.6252
 6889SOL    HW231887   8.146   3.568   5.728  1.9149 -0.1853  0.9370
 6890SOL     OW31888   8.785   5.110   4.207 -0.1457  0.1722  0.4821
 6890SOL    HW131889   8.817   5.200   4.237  1.6185 -0.4527  0.5666
 6890SOL    HW231890   8.717   5.075   4.271 -0.7702  1.4126  0.4889
 6891SOL     OW31891   6.862   7.908   6.840 -0.3526  0.6321  0.4555
 6891SOL    HW131892   6.867   8.008   6.836 -2.0029  0.7109  0.2434
 6891SOL    HW231893   6.824   7.879   6.928  1.8027  0.1072  1.2524
 6892SOL     OW31894   5.354   8.190   6.088 -0.1611 -0.1328 -0.0075
 6892SOL    HW131895   5.342   8.242   6.003 -2.2608  0.7468  0.7910
 6892SOL    HW231896   5.344   8.092   6.069  0.0014  0.0114 -0.8728
 6893SOL     OW31897   8.305   9.833   5.211  0.5934  0.0032 -0.0706
 6893SOL    HW131898   8.275   9.749   5.167  1.0531 -0.9790  1.4517
 6893SOL    HW231899   8.405   9.832   5.221  0.5299  0.3762  0.6505
 6894SOL     OW31900   2.239   4.403   3.777 -0.4371  0.7178 -0.2269
 6894SOL    HW131901   2.338   4.401   3.767 -0.5227 -0.6609 -0.8906
 6894SOL    HW231902   2.197   4.366   3.694 -1.4124 -2.5804  1.6476
 6895SOL     OW31903   1.655   3.390   3.803 -0.0945  0.0621  0.2862
 6895SOL    HW131904   1.613   3.473   3.839  0.2763  0.5351 -0.3540
 6895SOL    HW231905   1.754   3.392   3.821  0.0689  0.2300 -0.6013
 6896SOL     OW31906   3.609   0.806   5.912 -0.3850  0.2614 -0.3138
 6896SOL    HW131907   3.580   0.860   5.991 -1.9629 -1.9937  0.7126
 6896SOL    HW231908   3.546   0.821   5.836 -2.0364 -1.6216  0.6334
 6897SOL     OW31909   7.461   9.705   6.696  0.1060 -0.6552 -0.4748
 6897SOL    HW131910   7.474   9.735   6.601 -4.2173  1.4108 -0.5452
 6897SOL    HW231911   7.437   9.783   6.752  1.6196 -2.0394  2.1921
 6898SOL     OW31912   8.687   5.480   2.204  0.0109 -0.4444 -0.0157
 6898SOL    HW131913   8.628   5.420   2.150 -1.0307  1.6281 -1.2199
 6898SOL    HW231914   8.777   5.484   2.162  0.9228 -3.1837  1.5250
 6899SOL     OW31915   3.529   0.345   6.010 -0.6099 -0.2140  0.6399
 6899SOL    HW131916   3.455   0.351   6.077 -2.5408  1.4795 -1.5843
 6899SOL    HW231917   3.530   0.253   5.970 -1.1642 -0.4231  1.0947
 6900SOL     OW31918   1.890   8.423   1.210 -0.3508  0.5663  0.0959
 6900SOL    HW131919   1.947   8.343   1.229 -0.5696 -0.1929 -2.2981
 6900SOL    HW231920   1.812   8.423   1.273  0.2206 -0.5073  0.8376
 6901SOL     OW31921   9.196   1.950   2.011 -0.2804 -0.0732 -0.3057
 6901SOL    HW131922   9.148   1.885   2.070 -0.8990 -0.6325 -1.3908
 6901SOL    HW231923   9.136   2.028   1.992  0.7049  1.1517  1.5319
 6902SOL     OW31924   4.940   3.356   0.028 -0.0619 -0.1926 -0.4487
 6902SOL    HW131925   4.855   3.325   0.070  0.8223 -2.1135 -0.0315
 6902SOL    HW231926   5.010   3.286   0.038  2.1614  2.1444  0.9553
 6903SOL     OW31927   4.064   0.466   4.781 -0.1514  0.1527 -0.0314
 6903SOL    HW131928   4.114   0.551   4.768 -0.6751  0.6714  1.1920
 6903SOL    HW231929   4.105   0.415   4.857  2.4139 -2.4414 -3.0463
 6904SOL     OW31930   2.829   0.086   1.612  0.1160 -0.3614  0.2327
 6904SOL    HW131931   2.779   0.004   1.584  0.3594 -0.3510 -0.2493
 6904SOL    HW231932   2.800   0.164   1.557  2.3884 -0.8590 -1.8107
 6905SOL     OW31933   2.440   2.260   6.133  0.5426 -0.8139  0.1267
 6905SOL    HW131934   2.485   2.289   6.218 -0.6570 -1.6858  1.0684
 6905SOL    HW231935   2.429   2.160   6.134 -0.1319 -0.7487 -0.7232
 6906SOL     OW31936   1.080   9.387   1.771 -0.2514 -0.6929 -0.9771
 6906SOL    HW131937   1.098   9.312   1.836 -0.5678 -1.3353 -1.6212
 6906SOL    HW231938   1.145   9.380   1.695  0.0957  0.0410 -0.7571
 6907SOL     OW31939   2.382   2.364   0.722  0.3729 -0.4037 -0.4593
 6907SOL    HW131940   2.417   2.340   0.632  1.2072  0.2654 -0.3195
 6907SOL    HW231941   2.415   2.455   0.748 -1.6336  0.3394 -0.4056
 6908SOL     OW31942   5.250   1.806   4.852  0.0117 -0.9306 -0.4972
 6908SOL    HW131943   5.210   1.863   4.781 -2.2185  1.0946  2.2703
 6908SOL    HW231944   5.306   1.862   4.913  0.1605 -2.1997  0.5767
 6909SOL     OW31945   2.585   9.778   4.187  0.6215  0.3843  0.1525
 6909SOL    HW131946   2.617   9.825   4.269  0.2549 -2.4313  1.9933
 6909SOL    HW231947   2.631   9.689   4.180 -0.0932  0.1694 -2.1862
 6910SOL     OW31948   5.124   0.849   0.885  0.3583 -0.0779  0.2847
 6910SOL    HW131949   5.223   0.862   0.883  0.4082 -0.5826 -0.9410
 6910SOL    HW231950   5.086   0.895   0.965  1.4144  1.3789 -0.0225
 6911SOL     OW31951   0.275   0.839   2.871 -0.0788 -0.1613 -0.0618
 6911SOL    HW131952   0.285   0.939   2.868  4.1605 -0.5233 -0.8719
 6911SOL    HW231953   0.258   0.804   2.779 -0.4048 -0.2865  0.0455
 6912SOL     OW31954   1.130   0.151   3.344 -0.1029  0.2177 -0.0613
 6912SOL    HW131955   1.064   0.211   3.300  0.1731  0.2146 -0.4825
 6912SOL    HW231956   1.220   0.165   3.303  0.0270 -0.2471  0.0596
 6913SOL     OW31957   2.389   0.357   6.506 -0.1421 -0.4655 -0.1503
 6913SOL    HW131958   2.475   0.340   6.555 -0.5728 -0.5840  0.5722
 6913SOL    HW231959   2.342   0.270   6.492 -0.0178 -0.4323 -0.7912
 6914SOL     OW31960   0.240   9.398   4.364  0.2691 -0.3127 -0.6805
 6914SOL    HW131961   0.184   9.383   4.446 -0.3969 -0.1048 -1.0945
 6914SOL    HW231962   0.327   9.440   4.390  0.3141 -0.8125 -0.0092
 6915SOL     OW31963   9.833   5.796   3.527 -0.3172  0.5403 -0.1340
 6915SOL    HW131964   9.873   5.704   3.518 -1.9585 -0.3154  1.0269
 6915SOL    HW231965   9.897   5.854   3.577  0.1071 -0.4182  0.4704
 6916SOL     OW31966   2.634   6.780   5.864 -0.6066 -0.8115 -0.3691
 6916SOL    HW131967   2.583   6.849   5.814 -1.1654 -0.1028  1.1621
 6916SOL    HW231968   2.700   6.824   5.925  1.2828 -1.6978 -1.6946
 6917SOL     OW31969   9.005   0.064   5.381  0.4557 -0.5993 -0.0567
 6917SOL    HW131970   8.920   0.100   5.344  1.9154  0.2952 -2.7011
 6917SOL    HW231971   9.056   0.138   5.425  0.6108 -0.7838  0.0781
 6918SOL     OW31972   3.951   8.787   1.205  0.5341 -0.3904  0.1837
 6918SOL    HW131973   3.966   8.717   1.136  0.2496 -0.0523 -0.2209
 6918SOL    HW231974   4.005   8.765   1.287  1.0329 -0.6778 -0.2209
 6919SOL     OW31975   9.480   6.718   3.045 -0.3342 -0.1275  0.0367
 6919SOL    HW131976   9.463   6.645   2.979  0.0047 -1.1836  1.0946
 6919SOL    HW231977   9.579   6.730   3.057 -0.3285  2.0507 -1.7926
 6920SOL     OW31978   4.676   2.779   3.375 -0.0444  0.1674  0.4479
 6920SOL    HW131979   4.686   2.840   3.296 -0.8489  0.0706  0.2667
 6920SOL    HW231980   4.763   2.773   3.423  0.3184  0.6357 -0.1367
 6921SOL     OW31981   5.607   1.907   8.158 -0.2793 -0.1728  0.3604
 6921SOL    HW131982   5.654   1.995   8.153 -0.0936 -0.2539  0.6598
 6921SOL    HW231983   5.559   1.900   8.246 -0.2070 -0.4167  0.3809
 6922SOL     OW31984   4.098   7.458   0.951 -0.4043  0.2970 -0.3462
 6922SOL    HW131985   4.029   7.388   0.969 -0.4104  0.5548  0.7008
 6922SOL    HW231986   4.181   7.416   0.915 -0.7694 -0.1259 -0.6911
 6923SOL     OW31987   5.180   2.848   3.971  0.4196 -0.1998 -0.5695
 6923SOL    HW131988   5.089   2.833   3.933  0.4000 -1.5894 -0.0242
 6923SOL    HW231989   5.244   2.874   3.899 -0.2556  0.0634 -1.0690
 6924SOL     OW31990   0.817   8.661   2.051 -0.1520 -0.1796 -0.1625
 6924SOL    HW131991   0.762   8.736   2.088  2.6817  1.3193  1.1769
 6924SOL    HW231992   0.817   8.585   2.116  0.1436  0.1886  0.2677
 6925SOL     OW31993   9.501   4.290   1.367  0.3936 -0.0048 -0.1622
 6925SOL    HW131994   9.415   4.307   1.415 -0.5457  1.3216 -2.2376
 6925SOL    HW231995   9.484   4.283   1.269  2.7451  1.1501 -0.7046
 6926SOL     OW31996   5.232   5.569   7.760 -0.2649 -0.7595 -0.0059
 6926SOL    HW131997   5.197   5.591   7.669  0.0725 -1.3385 -0.2773
 6926SOL    HW231998   5.314   5.512   7.751  1.2425  1.2557  0.5920
 6927SOL     OW31999   0.775   6.321   1.528  0.2763 -0.0940 -0.0331
 6927SOL    HW132000   0.874   6.321   1.539  0.2140 -1.4339  0.5604
 6927SOL    HW232001   0.748   6.248   1.465 -0.3123  0.4566 -0.4277
 6928SOL     OW32002   2.893   9.085   5.525 -0.1037 -0.4878 -0.6610
 6928SOL    HW132003   2.956   9.103   5.449  0.5391  1.7680  0.3688
 6928SOL    HW232004   2.933   9.017   5.586 -0.7504 -2.5357 -2.4655
 6929SOL     OW32005   9.738   6.137   3.564  0.5104 -0.0260 -0.2202
 6929SOL    HW132006   9.680   6.209   3.527  2.5394  1.3782 -0.7579
 6929SOL    HW232007   9.796   6.100   3.491 -1.1952 -2.9411 -0.1922
 6930SOL     OW32008   0.045   8.121   5.274  0.3826 -0.2528 -0.2998
 6930SOL    HW132009  -0.012   8.189   5.227  0.6256 -0.3858 -0.7907
 6930SOL    HW232010  -0.013   8.059   5.327  0.2354  1.1041  1.1789
 6931SOL     OW32011   4.795   4.423   2.207  0.0758 -0.0685 -0.5111
 6931SOL    HW132012   4.851   4.469   2.276 -0.9254 -0.9521  0.8862
 6931SOL    HW232013   4.855   4.369   2.147  0.9229  0.5445 -0.2321
 6932SOL     OW32014   1.636   3.011   4.612 -0.1322  0.4247  0.1740
 6932SOL    HW132015   1.658   3.106   4.631  0.1480  0.5017 -0.5215
 6932SOL    HW232016   1.702   2.973   4.547  1.3795 -1.0426  2.4927
 6933SOL     OW32017   7.902   7.269   2.895 -0.2475 -0.0904  0.2155
 6933SOL    HW132018   7.934   7.226   2.980 -0.5906  1.2057  1.0190
 6933SOL    HW232019   7.830   7.213   2.855 -1.1131  0.0350  1.5676
 6934SOL     OW32020   0.349   2.685   1.839  0.4885 -0.3531  0.1126
 6934SOL    HW132021   0.279   2.620   1.866 -0.3707  1.3131  2.0610
 6934SOL    HW232022   0.313   2.744   1.766 -0.0871  0.3452  0.9449
 6935SOL     OW32023   7.905   4.608   4.077  0.4309  0.3844 -0.0351
 6935SOL    HW132024   7.826   4.668   4.059 -0.5562 -1.2351 -1.2261
 6935SOL    HW232025   7.974   4.659   4.128 -1.0343  2.0896  0.3170
 6936SOL     OW32026   8.866   3.318   3.046 -0.5755 -0.1982  0.2065
 6936SOL    HW132027   8.770   3.340   3.064 -0.1729  1.7379  0.0791
 6936SOL    HW232028   8.921   3.400   3.054  0.8411 -0.9488 -1.4652
 6937SOL     OW32029   0.125   7.104   1.017 -0.0237  0.2185  0.1291
 6937SOL    HW132030   0.212   7.059   1.001 -0.1297 -0.3217  1.0431
 6937SOL    HW232031   0.094   7.085   1.110 -0.2389  1.8781  0.4141
 6938SOL     OW32032   0.037   5.660   3.868 -0.3227 -0.4201 -0.0647
 6938SOL    HW132033   0.079   5.685   3.955  1.1137 -2.2135 -0.2004
 6938SOL    HW232034  -0.058   5.633   3.883  0.1464 -1.4931  1.0877
 6939SOL     OW32035   1.594   5.722   5.855 -0.0385  0.1016 -0.0085
 6939SOL    HW132036   1.565   5.766   5.771 -1.1853  0.8722  0.7718
 6939SOL    HW232037   1.520   5.665   5.891  0.4309 -0.2102  0.4938
 6940SOL     OW32038   9.893   8.024   2.639 -0.2118 -0.6240 -0.6654
 6940SOL    HW132039   9.979   7.973   2.628  0.7877  0.6456  1.0201
 6940SOL    HW232040   9.860   8.052   2.549 -0.2900 -3.3862 -1.5639
 6941SOL     OW32041   8.412   2.992   4.006  0.4884  0.0376  0.5044
 6941SOL    HW132042   8.421   3.024   4.100 -0.4083 -0.6967  0.8529
 6941SOL    HW232043   8.468   3.048   3.945 -0.2122  1.5699  1.2389
 6942SOL     OW32044   5.095   2.269   5.684 -0.4132  0.0611  1.5582
 6942SOL    HW132045   5.169   2.238   5.744 -1.1007 -0.4297  2.1629
 6942SOL    HW232046   5.007   2.243   5.723 -0.8585 -0.7956  0.0405
 6943SOL     OW32047   5.112   2.736   8.034 -0.6909  0.9751  0.6114
 6943SOL    HW132048   5.211   2.750   8.036  0.0277 -2.9668 -1.1878
 6943SOL    HW232049   5.091   2.644   8.066 -3.6033  1.0384 -0.9490
 6944SOL     OW32050   4.104   8.819   2.843 -0.2906 -0.0716  0.2490
 6944SOL    HW132051   4.009   8.818   2.874 -0.0288  1.2564  1.1244
 6944SOL    HW232052   4.156   8.750   2.894 -0.4959  0.1352  0.7485
 6945SOL     OW32053   5.561   0.530   6.647  0.1495 -0.0220  0.6530
 6945SOL    HW132054   5.537   0.538   6.744 -1.7307  0.5752  0.1706
 6945SOL    HW232055   5.553   0.619   6.602 -2.9999 -0.9924 -0.8746
 6946SOL     OW32056   2.314   4.453   4.032 -0.3419 -0.0953 -0.0823
 6946SOL    HW132057   2.288   4.382   4.098 -0.6312 -0.4239 -0.5510
 6946SOL    HW232058   2.279   4.429   3.942 -0.1727  0.4909 -0.3031
 6947SOL     OW32059   7.154   0.076   4.495 -1.0126  0.2081  0.1855
 6947SOL    HW132060   7.090   0.146   4.464 -1.0056  0.2362  0.2345
 6947SOL    HW232061   7.242   0.088   4.450 -0.4941  1.2496  1.4159
 6948SOL     OW32062   2.806   7.052   5.416  0.6294 -0.3237  0.4457
 6948SOL    HW132063   2.816   7.045   5.515  0.4534 -1.3819  0.3919
 6948SOL    HW232064   2.860   7.129   5.383  1.9062 -0.8906  1.1770
 6949SOL     OW32065   5.529   2.041   5.338 -0.1838 -0.3910  0.2207
 6949SOL    HW132066   5.453   1.976   5.333 -1.9479  1.6857 -0.4960
 6949SOL    HW232067   5.563   2.060   5.246  1.2058 -1.2792  0.5354
 6950SOL     OW32068   2.211   0.474   4.019  0.1075  0.3900 -0.2751
 6950SOL    HW132069   2.203   0.560   3.968  1.5256  0.8124  0.1678
 6950SOL    HW232070   2.261   0.491   4.104  0.5905 -0.9070 -0.2855
 6951SOL     OW32071   3.843   1.876   3.706  0.4067  0.3096 -0.1684
 6951SOL    HW132072   3.840   1.805   3.776  1.2336  2.0803  1.6867
 6951SOL    HW232073   3.751   1.890   3.669  0.1606 -1.4231 -0.2813
 6952SOL     OW32074   7.528   9.244   3.057  0.3308  0.1934 -0.6860
 6952SOL    HW132075   7.607   9.296   3.090  1.7024 -1.3249 -1.5199
 6952SOL    HW232076   7.520   9.257   2.958 -0.6623  0.5840 -0.5571
 6953SOL     OW32077   5.492   9.949   5.159  0.2452 -0.2565  0.1070
 6953SOL    HW132078   5.423   9.917   5.095  0.3058 -1.6901  0.7458
 6953SOL    HW232079   5.574   9.893   5.152  0.8777  0.6341  0.2583
 6954SOL     OW32080   2.217   5.736   5.017 -1.0268 -0.0116 -0.8077
 6954SOL    HW132081   2.291   5.762   4.955 -1.7759 -1.0234 -2.1617
 6954SOL    HW232082   2.130   5.770   4.982 -1.3833 -0.0501  0.0224
 6955SOL     OW32083   9.991   2.356   5.266  0.3040 -0.2292 -0.0873
 6955SOL    HW132084   9.994   2.275   5.207  0.4238 -0.7537  0.6364
 6955SOL    HW232085   9.993   2.328   5.362 -1.6074  0.5403  0.1989
 6956SOL     OW32086   4.106   0.005   1.969  0.4591  0.3080 -0.0544
 6956SOL    HW132087   4.089   0.052   2.055  0.3946 -0.5457  0.4079
 6956SOL    HW232088   4.200   0.023   1.938  0.3237  1.0045 -0.0548
 6957SOL     OW32089   0.613   7.492   3.802  0.2741 -0.0470  0.2555
 6957SOL    HW132090   0.538   7.446   3.848 -1.3591  0.6607 -1.6263
 6957SOL    HW232091   0.646   7.568   3.858 -2.2546  1.3535 -0.1163
 6958SOL     OW32092   3.941   6.902   5.151  0.6927 -0.4319  0.2442
 6958SOL    HW132093   4.004   6.912   5.228 -0.0263  0.4489  0.7227
 6958SOL    HW232094   3.992   6.905   5.065  1.0613  2.5490  0.5357
 6959SOL     OW32095   1.146   1.713   0.227 -0.0584  0.0061 -0.0914
 6959SOL    HW132096   1.099   1.627   0.245 -0.1939  0.1660  0.3183
 6959SOL    HW232097   1.085   1.789   0.244  0.2405  0.2030  0.1097
 6960SOL     OW32098   3.388   4.363   0.600 -0.1350  0.4778  0.4200
 6960SOL    HW132099   3.302   4.378   0.649 -1.3859  1.4471 -1.9854
 6960SOL    HW232100   3.373   4.299   0.525  0.5256  2.8048 -1.7850
 6961SOL     OW32101   0.464   7.774   3.406  0.8206  0.2062 -0.2700
 6961SOL    HW132102   0.401   7.846   3.377  0.9249  0.3758 -0.0748
 6961SOL    HW232103   0.457   7.696   3.343 -0.8572 -0.5101  0.7700
 6962SOL     OW32104   8.461   9.590   3.946 -0.3951 -0.2315 -0.1201
 6962SOL    HW132105   8.500   9.673   3.906 -0.7796  0.2424  0.4815
 6962SOL    HW232106   8.507   9.569   4.032  0.7319 -1.5078 -1.0256
 6963SOL     OW32107   1.972   5.861   1.438 -0.0565 -0.3837 -0.2358
 6963SOL    HW132108   2.028   5.943   1.425  1.1853 -0.9753  1.2681
 6963SOL    HW232109   2.002   5.790   1.376  0.0299 -0.2865 -0.3061
 6964SOL     OW32110   5.858   3.409   3.943 -0.1706  0.0035 -1.0729
 6964SOL    HW132111   5.767   3.368   3.932 -1.1480  1.6533  0.6298
 6964SOL    HW232112   5.926   3.336   3.953 -1.3058 -1.2471 -2.2412
 6965SOL     OW32113   8.254   0.187   2.528 -0.0466  0.4810  0.3687
 6965SOL    HW132114   8.203   0.199   2.443  1.0030 -0.1906 -0.3598
 6965SOL    HW232115   8.271   0.277   2.569  1.1803  0.9736 -1.1734
 6966SOL     OW32116   6.801   9.890   6.794  0.0938 -0.6576  0.4737
 6966SOL    HW132117   6.715   9.926   6.758  0.1241 -1.3896 -0.3282
 6966SOL    HW232118   6.854   9.965   6.833  0.0495  0.1335 -0.9756
 6967SOL     OW32119   0.841   3.723   5.482 -0.5464  0.5893 -0.6646
 6967SOL    HW132120   0.768   3.750   5.544 -0.2854  0.2088 -0.1901
 6967SOL    HW232121   0.871   3.630   5.504  1.9467  1.7091  0.9009
 6968SOL     OW32122   4.310   5.502   1.893  0.0545 -0.8280  0.1767
 6968SOL    HW132123   4.273   5.495   1.985 -2.6242  2.6637 -0.5164
 6968SOL    HW232124   4.357   5.590   1.883  0.0417 -1.0274 -1.8615
 6969SOL     OW32125   3.462   4.703   3.054 -0.2437 -0.1477 -0.6686
 6969SOL    HW132126   3.396   4.655   3.111 -1.4374 -0.3068 -2.1504
 6969SOL    HW232127   3.417   4.733   2.969  0.8922  2.1030 -0.5197
 6970SOL     OW32128   0.807   1.280   5.534  0.2549  0.0262 -0.4512
 6970SOL    HW132129   0.900   1.285   5.571  0.5785 -0.5875 -1.1708
 6970SOL    HW232130   0.774   1.185   5.541 -0.7988  0.4667  0.9537
 6971SOL     OW32131   1.256   9.535   4.234 -0.4699 -0.3890  0.1713
 6971SOL    HW132132   1.215   9.626   4.244  0.1690  0.0346 -0.9795
 6971SOL    HW232133   1.336   9.527   4.293 -0.3071 -0.0733 -0.0068
 6972SOL     OW32134   8.597   8.974   1.036 -0.2566 -0.1297  0.3267
 6972SOL    HW132135   8.614   9.020   1.123  0.6241 -0.3568  0.2762
 6972SOL    HW232136   8.681   8.929   1.005 -0.5384  0.0516 -0.7008
 6973SOL     OW32137   9.741   9.946   0.980  0.1538  0.1470  0.4455
 6973SOL    HW132138   9.808   9.919   0.910  1.3032  2.1698  0.7161
 6973SOL    HW232139   9.652   9.961   0.937  1.2696  3.1790 -0.9818
 6974SOL     OW32140   9.575   1.844   0.044 -0.3385 -0.0946 -0.2203
 6974SOL    HW132141   9.476   1.832   0.052 -0.1109 -1.1333  1.2142
 6974SOL    HW232142   9.603   1.825  -0.050 -1.4550 -0.1348 -0.5530
 6975SOL     OW32143   4.219   5.314   4.014 -0.1249 -0.6035  0.4727
 6975SOL    HW132144   4.204   5.328   4.112  1.8938 -2.1585  1.0374
 6975SOL    HW232145   4.281   5.384   3.979  0.2489 -0.8645  0.6114
 6976SOL     OW32146   6.163   8.513   5.930 -0.2917 -0.0755 -0.0810
 6976SOL    HW132147   6.202   8.431   5.972  0.6593  1.2391  1.6957
 6976SOL    HW232148   6.203   8.527   5.840  0.6211 -0.7741  0.2068
 6977SOL     OW32149   3.356   6.821   5.785 -0.2914  0.4185  0.2059
 6977SOL    HW132150   3.420   6.762   5.834  0.0236  3.0097  3.0357
 6977SOL    HW232151   3.290   6.764   5.735  2.5552 -2.2764 -0.6140
 6978SOL     OW32152   3.120   0.742   2.401 -0.3335  0.1461 -0.2108
 6978SOL    HW132153   3.041   0.795   2.431 -1.3320 -0.6513 -1.3663
 6978SOL    HW232154   3.192   0.804   2.370 -0.3089  0.8876  1.3131
 6979SOL     OW32155   1.139   5.786   2.117 -0.1132  0.1876  0.0024
 6979SOL    HW132156   1.081   5.842   2.176  0.4466 -1.0771  1.8086
 6979SOL    HW232157   1.143   5.693   2.154  1.7295 -0.1555 -1.0302
 6980SOL     OW32158   7.565   4.800   2.390 -0.2679 -0.2323  0.4137
 6980SOL    HW132159   7.637   4.732   2.387  1.2453  1.3497 -0.3247
 6980SOL    HW232160   7.591   4.879   2.333 -2.0350  0.8779  1.0896
 6981SOL     OW32161   5.697   0.963   2.290  0.1068 -0.5124  0.2194
 6981SOL    HW132162   5.743   1.021   2.357  1.9870  0.0236 -1.4756
 6981SOL    HW232163   5.731   0.869   2.298  1.0491 -0.2533 -0.5842
 6982SOL     OW32164   1.198   7.682   3.815  0.3322 -0.5051  0.3583
 6982SOL    HW132165   1.227   7.622   3.889 -1.9343 -2.3545 -0.2239
 6982SOL    HW232166   1.098   7.687   3.813  0.4111  0.7173 -1.6350
 6983SOL     OW32167   9.732   5.227   2.681  0.1299 -0.2753 -0.0911
 6983SOL    HW132168   9.810   5.221   2.618  0.5191  0.4253  0.3190
 6983SOL    HW232169   9.719   5.322   2.709  0.1882 -0.6278  1.1671
 6984SOL     OW32170   7.005   2.323   1.665  0.3438  0.3231 -0.6658
 6984SOL    HW132171   6.980   2.269   1.746  1.7557 -0.7704 -0.9449
 6984SOL    HW232172   6.922   2.349   1.616 -0.4227 -0.6172  0.1059
 6985SOL     OW32173   2.365   3.299   1.138  0.8078 -0.0184 -0.0269
 6985SOL    HW132174   2.325   3.259   1.055  0.4327  0.3881 -0.0459
 6985SOL    HW232175   2.299   3.363   1.178  0.6615 -0.8130  1.0279
 6986SOL     OW32176   4.653   8.027   4.541  0.5946  0.0412 -0.4525
 6986SOL    HW132177   4.557   8.004   4.524 -0.0116  0.5138  2.1091
 6986SOL    HW232178   4.696   7.953   4.595  0.5033  1.6627  1.9348
 6987SOL     OW32179   9.627   9.145   5.984 -0.2970 -0.0442 -0.3232
 6987SOL    HW132180   9.588   9.211   6.048 -2.5809 -1.0601 -0.6173
 6987SOL    HW232181   9.687   9.081   6.033  0.0845  0.8172  0.3404
 6988SOL     OW32182   8.056   4.908   3.226  0.1167  0.2497  0.0880
 6988SOL    HW132183   7.996   4.872   3.155 -1.3723  0.4609  1.2257
 6988SOL    HW232184   8.070   4.838   3.296  1.5650  0.0470 -0.3753
 6989SOL     OW32185   0.164   5.512   0.319  0.2776 -0.5670 -0.0067
 6989SOL    HW132186   0.129   5.558   0.401  0.4408 -0.5868  0.0751
 6989SOL    HW232187   0.123   5.553   0.238 -0.0849 -0.7189  0.0952
 6990SOL     OW32188   1.294   3.984   0.433  0.1321 -0.0320  0.3007
 6990SOL    HW132189   1.375   4.036   0.406  0.5955 -1.3812 -0.9931
 6990SOL    HW232190   1.225   4.046   0.470  1.2879  1.2829  0.2958
 6991SOL     OW32191   8.424   8.807   2.938 -0.3450 -0.9965  0.4836
 6991SOL    HW132192   8.358   8.839   3.006  0.5601  1.8037  0.1439
 6991SOL    HW232193   8.517   8.814   2.976  0.1650  0.5815 -0.9918
 6992SOL     OW32194   4.770   1.576   0.630  0.5470  0.3245 -0.2552
 6992SOL    HW132195   4.855   1.530   0.605  1.0438  0.8105  0.5015
 6992SOL    HW232196   4.790   1.671   0.657 -0.2103  0.3975  0.0619
 6993SOL     OW32197   2.806   7.600   4.036 -0.0273 -0.3841 -0.2674
 6993SOL    HW132198   2.713   7.635   4.048 -0.5984 -1.4681 -1.3724
 6993SOL    HW232199   2.845   7.577   4.125 -0.3399  1.2319  0.3137
 6994SOL     OW32200   2.261   3.254   3.538 -0.3355 -0.1870  0.1051
 6994SOL    HW132201   2.301   3.236   3.628  0.4126  0.3455 -0.1145
 6994SOL    HW232202   2.216   3.171   3.504  0.2423 -0.6760  0.5265
 6995SOL     OW32203   7.768   3.719   3.975 -0.0240  0.7927 -0.2056
 6995SOL    HW132204   7.759   3.734   4.074  0.1065  2.1573 -0.3928
 6995SOL    HW232205   7.726   3.796   3.926 -1.3490 -0.5584 -1.2331
 6996SOL     OW32206   4.238   9.544   1.475  0.5857  0.3004  0.4947
 6996SOL    HW132207   4.232   9.592   1.563 -0.7682 -0.1906  0.6828
 6996SOL    HW232208   4.155   9.562   1.422  1.0024 -0.1387 -0.2982
 6997SOL     OW32209   9.569   0.591   6.515 -0.6459 -0.2418 -0.3393
 6997SOL    HW132210   9.575   0.657   6.589  1.7507  0.6664 -1.2991
 6997SOL    HW232211   9.569   0.638   6.427  0.2780 -1.4434 -1.0133
 6998SOL     OW32212   2.008   4.875   4.980  0.1389 -0.2417  0.1726
 6998SOL    HW132213   2.083   4.898   5.042  0.0261 -0.1980  0.2910
 6998SOL    HW232214   2.035   4.898   4.886  0.7758 -1.4334  0.0568
 6999SOL     OW32215   4.138   7.973   3.257  0.1122 -0.1469 -0.3501
 6999SOL    HW132216   4.075   7.897   3.274 -0.2681 -0.0154 -1.1386
 6999SOL    HW232217   4.203   7.980   3.332  1.0258 -2.1418 -0.9274
 7000SOL     OW32218   0.904   1.385   0.493 -0.1940 -0.6050  0.6737
 7000SOL    HW132219   0.834   1.356   0.558  0.5007 -2.2213  0.7259
 7000SOL    HW232220   0.991   1.341   0.517  0.9874  1.8332  0.9758
 7001SOL     OW32221   5.398   2.173   4.511 -0.5055  0.2379 -0.5770
 7001SOL    HW132222   5.389   2.140   4.604 -0.6315  0.0990 -0.6380
 7001SOL    HW232223   5.465   2.118   4.462  0.7163  1.2858 -0.1160
 7002SOL     OW32224   3.913   9.535   2.924  0.0614  0.0853  0.1512
 7002SOL    HW132225   3.854   9.519   2.844  0.1690 -0.2523  0.1385
 7002SOL    HW232226   3.857   9.554   3.004 -0.1099 -1.5829  0.4376
 7003SOL     OW32227   9.458   8.469   3.868 -0.1948  0.2139  0.3296
 7003SOL    HW132228   9.492   8.486   3.961 -1.3163  1.2263  0.5578
 7003SOL    HW232229   9.466   8.372   3.847  1.2486  0.1734  1.0123
 7004SOL     OW32230   4.817   4.714   4.268 -0.3145 -0.4386 -0.5237
 7004SOL    HW132231   4.775   4.799   4.235 -1.2140 -0.5951  0.1943
 7004SOL    HW232232   4.866   4.670   4.193  1.6347  1.5804 -0.4978
 7005SOL     OW32233   1.673   7.023   3.016  0.7278  0.5031 -0.2005
 7005SOL    HW132234   1.702   6.930   3.037 -0.9399 -0.1924 -0.8597
 7005SOL    HW232235   1.612   7.022   2.936 -0.5390  1.9621  0.7114
 7006SOL     OW32236   0.571   5.717   4.946  0.2358 -0.1658 -0.4185
 7006SOL    HW132237   0.529   5.700   4.857  0.0295 -0.3286 -0.2926
 7006SOL    HW232238   0.634   5.642   4.967 -0.0027 -0.3225 -0.2587
 7007SOL     OW32239   1.334   7.009   3.902  0.3931  0.4024 -0.5405
 7007SOL    HW132240   1.311   7.102   3.930 -1.1332  0.3234 -1.4812
 7007SOL    HW232241   1.289   6.988   3.815 -0.2398 -1.6223  0.2547
 7008SOL     OW32242   2.200   6.240   1.458  0.1236  0.0191  0.7115
 7008SOL    HW132243   2.256   6.226   1.539 -0.5919 -1.0763  1.0186
 7008SOL    HW232244   2.104   6.243   1.483 -0.1789 -1.4936 -0.2368
 7009SOL     OW32245   5.196   7.848   2.715 -0.2588 -0.3873 -0.7245
 7009SOL    HW132246   5.129   7.799   2.659 -1.8792 -0.1871  0.9981
 7009SOL    HW232247   5.242   7.917   2.658 -2.5710  0.5074 -1.6009
 7010SOL     OW32248   7.460   2.164   0.438 -0.1751 -0.7191 -0.7955
 7010SOL    HW132249   7.385   2.226   0.462  0.7601 -0.7967  2.7057
 7010SOL    HW232250   7.519   2.208   0.371 -1.0664  1.0632 -0.4620
 7011SOL     OW32251   1.819   3.078   3.326 -0.0070 -0.4177 -0.7944
 7011SOL    HW132252   1.769   3.002   3.367 -1.1390  0.4646 -0.5005
 7011SOL    HW232253   1.825   3.064   3.227  2.6869 -2.5286 -0.3705
 7012SOL     OW32254   4.452   2.425   3.967 -0.5272 -0.6175  0.2588
 7012SOL    HW132255   4.418   2.370   3.891 -0.6755 -0.0599 -0.0831
 7012SOL    HW232256   4.514   2.371   4.023  1.5779 -0.2964 -1.6870
 7013SOL     OW32257   3.276   1.022   1.061 -0.3285 -0.5850 -0.2110
 7013SOL    HW132258   3.195   0.979   1.102 -0.7403 -0.0225 -0.4381
 7013SOL    HW232259   3.346   0.952   1.046 -0.3788 -0.8956  0.9426
 7014SOL     OW32260   7.219   5.437   6.012  0.1608 -0.4955 -0.4929
 7014SOL    HW132261   7.163   5.394   5.941  1.3982 -2.1187 -0.5078
 7014SOL    HW232262   7.250   5.368   6.077  0.7826  0.6527  0.4564
 7015SOL     OW32263   8.183   8.719   1.539 -0.1557  0.1409  0.0783
 7015SOL    HW132264   8.275   8.691   1.510 -0.6545  0.1667 -1.5260
 7015SOL    HW232265   8.190   8.775   1.622  1.2602  0.0216  0.0477
 7016SOL     OW32266   9.057   1.594   3.310  0.0015  0.5481  0.0807
 7016SOL    HW132267   9.113   1.638   3.379  1.1362 -0.5264 -0.1391
 7016SOL    HW232268   8.998   1.662   3.266  2.1651  1.9462 -0.6927
 7017SOL     OW32269   3.791   1.664   2.152  0.3981  0.1411 -0.3214
 7017SOL    HW132270   3.808   1.604   2.231  0.0744 -0.7439 -0.9130
 7017SOL    HW232271   3.775   1.757   2.184  0.2714 -0.2064  0.6604
 7018SOL     OW32272   9.709   4.052   3.242  0.6320  0.9600  0.0082
 7018SOL    HW132273   9.739   4.132   3.293  1.6382 -0.3713  1.5662
 7018SOL    HW232274   9.717   3.971   3.300  0.4919 -0.3948 -1.8285
 7019SOL     OW32275   0.173   6.708   0.728  0.0283  0.0365 -0.3502
 7019SOL    HW132276   0.167   6.806   0.744 -0.3872 -0.0148 -0.1733
 7019SOL    HW232277   0.218   6.691   0.640 -0.7228  0.4111 -0.8130
 7020SOL     OW32278   8.872   1.300   2.559 -0.1167 -0.0638 -0.3281
 7020SOL    HW132279   8.922   1.225   2.601 -0.7308  0.0609  0.6578
 7020SOL    HW232280   8.903   1.387   2.598 -0.5024  0.0731 -0.3200
 7021SOL     OW32281   7.761   0.323   6.557 -0.1038  0.2055 -0.2266
 7021SOL    HW132282   7.740   0.289   6.465  0.0372 -0.0728 -0.1573
 7021SOL    HW232283   7.860   0.325   6.569 -0.1362 -0.7197  0.2734
 7022SOL     OW32284   5.212   9.639   5.537  0.5121  0.4663  0.4637
 7022SOL    HW132285   5.128   9.674   5.580  0.2806  0.9829 -0.3949
 7022SOL    HW232286   5.189   9.594   5.451  0.9487 -0.7961  0.9880
 7023SOL     OW32287   3.586   8.579   4.955 -0.6015 -0.0974  0.3449
 7023SOL    HW132288   3.542   8.658   4.911 -1.5928 -1.3459 -0.9716
 7023SOL    HW232289   3.530   8.548   5.032 -0.3113  0.3635  0.7420
 7024SOL     OW32290   8.460   4.881   5.759  0.2007 -0.3963 -0.6942
 7024SOL    HW132291   8.446   4.936   5.677 -0.4526  0.3582 -0.0909
 7024SOL    HW232292   8.557   4.868   5.775  0.4550  2.7424  0.5673
 7025SOL     OW32293   7.279   0.527   1.750 -0.2337 -0.6036 -0.2569
 7025SOL    HW132294   7.285   0.429   1.730  3.9349 -0.6757  0.8527
 7025SOL    HW232295   7.281   0.579   1.665 -0.6020 -1.4397 -0.7789
 7026SOL     OW32296   5.012   7.650   2.130  0.2002 -0.3952  0.0448
 7026SOL    HW132297   5.069   7.571   2.106 -0.0733 -0.1122 -1.6396
 7026SOL    HW232298   4.922   7.639   2.088 -0.3428  0.0943  1.0679
 7027SOL     OW32299   2.549   5.773   6.076 -0.4974  0.0103 -0.1148
 7027SOL    HW132300   2.592   5.766   6.166  0.6694  0.6091 -0.6147
 7027SOL    HW232301   2.576   5.694   6.020  1.1873  1.1608 -0.9420
 7028SOL     OW32302   3.058   1.069   1.565  0.1069 -0.3070  0.0602
 7028SOL    HW132303   2.977   1.082   1.507  0.6604 -0.0387 -0.6663
 7028SOL    HW232304   3.117   1.000   1.523  1.2698  1.0274 -0.5297
 7029SOL     OW32305   7.706   4.760   3.304  0.3978 -0.2570 -0.0736
 7029SOL    HW132306   7.652   4.677   3.322  1.1797 -1.0852 -1.4471
 7029SOL    HW232307   7.675   4.801   3.218 -0.3695  1.2059  0.8894
 7030SOL     OW32308   5.956   4.274   1.501 -0.6229  0.6829 -0.2293
 7030SOL    HW132309   5.932   4.304   1.593  0.7079  0.4541  0.2034
 7030SOL    HW232310   6.006   4.347   1.454  1.6147 -0.3907  0.4210
 7031SOL     OW32311   2.476   2.217   5.393 -0.2837 -0.2029 -0.1805
 7031SOL    HW132312   2.378   2.212   5.371 -0.5631  1.8578  0.5598
 7031SOL    HW232313   2.488   2.238   5.490  0.9191 -1.1301 -0.1076
 7032SOL     OW32314   4.412   0.282   2.258  0.2999 -0.3356 -0.3311
 7032SOL    HW132315   4.413   0.242   2.350 -0.6221 -0.2923 -0.3025
 7032SOL    HW232316   4.501   0.268   2.215  0.9902  0.2942  0.8520
 7033SOL     OW32317   9.081   9.903   4.093 -0.3916 -0.2765 -0.5179
 7033SOL    HW132318   8.990   9.888   4.132 -0.5427  0.4407 -0.5769
 7033SOL    HW232319   9.099  10.002   4.088  0.9427 -0.4224  0.7923
 7034SOL     OW32320   9.687   5.283   1.221  0.1946  0.3497  0.3551
 7034SOL    HW132321   9.721   5.376   1.206  1.1545 -0.1521 -0.6987
 7034SOL    HW232322   9.765   5.222   1.236 -0.2863 -0.6548 -1.1559
 7035SOL     OW32323   9.905   8.110   4.119  0.0917  0.7060 -0.5235
 7035SOL    HW132324   9.823   8.150   4.160  0.5553  0.2245  0.9037
 7035SOL    HW232325   9.979   8.108   4.186  0.8957 -0.0227 -1.4093
 7036SOL     OW32326   6.319   9.491   5.648 -0.3410  0.0469 -0.4541
 7036SOL    HW132327   6.307   9.392   5.639 -0.6436  0.1534 -1.2769
 7036SOL    HW232328   6.390   9.510   5.716  0.2847 -0.7613 -0.8678
 7037SOL     OW32329   6.807   2.021   6.110 -0.0013  0.3114  0.1336
 7037SOL    HW132330   6.774   2.025   6.016  1.1059  0.6309 -0.2398
 7037SOL    HW232331   6.881   1.954   6.117  2.0207  2.5064  0.1200
 7038SOL     OW32332   5.104   4.660   7.730 -0.0907 -0.7044 -0.0397
 7038SOL    HW132333   5.023   4.606   7.707 -1.0826  0.6490  0.2400
 7038SOL    HW232334   5.149   4.620   7.809 -0.1386 -1.8136 -0.5594
 7039SOL     OW32335   6.531   5.621   8.012  0.0122  0.3527 -0.1523
 7039SOL    HW132336   6.520   5.562   7.932 -0.4845 -0.4366  0.4845
 7039SOL    HW232337   6.488   5.578   8.091  1.0765  0.8076  0.6928
 7040SOL     OW32338   0.524   4.210   2.543 -0.1701 -0.1285 -0.5731
 7040SOL    HW132339   0.508   4.299   2.586  2.6758 -0.0796  0.4599
 7040SOL    HW232340   0.589   4.220   2.467 -0.2556 -1.2511 -0.8097
 7041SOL     OW32341   9.680   2.471   0.571  0.8798  0.4326  0.4186
 7041SOL    HW132342   9.763   2.520   0.597  1.8951 -0.6365 -0.7286
 7041SOL    HW232343   9.696   2.373   0.580 -0.1858  0.2109 -0.0479
 7042SOL     OW32344   3.438   5.919   7.979  0.2496  0.0639  0.4131
 7042SOL    HW132345   3.532   5.933   8.010  0.8036  0.4927 -1.4107
 7042SOL    HW232346   3.438   5.857   7.900 -0.7390  2.1079 -1.2244
 7043SOL     OW32347   0.551   0.214   1.990  0.6239 -0.1590  0.3988
 7043SOL    HW132348   0.492   0.134   1.976 -0.0054  0.3083  0.3580
 7043SOL    HW232349   0.596   0.237   1.904 -1.7955  1.5694 -0.4564
 7044SOL     OW32350   0.945   0.345   2.042 -0.2039  0.1805 -0.4817
 7044SOL    HW132351   0.849   0.363   2.063 -0.2402 -1.0863  0.5538
 7044SOL    HW232352   0.965   0.249   2.061  1.1362  0.3096 -1.2030
 7045SOL     OW32353   7.912   7.968   4.499 -0.2240 -0.3550 -0.2569
 7045SOL    HW132354   7.945   7.915   4.577 -0.2316  1.3858  0.9685
 7045SOL    HW232355   7.970   8.048   4.486 -1.7259  0.7387 -0.4297
 7046SOL     OW32356   8.760   8.234   4.652  0.1624  0.5432 -0.1442
 7046SOL    HW132357   8.859   8.229   4.664  0.2619  0.8148 -0.8226
 7046SOL    HW232358   8.739   8.274   4.563 -0.5560  0.1257 -0.1719
 7047SOL     OW32359   2.202   8.488   0.084  0.6497 -0.0369  0.3454
 7047SOL    HW132360   2.180   8.418   0.152 -1.0583  0.2318  0.0910
 7047SOL    HW232361   2.186   8.579   0.122 -0.9074  0.0961 -0.6031
 7048SOL     OW32362   3.326   6.179   3.995  0.0016 -0.0233 -0.0725
 7048SOL    HW132363   3.293   6.084   3.994 -0.1620  0.0405 -1.6176
 7048SOL    HW232364   3.411   6.184   4.047  0.0217 -1.0196  0.0111
 7049SOL     OW32365   8.433   3.303   2.237 -0.0159  0.3707  0.7891
 7049SOL    HW132366   8.447   3.399   2.213  0.3068 -0.0076 -0.6327
 7049SOL    HW232367   8.452   3.289   2.334  0.7209  1.5856  0.8325
 7050SOL     OW32368   0.252   4.409   5.264 -0.8999  0.4821  0.6940
 7050SOL    HW132369   0.253   4.478   5.336  2.9149 -0.0569  1.2624
 7050SOL    HW232370   0.318   4.435   5.193 -1.2837 -1.3145 -0.3445
 7051SOL     OW32371   2.892   5.037   3.931  0.7593  0.5582 -0.0588
 7051SOL    HW132372   2.968   5.011   3.991  1.4575 -1.1623 -1.6416
 7051SOL    HW232373   2.927   5.063   3.841 -0.3412  2.3885  0.0050
 7052SOL     OW32374   9.094   0.128   0.808 -0.0475  0.3440 -0.3123
 7052SOL    HW132375   9.158   0.203   0.793  1.1785 -0.7281 -0.4892
 7052SOL    HW232376   9.000   0.161   0.796  0.4582  1.9714  0.1636
 7053SOL     OW32377   8.359   1.354   2.364  0.0579 -0.1495 -0.7750
 7053SOL    HW132378   8.441   1.307   2.331  0.6504  0.9271 -0.8655
 7053SOL    HW232379   8.336   1.321   2.456 -0.5410 -1.8492 -1.5265
 7054SOL     OW32380   3.434   0.101   5.874  0.6369 -0.0673 -0.0851
 7054SOL    HW132381   3.399   0.060   5.790 -1.1932  2.8537 -0.8281
 7054SOL    HW232382   3.471   0.030   5.934 -3.0561 -2.8638 -0.9942
 7055SOL     OW32383   5.021   0.032   4.522 -0.1314  0.2767  0.7116
 7055SOL    HW132384   5.095   0.030   4.589 -0.3089  1.7920  0.9475
 7055SOL    HW232385   4.991   0.126   4.507  0.3159  0.0592 -1.9240
 7056SOL     OW32386   7.127   0.813   2.245  0.1276  0.0008  0.2461
 7056SOL    HW132387   7.199   0.762   2.293  1.6302  0.8729 -1.0278
 7056SOL    HW232388   7.134   0.910   2.269  0.4827  0.3485 -1.1824
 7057SOL     OW32389   1.622   8.341   0.346 -0.3220  0.3698  1.0512
 7057SOL    HW132390   1.565   8.269   0.386 -0.5164 -1.5303 -2.4617
 7057SOL    HW232391   1.717   8.326   0.375 -0.6371 -0.2003  1.8356
 7058SOL     OW32392   1.765   5.091   4.631 -0.4246  0.0943 -0.2799
 7058SOL    HW132393   1.697   5.030   4.590  0.7387 -2.0942  0.9538
 7058SOL    HW232394   1.844   5.098   4.570 -0.8631  0.9870 -0.7593
 7059SOL     OW32395   4.990   3.598   8.091  0.3269 -0.0279  0.0594
 7059SOL    HW132396   4.979   3.509   8.137  1.2050  0.2629  0.8626
 7059SOL    HW232397   4.940   3.668   8.142 -0.9827 -0.1836 -0.9948
 7060SOL     OW32398   3.839   0.743   5.184 -0.4244  0.0527 -0.6060
 7060SOL    HW132399   3.745   0.775   5.176  0.0027  1.0212 -2.0809
 7060SOL    HW232400   3.864   0.693   5.101  1.2117  2.1727 -1.4424
 7061SOL     OW32401   2.622   1.494   1.591 -0.7290 -0.0877 -0.3205
 7061SOL    HW132402   2.690   1.484   1.520  0.7705  2.4272  0.6677
 7061SOL    HW232403   2.598   1.591   1.601 -0.4475 -0.2923  2.9680
 7062SOL     OW32404   7.601   8.942   5.816  0.1206 -0.6651 -0.5089
 7062SOL    HW132405   7.674   8.876   5.801  1.1898  0.7309 -1.6389
 7062SOL    HW232406   7.572   8.980   5.728 -0.1865  0.6623  0.1539
 7063SOL     OW32407   0.356   7.407   1.437  0.1186  0.4194  0.3121
 7063SOL    HW132408   0.290   7.363   1.496 -2.0937  3.0321 -0.0955
 7063SOL    HW232409   0.315   7.424   1.347  3.0407 -2.4932 -1.6773
 7064SOL     OW32410   9.530   9.069   2.086 -0.1425  0.3121 -0.2048
 7064SOL    HW132411   9.586   9.092   2.165  0.4980 -0.3078 -0.4774
 7064SOL    HW232412   9.562   9.121   2.006 -1.5742  1.8827  0.2084
 7065SOL     OW32413   7.254   1.717   5.999  0.0184 -0.8433 -0.0393
 7065SOL    HW132414   7.324   1.653   5.967  1.5547  0.7095  0.1381
 7065SOL    HW232415   7.285   1.762   6.083 -0.6415  0.7843 -0.6483
 7066SOL     OW32416   0.083   5.954   0.100  0.2951  0.0556  0.1031
 7066SOL    HW132417   0.146   5.947   0.178 -0.5346  2.8707  1.0931
 7066SOL    HW232418  -0.010   5.967   0.134 -0.3478 -0.6310 -1.3678
 7067SOL     OW32419   0.105   4.014   8.107  0.8170 -0.2288 -0.6570
 7067SOL    HW132420   0.198   4.010   8.070  1.0395  0.4938 -0.2080
 7067SOL    HW232421   0.059   4.096   8.072  0.1263 -0.9203 -1.3770
 7068SOL     OW32422   9.991   6.296   5.203  0.1551 -0.2348 -0.5314
 7068SOL    HW132423   9.932   6.339   5.135  1.6007  2.5090 -0.1354
 7068SOL    HW232424   9.990   6.197   5.191 -1.6108  0.0305 -2.8747
 7069SOL     OW32425   3.527   7.147   1.975  0.2375 -0.3520 -0.0550
 7069SOL    HW132426   3.480   7.233   1.996  2.8516  0.6870  1.8756
 7069SOL    HW232427   3.487   7.073   2.029  0.5723  0.4506  1.3229
 7070SOL     OW32428   7.081   8.490   4.109  0.6991 -0.6159 -0.3326
 7070SOL    HW132429   7.036   8.564   4.059  0.6817 -1.0398 -0.9502
 7070SOL    HW232430   7.110   8.419   4.044  0.3403 -1.3460  0.2962
 7071SOL     OW32431   2.141   3.201   0.679 -0.4636  0.2181  0.1514
 7071SOL    HW132432   2.071   3.143   0.637 -0.3253 -0.7467  1.2201
 7071SOL    HW232433   2.176   3.266   0.611 -1.4881 -0.1355 -0.7302
 7072SOL     OW32434   6.805   3.522   0.588 -0.0991 -0.0542 -1.2841
 7072SOL    HW132435   6.768   3.429   0.594  0.2425 -0.0940  0.6727
 7072SOL    HW232436   6.783   3.571   0.672  2.5685  0.5639 -0.9248
 7073SOL     OW32437   2.095   2.557   0.116 -0.4557 -0.4261  0.6570
 7073SOL    HW132438   2.055   2.497   0.185 -0.9783 -0.8718 -0.0302
 7073SOL    HW232439   2.034   2.561   0.036 -1.6044  2.8083  1.5878
 7074SOL     OW32440   9.447   2.477   2.225 -0.5041 -0.1870 -0.2501
 7074SOL    HW132441   9.419   2.383   2.205  1.0284 -0.5248 -0.8373
 7074SOL    HW232442   9.463   2.526   2.140 -1.5886  0.7083  0.0512
 7075SOL     OW32443   7.537   0.965   2.466  0.2323  0.3130  0.2758
 7075SOL    HW132444   7.561   1.007   2.554  0.4002  2.4270 -0.7514
 7075SOL    HW232445   7.474   1.024   2.417 -2.6480 -2.4783  0.4276
 7076SOL     OW32446   2.262   8.173   5.158  0.3846 -0.0797  0.2465
 7076SOL    HW132447   2.282   8.268   5.136  3.1120  0.0155  2.7226
 7076SOL    HW232448   2.281   8.115   5.079  0.2589  1.2612 -0.7714
 7077SOL     OW32449   7.059   3.363   2.698  0.3276 -0.4447  0.4940
 7077SOL    HW132450   7.073   3.462   2.697  0.1688 -0.4221  0.6819
 7077SOL    HW232451   6.987   3.340   2.762  0.9685 -0.7614  1.1075
 7078SOL     OW32452   1.544   6.602   5.799 -0.2259  0.0058  0.3819
 7078SOL    HW132453   1.573   6.623   5.892 -0.6683  0.0657  0.5097
 7078SOL    HW232454   1.456   6.646   5.781  0.6115  1.2855 -0.5968
 7079SOL     OW32455   1.883   8.367   4.043  0.8329 -0.2692  0.0500
 7079SOL    HW132456   1.895   8.458   4.004  0.5505  0.1979  1.0483
 7079SOL    HW232457   1.941   8.357   4.124 -1.6835  0.2512  1.9883
 7080SOL     OW32458   6.805   3.417   1.264 -0.0011  0.0357 -0.3081
 7080SOL    HW132459   6.866   3.356   1.314 -0.2823  0.4803  0.5911
 7080SOL    HW232460   6.858   3.471   1.198  0.5779  0.4589  0.5054
 7081SOL     OW32461   3.494   8.329   7.912 -0.1378  0.3553 -0.3522
 7081SOL    HW132462   3.463   8.267   7.840 -0.5534 -0.3349  0.4077
 7081SOL    HW232463   3.519   8.417   7.872 -0.8706  0.1547 -1.2684
 7082SOL     OW32464   6.657   1.575   1.575 -0.2602 -0.4323 -1.0090
 7082SOL    HW132465   6.649   1.635   1.496 -2.6938  0.4279 -0.1509
 7082SOL    HW232466   6.644   1.628   1.659 -0.2802 -1.7637 -0.1541
 7083SOL     OW32467   1.085   5.609   1.304 -0.0699  0.0660 -0.1006
 7083SOL    HW132468   1.108   5.706   1.314  0.0272  0.0066  0.2414
 7083SOL    HW232469   1.109   5.579   1.211  1.4277 -0.0440  0.3063
 7084SOL     OW32470   9.054   7.893   5.302  0.2887  0.2526 -0.2085
 7084SOL    HW132471   9.055   7.974   5.360 -3.1372  0.5558 -0.4835
 7084SOL    HW232472   9.141   7.845   5.311  2.0541  3.4381  0.6451
 7085SOL     OW32473   7.874   9.760   2.818 -0.1401 -0.0626  0.3978
 7085SOL    HW132474   7.802   9.827   2.805  0.0030  0.0715  0.2986
 7085SOL    HW232475   7.932   9.787   2.894 -1.9987 -1.7214  2.4547
 7086SOL     OW32476   8.733   7.016   4.876 -0.1063  0.5791  0.4715
 7086SOL    HW132477   8.777   7.078   4.812  0.1783 -1.1391 -1.0233
 7086SOL    HW232478   8.759   7.041   4.970  1.6988  1.3961 -0.2272
 7087SOL     OW32479   0.557   1.683   4.997 -0.5908 -0.1014 -0.4092
 7087SOL    HW132480   0.550   1.641   4.906  3.1344 -1.5796 -0.1099
 7087SOL    HW232481   0.531   1.616   5.066 -0.6065  0.0831 -0.2361
 7088SOL     OW32482   4.573   8.183   6.211  0.3023 -0.4061 -0.0790
 7088SOL    HW132483   4.616   8.204   6.123  0.1920 -1.9061 -0.5081
 7088SOL    HW232484   4.535   8.266   6.250  1.8187  0.5833 -0.6571
 7089SOL     OW32485   8.823   1.647   0.242 -1.0509 -0.1809  0.1652
 7089SOL    HW132486   8.786   1.555   0.257 -0.7681 -0.1863  0.8082
 7089SOL    HW232487   8.748   1.713   0.240 -1.3245 -0.5029 -0.9771
 7090SOL     OW32488   4.876   3.592   1.039 -0.1928  0.2869 -0.2844
 7090SOL    HW132489   4.963   3.633   1.015  0.0128  0.8948  1.4144
 7090SOL    HW232490   4.806   3.663   1.044 -0.1197  0.2725  1.3354
 7091SOL     OW32491   4.806   9.408   5.421 -0.4792  0.4819 -0.2993
 7091SOL    HW132492   4.787   9.479   5.488 -0.0081  1.0826 -0.7933
 7091SOL    HW232493   4.771   9.320   5.454 -0.2470  0.7714  0.7180
 7092SOL     OW32494   0.042   3.155   1.504  0.7395  0.5827 -0.2130
 7092SOL    HW132495   0.141   3.168   1.497  0.7691  0.0792 -0.8840
 7092SOL    HW232496   0.002   3.229   1.557  1.1334  2.3270 -2.2525
 7093SOL     OW32497   9.518   7.189   4.853 -0.2105 -0.6951 -0.1520
 7093SOL    HW132498   9.599   7.237   4.820 -1.3602  0.7231 -0.9423
 7093SOL    HW232499   9.536   7.152   4.944  0.4416  1.8707  0.7915
 7094SOL     OW32500   9.281   6.468   3.942 -0.1938 -0.7440  0.2152
 7094SOL    HW132501   9.279   6.479   3.843 -0.3195 -1.2003  0.1702
 7094SOL    HW232502   9.189   6.479   3.979  0.0197  0.5676  0.4046
 7095SOL     OW32503   6.202   2.539   0.404 -0.0214  0.2648  0.8072
 7095SOL    HW132504   6.133   2.567   0.471  0.3277 -0.4264  1.4648
 7095SOL    HW232505   6.273   2.609   0.398 -2.7790  2.9318 -2.8183
 7096SOL     OW32506   1.158   6.310   1.110 -0.0233 -0.0743  0.8524
 7096SOL    HW132507   1.200   6.379   1.169  0.5381  0.3211 -0.0140
 7096SOL    HW232508   1.219   6.231   1.103 -0.2378 -0.2612  1.0603
 7097SOL     OW32509   4.955   9.600   4.626 -0.2747 -0.2167 -0.3341
 7097SOL    HW132510   4.969   9.646   4.539  1.1295  0.4096  0.2021
 7097SOL    HW232511   5.009   9.516   4.628 -1.6210 -1.0966 -0.7109
 7098SOL     OW32512   8.166   9.148   1.245  0.2479 -0.2912 -0.1206
 7098SOL    HW132513   8.253   9.185   1.213  0.3175  0.1589  0.5901
 7098SOL    HW232514   8.091   9.202   1.207  0.2627 -0.8032 -0.8974
 7099SOL     OW32515   9.654   2.616   3.247 -0.7297  0.4484  0.2560
 7099SOL    HW132516   9.636   2.667   3.331  0.3626  0.6033  0.3987
 7099SOL    HW232517   9.664   2.519   3.269  1.0752  0.6888  0.5162
 7100SOL     OW32518   4.529   1.846   3.350 -0.0494  0.0128  0.2178
 7100SOL    HW132519   4.504   1.781   3.278 -0.1378  0.2513  0.0301
 7100SOL    HW232520   4.599   1.908   3.316 -0.4773  0.4706  0.1499
 7101SOL     OW32521   4.499   8.388   4.779 -0.3548  0.2315  0.7922
 7101SOL    HW132522   4.512   8.367   4.682 -0.2642  0.9027  0.6620
 7101SOL    HW232523   4.526   8.309   4.834  0.2703  0.1098  0.3099
 7102SOL     OW32524   5.328   1.028   2.345  0.3519  0.3862  0.3239
 7102SOL    HW132525   5.350   0.941   2.301  0.0007  1.3227 -1.7302
 7102SOL    HW232526   5.234   1.026   2.379  0.0546  0.3013 -0.5177
 7103SOL     OW32527   6.963   4.999   1.081  0.3324 -0.5319 -1.0122
 7103SOL    HW132528   6.900   4.939   1.031 -0.0595 -0.7938 -0.2141
 7103SOL    HW232529   7.019   4.944   1.143  0.2446 -0.1132 -0.5638
 7104SOL     OW32530   8.236   9.609   6.355  0.5097 -0.0903  0.2342
 7104SOL    HW132531   8.201   9.600   6.449 -0.3881  0.5817 -0.0251
 7104SOL    HW232532   8.171   9.566   6.292  0.3429  0.8292 -0.2189
 7105SOL     OW32533   4.779   4.652   7.861 -0.1503  0.2360 -0.5519
 7105SOL    HW132534   4.806   4.596   7.783  1.1382  0.7541 -0.4875
 7105SOL    HW232535   4.861   4.683   7.910 -0.9045  0.8886  0.3210
 7106SOL     OW32536   4.187   8.678   5.550  0.0292 -0.5598  0.0023
 7106SOL    HW132537   4.154   8.589   5.520  1.2939 -1.0682  0.0910
 7106SOL    HW232538   4.217   8.672   5.645 -1.4578  0.3891  0.5633
 7107SOL     OW32539   4.765   0.701   3.637 -0.4450  0.0964  0.0540
 7107SOL    HW132540   4.681   0.662   3.599  0.2714 -1.2841 -0.1248
 7107SOL    HW232541   4.755   0.713   3.735 -1.1032  0.6041 -0.0682
 7108SOL     OW32542   2.786   8.315   0.958 -0.2800  0.0879 -0.4027
 7108SOL    HW132543   2.786   8.415   0.965 -0.0455 -0.0577  2.2340
 7108SOL    HW232544   2.789   8.289   0.862  0.0707  2.6184 -1.1319
 7109SOL     OW32545   5.140   8.289   4.706 -0.2013  0.1436 -0.0249
 7109SOL    HW132546   5.085   8.256   4.629 -1.2891  1.0294  0.3765
 7109SOL    HW232547   5.236   8.296   4.677 -0.2301 -1.6425 -0.6440
 7110SOL     OW32548   9.403   8.463   3.585 -0.2196 -0.3037  0.3779
 7110SOL    HW132549   9.417   8.499   3.677 -1.5574  1.3300 -0.0339
 7110SOL    HW232550   9.491   8.452   3.539  0.2999  1.1503  1.0150
 7111SOL     OW32551   8.626   3.124   3.878 -0.4477 -0.3684  0.1488
 7111SOL    HW132552   8.694   3.089   3.944 -0.0675 -0.5209 -0.3240
 7111SOL    HW232553   8.662   3.206   3.834 -0.6893 -0.2928  0.0920
 7112SOL     OW32554   9.250   3.143   3.872  0.2097  0.2416  0.0600
 7112SOL    HW132555   9.231   3.056   3.828  0.4642 -0.2666  0.9497
 7112SOL    HW232556   9.323   3.132   3.939 -0.2071  0.9920  0.6563
 7113SOL     OW32557   2.370   4.926   0.768 -0.0686  0.4222 -0.2791
 7113SOL    HW132558   2.431   4.870   0.712  0.8037 -0.5616  1.6105
 7113SOL    HW232559   2.419   5.008   0.799  0.1650 -0.1098  0.8034
 7114SOL     OW32560   8.072   0.892   4.690  0.2449 -0.4261 -0.5337
 7114SOL    HW132561   8.154   0.937   4.655 -0.2429 -0.1480 -1.3325
 7114SOL    HW232562   8.073   0.795   4.663  1.0064 -0.7634  0.6818
 7115SOL     OW32563   5.321   9.462   4.130  0.6028  0.0252 -0.4605
 7115SOL    HW132564   5.376   9.455   4.047  1.1082 -0.8826 -0.0609
 7115SOL    HW232565   5.370   9.418   4.206  0.3341  1.1967  0.4098
 7116SOL     OW32566   2.916   1.004   4.665  0.0066  0.1378  0.2278
 7116SOL    HW132567   2.886   1.087   4.713  0.6702  0.1145  0.6928
 7116SOL    HW232568   2.942   1.028   4.571  0.0481  0.4351  0.3122
 7117SOL     OW32569   0.499   6.190   0.308  0.1242  0.1798  0.2207
 7117SOL    HW132570   0.510   6.160   0.403 -0.7543  0.3930  0.3907
 7117SOL    HW232571   0.566   6.142   0.251 -0.0599 -0.7635  0.7788
 7118SOL     OW32572   1.196   9.440   2.275 -0.6859  0.5373 -0.1201
 7118SOL    HW132573   1.245   9.526   2.260 -1.6295  1.4442  1.7437
 7118SOL    HW232574   1.192   9.421   2.373 -1.7379 -0.8951 -0.4308
 7119SOL     OW32575   2.231   1.869   4.418  0.4357  0.2703 -0.2526
 7119SOL    HW132576   2.132   1.870   4.409  0.2268 -0.6037  1.6691
 7119SOL    HW232577   2.259   1.785   4.465  1.9724  1.1087  0.3648
 7120SOL     OW32578   6.702   5.382   1.086 -0.4486  0.3698  0.4527
 7120SOL    HW132579   6.674   5.287   1.100 -1.5507  0.4166 -1.2893
 7120SOL    HW232580   6.781   5.402   1.144  1.1550 -2.2259 -0.7546
 7121SOL     OW32581   8.358   4.684   0.717  0.3215 -0.0145  0.0240
 7121SOL    HW132582   8.303   4.739   0.654 -2.4220 -1.3340  1.1629
 7121SOL    HW232583   8.404   4.612   0.666  0.7030  0.8743 -0.9087
 7122SOL     OW32584   6.189   1.834   1.691  0.3015  0.3788 -0.2829
 7122SOL    HW132585   6.101   1.860   1.651 -1.3943 -2.4420  1.4940
 7122SOL    HW232586   6.226   1.754   1.644 -0.3019 -1.1960  1.8670
 7123SOL     OW32587   9.763   5.994   0.927 -0.4505  0.4716  0.0952
 7123SOL    HW132588   9.854   5.956   0.938 -1.0333 -1.1489 -0.4655
 7123SOL    HW232589   9.697   5.936   0.974 -1.3835  0.6808 -0.9153
 7124SOL     OW32590   3.085   5.654   4.662 -0.8334  0.2865 -0.3557
 7124SOL    HW132591   3.071   5.711   4.744  0.9465 -0.5472  0.5399
 7124SOL    HW232592   3.089   5.558   4.688  1.5041  0.1350 -1.1951
 7125SOL     OW32593   0.499   1.789   3.345 -0.3609 -0.2133 -0.0392
 7125SOL    HW132594   0.554   1.705   3.340 -2.1899 -1.4569  0.0827
 7125SOL    HW232595   0.459   1.807   3.256 -0.5507  0.1405  0.1192
 7126SOL     OW32596   0.250   5.793   1.615  0.5646 -0.0435  0.1047
 7126SOL    HW132597   0.327   5.856   1.609 -0.5108  1.1563 -1.3058
 7126SOL    HW232598   0.247   5.752   1.706  0.1532  3.3975  1.6906
 7127SOL     OW32599   7.759   0.914   1.288 -0.2487  0.4919 -0.1644
 7127SOL    HW132600   7.852   0.879   1.292 -0.4286 -0.0653 -0.7002
 7127SOL    HW232601   7.757   1.000   1.236 -0.2910 -0.4244 -1.7262
 7128SOL     OW32602   8.968   0.635   4.647  0.3924  0.5195  0.5809
 7128SOL    HW132603   8.985   0.628   4.549  2.0574 -0.1185  0.8966
 7128SOL    HW232604   8.878   0.599   4.668  0.7881 -1.1264 -0.4793
 7129SOL     OW32605   5.763   0.865   7.021 -0.3702 -0.0388  0.3617
 7129SOL    HW132606   5.737   0.867   6.925  0.4185 -0.1350  0.1433
 7129SOL    HW232607   5.827   0.790   7.038 -0.2344  0.1859  0.8882
 7130SOL     OW32608   9.191   7.396   1.607  0.5379  0.2739  0.2051
 7130SOL    HW132609   9.253   7.471   1.583  0.3204 -0.5371 -3.1423
 7130SOL    HW232610   9.102   7.433   1.633  0.3711  1.2193 -1.6179
 7131SOL     OW32611   3.931   8.529   4.268 -0.3013 -0.0541  0.1778
 7131SOL    HW132612   3.956   8.574   4.354  0.5162 -0.1041 -0.0334
 7131SOL    HW232613   3.847   8.571   4.232 -0.1376  0.5784  0.5281
 7132SOL     OW32614   1.570   3.043   0.804 -0.3074  0.1862  0.2510
 7132SOL    HW132615   1.638   3.095   0.856  0.3048 -0.4656  0.1024
 7132SOL    HW232616   1.508   2.997   0.867  0.4673 -0.6479  0.4078
 7133SOL     OW32617   2.799   7.290   2.915 -0.4174 -0.3613  0.0114
 7133SOL    HW132618   2.741   7.235   2.855 -0.2529  0.3016 -0.7757
 7133SOL    HW232619   2.756   7.299   3.005 -0.3067 -1.9813  0.2328
 7134SOL     OW32620   4.594   1.935   2.387 -0.0428 -0.5496 -0.1633
 7134SOL    HW132621   4.567   1.988   2.307 -1.7363 -0.6043  0.3610
 7134SOL    HW232622   4.610   1.840   2.361  0.7166 -0.2882 -0.6693
 7135SOL     OW32623   4.907   7.529   3.480  0.1846  0.0057 -0.2279
 7135SOL    HW132624   4.992   7.563   3.519 -0.3833  0.4118  0.6895
 7135SOL    HW232625   4.877   7.447   3.530 -0.2594  0.2102 -0.1500
 7136SOL     OW32626   7.743   5.165   3.078  0.0345 -0.7674 -0.0221
 7136SOL    HW132627   7.707   5.123   3.162  1.0032 -0.8382  0.3658
 7136SOL    HW232628   7.841   5.146   3.071  0.1627  0.1189 -0.6452
 7137SOL     OW32629   7.678   5.834   5.435 -0.0895 -0.0801  0.0487
 7137SOL    HW132630   7.726   5.851   5.521  0.6655 -0.9147 -0.1970
 7137SOL    HW232631   7.591   5.790   5.453  0.3957 -0.9317  0.3539
 7138SOL     OW32632   8.465   4.152   3.058  0.3059 -0.4389  0.9084
 7138SOL    HW132633   8.459   4.242   3.016 -1.2707 -1.0671 -0.2113
 7138SOL    HW232634   8.455   4.161   3.157 -0.3814  0.5575  0.7534
 7139SOL     OW32635   3.982   3.947   0.692  0.2808 -0.3331  0.0244
 7139SOL    HW132636   4.001   4.043   0.668  0.3465 -0.4524 -0.4136
 7139SOL    HW232637   3.940   3.902   0.613  1.4405 -1.0089 -0.2046
 7140SOL     OW32638   0.508   3.595   1.730  0.2070 -0.0429 -0.2045
 7140SOL    HW132639   0.443   3.629   1.662 -0.8303  0.3134  0.9170
 7140SOL    HW232640   0.459   3.578   1.816  1.4549 -0.6101  0.4090
 7141SOL     OW32641   2.569   5.280   3.254 -0.4835  0.7631 -0.4090
 7141SOL    HW132642   2.662   5.245   3.248 -1.4525 -1.6389 -2.2160
 7141SOL    HW232643   2.539   5.314   3.165 -1.8677  0.0645 -0.2277
 7142SOL     OW32644   1.063   5.263   3.496 -0.2415 -0.2086  0.1681
 7142SOL    HW132645   1.107   5.326   3.432 -0.5668 -0.2301 -0.0779
 7142SOL    HW232646   1.085   5.291   3.590  0.3980 -0.2931  0.0502
 7143SOL     OW32647   2.235   4.957   4.391 -0.0143  0.4089  0.1345
 7143SOL    HW132648   2.209   4.866   4.361 -0.0388  0.4250  0.1058
 7143SOL    HW232649   2.178   5.025   4.346 -1.7887  0.3065  2.1550
 7144SOL     OW32650   8.889   5.163   3.417  0.2041 -0.5861  0.0642
 7144SOL    HW132651   8.869   5.090   3.352  0.9404 -0.4604 -0.3171
 7144SOL    HW232652   8.952   5.129   3.487  1.7838  0.0889 -0.9902
 7145SOL     OW32653   8.563   6.385   1.285 -0.1769 -0.2576  0.4046
 7145SOL    HW132654   8.520   6.331   1.213  0.7529 -0.0136 -0.3470
 7145SOL    HW232655   8.661   6.368   1.285 -0.2241 -0.5784  1.9050
 7146SOL     OW32656   3.609   6.052   1.818  0.0083 -0.3419 -0.0329
 7146SOL    HW132657   3.628   6.094   1.907  3.5618  2.6107 -2.0706
 7146SOL    HW232658   3.691   6.005   1.786 -0.6293  0.2340 -2.5763
 7147SOL     OW32659   1.223   0.510   1.839 -0.7545 -0.2552 -0.0780
 7147SOL    HW132660   1.199   0.602   1.808  3.1447  0.2302 -1.9863
 7147SOL    HW232661   1.238   0.451   1.760  0.9862 -1.3583  1.0400
 7148SOL     OW32662   5.811   0.865   3.432  0.0043 -0.4390  0.0310
 7148SOL    HW132663   5.911   0.865   3.436  0.0730 -1.6132 -1.2981
 7148SOL    HW232664   5.780   0.932   3.364 -0.1481  0.4578  0.9755
 7149SOL     OW32665   1.068   7.895   2.742 -0.1685 -0.6966 -0.7621
 7149SOL    HW132666   1.084   7.961   2.669  1.5302 -1.1450 -0.8139
 7149SOL    HW232667   1.032   7.942   2.822  1.4834  0.3922 -0.6361
 7150SOL     OW32668   1.833   5.534   3.162 -0.1228 -0.3977 -0.1588
 7150SOL    HW132669   1.929   5.511   3.177  0.3821  1.8802  0.3445
 7150SOL    HW232670   1.799   5.587   3.239 -0.1849  3.4149 -2.6483
 7151SOL     OW32671   9.750   3.807   5.262  0.5141 -0.2318  0.1347
 7151SOL    HW132672   9.780   3.902   5.263  1.0646 -0.4051  1.1160
 7151SOL    HW232673   9.657   3.801   5.299 -0.3257  0.1725 -1.8756
 7152SOL     OW32674   0.407   1.157   4.550 -0.2423 -0.4272  0.1463
 7152SOL    HW132675   0.473   1.200   4.488 -1.0844  0.6971  0.0081
 7152SOL    HW232676   0.444   1.158   4.643  0.0890 -0.1173  0.0150
 7153SOL     OW32677   1.555   8.090   3.393 -0.8501  0.0390  0.9539
 7153SOL    HW132678   1.608   8.049   3.319  2.0158 -1.0614  3.5517
 7153SOL    HW232679   1.504   8.168   3.357  0.1022 -0.7432 -2.2670
 7154SOL     OW32680   0.843   2.200   2.238 -0.1847  0.6400 -0.0623
 7154SOL    HW132681   0.760   2.255   2.241 -1.7521 -1.4522 -2.5317
 7154SOL    HW232682   0.886   2.209   2.149  1.2904  0.3670  0.6103
 7155SOL     OW32683   0.242   6.375   7.952 -0.0038 -0.5190  0.2940
 7155SOL    HW132684   0.246   6.319   8.034 -1.7917  0.5887  1.1872
 7155SOL    HW232685   0.188   6.327   7.882  0.0777 -0.7270  0.3715
 7156SOL     OW32686   7.684   6.602   3.631 -0.1574  0.2221  0.7351
 7156SOL    HW132687   7.754   6.628   3.564 -1.3594 -0.6710 -0.8941
 7156SOL    HW232688   7.661   6.505   3.619 -0.7569  0.1865  2.1090
 7157SOL     OW32689   4.134   2.761   2.681  0.8591 -0.2387  0.0584
 7157SOL    HW132690   4.206   2.782   2.747  0.3000  0.1903  0.5339
 7157SOL    HW232691   4.143   2.666   2.651  0.6030 -0.7037  1.4107
 7158SOL     OW32692   7.937   1.507   1.408  0.5772  0.4815 -0.0379
 7158SOL    HW132693   7.949   1.456   1.323  0.8856 -0.6428  0.6770
 7158SOL    HW232694   7.842   1.537   1.415  0.1260 -0.9426  0.0631
 7159SOL     OW32695   9.051   4.807   1.831 -0.3342  0.2158  0.2032
 7159SOL    HW132696   9.052   4.723   1.886  1.0870 -0.6517 -1.1383
 7159SOL    HW232697   9.068   4.885   1.891 -0.6232 -0.5353  1.2948
 7160SOL     OW32698   0.686   8.025   1.574  0.3722 -0.5506 -0.3414
 7160SOL    HW132699   0.730   7.992   1.658 -0.6132  0.0959  0.4489
 7160SOL    HW232700   0.589   8.000   1.575  1.1641 -4.0794 -3.2009
 7161SOL     OW32701   1.443   9.626   5.661  0.4397 -0.1503 -0.3609
 7161SOL    HW132702   1.435   9.624   5.760 -0.3857  1.6593 -0.3564
 7161SOL    HW232703   1.510   9.559   5.631  0.2720 -1.1131  1.3685
 7162SOL     OW32704   9.531   2.757   0.222  0.8086  0.3671  0.0931
 7162SOL    HW132705   9.442   2.729   0.187  0.5926  1.3640 -0.1722
 7162SOL    HW232706   9.520   2.799   0.312  1.4275 -2.7370  1.6943
 7163SOL     OW32707   7.825   6.672   2.121  0.5479 -0.3078  0.5788
 7163SOL    HW132708   7.801   6.685   2.218 -0.4395  0.3926  0.2534
 7163SOL    HW232709   7.759   6.610   2.079  1.0128 -0.6596  0.3614
 7164SOL     OW32710   7.712   9.383   6.210  0.5777  0.5521  0.3798
 7164SOL    HW132711   7.665   9.462   6.171  1.6590  1.3267  0.6194
 7164SOL    HW232712   7.704   9.306   6.147  2.1782  1.7417 -1.3552
 7165SOL     OW32713   7.097   1.071   6.076  0.0670  0.4721  0.3102
 7165SOL    HW132714   7.060   1.048   5.986  0.2499  0.6799  0.1828
 7165SOL    HW232715   7.184   1.023   6.089  0.1373  0.5961  0.2967
 7166SOL     OW32716   6.509   7.458   5.899  0.4643  0.6610 -0.0860
 7166SOL    HW132717   6.576   7.402   5.850  1.0442  2.5213 -1.4632
 7166SOL    HW232718   6.417   7.423   5.881  0.6868  1.2148 -2.3821
 7167SOL     OW32719   9.767   8.600   0.716 -0.2729 -0.1031  0.1443
 7167SOL    HW132720   9.799   8.693   0.734 -1.8193  0.3557  0.6217
 7167SOL    HW232721   9.837   8.549   0.667  0.7179  1.2132  0.1767
 7168SOL     OW32722   8.200   8.464   5.915 -0.0706  0.0206  0.8368
 7168SOL    HW132723   8.208   8.379   5.968  0.6164 -0.6586 -0.3251
 7168SOL    HW232724   8.151   8.445   5.829  1.7041  0.3936 -0.2841
 7169SOL     OW32725   3.197   4.678   1.556 -0.1534 -0.3027 -0.8203
 7169SOL    HW132726   3.109   4.665   1.601 -0.5743 -0.2317 -1.6014
 7169SOL    HW232727   3.215   4.776   1.545 -0.2728 -0.3223 -1.2148
 7170SOL     OW32728   8.698   0.126   4.289  0.2737 -0.4870 -0.2393
 7170SOL    HW132729   8.621   0.075   4.327 -1.6908  2.3123 -0.2203
 7170SOL    HW232730   8.747   0.173   4.362  0.8698 -0.7956 -0.4409
 7171SOL     OW32731   9.988   6.686   5.020  0.6671 -0.2818  0.9082
 7171SOL    HW132732   9.939   6.738   4.950  0.5324  0.0370  1.2408
 7171SOL    HW232733   9.953   6.709   5.110  0.6945 -0.8538  1.0686
 7172SOL     OW32734   4.352   7.361   4.886 -0.8142  0.2969 -0.4695
 7172SOL    HW132735   4.263   7.317   4.888 -1.1334  0.9922  0.8014
 7172SOL    HW232736   4.406   7.333   4.965 -0.3538  0.7985 -0.5998
 7173SOL     OW32737   0.473   5.282   1.214  0.7938 -0.4748  0.0065
 7173SOL    HW132738   0.489   5.345   1.138  0.1518 -1.1645 -0.7095
 7173SOL    HW232739   0.482   5.188   1.182  0.6254 -0.7731  0.8103
 7174SOL     OW32740   6.750   2.653   2.009 -0.2178  0.0403 -0.1255
 7174SOL    HW132741   6.815   2.709   2.061 -0.5827  0.0510  0.3174
 7174SOL    HW232742   6.767   2.666   1.911  1.0655 -0.6844 -0.0104
 7175SOL     OW32743   4.369   4.124   0.896 -0.2304  0.1906 -0.3356
 7175SOL    HW132744   4.277   4.158   0.881 -0.6872 -0.8954 -0.0780
 7175SOL    HW232745   4.403   4.081   0.812  0.5479  1.7193 -0.8232
 7176SOL     OW32746   3.705   4.091   3.023 -0.4785 -0.4654  0.0576
 7176SOL    HW132747   3.755   4.079   3.108  0.4186 -0.4039 -0.4571
 7176SOL    HW232748   3.612   4.055   3.034  0.2086 -2.1951  0.4830
 7177SOL     OW32749   6.581   4.489   2.048  0.1597  0.0602 -0.0730
 7177SOL    HW132750   6.654   4.529   1.993 -1.1665  2.0087 -0.4323
 7177SOL    HW232751   6.502   4.550   2.050 -1.3963 -1.9019  0.5232
 7178SOL     OW32752   5.928   5.344   1.333 -0.5415  0.2163 -0.1780
 7178SOL    HW132753   5.975   5.295   1.406  0.3904  0.2255 -0.7594
 7178SOL    HW232754   5.861   5.407   1.373 -0.4074 -0.1505  0.6425
 7179SOL     OW32755   1.560   6.619   4.273 -0.2382 -0.3386 -0.0147
 7179SOL    HW132756   1.480   6.559   4.267 -1.1993  0.9523 -0.3756
 7179SOL    HW232757   1.530   6.714   4.280  1.2749  0.1971 -0.5483
 7180SOL     OW32758   3.609   9.123   1.667 -0.0277 -0.4332  0.1349
 7180SOL    HW132759   3.624   9.123   1.568 -1.4692 -0.7994 -0.0956
 7180SOL    HW232760   3.650   9.205   1.707  0.3589 -0.1630 -0.7953
 7181SOL     OW32761   4.986   1.409   0.882 -0.0308 -0.1123  0.4813
 7181SOL    HW132762   5.027   1.412   0.973 -0.2859 -0.3649  0.6051
 7181SOL    HW232763   4.924   1.486   0.871  0.3965  0.2129  0.3310
 7182SOL     OW32764   6.978   3.174   3.621 -0.3029 -0.0839 -0.3267
 7182SOL    HW132765   6.898   3.223   3.587 -0.5346 -0.7267 -0.7285
 7182SOL    HW232766   7.010   3.216   3.706 -1.6749 -0.4376  0.3800
 7183SOL     OW32767   3.903   3.340   0.963 -0.1765  0.3552 -0.1910
 7183SOL    HW132768   3.987   3.327   1.015 -0.4292  0.9607  0.3759
 7183SOL    HW232769   3.922   3.394   0.881  0.0671  0.1186 -0.2901
 7184SOL     OW32770   4.279   6.385   1.967  0.1949  0.0868  0.1376
 7184SOL    HW132771   4.330   6.467   1.996 -1.1615  1.1310 -0.3546
 7184SOL    HW232772   4.335   6.331   1.905  1.2585  0.4404  0.7696
 7185SOL     OW32773   7.688   8.705   4.896  0.2482  0.5025  0.0364
 7185SOL    HW132774   7.591   8.681   4.900  0.2658  0.6386  1.4251
 7185SOL    HW232775   7.708   8.751   4.809 -1.1247  1.3528  0.1634
 7186SOL     OW32776   6.004   0.195   3.131  0.4369  0.0091 -0.3487
 7186SOL    HW132777   6.061   0.132   3.185  0.4444 -0.3977 -0.8273
 7186SOL    HW232778   5.911   0.159   3.125 -0.0779  1.0854  1.1178
 7187SOL     OW32779   6.654   5.024   2.238  0.2127  0.4111  0.4822
 7187SOL    HW132780   6.743   5.062   2.213 -0.1990  0.6401 -0.6639
 7187SOL    HW232781   6.662   4.974   2.325  2.0793 -1.8018 -0.8918
 7188SOL     OW32782   8.275   5.587   5.534  0.5159 -0.4110  0.0137
 7188SOL    HW132783   8.318   5.667   5.493  0.9475 -0.8754 -0.4390
 7188SOL    HW232784   8.207   5.549   5.471  1.6570 -1.5222 -0.5485
 7189SOL     OW32785   6.444   2.409   4.642  0.1107 -0.5193  0.1733
 7189SOL    HW132786   6.393   2.330   4.607 -0.2699 -0.5924  0.8755
 7189SOL    HW232787   6.542   2.393   4.630 -0.0415  0.0003 -1.9916
 7190SOL     OW32788   1.405   9.863   4.051 -0.1699 -0.7932 -0.0730
 7190SOL    HW132789   1.362   9.839   4.138  0.8995 -1.3886  0.3097
 7190SOL    HW232790   1.337   9.860   3.978 -1.8152  2.8532  1.2128
 7191SOL     OW32791   0.741   1.806   5.133  0.9354 -0.0435 -0.0268
 7191SOL    HW132792   0.670   1.765   5.074  2.0983 -0.2480 -1.3128
 7191SOL    HW232793   0.817   1.837   5.076  0.6461  2.7522  1.0569
 7192SOL     OW32794   9.108   4.168   1.103 -0.0423 -0.4430  0.3305
 7192SOL    HW132795   9.046   4.151   1.179 -0.2763  0.3385  0.3218
 7192SOL    HW232796   9.180   4.231   1.132  0.7930 -1.4002  0.3620
 7193SOL     OW32797   6.460   9.077   4.949  0.5862 -0.0894  0.0431
 7193SOL    HW132798   6.365   9.106   4.960  0.5018 -0.7820  1.2236
 7193SOL    HW232799   6.504   9.072   5.039  1.0713 -2.0212 -0.2780
 7194SOL     OW32800   6.576   4.772   0.504 -0.1555 -0.0236  0.3316
 7194SOL    HW132801   6.632   4.854   0.512  2.2229 -1.7148  1.6929
 7194SOL    HW232802   6.581   4.737   0.411 -1.4819  1.5360 -0.3564
 7195SOL     OW32803   8.323   3.459   2.534  0.2563 -0.4746  0.2479
 7195SOL    HW132804   8.423   3.460   2.522  0.3694 -0.0725  1.1384
 7195SOL    HW232805   8.279   3.499   2.453  0.8371 -0.3163  0.0073
 7196SOL     OW32806   8.990   2.580   1.842 -0.1317 -0.4588  0.0391
 7196SOL    HW132807   8.916   2.595   1.907 -0.2028 -0.4486 -0.0448
 7196SOL    HW232808   8.958   2.521   1.768  0.0153 -0.6486  0.1296
 7197SOL     OW32809   4.125   2.493   2.627 -0.6827 -0.3015  0.0389
 7197SOL    HW132810   4.117   2.421   2.558 -0.2132 -1.1003  0.8025
 7197SOL    HW232811   4.150   2.453   2.715  0.2358  0.8534  0.3346
 7198SOL     OW32812   3.854   2.533   2.523 -0.1188  0.5586  0.2874
 7198SOL    HW132813   3.811   2.485   2.599 -0.2563  0.3621  0.0873
 7198SOL    HW232814   3.947   2.558   2.548  0.3583 -0.8346 -0.0201
 7199SOL     OW32815   3.368   4.046   2.614 -0.3304  0.2256 -0.4845
 7199SOL    HW132816   3.395   3.950   2.614 -0.2993  0.2337 -1.0592
 7199SOL    HW232817   3.435   4.100   2.564 -0.6151  0.4718 -0.6032
 7200SOL     OW32818   2.608   7.567   4.319 -0.3049  0.2959  0.2431
 7200SOL    HW132819   2.611   7.637   4.248 -1.3325  0.0398 -0.0669
 7200SOL    HW232820   2.619   7.609   4.409  0.0345  0.7365 -0.0037
 7201SOL     OW32821   2.822   0.717   1.011  0.7524  0.3327 -0.2364
 7201SOL    HW132822   2.813   0.747   1.106 -0.7343 -0.0239 -0.2559
 7201SOL    HW232823   2.798   0.792   0.949  3.1328  1.0365 -0.3854
 7202SOL     OW32824   0.811   7.194   1.275  0.0597 -0.2249 -0.2131
 7202SOL    HW132825   0.788   7.288   1.301 -0.8658 -0.6410  0.4670
 7202SOL    HW232826   0.903   7.172   1.307  0.4786  0.6108 -0.8088
 7203SOL     OW32827   6.286   0.295   4.980  0.0729 -0.7450  0.1729
 7203SOL    HW132828   6.306   0.278   5.077  0.0570 -1.1638  0.1024
 7203SOL    HW232829   6.256   0.211   4.937 -0.2892 -0.4706 -0.1105
 7204SOL     OW32830   0.364   7.488   3.333  0.4639  0.7670  0.1405
 7204SOL    HW132831   0.327   7.396   3.323  2.0126  0.2965 -1.4942
 7204SOL    HW232832   0.427   7.490   3.412 -0.3927  0.7169  0.8337
 7205SOL     OW32833   7.170   4.377   0.092  0.2055 -0.0524 -0.8471
 7205SOL    HW132834   7.236   4.308   0.062 -1.2172 -1.5621 -0.5795
 7205SOL    HW232835   7.140   4.355   0.185  0.5563  1.5605 -0.3384
 7206SOL     OW32836   1.638   8.117   4.206  0.1302  0.0735 -0.1239
 7206SOL    HW132837   1.552   8.104   4.158  0.4489 -1.3458 -0.3618
 7206SOL    HW232838   1.630   8.193   4.271 -0.9394  0.6605 -0.9391
 7207SOL     OW32839   3.344   3.856   3.621 -0.1097  0.0771 -0.2489
 7207SOL    HW132840   3.372   3.912   3.542  0.4167  1.8162  1.1355
 7207SOL    HW232841   3.329   3.916   3.700 -0.5372 -1.6547  0.9974
 7208SOL     OW32842   2.036   5.493   2.666  0.3495 -0.6500 -0.6862
 7208SOL    HW132843   2.092   5.559   2.614  1.3370  0.7660  2.0945
 7208SOL    HW232844   2.088   5.408   2.677 -0.6302 -1.6938 -3.6309
 7209SOL     OW32845   3.156   6.462   2.200 -0.3952 -0.7670  0.4265
 7209SOL    HW132846   3.109   6.453   2.287 -0.5504  0.7164  0.5005
 7209SOL    HW232847   3.089   6.464   2.126 -0.1704 -5.0654 -0.0417
 7210SOL     OW32848   1.110   7.073   6.211 -0.0638  0.4634 -0.2359
 7210SOL    HW132849   1.144   7.031   6.127  1.1055  0.1568  0.3865
 7210SOL    HW232850   1.025   7.029   6.238 -1.0004  1.2475 -1.8135
 7211SOL     OW32851   3.658   9.813   5.822 -0.1983  0.3339 -0.2676
 7211SOL    HW132852   3.758   9.804   5.831 -0.0495  0.0018 -1.9676
 7211SOL    HW232853   3.617   9.823   5.912  1.3856  0.5144  0.4510
 7212SOL     OW32854   5.371   2.062   1.029  0.4399  0.7207 -0.2924
 7212SOL    HW132855   5.418   2.092   0.946 -0.3192  1.8480 -0.3155
 7212SOL    HW232856   5.392   1.966   1.045  3.7532  1.4681  0.3464
 7213SOL     OW32857   0.074   8.943   1.217  0.0637  0.3437 -0.0666
 7213SOL    HW132858   0.138   8.986   1.153  0.5198 -0.3331 -0.0732
 7213SOL    HW232859   0.116   8.938   1.308  0.1177 -0.3207 -0.1253
 7214SOL     OW32860   9.654   0.731   6.292  0.0453 -0.1704 -0.0197
 7214SOL    HW132861   9.730   0.729   6.226  0.6084  0.9558  0.5794
 7214SOL    HW232862   9.681   0.785   6.371 -1.4966  0.4560  0.0800
 7215SOL     OW32863   2.175   0.851   0.476 -0.1624 -0.0604 -0.2052
 7215SOL    HW132864   2.182   0.892   0.385 -0.6910 -1.2974 -0.8078
 7215SOL    HW232865   2.094   0.889   0.522  0.7642  1.4458  0.2194
 7216SOL     OW32866   0.402   8.185   0.062  0.6903 -0.5761  0.0254
 7216SOL    HW132867   0.333   8.118   0.036  1.6398 -0.5932 -2.6233
 7216SOL    HW232868   0.358   8.265   0.102 -0.8604 -0.6943 -1.4057
 7217SOL     OW32869   6.604   1.374   2.250  0.3456 -0.4836  0.2670
 7217SOL    HW132870   6.565   1.300   2.305  1.2167 -0.0687  1.4916
 7217SOL    HW232871   6.548   1.389   2.169 -1.6187 -0.3965  1.5876
 7218SOL     OW32872   1.972   1.373   4.086 -0.5260  0.1521  0.6995
 7218SOL    HW132873   1.906   1.395   4.015  0.7138  0.6171 -0.3389
 7218SOL    HW232874   1.933   1.307   4.149 -1.1071 -1.5312 -1.3536
 7219SOL     OW32875   0.494   6.639   3.751 -0.0760 -0.2211 -0.2747
 7219SOL    HW132876   0.477   6.557   3.807 -0.7280 -0.3047 -0.5995
 7219SOL    HW232877   0.484   6.720   3.808  0.7066 -0.3597  0.0849
 7220SOL     OW32878   3.378   6.793   3.867  0.2363 -0.3756 -0.0858
 7220SOL    HW132879   3.361   6.707   3.916  0.4263 -1.0631 -1.1908
 7220SOL    HW232880   3.448   6.778   3.798  2.0715  1.3149  1.3723
 7221SOL     OW32881   8.766   2.261   0.402 -0.1427  0.8430  0.2294
 7221SOL    HW132882   8.843   2.244   0.340  1.7920  0.0248  2.7725
 7221SOL    HW232883   8.733   2.354   0.388 -0.5669  0.2651 -2.8785
 7222SOL     OW32884   1.760   9.301   2.790  0.1913  0.6634  0.0277
 7222SOL    HW132885   1.733   9.249   2.708 -1.4500  1.3126  0.1494
 7222SOL    HW232886   1.753   9.399   2.771 -1.9904  0.8253  1.4964
 7223SOL     OW32887   9.148   3.631   4.397  0.2587 -0.4461 -0.1870
 7223SOL    HW132888   9.087   3.561   4.434  1.2927 -1.3408 -0.1383
 7223SOL    HW232889   9.201   3.673   4.471  2.2712 -2.1828 -0.5922
 7224SOL     OW32890   3.827   2.414   4.580 -0.5085  0.4155 -0.3352
 7224SOL    HW132891   3.762   2.365   4.521 -1.3325 -0.2069  1.0469
 7224SOL    HW232892   3.805   2.512   4.580 -2.8607 -0.0585  1.8006
 7225SOL     OW32893   2.321   7.214   1.106  0.0153 -0.1495 -0.0168
 7225SOL    HW132894   2.324   7.289   1.040  0.7967  0.0923  0.2993
 7225SOL    HW232895   2.343   7.128   1.059  0.9109  0.0696 -0.0078
 7226SOL     OW32896   5.696   5.943   1.868 -0.1471  0.1286  0.2536
 7226SOL    HW132897   5.789   5.920   1.838 -0.2921  0.8339 -0.7892
 7226SOL    HW232898   5.630   5.882   1.824 -0.3120  0.7815 -0.4328
 7227SOL     OW32899   7.966   1.709   4.999  0.1653  0.1497  0.3571
 7227SOL    HW132900   8.038   1.641   5.017 -0.6836 -0.8157  0.1982
 7227SOL    HW232901   7.896   1.667   4.941 -0.2450  1.2603  0.0487
 7228SOL     OW32902   1.694   4.216   0.078  0.0502  0.2150 -0.3076
 7228SOL    HW132903   1.654   4.125   0.082  1.9027 -0.6204 -0.4046
 7228SOL    HW232904   1.621   4.285   0.084 -1.5005 -1.2532 -1.8577
 7229SOL     OW32905   7.740   0.012   2.761 -0.1431  0.0843  0.7293
 7229SOL    HW132906   7.739   0.071   2.842  0.5585 -1.1607  1.6610
 7229SOL    HW232907   7.828   0.022   2.714 -0.0298 -0.2069  0.8799
 7230SOL     OW32908   9.296   7.356   2.100 -0.0854  0.1292 -0.1002
 7230SOL    HW132909   9.206   7.400   2.105  0.8703  2.0196  0.6898
 7230SOL    HW232910   9.296   7.273   2.157 -1.1408  0.4265  0.3363
 7231SOL     OW32911   5.026   2.495   8.134  0.2828  0.1661  0.5615
 7231SOL    HW132912   4.965   2.564   8.173 -0.0664  0.4167 -0.4009
 7231SOL    HW232913   5.014   2.408   8.182 -1.6768 -0.1016 -0.3304
 7232SOL     OW32914   7.400   7.061   5.959 -0.6100 -0.1744  0.1792
 7232SOL    HW132915   7.495   7.041   5.936 -0.2040  0.6510  1.1226
 7232SOL    HW232916   7.369   7.140   5.905 -1.0730 -1.0318 -0.8373
 7233SOL     OW32917   1.966   3.126   5.032 -0.0298  0.3435  0.4233
 7233SOL    HW132918   2.024   3.117   4.951  2.2622 -0.6967  2.1603
 7233SOL    HW232919   1.944   3.223   5.046  1.6422  0.7984 -0.0065
 7234SOL     OW32920   6.298   8.794   4.931  0.0747  0.3459  0.3986
 7234SOL    HW132921   6.220   8.832   4.980  0.0171 -0.0930  0.6601
 7234SOL    HW232922   6.266   8.733   4.858  0.1629  0.8199 -0.0389
 7235SOL     OW32923   5.126   1.711   3.358  0.7564 -1.0176  0.8230
 7235SOL    HW132924   5.116   1.666   3.447  0.3477 -0.2160  1.1924
 7235SOL    HW232925   5.121   1.811   3.370  2.7013 -0.8136  0.1503
 7236SOL     OW32926   1.644   4.313   2.366  0.3033  0.5337  0.1505
 7236SOL    HW132927   1.578   4.370   2.414 -0.4573  0.9342 -1.3471
 7236SOL    HW232928   1.706   4.270   2.432 -1.7456 -0.2259  1.6086
 7237SOL     OW32929   3.657   3.962   4.324 -0.0789  0.0618  0.2915
 7237SOL    HW132930   3.673   3.878   4.272 -2.4067  0.1782 -0.6541
 7237SOL    HW232931   3.565   3.960   4.363 -0.2819  2.3269 -0.0008
 7238SOL     OW32932   1.776   8.535   5.020  0.1623 -0.0385  0.3595
 7238SOL    HW132933   1.725   8.450   5.006  1.4550 -1.1443  2.2040
 7238SOL    HW232934   1.756   8.598   4.945 -0.8563 -1.9431 -1.0150
 7239SOL     OW32935   0.027   3.990   5.104 -0.0277  0.4812  0.1135
 7239SOL    HW132936   0.097   4.061   5.097  1.0031 -0.4743  0.4288
 7239SOL    HW232937   0.037   3.926   5.028  0.2850 -0.3861  0.8690
 7240SOL     OW32938   1.641   5.601   0.604 -0.4167 -0.5828  0.2632
 7240SOL    HW132939   1.547   5.568   0.621 -1.8292  1.5555 -2.9368
 7240SOL    HW232940   1.660   5.678   0.664 -1.4053  0.1152 -0.2930
 7241SOL     OW32941   1.196   8.096   0.229 -0.6119 -0.5200 -0.1154
 7241SOL    HW132942   1.170   8.186   0.265 -0.9535 -0.7219  0.1380
 7241SOL    HW232943   1.273   8.107   0.166 -0.4664 -0.0826  0.1363
 7242SOL     OW32944   3.632   0.589   2.900  0.2116  0.5196 -0.0186
 7242SOL    HW132945   3.690   0.655   2.854 -1.3569  0.4837 -2.1084
 7242SOL    HW232946   3.547   0.633   2.930 -0.2487 -0.2271 -0.1964
 7243SOL     OW32947   8.678   9.760   0.673  0.1901 -0.1075  0.1501
 7243SOL    HW132948   8.605   9.733   0.610  0.3967  2.0564 -1.0725
 7243SOL    HW232949   8.644   9.832   0.734  1.4541  1.4172 -0.8853
 7244SOL     OW32950   9.836   3.358   1.930 -0.1702  0.2182  0.5492
 7244SOL    HW132951   9.845   3.333   2.026  0.6704  1.1114  0.7203
 7244SOL    HW232952   9.755   3.316   1.891  1.4056 -3.1144  0.7019
 7245SOL     OW32953   2.927   2.324   4.192 -0.1536 -0.6839 -0.0786
 7245SOL    HW132954   2.965   2.243   4.148  0.9907  0.6100 -1.5214
 7245SOL    HW232955   2.960   2.329   4.286  0.5979 -1.3377 -0.3007
 7246SOL     OW32956   9.199   4.209   2.266 -0.3193  0.1215 -0.6345
 7246SOL    HW132957   9.266   4.265   2.216  1.1007 -0.8261  0.1751
 7246SOL    HW232958   9.136   4.269   2.315 -0.6835  1.0449 -2.1861
 7247SOL     OW32959   2.735   6.194   1.317 -0.2682  0.5299 -0.7948
 7247SOL    HW132960   2.767   6.110   1.272  1.5255  0.6543  0.2136
 7247SOL    HW232961   2.808   6.262   1.316 -1.7379  2.1304 -1.6616
 7248SOL     OW32962   6.978   0.369   5.356 -0.1019  0.0597  0.4222
 7248SOL    HW132963   6.997   0.465   5.340  1.1136 -0.3499 -0.7049
 7248SOL    HW232964   7.047   0.331   5.419  0.9210 -0.6474 -1.0899
 7249SOL     OW32965   2.489   3.801   0.694 -0.3408  0.7426 -0.3042
 7249SOL    HW132966   2.551   3.775   0.768 -1.0760  0.7348  0.3115
 7249SOL    HW232967   2.479   3.900   0.692  1.7772  0.9526 -2.1001
 7250SOL     OW32968   8.464   1.016   4.201  0.0990 -0.4186  0.1189
 7250SOL    HW132969   8.407   1.076   4.144  0.1967 -0.8625 -0.4457
 7250SOL    HW232970   8.458   0.922   4.168 -1.4143 -1.0417  2.0597
 7251SOL     OW32971   6.414   0.986   3.088  0.7038  0.3338 -0.0468
 7251SOL    HW132972   6.485   0.956   3.152  1.8021  1.2057 -0.8358
 7251SOL    HW232973   6.382   1.077   3.115 -0.3743 -0.2034  0.5104
 7252SOL     OW32974   7.763   9.675   4.189  0.1980  0.1770  0.3483
 7252SOL    HW132975   7.834   9.609   4.215  0.8110  0.8643  0.4399
 7252SOL    HW232976   7.784   9.712   4.099 -0.4881 -0.2161  0.0208
 7253SOL     OW32977   7.260   8.176   4.881 -0.1308 -0.3390  0.1543
 7253SOL    HW132978   7.250   8.221   4.792 -0.0733 -0.5208  0.0581
 7253SOL    HW232979   7.352   8.193   4.916  0.3059 -1.4402 -0.4562
 7254SOL     OW32980   5.311   2.434   0.681 -0.3420  0.0234  0.5529
 7254SOL    HW132981   5.368   2.453   0.601 -1.1749  1.0628  0.2055
 7254SOL    HW232982   5.291   2.336   0.685  2.2514 -0.5222  1.2104
 7255SOL     OW32983   1.992   0.753   3.506  0.3634 -0.4767 -0.8111
 7255SOL    HW132984   2.088   0.779   3.495  0.7009 -2.3017 -2.4949
 7255SOL    HW232985   1.933   0.833   3.492  1.5472  0.2261 -1.7815
 7256SOL     OW32986   3.354   3.319   5.090 -0.2629  0.2942 -0.0526
 7256SOL    HW132987   3.400   3.405   5.066  2.5177 -1.3273 -0.7431
 7256SOL    HW232988   3.369   3.299   5.186  0.2445 -0.0739 -0.2039
 7257SOL     OW32989   0.308   6.344   3.560  0.5554  0.2439  0.2356
 7257SOL    HW132990   0.331   6.260   3.511  1.1060  0.6927 -0.3067
 7257SOL    HW232991   0.327   6.423   3.500 -1.2387  0.6975  0.2379
 7258SOL     OW32992   4.621   0.908   0.834 -0.1867  0.2979 -0.4109
 7258SOL    HW132993   4.559   0.956   0.896  0.8779  1.2022 -0.0252
 7258SOL    HW232994   4.689   0.858   0.888 -0.5396 -0.6498 -0.8337
 7259SOL     OW32995   8.223   2.914   2.660  0.4811  0.1805 -0.2368
 7259SOL    HW132996   8.174   2.919   2.747  1.3997  0.0369  0.2843
 7259SOL    HW232997   8.222   3.004   2.616  0.7284  0.4505  0.3043
 7260SOL     OW32998   0.274   4.915   4.867  0.1710 -0.0427  0.0821
 7260SOL    HW132999   0.315   4.915   4.776  3.1229 -1.3625  1.3582
 7260SOL    HW233000   0.251   4.821   4.894  0.1585  0.2305  1.0575
 7261SOL     OW33001   5.290   1.703   6.350  0.1887 -0.0305 -0.6297
 7261SOL    HW133002   5.249   1.791   6.328 -0.0517 -0.0696 -0.3377
 7261SOL    HW233003   5.349   1.712   6.430  1.0335  0.1023 -1.2577
 7262SOL     OW33004   9.107   3.756   5.923 -0.3825  0.3054  0.3607
 7262SOL    HW133005   9.149   3.667   5.943 -1.8561 -0.8051 -1.2466
 7262SOL    HW233006   9.141   3.789   5.835 -0.1987  1.1035  0.7337
 7263SOL     OW33007   6.625   7.482   5.569  0.1703 -0.2668 -0.6111
 7263SOL    HW133008   6.564   7.406   5.593  0.5360 -0.3091  0.2165
 7263SOL    HW233009   6.676   7.510   5.650  2.7019 -1.5338 -1.7007
 7264SOL     OW33010   5.909   8.548   5.780 -0.0019  0.1112  0.1881
 7264SOL    HW133011   5.941   8.518   5.690 -0.3724  1.5350 -0.4260
 7264SOL    HW233012   5.968   8.508   5.851  1.4679  0.5100 -0.7795
 7265SOL     OW33013   4.168   2.702   3.748  0.0873 -0.2792  0.2956
 7265SOL    HW133014   4.159   2.762   3.828  0.2984 -0.3916  0.4033
 7265SOL    HW233015   4.089   2.641   3.743  1.1392 -1.7836  1.6678
 7266SOL     OW33016   4.625   1.791   4.170 -0.5660 -0.3341 -0.0490
 7266SOL    HW133017   4.561   1.722   4.205 -1.2357 -0.5289 -1.6013
 7266SOL    HW233018   4.718   1.754   4.169 -0.9208 -1.2337 -0.8746
 7267SOL     OW33019   2.234   7.759   1.749  0.1881  0.2777  0.2136
 7267SOL    HW133020   2.289   7.710   1.816  2.2836  1.7681 -0.3665
 7267SOL    HW233021   2.160   7.699   1.717  0.0602 -0.9486  2.7154
 7268SOL     OW33022   8.558   6.811   4.012  0.3069  0.1006 -0.2724
 7268SOL    HW133023   8.577   6.862   4.096 -1.0945  1.2568 -0.6397
 7268SOL    HW233024   8.528   6.719   4.035 -0.8670  0.6718  0.5422
 7269SOL     OW33025   8.095   2.838   0.773  0.0710  0.3482 -0.4064
 7269SOL    HW133026   8.039   2.775   0.721  1.7274 -1.8548  0.3856
 7269SOL    HW233027   8.040   2.881   0.845 -0.7869 -1.1943 -0.1284
 7270SOL     OW33028   8.131   2.833   4.800 -0.3370  0.2858 -0.0350
 7270SOL    HW133029   8.143   2.816   4.702  1.7831  1.5669 -0.0447
 7270SOL    HW233030   8.114   2.931   4.814 -1.6631 -0.0613  0.8024
 7271SOL     OW33031   8.742   0.940   4.225 -0.0332  0.0789 -0.2929
 7271SOL    HW133032   8.716   1.015   4.165  2.7399  0.2418 -1.3586
 7271SOL    HW233033   8.796   0.975   4.302  0.4595 -0.6979 -0.2741
 7272SOL     OW33034   4.054   1.141   6.060 -0.5925 -0.0284 -0.5462
 7272SOL    HW133035   4.074   1.045   6.041 -2.0254 -0.4634  0.0843
 7272SOL    HW233036   3.984   1.147   6.131 -0.3185  1.4901 -0.3893
 7273SOL     OW33037   5.399   8.623   5.938  0.3807 -0.4881  0.1621
 7273SOL    HW133038   5.498   8.614   5.939  0.2832 -1.6927  2.2608
 7273SOL    HW233039   5.374   8.709   5.894  2.4249  0.5164  0.8921
 7274SOL     OW33040   8.076   5.201   3.700 -0.4234 -0.2044 -0.3044
 7274SOL    HW133041   8.122   5.133   3.758 -1.1933 -0.0564  0.5049
 7274SOL    HW233042   7.977   5.194   3.715 -0.6099 -0.0159 -1.4609
 7275SOL     OW33043   8.263   9.147   5.729  0.1578  0.4311  0.2253
 7275SOL    HW133044   8.230   9.080   5.795  1.2802 -0.9190 -0.5544
 7275SOL    HW233045   8.287   9.101   5.643 -0.6191  2.0623 -0.8915
 7276SOL     OW33046   1.895   6.707   2.818 -0.7410 -0.0112 -0.1792
 7276SOL    HW133047   1.922   6.611   2.827  0.7627  0.5288  1.2663
 7276SOL    HW233048   1.807   6.721   2.863 -0.5495 -0.5375  0.3698
 7277SOL     OW33049   0.928   2.506   5.927 -0.2304  0.0279 -0.2931
 7277SOL    HW133050   0.914   2.467   5.836 -0.9717 -0.0944 -0.1236
 7277SOL    HW233051   1.025   2.501   5.950 -0.3421 -2.0056 -0.1529
 7278SOL     OW33052   0.729   4.255   2.387  0.0466  0.2129  0.2704
 7278SOL    HW133053   0.740   4.354   2.396  1.0045  0.0424  1.0339
 7278SOL    HW233054   0.720   4.231   2.290  1.4322  0.8801 -0.0259
 7279SOL     OW33055   6.425   9.678   1.964 -0.0388 -0.5369  0.0073
 7279SOL    HW133056   6.400   9.756   2.020  0.3152 -0.8614  0.6162
 7279SOL    HW233057   6.363   9.602   1.983 -1.1061 -0.0579 -1.4076
 7280SOL     OW33058   8.713   7.748   1.295  0.2194 -0.3357  0.0076
 7280SOL    HW133059   8.648   7.770   1.222  0.0459  1.2208  0.6247
 7280SOL    HW233060   8.772   7.827   1.313  1.9515 -1.5556 -0.1818
 7281SOL     OW33061   2.955   0.002   4.902  0.1190 -0.5537  0.0962
 7281SOL    HW133062   2.991  -0.074   4.849  0.3274 -0.8604  0.6812
 7281SOL    HW233063   2.856   0.006   4.891  0.3414  0.5255 -1.8275
 7282SOL     OW33064   7.657   2.495   2.746  0.0909  0.2027  0.0178
 7282SOL    HW133065   7.593   2.571   2.756  0.2018  0.3057 -0.0654
 7282SOL    HW233066   7.750   2.527   2.763  0.1863  0.1815 -0.4685
 7283SOL     OW33067   3.389   1.235   3.303 -0.4065 -0.1532  0.3043
 7283SOL    HW133068   3.433   1.145   3.312 -0.8351 -0.3589  0.3456
 7283SOL    HW233069   3.290   1.224   3.297 -0.3531  0.1985 -1.5571
 7284SOL     OW33070   1.269   1.639   2.700  0.5608 -1.1755 -0.2838
 7284SOL    HW133071   1.247   1.542   2.710  1.0280 -1.2210  0.2938
 7284SOL    HW233072   1.185   1.692   2.698  0.2678 -1.6598 -1.3269
 7285SOL     OW33073   7.932   6.273   1.524 -0.4025  0.1967  0.5545
 7285SOL    HW133074   7.905   6.340   1.455 -0.8561  0.4501  0.9759
 7285SOL    HW233075   7.955   6.187   1.479 -1.1612  0.2126  0.1282
 7286SOL     OW33076   1.271   1.592   4.213  0.4968  0.0713  0.1285
 7286SOL    HW133077   1.193   1.605   4.151  2.3121  1.7059 -1.9193
 7286SOL    HW233078   1.306   1.499   4.203 -1.0438 -0.6009  0.8953
 7287SOL     OW33079   2.756   9.781   5.107 -0.1385 -0.0731 -0.1319
 7287SOL    HW133080   2.695   9.708   5.076 -0.4334  0.8068 -1.6925
 7287SOL    HW233081   2.842   9.776   5.056 -1.3196  2.5013 -2.5393
 7288SOL     OW33082   4.355   2.098   0.180 -0.0308  0.2783  0.0053
 7288SOL    HW133083   4.265   2.055   0.171  0.4737 -0.8152  0.1229
 7288SOL    HW233084   4.343   2.196   0.195 -1.2139  0.0948  0.3409
 7289SOL     OW33085   0.073   9.586   1.168 -0.3641 -0.3122  0.2971
 7289SOL    HW133086   0.035   9.677   1.153 -0.6160 -0.7491 -2.0034
 7289SOL    HW233087   0.012   9.533   1.227 -1.1458  0.4224  0.1539
 7290SOL     OW33088   9.727   6.673   3.348  0.1392 -0.6293 -0.1645
 7290SOL    HW133089   9.768   6.764   3.338  1.6200 -1.1747  0.8006
 7290SOL    HW233090   9.646   6.680   3.405  1.4872 -0.2254  1.7627
 7291SOL     OW33091   3.527   1.145   1.360 -0.5072  0.2249  0.0991
 7291SOL    HW133092   3.517   1.239   1.326 -0.1782  0.1574 -0.1837
 7291SOL    HW233093   3.563   1.087   1.287 -0.5009 -0.0750  0.3419
 7292SOL     OW33094   0.446   4.155   4.508 -0.2017  0.1386 -0.0196
 7292SOL    HW133095   0.425   4.061   4.482 -0.3967  0.3998 -0.8195
 7292SOL    HW233096   0.517   4.155   4.578  0.9543 -0.5420 -1.1787
 7293SOL     OW33097   7.733   1.553   5.244  0.2508 -0.2708  0.4535
 7293SOL    HW133098   7.733   1.581   5.148  0.2617  1.1024  0.8412
 7293SOL    HW233099   7.711   1.632   5.302 -1.5617 -1.4801  1.4643
 7294SOL     OW33100   7.310   3.803   1.457  0.5005 -0.3154 -0.0928
 7294SOL    HW133101   7.299   3.704   1.447  1.8053 -0.3858 -0.9833
 7294SOL    HW233102   7.380   3.835   1.393  1.0672  0.9670  1.1520
 7295SOL     OW33103   7.853   0.592   5.754 -0.5713 -0.1250 -0.7043
 7295SOL    HW133104   7.777   0.630   5.806  0.5277  1.2160 -0.0304
 7295SOL    HW233105   7.864   0.643   5.668  0.6113  0.7991 -0.0194
 7296SOL     OW33106   1.152   9.799   4.913  0.3553 -0.3483 -0.2467
 7296SOL    HW133107   1.155   9.784   5.012 -0.6683  0.3061 -0.1159
 7296SOL    HW233108   1.060   9.781   4.879  0.2208  1.2168 -0.7784
 7297SOL     OW33109   7.888   5.497   2.212 -0.5485 -0.1722  0.2414
 7297SOL    HW133110   7.795   5.524   2.236 -0.2126  2.8738 -1.5787
 7297SOL    HW233111   7.932   5.571   2.162  2.0866 -2.4732 -0.9862
 7298SOL     OW33112   6.232   8.925   6.172  0.5209 -0.5119  0.6059
 7298SOL    HW133113   6.169   8.905   6.097 -0.6730 -0.0518  1.4507
 7298SOL    HW233114   6.321   8.951   6.136 -0.3436  0.7572 -0.6770
 7299SOL     OW33115   5.833   1.730   3.057 -0.4984 -0.6041  0.4295
 7299SOL    HW133116   5.860   1.679   2.976 -2.2341 -0.9700  0.0789
 7299SOL    HW233117   5.904   1.797   3.078  1.6323 -2.8555  0.6775
 7300SOL     OW33118   7.683   0.531   4.058 -0.3280  0.2977  0.2425
 7300SOL    HW133119   7.689   0.616   4.007 -3.7752  0.5087  0.0869
 7300SOL    HW233120   7.630   0.464   4.007 -2.3459 -0.0831  2.7296
 7301SOL     OW33121   9.978   2.158   4.371 -0.5240 -0.3275 -0.5074
 7301SOL    HW133122  10.031   2.171   4.454 -0.4414  0.9622 -0.7569
 7301SOL    HW233123   9.931   2.069   4.375  0.9341 -1.0817  0.0951
 7302SOL     OW33124   0.104   9.553   0.389 -0.1460  0.3344  0.4418
 7302SOL    HW133125   0.117   9.649   0.365  1.3034  0.5399  1.9747
 7302SOL    HW233126   0.190   9.515   0.425 -1.2958 -0.9031  1.9634
 7303SOL     OW33127   5.932   1.995   5.012 -0.2536 -0.1330  0.1211
 7303SOL    HW133128   6.026   2.005   5.043 -0.2487 -0.2790  0.1586
 7303SOL    HW233129   5.927   2.010   4.914 -0.3184  0.6434  0.2428
 7304SOL     OW33130   6.980   0.224   6.600 -0.0743  0.3121  0.1014
 7304SOL    HW133131   6.935   0.181   6.522 -1.0568 -0.0216  0.8316
 7304SOL    HW233132   7.057   0.279   6.568 -0.2568 -0.0853 -1.0638
 7305SOL     OW33133   8.233   2.168   8.054 -0.4870  0.1533  0.4467
 7305SOL    HW133134   8.194   2.144   7.965  0.1960  0.1532  0.1503
 7305SOL    HW233135   8.161   2.207   8.112 -1.1066 -0.5320  0.1596
 7306SOL     OW33136   1.417   2.216   0.554  0.0299  0.4712 -0.6951
 7306SOL    HW133137   1.499   2.164   0.529  0.8727  1.3743  0.0841
 7306SOL    HW233138   1.443   2.312   0.568 -0.6931  0.3051  1.9504
 7307SOL     OW33139   2.970   9.772   1.832 -0.6691 -0.5612  0.2954
 7307SOL    HW133140   2.970   9.872   1.832 -0.5734 -0.5631  0.2026
 7307SOL    HW233141   2.899   9.740   1.895 -0.0480 -0.4312  1.0696
 7308SOL     OW33142   1.340   9.071   5.260 -0.1840 -0.6495  0.2979
 7308SOL    HW133143   1.417   9.126   5.291 -0.6503 -0.4626  1.1538
 7308SOL    HW233144   1.294   9.030   5.339 -1.6983  0.2459 -0.0838
 7309SOL     OW33145   5.843   5.969   0.701 -0.2946 -0.0528 -0.3479
 7309SOL    HW133146   5.772   6.039   0.708  1.2274  1.5204 -0.3180
 7309SOL    HW233147   5.835   5.923   0.612 -2.5325 -1.2398  0.4269
 7310SOL     OW33148   8.476   5.306   5.353 -0.2549 -0.2471  0.1225
 7310SOL    HW133149   8.503   5.221   5.398  0.4433 -1.9782 -3.4347
 7310SOL    HW233150   8.378   5.304   5.333 -0.3466  0.0514  0.5246
 7311SOL     OW33151   0.451   1.520   0.190  0.5569  0.4230  0.0018
 7311SOL    HW133152   0.418   1.515   0.096 -2.3948  1.8942  0.9064
 7311SOL    HW233153   0.425   1.437   0.239  0.1279  0.6378  0.1345
 7312SOL     OW33154   0.184   8.226   6.486  0.0293  0.7014  0.2111
 7312SOL    HW133155   0.162   8.230   6.584 -0.9011 -0.3344  0.0556
 7312SOL    HW233156   0.109   8.267   6.434 -0.3959 -0.5621 -0.1827
 7313SOL     OW33157   9.931   7.448   2.659  0.2411 -0.1807  0.1525
 7313SOL    HW133158   9.854   7.435   2.596 -0.6521 -0.7355  1.3348
 7313SOL    HW233159   9.920   7.535   2.707  1.5941  0.8493 -1.3704
 7314SOL     OW33160   6.825   2.289   3.901  0.5853 -0.1425 -0.9988
 7314SOL    HW133161   6.867   2.354   3.964 -2.5337 -0.3157  1.3957
 7314SOL    HW233162   6.887   2.212   3.887  2.0600  0.7247  0.4700
 7315SOL     OW33163   8.905   3.914   3.290 -0.1316 -0.3897  0.3058
 7315SOL    HW133164   8.984   3.949   3.239 -1.2349  0.3168 -0.9563
 7315SOL    HW233165   8.923   3.921   3.388  1.5768 -0.7257  0.0409
 7316SOL     OW33166   4.135   0.692   1.834 -0.9918  0.6130 -0.2780
 7316SOL    HW133167   4.104   0.673   1.927  2.0408 -0.4258  0.5660
 7316SOL    HW233168   4.108   0.785   1.808 -2.4445  0.6746  1.3517
 7317SOL     OW33169   9.267   3.818   1.473  0.1936 -0.2244  0.0509
 7317SOL    HW133170   9.235   3.899   1.521 -0.2672 -0.9817  1.0479
 7317SOL    HW233171   9.192   3.754   1.460  0.4374 -0.2781 -1.2001
 7318SOL     OW33172   2.299   7.024   1.859  0.4636 -0.4213 -0.4273
 7318SOL    HW133173   2.253   6.979   1.783  1.4917  1.5390 -2.2608
 7318SOL    HW233174   2.239   7.094   1.897 -0.7655 -2.6147  1.8112
 7319SOL     OW33175   7.464   2.472   4.309 -0.1775 -0.4031  0.6483
 7319SOL    HW133176   7.507   2.560   4.289 -0.3503 -0.3274  0.6066
 7319SOL    HW233177   7.532   2.409   4.346  0.3455 -0.8160 -0.9915
 7320SOL     OW33178   7.969   0.841   3.190  0.0499 -0.1197  0.1279
 7320SOL    HW133179   8.010   0.824   3.100 -0.4474 -0.2420 -0.0807
 7320SOL    HW233180   7.882   0.792   3.196 -0.8269  1.3715 -0.0180
 7321SOL     OW33181   0.421   9.588   3.127  0.4258 -0.3521  0.1681
 7321SOL    HW133182   0.510   9.632   3.114 -0.1509  0.7881 -0.0265
 7321SOL    HW233183   0.388   9.555   3.038 -0.0693  0.6825 -0.0494
 7322SOL     OW33184   9.271   2.669   5.957 -0.0001  0.2304  0.2688
 7322SOL    HW133185   9.285   2.649   5.860  0.6551  0.9181  0.2188
 7322SOL    HW233186   9.323   2.605   6.012 -0.7588 -0.4702  0.1793
 7323SOL     OW33187   1.894   6.867   4.104 -0.6912  0.2254 -0.2667
 7323SOL    HW133188   1.892   6.902   4.011  0.8812  0.8909 -0.0573
 7323SOL    HW233189   1.949   6.783   4.107  2.5882  2.3412  0.7551
 7324SOL     OW33190   3.129   5.167   1.290  0.1522 -0.2608  0.6885
 7324SOL    HW133191   3.148   5.263   1.311 -0.6087 -0.1886  1.0789
 7324SOL    HW233192   3.161   5.146   1.198  2.5620 -0.2815  1.5124
 7325SOL     OW33193   2.950   2.016   2.619  0.2263  0.5897  0.0874
 7325SOL    HW133194   3.023   1.951   2.595 -0.1134  0.2161  0.0508
 7325SOL    HW233195   2.897   2.038   2.537 -0.4074 -0.0262  0.3287
 7326SOL     OW33196   1.323   3.809   3.633  0.2180 -0.2292  0.3655
 7326SOL    HW133197   1.298   3.722   3.591 -0.2519 -0.0937  0.3527
 7326SOL    HW233198   1.321   3.882   3.564  1.2421 -0.3156  0.2412
 7327SOL     OW33199   3.591   4.476   3.231  0.2823  0.3971  0.5411
 7327SOL    HW133200   3.676   4.485   3.179 -0.4763  1.9905 -0.4474
 7327SOL    HW233201   3.534   4.405   3.189  1.0409 -0.5790  1.1253
 7328SOL     OW33202   2.197   4.581   6.083 -0.1524 -0.0717  1.1754
 7328SOL    HW133203   2.144   4.498   6.063 -1.4969  0.3324  2.9647
 7328SOL    HW233204   2.142   4.661   6.060 -0.1207  0.3473  2.5693
 7329SOL     OW33205   2.283   5.162   5.532  0.1223  0.3018 -0.1220
 7329SOL    HW133206   2.267   5.164   5.433  2.8907  0.7218 -0.5876
 7329SOL    HW233207   2.272   5.254   5.569  3.5350  1.0564 -0.8271
 7330SOL     OW33208   5.955   9.419   5.983 -0.2041 -0.0346  0.3091
 7330SOL    HW133209   5.939   9.435   6.081  2.2915  0.4709  0.6754
 7330SOL    HW233210   6.020   9.344   5.973 -1.0669 -0.6110 -1.0097
 7331SOL     OW33211   3.512   6.027   2.698 -0.2314 -0.2245  0.2139
 7331SOL    HW133212   3.421   6.023   2.740 -1.7263  0.5806 -2.8428
 7331SOL    HW233213   3.537   6.122   2.683  2.0161 -0.3524  2.7974
 7332SOL     OW33214   5.052   2.233   4.230  0.1044  0.1044 -0.0446
 7332SOL    HW133215   4.962   2.198   4.205 -0.1168  0.1983  0.6019
 7332SOL    HW233216   5.102   2.163   4.280  0.7898 -0.3058 -1.2988
 7333SOL     OW33217   2.014   9.724   5.827  0.6407 -0.4079  0.2294
 7333SOL    HW133218   2.022   9.630   5.793  2.7602 -0.5464  1.0168
 7333SOL    HW233219   2.099   9.773   5.806 -0.2413  1.1651  0.3170
 7334SOL     OW33220   3.021   8.160   4.784 -0.2874  0.7366 -0.2177
 7334SOL    HW133221   2.986   8.253   4.801 -2.3290  0.3617 -2.1764
 7334SOL    HW233222   2.949   8.094   4.801  1.1174 -0.5379  0.9915
 7335SOL     OW33223   4.962   2.836   3.771 -0.2499  0.3410 -0.0944
 7335SOL    HW133224   4.867   2.855   3.797 -0.5421 -0.9065 -0.2480
 7335SOL    HW233225   4.964   2.785   3.685  0.5602  0.3604 -0.0923
 7336SOL     OW33226   2.961   3.432   0.044 -0.6749 -0.3258 -0.0491
 7336SOL    HW133227   2.991   3.528   0.042 -1.1377 -0.2039 -1.6633
 7336SOL    HW233228   2.874   3.423  -0.004 -0.3141 -1.6627 -0.4652
 7337SOL     OW33229   4.819   3.795   0.038 -0.0140  0.0859  0.0766
 7337SOL    HW133230   4.772   3.729   0.097  0.7843 -0.0314  0.5793
 7337SOL    HW233231   4.754   3.831  -0.029 -0.5186 -1.0067 -0.0308
 7338SOL     OW33232   2.735   9.539   2.706 -0.0255  0.1755  0.1107
 7338SOL    HW133233   2.739   9.446   2.740  0.6918  0.4464  0.7842
 7338SOL    HW233234   2.785   9.600   2.768 -0.6686  1.0399 -0.2027
 7339SOL     OW33235   3.106   3.336   3.718  0.1968 -0.1464  0.1928
 7339SOL    HW133236   3.171   3.361   3.789  2.3620 -2.6889 -0.8455
 7339SOL    HW233237   3.130   3.383   3.633 -0.5904  0.5351  0.3397
 7340SOL     OW33238   9.873   1.667   2.056 -0.4961 -0.2576 -0.7370
 7340SOL    HW133239   9.944   1.666   2.127 -0.9803  1.7148 -0.2177
 7340SOL    HW233240   9.806   1.595   2.076 -0.6955  0.3397  0.8911
 7341SOL     OW33241   8.633   6.692   5.787  0.3982 -0.4811 -0.0981
 7341SOL    HW133242   8.692   6.733   5.718  1.6145 -0.5846  0.8430
 7341SOL    HW233243   8.544   6.737   5.787  1.5102  1.7953  0.5514
 7342SOL     OW33244   8.938   5.371   3.236  0.3870 -0.3637  0.1857
 7342SOL    HW133245   9.036   5.370   3.213  0.0069 -0.7244 -1.4087
 7342SOL    HW233246   8.923   5.317   3.319  1.5621 -0.1553  0.5475
 7343SOL     OW33247   3.762   7.493   2.296  0.1623  0.7390 -0.6666
 7343SOL    HW133248   3.792   7.512   2.203 -0.2007  1.2832 -0.6753
 7343SOL    HW233249   3.839   7.502   2.359  0.6132 -0.5269 -1.0261
 7344SOL     OW33250   2.450   0.558   1.784 -0.2210 -0.1784 -0.0337
 7344SOL    HW133251   2.362   0.514   1.806  0.4024 -1.7926 -0.6670
 7344SOL    HW233252   2.460   0.565   1.685  0.9406 -1.2645 -0.0126
 7345SOL     OW33253   3.482   8.639   6.493 -0.2190 -0.3894  0.1729
 7345SOL    HW133254   3.571   8.679   6.512 -0.2973  0.4848 -1.2484
 7345SOL    HW233255   3.412   8.710   6.495 -0.6580 -0.8049 -0.3187
 7346SOL     OW33256   7.198   0.882   3.481 -0.2892  0.1123  0.0352
 7346SOL    HW133257   7.238   0.792   3.466  0.4303  0.4019  0.2134
 7346SOL    HW233258   7.267   0.952   3.464 -0.8684  0.6339 -0.1724
 7347SOL     OW33259   3.694   3.344   5.825  0.1677 -0.3074 -0.1034
 7347SOL    HW133260   3.686   3.437   5.862  1.4347 -0.5355  0.7484
 7347SOL    HW233261   3.622   3.287   5.863  0.2603 -0.0394  0.4850
 7348SOL     OW33262   6.935   1.170   2.094  0.7740 -0.3900 -0.0383
 7348SOL    HW133263   6.980   1.256   2.066 -1.2119  1.3220  1.8517
 7348SOL    HW233264   6.844   1.166   2.054  0.5047 -1.2018  0.6618
 7349SOL     OW33265   0.538   3.888   8.123  0.5634  0.6603 -0.0334
 7349SOL    HW133266   0.624   3.934   8.142  0.3574  0.0371  2.6146
 7349SOL    HW233267   0.551   3.789   8.129 -0.1740  0.5348 -0.4383
 7350SOL     OW33268   2.192   0.866   5.491 -0.1369  0.6996 -0.6438
 7350SOL    HW133269   2.208   0.955   5.447 -1.1916  2.9816  3.3474
 7350SOL    HW233270   2.274   0.810   5.484  1.0668  2.5723 -1.9197
 7351SOL     OW33271   9.001   9.361   2.918  0.2164  0.6608 -0.3096
 7351SOL    HW133272   9.046   9.295   2.980 -1.6090 -0.2028  0.1205
 7351SOL    HW233273   9.033   9.345   2.825  0.6354 -0.1098 -0.0451
 7352SOL     OW33274   8.747   4.183   3.714  0.1048  0.3685 -0.6367
 7352SOL    HW133275   8.770   4.140   3.802 -0.8172 -0.8971 -1.0073
 7352SOL    HW233276   8.721   4.278   3.730 -0.8595 -0.0763  0.5772
 7353SOL     OW33277   2.749   9.369   5.229  0.1526  0.0652 -0.2593
 7353SOL    HW133278   2.837   9.412   5.248 -0.1592  0.4127  0.4193
 7353SOL    HW233279   2.763   9.273   5.204  0.8081  0.4128 -1.2358
 7354SOL     OW33280   4.552   4.823   2.709 -0.3821 -0.4037 -0.2492
 7354SOL    HW133281   4.482   4.893   2.692 -1.4268 -1.4129 -0.1273
 7354SOL    HW233282   4.627   4.864   2.762 -1.2538  0.4816  0.3277
 7355SOL     OW33283   8.509   2.947   2.325  0.2754 -0.2138  0.4835
 7355SOL    HW133284   8.555   3.007   2.259  1.1775 -0.4054  0.9378
 7355SOL    HW233285   8.425   2.912   2.284  0.2296  0.5982 -0.1405
 7356SOL     OW33286   1.026   7.904   5.446  0.4937 -0.3200  0.3233
 7356SOL    HW133287   1.051   7.936   5.354  1.1496 -1.5210  0.0664
 7356SOL    HW233288   0.927   7.893   5.451  0.4496 -0.2179 -0.2420
 7357SOL     OW33289   1.607   7.602   3.181 -0.4722 -0.4158  0.2001
 7357SOL    HW133290   1.539   7.576   3.112 -0.1830 -1.7438  0.3966
 7357SOL    HW233291   1.676   7.661   3.140 -1.0496 -0.0890 -0.3072
 7358SOL     OW33292   4.575   9.726   6.727  0.1619 -0.3365 -0.0059
 7358SOL    HW133293   4.623   9.813   6.728 -0.9830  0.3495 -2.3347
 7358SOL    HW233294   4.485   9.737   6.685  0.0536 -2.6609 -0.4790
 7359SOL     OW33295   2.476   8.561   0.038 -0.0848  0.4120 -0.1761
 7359SOL    HW133296   2.421   8.544  -0.043 -0.2064  0.0218 -0.0124
 7359SOL    HW233297   2.427   8.529   0.120  0.1232  0.6148  0.0297
 7360SOL     OW33298   9.521   0.030   5.697 -0.1429  0.2316 -0.1430
 7360SOL    HW133299   9.513  -0.047   5.633 -0.4105 -0.3803  0.6193
 7360SOL    HW233300   9.607   0.023   5.747  0.4707  1.1955 -1.0673
 7361SOL     OW33301   0.951   8.183   5.300  0.0752  0.2557  0.5641
 7361SOL    HW133302   0.870   8.131   5.327 -0.3810  0.9945  0.6399
 7361SOL    HW233303   1.014   8.123   5.251 -0.7912 -0.1793 -0.0454
 7362SOL     OW33304   8.154   4.448   0.857 -0.4994 -0.3234  0.0558
 7362SOL    HW133305   8.200   4.529   0.820 -1.3353  0.8234  1.5014
 7362SOL    HW233306   8.215   4.401   0.921 -0.4343 -0.1997  0.0823
 7363SOL     OW33307   1.470   8.285   1.604  0.1844 -0.5587  0.3220
 7363SOL    HW133308   1.555   8.330   1.576 -0.0230 -0.0994  0.4114
 7363SOL    HW233309   1.460   8.198   1.557  0.4461 -0.3663 -0.0885
 7364SOL     OW33310   1.603   8.845   5.351  0.2062  0.2882  0.3640
 7364SOL    HW133311   1.593   8.910   5.427  0.8355 -1.2240  1.7640
 7364SOL    HW233312   1.585   8.752   5.384 -0.9372 -0.2336 -1.6806
 7365SOL     OW33313   2.349   6.123   2.218  0.6870 -0.1413  0.6557
 7365SOL    HW133314   2.304   6.039   2.190  0.9894  0.4238 -1.5958
 7365SOL    HW233315   2.332   6.195   2.151 -0.6563  2.0149  3.1754
 7366SOL     OW33316   3.356   8.400   1.021 -0.3581  0.1251  0.0107
 7366SOL    HW133317   3.389   8.463   0.951  0.9689  2.1291  2.3762
 7366SOL    HW233318   3.256   8.394   1.015 -0.2890  0.4681 -1.8589
 7367SOL     OW33319   8.796   2.214   6.023  0.2016 -0.2312 -0.3025
 7367SOL    HW133320   8.723   2.283   6.025  0.9410  0.5323  1.0047
 7367SOL    HW233321   8.860   2.231   6.098  1.6655 -0.9618 -1.3634
 7368SOL     OW33322   2.832   5.112   4.311 -0.1204 -0.6152 -0.2714
 7368SOL    HW133323   2.869   5.020   4.301 -1.8644 -1.5978  1.7210
 7368SOL    HW233324   2.745   5.119   4.262  0.5257  0.2924 -1.2883
 7369SOL     OW33325   7.853   2.935   2.760  0.5084  0.0082  0.0450
 7369SOL    HW133326   7.773   2.995   2.766 -0.2039 -0.9261  0.0468
 7369SOL    HW233327   7.843   2.874   2.681  1.1275 -0.2420  0.1571
 7370SOL     OW33328   6.498   9.616   4.171 -0.0097 -0.0515  0.3962
 7370SOL    HW133329   6.595   9.627   4.189  0.2640  0.6571 -1.3775
 7370SOL    HW233330   6.468   9.526   4.201  1.1254 -0.1761  1.1876
 7371SOL     OW33331   0.696   2.126   4.433 -0.1566 -0.3079  0.2486
 7371SOL    HW133332   0.620   2.190   4.444  0.6994  1.0188 -1.2032
 7371SOL    HW233333   0.780   2.177   4.413  0.5150 -1.8862 -1.1408
 7372SOL     OW33334   4.547   1.636   3.498 -0.2044 -0.0557  0.1207
 7372SOL    HW133335   4.644   1.611   3.493  0.0625  1.1941 -1.4834
 7372SOL    HW233336   4.534   1.726   3.456 -2.3613 -1.0562 -1.4238
 7373SOL     OW33337   8.443   1.668   2.359 -0.7925  0.2015 -0.0836
 7373SOL    HW133338   8.501   1.692   2.281 -2.1394 -0.1569 -1.2008
 7373SOL    HW233339   8.412   1.573   2.350 -0.8365  0.1027  0.9725
 7374SOL     OW33340   4.209   0.675   4.449 -0.2930 -1.0490  0.2599
 7374SOL    HW133341   4.264   0.752   4.417 -0.9900 -1.1085 -1.1135
 7374SOL    HW233342   4.117   0.681   4.410 -1.0160 -1.3917  1.8964
 7375SOL     OW33343   1.908   4.334   1.512 -0.4191 -0.0731  0.0862
 7375SOL    HW133344   1.967   4.393   1.458 -0.7043  0.0486 -0.0898
 7375SOL    HW233345   1.847   4.390   1.569  0.3903 -0.1972  1.0884
 7376SOL     OW33346   1.848   3.587   3.667  0.2376 -0.4307 -0.6378
 7376SOL    HW133347   1.848   3.686   3.681 -0.1146 -0.4352 -0.6111
 7376SOL    HW233348   1.759   3.558   3.633  0.3420 -0.7396 -0.6483
 7377SOL     OW33349   8.335   8.590   1.229 -0.2530 -0.0802  0.7664
 7377SOL    HW133350   8.274   8.670   1.234 -0.1666  0.0390 -0.1294
 7377SOL    HW233351   8.429   8.619   1.243 -0.1889  0.0214  0.1387
 7378SOL     OW33352   1.192   2.489   5.894  0.4602 -0.2943 -0.1925
 7378SOL    HW133353   1.249   2.429   5.951  0.3149 -1.0051 -0.7860
 7378SOL    HW233354   1.240   2.511   5.810  0.9966  1.4046  0.5405
 7379SOL     OW33355   1.756   3.091   2.751 -0.4280  0.5949 -0.1851
 7379SOL    HW133356   1.702   3.011   2.727 -0.2660  0.6821 -0.8437
 7379SOL    HW233357   1.696   3.165   2.781 -0.3865 -0.9829  4.0886
 7380SOL     OW33358   3.120   9.545   1.878  0.4284  0.2723 -0.2541
 7380SOL    HW133359   3.067   9.628   1.865 -1.9695 -1.2551 -0.5598
 7380SOL    HW233360   3.147   9.537   1.974  1.2795  1.7483 -0.3691
 7381SOL     OW33361   3.789   2.313   3.793 -0.4701  0.1754  0.0886
 7381SOL    HW133362   3.730   2.385   3.830 -1.5417  0.0071 -1.2746
 7381SOL    HW233363   3.772   2.228   3.842 -0.5900  0.3821  0.4101
 7382SOL     OW33364   6.329   9.927   5.585  0.3637 -0.6484  0.4045
 7382SOL    HW133365   6.312  10.000   5.518  1.0424 -2.5025 -1.8523
 7382SOL    HW233366   6.417   9.885   5.566  0.0415 -1.9721  1.7877
 7383SOL     OW33367   1.977   0.494   2.341  0.1242  0.7028 -0.0932
 7383SOL    HW133368   1.938   0.532   2.425  4.7021  4.1730  0.7015
 7383SOL    HW233369   1.937   0.541   2.262 -1.8532 -0.3048  0.2836
 7384SOL     OW33370   9.784   6.793   1.572 -0.3053  0.6707  0.4116
 7384SOL    HW133371   9.699   6.743   1.554  0.0156  0.3976 -0.3752
 7384SOL    HW233372   9.780   6.834   1.663 -0.6063 -0.7313  1.0444
 7385SOL     OW33373   3.359   0.788   0.736  0.0211 -0.4130 -0.2614
 7385SOL    HW133374   3.299   0.710   0.719  0.0588 -0.7235  0.9826
 7385SOL    HW233375   3.320   0.870   0.696  0.0445 -1.0926 -1.6985
 7386SOL     OW33376   2.205   6.341   2.368 -0.2999 -0.2875 -0.3530
 7386SOL    HW133377   2.299   6.316   2.345  0.4103  1.8079  0.1428
 7386SOL    HW233378   2.191   6.439   2.350 -2.6340 -0.7575 -1.1950
 7387SOL     OW33379   7.613   2.956   8.053  0.3147  0.3263  0.3072
 7387SOL    HW133380   7.696   2.949   7.998 -0.8207 -0.5990 -1.3350
 7387SOL    HW233381   7.565   3.041   8.030  1.9640  2.0486  2.9646
 7388SOL     OW33382   0.201   4.952   4.026  0.1513 -0.0900  0.2490
 7388SOL    HW133383   0.121   4.926   3.971 -0.5882 -1.2728  1.8734
 7388SOL    HW233384   0.281   4.900   3.995  0.1377  0.5210 -0.8552
 7389SOL     OW33385   3.689   9.742   2.521 -0.0490 -0.4389 -0.4126
 7389SOL    HW133386   3.742   9.742   2.607 -0.2336  1.5098 -0.2745
 7389SOL    HW233387   3.604   9.792   2.535 -1.5831 -2.8417 -0.8734
 7390SOL     OW33388   0.254   1.895   4.105  0.1378  0.0245 -0.0647
 7390SOL    HW133389   0.284   1.864   4.015  1.7027  1.2288  0.0065
 7390SOL    HW233390   0.295   1.836   4.175 -0.0626 -0.1479 -0.0929
 7391SOL     OW33391   8.039   2.371   1.166 -0.2066  0.0337  0.1100
 7391SOL    HW133392   7.986   2.358   1.082  1.2183 -2.0606 -0.4989
 7391SOL    HW233393   7.997   2.319   1.240  0.1257 -0.3765  0.0092
 7392SOL     OW33394   9.063   1.320   5.790 -0.0305  0.3592  0.3153
 7392SOL    HW133395   9.143   1.374   5.765 -1.6741  1.6462 -2.3623
 7392SOL    HW233396   9.025   1.277   5.709 -3.1346  1.2883  1.2127
 7393SOL     OW33397   9.275   2.299   6.619  0.0494 -0.1942 -0.1759
 7393SOL    HW133398   9.190   2.350   6.609  0.4014  0.6874  1.1982
 7393SOL    HW233399   9.343   2.336   6.555 -0.4382 -0.5848 -0.9307
 7394SOL     OW33400   1.750   7.008   0.046  0.2775  0.3550 -0.4781
 7394SOL    HW133401   1.653   6.991   0.031  0.2545  0.6012 -0.6148
 7394SOL    HW233402   1.770   7.104   0.029  0.7285  0.1052 -1.3763
 7395SOL     OW33403   5.320   9.890   5.867  0.2549 -0.3791  0.1668
 7395SOL    HW133404   5.365   9.874   5.780 -0.1573  1.3428 -0.3918
 7395SOL    HW233405   5.368   9.840   5.939  3.0030  1.2763 -0.4332
 7396SOL     OW33406   4.932   1.851   0.751  0.7023 -0.2094 -0.2681
 7396SOL    HW133407   4.887   1.893   0.830  3.2368 -0.5453  1.4476
 7396SOL    HW233408   5.006   1.911   0.719  0.4395 -0.6093 -1.6536
 7397SOL     OW33409   3.451   8.876   4.058 -0.0879  0.1178  0.5296
 7397SOL    HW133410   3.453   8.905   4.154  0.8142 -0.4825  0.6975
 7397SOL    HW233411   3.495   8.945   4.001 -0.3585  0.3380  0.5892
 7398SOL     OW33412   8.128   4.860   0.259  0.0589 -0.0369  0.4064
 7398SOL    HW133413   8.191   4.902   0.324 -0.1583  0.5446  0.2483
 7398SOL    HW233414   8.061   4.805   0.308  0.2840 -0.1128  0.6268
 7399SOL     OW33415   6.816   2.045   0.795 -0.0325 -0.1431  0.0350
 7399SOL    HW133416   6.747   2.018   0.728  0.3551  0.0178 -0.4307
 7399SOL    HW233417   6.772   2.085   0.875 -0.6982 -2.9049  1.1092
 7400SOL     OW33418   1.805   3.029   3.064 -0.1942 -0.3539 -0.2674
 7400SOL    HW133419   1.714   2.995   3.043  1.3744 -2.9388 -3.3883
 7400SOL    HW233420   1.837   3.088   2.989  1.3036 -0.7603  0.0275
 7401SOL     OW33421   9.854   0.552   4.089 -0.1024 -0.1416  0.5193
 7401SOL    HW133422   9.861   0.562   3.990  0.1542  0.5493  0.6101
 7401SOL    HW233423   9.809   0.465   4.110  0.0308 -0.3861 -0.1974
 7402SOL     OW33424   9.958   3.821   2.820 -0.1443  0.4519 -0.0350
 7402SOL    HW133425   9.867   3.834   2.781 -0.7074 -1.0169  0.7500
 7402SOL    HW233426   9.980   3.898   2.881 -1.1465  0.4631  0.3165
 7403SOL     OW33427   8.534   7.509   5.097  0.3029  0.2882 -0.3016
 7403SOL    HW133428   8.484   7.542   5.016  0.3966  1.3155  0.0484
 7403SOL    HW233429   8.511   7.414   5.114 -0.6632  0.4228 -0.8254
 7404SOL     OW33430   0.834   2.888   3.748  0.3730 -0.2938  0.1022
 7404SOL    HW133431   0.883   2.821   3.691  0.5098  1.3814 -1.8133
 7404SOL    HW233432   0.899   2.935   3.808  0.4905 -0.9094  0.4566
 7405SOL     OW33433   0.407   7.346   3.932 -0.6107  0.8854 -0.6186
 7405SOL    HW133434   0.394   7.288   3.853 -0.9980  0.9461 -0.6004
 7405SOL    HW233435   0.318   7.371   3.971 -0.4414  1.2364 -0.4459
 7406SOL     OW33436   2.105   5.552   3.243  0.1223 -0.2899 -0.0052
 7406SOL    HW133437   2.118   5.641   3.286  1.0093 -1.0498  1.3423
 7406SOL    HW233438   2.190   5.522   3.202  0.1058 -0.9804  0.4551
 7407SOL     OW33439   5.547   9.047   3.702 -0.0651 -0.1956  0.2687
 7407SOL    HW133440   5.624   9.014   3.757  0.4202  0.5037  0.0161
 7407SOL    HW233441   5.474   8.978   3.701 -0.8644  0.5343  3.3158
 7408SOL     OW33442   0.987   9.774   3.981  0.1155 -0.3915  0.1039
 7408SOL    HW133443   0.954   9.713   4.053 -0.3558 -0.9622 -0.5914
 7408SOL    HW233444   0.954   9.867   3.998 -0.8672 -0.7324  0.0575
 7409SOL     OW33445   8.239   8.165   6.078 -0.1042  0.3135  0.1363
 7409SOL    HW133446   8.237   8.130   5.984 -0.5700  0.2298  0.1785
 7409SOL    HW233447   8.333   8.164   6.111 -0.0316 -0.3326 -0.0755
 7410SOL     OW33448   5.687   0.971   2.007  0.6483  0.4414 -0.5995
 7410SOL    HW133449   5.761   0.987   1.941 -0.5892  0.6284 -1.9674
 7410SOL    HW233450   5.714   1.008   2.096  2.8114 -0.8062 -0.6874
 7411SOL     OW33451   0.802   1.923   0.612 -0.4234 -0.7286  0.0481
 7411SOL    HW133452   0.814   2.016   0.576 -0.7980 -0.1931  1.2936
 7411SOL    HW233453   0.830   1.857   0.542 -1.0581  0.2953 -1.1916
 7412SOL     OW33454   7.177   7.094   5.290 -0.0459  0.0339  0.2749
 7412SOL    HW133455   7.184   7.065   5.385  1.3648  1.6467  0.6976
 7412SOL    HW233456   7.209   7.189   5.282 -1.8443  0.5280 -1.5079
 7413SOL     OW33457   8.380   4.669   3.298  0.0554 -0.4211  0.0503
 7413SOL    HW133458   8.300   4.650   3.241 -1.3609  1.0572  1.4983
 7413SOL    HW233459   8.445   4.725   3.247 -0.5802 -0.2338 -0.5625
 7414SOL     OW33460   3.769   5.964   1.073  0.2654 -0.0151 -0.2509
 7414SOL    HW133461   3.747   6.024   0.996  1.0957 -0.1476 -0.6042
 7414SOL    HW233462   3.726   5.875   1.059 -1.1409  0.5676  0.3796
 7415SOL     OW33463   9.745   9.148   6.436 -0.1150  0.0120  0.5306
 7415SOL    HW133464   9.782   9.152   6.529  1.2454  0.2472 -0.0130
 7415SOL    HW233465   9.789   9.219   6.380 -1.6315  0.5184 -0.0418
 7416SOL     OW33466   3.012   4.907   1.696  0.4765 -0.2333 -0.4289
 7416SOL    HW133467   2.990   4.815   1.664  1.4442 -0.9426  0.8785
 7416SOL    HW233468   3.070   4.953   1.628 -2.0878  0.3838 -2.2628
 7417SOL     OW33469   9.844   0.490   5.314 -0.1206 -0.3328 -0.4705
 7417SOL    HW133470   9.812   0.495   5.220 -1.5932 -1.0578 -0.0130
 7417SOL    HW233471   9.773   0.450   5.372  0.8763 -0.1549  0.9004
 7418SOL     OW33472   9.459   4.171   4.455 -0.2088 -0.4689 -0.2011
 7418SOL    HW133473   9.433   4.171   4.552 -0.9479 -0.8823 -0.3991
 7418SOL    HW233474   9.386   4.130   4.401  0.2562 -0.3422 -0.9248
 7419SOL     OW33475   2.354   8.539   2.866 -0.4297 -0.0763  0.4663
 7419SOL    HW133476   2.432   8.508   2.921  0.3894  0.2757 -0.4627
 7419SOL    HW233477   2.388   8.578   2.780 -1.6016  0.8519  0.4140
 7420SOL     OW33478   1.804   7.137   1.620  0.2892 -0.2665 -0.1205
 7420SOL    HW133479   1.765   7.047   1.636  1.2937 -0.4632  1.3492
 7420SOL    HW233480   1.859   7.136   1.536  2.7126 -1.8441  1.4230
 7421SOL     OW33481   4.587   1.972   5.579 -0.0928  0.9102  0.1084
 7421SOL    HW133482   4.548   1.986   5.488 -0.6971  0.9231  0.3709
 7421SOL    HW233483   4.605   2.061   5.621  0.9522  0.9178 -0.3170
 7422SOL     OW33484   4.022   2.597   6.171  0.3983 -0.2169 -0.7597
 7422SOL    HW133485   4.095   2.530   6.158  0.1004 -0.9517  1.2187
 7422SOL    HW233486   3.937   2.550   6.195  0.1360  0.8617  0.4712
 7423SOL     OW33487   0.768   2.755   4.516  0.1970  0.2568 -0.2707
 7423SOL    HW133488   0.817   2.771   4.430  0.8237  0.0350  0.0469
 7423SOL    HW233489   0.812   2.807   4.589  0.8929 -1.1616  0.3282
 7424SOL     OW33490   6.636   0.769   6.393  0.5597  0.1240 -0.2204
 7424SOL    HW133491   6.722   0.815   6.417  0.2333  0.6710 -0.1091
 7424SOL    HW233492   6.560   0.833   6.402  0.4834  0.4802 -3.2012
 7425SOL     OW33493   9.417   4.072   0.861  0.0805  0.4064  0.8436
 7425SOL    HW133494   9.325   4.053   0.827  0.1846  0.6870  0.4163
 7425SOL    HW233495   9.485   4.050   0.791  0.3846 -0.3813  1.3662
 7426SOL     OW33496   2.698   7.995   3.146 -0.3287  0.0372 -0.2569
 7426SOL    HW133497   2.736   8.005   3.238 -1.5410  1.8692  0.0690
 7426SOL    HW233498   2.603   7.963   3.152  0.5709 -2.9153 -1.0103
 7427SOL     OW33499   1.634   2.424   3.338 -0.6984  0.4391  0.1593
 7427SOL    HW133500   1.653   2.326   3.329  0.2516  0.5191  1.0586
 7427SOL    HW233501   1.601   2.460   3.251  0.9980 -0.2523 -0.8156
 7428SOL     OW33502   7.686   0.967   5.617  0.3507  0.6732  0.5177
 7428SOL    HW133503   7.668   1.019   5.533  0.1971 -0.1393  0.0357
 7428SOL    HW233504   7.766   0.908   5.603  0.9211  1.2530  1.2761
 7429SOL     OW33505   8.918   7.026   2.289 -0.2253  0.9707  0.3150
 7429SOL    HW133506   8.875   6.944   2.326 -0.2392  1.8431  2.2937
 7429SOL    HW233507   8.854   7.102   2.293  0.2344  1.3928 -0.2733
 7430SOL     OW33508   9.675   0.949   5.631  0.1600 -0.7009  0.2317
 7430SOL    HW133509   9.681   0.893   5.549 -0.3644 -0.2014 -0.1577
 7430SOL    HW233510   9.732   1.031   5.621 -0.1185 -0.5030  0.2502
 7431SOL     OW33511   8.047   2.552   6.378  0.1357  0.1905 -0.1379
 7431SOL    HW133512   8.135   2.506   6.370 -0.1966 -0.6370  0.8627
 7431SOL    HW233513   7.974   2.493   6.344 -0.2339  0.1288  0.7264
 7432SOL     OW33514   8.546   8.336   1.811 -0.3681 -0.1574 -0.2198
 7432SOL    HW133515   8.476   8.352   1.742 -1.6641  2.0803  1.5443
 7432SOL    HW233516   8.618   8.404   1.801 -0.9296  0.6455  1.0579
 7433SOL     OW33517   9.885   6.422   3.455  0.2550 -0.3366 -0.2919
 7433SOL    HW133518   9.804   6.474   3.428  0.4804  0.6940  0.9623
 7433SOL    HW233519   9.877   6.328   3.421 -2.1654 -0.6559  1.0378
 7434SOL     OW33520   7.403   2.645   2.638  0.0314 -0.0592 -0.3249
 7434SOL    HW133521   7.332   2.655   2.707 -0.3287  0.7923 -0.8063
 7434SOL    HW233522   7.374   2.577   2.570 -0.0796 -0.1191 -0.2163
 7435SOL     OW33523   2.178   8.286   6.102 -0.1670  0.1375  0.5856
 7435SOL    HW133524   2.139   8.195   6.118  1.5921 -0.5486  1.1318
 7435SOL    HW233525   2.223   8.287   6.013  1.4171 -0.1134  1.3693
 7436SOL     OW33526   3.428   0.719   3.019  0.1783 -0.3729  0.0288
 7436SOL    HW133527   3.379   0.766   2.946  1.4795 -0.3039 -0.8060
 7436SOL    HW233528   3.493   0.782   3.062 -0.1629 -0.5797  0.8588
 7437SOL     OW33529   6.388   7.587   6.123  0.3559  0.3593  0.0713
 7437SOL    HW133530   6.304   7.532   6.130 -0.3028  1.4391  0.7555
 7437SOL    HW233531   6.460   7.532   6.082 -0.4443 -0.8589  0.2745
 7438SOL     OW33532   9.786   5.733   3.986  0.6838  0.5887 -0.9622
 7438SOL    HW133533   9.694   5.740   4.025  0.9884 -0.2125 -0.0886
 7438SOL    HW233534   9.793   5.795   3.908 -0.7398  0.3534 -1.3104
 7439SOL     OW33535   8.267   1.822   3.016 -0.0253  0.0395  0.5690
 7439SOL    HW133536   8.265   1.858   3.109 -2.9698  1.7511 -0.1018
 7439SOL    HW233537   8.198   1.750   3.006 -1.2799  1.3783 -0.8231
 7440SOL     OW33538   4.580   7.795   4.259  0.1927  0.4752 -0.0843
 7440SOL    HW133539   4.680   7.801   4.261  0.3286 -1.3781 -0.9246
 7440SOL    HW233540   4.549   7.782   4.165 -0.8100  0.4884  0.2428
 7441SOL     OW33541   9.132   5.634   4.409  0.6370 -0.3416  0.3229
 7441SOL    HW133542   9.046   5.677   4.381 -0.0559 -1.6669  0.3530
 7441SOL    HW233543   9.153   5.559   4.346  0.7001 -1.3334  1.5076
 7442SOL     OW33544   0.919   5.529   0.660 -0.1816  0.3820 -0.4653
 7442SOL    HW133545   0.974   5.607   0.629  1.2344 -0.8235 -1.0594
 7442SOL    HW233546   0.969   5.444   0.642 -1.8534 -0.6905 -0.1563
 7443SOL     OW33547   7.538   5.000   1.780 -0.1598 -0.2834 -0.3908
 7443SOL    HW133548   7.596   5.025   1.702 -0.8888 -0.2129 -0.9177
 7443SOL    HW233549   7.442   5.002   1.752 -0.4126 -0.5231  0.4408
 7444SOL     OW33550   3.741   0.824   1.533  0.4597 -0.3182  0.1498
 7444SOL    HW133551   3.747   0.772   1.618 -0.3928 -1.3427 -0.4093
 7444SOL    HW233552   3.821   0.806   1.477  0.3668 -0.7126  0.1417
 7445SOL     OW33553   2.887   5.489   1.231 -0.3256 -0.1229 -0.1305
 7445SOL    HW133554   2.943   5.460   1.153  0.4189 -1.2237  0.7867
 7445SOL    HW233555   2.939   5.554   1.287 -0.7404  0.4238 -0.3753
 7446SOL     OW33556   7.400   7.557   6.200  0.5220  0.0631 -0.7045
 7446SOL    HW133557   7.396   7.485   6.270  0.0640  0.4788 -0.3036
 7446SOL    HW233558   7.467   7.626   6.228 -0.1589  0.5819 -0.3395
 7447SOL     OW33559   1.274   8.883   4.636  0.1019 -0.0107  0.2609
 7447SOL    HW133560   1.180   8.875   4.669  0.4126  0.5007  1.2599
 7447SOL    HW233561   1.331   8.815   4.681  0.7006  1.2497  1.4311
 7448SOL     OW33562   1.691   0.249   4.261  0.2482  0.4620  0.1756
 7448SOL    HW133563   1.785   0.222   4.283  0.3985 -0.3995 -1.4629
 7448SOL    HW233564   1.685   0.272   4.164 -1.6800 -1.3967 -0.1724
 7449SOL     OW33565   1.269   5.924   1.493 -0.0725 -0.7375 -0.0610
 7449SOL    HW133566   1.327   5.949   1.571  0.4826  0.8891 -0.9849
 7449SOL    HW233567   1.327   5.899   1.416 -0.5917  1.4877 -1.1861
 7450SOL     OW33568   6.968   2.428   3.069  0.0717  0.1222  0.2089
 7450SOL    HW133569   6.933   2.432   3.162  1.6616 -1.1786  0.8875
 7450SOL    HW233570   6.919   2.358   3.017  1.2970 -1.3357  1.0000
 7451SOL     OW33571   6.507   9.167   6.100  0.3604  0.5617  0.2030
 7451SOL    HW133572   6.602   9.195   6.116  0.9668 -1.3672  0.0199
 7451SOL    HW233573   6.503   9.101   6.025 -1.2738  1.4949 -0.5559
 7452SOL     OW33574   8.485   8.303   6.150  0.0811 -0.5362 -0.5811
 7452SOL    HW133575   8.438   8.388   6.175  0.8932  0.3316 -1.9394
 7452SOL    HW233576   8.578   8.304   6.187  1.0865  0.4949 -3.0450
 7453SOL     OW33577   0.403   9.909   2.227 -0.2247  0.3323 -0.5075
 7453SOL    HW133578   0.409   9.962   2.311 -2.0604  0.4049 -0.4038
 7453SOL    HW233579   0.343   9.956   2.162  1.0368  0.2046 -1.8159
 7454SOL     OW33580   2.982   0.141   0.743  0.5352  0.1800  0.6096
 7454SOL    HW133581   2.903   0.156   0.683  1.3281  0.4986 -0.3565
 7454SOL    HW233582   2.950   0.104   0.830 -0.6944  0.3689  0.2544
 7455SOL     OW33583   9.328   9.502   4.202  0.0083 -0.0616 -0.0298
 7455SOL    HW133584   9.271   9.584   4.210  0.2117  0.1165 -0.4122
 7455SOL    HW233585   9.282   9.425   4.247 -0.0682  0.3190  0.5566
 7456SOL     OW33586   4.052   0.476   6.045  0.0952 -0.2698  0.7758
 7456SOL    HW133587   4.116   0.404   6.018  0.6810 -0.1189  1.7332
 7456SOL    HW233588   3.973   0.435   6.090 -0.3455 -0.4325 -0.1314
 7457SOL     OW33589   6.148   4.446   0.280  0.0062 -0.0222 -0.3399
 7457SOL    HW133590   6.192   4.468   0.367  0.3180 -0.3848 -0.4041
 7457SOL    HW233591   6.059   4.405   0.298  0.4351 -0.8868 -0.1700
 7458SOL     OW33592   0.597   3.928   1.917 -0.0289 -0.2213 -0.3423
 7458SOL    HW133593   0.507   3.940   1.875  0.2285 -0.1846 -0.8835
 7458SOL    HW233594   0.641   3.846   1.879  0.5736  0.3111 -0.7911
 7459SOL     OW33595   8.497   0.880   6.096  0.3454  0.3131 -0.5961
 7459SOL    HW133596   8.530   0.939   6.170  2.5316 -0.2079 -1.1009
 7459SOL    HW233597   8.575   0.837   6.051 -1.0944 -1.2300 -1.6899
 7460SOL     OW33598   1.549   6.745   5.422  0.4158  0.1525  1.1385
 7460SOL    HW133599   1.608   6.665   5.428  0.3546 -0.0920 -1.1610
 7460SOL    HW233600   1.456   6.721   5.450  0.0523 -0.9840 -0.9172
 7461SOL     OW33601   5.521   5.412   2.141 -0.0003 -0.1047  0.2788
 7461SOL    HW133602   5.524   5.322   2.185  0.2832 -0.1007  0.2654
 7461SOL    HW233603   5.481   5.478   2.204 -1.3738 -0.4996 -0.1660
 7462SOL     OW33604   6.753   1.074   6.308 -0.2432  0.1173  0.4697
 7462SOL    HW133605   6.662   1.108   6.286 -0.8757 -0.6967  1.7636
 7462SOL    HW233606   6.757   1.050   6.405  1.1993 -0.3157  0.3139
 7463SOL     OW33607   9.342   0.130   1.739  0.3264 -0.1431 -0.0843
 7463SOL    HW133608   9.302   0.102   1.652  0.8976 -0.5139 -0.2334
 7463SOL    HW233609   9.424   0.075   1.758  0.8449  0.6860  0.1488
 7464SOL     OW33610   1.255   0.616   4.497 -0.3706 -0.5555  0.2211
 7464SOL    HW133611   1.257   0.543   4.428 -1.5578 -2.5065  2.1656
 7464SOL    HW233612   1.301   0.584   4.580 -0.0833  1.2854  0.7803
 7465SOL     OW33613   3.228   1.239   5.112 -0.1022  0.3941  0.4607
 7465SOL    HW133614   3.206   1.276   5.202 -1.7091 -0.6118  0.5065
 7465SOL    HW233615   3.279   1.307   5.059 -0.7358  1.6787  1.4789
 7466SOL     OW33616   4.030   4.554   0.130  0.5839 -0.2459  0.0693
 7466SOL    HW133617   4.014   4.529   0.226 -0.2225  0.7992  0.2174
 7466SOL    HW233618   4.086   4.637   0.127  1.0198 -0.5542 -0.3799
 7467SOL     OW33619   7.780   7.839   5.653 -0.2210 -0.1059  0.6307
 7467SOL    HW133620   7.833   7.821   5.570 -0.0358 -0.5406  0.8436
 7467SOL    HW233621   7.840   7.834   5.733 -0.0827  1.8384  0.6619
 7468SOL     OW33622   1.298   7.653   6.531 -0.4793  0.2430  0.3319
 7468SOL    HW133623   1.221   7.617   6.479  0.2731  1.0242 -1.3780
 7468SOL    HW233624   1.266   7.729   6.589 -0.7133  1.7165 -1.6664
 7469SOL     OW33625   5.941   9.384   6.695  0.1991 -0.1561 -0.1907
 7469SOL    HW133626   6.001   9.417   6.768  1.7995 -1.8099 -0.7253
 7469SOL    HW233627   5.996   9.361   6.615 -1.5434  1.7710 -1.9914
 7470SOL     OW33628   5.257   2.314   1.140 -0.2125 -0.2629  0.1090
 7470SOL    HW133629   5.298   2.238   1.089 -1.3010 -1.6526  1.2369
 7470SOL    HW233630   5.288   2.312   1.235  0.2850  1.1287 -0.0153
 7471SOL     OW33631   3.631   9.957   4.084 -1.1095  0.3062  0.0086
 7471SOL    HW133632   3.659   9.957   3.988  2.0678  0.5404  0.8764
 7471SOL    HW233633   3.608  10.050   4.112 -1.4315  0.3366 -0.3524
 7472SOL     OW33634   2.469   9.216   1.678  0.0099 -0.2400 -0.7550
 7472SOL    HW133635   2.382   9.228   1.726  1.0469 -3.5379  2.2005
 7472SOL    HW233636   2.466   9.264   1.590 -4.0971  1.1975  0.0695
 7473SOL     OW33637   2.986   2.529   0.524  0.4836 -0.0870  0.0975
 7473SOL    HW133638   2.914   2.573   0.578  1.5105 -0.2240  1.6224
 7473SOL    HW233639   2.995   2.434   0.553  0.6505 -0.3246 -0.7332
 7474SOL     OW33640   0.415   1.540   3.963 -0.4313  0.3943 -0.4214
 7474SOL    HW133641   0.497   1.534   3.906  0.2377 -0.3160  0.5877
 7474SOL    HW233642   0.341   1.488   3.920  0.0999 -0.2276 -0.5906
 7475SOL     OW33643   8.906   0.836   3.785  0.2344  0.2243 -0.2375
 7475SOL    HW133644   8.812   0.864   3.763  0.7527  0.7271 -1.9446
 7475SOL    HW233645   8.970   0.905   3.751  1.4104 -1.8447 -2.3942
 7476SOL     OW33646   9.557   6.243   5.266  0.4863  0.1382  0.5336
 7476SOL    HW133647   9.591   6.333   5.238  1.2953 -0.8204 -1.6599
 7476SOL    HW233648   9.475   6.220   5.213 -0.0310 -0.2063  1.4639
 7477SOL     OW33649   2.371   9.477   5.386 -0.1110  0.2272  0.3189
 7477SOL    HW133650   2.313   9.398   5.363 -0.5726  0.6744 -0.0794
 7477SOL    HW233651   2.316   9.560   5.382  1.1504  0.9883 -2.7996
 7478SOL     OW33652   2.016   6.259   1.871  0.2461 -0.3137  0.1279
 7478SOL    HW133653   1.966   6.325   1.814 -0.1873 -0.3664  0.4476
 7478SOL    HW233654   1.955   6.183   1.895  0.9383 -1.1845 -0.8135
 7479SOL     OW33655   7.508   7.793   1.988  0.1573 -0.0129 -0.1125
 7479SOL    HW133656   7.573   7.848   1.935 -0.0639 -1.0030 -1.4423
 7479SOL    HW233657   7.424   7.781   1.935 -1.0219  1.0009  1.4629
 7480SOL     OW33658   8.590   7.679   4.254 -0.1548  0.1782  0.4669
 7480SOL    HW133659   8.612   7.772   4.226  1.2021 -0.5191 -0.8739
 7480SOL    HW233660   8.567   7.678   4.352  1.2506  1.6910  0.8410
 7481SOL     OW33661   4.494   3.106   3.032  0.0684  0.4137 -0.5478
 7481SOL    HW133662   4.486   3.176   3.104 -0.9586 -0.1450 -0.1018
 7481SOL    HW233663   4.494   3.151   2.943  2.6596  1.2150 -0.1840
 7482SOL     OW33664   7.540   4.821   1.977  0.5779  0.2709 -0.2047
 7482SOL    HW133665   7.533   4.888   1.902  3.3670  0.1502 -0.6472
 7482SOL    HW233666   7.629   4.776   1.972 -0.5581 -2.2131  1.1804
 7483SOL     OW33667   1.143   2.860   0.261  0.0277  0.4845 -0.6599
 7483SOL    HW133668   1.104   2.802   0.189 -1.2149  0.7713 -0.2380
 7483SOL    HW233669   1.228   2.900   0.228  0.2259 -0.5402 -1.4358
 7484SOL     OW33670   4.187   2.334   2.847 -0.1871 -0.0943 -0.3102
 7484SOL    HW133671   4.227   2.293   2.765  0.9965 -0.1124  0.2731
 7484SOL    HW233672   4.109   2.279   2.878  0.8319 -1.4049 -0.0497
 7485SOL     OW33673   1.778   0.313   2.647 -0.0377 -0.5739  0.6553
 7485SOL    HW133674   1.762   0.403   2.609  1.2400 -0.4709  0.3436
 7485SOL    HW233675   1.864   0.313   2.698  1.2798 -2.2512 -1.4726
 7486SOL     OW33676   5.628   0.878   4.993 -0.7018  0.0985  0.1624
 7486SOL    HW133677   5.634   0.818   4.913  1.0734 -0.1311  0.4357
 7486SOL    HW233678   5.533   0.883   5.024 -1.4203  0.1826 -1.9373
 7487SOL     OW33679   1.794   0.031   3.573 -0.7062 -0.0060  0.4059
 7487SOL    HW133680   1.782   0.129   3.587  0.4235  0.0560  0.9500
 7487SOL    HW233681   1.891   0.010   3.562 -0.8913 -1.1278  0.8235
 7488SOL     OW33682   9.933   8.254   3.254  0.1071 -0.3563  0.1823
 7488SOL    HW133683   9.914   8.320   3.326 -0.9077 -1.5347  1.0160
 7488SOL    HW233684   9.944   8.302   3.167 -1.8319  0.8137  0.5392
 7489SOL     OW33685   4.669   5.877   3.898  0.0322  0.3242  0.1118
 7489SOL    HW133686   4.628   5.788   3.916 -1.3942  0.8947 -0.2364
 7489SOL    HW233687   4.735   5.869   3.823  0.1392 -0.4957  0.2897
 7490SOL     OW33688   0.632   0.546   5.739 -0.3324  0.0444 -0.3319
 7490SOL    HW133689   0.625   0.505   5.648 -1.6765 -1.8914  0.6159
 7490SOL    HW233690   0.543   0.584   5.765  0.0681  0.6563  0.1646
 7491SOL     OW33691   5.348   2.898   4.561 -0.3518 -0.0287  0.4259
 7491SOL    HW133692   5.293   2.817   4.540  0.8661 -0.9488  0.7829
 7491SOL    HW233693   5.380   2.940   4.476  0.4563 -0.9117  0.2938
 7492SOL     OW33694   0.076   1.365   0.844 -0.4180 -0.4827  0.0265
 7492SOL    HW133695   0.135   1.383   0.923 -2.3889 -1.0321  1.6769
 7492SOL    HW233696   0.063   1.449   0.792  2.9613 -0.6520 -1.2128
 7493SOL     OW33697   8.928   5.030   3.980  0.0465 -0.6793  0.6199
 7493SOL    HW133698   8.882   5.048   4.067 -0.1307  0.7090  0.2396
 7493SOL    HW233699   8.890   5.089   3.909  0.6386 -1.3532 -0.2709
 7494SOL     OW33700   7.714   7.402   5.037  0.0281 -0.3042 -0.2885
 7494SOL    HW133701   7.732   7.305   5.051 -0.2542 -0.3666 -0.3676
 7494SOL    HW233702   7.624   7.414   4.995  0.0834 -0.0116 -0.3259
 7495SOL     OW33703   0.397   6.260   0.837 -0.7647  0.0837  0.3073
 7495SOL    HW133704   0.495   6.276   0.845 -0.5306 -0.6177 -1.1086
 7495SOL    HW233705   0.350   6.349   0.830 -0.1885  0.3927  0.3148
 7496SOL     OW33706   8.386   8.092   1.877 -0.0954 -0.3653  0.5451
 7496SOL    HW133707   8.290   8.120   1.864  0.2780  1.1388  0.8613
 7496SOL    HW233708   8.446   8.165   1.843  0.9828 -2.2799 -1.8061
 7497SOL     OW33709   0.047   6.092   0.402  0.7097  0.4366 -0.3734
 7497SOL    HW133710   0.139   6.055   0.393  1.4357  1.7438  1.4941
 7497SOL    HW233711   0.052   6.191   0.413 -0.8891  0.4675  0.1815
 7498SOL     OW33712   5.330   4.774   8.119  0.3027 -0.1690  0.2059
 7498SOL    HW133713   5.341   4.850   8.183  3.5193  0.1048 -0.5847
 7498SOL    HW233714   5.278   4.804   8.039 -2.1984 -0.0385  1.8296
 7499SOL     OW33715   1.989   4.177   4.352 -0.1832  0.1665 -0.5545
 7499SOL    HW133716   1.990   4.084   4.388 -0.4052 -0.8181 -2.9889
 7499SOL    HW233717   1.950   4.239   4.420 -2.4632 -1.9406  0.1351
 7500SOL     OW33718   5.295   2.174   5.840  0.2134  0.0289  0.7227
 7500SOL    HW133719   5.379   2.225   5.818  1.1251 -0.6637  2.5326
 7500SOL    HW233720   5.282   2.172   5.939 -1.2444 -1.0100  0.5197
 7501SOL     OW33721   7.876   1.807   4.297  0.4373  0.0427 -0.7484
 7501SOL    HW133722   7.894   1.726   4.353  1.7549  1.0027  0.2572
 7501SOL    HW233723   7.962   1.847   4.267 -0.1850  1.1261 -1.1373
 7502SOL     OW33724   1.030   3.400   3.760  0.6376  0.0915 -0.0662
 7502SOL    HW133725   1.081   3.324   3.720  0.5154  0.7897 -1.5875
 7502SOL    HW233726   1.004   3.465   3.688 -0.0251  1.1304  1.0782
 7503SOL     OW33727   2.894   6.177   2.854 -0.3227 -0.0118 -0.4136
 7503SOL    HW133728   2.851   6.195   2.942 -0.6184 -0.7808 -0.3985
 7503SOL    HW233729   2.865   6.087   2.820 -1.1337  0.7735 -1.8463
 7504SOL     OW33730   3.686   5.073   4.193 -0.2226  0.8178 -0.1513
 7504SOL    HW133731   3.685   5.072   4.293  0.2374  1.7824 -0.1258
 7504SOL    HW233732   3.747   5.001   4.159 -3.1979 -1.9608  0.1498
 7505SOL     OW33733   7.524   2.163   5.181  0.2082 -0.0628  0.1066
 7505SOL    HW133734   7.583   2.085   5.161 -0.4373 -0.1806 -1.4811
 7505SOL    HW233735   7.433   2.146   5.142 -0.1932  1.1010  0.5259
 7506SOL     OW33736   4.107   8.526   0.563 -0.1379 -0.4248 -0.1448
 7506SOL    HW133737   4.188   8.578   0.535 -0.5531  0.9238  1.0969
 7506SOL    HW233738   4.044   8.587   0.611 -2.5395 -1.1443 -2.3026
 7507SOL     OW33739   7.213   2.564   3.947  0.0713 -0.0253  0.7392
 7507SOL    HW133740   7.280   2.494   3.970 -2.1818 -1.6449  2.5467
 7507SOL    HW233741   7.246   2.653   3.977  0.8714 -0.9862  2.7450
 7508SOL     OW33742   8.360   0.974   4.846  0.6565  0.5064  0.4793
 7508SOL    HW133743   8.381   0.969   4.749  3.7027  0.4765  1.0758
 7508SOL    HW233744   8.330   0.884   4.879 -1.7783  0.8623 -0.6827
 7509SOL     OW33745   4.476   0.614   5.097  0.2596 -0.0383  0.9252
 7509SOL    HW133746   4.392   0.653   5.133 -0.2374 -0.0246 -0.2321
 7509SOL    HW233747   4.504   0.536   5.153 -0.7826 -0.3357  1.0418
 7510SOL     OW33748   3.976   1.413   4.388 -0.0059 -0.0128  0.0350
 7510SOL    HW133749   4.056   1.434   4.443  1.3777 -1.5558 -1.3508
 7510SOL    HW233750   3.905   1.482   4.405  0.9267  0.3521  2.5902
 7511SOL     OW33751   9.755   1.102   3.828  0.1659  0.3679  0.9214
 7511SOL    HW133752   9.766   1.073   3.923 -2.8010  0.2729  1.2869
 7511SOL    HW233753   9.738   1.201   3.825  0.1323  0.3519  0.5132
 7512SOL     OW33754   7.070   1.335   1.929 -0.2365 -0.4220 -0.6775
 7512SOL    HW133755   7.102   1.262   1.868  0.2422  0.2276 -1.2028
 7512SOL    HW233756   7.144   1.400   1.945 -0.6112 -0.1479 -0.0580
 7513SOL     OW33757   0.385   6.369   2.766 -0.5133 -0.5601  0.5502
 7513SOL    HW133758   0.295   6.403   2.742  0.1893  0.5528 -0.6000
 7513SOL    HW233759   0.403   6.386   2.863  0.1371  3.1835 -0.1704
 7514SOL     OW33760   0.532   7.992   1.872  0.1618  0.6196 -0.5911
 7514SOL    HW133761   0.449   8.041   1.847 -0.6949 -0.7980 -0.5588
 7514SOL    HW233762   0.598   8.056   1.912 -1.2718  1.5869  0.2447
 7515SOL     OW33763   3.563   1.588   4.992 -0.1091 -0.0304 -0.3658
 7515SOL    HW133764   3.633   1.516   4.995 -0.9992 -0.9879 -1.7138
 7515SOL    HW233765   3.530   1.606   5.084  2.3454  0.8798  0.3787
 7516SOL     OW33766   7.410   8.022   6.121 -0.1880 -0.0470 -0.1383
 7516SOL    HW133767   7.380   7.979   6.035  0.5366 -0.6749 -0.0814
 7516SOL    HW233768   7.505   7.997   6.139 -0.1453  0.5903  0.5342
 7517SOL     OW33769   2.601   8.223   1.369  0.4616  0.3231 -0.6776
 7517SOL    HW133770   2.620   8.159   1.444 -0.3928  0.5375 -0.2636
 7517SOL    HW233771   2.639   8.187   1.284  0.7316 -0.3231 -0.2909
 7518SOL     OW33772   8.750   1.473   3.257 -0.4499 -0.0803  0.1247
 7518SOL    HW133773   8.814   1.462   3.181 -1.0460 -0.8824 -0.2761
 7518SOL    HW233774   8.737   1.570   3.276  1.3382  0.0650  0.6090
 7519SOL     OW33775   9.075   5.308   6.126  0.9609 -0.3791 -0.4481
 7519SOL    HW133776   8.986   5.319   6.082  1.3064  0.6369 -0.8986
 7519SOL    HW233777   9.129   5.241   6.075  1.1925  0.4652 -1.3290
 7520SOL     OW33778   1.132   8.675   1.656  0.0942 -0.7003  0.3194
 7520SOL    HW133779   1.087   8.591   1.686 -1.9850  0.3943  0.4104
 7520SOL    HW233780   1.063   8.746   1.642  1.8337  1.0747  0.5031
 7521SOL     OW33781   2.353   2.163   4.092 -0.0262 -0.4488 -0.0686
 7521SOL    HW133782   2.423   2.167   4.163 -0.8677 -1.1482  0.8110
 7521SOL    HW233783   2.287   2.092   4.114 -1.4100  0.6628 -0.5161
 7522SOL     OW33784   7.094   9.577   5.843  0.4547 -0.1254  0.0889
 7522SOL    HW133785   7.167   9.530   5.893 -1.7969 -3.2698  0.5668
 7522SOL    HW233786   7.070   9.523   5.761 -0.9946  1.1110 -0.3197
 7523SOL     OW33787   9.603   0.025   4.737  0.0274 -0.4455 -0.1362
 7523SOL    HW133788   9.506   0.040   4.720  0.4034  0.6149 -1.4416
 7523SOL    HW233789   9.657   0.083   4.676  1.4945 -2.4103 -0.7751
 7524SOL     OW33790   8.911   1.631   0.648 -0.6458  0.1248  0.2279
 7524SOL    HW133791   8.859   1.716   0.633 -1.0809 -0.1675  0.0791
 7524SOL    HW233792   8.851   1.552   0.634  0.0320 -0.2295 -0.6957
 7525SOL     OW33793   2.491   9.703   4.573  0.0672  0.1846  0.4849
 7525SOL    HW133794   2.482   9.714   4.672 -0.0472  1.3689  0.3548
 7525SOL    HW233795   2.401   9.693   4.532  0.1807 -1.7305  0.6331
 7526SOL     OW33796   9.440   6.489   3.333 -0.6234  0.2191 -0.0773
 7526SOL    HW133797   9.509   6.483   3.261  1.3117  1.5211  1.6029
 7526SOL    HW233798   9.411   6.397   3.359 -0.6586 -0.2878 -1.8590
 7527SOL     OW33799   3.969   4.713   0.767  0.6219 -0.3248  0.4781
 7527SOL    HW133800   3.917   4.790   0.806  0.9378 -0.1337  0.5192
 7527SOL    HW233801   4.065   4.721   0.792  0.9021  0.0164 -0.6737
 7528SOL     OW33802   1.307   9.789   2.821  0.3048 -0.3075  0.1363
 7528SOL    HW133803   1.348   9.810   2.732  0.0763  0.6409  0.2478
 7528SOL    HW233804   1.350   9.707   2.859  1.3384  0.0525 -0.2410
 7529SOL     OW33805   0.164   5.414   3.785  0.2052  0.1938 -0.6409
 7529SOL    HW133806   0.120   5.328   3.758 -2.2448  1.1981  0.0338
 7529SOL    HW233807   0.095   5.485   3.795  1.9330  1.7028  0.9905
 7530SOL     OW33808   3.716   7.905   4.197  0.8231 -0.3216 -0.1351
 7530SOL    HW133809   3.644   7.908   4.128  0.0451  2.6633  0.6997
 7530SOL    HW233810   3.715   7.817   4.244 -1.3213 -0.8377 -1.1165
 7531SOL     OW33811   2.971   0.868   0.337  0.1021  0.0357  0.5904
 7531SOL    HW133812   2.896   0.894   0.277  0.6602  0.2277 -0.0399
 7531SOL    HW233813   3.049   0.929   0.321  0.8734 -1.0240  0.2221
 7532SOL     OW33814   9.827   1.918   4.330  0.3953  0.2467  0.3288
 7532SOL    HW133815   9.834   1.853   4.406 -1.9505 -0.8335 -0.3374
 7532SOL    HW233816   9.887   1.888   4.256 -0.5429 -1.1110  0.0899
 7533SOL     OW33817   4.656   9.278   4.992 -0.1751  0.4259 -0.0119
 7533SOL    HW133818   4.687   9.226   4.912  0.3663  1.3887 -0.4340
 7533SOL    HW233819   4.733   9.296   5.052 -0.6029 -0.3805  0.7830
 7534SOL     OW33820   4.796   9.898   5.873 -0.2013 -0.0266  0.4713
 7534SOL    HW133821   4.825   9.850   5.956  2.2356 -0.0902 -0.3672
 7534SOL    HW233822   4.871   9.955   5.839 -0.2001 -1.9985 -3.1282
 7535SOL     OW33823   6.272   3.872   0.408  0.0009  1.1013  0.1415
 7535SOL    HW133824   6.262   3.775   0.426  1.8090  0.9663  0.5620
 7535SOL    HW233825   6.231   3.895   0.320 -0.8952  0.0649  0.2880
 7536SOL     OW33826   9.653   3.514   3.265  0.3547 -0.2534 -0.4946
 7536SOL    HW133827   9.741   3.521   3.313  0.4333 -0.4950 -0.6019
 7536SOL    HW233828   9.632   3.417   3.248  0.4511 -0.1631 -1.1678
 7537SOL     OW33829   0.351   2.460   0.897 -0.1772  0.2446  0.4602
 7537SOL    HW133830   0.391   2.529   0.958  0.9478  0.4828 -0.5262
 7537SOL    HW233831   0.274   2.416   0.943 -0.0014  1.1472  1.6559
 7538SOL     OW33832   8.575   7.823   4.781 -0.3861  0.9094 -0.1785
 7538SOL    HW133833   8.558   7.871   4.867  1.6289 -0.7843  1.2134
 7538SOL    HW233834   8.663   7.851   4.743 -1.0607  1.3178 -1.4807
 7539SOL     OW33835   8.896   4.545   4.807 -0.5597  0.0861  0.2297
 7539SOL    HW133836   8.938   4.565   4.718  0.4963 -0.7511  0.5231
 7539SOL    HW233837   8.810   4.495   4.792 -0.3257 -0.1651 -0.3167
 7540SOL     OW33838   2.366   2.143   1.467  0.0238 -0.4549  0.5717
 7540SOL    HW133839   2.393   2.064   1.522 -1.3528 -1.2113  0.1858
 7540SOL    HW233840   2.315   2.112   1.387  0.0328  0.7878  0.0785
 7541SOL     OW33841   9.296   6.280   1.769 -0.1504  0.2243 -0.4198
 7541SOL    HW133842   9.305   6.378   1.757  0.5430  0.2621  0.3821
 7541SOL    HW233843   9.379   6.234   1.738 -0.1115 -0.0342  0.0596
 7542SOL     OW33844   9.698   6.612   2.359 -0.5853  0.3602  0.1086
 7542SOL    HW133845   9.646   6.644   2.439  0.0326 -0.4744  0.8671
 7542SOL    HW233846   9.785   6.661   2.354 -0.5152  0.2351  0.1018
 7543SOL     OW33847   9.900   6.706   6.022 -0.6191  0.0934 -0.2020
 7543SOL    HW133848   9.819   6.691   5.965  0.8098  0.9586 -2.5061
 7543SOL    HW233849   9.884   6.784   6.083 -1.7968 -0.2403 -0.0601
 7544SOL     OW33850   0.619   0.518   2.774 -0.0388 -0.1639 -0.0255
 7544SOL    HW133851   0.562   0.508   2.855 -1.0469 -0.6874 -0.7852
 7544SOL    HW233852   0.697   0.457   2.779  0.0626  0.0229  0.6846
 7545SOL     OW33853   9.160   0.378   4.401  0.4675 -0.0872  0.3636
 7545SOL    HW133854   9.121   0.467   4.377 -0.6017 -0.3869  0.9172
 7545SOL    HW233855   9.189   0.379   4.497 -0.5306 -0.6441  0.6913
 7546SOL     OW33856   2.399   0.406   0.863  0.2164 -0.2424  0.0793
 7546SOL    HW133857   2.488   0.450   0.879  0.7147 -0.8105 -1.0881
 7546SOL    HW233858   2.375   0.414   0.766 -1.4646  0.7385  0.5534
 7547SOL     OW33859   1.931   7.784   3.656  0.2077  0.3582  0.2892
 7547SOL    HW133860   1.929   7.884   3.653 -0.9025  0.3684  1.2130
 7547SOL    HW233861   1.899   7.748   3.568 -0.8872  0.8086  0.4994
 7548SOL     OW33862   5.892   8.493   4.534 -0.2405 -0.1819  0.3545
 7548SOL    HW133863   5.888   8.448   4.623  2.1834  0.1496  0.6822
 7548SOL    HW233864   5.855   8.586   4.542  0.9541  0.2284  1.2967
 7549SOL     OW33865   0.565   8.934   4.331 -0.0352 -0.0709  0.1415
 7549SOL    HW133866   0.472   8.935   4.368 -0.3115 -1.5687 -0.4749
 7549SOL    HW233867   0.629   8.900   4.400 -0.1297 -0.1927  0.1688
 7550SOL     OW33868   2.727   5.069   4.585  0.2002  0.0728  0.6753
 7550SOL    HW133869   2.810   5.055   4.639  0.3023 -1.2108  0.2150
 7550SOL    HW233870   2.742   5.142   4.519  0.2736  1.2520  1.9758
 7551SOL     OW33871   2.715   5.856   4.360  0.5189  0.1338 -0.1446
 7551SOL    HW133872   2.646   5.822   4.297 -1.4552 -0.0300  2.0226
 7551SOL    HW233873   2.774   5.781   4.390 -1.6554 -0.7666  1.9754
 7552SOL     OW33874   5.351   5.135   1.481 -0.2218 -0.3926 -0.2224
 7552SOL    HW133875   5.402   5.117   1.564  0.4052  0.5116 -0.4018
 7552SOL    HW233876   5.269   5.189   1.502 -0.2682 -0.4914 -0.1484
 7553SOL     OW33877   5.634   8.353   2.509 -0.6756 -0.0127  0.0356
 7553SOL    HW133878   5.589   8.364   2.420  0.1417  1.0981 -0.2475
 7553SOL    HW233879   5.634   8.440   2.558 -0.4324 -0.4377  0.7987
 7554SOL     OW33880   8.431   7.393   0.753  0.1880 -0.5697  0.3461
 7554SOL    HW133881   8.396   7.417   0.663  2.5091  2.1734  0.1115
 7554SOL    HW233882   8.505   7.326   0.743  0.3297 -0.3955  0.2251
 7555SOL     OW33883   8.432   4.017   1.260 -0.9368  0.0454  0.3518
 7555SOL    HW133884   8.454   4.056   1.170 -1.7020 -0.6478 -0.1464
 7555SOL    HW233885   8.509   3.962   1.292  0.3950  2.3598  1.3210
 7556SOL     OW33886   3.882   2.250   5.228  0.3753  0.4378  0.2148
 7556SOL    HW133887   3.825   2.194   5.289  1.0894  0.4147  0.8612
 7556SOL    HW233888   3.837   2.259   5.139  0.3833 -1.3706  0.0250
 7557SOL     OW33889   7.921   0.546   1.356 -0.4848  0.0282  0.0703
 7557SOL    HW133890   7.830   0.568   1.391  0.0718 -0.4831  1.8827
 7557SOL    HW233891   7.963   0.477   1.414  0.8245 -0.1766 -1.1107
 7558SOL     OW33892   7.695   6.196   3.914  0.3615  0.2520 -0.1200
 7558SOL    HW133893   7.790   6.181   3.888  0.4661 -0.0803  0.4617
 7558SOL    HW233894   7.651   6.257   3.847  1.1896  1.0151  0.0285
 7559SOL     OW33895   5.280   3.784   8.126 -0.7510  0.2913  0.3215
 7559SOL    HW133896   5.191   3.817   8.156 -0.4631  0.7085  0.7062
 7559SOL    HW233897   5.270   3.691   8.089 -1.1041 -0.2238  1.6865
 7560SOL     OW33898   4.366   5.414   3.431 -0.5658  0.8772 -0.1706
 7560SOL    HW133899   4.366   5.510   3.459  0.2011  0.9809 -0.5384
 7560SOL    HW233900   4.385   5.356   3.511  0.4797  1.1126 -0.2407
 7561SOL     OW33901   0.048   8.692   4.334 -0.0382  0.1648  0.5364
 7561SOL    HW133902   0.096   8.648   4.258  1.1068  0.5227  1.0377
 7561SOL    HW233903   0.111   8.704   4.410 -1.2866 -0.5758  1.7145
 7562SOL     OW33904   6.383   0.499   1.555 -0.5416 -0.1198  0.5147
 7562SOL    HW133905   6.393   0.434   1.631  2.6203 -2.0731 -1.4708
 7562SOL    HW233906   6.344   0.452   1.476  0.5094  0.7554 -0.5248
 7563SOL     OW33907   3.899   7.794   3.947  0.1584  0.8323 -0.5681
 7563SOL    HW133908   3.845   7.825   4.025 -0.1037 -2.2429  0.5447
 7563SOL    HW233909   3.845   7.800   3.864 -0.9062  0.4775  0.0926
 7564SOL     OW33910   4.231   2.555   0.403  0.4906  0.4703  0.1645
 7564SOL    HW133911   4.280   2.596   0.327  1.4612  1.1164  1.1163
 7564SOL    HW233912   4.135   2.581   0.399  0.3049 -0.4239 -1.4577
 7565SOL     OW33913   4.642   1.506   1.540  0.6728  0.0514 -0.3364
 7565SOL    HW133914   4.598   1.596   1.534 -0.6042 -0.6121 -1.1916
 7565SOL    HW233915   4.619   1.453   1.459  0.5106 -1.4599  0.6957
 7566SOL     OW33916   2.826   8.525   1.993 -0.7301 -0.2046 -0.0159
 7566SOL    HW133917   2.849   8.542   2.089  0.2285  0.4970 -0.3584
 7566SOL    HW233918   2.806   8.611   1.947  0.6647 -0.3196 -0.8995
 7567SOL     OW33919   2.448   5.049   2.030 -0.5902 -0.3491  0.0238
 7567SOL    HW133920   2.356   5.026   1.999 -0.5320 -1.1993  0.4601
 7567SOL    HW233921   2.501   5.087   1.954 -1.0728 -0.5365 -0.4053
 7568SOL     OW33922   9.718   9.301   5.239  0.5189 -0.1108  0.1240
 7568SOL    HW133923   9.699   9.277   5.334 -2.0143  0.2914 -0.2547
 7568SOL    HW233924   9.757   9.222   5.192  1.2124 -0.4956  1.3241
 7569SOL     OW33925   3.612   6.043   3.169  0.6672 -0.1829 -0.3297
 7569SOL    HW133926   3.611   5.946   3.193 -1.5495 -0.2415 -0.5681
 7569SOL    HW233927   3.536   6.063   3.107  1.4345  1.6022 -0.7234
 7570SOL     OW33928   0.348   7.029   3.589 -0.1664 -0.3569 -0.3360
 7570SOL    HW133929   0.361   7.033   3.688 -0.8872 -2.4044 -0.1436
 7570SOL    HW233930   0.307   6.941   3.564  0.3314 -0.0052 -2.4853
 7571SOL     OW33931   5.549   0.158   2.363  0.1155  0.3846  0.9647
 7571SOL    HW133932   5.597   0.225   2.305  0.3042  0.0321  0.7131
 7571SOL    HW233933   5.501   0.093   2.305  1.1122 -0.5634  1.1875
 7572SOL     OW33934   3.370   5.939   3.515 -0.0197 -0.0240 -1.1334
 7572SOL    HW133935   3.301   5.882   3.560  0.0757  0.4028 -0.4368
 7572SOL    HW233936   3.418   5.994   3.584  2.5807 -1.9774 -1.3435
 7573SOL     OW33937   9.909   5.050   1.580  0.4020  0.4189  0.1680
 7573SOL    HW133938   9.873   5.127   1.632 -1.9455 -0.4663 -0.1114
 7573SOL    HW233939  10.006   5.037   1.603  0.0007  1.4661  2.6063
 7574SOL     OW33940   8.413   4.766   2.597  0.2796  0.2988 -0.1585
 7574SOL    HW133941   8.381   4.828   2.525  1.3456 -0.5445 -1.3766
 7574SOL    HW233942   8.404   4.811   2.686  0.3421  1.9271 -0.9520
 7575SOL     OW33943   0.672   8.758   5.531  0.6988  0.1427  0.0363
 7575SOL    HW133944   0.768   8.744   5.554  1.0318 -0.3007 -1.5646
 7575SOL    HW233945   0.662   8.765   5.432 -0.8833  0.4981  0.2059
 7576SOL     OW33946   8.983   2.557   4.771 -0.0954 -0.0079  0.2793
 7576SOL    HW133947   9.041   2.554   4.690  0.9132 -0.9106  1.0252
 7576SOL    HW233948   9.034   2.526   4.850 -1.4187 -0.2253  1.0658
 7577SOL     OW33949   6.015   2.284   4.651 -0.1841 -0.6344 -0.3917
 7577SOL    HW133950   6.025   2.308   4.747  1.9411  0.6823 -0.8833
 7577SOL    HW233951   5.955   2.351   4.606  0.4273 -0.0713 -0.3814
 7578SOL     OW33952   0.468   6.061   4.351 -0.1049  0.0411  0.0042
 7578SOL    HW133953   0.391   6.039   4.411  0.8930 -0.3943  1.1354
 7578SOL    HW233954   0.548   6.010   4.379  0.5171  0.2078 -1.4080
 7579SOL     OW33955   8.538   9.423   2.106  0.4734  0.4749 -0.7847
 7579SOL    HW133956   8.611   9.407   2.173 -0.0254 -0.9974 -0.5698
 7579SOL    HW233957   8.475   9.492   2.141  0.7362  0.3966 -0.1472
 7580SOL     OW33958   4.614   2.245   2.738 -0.2298  0.5400 -0.2637
 7580SOL    HW133959   4.600   2.163   2.683  0.8262  0.4190 -0.3714
 7580SOL    HW233960   4.565   2.235   2.825 -1.0736  0.3036 -0.7693
 7581SOL     OW33961   9.210   0.132   1.463  0.5547 -0.3698 -0.4567
 7581SOL    HW133962   9.167   0.222   1.470  0.3455 -0.5656  0.9957
 7581SOL    HW233963   9.171   0.082   1.385 -0.4797  0.1859 -0.3111
 7582SOL     OW33964   9.138   9.201   6.048 -0.4135 -0.4168  0.6201
 7582SOL    HW133965   9.139   9.121   5.987 -5.5640  0.7063 -1.1729
 7582SOL    HW233966   9.178   9.279   6.000  2.1908 -1.2076  1.4165
 7583SOL     OW33967   4.840   1.405   2.349 -0.2060 -0.3736 -1.1607
 7583SOL    HW133968   4.741   1.396   2.344 -0.4673  0.9438  1.2568
 7583SOL    HW233969   4.878   1.330   2.403 -0.0639  0.1742 -0.5030
 7584SOL     OW33970   5.032   5.170   7.803  0.5705  0.5822  0.0526
 7584SOL    HW133971   5.063   5.244   7.863  0.3877  0.9923 -0.3533
 7584SOL    HW233972   5.044   5.198   7.707 -0.8562  0.6673 -0.1101
 7585SOL     OW33973   2.912   6.126   4.655  0.8504  0.1837  0.2459
 7585SOL    HW133974   2.974   6.049   4.640 -0.5895 -0.7246 -1.3231
 7585SOL    HW233975   2.830   6.094   4.703  0.0809  0.6384 -0.7328
 7586SOL     OW33976   3.156   8.221   5.049  0.4036 -0.2024  0.6067
 7586SOL    HW133977   3.119   8.198   4.958 -1.8690  2.0601  0.8854
 7586SOL    HW233978   3.131   8.149   5.114  1.5912 -1.5803 -0.4422
 7587SOL     OW33979   7.796   2.014   3.692  0.0122  0.2410  0.5795
 7587SOL    HW133980   7.849   1.994   3.775  0.5791  1.2915  0.4700
 7587SOL    HW233981   7.772   2.111   3.690 -0.1438  0.1828 -0.4111
 7588SOL     OW33982   8.783   4.487   5.210  0.2082 -0.0391  0.5228
 7588SOL    HW133983   8.732   4.540   5.142 -0.7828 -0.4913  0.9144
 7588SOL    HW233984   8.722   4.424   5.257  0.9426  0.0491  1.6309
 7589SOL     OW33985   6.859   8.705   2.903 -0.7818  0.2805  0.1043
 7589SOL    HW133986   6.958   8.699   2.906 -0.6866  0.9120 -1.4351
 7589SOL    HW233987   6.830   8.800   2.916 -1.1017  0.3612 -1.1571
 7590SOL     OW33988   3.191   6.300   0.861 -0.1150 -0.0984  0.0192
 7590SOL    HW133989   3.154   6.380   0.815  0.9068 -0.2711 -1.1454
 7590SOL    HW233990   3.119   6.255   0.914 -0.8950  1.0895 -0.0166
 7591SOL     OW33991   3.592   8.237   2.545 -0.6791 -0.5396 -0.0105
 7591SOL    HW133992   3.568   8.140   2.540 -2.3716 -0.1136 -0.2181
 7591SOL    HW233993   3.532   8.283   2.611 -0.0227  0.4225 -0.0690
 7592SOL     OW33994   4.734   4.535   1.627  0.2842 -0.4720 -0.6067
 7592SOL    HW133995   4.729   4.460   1.561  0.4863  0.4674 -1.7051
 7592SOL    HW233996   4.653   4.592   1.619  0.0958 -0.6062  0.2811
 7593SOL     OW33997   3.935   1.590   0.540 -0.6758 -0.6652 -0.2424
 7593SOL    HW133998   3.979   1.676   0.564 -0.8512 -0.4304 -0.7670
 7593SOL    HW233999   3.936   1.529   0.619  0.7061 -0.7095 -0.2904
 7594SOL     OW34000   3.133   5.917   5.141  0.1819 -0.2390 -0.0852
 7594SOL    HW134001   3.205   5.969   5.186  1.4117 -1.6747 -0.3634
 7594SOL    HW234002   3.093   5.972   5.067  0.6865  0.7141  0.3488
 7595SOL     OW34003   9.432   7.998   5.688  0.2827 -0.3470 -0.0645
 7595SOL    HW134004   9.354   8.057   5.709 -1.4219 -2.8223  0.7740
 7595SOL    HW234005   9.471   7.962   5.773  2.1162  0.5353 -0.5019
 7596SOL     OW34006   5.086   7.925   3.715  0.1002  0.3751  0.4857
 7596SOL    HW134007   5.017   7.955   3.650  1.4210  0.9903 -0.6689
 7596SOL    HW234008   5.058   7.950   3.808 -0.9132  1.1885 -0.0360
 7597SOL     OW34009   1.160   1.287   5.940  0.2242 -0.2965  0.0687
 7597SOL    HW134010   1.130   1.229   6.016 -1.3916  0.4353  0.0198
 7597SOL    HW234011   1.203   1.370   5.977 -1.0427  0.3100  0.2189
 7598SOL     OW34012   7.528   6.883   4.112 -0.1324  0.2781 -0.0883
 7598SOL    HW134013   7.448   6.942   4.110  0.9866  1.8132 -0.1144
 7598SOL    HW234014   7.560   6.868   4.018 -0.5431 -0.5533 -0.0986
 7599SOL     OW34015   2.208   1.659   3.355 -0.5669 -0.0026  0.4336
 7599SOL    HW134016   2.226   1.749   3.314  1.2784 -1.2189 -1.5553
 7599SOL    HW234017   2.247   1.656   3.447 -0.3757  1.1302  0.4024
 7600SOL     OW34018   9.327   9.442   2.597 -0.3453 -0.3220 -0.3156
 7600SOL    HW134019   9.344   9.504   2.521  0.4674 -0.6934 -0.4429
 7600SOL    HW234020   9.230   9.445   2.622 -0.3265  0.9562 -0.3486
 7601SOL     OW34021   4.491   7.134   3.476  0.3894  0.1103 -0.6211
 7601SOL    HW134022   4.571   7.081   3.448  0.0673 -0.6176 -0.1751
 7601SOL    HW234023   4.423   7.133   3.402  0.3238 -0.2180 -0.5568
 7602SOL     OW34024   1.171   5.563   5.292  0.0801  0.3643 -0.2141
 7602SOL    HW134025   1.181   5.591   5.387  2.6267  0.1665 -0.3725
 7602SOL    HW234026   1.233   5.486   5.273 -0.1445  0.6199 -2.0938
 7603SOL     OW34027   3.913   3.448   2.449 -0.3768 -0.0224  0.2417
 7603SOL    HW134028   3.860   3.488   2.523 -1.0807 -0.4285 -0.0448
 7603SOL    HW234029   3.857   3.442   2.366  0.3261  0.2000 -0.2610
 7604SOL     OW34030   6.359   8.175   3.492  0.3135  0.6056 -0.5088
 7604SOL    HW134031   6.295   8.203   3.564  0.8957  0.5760  0.0226
 7604SOL    HW234032   6.320   8.197   3.402 -1.0850 -0.7435 -0.2422
 7605SOL     OW34033   9.235   6.830   2.270 -0.0931  0.2959  0.2215
 7605SOL    HW134034   9.142   6.794   2.275  0.0662 -0.4189 -1.4037
 7605SOL    HW234035   9.300   6.754   2.268  0.4186  0.7372 -0.2934
 7606SOL     OW34036   9.411   7.811   2.836 -0.7147  0.3509 -0.3715
 7606SOL    HW134037   9.380   7.716   2.836 -1.9623  0.7575 -0.8431
 7606SOL    HW234038   9.379   7.856   2.920  1.8079 -0.2508  0.9792
 7607SOL     OW34039   9.683   5.373   3.956  0.7318  0.0921 -0.6902
 7607SOL    HW134040   9.609   5.336   4.012  1.6497 -0.0473  0.4648
 7607SOL    HW234041   9.671   5.344   3.861 -0.8292  0.2944 -0.5636
 7608SOL     OW34042   4.500   3.431   3.653 -0.0987  0.3600  0.5644
 7608SOL    HW134043   4.405   3.434   3.686  0.5344  1.3846  2.3637
 7608SOL    HW234044   4.501   3.446   3.554 -1.8100  0.5285  0.5547
 7609SOL     OW34045   2.767   2.182   5.303 -0.1072 -0.0909  0.5659
 7609SOL    HW134046   2.760   2.209   5.207  0.3579  4.0984  1.6133
 7609SOL    HW234047   2.678   2.195   5.347 -0.3021 -1.9345  0.7216
 7610SOL     OW34048   2.541   8.912   2.432 -0.7200  0.1229 -0.0551
 7610SOL    HW134049   2.600   8.989   2.409 -1.8722  0.9598 -0.2420
 7610SOL    HW234050   2.544   8.844   2.360  0.8624 -0.3394  0.4435
 7611SOL     OW34051   6.538   0.253   4.685  0.4686 -0.0607 -0.7474
 7611SOL    HW134052   6.450   0.215   4.657 -2.6581  4.1134  2.6792
 7611SOL    HW234053   6.549   0.344   4.645  1.8631  0.6468  1.1734
 7612SOL     OW34054   0.364   2.703   6.248  0.6112  0.3734 -0.6712
 7612SOL    HW134055   0.438   2.637   6.255 -0.5664 -0.7596  1.4844
 7612SOL    HW234056   0.276   2.657   6.257 -0.2201  2.2807  1.7695
 7613SOL     OW34057   7.755   0.927   2.952 -0.1652  0.6946  0.4447
 7613SOL    HW134058   7.799   0.958   3.036  0.5386 -0.6550  0.5769
 7613SOL    HW234059   7.794   0.840   2.924 -0.8757  0.8047 -0.9151
 7614SOL     OW34060   1.424   5.781   2.926 -0.2777  0.3917 -0.1140
 7614SOL    HW134061   1.433   5.701   2.868 -0.1019  0.8235 -0.6842
 7614SOL    HW234062   1.481   5.855   2.890 -0.4474  0.7755  0.4006
 7615SOL     OW34063   7.342   4.183   1.794  0.4900  0.2879 -0.1983
 7615SOL    HW134064   7.422   4.168   1.737  1.5204  0.7874  1.0927
 7615SOL    HW234065   7.366   4.242   1.871 -1.2211  0.7953 -0.0285
 7616SOL     OW34066   2.893   9.495   6.099 -0.3388  0.2211 -0.2061
 7616SOL    HW134067   2.842   9.538   6.025 -0.9316  1.0386  0.6580
 7616SOL    HW234068   2.989   9.523   6.093 -0.4495  0.5572 -0.4749
 7617SOL     OW34069   8.795   7.940   0.757 -0.0417 -0.4673  0.0835
 7617SOL    HW134070   8.880   7.899   0.722  0.1275 -0.2711  0.2618
 7617SOL    HW234071   8.817   8.022   0.810 -0.4943  0.8269 -1.7031
 7618SOL     OW34072   2.175   0.105   5.599 -0.2405  0.3203  0.2600
 7618SOL    HW134073   2.147   0.072   5.509 -0.9011 -1.3736  1.0779
 7618SOL    HW234074   2.142   0.199   5.611  1.6703  1.3632 -2.0822
 7619SOL     OW34075   3.000   8.205   5.487  0.3380  0.1530  0.0663
 7619SOL    HW134076   3.002   8.131   5.554  1.7052 -0.7774 -0.9690
 7619SOL    HW234077   3.094   8.235   5.469 -0.0467  0.6449 -1.1567
 7620SOL     OW34078   3.618   6.347   3.940 -0.3844  0.3740 -0.0449
 7620SOL    HW134079   3.658   6.259   3.964 -3.1856 -0.9736 -0.1132
 7620SOL    HW234080   3.633   6.366   3.843 -0.2940 -0.3062 -0.1664
 7621SOL     OW34081   4.156   8.459   4.131 -0.5075  0.2076 -0.2845
 7621SOL    HW134082   4.067   8.452   4.177 -0.4043 -0.0878 -0.1306
 7621SOL    HW234083   4.177   8.555   4.114 -0.9810  0.2667 -0.5593
 7622SOL     OW34084   4.194   6.523   0.775  0.4896  0.0834 -0.0310
 7622SOL    HW134085   4.263   6.539   0.704 -0.2322 -0.9628 -0.9930
 7622SOL    HW234086   4.218   6.440   0.825 -0.3268 -0.5560 -0.6920
 7623SOL     OW34087   8.212   4.247   1.673  0.0737 -0.0516  0.0438
 7623SOL    HW134088   8.212   4.309   1.751 -0.8475 -0.3742  0.3078
 7623SOL    HW234089   8.208   4.153   1.706 -0.7912 -0.1744 -0.3881
 7624SOL     OW34090   1.473   3.753   1.479  0.0512 -0.6318 -0.6660
 7624SOL    HW134091   1.458   3.836   1.425  0.1162 -0.9805 -1.2343
 7624SOL    HW234092   1.387   3.704   1.490 -0.1688  0.0185  0.5236
 7625SOL     OW34093   3.661   3.866   0.476 -0.0624 -0.3163  0.4273
 7625SOL    HW134094   3.750   3.844   0.438  0.1858  2.6049 -0.8222
 7625SOL    HW234095   3.620   3.784   0.516  2.4408 -2.0427 -0.4616
 7626SOL     OW34096   0.084   2.228   1.648 -0.2281 -0.2617 -0.4812
 7626SOL    HW134097   0.119   2.215   1.556  1.1241  1.3776 -0.2397
 7626SOL    HW234098   0.139   2.176   1.713  0.1667  0.2718 -0.3817
 7627SOL     OW34099   5.709   8.075   3.238  1.0072  0.1233 -0.1568
 7627SOL    HW134100   5.645   8.043   3.308  0.7084 -0.6537 -0.7776
 7627SOL    HW234101   5.672   8.156   3.193  0.4723 -0.2959 -0.4808
 7628SOL     OW34102   0.252   4.880   0.795 -0.3170 -0.6637  0.1426
 7628SOL    HW134103   0.332   4.874   0.854 -0.0930 -0.8524 -0.1738
 7628SOL    HW234104   0.273   4.836   0.707 -0.0079  1.2882 -0.7769
 7629SOL     OW34105   0.695   0.409   4.705  0.2552 -0.2031  0.5019
 7629SOL    HW134106   0.770   0.404   4.639  0.6542 -0.4106  0.9615
 7629SOL    HW234107   0.671   0.317   4.735 -1.2956 -0.2509 -0.8657
 7630SOL     OW34108   1.072   5.707   5.580  0.3832 -1.0322 -0.2800
 7630SOL    HW134109   1.128   5.789   5.592  1.3129 -1.8443  1.1980
 7630SOL    HW234110   0.978   5.725   5.608  0.3062 -0.1548 -1.0867
 7631SOL     OW34111   8.732   2.789   5.000  0.5225 -0.5661  0.5484
 7631SOL    HW134112   8.663   2.852   5.035  1.0777  0.0239  0.5860
 7631SOL    HW234113   8.727   2.703   5.052  0.1764 -0.3358  0.9037
 7632SOL     OW34114   9.536   9.107   3.157 -0.2344  0.1456 -0.0120
 7632SOL    HW134115   9.610   9.044   3.181 -1.5524 -1.0961  0.8931
 7632SOL    HW234116   9.492   9.077   3.073 -0.5242  0.1543  0.1360
 7633SOL     OW34117   2.946   3.546   4.888 -0.1184 -0.0584 -0.5953
 7633SOL    HW134118   2.971   3.474   4.952  0.5636 -0.9268 -1.8060
 7633SOL    HW234119   2.853   3.578   4.907 -0.1158 -0.6595  0.4720
 7634SOL     OW34120   5.088   5.176   0.063 -0.9909 -0.2367  0.0462
 7634SOL    HW134121   4.993   5.188   0.034  0.1608  1.9578 -3.1513
 7634SOL    HW234122   5.144   5.248   0.024  1.9261 -1.0874  2.4496
 7635SOL     OW34123   9.124   5.963   0.495  0.2756 -0.1979  0.1692
 7635SOL    HW134124   9.190   5.904   0.541  0.4504 -0.4944 -0.4575
 7635SOL    HW234125   9.160   6.057   0.491 -0.2581  0.0892  1.6855
 7636SOL     OW34126   6.958   2.162   1.898 -0.0809 -0.1775  0.4259
 7636SOL    HW134127   6.902   2.235   1.937 -1.5406 -2.1713  2.1922
 7636SOL    HW234128   7.009   2.116   1.970  0.9139 -0.8367 -0.6714
 7637SOL     OW34129   1.229   3.884   3.878  0.5420  0.1973  0.5153
 7637SOL    HW134130   1.159   3.825   3.919  1.1636  0.2544  1.7026
 7637SOL    HW234131   1.257   3.846   3.790 -2.3602  1.2304 -0.9336
 7638SOL     OW34132   9.419   3.051   3.149 -0.9818 -0.0589  0.4164
 7638SOL    HW134133   9.476   2.985   3.198  0.0692  0.9574  0.5542
 7638SOL    HW234134   9.323   3.025   3.160 -0.5169 -2.8847 -1.3944
 7639SOL     OW34135   0.377   7.551   1.932  0.0120 -0.0867 -0.3394
 7639SOL    HW134136   0.429   7.614   1.874  1.0831  0.5912  1.3101
 7639SOL    HW234137   0.297   7.598   1.969 -0.5315 -0.4443 -1.0420
 7640SOL     OW34138   0.228   6.925   1.454 -0.0106  0.2200  0.6899
 7640SOL    HW134139   0.204   6.828   1.455 -1.5698  0.5196 -2.1353
 7640SOL    HW234140   0.223   6.962   1.547 -3.1702 -1.5366  1.2749
 7641SOL     OW34141   4.870   3.326   0.358 -0.4498  0.4988 -0.3286
 7641SOL    HW134142   4.928   3.407   0.347  0.5430 -0.3893 -1.8571
 7641SOL    HW234143   4.794   3.348   0.420 -0.8070  2.9036 -1.5342
 7642SOL     OW34144   1.050   3.147   1.588 -0.2336 -0.3898  0.8355
 7642SOL    HW134145   1.146   3.135   1.612 -0.1150 -0.0946  0.5200
 7642SOL    HW234146   0.992   3.099   1.654  0.1519 -1.0583  0.6942
 7643SOL     OW34147   8.326   6.867   0.941 -0.4080 -0.0703 -0.0607
 7643SOL    HW134148   8.251   6.931   0.950 -2.0323 -1.5984 -2.1625
 7643SOL    HW234149   8.412   6.917   0.930 -1.2107  1.6864  1.4221
 7644SOL     OW34150   7.754   7.619   2.376 -0.4520  0.0274  0.4355
 7644SOL    HW134151   7.807   7.538   2.402  0.3097  1.0813  2.2224
 7644SOL    HW234152   7.659   7.608   2.406 -0.8570 -1.0758 -1.1694
 7645SOL     OW34153   8.943   7.911   3.550  0.0133 -0.3090  0.0778
 7645SOL    HW134154   8.911   8.006   3.548  0.0461 -0.2777  0.7451
 7645SOL    HW234155   9.009   7.900   3.625 -2.6512 -1.6782  2.3244
 7646SOL     OW34156   8.278   8.971   5.281 -0.1077  0.3947  0.0412
 7646SOL    HW134157   8.330   8.902   5.231 -0.6229 -0.4533  0.6539
 7646SOL    HW234158   8.322   8.988   5.370 -1.2258 -0.8095  0.8390
 7647SOL     OW34159   5.659   5.618   0.521  0.5925  0.0835 -0.2690
 7647SOL    HW134160   5.652   5.558   0.441  1.5667 -0.4169  0.0132
 7647SOL    HW234161   5.608   5.702   0.504 -1.4821 -1.1543 -0.3587
 7648SOL     OW34162   4.601   6.059   0.523  0.7555  0.2139 -0.6053
 7648SOL    HW134163   4.537   6.006   0.467  0.1638 -0.7452  0.9439
 7648SOL    HW234164   4.579   6.156   0.516  0.5939  0.0983 -1.8944
 7649SOL     OW34165   3.958   9.036   4.497 -0.6191 -0.5094  0.8298
 7649SOL    HW134166   3.924   9.042   4.591 -0.3423  0.1829  0.8836
 7649SOL    HW234167   4.056   9.019   4.498 -0.6359 -0.6189  0.6616
 7650SOL     OW34168   2.770   5.136   0.033  0.0675 -0.6166 -0.1872
 7650SOL    HW134169   2.857   5.165  -0.007  0.0927 -0.5635 -0.0928
 7650SOL    HW234170   2.701   5.130  -0.039  0.4100 -1.6897 -0.4344
 7651SOL     OW34171   4.600   6.401   3.256  0.1260 -0.7098 -0.3400
 7651SOL    HW134172   4.532   6.371   3.189 -1.0418 -0.6400  0.7939
 7651SOL    HW234173   4.614   6.500   3.248  0.1743 -0.7445 -0.6635
 7652SOL     OW34174   1.058   6.838   4.065 -0.5601  0.0693 -0.0958
 7652SOL    HW134175   1.021   6.751   4.097 -1.4786  0.1183 -0.9927
 7652SOL    HW234176   1.118   6.823   3.986  1.1623  0.0194  1.1864
 7653SOL     OW34177   8.026   8.736   6.655 -0.0122 -0.7962  0.2098
 7653SOL    HW134178   7.976   8.819   6.679  1.4825 -0.0636  0.8329
 7653SOL    HW234179   8.102   8.759   6.594 -0.1469 -1.8307 -0.3566
 7654SOL     OW34180   4.474   1.403   6.116 -0.1732  0.2112  0.2384
 7654SOL    HW134181   4.558   1.361   6.152 -1.0496 -0.0578  2.0322
 7654SOL    HW234182   4.471   1.500   6.142  0.3869  0.6460 -1.2855
 7655SOL     OW34183   1.555   1.902   5.623 -0.3507 -0.1683  0.0977
 7655SOL    HW134184   1.494   1.906   5.702 -0.3976 -0.5308  0.0813
 7655SOL    HW234185   1.527   1.826   5.563  0.4683 -0.6935  0.3810
 7656SOL     OW34186   4.848   8.824   6.205 -0.0139 -0.3149  0.1231
 7656SOL    HW134187   4.797   8.886   6.146  0.7543  0.7425  0.5632
 7656SOL    HW234188   4.789   8.747   6.231 -1.0482  0.3505 -0.2174
 7657SOL     OW34189   5.407   9.841   4.144 -0.4093 -0.4832 -0.2065
 7657SOL    HW134190   5.498   9.869   4.113  0.2238 -1.9651  0.2276
 7657SOL    HW234191   5.417   9.786   4.228 -1.6839 -0.8609 -0.2979
 7658SOL     OW34192   0.257   5.523   1.173  0.3690  0.7031 -0.2673
 7658SOL    HW134193   0.268   5.485   1.265  0.7601  0.0173 -0.6021
 7658SOL    HW234194   0.342   5.567   1.145  0.4344  0.3965 -0.5434
 7659SOL     OW34195   7.497   1.702   3.398 -0.5001 -0.3600 -0.4767
 7659SOL    HW134196   7.485   1.653   3.313  0.2841 -0.4711 -0.5271
 7659SOL    HW234197   7.412   1.749   3.423 -1.2260 -1.6944 -0.4460
 7660SOL     OW34198   7.916   1.515   2.493 -0.2379 -0.5798  0.5208
 7660SOL    HW134199   7.857   1.596   2.500  0.9106  0.3478 -0.1710
 7660SOL    HW234200   7.885   1.445   2.557 -0.9913  0.5814  1.4541
 7661SOL     OW34201   7.220   9.270   6.248 -0.2129  0.1613 -0.0237
 7661SOL    HW134202   7.273   9.188   6.267  2.2330  1.2311 -1.9480
 7661SOL    HW234203   7.213   9.326   6.331  0.1080 -0.8652  0.6936
 7662SOL     OW34204   3.111   3.318   0.515 -0.0792 -0.4544 -0.0431
 7662SOL    HW134205   3.132   3.252   0.586  0.7796 -0.6571 -0.4754
 7662SOL    HW234206   3.196   3.356   0.478 -0.5640  1.1320  0.4226
 7663SOL     OW34207   2.225   2.743   4.875  0.9369 -0.6988  0.0855
 7663SOL    HW134208   2.230   2.666   4.810  2.7434 -0.5820  0.0650
 7663SOL    HW234209   2.308   2.797   4.869 -0.2069  1.1314  0.3045
 7664SOL     OW34210   3.102   6.838   2.227 -0.3905  0.2489  0.0150
 7664SOL    HW134211   3.129   6.861   2.321  0.0957  0.4283 -0.1653
 7664SOL    HW234212   3.049   6.753   2.228  2.1298 -1.3833  0.1584
 7665SOL     OW34213   5.126   0.710   6.573 -0.0445 -0.5718 -0.4103
 7665SOL    HW134214   5.114   0.808   6.583 -0.4779 -0.8346  1.8625
 7665SOL    HW234215   5.140   0.688   6.477  1.7953  1.9048 -0.7618
 7666SOL     OW34216   3.370   4.116   0.453 -0.2727 -0.8662 -0.0706
 7666SOL    HW134217   3.302   4.042   0.457 -1.2919  0.0239 -0.4860
 7666SOL    HW234218   3.440   4.093   0.385  0.2162 -2.0901  0.8248
 7667SOL     OW34219   9.883   0.309   3.005  0.4526 -0.0958  0.7762
 7667SOL    HW134220   9.844   0.238   3.063 -1.3388  0.5332  0.3838
 7667SOL    HW234221   9.825   0.390   3.008  0.8968  0.3187 -1.0546
 7668SOL     OW34222   2.929   6.940   3.430 -0.5986  0.3149  0.4824
 7668SOL    HW134223   2.923   6.991   3.344 -2.5321  0.5891  0.7618
 7668SOL    HW234224   2.893   6.997   3.504  1.6030  0.3044  1.5957
 7669SOL     OW34225   0.459   6.708   2.602 -0.2400 -0.3208 -1.1690
 7669SOL    HW134226   0.505   6.780   2.654 -2.1424 -1.4151  2.1708
 7669SOL    HW234227   0.525   6.637   2.578  0.5605 -0.0839  0.2914
 7670SOL     OW34228   9.622   9.662   1.907 -1.0147  0.6980  0.0846
 7670SOL    HW134229   9.653   9.679   2.001 -0.7606 -0.1903  0.1707
 7670SOL    HW234230   9.528   9.692   1.898 -0.7920  1.5021  0.4120
 7671SOL     OW34231   7.054   2.007   0.596  0.1036 -0.5908 -0.6763
 7671SOL    HW134232   7.011   2.095   0.575  1.0885  0.0026 -0.2344
 7671SOL    HW234233   7.047   1.989   0.694  0.1861 -0.8516 -0.7188
 7672SOL     OW34234   8.047   1.284   5.364  0.5964  0.4458  0.3784
 7672SOL    HW134235   7.975   1.286   5.295  1.4238 -0.3712 -0.5120
 7672SOL    HW234236   8.104   1.203   5.351  0.7498  0.2586  2.0349
 7673SOL     OW34237   8.489   2.334   5.558 -0.2679  0.2823  0.5576
 7673SOL    HW134238   8.517   2.316   5.463 -1.3573 -1.1637  0.4815
 7673SOL    HW234239   8.547   2.281   5.620  0.1675  0.8964  0.6739
 7674SOL     OW34240   1.742   8.142   5.250  0.1094 -0.3454 -0.7461
 7674SOL    HW134241   1.662   8.202   5.247 -1.0199 -1.7208  0.6925
 7674SOL    HW234242   1.795   8.153   5.166 -1.0979  1.2551 -1.3287
 7675SOL     OW34243   0.609   7.495   4.755 -0.7151 -0.3564 -0.2267
 7675SOL    HW134244   0.650   7.413   4.795 -0.1053 -0.5005 -1.1237
 7675SOL    HW234245   0.681   7.554   4.719 -0.9972  1.6081  2.3103
 7676SOL     OW34246   1.145   5.857   1.869 -0.4464 -0.4327  0.1640
 7676SOL    HW134247   1.123   5.787   1.801 -0.4375 -0.6416  0.3762
 7676SOL    HW234248   1.146   5.816   1.960 -1.0937 -0.0156  0.3635
 7677SOL     OW34249   1.836   5.188   5.802  0.1116 -0.5510  0.7323
 7677SOL    HW134250   1.748   5.189   5.755 -0.5976  0.4859  2.0564
 7677SOL    HW234251   1.883   5.275   5.786  0.4646 -0.7261  0.8171
 7678SOL     OW34252   2.688   7.411   3.646 -0.3948 -0.2109 -0.0197
 7678SOL    HW134253   2.632   7.371   3.718 -1.5685 -0.5084 -1.0742
 7678SOL    HW234254   2.761   7.466   3.687 -1.2404 -0.1035  1.3854
 7679SOL     OW34255   2.489   4.232   3.165 -0.0179 -0.0830  0.1240
 7679SOL    HW134256   2.439   4.315   3.144 -0.4456 -0.6474 -1.1615
 7679SOL    HW234257   2.464   4.199   3.255 -2.3067 -0.5950 -0.6691
 7680SOL     OW34258   3.310   8.924   5.769 -0.1453 -0.3109  0.4489
 7680SOL    HW134259   3.328   8.981   5.688  1.4680 -1.7375 -0.2219
 7680SOL    HW234260   3.217   8.941   5.801 -0.3548  1.2668 -0.9001
 7681SOL     OW34261   1.644   9.535   5.160  0.4390 -0.0517 -0.0509
 7681SOL    HW134262   1.640   9.557   5.258 -1.3509 -1.6033  0.2513
 7681SOL    HW234263   1.654   9.436   5.150 -3.3508 -0.3678 -1.4478
 7682SOL     OW34264   2.874   4.393   1.619  0.1666 -0.1374  0.1755
 7682SOL    HW134265   2.886   4.359   1.526 -1.1441  0.3593 -0.1786
 7682SOL    HW234266   2.870   4.316   1.682 -0.3145 -0.5357 -0.3354
 7683SOL     OW34267   7.012   7.207   5.708  0.1544  0.1651 -0.1658
 7683SOL    HW134268   7.007   7.108   5.722  1.4884  0.0724 -0.2834
 7683SOL    HW234269   7.076   7.247   5.775 -1.0593  1.0716  0.4657
 7684SOL     OW34270   7.242   7.227   4.390  0.0246 -0.1997 -0.3497
 7684SOL    HW134271   7.292   7.297   4.441 -0.3446  0.3643 -0.7590
 7684SOL    HW234272   7.150   7.218   4.427 -0.2444  0.2125 -0.9188
 7685SOL     OW34273   8.012   5.326   4.682  0.1352  0.7269  0.3660
 7685SOL    HW134274   8.076   5.297   4.611  0.1302 -0.0559  0.6822
 7685SOL    HW234275   7.952   5.398   4.645 -0.6957 -0.5382 -0.8095
 7686SOL     OW34276   2.661   6.118   4.891 -0.0785  0.0107 -0.4572
 7686SOL    HW134277   2.576   6.137   4.940 -0.4523  0.8902 -1.4363
 7686SOL    HW234278   2.714   6.202   4.881 -0.5170  0.0625 -2.5024
 7687SOL     OW34279   2.214   9.635   2.132  0.7486  0.4924 -0.4480
 7687SOL    HW134280   2.174   9.694   2.203  1.1472  0.3391 -0.0974
 7687SOL    HW234281   2.145   9.616   2.062  0.4877  1.0216 -0.3387
 7688SOL     OW34282   9.196   6.836   2.734  0.1925  0.4764  0.3340
 7688SOL    HW134283   9.197   6.781   2.650  1.3523 -0.8010  1.1763
 7688SOL    HW234284   9.279   6.819   2.787  0.1591  2.3781  1.0589
 7689SOL     OW34285   9.684   3.729   0.717 -0.3707  0.3341 -0.4526
 7689SOL    HW134286   9.709   3.709   0.622  1.9431  3.3983 -0.5375
 7689SOL    HW234287   9.745   3.678   0.778 -1.7926 -1.5578 -0.5748
 7690SOL     OW34288   7.651   8.153   5.928 -0.5499  0.3348 -0.0124
 7690SOL    HW134289   7.607   8.238   5.958  0.0118  0.6153  0.0380
 7690SOL    HW234290   7.600   8.113   5.852 -1.8630 -0.2584  1.1634
 7691SOL     OW34291   0.734   0.953   3.888 -0.3971 -0.7317  0.1694
 7691SOL    HW134292   0.826   0.952   3.848 -0.0219  1.1403  0.9774
 7691SOL    HW234293   0.670   0.989   3.821 -0.4830 -1.6439 -0.2469
 7692SOL     OW34294   3.905   8.098   4.935 -0.7915 -0.2880 -0.0404
 7692SOL    HW134295   3.919   8.196   4.925 -1.7015 -0.0845  0.6509
 7692SOL    HW234296   3.989   8.050   4.910 -0.6104  0.6115 -1.1876
 7693SOL     OW34297   2.021   4.525   1.922 -0.5174 -0.8228  0.0223
 7693SOL    HW134298   1.978   4.609   1.887 -0.5902 -1.8874 -2.5721
 7693SOL    HW234299   1.958   4.448   1.909 -0.5661 -1.2735  2.6475
 7694SOL     OW34300   4.984   2.875   7.850 -0.2087 -0.4450  0.2892
 7694SOL    HW134301   4.979   2.824   7.765  1.7282  1.1498 -0.8353
 7694SOL    HW234302   5.032   2.821   7.919  2.1520 -0.0578 -0.9960
 7695SOL     OW34303   6.022   8.496   6.195 -0.1971  0.1340 -0.0168
 7695SOL    HW134304   5.923   8.479   6.205  0.0866 -2.0456 -0.4819
 7695SOL    HW234305   6.041   8.524   6.101 -0.2832 -0.1934 -0.1323
 7696SOL     OW34306   5.859   0.482   2.271  0.0121  0.5785 -0.6348
 7696SOL    HW134307   5.856   0.582   2.281 -0.7250  0.5257 -0.2835
 7696SOL    HW234308   5.846   0.440   2.360  1.9627  0.1723 -0.5196
 7697SOL     OW34309   9.800   7.751   4.735 -0.0748  0.0879 -0.0636
 7697SOL    HW134310   9.834   7.695   4.660 -2.9044 -0.7260 -0.7716
 7697SOL    HW234311   9.779   7.843   4.702  0.5918  0.3334  0.1851
 7698SOL     OW34312   6.186   2.556   5.824 -0.1585  0.2831  0.0217
 7698SOL    HW134313   6.116   2.503   5.871 -0.3648  0.0273 -0.5649
 7698SOL    HW234314   6.270   2.502   5.819  0.1362  0.6532  0.8684
 7699SOL     OW34315   8.071   8.586   2.836  0.2582 -0.1672 -0.1028
 7699SOL    HW134316   8.005   8.516   2.808 -0.2845  1.1861 -2.3022
 7699SOL    HW234317   8.164   8.552   2.824 -0.0105 -1.0718  0.3529
 7700SOL     OW34318   4.525   2.593   5.017 -0.2501  0.1798 -0.3336
 7700SOL    HW134319   4.512   2.691   5.000 -1.0551 -0.0811 -1.2614
 7700SOL    HW234320   4.588   2.555   4.950 -0.5405 -0.1008 -0.4482
 7701SOL     OW34321   1.674   2.274   2.168  0.3669 -0.0896 -0.6817
 7701SOL    HW134322   1.701   2.371   2.168  0.3068 -0.0393  1.6591
 7701SOL    HW234323   1.756   2.217   2.174  0.2930 -0.0735  0.8817
 7702SOL     OW34324   8.682   5.005   2.809 -0.5756  0.0079  0.8046
 7702SOL    HW134325   8.607   5.050   2.761  1.5724  1.7650 -1.0203
 7702SOL    HW234326   8.699   5.052   2.895 -1.5370 -0.3786  1.2129
 7703SOL     OW34327   5.672   2.035   5.846 -0.4407  0.0062 -0.3413
 7703SOL    HW134328   5.690   2.029   5.748  0.1700  0.5297 -0.2602
 7703SOL    HW234329   5.727   1.967   5.895 -2.3522 -1.7613 -0.5522
 7704SOL     OW34330   5.347   9.676   6.412 -0.1987 -0.3036  0.3424
 7704SOL    HW134331   5.434   9.721   6.392  0.2432 -0.6516  1.4623
 7704SOL    HW234332   5.272   9.730   6.373  0.4809  0.2252 -0.2497
 7705SOL     OW34333   1.447   0.257   2.278  0.4868 -0.4370 -0.1331
 7705SOL    HW134334   1.360   0.213   2.301  1.6463 -3.0083 -0.4453
 7705SOL    HW234335   1.430   0.349   2.243 -1.8881  0.2241  2.6253
 7706SOL     OW34336   7.674   8.014   6.630  0.6055 -0.0239 -0.0442
 7706SOL    HW134337   7.714   8.077   6.564 -0.5509 -0.9917 -1.7016
 7706SOL    HW234338   7.627   8.066   6.702 -0.2942  1.0102 -1.3584
 7707SOL     OW34339   9.499   0.014   5.243  0.4101  0.1402 -0.3871
 7707SOL    HW134340   9.580  -0.008   5.297 -0.4680 -1.3479  0.3553
 7707SOL    HW234341   9.449   0.090   5.286  1.7002  1.4527 -1.1661
 7708SOL     OW34342   4.525   3.952   7.678  0.3778 -0.3131  0.1040
 7708SOL    HW134343   4.560   3.867   7.717  0.5976  0.2026  1.0759
 7708SOL    HW234344   4.460   3.993   7.743 -0.6203 -0.3384 -0.8747
 7709SOL     OW34345   4.365   7.969   2.153 -0.1100  0.0732  0.6308
 7709SOL    HW134346   4.370   7.939   2.058  0.5530 -1.2473  1.0755
 7709SOL    HW234347   4.273   8.004   2.172 -0.7095 -1.1174 -0.0635
 7710SOL     OW34348   1.195   5.414   3.318 -0.2508 -0.1361 -0.6260
 7710SOL    HW134349   1.217   5.496   3.371 -0.7002  0.1676 -0.9068
 7710SOL    HW234350   1.273   5.387   3.262 -0.5029  0.7853 -1.4265
 7711SOL     OW34351   2.902   8.461   0.482 -0.2532 -0.3579  0.0598
 7711SOL    HW134352   2.812   8.442   0.523  0.1679 -0.7957  0.8003
 7711SOL    HW234353   2.903   8.429   0.388 -1.6460  1.7663 -0.7250
 7712SOL     OW34354   1.867   9.307   3.626 -0.3600 -0.1338 -0.3520
 7712SOL    HW134355   1.952   9.352   3.654 -1.1340  1.7060 -0.9387
 7712SOL    HW234356   1.867   9.295   3.526 -0.4749 -0.7960 -0.2762
 7713SOL     OW34357   5.018   8.723   5.971 -0.4077 -0.1683  0.2886
 7713SOL    HW134358   4.990   8.768   6.056 -0.2626 -0.2048  0.3554
 7713SOL    HW234359   5.106   8.760   5.941 -0.6735  0.1713 -0.0856
 7714SOL     OW34360   0.249   5.109   5.513  0.5356  0.5253  0.2178
 7714SOL    HW134361   0.320   5.087   5.581  0.1691 -0.2397  0.3619
 7714SOL    HW234362   0.289   5.166   5.441  0.8686  1.5534  1.1968
 7715SOL     OW34363   0.780   7.374   5.696 -0.1170  0.2451 -0.0770
 7715SOL    HW134364   0.741   7.373   5.789 -0.0544 -2.3963 -0.0459
 7715SOL    HW234365   0.880   7.377   5.702 -0.1692  3.5910 -0.1282
 7716SOL     OW34366   7.362   9.002   3.064  0.3328  0.2216 -0.7785
 7716SOL    HW134367   7.415   9.084   3.089  0.3631  0.2852 -1.0570
 7716SOL    HW234368   7.385   8.974   2.971 -0.3396  0.4119 -0.9989
 7717SOL     OW34369   3.144   4.313   1.937 -0.4681  0.5103  0.6341
 7717SOL    HW134370   3.224   4.338   1.990 -0.7082  1.1564  0.6988
 7717SOL    HW234371   3.072   4.381   1.951 -0.7364  0.3760 -0.0613
 7718SOL     OW34372   1.691   6.125   6.141  0.5680  0.0503  0.2775
 7718SOL    HW134373   1.696   6.165   6.049  0.1368  0.7877  0.5626
 7718SOL    HW234374   1.714   6.196   6.208 -2.4202  0.4572  0.9258
 7719SOL     OW34375   8.068   2.884   2.416 -0.0817 -0.5581 -0.0592
 7719SOL    HW134376   8.120   2.870   2.500 -1.0234  0.4642  0.6999
 7719SOL    HW234377   8.100   2.819   2.347  1.0442 -1.0741  0.9161
 7720SOL     OW34378   6.464   7.216   5.677  0.4955 -0.1738  0.0193
 7720SOL    HW134379   6.527   7.183   5.747 -0.1289 -0.4369  0.4558
 7720SOL    HW234380   6.482   7.169   5.591 -0.0018 -1.2195  0.4857
 7721SOL     OW34381   8.951   6.516   5.915 -0.1921  0.2599  0.5545
 7721SOL    HW134382   8.888   6.469   5.854 -0.0427  0.4579  0.2454
 7721SOL    HW234383   8.927   6.613   5.920 -0.0483  0.2942  0.6105
 7722SOL     OW34384   8.726   2.105   3.624 -0.0386  0.4698  0.0353
 7722SOL    HW134385   8.763   2.185   3.673 -0.9469  0.3114  0.9899
 7722SOL    HW234386   8.664   2.136   3.552  1.0303  0.6889 -0.8102
 7723SOL     OW34387   4.687   9.502   2.208 -0.2157  0.0659 -0.3667
 7723SOL    HW134388   4.599   9.550   2.197  0.1716  1.4623  2.0879
 7723SOL    HW234389   4.670   9.410   2.243 -0.7227  0.1806 -0.2933
 7724SOL     OW34390   0.531   7.157   4.716 -0.3143  0.2032 -0.2578
 7724SOL    HW134391   0.630   7.146   4.726 -0.2665  0.5227 -0.3718
 7724SOL    HW234392   0.489   7.067   4.704  0.0659  0.1292 -1.1339
 7725SOL     OW34393   0.875   3.960   4.341 -0.5094  0.0144 -0.0823
 7725SOL    HW134394   0.775   3.951   4.335 -0.5979 -0.4882  1.9635
 7725SOL    HW234395   0.915   3.939   4.252 -2.0351 -2.4873 -0.2117
 7726SOL     OW34396   9.816   4.231   3.937  0.3917 -0.2279  0.5053
 7726SOL    HW134397   9.887   4.300   3.917 -0.7340  1.6099  2.7136
 7726SOL    HW234398   9.854   4.162   3.998  0.8373 -0.3022  0.1530
 7727SOL     OW34399   2.076   5.164   2.831  0.1798 -0.1776  0.1491
 7727SOL    HW134400   2.107   5.251   2.871 -0.1216  0.2887 -0.6239
 7727SOL    HW234401   2.030   5.110   2.901 -1.0003  0.9495  0.2749
 7728SOL     OW34402   9.832   6.426   5.008 -0.0747  0.0698 -0.2263
 7728SOL    HW134403   9.906   6.484   4.974 -0.0866  0.3357  0.1958
 7728SOL    HW234404   9.770   6.481   5.064  0.0140 -0.3872  0.3294
 7729SOL     OW34405   6.112   8.466   3.395  0.1098  0.1116  0.1530
 7729SOL    HW134406   6.142   8.398   3.463  0.0140  0.0459  0.1283
 7729SOL    HW234407   6.038   8.520   3.434 -1.8552 -1.7446 -0.8975
 7730SOL     OW34408   6.862   7.894   5.059 -0.5922  0.0765  0.1951
 7730SOL    HW134409   6.940   7.956   5.066  1.2390 -2.1353 -0.0791
 7730SOL    HW234410   6.814   7.909   4.973 -1.5812  2.6805  1.1573
 7731SOL     OW34411   8.451   9.830   1.008  0.0682  0.5610 -0.2288
 7731SOL    HW134412   8.372   9.786   1.051  0.8834  0.5121  1.2729
 7731SOL    HW234413   8.535   9.789   1.044  0.8374  2.7941  0.6104
 7732SOL     OW34414   6.714   2.719   2.673  0.5458 -0.8184  0.8384
 7732SOL    HW134415   6.671   2.635   2.708 -0.9818  0.7621  2.9042
 7732SOL    HW234416   6.776   2.755   2.742  0.8873 -0.0242  0.1168
 7733SOL     OW34417   5.301   2.637   5.187  0.2376 -0.1689  0.2915
 7733SOL    HW134418   5.245   2.681   5.257 -0.3059  0.8544 -0.7571
 7733SOL    HW234419   5.247   2.626   5.103  1.9640  2.0555 -1.1652
 7734SOL     OW34420   6.257   1.414   1.330 -0.7827  0.1209 -0.2165
 7734SOL    HW134421   6.226   1.354   1.403  0.5110 -2.0361 -1.4078
 7734SOL    HW234422   6.189   1.416   1.257 -2.4537  2.9031  1.3076
 7735SOL     OW34423   5.593   9.336   6.379 -0.3863  0.1206 -0.1614
 7735SOL    HW134424   5.606   9.386   6.293 -0.8586  0.2290 -0.1708
 7735SOL    HW234425   5.632   9.389   6.454  0.0117  0.0347 -0.3072
 7736SOL     OW34426   4.122   7.021   2.920  0.4208 -0.6463 -0.8104
 7736SOL    HW134427   4.077   6.966   2.990  0.2611  0.1379 -0.2912
 7736SOL    HW234428   4.112   7.118   2.942  0.6938 -0.4042 -1.7209
 7737SOL     OW34429   6.036   8.963   6.633  0.5155  0.0229 -0.5953
 7737SOL    HW134430   6.072   8.934   6.544 -0.2277  0.1541 -0.9419
 7737SOL    HW234431   5.936   8.967   6.629  0.4952  0.3505  0.1509
 7738SOL     OW34432   8.444   9.247   1.057  0.3376 -0.1627 -0.1767
 7738SOL    HW134433   8.443   9.340   1.093 -1.9787 -0.7911  1.4942
 7738SOL    HW234434   8.398   9.246   0.968  0.3159  0.2782 -0.1743
 7739SOL     OW34435   4.652   8.219   2.946  0.1072 -0.1978 -0.2941
 7739SOL    HW134436   4.605   8.132   2.964  0.6657 -0.5441 -0.5029
 7739SOL    HW234437   4.744   8.201   2.913  0.4057  0.4825  0.1554
 7740SOL     OW34438   0.743   0.086   3.559  0.3352 -0.4253 -0.1149
 7740SOL    HW134439   0.671   0.035   3.606  2.5000 -2.5016  1.0918
 7740SOL    HW234440   0.832   0.051   3.589  1.8283  1.5408 -2.1599
 7741SOL     OW34441   3.226   2.983   1.311  0.0180 -0.0887 -0.4694
 7741SOL    HW134442   3.219   3.078   1.280 -1.6936 -0.1807 -0.4210
 7741SOL    HW234443   3.186   2.975   1.402  1.7404 -0.5307  0.2605
 7742SOL     OW34444   4.271   5.148   1.012 -0.0155  0.1445  0.0721
 7742SOL    HW134445   4.305   5.207   0.939  1.3224  0.1754  0.7077
 7742SOL    HW234446   4.339   5.077   1.033  0.4505  1.2661  2.5430
 7743SOL     OW34447   7.840   7.366   1.363  0.2341  0.0494  0.4178
 7743SOL    HW134448   7.787   7.329   1.440  0.2806 -0.3216  0.2692
 7743SOL    HW234449   7.816   7.317   1.280 -0.2995  0.8806  0.0686
 7744SOL     OW34450   0.112   6.481   4.900  0.2498  0.1721  0.3494
 7744SOL    HW134451   0.070   6.570   4.920 -1.5154 -0.9068  1.5485
 7744SOL    HW234452   0.183   6.462   4.967  0.5447  0.6227  0.1666
 7745SOL     OW34453   1.401   8.300   1.888  0.4457 -0.5237  0.2312
 7745SOL    HW134454   1.481   8.283   1.946  0.1579 -3.9269 -0.2851
 7745SOL    HW234455   1.423   8.275   1.794 -0.5548  0.6447 -0.3290
 7746SOL     OW34456   1.765   3.356   5.036 -0.1136  0.3711  1.2114
 7746SOL    HW134457   1.754   3.441   4.984 -2.2396 -0.0083  1.0061
 7746SOL    HW234458   1.748   3.374   5.133 -1.6458 -0.0476  1.0163
 7747SOL     OW34459   0.543   3.746   4.388 -0.1890 -0.1008 -0.1384
 7747SOL    HW134460   0.490   3.787   4.462  0.8581  0.1085  0.5082
 7747SOL    HW234461   0.519   3.788   4.301 -0.8188  0.2364  0.2001
 7748SOL     OW34462   6.245   1.654   1.502 -0.4240 -0.4529 -0.2373
 7748SOL    HW134463   6.246   1.718   1.425 -1.0867  0.4824  0.5228
 7748SOL    HW234464   6.245   1.560   1.468 -1.3151 -0.0408 -1.3773
 7749SOL     OW34465   8.310   3.412   1.685 -0.0741 -0.8548  0.3119
 7749SOL    HW134466   8.308   3.399   1.586 -0.4441  0.6930  0.1034
 7749SOL    HW234467   8.307   3.323   1.731  1.9287 -1.6681 -1.0809
 7750SOL     OW34468   7.585   1.701   5.436 -0.1361  0.0160 -0.3660
 7750SOL    HW134469   7.506   1.680   5.492 -0.6370  0.9646 -0.7009
 7750SOL    HW234470   7.643   1.767   5.484  0.0849 -0.1363 -0.4222
 7751SOL     OW34471   1.505   0.952   1.567 -0.5374 -0.5527 -0.0119
 7751SOL    HW134472   1.601   0.935   1.589 -0.2467  0.4185 -0.5447
 7751SOL    HW234473   1.496   0.973   1.470 -1.0613  1.0879  0.3895
 7752SOL     OW34474   6.591   0.533   3.821 -0.6193  0.4906  0.1214
 7752SOL    HW134475   6.514   0.468   3.822 -1.8202  1.8826  0.2401
 7752SOL    HW234476   6.648   0.518   3.902 -1.8024  0.6352  0.9965
 7753SOL     OW34477   2.050   0.258   2.460  0.4238 -0.3828 -0.1810
 7753SOL    HW134478   1.993   0.333   2.426 -0.7413 -0.7747  0.8765
 7753SOL    HW234479   2.145   0.288   2.463 -0.0325  1.0671  0.2191
 7754SOL     OW34480   3.452   4.668   2.005  0.1331 -0.0680 -0.4412
 7754SOL    HW134481   3.511   4.748   1.989  0.1592  0.1990  0.9366
 7754SOL    HW234482   3.407   4.643   1.919  2.9002 -0.7984 -1.7524
 7755SOL     OW34483   9.248   2.557   5.366  0.2464  0.1531  0.1036
 7755SOL    HW134484   9.213   2.625   5.302 -0.9293  1.7044  2.3130
 7755SOL    HW234485   9.348   2.560   5.367  0.2181  1.4137 -0.2631
 7756SOL     OW34486   9.457   4.227   3.977 -0.4144 -0.6483 -0.0267
 7756SOL    HW134487   9.419   4.187   3.894 -0.4299 -0.6053 -0.0405
 7756SOL    HW234488   9.555   4.239   3.966 -0.3766 -0.8723  0.0537
 7757SOL     OW34489   6.936   9.303   3.639 -0.7519 -0.2263 -0.5116
 7757SOL    HW134490   7.025   9.280   3.679 -0.6114  0.0482 -0.6630
 7757SOL    HW234491   6.941   9.294   3.540  0.2792  3.6461 -0.8827
 7758SOL     OW34492   1.859   4.426   2.590 -0.8327  0.2445 -0.1442
 7758SOL    HW134493   1.897   4.359   2.527 -0.0879 -0.0791  0.6261
 7758SOL    HW234494   1.930   4.493   2.614 -1.0304  0.2218  0.5257
 7759SOL     OW34495   8.022   5.137   2.163 -0.1471  0.4188 -0.7018
 7759SOL    HW134496   7.972   5.118   2.247 -0.5551  2.1516 -0.5445
 7759SOL    HW234497   7.968   5.198   2.105  1.7076  2.2346 -0.5767
 7760SOL     OW34498   0.531   9.160   1.085  0.2565  0.2635 -0.2197
 7760SOL    HW134499   0.579   9.082   1.126 -0.2007  0.5644  0.8910
 7760SOL    HW234500   0.589   9.201   1.014  0.8456 -0.5671 -0.2188
 7761SOL     OW34501   2.764   8.234   2.995 -0.0679 -0.3601  0.2990
 7761SOL    HW134502   2.844   8.239   2.935  1.7684  2.0217  2.8408
 7761SOL    HW234503   2.767   8.147   3.045 -0.2324 -1.2100 -1.1248
 7762SOL     OW34504   3.568   7.745   5.478 -0.2966 -0.6387  0.5366
 7762SOL    HW134505   3.569   7.839   5.444 -0.9961 -0.9786 -0.4447
 7762SOL    HW234506   3.602   7.743   5.572  0.1415  0.5313  0.4120
 7763SOL     OW34507   2.475   4.756   0.568 -0.1840 -0.2081  0.1071
 7763SOL    HW134508   2.573   4.764   0.585  0.2077 -2.0500 -1.0764
 7763SOL    HW234509   2.459   4.679   0.506 -2.4295 -0.2886  0.7558
 7764SOL     OW34510   5.749   5.258   0.412  0.0727 -0.2216 -0.3631
 7764SOL    HW134511   5.712   5.342   0.373  0.6895  0.0192 -0.4468
 7764SOL    HW234512   5.689   5.225   0.485  0.1833  0.6833  0.1418
 7765SOL     OW34513   2.186   3.467   5.849 -0.5029  0.0197 -0.3022
 7765SOL    HW134514   2.195   3.398   5.777 -0.5504 -0.1144 -0.1790
 7765SOL    HW234515   2.144   3.549   5.810 -3.2172 -1.0637  0.1769
 7766SOL     OW34516   2.355   2.526   8.178 -0.0752  0.6259 -0.4928
 7766SOL    HW134517   2.264   2.511   8.216 -0.8360  1.1422 -2.0620
 7766SOL    HW234518   2.374   2.624   8.173  0.0197  0.5630 -1.4275
 7767SOL     OW34519   3.197   1.567   3.094 -0.3939  0.1853 -0.4117
 7767SOL    HW134520   3.171   1.650   3.141 -0.5471 -0.5764  0.8596
 7767SOL    HW234521   3.257   1.512   3.152 -0.2825 -0.5846 -1.2343
 7768SOL     OW34522   8.402   3.441   3.645  0.1797 -0.3399  0.4589
 7768SOL    HW134523   8.396   3.341   3.645  2.1445 -0.4783  0.1167
 7768SOL    HW234524   8.311   3.479   3.659 -0.7215 -2.1732 -0.1143
 7769SOL     OW34525   5.731   4.797   1.256 -0.2656 -0.3330  0.0949
 7769SOL    HW134526   5.671   4.833   1.185 -1.2931 -0.0436  1.0980
 7769SOL    HW234527   5.821   4.839   1.247 -0.0949 -0.9871 -1.6007
 7770SOL     OW34528   8.280   6.373   6.080  0.3154 -0.3995 -0.0760
 7770SOL    HW134529   8.320   6.464   6.090  0.3062 -0.4984  0.9011
 7770SOL    HW234530   8.214   6.357   6.153  0.4746 -1.2657 -0.1128
 7771SOL     OW34531   6.445   8.606   5.066 -0.3182 -0.2947 -0.1816
 7771SOL    HW134532   6.382   8.529   5.072 -0.1639 -0.5204 -1.4132
 7771SOL    HW234533   6.403   8.679   5.012 -0.2120  0.2499  0.4515
 7772SOL     OW34534   8.702   6.850   4.283 -0.0815 -0.2822 -0.1103
 7772SOL    HW134535   8.702   6.778   4.353 -0.9257 -0.4925 -0.3229
 7772SOL    HW234536   8.771   6.829   4.214 -0.7712 -1.2225 -0.5182
 7773SOL     OW34537   3.793   0.628   2.480  0.0111  0.4590 -0.0957
 7773SOL    HW134538   3.794   0.708   2.420  0.3920  0.4118 -0.1553
 7773SOL    HW234539   3.829   0.549   2.431  0.5466  0.4735  0.2644
 7774SOL     OW34540   0.865   1.866   1.899 -0.0050 -0.2686  0.0788
 7774SOL    HW134541   0.943   1.928   1.899 -1.0604  1.1078 -0.0146
 7774SOL    HW234542   0.847   1.833   1.807  0.2108 -0.2435  0.0295
 7775SOL     OW34543   2.753   6.789   2.445  0.1088 -0.3567 -0.2457
 7775SOL    HW134544   2.756   6.705   2.391 -0.7543 -0.9482  0.6096
 7775SOL    HW234545   2.823   6.786   2.516 -0.9889 -1.0865  0.8257
 7776SOL     OW34546   1.104   0.107   0.270 -0.2017  0.1251  0.0502
 7776SOL    HW134547   1.133   0.126   0.364 -1.4515  2.4387  0.0293
 7776SOL    HW234548   1.025   0.165   0.248 -1.1163 -1.7530 -1.8042
 7777SOL     OW34549   2.945   7.509   8.082  0.1285  0.3037 -0.0262
 7777SOL    HW134550   3.021   7.445   8.097  0.3831  0.1198 -2.0547
 7777SOL    HW234551   2.965   7.567   8.003 -2.1454 -0.1832 -0.9747
 7778SOL     OW34552   0.336   9.720   4.039 -0.4061 -0.2714  0.2007
 7778SOL    HW134553   0.289   9.632   4.050 -0.9658 -0.0008 -0.0106
 7778SOL    HW234554   0.270   9.789   4.011  0.0972  0.1457  0.0480
 7779SOL     OW34555   8.458   6.529   0.262 -0.0759 -0.9513  0.3314
 7779SOL    HW134556   8.415   6.442   0.238 -0.1420 -1.1481  1.1651
 7779SOL    HW234557   8.544   6.539   0.211  0.2021 -1.7518  0.6339
 7780SOL     OW34558   7.688   9.964   2.450  0.0093 -0.3851 -0.1364
 7780SOL    HW134559   7.764   9.904   2.477 -0.2782 -0.8725 -0.4109
 7780SOL    HW234560   7.603   9.930   2.490 -0.1234 -0.0269 -0.1064
 7781SOL     OW34561   6.541   5.083   7.484 -0.0161  0.8937 -0.0242
 7781SOL    HW134562   6.496   4.997   7.458 -0.7341  1.7576 -1.7321
 7781SOL    HW234563   6.628   5.089   7.435 -0.1033  1.2674 -0.1303
 7782SOL     OW34564   9.410   9.422   3.070  0.5284  0.6088 -1.2904
 7782SOL    HW134565   9.411   9.516   3.105 -0.4937  0.2402 -0.2428
 7782SOL    HW234566   9.504   9.387   3.069  0.7686  1.1802 -0.3851
 7783SOL     OW34567   7.248   5.197   2.872  0.0669 -0.0456  0.0925
 7783SOL    HW134568   7.234   5.292   2.845  0.0669  0.0437  0.3960
 7783SOL    HW234569   7.254   5.139   2.791  1.1605  0.3656 -0.1220
 7784SOL     OW34570   4.641   0.084   6.584 -0.2992  0.0966 -0.5696
 7784SOL    HW134571   4.688  -0.004   6.595  1.7269  0.8833 -2.5216
 7784SOL    HW234572   4.554   0.069   6.538  0.4909 -0.8059 -1.8109
 7785SOL     OW34573   8.564   6.472   5.056 -0.0934  0.4812 -0.1997
 7785SOL    HW134574   8.607   6.382   5.046 -0.1199  0.4812 -0.3275
 7785SOL    HW234575   8.615   6.527   5.122 -0.0861  0.3658 -0.1092
 7786SOL     OW34576   2.619   3.589   4.640 -0.2079  0.8693 -0.1474
 7786SOL    HW134577   2.643   3.635   4.555 -1.6764  1.6401 -0.1663
 7786SOL    HW234578   2.522   3.604   4.660 -0.5985 -1.7970  0.1255
 7787SOL     OW34579   7.245   9.316   3.699  0.4857 -0.7689  0.0571
 7787SOL    HW134580   7.284   9.259   3.772 -0.2225 -0.7555  0.4561
 7787SOL    HW234581   7.278   9.284   3.610  1.4928 -0.6753  0.3970
 7788SOL     OW34582   1.086   9.748   5.204  0.4493 -0.0020  0.5290
 7788SOL    HW134583   1.162   9.755   5.267  3.3636 -0.6784 -2.7581
 7788SOL    HW234584   1.073   9.652   5.177  0.1484  0.4215 -0.9152
 7789SOL     OW34585   2.939   3.704   4.493 -0.3301  0.0811 -0.4410
 7789SOL    HW134586   2.991   3.728   4.574 -1.3567 -2.1037  0.9243
 7789SOL    HW234587   2.855   3.758   4.489 -0.3001  0.1591 -0.0088
 7790SOL     OW34588   0.511   4.000   2.156 -0.2291  0.1938  0.2429
 7790SOL    HW134589   0.594   4.006   2.212 -0.4760 -0.8831  0.7373
 7790SOL    HW234590   0.529   3.946   2.074  0.2572  2.1515 -0.9859
 7791SOL     OW34591   8.867   8.613   2.820  0.5074 -0.1498  0.5049
 7791SOL    HW134592   8.859   8.520   2.784  0.7386  0.5741 -1.4985
 7791SOL    HW234593   8.782   8.640   2.864 -0.3460 -0.4790 -0.9407
 7792SOL     OW34594   0.092   6.343   0.407 -0.1430  0.0211  0.3060
 7792SOL    HW134595   0.006   6.387   0.381 -0.0416  0.4358  0.6617
 7792SOL    HW234596   0.161   6.413   0.423 -0.2735 -0.2205  1.9368
 7793SOL     OW34597   2.229   3.857   5.033 -0.2246  0.6721  0.0006
 7793SOL    HW134598   2.257   3.915   5.109 -0.9817 -0.3325  1.0636
 7793SOL    HW234599   2.130   3.866   5.019 -0.1139  0.7397 -0.7737
 7794SOL     OW34600   9.988   8.819   3.629  0.1443  0.1300  0.0996
 7794SOL    HW134601   9.962   8.822   3.725  0.5267  1.3369  0.1703
 7794SOL    HW234602  10.085   8.842   3.619 -0.2720  1.5390 -0.7192
 7795SOL     OW34603   6.780   1.303   4.741  0.4301  0.1953  0.7510
 7795SOL    HW134604   6.695   1.337   4.700 -0.2029 -1.4370  0.6746
 7795SOL    HW234605   6.834   1.255   4.671  0.5442 -0.3639  1.2187
 7796SOL     OW34606   3.213   4.170   0.958  0.1253  0.0470 -0.0329
 7796SOL    HW134607   3.241   4.266   0.948  0.6139 -0.1902 -1.0796
 7796SOL    HW234608   3.151   4.161   1.036 -0.1806  1.2727 -0.1198
 7797SOL     OW34609   4.448   0.649   6.605  0.2123 -0.4424  0.3814
 7797SOL    HW134610   4.511   0.703   6.661  1.3024 -0.8821 -0.4047
 7797SOL    HW234611   4.464   0.668   6.508  0.6619 -2.2246  0.0935
 7798SOL     OW34612   3.542   3.101   0.786 -0.2730 -0.3017 -0.2392
 7798SOL    HW134613   3.531   3.177   0.722  1.4231  0.7650  0.6939
 7798SOL    HW234614   3.625   3.116   0.840 -0.0700 -2.6972  0.1314
 7799SOL     OW34615   0.686   5.768   3.867  0.0968 -0.3820  0.1450
 7799SOL    HW134616   0.641   5.679   3.877 -1.8436  0.3001 -2.0790
 7799SOL    HW234617   0.760   5.761   3.801 -0.2203 -0.2974 -0.2215
 7800SOL     OW34618   2.077   4.300   1.203  0.6265 -0.0654  0.3055
 7800SOL    HW134619   2.153   4.260   1.255 -0.2678 -1.4060  0.5824
 7800SOL    HW234620   2.106   4.388   1.166  1.1453  1.1291  3.4266
 7801SOL     OW34621   2.021   0.327   6.236 -0.2170  0.2514  0.5541
 7801SOL    HW134622   1.958   0.324   6.313 -0.2439 -1.9019  0.4760
 7801SOL    HW234623   2.014   0.242   6.184 -0.5392  1.8210 -2.1044
 7802SOL     OW34624   8.355   4.108   5.694  0.8131 -0.1146 -0.1012
 7802SOL    HW134625   8.291   4.174   5.654  1.3587  0.2715 -0.3397
 7802SOL    HW234626   8.316   4.016   5.688  0.6854 -0.0030 -1.1194
 7803SOL     OW34627   1.792   9.108   5.437  0.3374  0.5343  0.0083
 7803SOL    HW134628   1.852   9.086   5.360 -1.4855  0.1942 -1.3547
 7803SOL    HW234629   1.776   9.025   5.491  0.9364  0.5806  0.2558
 7804SOL     OW34630   7.049   3.556   3.712 -0.3692 -0.2017 -0.0426
 7804SOL    HW134631   7.048   3.607   3.798 -1.4104  0.4745 -0.4387
 7804SOL    HW234632   7.084   3.464   3.728  0.3391  0.2188  0.9219
 7805SOL     OW34633   8.774   4.886   3.362  0.1591  0.0792  0.4457
 7805SOL    HW134634   8.745   4.912   3.270  0.4506  2.3829  0.9636
 7805SOL    HW234635   8.711   4.926   3.430  1.2721  0.3887  1.3241
 7806SOL     OW34636   9.430   8.307   0.560  0.4150  0.3529 -0.1778
 7806SOL    HW134637   9.414   8.383   0.497  0.7340 -0.3898 -1.1697
 7806SOL    HW234638   9.343   8.268   0.589  0.2696  0.5610 -0.3355
 7807SOL     OW34639   0.145   9.287   1.897 -0.0395  0.7089 -0.2459
 7807SOL    HW134640   0.147   9.350   1.820 -0.6975 -0.2716 -1.0753
 7807SOL    HW234641   0.098   9.331   1.974 -0.7419  1.1369 -0.9074
 7808SOL     OW34642   3.270   9.432   5.940  0.5417  0.0882  0.4194
 7808SOL    HW134643   3.207   9.359   5.912  0.7119 -0.0143  0.3050
 7808SOL    HW234644   3.364   9.403   5.922  0.6435  0.0818  0.9637
 7809SOL     OW34645   3.730   1.868   2.631 -0.8172 -0.1551  0.0281
 7809SOL    HW134646   3.716   1.955   2.679 -0.9977 -0.4712  0.5432
 7809SOL    HW234647   3.828   1.857   2.611 -0.3339 -1.3472  2.8459
 7810SOL     OW34648   2.389   7.079   6.199 -0.4444 -0.3513  0.1422
 7810SOL    HW134649   2.341   7.016   6.137 -0.1194 -0.6800  0.2184
 7810SOL    HW234650   2.328   7.153   6.226 -0.4828 -0.0062 -0.8564
 7811SOL     OW34651   9.332   3.672   5.274 -0.0623 -0.5079 -0.3407
 7811SOL    HW134652   9.254   3.634   5.325  0.0084 -1.5560 -0.9896
 7811SOL    HW234653   9.416   3.627   5.305 -0.0013 -1.0372 -1.2732
 7812SOL     OW34654   7.505   5.921   6.272  0.0808 -0.0527 -0.4135
 7812SOL    HW134655   7.437   5.909   6.344 -0.1098 -0.3676 -0.6456
 7812SOL    HW234656   7.471   5.882   6.186  1.1744 -1.5959 -0.1613
 7813SOL     OW34657   0.566   2.598   3.127  0.5480  0.3259 -0.0733
 7813SOL    HW134658   0.666   2.602   3.129  0.5458  0.1950  0.6324
 7813SOL    HW234659   0.529   2.680   3.171  0.3236  1.2551 -1.9690
 7814SOL     OW34660   7.929   2.941   2.075 -0.2823  0.3041 -0.6365
 7814SOL    HW134661   7.932   2.972   2.170  0.0993  1.2156 -0.9423
 7814SOL    HW234662   7.864   2.996   2.024  1.2092  1.3716 -1.4443
 7815SOL     OW34663   7.548   5.939   3.875  0.5992  0.9455 -0.4983
 7815SOL    HW134664   7.614   5.864   3.879 -0.2585  0.2387  0.8448
 7815SOL    HW234665   7.591   6.022   3.911  0.7384  0.4584  0.4939
 7816SOL     OW34666   3.057   8.034   5.684 -0.3525 -0.3010 -0.6638
 7816SOL    HW134667   3.088   8.093   5.758  1.4828 -0.2745 -1.4186
 7816SOL    HW234668   3.031   7.945   5.720  0.6090 -0.3148 -0.0119
 7817SOL     OW34669   8.331   9.128   1.784  0.0672 -0.2198 -0.1502
 7817SOL    HW134670   8.331   9.030   1.768  0.0592 -0.4121  0.9621
 7817SOL    HW234671   8.411   9.170   1.740  0.5106 -0.8374  0.0666
 7818SOL     OW34672   0.611   1.455   5.569 -0.4048 -0.0495  0.7547
 7818SOL    HW134673   0.675   1.378   5.567  0.7961  0.9532 -0.1179
 7818SOL    HW234674   0.661   1.540   5.588 -1.4611  0.7646 -0.0401
 7819SOL     OW34675   7.756   6.507   4.710 -0.5069 -0.1438  0.1675
 7819SOL    HW134676   7.683   6.555   4.660 -0.7745 -0.5013  0.2073
 7819SOL    HW234677   7.786   6.562   4.787  0.1649  0.5745 -0.6094
 7820SOL     OW34678   8.914   7.170   1.359  0.0084  0.0469 -0.8049
 7820SOL    HW134679   8.883   7.199   1.449 -1.1041 -0.4743 -1.0085
 7820SOL    HW234680   8.988   7.104   1.368 -0.6121 -0.5862 -0.2506
 7821SOL     OW34681   0.322   6.372   1.828 -0.6733 -0.2131 -0.2729
 7821SOL    HW134682   0.343   6.274   1.825  1.8094  0.2555  0.7898
 7821SOL    HW234683   0.317   6.402   1.923  2.0629  1.3641 -0.5708
 7822SOL     OW34684   1.068   8.353   2.985  0.2556 -0.4480 -0.2009
 7822SOL    HW134685   1.015   8.269   2.977  0.9956 -1.3830  3.8666
 7822SOL    HW234686   1.008   8.432   2.969 -1.3512 -1.6251 -0.0177
 7823SOL     OW34687   7.721   9.054   3.931  0.1290  0.0167 -0.3129
 7823SOL    HW134688   7.659   9.044   3.853 -0.6724  1.4184  0.1228
 7823SOL    HW234689   7.810   9.087   3.898 -0.4849  1.4864 -0.5722
 7824SOL     OW34690   3.402   6.170   0.982  0.0571  0.1030 -0.0652
 7824SOL    HW134691   3.360   6.084   0.953 -1.5623  1.1253 -0.8053
 7824SOL    HW234692   3.346   6.247   0.952  0.9656  1.3986  1.4374
 7825SOL     OW34693   3.598   8.423   8.139  0.5970  0.3121 -0.5117
 7825SOL    HW134694   3.541   8.405   8.059 -0.3872 -0.8707  0.4464
 7825SOL    HW234695   3.677   8.478   8.111 -0.3536  0.9309 -2.0752
 7826SOL     OW34696   8.016   4.751   1.407  0.0502  0.3353 -0.0359
 7826SOL    HW134697   7.923   4.715   1.418 -0.4501  1.0427 -1.7961
 7826SOL    HW234698   8.052   4.722   1.319  0.7255  1.7713 -0.2443
 7827SOL     OW34699   7.234   6.925   3.355  0.4166  0.5555 -0.3763
 7827SOL    HW134700   7.319   6.896   3.311  0.7122  1.4858 -0.4368
 7827SOL    HW234701   7.255   6.964   3.445  0.0013  0.3337 -0.1830
 7828SOL     OW34702   0.004   5.428   1.397 -0.1360  0.4053 -0.3327
 7828SOL    HW134703  -0.089   5.457   1.373  0.0796  1.6319  0.3125
 7828SOL    HW234704   0.025   5.343   1.348 -1.1271  0.7851 -1.4536
 7829SOL     OW34705   0.165   9.060   4.675  0.6694 -0.4911  0.1605
 7829SOL    HW134706   0.210   9.148   4.684  0.9803 -0.6799  0.4929
 7829SOL    HW234707   0.074   9.065   4.717  0.4310 -0.1468 -0.3996
 7830SOL     OW34708   4.976   3.028   4.452 -0.1543 -0.8375  0.2028
 7830SOL    HW134709   5.020   3.064   4.535  0.6360  0.1786 -0.6449
 7830SOL    HW234710   5.047   3.003   4.386 -0.8394  0.4066 -1.0198
 7831SOL     OW34711   6.072   5.466   8.105  0.2494  0.4183  0.0836
 7831SOL    HW134712   5.997   5.528   8.077 -1.6471 -1.8957 -0.1301
 7831SOL    HW234713   6.066   5.450   8.203 -0.4862 -0.9689 -0.1798
 7832SOL     OW34714   4.411   3.647   4.946  0.0344 -0.6380  0.1587
 7832SOL    HW134715   4.336   3.659   4.881  0.8245  1.1865 -0.4693
 7832SOL    HW234716   4.470   3.572   4.917 -1.6419 -2.2072  0.7601
 7833SOL     OW34717   9.178   1.323   0.745  0.2180  0.2926 -0.0212
 7833SOL    HW134718   9.165   1.316   0.646 -0.8031  1.0214  0.0569
 7833SOL    HW234719   9.090   1.337   0.790  0.6620 -0.1470  1.0069
 7834SOL     OW34720   1.629   1.105   3.861 -0.1612  0.2126 -0.4500
 7834SOL    HW134721   1.556   1.067   3.918  0.2998  1.4828  1.0203
 7834SOL    HW234722   1.595   1.182   3.808 -0.2967 -0.2382 -1.0233
 7835SOL     OW34723   7.870   2.211   0.290 -0.0307 -0.0511 -0.0811
 7835SOL    HW134724   7.857   2.123   0.335 -1.8285  0.2048 -0.0459
 7835SOL    HW234725   7.898   2.279   0.358  0.0356 -0.2993  0.1416
 7836SOL     OW34726   6.266   9.956   5.855  0.3085 -0.1238  0.4200
 7836SOL    HW134727   6.273   9.966   5.756  0.8113 -1.6215  0.2884
 7836SOL    HW234728   6.333  10.016   5.899  0.7183 -0.1315 -0.1821
 7837SOL     OW34729   2.498   4.134   5.425  0.4768 -0.2521 -0.2367
 7837SOL    HW134730   2.592   4.106   5.405  1.2102  1.4338  0.7129
 7837SOL    HW234731   2.500   4.218   5.479 -1.6346  1.6214 -2.9753
 7838SOL     OW34732   3.667   5.547   0.203  0.1727 -0.1521 -0.3136
 7838SOL    HW134733   3.649   5.464   0.151 -0.4937 -0.3207  0.1694
 7838SOL    HW234734   3.580   5.593   0.222  0.4126 -0.0527  0.5646
 7839SOL     OW34735   2.204   3.089   2.306 -0.4772  0.6355 -0.3970
 7839SOL    HW134736   2.172   3.030   2.231 -2.3737  2.0956 -0.7843
 7839SOL    HW234737   2.224   3.033   2.386 -3.5402 -0.4636 -0.3248
 7840SOL     OW34738   0.681   8.122   3.327  0.7206 -0.7997  0.6871
 7840SOL    HW134739   0.652   8.072   3.245  0.5393 -1.2191  1.0040
 7840SOL    HW234740   0.752   8.188   3.302  0.0190 -0.2838  0.0415
 7841SOL     OW34741   2.558   0.010   0.708  0.3513  0.7042 -0.0922
 7841SOL    HW134742   2.636  -0.052   0.717  1.0204  1.7247  1.5004
 7841SOL    HW234743   2.518   0.026   0.799 -3.1431 -1.5666 -1.1317
 7842SOL     OW34744   4.786   5.681   1.336 -0.5335  0.3956  0.3630
 7842SOL    HW134745   4.865   5.710   1.390  0.0604 -0.5760  0.0194
 7842SOL    HW234746   4.702   5.702   1.387 -0.1036  2.1618  0.3880
 7843SOL     OW34747   7.172   7.512   5.784 -0.0538  0.3382  0.2351
 7843SOL    HW134748   7.117   7.483   5.863  0.8979 -0.2278  0.6976
 7843SOL    HW234749   7.112   7.547   5.713 -0.9470  0.5970  1.1081
 7844SOL     OW34750   3.683   0.199   2.515  0.0212 -0.2654  0.6448
 7844SOL    HW134751   3.682   0.129   2.586 -3.1127  1.3595  2.3562
 7844SOL    HW234752   3.591   0.208   2.477  0.8943  1.3192 -1.1620
 7845SOL     OW34753   8.576   7.682   3.207 -0.0271  0.6269  0.4846
 7845SOL    HW134754   8.547   7.683   3.303 -0.4082 -0.8565  0.3999
 7845SOL    HW234755   8.551   7.595   3.166 -0.1392  1.3731 -1.0621
 7846SOL     OW34756   1.197   9.523   6.203 -0.2818 -0.2680 -0.1952
 7846SOL    HW134757   1.178   9.621   6.208  0.1392 -0.0962 -1.6659
 7846SOL    HW234758   1.117   9.472   6.235 -0.6081  0.5464  0.3054
 7847SOL     OW34759   2.014   2.945   0.103  0.4268  0.0929  0.1124
 7847SOL    HW134760   1.936   2.900   0.148  0.9078  0.2331  1.0952
 7847SOL    HW234761   2.078   2.977   0.172 -0.0396  2.5646 -0.5541
 7848SOL     OW34762   1.682   2.023   4.999  0.1931  0.3716 -0.2856
 7848SOL    HW134763   1.763   2.059   4.952 -0.1008  1.4580  0.0140
 7848SOL    HW234764   1.600   2.056   4.953 -0.0883  0.2365  0.1195
 7849SOL     OW34765   3.470   2.262   3.752  0.1270 -0.0871  0.0749
 7849SOL    HW134766   3.525   2.333   3.707  2.9663 -2.8469 -0.9925
 7849SOL    HW234767   3.417   2.213   3.683  1.7433 -1.9913  0.1439
 7850SOL     OW34768   3.789   8.772   4.600  0.3375 -0.3562 -0.5738
 7850SOL    HW134769   3.788   8.861   4.645 -0.6364 -1.2964  1.3537
 7850SOL    HW234770   3.697   8.749   4.570  0.6898 -0.4681 -1.5818
 7851SOL     OW34771   1.353   8.678   4.446  0.1016 -0.3855  0.2394
 7851SOL    HW134772   1.388   8.763   4.408 -0.6419  0.0082  0.4151
 7851SOL    HW234773   1.332   8.691   4.543  0.3042 -0.8644  0.3478
 7852SOL     OW34774   9.113   1.363   5.169  0.3029  0.3912 -0.0109
 7852SOL    HW134775   9.025   1.336   5.208  0.8604 -0.8847  0.3850
 7852SOL    HW234776   9.101   1.390   5.073 -0.4910  0.0614 -0.0015
 7853SOL     OW34777   1.184   8.534   3.214  0.3665  0.1522  0.1834
 7853SOL    HW134778   1.155   8.451   3.167  0.0772  0.9281 -1.0088
 7853SOL    HW234779   1.221   8.599   3.148  0.7650  0.9018  1.1355
 7854SOL     OW34780   9.401   0.141   6.283  0.9349 -0.1823 -0.1906
 7854SOL    HW134781   9.374   0.131   6.187  0.9314 -0.5951 -0.1454
 7854SOL    HW234782   9.330   0.190   6.333  1.4707  1.0924 -0.6624
 7855SOL     OW34783   0.128   2.902   3.585 -0.0571 -0.3457 -0.4241
 7855SOL    HW134784   0.063   2.845   3.535 -0.7462 -0.3366  0.4573
 7855SOL    HW234785   0.166   2.850   3.662  0.6183 -0.1881 -0.6448
 7856SOL     OW34786   7.343   7.780   6.358  0.1092  0.3476  0.6053
 7856SOL    HW134787   7.249   7.810   6.374 -0.3684 -0.8734  0.1417
 7856SOL    HW234788   7.343   7.690   6.315  1.4339  1.4151 -1.7796
 7857SOL     OW34789   8.390   4.015   2.446  0.3941 -0.0880 -0.3578
 7857SOL    HW134790   8.418   3.933   2.396  0.7120 -0.0947 -0.1736
 7857SOL    HW234791   8.462   4.040   2.511  0.0031 -0.0595  0.0677
 7858SOL     OW34792   9.635   2.561   5.333  0.2966 -0.1863 -0.1439
 7858SOL    HW134793   9.671   2.494   5.398 -1.9396 -0.0070  1.3467
 7858SOL    HW234794   9.667   2.539   5.241  1.7594 -1.7194  0.7063
 7859SOL     OW34795   8.614   9.659   4.519  0.1986  0.2846  0.0339
 7859SOL    HW134796   8.675   9.591   4.478  1.5673  2.8881 -2.3641
 7859SOL    HW234797   8.551   9.694   4.450  1.7103  3.8318  0.3502
 7860SOL     OW34798   9.620   3.327   2.519 -0.0094  0.1464 -0.3700
 7860SOL    HW134799   9.696   3.368   2.569 -0.3689 -0.9651  1.1199
 7860SOL    HW234800   9.565   3.399   2.477 -1.5468  1.3634  3.4834
 7861SOL     OW34801   1.788   3.526   0.196 -0.0557 -0.0163 -0.2929
 7861SOL    HW134802   1.776   3.434   0.160 -0.8069 -0.0066 -0.0737
 7861SOL    HW234803   1.812   3.521   0.293 -1.4998  0.0464  0.0837
 7862SOL     OW34804   8.013   7.748   4.990  0.1717  0.2291  0.2440
 7862SOL    HW134805   8.057   7.815   5.050 -0.9166  1.4880 -0.3241
 7862SOL    HW234806   8.008   7.786   4.897 -0.5044 -0.6197 -0.0700
 7863SOL     OW34807   1.834   2.755   3.168  0.1562  0.3551  0.0340
 7863SOL    HW134808   1.873   2.717   3.084 -0.9043  1.2100 -0.8575
 7863SOL    HW234809   1.829   2.855   3.161  2.2313  0.6347  2.0679
 7864SOL     OW34810   5.827   1.151   4.608 -0.0941 -0.1552  0.1709
 7864SOL    HW134811   5.802   1.221   4.675  2.1275 -0.2140  1.1227
 7864SOL    HW234812   5.855   1.067   4.656 -0.5795 -0.9465 -0.8986
 7865SOL     OW34813   7.267   0.931   1.979 -0.2698  0.0185  0.4778
 7865SOL    HW134814   7.183   0.953   1.930  0.3561  0.6262 -0.3327
 7865SOL    HW234815   7.244   0.888   2.066 -1.4286  0.4230  0.3830
 7866SOL     OW34816   8.674   3.163   1.149 -0.3420 -1.1661 -0.5838
 7866SOL    HW134817   8.602   3.209   1.200  0.7645 -0.0240 -0.0261
 7866SOL    HW234818   8.635   3.122   1.066 -1.4047  0.4335 -0.8879
 7867SOL     OW34819   2.623   6.566   5.716  0.4898  0.3053  0.2395
 7867SOL    HW134820   2.614   6.636   5.786  1.2617  0.5151  0.1408
 7867SOL    HW234821   2.536   6.518   5.704  0.0500  1.0362  0.5232
 7868SOL     OW34822   6.818   2.501   3.588  0.0556  0.2920  0.0543
 7868SOL    HW134823   6.720   2.510   3.573  0.5248  1.5771 -2.3338
 7868SOL    HW234824   6.840   2.532   3.681 -1.6806  0.5752  0.3913
 7869SOL     OW34825   5.883   8.375   6.833  0.3807 -0.3209 -0.4484
 7869SOL    HW134826   5.851   8.469   6.823 -1.8403 -0.7311  2.2135
 7869SOL    HW234827   5.820   8.314   6.785 -1.3497 -0.8719  2.3790
 7870SOL     OW34828   9.909   9.641   4.253  0.4327  0.1544  0.0587
 7870SOL    HW134829   9.857   9.568   4.297  0.4951  0.9387  1.4730
 7870SOL    HW234830   9.932   9.614   4.160  1.0043 -1.9021  0.7517
 7871SOL     OW34831   3.339   2.921   5.192  0.3075 -0.0741  0.0642
 7871SOL    HW134832   3.321   2.995   5.256  0.3966 -0.2881  0.3353
 7871SOL    HW234833   3.305   2.946   5.101 -1.0773 -0.3487  0.4973
 7872SOL     OW34834   0.492   4.114   3.928 -0.0270 -0.1917 -0.0175
 7872SOL    HW134835   0.480   4.126   3.829 -0.3096 -0.6024 -0.0355
 7872SOL    HW234836   0.589   4.107   3.949  0.0332 -0.1159 -0.2723
 7873SOL     OW34837   0.661   3.263   3.446 -0.2202 -0.8255 -0.4164
 7873SOL    HW134838   0.750   3.230   3.416  1.3779  1.9906  1.0775
 7873SOL    HW234839   0.617   3.194   3.503  1.4047 -1.8414 -0.3880
 7874SOL     OW34840   0.612   4.525   5.484 -0.5672  0.1412  0.4585
 7874SOL    HW134841   0.563   4.438   5.480 -1.3308  0.5892 -0.0026
 7874SOL    HW234842   0.708   4.510   5.460 -0.2982 -0.8583  2.0482
 7875SOL     OW34843   4.967   0.273   5.347 -0.4185  0.0986 -0.0191
 7875SOL    HW134844   4.942   0.260   5.443 -1.1971  2.2583  0.1024
 7875SOL    HW234845   4.887   0.303   5.296 -0.5232 -3.0552 -1.8102
 7876SOL     OW34846   0.800   7.893   3.999 -0.1524  0.6648  0.4090
 7876SOL    HW134847   0.776   7.957   4.072  0.9173  2.1657 -0.5090
 7876SOL    HW234848   0.735   7.817   3.997  0.0172  0.4283  3.1136
 7877SOL     OW34849   1.543   3.370   5.839 -0.3554  0.2716  0.0852
 7877SOL    HW134850   1.569   3.329   5.752 -1.0245 -0.4624  0.2198
 7877SOL    HW234851   1.546   3.469   5.832 -2.0054  0.2527 -1.2765
 7878SOL     OW34852   6.733   9.517   5.825  0.1275  0.1602  0.0030
 7878SOL    HW134853   6.780   9.560   5.902 -0.2455  1.7666 -0.6470
 7878SOL    HW234854   6.783   9.436   5.796 -0.3239 -1.0956  2.6529
 7879SOL     OW34855   5.980   0.737   1.432 -0.0403 -0.4625  0.3918
 7879SOL    HW134856   5.996   0.699   1.523  1.4761 -0.3571  0.1734
 7879SOL    HW234857   5.923   0.819   1.440  0.0533 -0.4780  1.2350
 7880SOL     OW34858   0.996   7.328   0.943 -0.0790  0.0922  0.8190
 7880SOL    HW134859   0.908   7.352   0.985  0.1514 -2.0078  2.5819
 7880SOL    HW234860   0.980   7.299   0.849 -1.0768  1.2430  0.6136
 7881SOL     OW34861   2.684   9.129   4.813 -0.0002 -0.1176 -0.0856
 7881SOL    HW134862   2.620   9.123   4.890 -2.0283  0.8257 -1.6490
 7881SOL    HW234863   2.722   9.039   4.794 -1.3543 -0.8231  0.4888
 7882SOL     OW34864   0.492   4.282   1.410  0.4092 -0.3422  0.2421
 7882SOL    HW134865   0.534   4.203   1.454  1.1483  0.7868  1.5868
 7882SOL    HW234866   0.506   4.277   1.311  0.7365 -1.7176  0.3527
 7883SOL     OW34867   7.984   5.416   1.474 -0.4330 -0.2000 -0.1689
 7883SOL    HW134868   8.026   5.389   1.387 -0.1085  1.1953 -0.4610
 7883SOL    HW234869   8.055   5.428   1.543 -0.9147 -4.2132  1.1497
 7884SOL     OW34870   9.244   9.930   2.046 -0.0404  0.2526  0.8422
 7884SOL    HW134871   9.185   9.997   2.001  0.9631  1.4129  1.2037
 7884SOL    HW234872   9.337   9.966   2.051  0.0678 -0.2157  3.0146
 7885SOL     OW34873   8.384   5.184   2.408  0.0204 -0.1776  0.0245
 7885SOL    HW134874   8.354   5.116   2.342 -0.5373 -0.8003  0.9014
 7885SOL    HW234875   8.307   5.212   2.465 -0.5089  3.5149 -2.3227
 7886SOL     OW34876   4.358   4.453   3.052  0.2423  0.0460  0.2100
 7886SOL    HW134877   4.415   4.496   2.982  0.3407  2.2024  1.5779
 7886SOL    HW234878   4.266   4.438   3.015  0.6860 -0.1671 -0.8373
 7887SOL     OW34879   4.519   7.956   2.979 -0.0306 -0.1112 -0.0886
 7887SOL    HW134880   4.430   7.910   2.975 -0.1177  0.0911 -0.4351
 7887SOL    HW234881   4.531   7.997   3.070 -0.8041  0.8964 -0.4343
 7888SOL     OW34882   0.987   7.218   1.785 -0.2653  0.4019  0.3000
 7888SOL    HW134883   0.942   7.281   1.722  0.1277  2.4131  1.9840
 7888SOL    HW234884   1.076   7.191   1.747 -1.3614 -0.8927 -1.4330
 7889SOL     OW34885   1.143   1.942   4.056  0.0985 -0.0335  0.4403
 7889SOL    HW134886   1.096   1.952   4.144  0.0275  1.9171  0.2213
 7889SOL    HW234887   1.206   2.019   4.045  1.4237 -1.2418 -0.4220
 7890SOL     OW34888   6.698   0.802   1.377  0.2350 -0.4328  0.1423
 7890SOL    HW134889   6.688   0.708   1.347 -0.4003 -0.8354  1.5978
 7890SOL    HW234890   6.613   0.852   1.361 -0.4987 -0.9442  2.2330
 7891SOL     OW34891   0.726   4.870   4.369  0.1233 -0.7813  0.1850
 7891SOL    HW134892   0.806   4.880   4.428  0.5753  2.8566 -0.8642
 7891SOL    HW234893   0.665   4.948   4.383 -1.2142 -1.4039 -1.9755
 7892SOL     OW34894   2.111   9.381   2.448 -0.8793  0.3684 -0.4490
 7892SOL    HW134895   2.048   9.387   2.371  0.0730  0.6179 -1.2085
 7892SOL    HW234896   2.136   9.286   2.464  2.2214  0.6571 -3.1451
 7893SOL     OW34897   9.100   4.994   5.473  0.0476 -0.4510 -0.2307
 7893SOL    HW134898   9.004   5.001   5.496  0.2537 -1.5931  0.9903
 7893SOL    HW234899   9.156   5.015   5.553  0.8511  1.1744 -1.1701
 7894SOL     OW34900   9.044   3.041   3.597 -0.8272  0.1112  0.2754
 7894SOL    HW134901   8.970   3.096   3.636 -0.2520 -0.6084  2.4905
 7894SOL    HW234902   9.126   3.098   3.587 -1.7155  0.9593 -2.3739
 7895SOL     OW34903   7.462   1.826   8.084 -0.3600  0.4672  0.0328
 7895SOL    HW134904   7.395   1.849   8.155  0.0748  0.6890  0.3712
 7895SOL    HW234905   7.428   1.858   7.996 -0.5771  0.8247  0.2433
 7896SOL     OW34906   7.686   1.707   2.814 -0.4177  0.3856 -0.2450
 7896SOL    HW134907   7.663   1.766   2.891  0.9931 -1.7839  1.8853
 7896SOL    HW234908   7.650   1.615   2.830  2.2906 -0.8262 -0.8320
 7897SOL     OW34909   9.027   7.758   1.431  0.6526  0.1204  0.3545
 7897SOL    HW134910   8.998   7.725   1.341 -0.8714 -0.2566  0.9662
 7897SOL    HW234911   9.071   7.847   1.422  0.7522 -0.0417 -0.7902
 7898SOL     OW34912   7.436   2.313   2.722 -0.0018  0.3556  0.0912
 7898SOL    HW134913   7.447   2.392   2.782  0.2767  0.3806  0.0044
 7898SOL    HW234914   7.461   2.338   2.629 -0.4375  0.3179 -0.0378
 7899SOL     OW34915   2.553   7.895   8.179 -0.1764 -0.0402 -0.3194
 7899SOL    HW134916   2.615   7.820   8.154 -1.2097  0.2207 -4.0136
 7899SOL    HW234917   2.459   7.871   8.153 -1.1705  0.8802  2.2679
 7900SOL     OW34918   5.748   1.429   0.009 -0.0699  0.9222 -0.2328
 7900SOL    HW134919   5.787   1.521   0.014 -0.5583  1.2209 -1.6217
 7900SOL    HW234920   5.650   1.436  -0.008 -0.5852  0.1650  2.2968
 7901SOL     OW34921   7.973   6.775   3.205  0.6257 -0.0704 -0.7272
 7901SOL    HW134922   7.976   6.768   3.304 -0.3483  1.1249 -0.5936
 7901SOL    HW234923   7.995   6.687   3.164 -0.9677 -1.1041  0.5905
 7902SOL     OW34924   7.896   4.570   8.134  0.1221 -0.2254 -0.1133
 7902SOL    HW134925   7.903   4.655   8.186 -0.4067 -0.4805  0.3859
 7902SOL    HW234926   7.986   4.526   8.130  0.5712  0.7588 -1.0749
 7903SOL     OW34927   3.326   1.571   1.920  0.0731  0.1381  0.0814
 7903SOL    HW134928   3.262   1.594   1.847  1.2379  1.3159 -0.5986
 7903SOL    HW234929   3.335   1.472   1.928 -2.2325 -0.0487  0.5557
 7904SOL     OW34930   6.977   2.605   2.320  0.1914 -0.0527 -0.0840
 7904SOL    HW134931   7.046   2.597   2.393  0.2933 -0.8927 -0.2657
 7904SOL    HW234932   6.951   2.701   2.309  0.6353  0.1549  0.6369
 7905SOL     OW34933   9.729   4.679   0.599 -0.3749  0.0165 -0.1457
 7905SOL    HW134934   9.750   4.744   0.526 -0.5936 -1.0404 -1.1649
 7905SOL    HW234935   9.798   4.607   0.601 -0.0121  0.3899  1.1200
 7906SOL     OW34936   9.226   2.880   3.771  0.4968 -0.1733  0.2945
 7906SOL    HW134937   9.194   2.904   3.679  1.2799 -0.5915 -0.0948
 7906SOL    HW234938   9.167   2.810   3.810  0.6412 -0.5914 -0.2282
 7907SOL     OW34939   5.511   6.832   1.406 -0.0645  0.2843  0.3349
 7907SOL    HW134940   5.480   6.877   1.490 -0.6866  1.2289 -0.3841
 7907SOL    HW234941   5.436   6.778   1.368 -0.1277  0.7335 -0.1861
 7908SOL     OW34942   7.961   9.423   3.709  0.0255  0.1119 -0.3042
 7908SOL    HW134943   7.950   9.502   3.649  1.2252  1.4372  1.1733
 7908SOL    HW234944   8.005   9.349   3.658 -2.6971 -0.2817 -2.2013
 7909SOL     OW34945   0.859   1.759   0.401  0.2352  0.1996  0.0025
 7909SOL    HW134946   0.771   1.724   0.370  0.6630 -0.5514 -0.3853
 7909SOL    HW234947   0.887   1.835   0.342 -0.1164  0.3949  0.0832
 7910SOL     OW34948   2.056   8.744   3.592  0.3694 -0.1894  0.0807
 7910SOL    HW134949   2.008   8.783   3.671 -0.4233 -1.7813  0.4041
 7910SOL    HW234950   2.081   8.649   3.612 -1.0440 -1.0366 -2.0989
 7911SOL     OW34951   8.643   6.982   2.576 -0.0988  0.2420  0.1481
 7911SOL    HW134952   8.585   6.901   2.571 -0.6691  0.6501  0.0586
 7911SOL    HW234953   8.739   6.956   2.563 -0.0581 -0.6846  2.2369
 7912SOL     OW34954   8.932   9.696   1.743 -0.3675  0.2792 -0.1515
 7912SOL    HW134955   9.018   9.743   1.725 -1.0719  0.9955 -1.7281
 7912SOL    HW234956   8.875   9.753   1.804 -1.0726  1.3434 -1.7707
 7913SOL     OW34957   5.034   0.705   2.542 -0.3370  0.2731  0.4953
 7913SOL    HW134958   5.123   0.668   2.516 -0.0003 -0.4549  2.5456
 7913SOL    HW234959   4.963   0.664   2.485  0.5084 -0.0787 -0.3274
 7914SOL     OW34960   8.255   7.262   1.106 -0.5502 -0.2337 -0.6241
 7914SOL    HW134961   8.161   7.234   1.125  0.0948 -1.0502  1.4668
 7914SOL    HW234962   8.256   7.326   1.029 -2.8772  0.3938 -0.1568
 7915SOL     OW34963   6.821   0.498   4.292 -0.0640 -0.3097  0.0952
 7915SOL    HW134964   6.814   0.473   4.196  0.4096  0.4045 -0.1315
 7915SOL    HW234965   6.884   0.575   4.302 -2.3719  1.5439  0.6352
 7916SOL     OW34966   9.704   8.853   1.773  0.7219  0.5932  0.3194
 7916SOL    HW134967   9.759   8.847   1.856  3.5123  2.7761 -1.3060
 7916SOL    HW234968   9.642   8.931   1.780  2.1952  1.8407 -0.3315
 7917SOL     OW34969   2.078   6.456   3.471 -0.4932 -0.1367 -0.6373
 7917SOL    HW134970   2.170   6.480   3.502 -0.9059  1.4292 -0.6015
 7917SOL    HW234971   2.062   6.359   3.488  0.8245 -0.2272  0.1792
 7918SOL     OW34972   1.013   4.779   0.968  0.6502 -0.4684  0.6651
 7918SOL    HW134973   1.088   4.808   0.909 -0.4300 -1.5555 -1.2965
 7918SOL    HW234974   0.929   4.771   0.914  0.0465 -3.3455  1.9211
 7919SOL     OW34975   9.576   5.905   1.528 -0.4165 -0.0209 -0.2557
 7919SOL    HW134976   9.489   5.857   1.538 -0.8660  0.8925  0.2485
 7919SOL    HW234977   9.635   5.883   1.606 -0.7165  0.4443  0.1033
 7920SOL     OW34978   3.172   8.550   0.051 -0.2216  0.0403 -0.6308
 7920SOL    HW134979   3.083   8.511   0.030  0.2506 -0.5969 -1.4821
 7920SOL    HW234980   3.224   8.487   0.109 -0.4371  0.5431  0.1125
 7921SOL     OW34981   9.422   8.741   0.181 -0.5708 -0.2325  0.3387
 7921SOL    HW134982   9.513   8.748   0.140 -1.1177 -1.2923 -1.1011
 7921SOL    HW234983   9.409   8.817   0.245  0.6690  0.9127 -0.7236
 7922SOL     OW34984   4.126   1.373   0.920 -0.2305  0.4703  0.1480
 7922SOL    HW134985   4.184   1.434   0.865 -1.0721  1.0594 -0.0915
 7922SOL    HW234986   4.176   1.289   0.940  0.5268  0.7621 -0.4862
 7923SOL     OW34987   6.785   5.686   0.512 -0.6574  0.1250 -0.0445
 7923SOL    HW134988   6.869   5.725   0.551 -1.4536 -0.5635  2.4912
 7923SOL    HW234989   6.807   5.636   0.429  1.7782 -1.6307  1.5893
 7924SOL     OW34990   4.576   0.991   5.874 -0.3588 -0.0409 -0.1698
 7924SOL    HW134991   4.498   1.051   5.893 -1.0952 -0.7004 -1.0651
 7924SOL    HW234992   4.638   1.036   5.810  0.3186  0.7345  1.0134
 7925SOL     OW34993   1.821   4.660   5.616  0.1074  0.4438 -0.2745
 7925SOL    HW134994   1.872   4.667   5.702 -3.6376 -0.8249  2.1510
 7925SOL    HW234995   1.757   4.737   5.608 -1.1272 -0.6198 -0.8625
 7926SOL     OW34996   4.652   9.117   0.385  0.3216  0.0927 -0.3740
 7926SOL    HW134997   4.665   9.207   0.344 -3.0428 -0.6758 -3.3583
 7926SOL    HW234998   4.693   9.047   0.326 -3.8295 -0.9538 -2.1392
 7927SOL     OW34999   8.051   9.458   5.307  0.3878  0.3461 -0.1508
 7927SOL    HW135000   8.081   9.363   5.318  1.2834  0.2590 -2.8953
 7927SOL    HW235001   7.951   9.461   5.303  0.3669 -0.5144 -0.3610
 7928SOL     OW35002   8.192   2.333   1.807 -0.7270  0.1757  0.0524
 7928SOL    HW135003   8.135   2.304   1.730  0.7211 -0.3103 -0.8532
 7928SOL    HW235004   8.283   2.357   1.773  0.0806 -0.5544  1.6877
 7929SOL     OW35005   0.094   6.590   3.399 -0.1700 -0.1378 -0.2473
 7929SOL    HW135006   0.050   6.654   3.335 -0.8299 -0.7210 -0.3768
 7929SOL    HW235007   0.027   6.522   3.430  0.0473  0.3431  1.3315
 7930SOL     OW35008   9.964   6.385   2.445  0.2764 -0.2323 -0.1087
 7930SOL    HW135009   9.918   6.465   2.406 -0.1922 -0.8256 -0.7754
 7930SOL    HW235010   9.898   6.330   2.496  0.7722  0.2433  1.0680
 7931SOL     OW35011   0.368   7.604   4.690  0.3398  0.4901  0.1966
 7931SOL    HW135012   0.459   7.582   4.725 -0.2473 -1.2380  0.6973
 7931SOL    HW235013   0.312   7.521   4.688 -1.6161  1.7435  1.0922
 7932SOL     OW35014   3.306   8.128   4.358 -0.3127  0.5255 -0.5152
 7932SOL    HW135015   3.330   8.035   4.328 -0.7340 -0.2336  1.4334
 7932SOL    HW235016   3.385   8.187   4.347  0.2998 -0.3211 -0.7542
 7933SOL     OW35017   9.202   2.545   6.780 -0.4543  0.3692 -0.1625
 7933SOL    HW135018   9.256   2.461   6.777 -0.6397  0.1725  1.5034
 7933SOL    HW235019   9.129   2.541   6.711 -0.7127 -1.0213  0.1861
 7934SOL     OW35020   8.498   3.934   0.320  0.0557 -0.4721 -0.3409
 7934SOL    HW135021   8.545   3.871   0.258 -0.6935 -1.9632  0.5709
 7934SOL    HW235022   8.477   4.019   0.272  0.7150 -1.0691 -1.7139
 7935SOL     OW35023   6.912   0.855   4.574 -0.1907  0.3844 -0.0289
 7935SOL    HW135024   6.819   0.819   4.578  0.0618 -0.1785  1.0648
 7935SOL    HW235025   6.957   0.840   4.662 -0.0987  3.4595  0.5208
 7936SOL     OW35026   8.755   9.237   6.395 -0.1039  0.1106  0.1727
 7936SOL    HW135027   8.658   9.255   6.377 -0.5292 -1.4157  0.8337
 7936SOL    HW235028   8.807   9.322   6.390 -1.6224  1.0706  0.6370
 7937SOL     OW35029   7.892   6.522   0.425  0.4891 -0.4290 -0.2651
 7937SOL    HW135030   7.879   6.424   0.438 -0.5235 -0.7375 -3.0737
 7937SOL    HW235031   7.856   6.548   0.335  0.0539  2.6553  0.7434
 7938SOL     OW35032   8.806   5.464   2.997 -0.8478  0.3909  0.4324
 7938SOL    HW135033   8.805   5.563   3.008  1.5779  0.9006 -3.0253
 7938SOL    HW235034   8.853   5.422   3.074  2.3067  2.3818 -0.3041
 7939SOL     OW35035   9.616   7.806   5.958  0.2364  0.6597  0.6096
 7939SOL    HW135036   9.541   7.757   6.003 -0.0378  1.6504  1.2260
 7939SOL    HW235037   9.604   7.904   5.969  0.3344  0.9045 -1.3712
 7940SOL     OW35038   7.578   0.594   4.318  0.3054  0.6700  0.3640
 7940SOL    HW135039   7.628   0.592   4.231  1.3925 -2.7051  0.9719
 7940SOL    HW235040   7.644   0.593   4.394 -0.6435  1.0140  1.2051
 7941SOL     OW35041   5.628   0.084   6.257 -0.4626 -0.0089  0.1301
 7941SOL    HW135042   5.665   0.113   6.169 -0.6548 -1.2013 -0.3518
 7941SOL    HW235043   5.696   0.098   6.328  0.6353 -1.3873 -0.6131
 7942SOL     OW35044   2.493   6.284   0.945 -0.1537 -0.0693  0.3528
 7942SOL    HW135045   2.583   6.255   0.913 -1.0038 -2.0018 -0.3919
 7942SOL    HW235046   2.487   6.272   1.044  0.0653 -0.9644  0.2637
 7943SOL     OW35047   2.545   0.990   5.066  0.1451  0.8904  0.2640
 7943SOL    HW135048   2.475   0.922   5.086 -0.1521  1.1250  0.0308
 7943SOL    HW235049   2.604   0.957   4.992  1.6395 -0.2529  1.9254
 7944SOL     OW35050   0.300   0.281   2.478 -0.4920 -0.5014 -0.4027
 7944SOL    HW135051   0.335   0.190   2.502  1.2790  0.3670  0.3720
 7944SOL    HW235052   0.322   0.301   2.383  1.0939  0.0136  0.0615
 7945SOL     OW35053   7.275   0.286   2.797  0.2289  0.6795  0.1362
 7945SOL    HW135054   7.193   0.341   2.783 -0.1299 -0.0955 -0.7892
 7945SOL    HW235055   7.335   0.294   2.718 -0.2824 -1.0575 -0.4299
 7946SOL     OW35056   3.699   8.870   1.741 -0.5011 -0.4249  0.4731
 7946SOL    HW135057   3.725   8.966   1.729  1.5398 -1.0799 -0.6619
 7946SOL    HW235058   3.621   8.849   1.683 -1.3406  0.6934  1.1866
 7947SOL     OW35059   2.395   4.553   0.429 -0.4805 -0.2096  0.1285
 7947SOL    HW135060   2.444   4.575   0.345 -2.8574  1.1582 -0.9510
 7947SOL    HW235061   2.422   4.462   0.461 -1.1205 -1.6828 -3.3431
 7948SOL     OW35062   0.543   3.347   4.501 -0.2071  0.1639  0.1557
 7948SOL    HW135063   0.535   3.282   4.577 -1.8415  2.1599  1.7516
 7948SOL    HW235064   0.627   3.400   4.511 -1.2092  1.5404  1.5209
 7949SOL     OW35065   1.162   2.476   0.818  0.3636 -0.0984 -0.3525
 7949SOL    HW135066   1.144   2.554   0.757  0.5441 -0.8182 -1.3292
 7949SOL    HW235067   1.076   2.426   0.834  0.4811 -0.4240 -0.7311
 7950SOL     OW35068   4.830   1.433   5.615  0.5786 -0.3903  0.4268
 7950SOL    HW135069   4.763   1.431   5.689  0.0643 -1.3223 -0.0523
 7950SOL    HW235070   4.841   1.527   5.581  0.6569 -0.0012  1.5283
 7951SOL     OW35071   1.599   7.898   4.536 -0.2946 -0.7134 -0.0112
 7951SOL    HW135072   1.642   7.872   4.450 -0.9460 -0.3469 -0.4528
 7951SOL    HW235073   1.566   7.816   4.583  0.1117 -0.9185 -0.0810
 7952SOL     OW35074   8.725   3.257   4.246 -0.3904  0.5025 -0.3547
 7952SOL    HW135075   8.793   3.183   4.249  1.0476  1.8456  2.5533
 7952SOL    HW235076   8.668   3.251   4.328  1.1087  3.8315  0.9996
 7953SOL     OW35077   3.294   0.073   3.911  0.2829  0.2433 -0.4058
 7953SOL    HW135078   3.228   0.039   3.844 -1.3301 -0.0528  1.2624
 7953SOL    HW235079   3.277   0.170   3.928 -1.3659 -0.3829  1.7934
 7954SOL     OW35080   4.514   9.970   3.272 -0.2502  0.3175 -0.2654
 7954SOL    HW135081   4.573   9.918   3.333 -2.5625 -1.7909  0.2512
 7954SOL    HW235082   4.474   9.909   3.203 -3.1909  1.3145  0.4699
 7955SOL     OW35083   8.466   8.746   5.228 -0.5946 -0.0021 -0.4061
 7955SOL    HW135084   8.380   8.697   5.212  0.0891 -0.9602 -1.2004
 7955SOL    HW235085   8.508   8.770   5.140  0.8405 -1.1117 -0.0394
 7956SOL     OW35086   3.516   2.412   4.921  0.2525  0.4213  0.2308
 7956SOL    HW135087   3.439   2.442   4.978 -2.1507 -1.3188 -1.9449
 7956SOL    HW235088   3.552   2.326   4.956 -0.1934  0.1648  0.0700
 7957SOL     OW35089   1.818   2.448   4.519  0.1086  0.1833 -0.3624
 7957SOL    HW135090   1.736   2.478   4.470 -0.7274  0.5687  1.2061
 7957SOL    HW235091   1.827   2.501   4.604  0.1034 -2.1344  1.1449
 7958SOL     OW35092   4.510   5.618   0.085  0.1192 -0.1114  0.3673
 7958SOL    HW135093   4.497   5.550   0.157 -0.2740  0.7302  1.1037
 7958SOL    HW235094   4.426   5.625   0.030 -0.1688  0.4322  0.8684
 7959SOL     OW35095   4.398   9.207   0.924 -0.2717  0.4804 -0.2333
 7959SOL    HW135096   4.493   9.190   0.950 -0.2305 -0.9498 -1.2727
 7959SOL    HW235097   4.352   9.257   0.997  0.4134 -1.5984  1.6729
 7960SOL     OW35098   8.861   3.631   4.699  0.0134 -0.1296 -0.0772
 7960SOL    HW135099   8.920   3.684   4.760 -0.6077 -1.0542  1.3735
 7960SOL    HW235100   8.777   3.682   4.682 -1.0715 -1.0682  2.2240
 7961SOL     OW35101   2.283   8.678   5.479  0.1378 -0.6524  0.1071
 7961SOL    HW135102   2.372   8.717   5.501  0.0955 -1.2519  1.4009
 7961SOL    HW235103   2.277   8.585   5.516 -0.9207 -0.7321 -0.2285
 7962SOL     OW35104   6.644   9.115   7.225 -0.1873 -0.4114  0.6769
 7962SOL    HW135105   6.565   9.102   7.165  0.9355 -2.2175 -0.4392
 7962SOL    HW235106   6.652   9.037   7.287  0.9556 -0.4245  0.5187
 7963SOL     OW35107   1.585   7.173   0.311 -0.3269 -0.4240 -0.0154
 7963SOL    HW135108   1.570   7.268   0.284 -0.0055  0.1743  1.8421
 7963SOL    HW235109   1.513   7.145   0.376 -0.7951 -1.6585 -1.0498
 7964SOL     OW35110   1.833   7.072   5.911  0.5144  0.4793 -0.4704
 7964SOL    HW135111   1.815   7.057   5.814 -0.5941  0.5914 -0.2938
 7964SOL    HW235112   1.750   7.052   5.963  1.2193  0.0338  0.4939
 7965SOL     OW35113   2.417   3.545   3.134  0.1742  0.0519  0.5946
 7965SOL    HW135114   2.490   3.599   3.091  1.0713 -2.2149 -0.8136
 7965SOL    HW235115   2.333   3.599   3.135  0.1367  0.2959 -3.9630
 7966SOL     OW35116   8.125   7.818   2.822  0.0910 -0.5732 -0.2106
 7966SOL    HW135117   8.159   7.874   2.898 -1.3822 -0.6951  0.5687
 7966SOL    HW235118   8.086   7.733   2.859 -0.7795 -0.5612 -1.0866
 7967SOL     OW35119   7.052   8.941   4.437 -0.8574 -0.4378 -0.2307
 7967SOL    HW135120   7.025   9.016   4.497  0.4134 -0.5966  0.5517
 7967SOL    HW235121   6.973   8.883   4.418 -1.6315  0.5433 -0.0541
 7968SOL     OW35122   6.717   7.626   4.496 -0.0555  0.3108 -0.0429
 7968SOL    HW135123   6.681   7.667   4.412 -1.0616 -1.7709 -0.6500
 7968SOL    HW235124   6.641   7.600   4.556  0.6176  0.4796  0.9022
 7969SOL     OW35125   9.721   1.100   1.743 -0.6598 -0.4730 -0.3308
 7969SOL    HW135126   9.784   1.039   1.694  0.4231  1.2273 -1.0954
 7969SOL    HW235127   9.627   1.079   1.715 -0.4545 -2.8912  0.6690
 7970SOL     OW35128   9.938   8.712   3.155 -0.7327 -0.2036  0.3491
 7970SOL    HW135129  10.010   8.758   3.208 -1.4641  1.4938 -0.0891
 7970SOL    HW235130   9.867   8.679   3.216  0.4206 -1.9404  0.7930
 7971SOL     OW35131   8.072   6.934   5.653 -0.4755 -0.0579  0.3391
 7971SOL    HW135132   8.146   6.928   5.720 -0.8272 -1.6159  0.6126
 7971SOL    HW235133   8.085   7.015   5.595  1.0685  0.0407  0.8087
 7972SOL     OW35134   4.644   4.991   8.076 -0.0819 -0.4197 -0.7009
 7972SOL    HW135135   4.653   4.895   8.104 -1.7453  0.8347  4.7930
 7972SOL    HW235136   4.547   5.011   8.059 -0.2928  1.1024  1.9611
 7973SOL     OW35137   6.068   1.811   7.874  0.6193  0.0850 -0.3803
 7973SOL    HW135138   6.160   1.777   7.891  0.7496  0.8434  0.4422
 7973SOL    HW235139   6.002   1.736   7.887  1.0170 -0.1801  0.1162
 7974SOL     OW35140   4.300   4.519   3.636  0.2286  0.0354  0.1709
 7974SOL    HW135141   4.385   4.473   3.663 -1.0922 -0.2451  4.0886
 7974SOL    HW235142   4.222   4.470   3.675 -1.5072  2.5589 -0.0440
 7975SOL     OW35143   4.209   0.277   6.438  0.7171 -0.3424 -0.3232
 7975SOL    HW135144   4.295   0.315   6.472  0.2569 -0.1378  0.6597
 7975SOL    HW235145   4.136   0.297   6.504 -0.0762 -0.5344 -1.1301
 7976SOL     OW35146   3.506   9.408   5.246 -0.2902 -0.4320 -0.1473
 7976SOL    HW135147   3.594   9.455   5.260 -2.2065  2.9441  1.3999
 7976SOL    HW235148   3.455   9.454   5.173 -1.0200 -2.0180 -0.6618
 7977SOL     OW35149   2.401   7.071   0.477 -0.2608 -0.0009 -1.0201
 7977SOL    HW135150   2.444   6.980   0.482 -0.6371 -0.2002 -1.4225
 7977SOL    HW235151   2.464   7.135   0.434  0.6009  0.2840  0.6194
 7978SOL     OW35152   1.281   6.937   5.937 -0.0234 -0.3540 -0.0335
 7978SOL    HW135153   1.205   6.992   5.903  0.8731  1.2525  0.4843
 7978SOL    HW235154   1.249   6.873   6.006 -0.7909  0.8212  0.7113
 7979SOL     OW35155   3.960   7.818   2.618  0.5619  0.3192  0.3248
 7979SOL    HW135156   3.997   7.891   2.674  0.2870  0.7767 -0.0854
 7979SOL    HW235157   4.031   7.750   2.599  0.9864  0.8096  0.1705
 7980SOL     OW35158   9.888   8.918   5.301  0.3497 -0.0802  0.1803
 7980SOL    HW135159   9.947   8.999   5.294 -1.0006  0.8896 -0.0587
 7980SOL    HW235160   9.942   8.842   5.338  1.5726  0.9793  0.6528
 7981SOL     OW35161   5.400   0.723   6.055  0.0563  0.1999  0.8877
 7981SOL    HW135162   5.444   0.642   6.093  1.4753  0.2736 -0.5221
 7981SOL    HW235163   5.441   0.745   5.966 -1.1258  1.7667  0.6911
 7982SOL     OW35164   3.390   4.912   0.559 -0.2619  0.1213  0.0762
 7982SOL    HW135165   3.378   4.990   0.498  0.2509 -0.9306 -1.4073
 7982SOL    HW235166   3.488   4.895   0.572 -0.3693 -0.4147  0.1831
 7983SOL     OW35167   9.868   7.961   6.458 -0.0273  0.4163  0.0012
 7983SOL    HW135168   9.834   7.948   6.552  1.3527  2.5670  0.8366
 7983SOL    HW235169   9.792   7.951   6.394 -1.2169  0.0378  1.4347
 7984SOL     OW35170   6.815   4.970   8.181  0.5204  0.4956 -0.3392
 7984SOL    HW135171   6.810   4.873   8.156  2.6769  0.5170 -0.9908
 7984SOL    HW235172   6.908   5.003   8.167 -0.2711  2.7723 -0.4601
 7985SOL     OW35173   4.500   9.518   1.446 -0.1264  0.3009 -0.1876
 7985SOL    HW135174   4.400   9.512   1.449 -0.0777 -1.7717 -1.2161
 7985SOL    HW235175   4.539   9.438   1.492  1.0530  0.9195 -0.0982
 7986SOL     OW35176   7.794   2.587   0.338  0.0605  0.3856  0.0794
 7986SOL    HW135177   7.738   2.668   0.355 -0.1202  0.5129 -1.0572
 7986SOL    HW235178   7.883   2.614   0.300  0.3507  0.1082  0.5597
 7987SOL     OW35179   6.756   0.867   8.152 -0.0937  0.7051  0.1071
 7987SOL    HW135180   6.682   0.930   8.127  0.3846  1.2318  0.0044
 7987SOL    HW235181   6.812   0.849   8.071  0.5472  1.1859  0.4487
 7988SOL     OW35182   4.424   9.191   5.571  0.9302 -0.7205  0.5002
 7988SOL    HW135183   4.327   9.205   5.589  0.4980 -0.8683 -1.6653
 7988SOL    HW235184   4.450   9.098   5.596  0.2374 -1.0686 -0.0606
 7989SOL     OW35185   3.345   7.242   5.699  0.2307  0.4152 -0.2455
 7989SOL    HW135186   3.273   7.188   5.657 -1.5551  1.9860  0.6952
 7989SOL    HW235187   3.389   7.189   5.771 -0.0732 -0.5092 -0.7348
 7990SOL     OW35188   8.486   8.383   4.910  0.8229 -0.0959  0.4926
 7990SOL    HW135189   8.526   8.291   4.909  1.7087  0.2890 -1.8196
 7990SOL    HW235190   8.538   8.443   4.850  0.5265  2.0798  2.3222
 7991SOL     OW35191   2.298   9.149   3.348  0.1984 -0.2964  0.3492
 7991SOL    HW135192   2.331   9.225   3.292  1.4665 -0.4908  0.8350
 7991SOL    HW235193   2.300   9.174   3.444 -1.7461 -0.0593  0.3536
 7992SOL     OW35194   4.524   2.764   1.286 -0.3862  0.3915  0.3271
 7992SOL    HW135195   4.498   2.836   1.222  0.3639  0.1325 -0.2901
 7992SOL    HW235196   4.619   2.736   1.267 -0.5351 -0.4666  0.8177
 7993SOL     OW35197   7.650   2.889   0.740  0.2231 -0.3370  0.1453
 7993SOL    HW135198   7.656   2.812   0.803  0.0656  1.5651  2.5706
 7993SOL    HW235199   7.609   2.968   0.787 -0.3445  1.0036 -2.4803
 7994SOL     OW35200   5.549   9.322   4.326  0.5186 -0.3525 -0.3004
 7994SOL    HW135201   5.531   9.233   4.283  1.2723 -0.0961 -1.1757
 7994SOL    HW235202   5.641   9.352   4.301  0.1782  0.7809 -0.1969
 7995SOL     OW35203   7.912   6.872   0.835 -0.4689  0.3187  0.4615
 7995SOL    HW135204   7.907   6.951   0.773  1.4854 -0.4730 -0.7665
 7995SOL    HW235205   7.916   6.788   0.781 -1.9210 -0.5972  1.7462
 7996SOL     OW35206   0.781   1.705   5.524 -0.4126 -0.2333  0.1546
 7996SOL    HW135207   0.799   1.723   5.621  0.6372  0.0700 -0.0924
 7996SOL    HW235208   0.700   1.756   5.495  1.0507  2.1291  0.1040
 7997SOL     OW35209   9.513   0.584   6.088  0.2232 -0.0021 -0.3690
 7997SOL    HW135210   9.528   0.619   5.995 -0.7677  0.0732 -0.5068
 7997SOL    HW235211   9.573   0.632   6.152 -1.2993  2.1785 -0.5143
 7998SOL     OW35212   8.943   1.274   4.268 -0.3536  0.1421  0.7477
 7998SOL    HW135213   8.946   1.279   4.168 -1.0967 -0.8585  0.6752
 7998SOL    HW235214   8.877   1.340   4.303 -0.8403 -0.2230  0.5182
 7999SOL     OW35215   6.597   1.484   3.566  0.0396  0.0414  0.6706
 7999SOL    HW135216   6.519   1.492   3.503  0.6732 -1.0069 -0.2665
 7999SOL    HW235217   6.653   1.567   3.560 -0.0223  0.0396  0.0178
 8000SOL     OW35218   1.328   0.015   5.871  0.0808  0.4184  0.2314
 8000SOL    HW135219   1.425   0.032   5.858  0.2984 -0.7470  0.2360
 8000SOL    HW235220   1.314  -0.082   5.894 -1.2588  0.1385 -1.6747
 8001SOL     OW35221   1.783   4.300   0.655 -0.9290 -0.2184 -0.2938
 8001SOL    HW135222   1.684   4.310   0.668 -0.7772  0.9619  0.0027
 8001SOL    HW235223   1.821   4.386   0.622  0.0360 -0.5982 -0.1818
 8002SOL     OW35224   2.745   3.369   4.766 -0.3671 -0.4488 -0.0740
 8002SOL    HW135225   2.838   3.405   4.755  0.3257 -2.6494 -1.6745
 8002SOL    HW235226   2.684   3.416   4.703 -0.4961  1.4483  1.4196
 8003SOL     OW35227   8.892   1.062   4.434  0.2129 -0.0568  0.0352
 8003SOL    HW135228   8.904   1.118   4.353  2.5091 -0.7300 -0.1312
 8003SOL    HW235229   8.900   1.120   4.516 -3.6989  0.9040 -0.1727
 8004SOL     OW35230   2.380   3.217   3.804  0.0323 -0.5740  0.3893
 8004SOL    HW135231   2.345   3.284   3.871  0.6702 -0.9793  1.1390
 8004SOL    HW235232   2.371   3.125   3.842  0.8049 -0.7699  0.0977
 8005SOL     OW35233   0.422   9.978   3.596  0.1514 -0.4191  0.6211
 8005SOL    HW135234   0.452   9.892   3.555 -1.5616 -1.5163  1.5782
 8005SOL    HW235235   0.448   9.980   3.693  0.4216  0.2642  0.5369
 8006SOL     OW35236   2.738   1.811   1.267  0.0031  1.0391 -0.1138
 8006SOL    HW135237   2.655   1.784   1.316  0.8211  1.7292  1.6712
 8006SOL    HW235238   2.766   1.902   1.296  3.0403 -0.3383  1.5054
 8007SOL     OW35239   8.373   6.505   3.660  0.1970 -0.3971 -0.0517
 8007SOL    HW135240   8.345   6.445   3.585 -0.6914 -1.2058  0.9079
 8007SOL    HW235241   8.307   6.580   3.668 -0.9298 -1.4880  1.2619
 8008SOL     OW35242   2.107   0.224   3.289  0.2704 -0.4864  0.0954
 8008SOL    HW135243   2.201   0.212   3.256  0.0345  0.1333 -0.8125
 8008SOL    HW235244   2.096   0.174   3.375  0.7260 -2.5813 -1.0242
 8009SOL     OW35245   0.349   8.762   1.379  0.0238 -0.1019  1.0238
 8009SOL    HW135246   0.278   8.822   1.415  0.2963 -0.6224  2.4502
 8009SOL    HW235247   0.423   8.753   1.446  1.0864 -0.1594 -0.1381
 8010SOL     OW35248   3.890   8.987   5.465 -0.1125  0.4951  0.2100
 8010SOL    HW135249   3.886   9.007   5.563  0.8936 -1.5498  0.7013
 8010SOL    HW235250   3.984   8.962   5.440 -0.7152 -0.6844 -0.9312
 8011SOL     OW35251   4.793   1.041   1.138 -0.1660  0.0054  0.4165
 8011SOL    HW135252   4.823   1.016   1.231  1.3991 -0.4111 -0.1862
 8011SOL    HW235253   4.826   1.133   1.117  0.6722 -0.4275 -0.2213
 8012SOL     OW35254   7.989   6.932   3.701 -0.1046 -0.3357 -0.2788
 8012SOL    HW135255   8.032   6.875   3.772 -0.2051 -2.2919 -1.7223
 8012SOL    HW235256   8.042   7.016   3.690 -0.4719  0.3456  2.5613
 8013SOL     OW35257   7.337   9.919   3.644 -0.7347 -0.2294  0.5963
 8013SOL    HW135258   7.319   9.848   3.712 -1.1525 -0.3369  0.3719
 8013SOL    HW235259   7.285  10.001   3.667 -2.9205 -1.1204 -1.0364
 8014SOL     OW35260   3.830   9.500   6.333 -0.2882  1.0117 -0.2845
 8014SOL    HW135261   3.884   9.567   6.384 -1.0472  2.1937 -1.0341
 8014SOL    HW235262   3.809   9.422   6.392  0.4382  1.5138  0.6398
 8015SOL     OW35263   6.723   5.703   0.855  0.1893  0.2216 -0.0821
 8015SOL    HW135264   6.713   5.773   0.925 -1.7315  0.1452 -0.2257
 8015SOL    HW235265   6.651   5.635   0.867  0.9383 -0.7450 -1.0448
 8016SOL     OW35266   1.836   6.883   3.819 -0.3247 -0.2215 -0.3586
 8016SOL    HW135267   1.753   6.936   3.798 -0.5589  0.1317  1.3830
 8016SOL    HW235268   1.884   6.863   3.734 -0.3214  2.6538 -1.1027
 8017SOL     OW35269   2.128   7.754   6.255 -0.1677  0.0890 -0.7139
 8017SOL    HW135270   2.203   7.792   6.201  0.3348 -1.5259 -1.1776
 8017SOL    HW235271   2.100   7.820   6.325  1.5222  0.7957 -0.6954
 8018SOL     OW35272   5.794   9.252   3.641 -0.1585  0.2368  0.2469
 8018SOL    HW135273   5.789   9.153   3.630 -1.6620  0.1457  1.6305
 8018SOL    HW235274   5.718   9.296   3.593 -0.3788  0.6011  0.9168
 8019SOL     OW35275   3.152   3.590   2.593  0.0786 -0.1082  0.4611
 8019SOL    HW135276   3.081   3.547   2.538 -1.6118  0.4975  2.1042
 8019SOL    HW235277   3.241   3.550   2.570 -1.1137 -2.7076  0.1476
 8020SOL     OW35278   5.205   2.519   5.412  0.0408 -0.0341  0.0733
 8020SOL    HW135279   5.211   2.523   5.512 -0.4290 -1.5262  0.1772
 8020SOL    HW235280   5.277   2.459   5.377  2.1307  2.8571 -0.7434
 8021SOL     OW35281   8.129   7.480   2.028 -0.2919 -0.3692  0.1062
 8021SOL    HW135282   8.123   7.577   2.051 -1.6695 -0.2617 -0.6912
 8021SOL    HW235283   8.085   7.463   1.940  0.4040 -1.6364 -0.0173
 8022SOL     OW35284   9.561   7.150   5.819  0.5405  0.9955  0.7181
 8022SOL    HW135285   9.589   7.215   5.890 -0.8819  2.2220  0.2003
 8022SOL    HW235286   9.558   7.197   5.731  0.2934  0.0003  0.1868
 8023SOL     OW35287   2.714   7.019   2.304  0.9215 -0.1872  0.1321
 8023SOL    HW135288   2.792   6.999   2.244 -0.1521 -0.5068 -1.1981
 8023SOL    HW235289   2.713   6.954   2.380  1.5962 -0.5823 -0.1901
 8024SOL     OW35290   0.672   6.480   1.175 -0.5456 -0.5149 -0.0280
 8024SOL    HW135291   0.584   6.494   1.130  0.0781  1.3313 -0.7446
 8024SOL    HW235292   0.678   6.387   1.210 -2.2694 -1.0340 -1.0839
 8025SOL     OW35293   7.050   0.648   5.204 -0.3754  0.0876  0.0308
 8025SOL    HW135294   7.086   0.718   5.265 -1.6318  0.8849 -0.1198
 8025SOL    HW235295   7.113   0.634   5.128  0.5268  0.0850  0.7665
 8026SOL     OW35296   2.372   9.660   2.950 -0.0426  0.0630  0.2298
 8026SOL    HW135297   2.301   9.714   2.905 -0.7054 -1.2465 -0.3218
 8026SOL    HW235298   2.351   9.563   2.939  2.4250 -0.3633 -0.8817
 8027SOL     OW35299   9.677   9.095   1.533  0.5915 -0.0651 -0.2467
 8027SOL    HW135300   9.739   9.021   1.510 -0.4264 -0.9953 -0.0679
 8027SOL    HW235301   9.721   9.158   1.598  1.6611 -0.1926 -0.8529
 8028SOL     OW35302   3.226   7.758   3.409  0.0575  0.1817 -0.2694
 8028SOL    HW135303   3.274   7.736   3.324  0.5865  0.0823  0.0556
 8028SOL    HW235304   3.289   7.752   3.486  0.0292  2.0396 -0.0763
 8029SOL     OW35305   6.999   0.303   4.356  0.1206 -0.4945 -0.3579
 8029SOL    HW135306   7.056   0.378   4.391 -1.0706 -1.5852  4.2396
 8029SOL    HW235307   6.921   0.341   4.306  1.4787  1.2005 -1.2300
 8030SOL     OW35308   8.611   7.081   1.673  0.4721  0.0532 -0.2065
 8030SOL    HW135309   8.535   7.138   1.706 -0.0993 -0.8650  0.0887
 8030SOL    HW235310   8.680   7.139   1.630  0.8937  1.2208  1.9376
 8031SOL     OW35311   2.272   8.944   6.036 -0.1072  0.4051  0.6459
 8031SOL    HW135312   2.224   8.994   5.963  1.5305  2.6982  1.0881
 8031SOL    HW235313   2.366   8.979   6.043  0.9139 -2.4108  1.3403
 8032SOL     OW35314   0.981   0.633   4.498  0.1550 -0.9381 -0.3682
 8032SOL    HW135315   0.942   0.543   4.479 -1.0307 -0.8831  1.6088
 8032SOL    HW235316   1.079   0.624   4.516 -0.0066 -1.8814  0.0841
 8033SOL     OW35317   3.311   1.558   2.671 -0.0792  0.1533 -0.2384
 8033SOL    HW135318   3.378   1.595   2.735  0.1154 -0.0591 -0.3144
 8033SOL    HW235319   3.357   1.537   2.584 -0.3238  0.3653 -0.4194
 8034SOL     OW35320   8.250   8.475   2.078 -0.0117 -0.1945 -0.2191
 8034SOL    HW135321   8.271   8.553   2.137  0.4385 -2.4187  2.6676
 8034SOL    HW235322   8.238   8.393   2.133 -0.2303 -2.2732 -3.2006
 8035SOL     OW35323   6.894   2.410   3.334 -0.1611  0.3393  0.0330
 8035SOL    HW135324   6.862   2.323   3.372 -0.2069  0.3748  0.0747
 8035SOL    HW235325   6.893   2.480   3.405  0.5241  0.2109  0.1734
 8036SOL     OW35326   8.038   8.683   3.080 -0.4829  0.4020 -0.3475
 8036SOL    HW135327   8.091   8.626   3.143 -0.7488  0.8335  0.2698
 8036SOL    HW235328   8.055   8.653   2.986 -1.5109 -1.4380  0.0348
 8037SOL     OW35329   2.522   3.129   2.347 -0.0736  0.0168 -0.1210
 8037SOL    HW135330   2.499   3.222   2.377  0.7860  0.1035  0.2818
 8037SOL    HW235331   2.471   3.063   2.402  1.1134  0.1918  1.2089
 8038SOL     OW35332   7.781   2.612   1.156 -0.2943  0.0700 -0.3021
 8038SOL    HW135333   7.880   2.613   1.145 -0.3681  0.8574 -0.9177
 8038SOL    HW235334   7.743   2.535   1.105  0.2521 -1.9283  2.2226
 8039SOL     OW35335   9.848   0.919   5.424  0.3169  0.6522  0.0031
 8039SOL    HW135336   9.919   0.988   5.409 -0.8950  1.8390 -0.3637
 8039SOL    HW235337   9.831   0.870   5.338 -0.3173  1.3529 -0.2756
 8040SOL     OW35338   0.744   4.922   4.013  0.8347  0.1295  0.2486
 8040SOL    HW135339   0.741   4.823   4.029  0.8246  0.2182  0.7728
 8040SOL    HW235340   0.753   4.970   4.100  1.8823  0.5440 -0.0900
 8041SOL     OW35341   7.722   7.535   2.834  0.3260 -0.0716  0.5438
 8041SOL    HW135342   7.716   7.595   2.914 -0.9840 -2.3936  2.2315
 8041SOL    HW235343   7.760   7.447   2.861 -1.3000 -1.3262 -1.1323
 8042SOL     OW35344   8.349   8.642   4.081  0.6210 -0.0110 -0.2871
 8042SOL    HW135345   8.307   8.551   4.068  1.7451 -0.5339 -0.3152
 8042SOL    HW235346   8.289   8.712   4.042 -1.1144 -0.5646  1.3382
 8043SOL     OW35347   2.714   0.393   0.452 -0.0276  0.2227 -0.0123
 8043SOL    HW135348   2.755   0.305   0.474 -1.0397 -0.0848  0.6988
 8043SOL    HW235349   2.647   0.382   0.379  0.3942  0.5326 -0.4435
 8044SOL     OW35350   8.447   8.851   5.790 -0.4215 -0.4219 -0.0835
 8044SOL    HW135351   8.492   8.902   5.863  0.7330  0.6833 -1.5323
 8044SOL    HW235352   8.348   8.865   5.796 -0.0309  3.4527 -1.4727
 8045SOL     OW35353   9.623   4.016   6.039 -0.2218  0.2918  0.0882
 8045SOL    HW135354   9.553   3.945   6.046 -0.2797  0.3033 -0.3707
 8045SOL    HW235355   9.605   4.087   6.108  0.4743 -0.6770  1.2864
 8046SOL     OW35356   2.530   2.706   3.510 -0.4024  0.2855 -0.4751
 8046SOL    HW135357   2.540   2.607   3.516 -0.6294  0.3314  0.6770
 8046SOL    HW235358   2.434   2.730   3.501 -0.5746  0.5167  1.7500
 8047SOL     OW35359   7.417   2.161   1.820  0.6529  0.1872 -0.0631
 8047SOL    HW135360   7.422   2.096   1.744  1.0607  0.0610  0.0708
 8047SOL    HW235361   7.365   2.242   1.791  0.2352 -0.1528 -0.2602
 8048SOL     OW35362   8.884   2.189   1.536 -0.2942 -0.4415  0.1969
 8048SOL    HW135363   8.829   2.210   1.455  0.0454  1.4077  0.4316
 8048SOL    HW235364   8.850   2.241   1.614  3.8487  3.4628 -0.4160
 8049SOL     OW35365   4.270   7.381   2.100 -0.0375  0.2620 -0.1600
 8049SOL    HW135366   4.349   7.438   2.125 -0.0507  0.5313 -0.7359
 8049SOL    HW235367   4.202   7.384   2.174  0.2043  0.5472  0.0521
 8050SOL     OW35368   2.497   4.149   3.861  0.1913  0.0222  0.7145
 8050SOL    HW135369   2.550   4.117   3.782  2.3397  2.5484  1.0465
 8050SOL    HW235370   2.458   4.238   3.840  0.4548  0.5280  2.3454
 8051SOL     OW35371   9.481   2.755   6.672  0.0118  0.2025  0.2233
 8051SOL    HW135372   9.551   2.696   6.712  0.6687  1.2865  0.6843
 8051SOL    HW235373   9.393   2.735   6.716  0.3909  0.1687  0.9879
 8052SOL     OW35374   0.160   0.651   1.885  0.4928 -0.2192  0.0753
 8052SOL    HW135375   0.256   0.675   1.871  0.3566  0.2578 -0.0371
 8052SOL    HW235376   0.149   0.609   1.975  0.3739  2.0821  1.1551
 8053SOL     OW35377   3.159   7.561   0.705  0.3083 -0.0533  0.0309
 8053SOL    HW135378   3.244   7.512   0.690  0.3121 -0.9213  2.6660
 8053SOL    HW235379   3.121   7.589   0.617  2.8849 -0.3416 -1.2233
 8054SOL     OW35380   4.408   7.601   2.144 -0.8327  0.0818 -0.3130
 8054SOL    HW135381   4.364   7.639   2.225 -0.6734  0.6793 -0.5017
 8054SOL    HW235382   4.496   7.648   2.128 -1.4233  0.8173 -1.5117
 8055SOL     OW35383   7.936   4.822   3.000  0.0773 -0.2927  0.2189
 8055SOL    HW135384   7.970   4.763   2.928 -0.3406  0.2481 -0.4297
 8055SOL    HW235385   7.842   4.796   3.024 -0.6409  1.0115 -1.0866
 8056SOL     OW35386   7.695   8.933   2.856 -0.6836  0.6351 -0.4567
 8056SOL    HW135387   7.794   8.940   2.846 -0.2816 -1.7898  1.3104
 8056SOL    HW235388   7.661   8.861   2.796 -0.6190 -1.9666  2.4651
 8057SOL     OW35389   0.676   1.527   6.470  0.4750 -0.3076 -0.3079
 8057SOL    HW135390   0.697   1.492   6.562 -1.0776  2.2886  1.1018
 8057SOL    HW235391   0.750   1.503   6.408  2.1060 -1.1598  1.8884
 8058SOL     OW35392   1.483   3.381   0.842 -0.7473 -0.4258 -0.3350
 8058SOL    HW135393   1.393   3.339   0.854 -0.8797 -0.0665 -0.0666
 8058SOL    HW235394   1.552   3.324   0.888 -0.8179 -0.7592 -0.6349
 8059SOL     OW35395   0.834   4.812   4.647  0.7963 -0.4696  0.1745
 8059SOL    HW135396   0.752   4.864   4.624  0.5213 -1.4384 -1.1023
 8059SOL    HW235397   0.811   4.715   4.657  1.2514 -0.3344  2.7721
 8060SOL     OW35398   6.305   8.828   4.396  0.5603  0.4050  0.3206
 8060SOL    HW135399   6.334   8.814   4.301  1.4476  0.2525  0.6092
 8060SOL    HW235400   6.207   8.845   4.399  0.7813  2.0575 -0.8044
 8061SOL     OW35401   4.797   7.372   3.669 -0.3481 -0.5170 -0.0320
 8061SOL    HW135402   4.819   7.390   3.765 -0.5781  1.0666 -0.2601
 8061SOL    HW235403   4.701   7.347   3.660 -0.5481  0.2084  0.0542
 8062SOL     OW35404   2.163   7.002   1.321 -0.3042  0.2816  0.3422
 8062SOL    HW135405   2.239   6.944   1.351 -0.1023  0.1496 -0.4204
 8062SOL    HW235406   2.199   7.083   1.275 -0.6431 -0.5860 -1.4995
 8063SOL     OW35407   7.596   5.198   6.167 -0.6182  0.6025 -0.6599
 8063SOL    HW135408   7.639   5.217   6.078 -0.2047  0.4074 -0.5038
 8063SOL    HW235409   7.617   5.274   6.230 -2.8885  1.9012 -1.4245
 8064SOL     OW35410   2.380   4.847   1.528 -0.1554 -0.0601 -0.6603
 8064SOL    HW135411   2.423   4.936   1.539  0.7760 -0.6120  0.2436
 8064SOL    HW235412   2.356   4.833   1.432  0.1691  0.9367 -0.8936
 8065SOL     OW35413   0.501   9.758   1.579  0.5824 -0.2790  0.4036
 8065SOL    HW135414   0.401   9.761   1.591  0.5694  2.0828 -0.1389
 8065SOL    HW235415   0.527   9.667   1.547 -1.3495 -1.0750  0.9768
 8066SOL     OW35416   2.696   9.192   0.284 -0.0302 -0.3131  0.1151
 8066SOL    HW135417   2.721   9.281   0.324 -1.6586  0.6907 -1.0181
 8066SOL    HW235418   2.753   9.174   0.204 -1.6658  1.1601 -1.4383
 8067SOL     OW35419   0.148   3.649   2.723 -0.1211  0.0461  0.0634
 8067SOL    HW135420   0.062   3.681   2.763  0.3329  2.6287 -0.8846
 8067SOL    HW235421   0.223   3.707   2.755  0.9523 -0.8680 -0.7616
 8068SOL     OW35422   0.365   3.878   1.553 -0.3006 -0.1983 -0.1496
 8068SOL    HW135423   0.451   3.928   1.542  0.0764 -0.8729 -0.2617
 8068SOL    HW235424   0.335   3.883   1.649  0.4628 -0.9431  0.1325
 8069SOL     OW35425   0.103   1.241   1.827  0.8793 -0.7493  0.8678
 8069SOL    HW135426   0.104   1.333   1.866 -1.9715  0.8165 -2.4942
 8069SOL    HW235427   0.188   1.227   1.775  1.6038 -0.3047  1.8964
 8070SOL     OW35428   8.336   8.731   2.499 -0.0207 -0.5106  0.5475
 8070SOL    HW135429   8.410   8.687   2.551 -0.0501  0.0553  1.0726
 8070SOL    HW235430   8.375   8.792   2.430  0.0240 -1.5112 -0.3159
 8071SOL     OW35431   8.072   2.303   1.549 -0.4120  0.4326  0.2789
 8071SOL    HW135432   7.972   2.307   1.540 -0.7488 -2.3612  2.4608
 8071SOL    HW235433   8.105   2.215   1.516  1.2827  1.0026  0.4014
 8072SOL     OW35434   2.105   2.189   2.631  0.3326  0.3084 -0.0532
 8072SOL    HW135435   2.021   2.165   2.582 -0.5224 -2.1461  2.5003
 8072SOL    HW235436   2.182   2.188   2.567 -1.1721  0.0858 -1.9184
 8073SOL     OW35437   1.751   8.017   1.578 -0.4825  0.0801  0.6078
 8073SOL    HW135438   1.829   7.964   1.612  0.6878  0.8295 -0.8496
 8073SOL    HW235439   1.776   8.063   1.493 -2.3813  0.7073  0.3557
 8074SOL     OW35440   1.929   6.625   0.743  0.6748  0.6143  0.2057
 8074SOL    HW135441   1.926   6.722   0.722 -0.2803  0.1411 -2.0590
 8074SOL    HW235442   1.995   6.580   0.681 -0.5758 -0.5087 -0.3448
 8075SOL     OW35443   1.295   4.568   1.673  0.2530  0.3162 -0.8638
 8075SOL    HW135444   1.371   4.512   1.642  0.1968  0.7096 -1.7285
 8075SOL    HW235445   1.282   4.555   1.772 -0.6171 -2.1981 -1.2858
 8076SOL     OW35446   0.218   0.046   5.337  0.0673  0.2783 -0.2300
 8076SOL    HW135447   0.239   0.109   5.412  1.3742  1.0627 -1.2487
 8076SOL    HW235448   0.205  -0.046   5.374  2.0035  0.4041  0.8282
 8077SOL     OW35449   3.413   9.694   4.082  0.3636 -0.1899 -0.2201
 8077SOL    HW135450   3.423   9.627   4.156  1.7378 -0.0565 -0.2736
 8077SOL    HW235451   3.371   9.777   4.118 -0.6071 -0.7748  0.0225
 8078SOL     OW35452   7.723   6.955   4.449  0.1550 -0.1734  0.1560
 8078SOL    HW135453   7.719   6.873   4.393 -0.3582 -0.2083  0.2379
 8078SOL    HW235454   7.689   6.933   4.541 -2.7665  0.8021 -0.6351
 8079SOL     OW35455   2.202   9.263   1.767 -0.5630  0.1879  0.4344
 8079SOL    HW135456   2.173   9.226   1.679 -1.2541 -0.9626  1.1304
 8079SOL    HW235457   2.225   9.359   1.757  0.6362 -0.2552 -1.2881
 8080SOL     OW35458   8.016   5.492   0.662 -0.5605  0.3797  0.3555
 8080SOL    HW135459   7.954   5.489   0.584 -1.2771 -1.4579  0.9659
 8080SOL    HW235460   7.987   5.562   0.727 -0.5825  1.1728 -0.5043
 8081SOL     OW35461   1.251   5.757   5.096 -0.1128  0.2765  0.2229
 8081SOL    HW135462   1.167   5.723   5.138 -0.3949  0.4838 -0.1657
 8081SOL    HW235463   1.311   5.681   5.074 -1.2860 -0.0968 -1.8120
 8082SOL     OW35464   5.914   8.485   3.928 -0.6966  0.1243 -0.1861
 8082SOL    HW135465   5.865   8.413   3.978  2.9549 -2.8310 -0.6882
 8082SOL    HW235466   5.987   8.522   3.986 -0.0972  0.7446 -1.3198
 8083SOL     OW35467   6.325   9.596   4.636 -0.3472  0.1390  0.3810
 8083SOL    HW135468   6.413   9.562   4.602 -0.7054 -1.5560  1.1082
 8083SOL    HW235469   6.333   9.613   4.735 -0.7850  0.1650  0.4094
 8084SOL     OW35470   1.638   0.512   0.561 -0.2241  0.3239 -0.0767
 8084SOL    HW135471   1.692   0.597   0.563 -1.0709  0.8635  0.3760
 8084SOL    HW235472   1.694   0.436   0.593  1.1548  0.3453 -2.2926
 8085SOL     OW35473   2.381   8.379   2.616  0.3509  0.3620  0.2193
 8085SOL    HW135474   2.383   8.479   2.610 -1.0194  0.4645  1.2202
 8085SOL    HW235475   2.417   8.350   2.705  0.0977  0.0103  0.2092
 8086SOL     OW35476   0.093   3.939   3.244  0.0381  0.4171 -0.2785
 8086SOL    HW135477   0.189   3.911   3.241  0.0230  0.4150 -1.1107
 8086SOL    HW235478   0.052   3.910   3.330  0.5682 -0.3308 -0.2734
 8087SOL     OW35479   8.504   2.979   3.635 -0.1795  0.6859  0.1231
 8087SOL    HW135480   8.594   2.990   3.592  0.4343 -3.1380  0.2255
 8087SOL    HW235481   8.507   3.013   3.729  1.1644  0.5797  0.1247
 8088SOL     OW35482   8.109   9.751   2.429 -0.0394  0.6472  1.0629
 8088SOL    HW135483   8.015   9.744   2.461 -0.6629  0.1677 -0.8267
 8088SOL    HW235484   8.145   9.660   2.409 -0.1250  0.9893 -0.8181
 8089SOL     OW35485   7.697   4.853   2.627  0.4017  0.2162  0.6116
 8089SOL    HW135486   7.642   4.910   2.689 -0.3980 -1.1904  1.2339
 8089SOL    HW235487   7.645   4.836   2.543  0.8602  0.8526  0.1992
 8090SOL     OW35488   5.377   2.175   0.623  0.6078  0.3788 -0.0245
 8090SOL    HW135489   5.430   2.131   0.696  0.2583 -0.1420 -0.0797
 8090SOL    HW235490   5.440   2.221   0.560  0.8604  1.4704  1.0112
 8091SOL     OW35491   3.525   9.503   1.094 -0.1452 -0.5441 -0.4322
 8091SOL    HW135492   3.540   9.601   1.107 -2.4200 -0.2184  0.0899
 8091SOL    HW235493   3.428   9.488   1.072  0.4254 -2.5768 -1.6005
 8092SOL     OW35494   5.703   4.739   1.540 -0.4061 -0.0359 -0.4299
 8092SOL    HW135495   5.731   4.746   1.445  1.8058  1.5808  0.2867
 8092SOL    HW235496   5.668   4.646   1.558  2.1632 -1.3781 -2.0453
 8093SOL     OW35497   1.575   6.712   3.610 -0.1389  0.0155 -0.2413
 8093SOL    HW135498   1.556   6.769   3.690 -1.6459 -0.0401 -0.5372
 8093SOL    HW235499   1.666   6.671   3.619  0.0792  0.7418  0.9995
 8094SOL     OW35500   4.428   3.202   4.883 -0.1319  1.3933  0.0150
 8094SOL    HW135501   4.335   3.213   4.917  0.0126  1.7899  0.2834
 8094SOL    HW235502   4.425   3.173   4.788 -0.5486 -1.3058  0.8160
 8095SOL     OW35503   7.881   7.798   3.176  0.0347 -0.1334 -0.0937
 8095SOL    HW135504   7.972   7.765   3.203 -0.6908 -0.0594  2.6446
 8095SOL    HW235505   7.851   7.868   3.241 -1.6536  0.4255 -1.4443
 8096SOL     OW35506   8.383   8.182   1.094  0.5840  0.2157 -0.3568
 8096SOL    HW135507   8.468   8.231   1.113  0.6780  0.6614 -1.8713
 8096SOL    HW235508   8.311   8.214   1.156  1.3670  0.2570  0.5333
 8097SOL     OW35509   4.975   1.198   0.491  0.1842 -0.1633  0.4044
 8097SOL    HW135510   5.008   1.120   0.438  1.2358  1.3830 -1.3072
 8097SOL    HW235511   4.879   1.215   0.470  0.3102 -0.2008 -0.2106
 8098SOL     OW35512   1.257   9.401   0.408 -0.4508 -0.4473 -0.0433
 8098SOL    HW135513   1.313   9.386   0.326  0.5793  0.7347  0.4103
 8098SOL    HW235514   1.203   9.319   0.427  0.4588 -1.3030 -1.0168
 8099SOL     OW35515   0.407   2.627   0.176  0.0764 -0.1936  0.1714
 8099SOL    HW135516   0.486   2.665   0.129  0.2657  2.2859  2.4008
 8099SOL    HW235517   0.421   2.529   0.190  2.5779  0.1261  0.1511
 8100SOL     OW35518   9.893   2.388   0.212  0.7016  0.3311 -0.4760
 8100SOL    HW135519   9.910   2.365   0.308  0.6246 -0.0414 -0.5536
 8100SOL    HW235520   9.812   2.340   0.180  0.8894  0.2397 -0.8130
 8101SOL     OW35521   2.709   1.882   2.177 -0.3307  0.1533  0.4267
 8101SOL    HW135522   2.729   1.827   2.096  0.3272 -0.7850  1.2028
 8101SOL    HW235523   2.663   1.966   2.151  2.8920  1.4690 -1.2486
 8102SOL     OW35524   6.265   1.287   0.311 -0.5760  0.2645 -0.6627
 8102SOL    HW135525   6.185   1.280   0.251  0.2776 -0.3865 -1.7197
 8102SOL    HW235526   6.342   1.326   0.260  0.2996 -0.7584 -0.1425
 8103SOL     OW35527   2.789   2.705   3.272  0.2115  0.0869  0.4116
 8103SOL    HW135528   2.768   2.786   3.326  2.6216  0.0416  1.5143
 8103SOL    HW235529   2.808   2.628   3.333  0.0382 -0.7536 -0.5736
 8104SOL     OW35530   7.942   7.968   0.299  0.3816  0.3830 -0.1525
 8104SOL    HW135531   7.941   8.026   0.380  2.6357  1.0773 -0.5795
 8104SOL    HW235532   7.956   7.873   0.326  0.7489  0.5667  0.3071
 8105SOL     OW35533   3.307   6.643   4.838  0.2478  0.1845 -0.0208
 8105SOL    HW135534   3.300   6.678   4.744  1.0091  0.6900  0.1080
 8105SOL    HW235535   3.335   6.717   4.899 -2.0373  0.3071  0.9239
 8106SOL     OW35536   0.887   5.802   5.240  0.3271 -0.9250  0.0910
 8106SOL    HW135537   0.921   5.858   5.316  0.8165 -1.3116  0.1624
 8106SOL    HW235538   0.821   5.736   5.275 -0.7653  0.0562 -0.1017
 8107SOL     OW35539   4.021   0.777   2.157  0.3508  0.1478  0.4611
 8107SOL    HW135540   3.935   0.795   2.204 -0.0407  1.3635 -0.6629
 8107SOL    HW235541   4.086   0.850   2.179  0.7898 -0.2766  0.5812
 8108SOL     OW35542   5.159   2.176   0.355  0.0163 -0.4734 -0.5139
 8108SOL    HW135543   5.128   2.108   0.288 -0.0165  1.8907 -2.9884
 8108SOL    HW235544   5.083   2.200   0.415 -1.0686  0.1146 -2.0727
 8109SOL     OW35545   2.733   2.167   2.951 -0.3643 -0.0074 -0.1689
 8109SOL    HW135546   2.687   2.170   2.863 -0.7614  1.3971  0.0773
 8109SOL    HW235547   2.761   2.259   2.978 -0.6850 -0.3425  1.4063
 8110SOL     OW35548   6.197   0.244   2.012  0.1035  0.7537 -0.2278
 8110SOL    HW135549   6.257   0.170   2.045  0.2849  0.5460 -1.0179
 8110SOL    HW235550   6.116   0.204   1.970 -0.5105  1.0353  0.6858
 8111SOL     OW35551   2.320   4.692   3.037  0.0194  0.2701  0.0245
 8111SOL    HW135552   2.340   4.705   2.940  0.1531  1.4006  0.1940
 8111SOL    HW235553   2.356   4.769   3.089 -1.2010  0.3296  0.8182
 8112SOL     OW35554   6.826   0.568   5.072  0.2023  0.2623  0.0219
 8112SOL    HW135555   6.905   0.615   5.112  0.9791  0.4420 -1.6810
 8112SOL    HW235556   6.852   0.476   5.046  0.0337  0.5275 -1.1202
 8113SOL     OW35557   9.609   7.824   1.415  0.2789  0.1906 -0.8382
 8113SOL    HW135558   9.705   7.825   1.385  0.2268  0.0329 -1.0108
 8113SOL    HW235559   9.580   7.730   1.431  0.0175  0.2008 -1.2301
 8114SOL     OW35560   7.670   2.683   4.238 -0.2902 -0.0168 -0.6219
 8114SOL    HW135561   7.762   2.663   4.271 -0.3716  1.8204  0.7699
 8114SOL    HW235562   7.675   2.748   4.162 -0.4536  0.0953 -0.5359
 8115SOL     OW35563   8.626   2.547   3.915 -0.4082  0.2963 -0.3433
 8115SOL    HW135564   8.555   2.612   3.945 -0.7049  0.5161 -1.5172
 8115SOL    HW235565   8.604   2.513   3.824  0.7109 -0.0738 -0.4822
 8116SOL     OW35566   7.122   0.652   5.789  0.2894  0.0949  0.2105
 8116SOL    HW135567   7.048   0.596   5.752  0.2589  0.9425 -1.0070
 8116SOL    HW235568   7.084   0.719   5.853  0.1242 -0.1325  0.3512
 8117SOL     OW35569   4.705   9.181   5.541  0.0054  0.2580 -0.4566
 8117SOL    HW135570   4.607   9.194   5.523  0.1458  0.7889 -0.8353
 8117SOL    HW235571   4.720   9.179   5.640 -0.5479 -1.0550 -0.3835
 8118SOL     OW35572   0.927   8.814   2.516 -0.1380  0.2840 -0.0266
 8118SOL    HW135573   0.929   8.862   2.428  0.0901 -0.9116 -0.6928
 8118SOL    HW235574   1.017   8.775   2.534 -0.4211 -0.2036  0.3285
 8119SOL     OW35575   2.304   3.949   5.393  0.3647  0.0921  0.4497
 8119SOL    HW135576   2.240   4.006   5.445 -0.2576  0.3418 -0.5772
 8119SOL    HW235577   2.391   3.997   5.382 -0.1217  0.8133 -0.3188
 8120SOL     OW35578   8.714   0.565   2.579 -0.4213 -0.2755 -0.2544
 8120SOL    HW135579   8.646   0.493   2.568 -0.7650 -0.1294  0.8192
 8120SOL    HW235580   8.706   0.631   2.505 -1.0976 -0.5469 -0.4235
 8121SOL     OW35581   6.600   2.405   5.184 -0.2545  0.1258 -0.4306
 8121SOL    HW135582   6.642   2.441   5.267  0.0784 -1.2820  0.0274
 8121SOL    HW235583   6.520   2.460   5.161  0.4461  1.3648  0.0374
 8122SOL     OW35584   0.935   7.544   0.761 -0.0550  0.2679  0.0661
 8122SOL    HW135585   0.853   7.501   0.797 -0.3974  1.4334  0.7169
 8122SOL    HW235586   0.914   7.639   0.737  0.5712 -0.0235 -1.7218
 8123SOL     OW35587   1.020   3.915   1.543 -0.1521  0.1823 -0.1369
 8123SOL    HW135588   1.023   3.959   1.633  0.9517  0.5946 -0.3572
 8123SOL    HW235589   0.937   3.860   1.535 -1.2289  1.7104  0.3883
 8124SOL     OW35590   8.510   9.922   6.189  0.3859  0.0942  0.4212
 8124SOL    HW135591   8.520  10.015   6.224  2.0874  0.8875 -2.0572
 8124SOL    HW235592   8.429   9.916   6.131  1.2304  0.5268 -0.8370
 8125SOL     OW35593   8.303   0.939   3.433  0.5668 -0.0186 -0.1965
 8125SOL    HW135594   8.359   1.009   3.388 -0.1133  1.5247  1.3433
 8125SOL    HW235595   8.207   0.967   3.433  0.3945 -0.5625  1.1439
 8126SOL     OW35596   7.934   0.298   0.758 -0.6153  0.1171 -0.1570
 8126SOL    HW135597   7.994   0.376   0.739 -1.2310  0.8527  0.8999
 8126SOL    HW235598   7.891   0.310   0.847  0.3256 -2.0943  0.6322
 8127SOL     OW35599   2.141   9.241   0.163  0.1013  0.2407 -0.3303
 8127SOL    HW135600   2.181   9.164   0.114  1.4063 -0.0493  1.1392
 8127SOL    HW235601   2.214   9.298   0.200 -0.8602  1.3482 -0.1179
 8128SOL     OW35602   2.299   6.109   0.866 -0.0456  0.0763 -0.4417
 8128SOL    HW135603   2.215   6.158   0.888 -0.7992 -1.6330  0.5543
 8128SOL    HW235604   2.375   6.174   0.861 -1.1466  1.4347  0.1209
 8129SOL     OW35605   2.495   2.175   5.105 -0.1106  0.1386  0.6200
 8129SOL    HW135606   2.489   2.199   5.202 -0.0679  2.0408  0.1727
 8129SOL    HW235607   2.438   2.238   5.052 -1.8827 -2.2449 -0.3906
 8130SOL     OW35608   3.467   7.710   4.422  0.2053  0.1189  0.2111
 8130SOL    HW135609   3.411   7.720   4.340 -2.0953  1.2654  1.8450
 8130SOL    HW235610   3.506   7.617   4.425 -0.1093 -0.1052 -1.8664
 8131SOL     OW35611   9.597   3.630   3.011 -0.3185  0.4845  0.2604
 8131SOL    HW135612   9.605   3.618   3.110 -0.1339 -0.2672  0.1598
 8131SOL    HW235613   9.513   3.680   2.990 -1.9968 -2.0683  0.6190
 8132SOL     OW35614   2.504   8.191   0.736 -0.0207 -0.0615  0.1507
 8132SOL    HW135615   2.440   8.181   0.812 -0.2248 -1.0226 -0.1429
 8132SOL    HW235616   2.532   8.101   0.704  1.8369  0.3551  0.5615
 8133SOL     OW35617   7.197   5.704   7.957  0.1138  0.7959  0.3459
 8133SOL    HW135618   7.198   5.728   8.054  0.3896  0.9746  0.2999
 8133SOL    HW235619   7.103   5.702   7.923  0.0001  0.4578  0.6854
 8134SOL     OW35620   3.407   7.949   0.435 -0.2881 -0.1911 -0.3268
 8134SOL    HW135621   3.335   8.000   0.481  0.1785  0.8721 -0.7444
 8134SOL    HW235622   3.443   8.004   0.359  1.3323 -0.4804  0.2182
 8135SOL     OW35623   8.359   5.825   0.840  0.1146  0.0192  0.2554
 8135SOL    HW135624   8.307   5.878   0.907  0.5764  0.4819  0.2561
 8135SOL    HW235625   8.320   5.734   0.831 -1.0548  0.5580 -0.1752
 8136SOL     OW35626   7.208   4.033   1.987  0.3973  0.0482  0.1922
 8136SOL    HW135627   7.245   4.091   1.914 -1.0130 -0.5308 -1.0111
 8136SOL    HW235628   7.166   4.091   2.057 -0.7859  0.5218 -0.8827
 8137SOL     OW35629   5.017   5.901   1.957 -0.1932  0.0215 -0.1332
 8137SOL    HW135630   4.933   5.908   2.011  1.5425 -1.3720  2.8706
 8137SOL    HW235631   5.021   5.811   1.913  0.0190 -0.1638  0.2611
 8138SOL     OW35632   1.183   8.305   2.048 -0.1606 -0.3495  0.0405
 8138SOL    HW135633   1.271   8.316   2.001  0.7781 -2.7538  1.1839
 8138SOL    HW235634   1.193   8.326   2.145 -1.0059  0.0157  0.0569
 8139SOL     OW35635   1.333   8.146   3.794 -0.3774 -0.0611  0.3804
 8139SOL    HW135636   1.307   8.234   3.754 -0.1239  1.3389  3.1500
 8139SOL    HW235637   1.283   8.073   3.748 -2.4597  1.7491 -0.3495
 8140SOL     OW35638   7.716   3.591   2.755  0.1617  0.1019  0.0619
 8140SOL    HW135639   7.722   3.509   2.699  0.0227 -0.4185  0.7967
 8140SOL    HW235640   7.756   3.668   2.706 -0.8823 -0.1252 -1.1478
 8141SOL     OW35641   8.762   6.597   2.509 -0.2589 -1.0689  0.0214
 8141SOL    HW135642   8.839   6.543   2.541  0.4281 -0.6930 -0.9694
 8141SOL    HW235643   8.713   6.635   2.587  2.0648  0.7720  0.6500
 8142SOL     OW35644   9.066   9.414   3.239  0.4730 -0.2315  0.2898
 8142SOL    HW135645   9.132   9.478   3.279  1.1779 -1.6383  1.4457
 8142SOL    HW235646   9.115   9.336   3.200 -0.5326 -2.0251  2.4901
 8143SOL     OW35647   6.916   8.421   6.905 -0.0856  0.8623  0.5859
 8143SOL    HW135648   6.960   8.507   6.878 -0.5975  1.7941  2.6428
 8143SOL    HW235649   6.874   8.431   6.995 -1.9886 -0.9113 -0.0465
 8144SOL     OW35650   4.227   0.597   3.176  0.1270 -0.0659 -0.1612
 8144SOL    HW135651   4.144   0.654   3.173  0.4739  0.6154  2.0854
 8144SOL    HW235652   4.239   0.561   3.268  2.3090 -0.2173 -0.4787
 8145SOL     OW35653   5.585   5.337   0.867 -0.0604  0.0422 -0.2027
 8145SOL    HW135654   5.633   5.414   0.826  2.5022 -1.6164 -0.4499
 8145SOL    HW235655   5.637   5.302   0.945 -0.5253 -2.1882 -0.8387
 8146SOL     OW35656   0.547   8.540   3.806 -0.0837 -0.0797  0.2908
 8146SOL    HW135657   0.489   8.565   3.883 -0.7388 -0.9123  0.0851
 8146SOL    HW235658   0.613   8.612   3.788 -0.0174  0.1789  1.5446
 8147SOL     OW35659   6.151   0.741   6.083 -0.2478 -0.7081 -0.3474
 8147SOL    HW135660   6.243   0.759   6.117  0.0500  1.0407 -1.9602
 8147SOL    HW235661   6.095   0.824   6.092 -1.1710 -1.2644 -0.8752
 8148SOL     OW35662   2.226   0.094   0.862  0.6917 -0.8148  0.6379
 8148SOL    HW135663   2.311   0.124   0.905  0.7544 -0.5478  0.3291
 8148SOL    HW235664   2.148   0.124   0.917  0.6810  1.4730 -0.6036
 8149SOL     OW35665   1.351   0.533   4.754 -0.1079  0.4209 -0.4498
 8149SOL    HW135666   1.308   0.491   4.834  0.7086 -0.7338 -0.6089
 8149SOL    HW235667   1.440   0.570   4.780 -0.2808  0.9501 -0.6020
 8150SOL     OW35668   2.328   1.607   3.602  0.3624 -0.5566  0.0024
 8150SOL    HW135669   2.245   1.587   3.653 -0.9334 -1.8969 -2.4943
 8150SOL    HW235670   2.403   1.550   3.635 -0.0165 -0.2005  1.4769
 8151SOL     OW35671   9.394   1.842   2.473  0.6591  0.0854  0.3630
 8151SOL    HW135672   9.443   1.887   2.548  1.9514 -1.5843  0.5404
 8151SOL    HW235673   9.345   1.762   2.509 -0.4362  0.4838 -0.2081
 8152SOL     OW35674   9.770   5.971   3.788  0.4867  0.2146  0.5052
 8152SOL    HW135675   9.741   5.996   3.695 -2.3647  0.2632  1.3431
 8152SOL    HW235676   9.790   6.054   3.840  1.9829  0.1925 -0.0297
 8153SOL     OW35677   7.490   8.258   2.231  0.7171  0.1731 -0.4630
 8153SOL    HW135678   7.533   8.266   2.141 -2.6071 -0.1049 -2.1599
 8153SOL    HW235679   7.526   8.178   2.279  2.6765  0.4529 -1.4238
 8154SOL     OW35680   3.848   9.022   1.339  0.4298  0.2598  0.1915
 8154SOL    HW135681   3.945   9.037   1.360  0.5585  1.3662 -1.1551
 8154SOL    HW235682   3.838   8.940   1.283  0.7008  0.7672 -0.6012
 8155SOL     OW35683   4.919   6.844   3.106 -0.4211 -0.1753  0.2324
 8155SOL    HW135684   4.952   6.903   3.034  1.7018 -1.6953 -0.0867
 8155SOL    HW235685   4.931   6.889   3.195  0.1763  0.2995 -0.0889
 8156SOL     OW35686   0.138   4.708   3.697  0.3478 -0.5043 -0.5064
 8156SOL    HW135687   0.073   4.769   3.651  1.1099 -0.2621 -1.2833
 8156SOL    HW235688   0.229   4.748   3.694  0.4755 -0.6604  0.9310
 8157SOL     OW35689   5.136   0.479   5.862  0.1865  0.2380 -0.1610
 8157SOL    HW135690   5.106   0.572   5.884  1.7594  0.3706  1.5118
 8157SOL    HW235691   5.177   0.478   5.771  0.8756  1.3680  0.1192
 8158SOL     OW35692   2.940   8.537   4.169  0.2446  0.0186  0.5503
 8158SOL    HW135693   2.894   8.451   4.145 -0.6904  0.0566  2.1700
 8158SOL    HW235694   2.884   8.614   4.139  0.0594  0.0641  1.0155
 8159SOL     OW35695   4.416   6.817   2.162  0.0344 -0.1503  0.3650
 8159SOL    HW135696   4.411   6.751   2.088 -1.0866 -1.5872  1.6878
 8159SOL    HW235697   4.383   6.906   2.130 -1.6121 -1.0685 -0.5340
 8160SOL     OW35698   1.058   3.344   1.408 -0.6032  0.1253 -0.2928
 8160SOL    HW135699   1.055   3.267   1.472 -0.4156 -0.6774 -1.2280
 8160SOL    HW235700   1.147   3.390   1.416 -0.9611  0.6575  0.7290
 8161SOL     OW35701   3.491   0.863   0.964  0.5531  0.1494  0.2181
 8161SOL    HW135702   3.552   0.806   1.019  2.1490  1.4941 -0.1177
 8161SOL    HW235703   3.450   0.807   0.891  0.8060 -0.9280  0.8838
 8162SOL     OW35704   3.144   7.707   2.200 -0.1205 -0.5718  0.2381
 8162SOL    HW135705   3.177   7.676   2.288  0.0017 -0.3853  0.2573
 8162SOL    HW235706   3.076   7.779   2.213 -1.6094 -1.9451  0.2569
 8163SOL     OW35707   6.463   2.623   3.723  0.4292 -0.1599  0.0520
 8163SOL    HW135708   6.482   2.704   3.779 -0.3228 -0.9131  1.4203
 8163SOL    HW235709   6.489   2.541   3.773 -1.2061 -0.9040 -0.2744
 8164SOL     OW35710   6.590   1.102   0.031 -0.3804  0.0545 -0.5872
 8164SOL    HW135711   6.500   1.135   0.003 -0.9515 -0.9246  0.0426
 8164SOL    HW235712   6.661   1.167   0.003 -1.3356  1.0905 -0.6152
 8165SOL     OW35713   3.020   6.707   0.505  0.0547 -0.1637  0.3481
 8165SOL    HW135714   2.930   6.664   0.514 -1.6662  2.9032 -1.0426
 8165SOL    HW235715   3.043   6.716   0.409  1.1750  0.3943  0.6654
 8166SOL     OW35716   7.428   9.044   5.131  0.3727 -1.1636 -0.4111
 8166SOL    HW135717   7.435   9.124   5.191  0.3718 -1.0757 -0.5260
 8166SOL    HW235718   7.485   8.971   5.166 -2.7286 -2.5819  1.9803
 8167SOL     OW35719   9.207   3.629   2.694 -0.2687  0.0739  0.0936
 8167SOL    HW135720   9.199   3.593   2.602  1.7057 -0.6754  0.1960
 8167SOL    HW235721   9.132   3.594   2.751  0.1839 -1.8068 -0.4630
 8168SOL     OW35722   3.425   6.191   2.992 -0.1960  0.0013 -0.1046
 8168SOL    HW135723   3.457   6.276   2.950 -0.6338  0.3183  0.2008
 8168SOL    HW235724   3.326   6.194   3.004 -0.5917 -1.6890 -2.6325
 8169SOL     OW35725   0.760   5.866   4.122  0.3474  0.2110 -0.0366
 8169SOL    HW135726   0.854   5.900   4.116  1.0499 -2.0222 -2.1563
 8169SOL    HW235727   0.729   5.837   4.031 -2.3379  0.7409  0.6751
 8170SOL     OW35728   5.262   8.774   3.179 -0.2490 -0.5238 -0.4030
 8170SOL    HW135729   5.202   8.703   3.215  1.0632 -1.6670 -0.4033
 8170SOL    HW235730   5.343   8.731   3.138 -0.2711  0.9017 -1.9767
 8171SOL     OW35731   0.359   0.208   6.284  0.3778 -0.3289  0.5984
 8171SOL    HW135732   0.322   0.300   6.287  0.9225 -0.0769 -0.2252
 8171SOL    HW235733   0.287   0.142   6.305 -0.3790  0.1894 -0.3743
 8172SOL     OW35734   8.194   6.239   1.227 -0.9114 -0.7652  0.5944
 8172SOL    HW135735   8.254   6.250   1.306 -0.0934  0.4302 -0.1751
 8172SOL    HW235736   8.247   6.252   1.143 -2.1211 -0.2941 -0.1111
 8173SOL     OW35737   4.537   8.027   3.234 -0.5678 -0.5580 -0.2912
 8173SOL    HW135738   4.515   7.947   3.290 -0.1198 -1.1060 -0.8929
 8173SOL    HW235739   4.532   8.109   3.291  1.8874 -1.3013  1.0892
 8174SOL     OW35740   6.485   2.170   1.248 -0.1900 -0.0949 -0.4302
 8174SOL    HW135741   6.573   2.123   1.254 -0.3265 -0.3383 -0.3446
 8174SOL    HW235742   6.421   2.116   1.194  0.0075  0.5412 -1.3031
 8175SOL     OW35743   4.544   4.283   5.095 -0.1012 -0.2645 -0.1100
 8175SOL    HW135744   4.462   4.226   5.096 -1.2979  1.3780 -2.1232
 8175SOL    HW235745   4.532   4.360   5.158 -0.1571  0.0590 -0.5169
 8176SOL     OW35746   5.799   8.972   5.085  0.1557  0.0968  0.1025
 8176SOL    HW135747   5.754   9.018   5.008  0.1696  1.6599  1.0021
 8176SOL    HW235748   5.784   9.025   5.168  0.5684 -1.3185  1.0897
 8177SOL     OW35749   3.455   2.676   1.413  0.2536 -0.4297 -0.1065
 8177SOL    HW135750   3.493   2.631   1.332  1.2957  0.2001  0.0229
 8177SOL    HW235751   3.499   2.765   1.425  0.4878 -0.7515  1.4632
 8178SOL     OW35752   0.279   6.294   3.150  0.6108 -0.1915  0.4715
 8178SOL    HW135753   0.354   6.354   3.124  1.0445 -0.1202  1.8561
 8178SOL    HW235754   0.255   6.309   3.246 -0.5034 -0.9264  0.3294
 8179SOL     OW35755   9.070   3.102   5.036 -0.0333 -0.7008 -0.6058
 8179SOL    HW135756   9.060   3.083   5.134 -0.0459  0.3807 -0.3846
 8179SOL    HW235757   9.063   3.017   4.985 -1.7305 -1.0851  0.2048
 8180SOL     OW35758   8.189   6.952   1.239 -0.0953 -0.0679 -0.3927
 8180SOL    HW135759   8.122   6.985   1.306 -0.9742 -1.3770 -0.5987
 8180SOL    HW235760   8.281   6.959   1.277 -0.5821 -0.7531  0.9424
 8181SOL     OW35761   2.114   2.910   1.728 -0.4628  0.7070  0.0157
 8181SOL    HW135762   2.149   2.835   1.672  0.7566 -1.4919  3.5323
 8181SOL    HW235763   2.046   2.874   1.793 -1.4274  3.0569  0.3576
 8182SOL     OW35764   1.717   0.515   4.384  0.7882 -0.4897  0.1339
 8182SOL    HW135765   1.754   0.517   4.477  0.4403 -0.2802  0.2693
 8182SOL    HW235766   1.703   0.420   4.356 -0.2441 -0.5346  0.7556
 8183SOL     OW35767   7.588   0.762   1.114 -0.0334  0.3376  0.1693
 8183SOL    HW135768   7.644   0.805   1.185 -0.9606 -1.3370  1.9542
 8183SOL    HW235769   7.493   0.789   1.125 -0.2645 -0.3290 -0.1324
 8184SOL     OW35770   3.787   2.515   1.233 -0.4798  0.0552 -0.0337
 8184SOL    HW135771   3.819   2.421   1.235 -1.8115 -0.4097 -0.3389
 8184SOL    HW235772   3.837   2.566   1.163  1.2121 -0.0622  1.0830
 8185SOL     OW35773   8.274   2.834   3.028 -0.5682 -0.0285  0.0320
 8185SOL    HW135774   8.222   2.909   2.990 -0.0450  0.5576  0.4620
 8185SOL    HW235775   8.225   2.748   3.013 -2.5067  0.6910  1.9318
 8186SOL     OW35776   5.790   3.599   0.156  0.2935 -0.2029  0.2639
 8186SOL    HW135777   5.880   3.625   0.121  0.8782 -1.1494  1.0803
 8186SOL    HW235778   5.720   3.630   0.091  1.3825 -2.1127 -1.9026
 8187SOL     OW35779   2.234   2.557   3.821 -0.4714  0.0355 -0.5343
 8187SOL    HW135780   2.222   2.523   3.728 -0.1045 -1.2809 -0.1033
 8187SOL    HW235781   2.327   2.538   3.852 -0.6429  0.3101  0.1669
 8188SOL     OW35782   7.753   9.557   2.354  0.1067  0.0173  0.7536
 8188SOL    HW135783   7.686   9.602   2.295 -0.8635 -0.2822  1.6086
 8188SOL    HW235784   7.795   9.481   2.304  0.5779  0.8507 -0.1425
 8189SOL     OW35785   6.892   2.689   3.838 -0.1767 -0.2385 -0.3776
 8189SOL    HW135786   6.854   2.706   3.929  0.8275  0.0172  0.0004
 8189SOL    HW235787   6.882   2.771   3.782  1.7265  0.5542  0.4067
 8190SOL     OW35788   3.244   0.222   0.722 -0.5146  0.4322 -0.6068
 8190SOL    HW135789   3.279   0.187   0.810  0.0930  2.6230  0.0577
 8190SOL    HW235790   3.145   0.218   0.722 -0.5693  1.2945  0.5928
 8191SOL     OW35791   3.383   9.753   5.151  0.0627  0.2772  0.4458
 8191SOL    HW135792   3.455   9.815   5.120  1.2389 -0.1478  2.2209
 8191SOL    HW235793   3.379   9.673   5.091  0.9010  0.4444  0.1562
 8192SOL     OW35794   4.800   2.116   4.169  0.2148 -0.0480 -0.6175
 8192SOL    HW135795   4.768   2.046   4.233  2.0400 -0.0562  0.3090
 8192SOL    HW235796   4.722   2.170   4.137 -0.6350  0.5652  2.3417
 8193SOL     OW35797   8.571   1.565   4.515 -0.5939  0.1064  0.0882
 8193SOL    HW135798   8.492   1.566   4.577  0.8275 -0.8879  1.9704
 8193SOL    HW235799   8.602   1.659   4.500  0.3885  0.2559  2.7128
 8194SOL     OW35800   2.769   1.657   2.365 -0.5190 -0.3117  0.2576
 8194SOL    HW135801   2.726   1.710   2.439 -3.8798 -1.0203 -1.0588
 8194SOL    HW235802   2.784   1.717   2.287  0.3017 -0.2102  0.4940
 8195SOL     OW35803   5.181   1.983   2.665  0.2649  0.4013  0.3997
 8195SOL    HW135804   5.208   1.910   2.728 -2.0874 -0.8887 -0.0166
 8195SOL    HW235805   5.250   2.055   2.666  1.5731 -0.8198  2.4439
 8196SOL     OW35806   5.801   1.223   5.115 -0.1543 -0.2589 -0.0614
 8196SOL    HW135807   5.758   1.299   5.067 -1.5478 -0.3329  1.0315
 8196SOL    HW235808   5.900   1.230   5.108 -0.3014  0.7248 -1.3795
 8197SOL     OW35809   2.972   1.829   5.905 -0.5133  0.4006 -0.1548
 8197SOL    HW135810   3.042   1.834   5.976 -1.7305  0.5850  1.0672
 8197SOL    HW235811   2.881   1.830   5.948 -1.2965  1.7732 -1.7939
 8198SOL     OW35812   0.893   6.570   5.984  0.2513 -0.5933  0.2150
 8198SOL    HW135813   0.982   6.579   5.939  0.7902 -2.1785  0.9253
 8198SOL    HW235814   0.889   6.632   6.062  0.2287  0.4195 -0.5752
 8199SOL     OW35815   6.381   2.025   1.023 -0.4881 -0.0052 -0.2656
 8199SOL    HW135816   6.355   2.095   0.956 -2.5676 -0.2134  0.2618
 8199SOL    HW235817   6.336   1.939   0.999 -0.6406 -0.2768  0.9741
 8200SOL     OW35818   0.034   6.468   1.369  0.2673  0.2831  0.4536
 8200SOL    HW135819   0.038   6.529   1.290  1.4215 -1.1676 -0.6386
 8200SOL    HW235820  -0.031   6.395   1.352  0.2668  0.1565  0.9930
 8201SOL     OW35821   5.133   0.624   3.458  0.4078 -0.5446  0.1139
 8201SOL    HW135822   5.054   0.663   3.411  0.7619  0.0321 -0.0035
 8201SOL    HW235823   5.108   0.604   3.553  0.0353 -0.6302 -0.0025
 8202SOL     OW35824   6.359   0.573   2.964 -0.8070  0.5585  0.0505
 8202SOL    HW135825   6.432   0.521   2.920 -0.3024  0.2740  1.2212
 8202SOL    HW235826   6.287   0.510   2.995 -1.3689  0.7996 -0.7272
 8203SOL     OW35827   3.384   8.517   6.270  0.4480  0.5773 -0.3338
 8203SOL    HW135828   3.284   8.513   6.279  0.2882  2.7495 -0.9188
 8203SOL    HW235829   3.423   8.563   6.350  1.1899 -2.0648  0.8738
 8204SOL     OW35830   9.327   7.279   4.180 -0.0695  0.3000  0.3195
 8204SOL    HW135831   9.285   7.194   4.149  1.0928 -0.0127 -0.4546
 8204SOL    HW235832   9.368   7.327   4.102  1.4973  0.2965  1.1145
 8205SOL     OW35833   7.358   8.128   5.220 -0.0177  0.8081  0.1880
 8205SOL    HW135834   7.412   8.184   5.157 -0.7903  0.0045 -1.2177
 8205SOL    HW235835   7.420   8.078   5.282  0.7186  2.0599  0.4703
 8206SOL     OW35836   1.524   1.299   3.692  0.2765 -0.4887 -0.7000
 8206SOL    HW135837   1.462   1.367   3.731 -0.3193 -1.3829 -0.0977
 8206SOL    HW235838   1.555   1.331   3.602  1.6123  1.5659  0.4166
 8207SOL     OW35839   7.740   8.337   5.722  0.6760  0.3600  0.3965
 8207SOL    HW135840   7.727   8.393   5.804  0.4801  0.1660  0.4987
 8207SOL    HW235841   7.666   8.270   5.715  0.5898  0.5057 -0.0449
 8208SOL     OW35842   4.509   5.673   3.280 -0.4097 -0.3347  0.3502
 8208SOL    HW135843   4.571   5.744   3.249  0.3351 -0.8527  0.6448
 8208SOL    HW235844   4.474   5.695   3.371  0.0923 -0.5176  0.5876
 8209SOL     OW35845   1.042   4.282   4.248  1.0467 -0.1032 -0.1358
 8209SOL    HW135846   0.948   4.299   4.218  1.1430 -1.1201 -1.0211
 8209SOL    HW235847   1.084   4.213   4.190  2.5855  0.8343 -0.1771
 8210SOL     OW35848   7.324   1.306   3.066 -0.3378  0.0014 -0.4797
 8210SOL    HW135849   7.225   1.311   3.054 -0.5711 -2.2208  0.2445
 8210SOL    HW235850   7.347   1.223   3.117  1.7715  1.3425  0.8454
 8211SOL     OW35851   2.252   5.843   1.610 -0.2221  0.9224  0.0935
 8211SOL    HW135852   2.293   5.765   1.564  0.3970  0.8426  0.7656
 8211SOL    HW235853   2.297   5.857   1.698 -1.8498  0.6256  1.0060
 8212SOL     OW35854   7.463   5.770   5.827 -0.5145 -0.4753 -0.2843
 8212SOL    HW135855   7.372   5.811   5.840  0.3630  2.1463 -2.0341
 8212SOL    HW235856   7.531   5.826   5.874  0.2918 -2.1331  0.5516
 8213SOL     OW35857   0.075   4.982   2.778 -0.1645 -0.6901 -0.0912
 8213SOL    HW135858   0.152   4.919   2.780  0.6883  0.3683  0.2145
 8213SOL    HW235859   0.058   5.018   2.870 -2.2596 -2.3874  0.2552
 8214SOL     OW35860   0.223   9.496   5.420  0.5412 -0.5361  0.6328
 8214SOL    HW135861   0.208   9.419   5.357  2.0009  0.1944 -0.6399
 8214SOL    HW235862   0.215   9.464   5.514  2.5501 -2.5798  0.1664
 8215SOL     OW35863   9.887   8.344   5.163  0.1001  0.8010  0.4786
 8215SOL    HW135864   9.902   8.337   5.064  1.9184  0.9702  0.7315
 8215SOL    HW235865   9.788   8.347   5.181 -0.3087 -1.1512 -1.1863
 8216SOL     OW35866   0.478   0.657   2.986  0.2064 -0.9072  0.4430
 8216SOL    HW135867   0.460   0.559   2.997 -0.9596 -1.0356 -2.3310
 8216SOL    HW235868   0.398   0.702   2.946  1.0656  1.0512  0.8505
 8217SOL     OW35869   0.320   5.131   2.647 -0.4300  0.1984 -0.1068
 8217SOL    HW135870   0.394   5.145   2.582 -0.9741  3.0657 -0.1935
 8217SOL    HW235871   0.235   5.110   2.598 -0.0595 -1.3903 -0.0939
 8218SOL     OW35872   4.399   5.370   3.161 -0.4359  0.1187 -0.0734
 8218SOL    HW135873   4.306   5.336   3.145 -0.6017  1.6234 -2.4368
 8218SOL    HW235874   4.412   5.383   3.260 -3.1461  1.1048  0.2096
 8219SOL     OW35875   0.833   6.473   2.240 -0.4108 -0.1542  0.4298
 8219SOL    HW135876   0.741   6.479   2.203 -0.1204 -1.4434 -0.5239
 8219SOL    HW235877   0.853   6.556   2.293 -2.1285  0.1027  0.7173
 8220SOL     OW35878   2.249   9.830   6.402 -0.4052 -0.1072 -0.4681
 8220SOL    HW135879   2.324   9.775   6.366 -0.4192 -0.5292  0.1380
 8220SOL    HW235880   2.162   9.788   6.377 -0.3985 -1.3361  1.4816
 8221SOL     OW35881   3.152   2.011   2.928  0.6384  0.5028  0.3386
 8221SOL    HW135882   3.192   2.001   2.836  1.9299  1.6640  0.7518
 8221SOL    HW235883   3.060   1.974   2.928  1.2106 -0.9966 -1.0160
 8222SOL     OW35884   2.096   6.165   3.805  0.1467 -0.0101 -0.2125
 8222SOL    HW135885   2.129   6.070   3.811  1.3824  0.4144 -0.0941
 8222SOL    HW235886   2.058   6.192   3.893 -0.3436 -0.4391 -0.2872
 8223SOL     OW35887   4.138   4.997   4.822  0.1153 -0.3810  0.1812
 8223SOL    HW135888   4.063   4.948   4.778 -1.5169  1.2944  1.0767
 8223SOL    HW235889   4.128   4.991   4.922  1.5574 -0.7160  0.3241
 8224SOL     OW35890   2.129   3.727   0.946 -0.6436  0.2891 -0.4809
 8224SOL    HW135891   2.136   3.784   1.027  0.0744 -0.9950  0.3875
 8224SOL    HW235892   2.049   3.668   0.953  0.5767 -1.3245  0.3117
 8225SOL     OW35893   7.855   5.103   2.418  0.7506 -0.0717  0.4450
 8225SOL    HW135894   7.822   5.141   2.504 -1.6903  0.3259 -0.6369
 8225SOL    HW235895   7.876   5.006   2.431  2.1893  0.3999  1.9241
 8226SOL     OW35896   8.026   0.294   1.779  0.6402 -0.0489 -0.4850
 8226SOL    HW135897   7.947   0.238   1.805  1.9591 -1.4840  0.5050
 8226SOL    HW235898   8.011   0.388   1.807 -1.3288 -0.0154 -1.5625
 8227SOL     OW35899   0.919  10.000   2.704  0.8359  0.8466  0.2197
 8227SOL    HW135900   0.976  10.000   2.786  0.8741 -2.4505  0.2958
 8227SOL    HW235901   0.829   9.961   2.726  0.9987 -0.4936 -1.3396
 8228SOL     OW35902   2.859   6.814   4.213  0.0510 -0.4169  0.3799
 8228SOL    HW135903   2.794   6.840   4.142 -0.4856  1.1544  1.3980
 8228SOL    HW235904   2.820   6.741   4.269 -0.8868  0.5522  1.0199
 8229SOL     OW35905   5.228   2.650   4.557 -0.1950  0.2491 -0.4699
 8229SOL    HW135906   5.134   2.676   4.534 -0.6560 -0.4169  0.6316
 8229SOL    HW235907   5.253   2.567   4.508 -0.8257 -0.6067  0.6459
 8230SOL     OW35908   4.774   4.247   3.508 -0.1383 -0.6293  0.5065
 8230SOL    HW135909   4.831   4.192   3.447 -0.1147  1.0739 -1.0367
 8230SOL    HW235910   4.709   4.301   3.455 -1.4358 -0.5639  2.1084
 8231SOL     OW35911   9.538   1.234   4.088 -0.5712 -0.0015 -0.7397
 8231SOL    HW135912   9.448   1.196   4.111 -0.2774  0.3076  1.0024
 8231SOL    HW235913   9.606   1.160   4.088 -0.3814  0.1753  0.4591
 8232SOL     OW35914   9.991   6.403   6.390 -0.2834 -0.2365 -0.0617
 8232SOL    HW135915   9.977   6.360   6.301 -2.0011 -1.2321  0.6731
 8232SOL    HW235916   9.950   6.495   6.389  0.5533  0.1392 -0.5925
 8233SOL     OW35917   1.492   8.140   2.433 -0.0783  0.3236 -0.5166
 8233SOL    HW135918   1.508   8.082   2.353  1.9563 -0.2721  0.2784
 8233SOL    HW235919   1.579   8.172   2.469 -0.8388 -0.5396  2.2680
 8234SOL     OW35920   2.721   9.105   1.251 -0.5413  0.4481  0.5806
 8234SOL    HW135921   2.751   9.049   1.328 -2.0115 -0.1577  0.7346
 8234SOL    HW235922   2.636   9.151   1.275 -1.3889 -0.3064 -0.9333
 8235SOL     OW35923   3.254   3.629   2.849  0.1003 -0.0912 -0.0739
 8235SOL    HW135924   3.207   3.615   2.762 -1.9231  0.5170  0.8930
 8235SOL    HW235925   3.274   3.541   2.891 -3.1864 -0.3729  1.0543
 8236SOL     OW35926   2.875   4.835   4.932  0.0592 -0.0358 -0.3052
 8236SOL    HW135927   2.886   4.759   4.869 -0.6696  0.6806 -1.3219
 8236SOL    HW235928   2.902   4.807   5.024  3.6762 -0.3423 -1.3853
 8237SOL     OW35929   8.374   9.745   1.452  0.1629  0.5822  0.3731
 8237SOL    HW135930   8.413   9.735   1.543  0.6827  0.8809  0.1820
 8237SOL    HW235931   8.321   9.830   1.447  0.3347  0.6873  0.3280
 8238SOL     OW35932   7.251   1.870   7.849  0.5324  0.0864 -0.0572
 8238SOL    HW135933   7.303   1.952   7.823 -0.9508  1.1834  0.3925
 8238SOL    HW235934   7.200   1.889   7.933 -0.7839 -0.9105 -0.6259
 8239SOL     OW35935   2.556   1.658   3.398  0.4062 -0.1001 -0.4780
 8239SOL    HW135936   2.490   1.649   3.473  1.7348  1.3098  0.9293
 8239SOL    HW235937   2.510   1.644   3.311 -1.8920  1.4503  0.4298
 8240SOL     OW35938   9.386   6.057   4.391  0.0688 -0.1284  0.3431
 8240SOL    HW135939   9.368   6.030   4.486 -0.4456 -1.3171 -0.0791
 8240SOL    HW235940   9.485   6.059   4.375  0.1690  0.6826  1.0767
 8241SOL     OW35941   4.930   8.510   3.651  0.4244 -0.2169  0.5651
 8241SOL    HW135942   4.912   8.458   3.567  0.7221 -1.6537  1.3691
 8241SOL    HW235943   4.850   8.566   3.673 -0.4488 -1.3902  0.4368
 8242SOL     OW35944   4.323   1.085   3.960 -0.4689  1.1653 -0.1229
 8242SOL    HW135945   4.354   1.013   3.898 -2.1976  0.2506  0.0289
 8242SOL    HW235946   4.402   1.127   4.005  0.6567  0.3717 -1.3155
 8243SOL     OW35947   7.380   7.739   4.641  0.2402 -0.4506  0.0998
 8243SOL    HW135948   7.301   7.778   4.689  0.6060  0.8937 -0.3936
 8243SOL    HW235949   7.402   7.795   4.561  0.2599 -2.1098 -1.0872
 8244SOL     OW35950   0.651   7.751   4.921 -0.3437 -0.0954  0.3347
 8244SOL    HW135951   0.586   7.783   4.990 -0.6377  1.3749 -0.6061
 8244SOL    HW235952   0.656   7.818   4.846  0.9580 -1.0306 -0.4311
 8245SOL     OW35953   9.743   1.551   5.186  0.7169  0.2412  0.3159
 8245SOL    HW135954   9.732   1.509   5.096  2.7520  0.5690 -0.1258
 8245SOL    HW235955   9.810   1.626   5.179  0.5630  0.5462  2.0093
 8246SOL     OW35956   9.189   3.897   6.158 -0.0272  0.2451  0.1076
 8246SOL    HW135957   9.177   3.857   6.249 -2.0248 -0.1218 -0.2929
 8246SOL    HW235958   9.148   3.837   6.090  0.5745  1.0048 -0.9410
 8247SOL     OW35959   9.667   0.159   0.762 -0.3117  0.1014 -0.7610
 8247SOL    HW135960   9.617   0.073   0.753  0.1264 -0.3868  1.1411
 8247SOL    HW235961   9.744   0.160   0.698  0.0742 -1.2219 -0.3361
 8248SOL     OW35962   4.325   0.957   3.531 -0.6624  0.0875 -0.0579
 8248SOL    HW135963   4.358   1.021   3.600 -0.9371 -0.0463  0.1964
 8248SOL    HW235964   4.262   1.004   3.470 -1.4702 -0.1379  0.6014
 8249SOL     OW35965   5.334   0.619   1.660 -0.0923  0.1515  0.0652
 8249SOL    HW135966   5.236   0.635   1.664 -0.1422  0.1438 -0.9605
 8249SOL    HW235967   5.381   0.703   1.632  0.3122  0.5094  1.7919
 8250SOL     OW35968   2.663   5.584   4.776  0.0121 -0.2537 -0.1772
 8250SOL    HW135969   2.594   5.588   4.704 -0.2551 -0.7988  0.0447
 8250SOL    HW235970   2.696   5.677   4.795 -1.3324  0.1465  0.3445
 8251SOL     OW35971   8.223   2.752   2.129 -0.0982  0.1464  0.2079
 8251SOL    HW135972   8.131   2.768   2.093  0.5207  0.5394 -1.2398
 8251SOL    HW235973   8.289   2.801   2.073  0.8267  1.5784  2.4603
 8252SOL     OW35974   7.926   7.217   4.001  0.2963 -0.4584 -0.1594
 8252SOL    HW135975   7.950   7.180   3.912 -0.2680 -1.0259 -0.0774
 8252SOL    HW235976   7.875   7.149   4.053  0.6854 -0.1615  0.6289
 8253SOL     OW35977   0.947   4.466   4.477  0.2711 -0.6509 -0.3107
 8253SOL    HW135978   0.982   4.441   4.387 -1.1301  0.9659 -1.3383
 8253SOL    HW235979   0.853   4.433   4.487  0.0377  0.1341  0.1205
 8254SOL     OW35980   4.110   0.634   0.528  0.1749  0.2497 -0.1606
 8254SOL    HW135981   4.021   0.677   0.539  0.1067  0.0508  0.0708
 8254SOL    HW235982   4.182   0.703   0.538  0.0301  0.5476 -1.0674
 8255SOL     OW35983   4.370   0.822   0.055  0.2094 -0.4660 -0.6458
 8255SOL    HW135984   4.340   0.908   0.014  0.2490 -0.8906 -1.5588
 8255SOL    HW235985   4.294   0.783   0.108  1.0798  1.6158  2.2801
 8256SOL     OW35986   3.207   8.455   4.847 -0.1487 -0.0150 -0.7437
 8256SOL    HW135987   3.279   8.450   4.916 -0.0064  0.6319 -0.8445
 8256SOL    HW235988   3.143   8.379   4.861 -0.7987  0.8091  0.8506
 8257SOL     OW35989   1.992   7.665   4.324 -0.4670  0.2541 -0.4626
 8257SOL    HW135990   2.019   7.762   4.320  2.9006 -0.5548  0.5923
 8257SOL    HW235991   2.011   7.623   4.235  0.2039  0.0741 -0.2387
 8258SOL     OW35992   8.688   5.214   5.096  0.3830  0.3285  0.4165
 8258SOL    HW135993   8.733   5.137   5.050 -0.6055  0.1697 -0.2801
 8258SOL    HW235994   8.727   5.300   5.064  2.3959  0.1207  2.1225
 8259SOL     OW35995   3.367   9.257   0.012 -0.4148  0.5091  0.3586
 8259SOL    HW135996   3.459   9.229  -0.018  0.6481  0.5959  3.3774
 8259SOL    HW235997   3.308   9.176   0.016  0.8476 -0.3453  2.8100
 8260SOL     OW35998   0.931   4.305   5.148 -0.1291 -0.5097  0.2578
 8260SOL    HW135999   0.866   4.315   5.073  0.1005  0.5046  0.1854
 8260SOL    HW236000   0.888   4.334   5.234 -0.4046 -1.7062  0.5249
 8261SOL     OW36001   3.615   0.385   5.737 -0.2413  0.1954 -0.1484
 8261SOL    HW136002   3.572   0.302   5.702  0.9752 -1.3795  1.9396
 8261SOL    HW236003   3.585   0.401   5.831 -0.5300  2.1972 -0.5565
 8262SOL     OW36004   2.975   1.297   1.848  0.0076  0.0818  0.1948
 8262SOL    HW136005   3.049   1.310   1.782 -1.8835 -0.1783 -2.0341
 8262SOL    HW236006   2.994   1.217   1.904  0.8860 -0.6211 -1.0867
 8263SOL     OW36007   2.947   3.514   2.422  0.1534  0.2744  0.1418
 8263SOL    HW136008   2.930   3.566   2.338  0.0827 -0.0025 -0.0174
 8263SOL    HW236009   2.875   3.533   2.488 -0.5000 -0.4898 -0.3367
 8264SOL     OW36010   6.268   4.280   7.751 -0.2527 -0.5359 -0.1086
 8264SOL    HW136011   6.303   4.187   7.765 -1.8248 -1.3299 -1.1817
 8264SOL    HW236012   6.176   4.287   7.790 -0.3875  0.3819 -0.5760
 8265SOL     OW36013   2.419   0.574   5.669 -0.2682  0.4495 -0.6029
 8265SOL    HW136014   2.344   0.613   5.724  0.4652  0.3887  0.4493
 8265SOL    HW236015   2.410   0.474   5.667  2.1537  0.0786  3.0826
 8266SOL     OW36016   7.077   8.335   2.428 -0.2261  0.1021  0.0555
 8266SOL    HW136017   7.076   8.239   2.455  0.1032 -0.5546 -2.1974
 8266SOL    HW236018   6.999   8.382   2.469 -0.4305 -1.1357  1.1120
 8267SOL     OW36019   1.268   8.836   5.009  0.2904 -0.4776  0.6668
 8267SOL    HW136020   1.316   8.756   5.046  0.9120 -0.8366 -0.8569
 8267SOL    HW236021   1.333   8.911   4.996  0.7754 -1.3653 -2.5723
 8268SOL     OW36022   9.468   3.588   0.977  0.3662 -0.9854 -0.7632
 8268SOL    HW136023   9.429   3.591   0.885 -1.5477  0.4295  0.0551
 8268SOL    HW236024   9.508   3.677   0.999 -0.1193 -0.9875  0.1596
 8269SOL     OW36025   7.016   6.434   6.172 -0.0917 -0.3634 -0.2330
 8269SOL    HW136026   7.053   6.525   6.152 -2.1827  0.3058 -1.3072
 8269SOL    HW236027   6.993   6.388   6.086 -1.3917 -0.8789  0.3776
 8270SOL     OW36028   1.491   7.291   6.409 -0.1186 -0.0535  0.2440
 8270SOL    HW136029   1.530   7.357   6.472 -1.1146 -0.5062  1.3539
 8270SOL    HW236030   1.396   7.314   6.391 -0.4173 -1.0567  0.4930
 8271SOL     OW36031   8.180   5.582   2.788  0.1322  1.1935  0.7595
 8271SOL    HW136032   8.146   5.605   2.697  0.7792  1.2398  0.5234
 8271SOL    HW236033   8.236   5.499   2.782 -2.0375 -0.3833  1.5700
 8272SOL     OW36034   2.939   2.361   4.648  0.1121 -0.0548  0.3914
 8272SOL    HW136035   2.956   2.262   4.646 -0.8061 -0.1933 -1.0476
 8272SOL    HW236036   2.848   2.378   4.688  0.4512  0.2473  1.0498
 8273SOL     OW36037   9.825   0.482   6.454 -0.0872 -0.2883 -0.7294
 8273SOL    HW136038   9.750   0.535   6.494  0.5671 -1.2412  1.7851
 8273SOL    HW236039   9.796   0.387   6.442 -0.0755 -0.1440 -2.0410
 8274SOL     OW36040   4.163   6.203   0.808  0.2015 -0.2279  0.1410
 8274SOL    HW136041   4.092   6.133   0.810 -0.4256  0.3556 -1.3042
 8274SOL    HW236042   4.201   6.214   0.900  0.7905 -2.9352  0.2750
 8275SOL     OW36043   2.968   5.720   2.462  0.6458 -0.2895  0.0435
 8275SOL    HW136044   2.879   5.688   2.494  1.1719 -2.7496 -0.9158
 8275SOL    HW236045   2.955   5.801   2.405 -0.9284 -0.4410  0.1587
 8276SOL     OW36046   7.658   5.031   2.250 -0.0449  0.0500  0.1544
 8276SOL    HW136047   7.682   5.074   2.163 -0.2393  2.0454  1.0763
 8276SOL    HW236048   7.732   5.046   2.316 -0.5822 -0.1338  0.7966
 8277SOL     OW36049   9.127   8.586   2.566 -0.1616  0.5330  0.2480
 8277SOL    HW136050   9.047   8.536   2.533 -0.8337  2.2554 -0.7632
 8277SOL    HW236051   9.099   8.675   2.602  1.2815  1.0739  0.0869
 8278SOL     OW36052   4.346   8.579   5.808  0.7771  0.0477 -0.1741
 8278SOL    HW136053   4.297   8.496   5.834  0.5330  0.5650  1.0551
 8278SOL    HW236054   4.347   8.643   5.885 -0.6172  1.9274 -1.6836
 8279SOL     OW36055   1.970   2.792   3.594  0.2094 -0.1161 -0.7103
 8279SOL    HW136056   2.020   2.810   3.679  0.0363 -1.0674 -0.3970
 8279SOL    HW236057   1.874   2.816   3.606 -0.3638 -2.7395  0.2552
 8280SOL     OW36058   7.907   3.803   5.093 -0.1302  0.2628 -0.6578
 8280SOL    HW136059   7.810   3.825   5.081 -0.7313 -1.7347  0.2365
 8280SOL    HW236060   7.936   3.742   5.019 -0.5693 -2.0965  1.0415
 8281SOL     OW36061   1.332   1.008   6.099  0.7311 -0.4221  0.1925
 8281SOL    HW136062   1.412   1.003   6.039  2.2712  0.3393  2.1234
 8281SOL    HW236063   1.331   0.928   6.159  0.0444 -0.4339  0.1602
 8282SOL     OW36064   7.428   3.975   8.002  0.2660  0.1466  0.9437
 8282SOL    HW136065   7.525   3.992   8.016  0.1791  0.6621  0.9216
 8282SOL    HW236066   7.409   3.878   8.018  1.0812 -0.2993 -0.7280
 8283SOL     OW36067   8.643   1.907   5.920 -0.0868  0.2399  0.1937
 8283SOL    HW136068   8.690   1.875   5.838 -0.9979 -0.3688 -0.1002
 8283SOL    HW236069   8.670   2.001   5.940  1.7929 -0.3268  0.4371
 8284SOL     OW36070   1.162   5.265   4.203  0.0826 -0.5980 -0.0169
 8284SOL    HW136071   1.179   5.240   4.298 -1.9836  0.8519  0.7561
 8284SOL    HW236072   1.120   5.356   4.199 -2.6274 -1.8696 -2.1074
 8285SOL     OW36073   4.908   8.386   3.371  0.3303 -0.2387 -0.2095
 8285SOL    HW136074   4.844   8.451   3.330  0.4218 -0.0539 -0.0561
 8285SOL    HW236075   4.901   8.298   3.323 -1.1769 -0.7057  0.8237
 8286SOL     OW36076   8.980   1.728   1.894  0.3185  0.4833 -0.6891
 8286SOL    HW136077   8.991   1.787   1.974  0.5073 -0.1388 -0.2524
 8286SOL    HW236078   8.884   1.701   1.885  0.4526 -0.2194 -0.1096
 8287SOL     OW36079   0.957   5.289   0.325 -0.4458 -0.4240  0.7435
 8287SOL    HW136080   0.897   5.309   0.247  1.0333  0.0252 -0.2933
 8287SOL    HW236081   0.927   5.343   0.404 -0.5363  0.8970 -0.1701
 8288SOL     OW36082   5.642   6.219   1.596  0.4544 -0.0504 -0.5927
 8288SOL    HW136083   5.714   6.156   1.623  0.1318 -0.6877 -1.1952
 8288SOL    HW236084   5.583   6.237   1.674 -0.3872 -1.7640 -0.8062
 8289SOL     OW36085   8.544   2.931   0.340 -0.6643 -0.0026  0.1686
 8289SOL    HW136086   8.560   2.935   0.241 -1.1020  1.3594  0.1431
 8289SOL    HW236087   8.517   3.021   0.373  1.1094 -0.0477  1.8323
 8290SOL     OW36088   0.182   0.316   1.705 -0.3478 -0.4882  0.7736
 8290SOL    HW136089   0.111   0.331   1.636 -0.2527  0.0418  0.7872
 8290SOL    HW236090   0.139   0.306   1.795 -0.3573  0.9463  0.9539
 8291SOL     OW36091   1.707   9.097   0.340  0.7049  0.6045  0.1157
 8291SOL    HW136092   1.613   9.064   0.336  1.4219 -1.3376 -1.6180
 8291SOL    HW236093   1.725   9.134   0.431 -2.3580  3.0247 -0.1729
 8292SOL     OW36094   1.487   6.279   1.307  0.4710 -0.3030 -0.0273
 8292SOL    HW136095   1.441   6.206   1.258  0.5177 -0.7741  0.6157
 8292SOL    HW236096   1.584   6.255   1.320  0.0701 -0.9910  1.8193
 8293SOL     OW36097   2.471   5.246   3.506  0.1409  0.0185 -0.2902
 8293SOL    HW136098   2.533   5.192   3.562  0.4852  1.4585  0.7394
 8293SOL    HW236099   2.506   5.251   3.413  1.3972  0.5465  0.2072
 8294SOL     OW36100   8.924   3.713   2.874 -0.2307  0.3568 -0.0556
 8294SOL    HW136101   8.904   3.694   2.778 -0.2778 -0.2574  0.0745
 8294SOL    HW236102   8.839   3.737   2.922 -0.4357 -0.7973  0.1650
 8295SOL     OW36103   1.622   9.481   1.158  0.2824 -0.1111 -0.1363
 8295SOL    HW136104   1.623   9.527   1.069  1.5042 -0.0375 -0.0858
 8295SOL    HW236105   1.548   9.414   1.159 -0.3868  0.5955 -0.8427
 8296SOL     OW36106   0.101   4.948   0.281  0.6923 -0.2693  0.3302
 8296SOL    HW136107   0.093   4.852   0.252  1.8517 -0.1167 -0.5579
 8296SOL    HW236108   0.128   4.952   0.377  0.9401 -0.8424  0.2873
 8297SOL     OW36109   4.964   4.630   4.059  0.4104 -0.7455 -0.0569
 8297SOL    HW136110   4.901   4.690   4.010  1.0149  0.5995  0.7948
 8297SOL    HW236111   5.059   4.655   4.037  0.6733 -1.5114  0.1567
 8298SOL     OW36112   3.892   7.443   1.530  0.1008 -0.6723  0.3922
 8298SOL    HW136113   3.822   7.393   1.479  1.9323 -1.5027 -1.3510
 8298SOL    HW236114   3.982   7.426   1.490  1.0199  2.4264  0.9641
 8299SOL     OW36115   7.293   7.276   5.808  0.9755 -0.2410  0.0462
 8299SOL    HW136116   7.390   7.270   5.784  1.1195  1.1699  0.2237
 8299SOL    HW236117   7.265   7.372   5.809 -0.5346 -0.6720 -0.4173
 8300SOL     OW36118   5.440   9.794   5.641 -0.2445  0.3614 -0.3390
 8300SOL    HW136119   5.472   9.855   5.568 -0.5150 -0.5166 -1.2099
 8300SOL    HW236120   5.359   9.745   5.609 -0.3233 -0.0864  0.5391
 8301SOL     OW36121   4.225   1.136   1.037 -0.1287  0.4782 -0.6462
 8301SOL    HW136122   4.148   1.073   1.029  0.7508 -0.9531  1.7584
 8301SOL    HW236123   4.238   1.162   1.132  2.3361  0.7268 -1.0119
 8302SOL     OW36124   2.670   0.238   2.847  0.2921  0.1420 -0.7286
 8302SOL    HW136125   2.574   0.249   2.873  0.5382 -1.7487  1.1199
 8302SOL    HW236126   2.675   0.209   2.751 -0.9431  0.8975 -1.0323
 8303SOL     OW36127   3.322   5.530   4.597 -0.2927  0.1501 -0.6785
 8303SOL    HW136128   3.251   5.591   4.633  0.5154  1.8205 -1.8623
 8303SOL    HW236129   3.408   5.547   4.645  0.1108  0.4652 -1.5014
 8304SOL     OW36130   4.097   3.261   2.505  0.1089 -0.0342  0.1392
 8304SOL    HW136131   4.107   3.218   2.595  0.4892  1.2866  0.7473
 8304SOL    HW236132   4.016   3.319   2.505  1.0363  1.3068  0.2101
 8305SOL     OW36133   3.050   3.025   2.763 -0.3583 -0.0471  0.0219
 8305SOL    HW136134   2.958   3.032   2.802 -0.2606  0.0786  0.2317
 8305SOL    HW236135   3.082   3.116   2.737  0.3181  0.1157  1.3664
 8306SOL     OW36136   2.823   8.920   8.101  0.2900 -0.5052  0.3458
 8306SOL    HW136137   2.818   8.869   8.186  1.5642  1.8487  1.8813
 8306SOL    HW236138   2.912   8.904   8.058  0.0024 -0.9767 -0.0724
 8307SOL     OW36139   4.567   1.856   2.920  0.7566  0.2003  0.5346
 8307SOL    HW136140   4.473   1.882   2.945  0.3793 -0.3280 -0.2827
 8307SOL    HW236141   4.604   1.924   2.857  0.7180  0.1296  0.4338
 8308SOL     OW36142   4.503   6.174   2.500  0.5184 -0.0499 -0.0288
 8308SOL    HW136143   4.448   6.093   2.520  1.4235 -0.3054  1.4777
 8308SOL    HW236144   4.463   6.223   2.422 -2.4164  0.3361  1.6524
 8309SOL     OW36145   2.999   9.781   6.150  0.3214  0.4196 -0.0928
 8309SOL    HW136146   3.004   9.876   6.179  2.6348  0.4630 -0.5309
 8309SOL    HW236147   2.944   9.729   6.216  0.5953  1.6861  1.1502
 8310SOL     OW36148   1.256   8.497   5.878 -0.1898 -0.3719 -0.3311
 8310SOL    HW136149   1.232   8.502   5.781 -2.4244 -0.7524  0.1702
 8310SOL    HW236150   1.286   8.404   5.899  0.9113 -0.1231 -0.7891
 8311SOL     OW36151   2.761   8.537   1.636  0.0063  0.2946  0.4380
 8311SOL    HW136152   2.758   8.437   1.641 -2.5828  0.3626  1.0210
 8311SOL    HW236153   2.722   8.576   1.719 -1.2885  1.7436 -0.8113
 8312SOL     OW36154   8.239   3.878   4.916  0.2505  0.4520  0.4477
 8312SOL    HW136155   8.311   3.883   4.985  0.3980 -0.1097  0.3335
 8312SOL    HW236156   8.196   3.788   4.918  0.6777  0.2140 -0.6093
 8313SOL     OW36157   8.340   9.989   6.461  0.2568  0.1540  0.2695
 8313SOL    HW136158   8.350   9.901   6.414 -0.6402  0.0943  0.1819
 8313SOL    HW236159   8.252  10.029   6.438 -0.5120 -0.2136  2.4554
 8314SOL     OW36160   7.374   7.581   3.923  0.0622  0.0363 -0.2418
 8314SOL    HW136161   7.463   7.622   3.900  0.3286 -0.2213  0.3159
 8314SOL    HW236162   7.328   7.553   3.838 -0.4019  2.0387 -0.6678
 8315SOL     OW36163   0.403   7.024   3.877  0.9881 -0.7058  0.2008
 8315SOL    HW136164   0.412   6.930   3.912  0.9334 -0.5726  0.5790
 8315SOL    HW236165   0.446   7.087   3.942  1.5202 -0.5226 -0.3258
 8316SOL     OW36166   6.207   1.801   1.264 -0.0471  0.7951 -0.1310
 8316SOL    HW136167   6.269   1.806   1.186  1.9034  1.6735  1.4560
 8316SOL    HW236168   6.139   1.874   1.256  0.5804  1.3350 -0.6407
 8317SOL     OW36169   4.155   2.416   1.382  0.1898  0.3357  0.4013
 8317SOL    HW136170   4.074   2.396   1.327  0.3190 -0.0182  0.3355
 8317SOL    HW236171   4.217   2.476   1.331  1.8594 -2.6329 -1.2029
 8318SOL     OW36172   8.342   9.150   4.638 -0.0077  0.4055  0.4257
 8318SOL    HW136173   8.258   9.176   4.590 -1.6311  1.5272  3.6918
 8318SOL    HW236174   8.414   9.216   4.616 -0.9876  1.4216  0.1773
 8319SOL     OW36175   4.188   0.615   0.959 -0.1063 -0.1878 -0.2363
 8319SOL    HW136176   4.240   0.581   0.881  1.6348  0.2835  0.6925
 8319SOL    HW236177   4.169   0.713   0.947 -1.1012 -0.4290 -0.7280
 8320SOL     OW36178   5.303   1.965   0.006 -0.0463  0.1550 -0.2155
 8320SOL    HW136179   5.276   1.872   0.030  1.3535  0.2033  1.6243
 8320SOL    HW236180   5.390   1.988   0.049 -1.1982  2.9091  0.8195
 8321SOL     OW36181   9.594   1.644   2.395 -0.0971  0.1677  0.0135
 8321SOL    HW136182   9.684   1.663   2.434  0.3188 -0.2514 -0.7369
 8321SOL    HW236183   9.530   1.717   2.421  0.7678  1.1087 -0.4735
 8322SOL     OW36184   4.582   7.071   3.885  0.1860  0.0238 -0.3162
 8322SOL    HW136185   4.493   7.109   3.909 -0.5912 -1.6097 -0.5241
 8322SOL    HW236186   4.614   7.112   3.799 -0.2698  0.7430 -0.1454
 8323SOL     OW36187   5.327   6.108   2.614 -1.0115 -0.1308 -0.1917
 8323SOL    HW136188   5.261   6.072   2.679 -1.0415 -0.4445 -0.3945
 8323SOL    HW236189   5.369   6.033   2.564 -1.0532  0.1105 -0.5936
 8324SOL     OW36190   4.932   1.038   4.790  0.6015 -0.0871  0.0139
 8324SOL    HW136191   4.980   1.073   4.870  0.1099 -0.0387  0.2914
 8324SOL    HW236192   4.846   1.088   4.777  0.3933 -0.4893 -0.1924
 8325SOL     OW36193   4.114   4.662   1.756 -0.0216 -0.0449  0.5545
 8325SOL    HW136194   4.181   4.731   1.729 -1.0552  0.3505 -1.0636
 8325SOL    HW236195   4.063   4.695   1.835  0.3629  0.4894  0.5840
 8326SOL     OW36196   4.119   4.118   1.532 -0.0934  0.4900 -0.3979
 8326SOL    HW136197   4.194   4.151   1.475  0.5273 -1.4930 -0.7594
 8326SOL    HW236198   4.054   4.068   1.475  0.2224 -0.9846  0.5288
 8327SOL     OW36199   7.773   6.862   4.732 -0.9217  0.2963  0.0460
 8327SOL    HW136200   7.675   6.862   4.751 -0.6158  0.0101  1.7765
 8327SOL    HW236201   7.815   6.781   4.775  0.0030  0.1755 -1.0553
 8328SOL     OW36202   8.734   1.423   0.334  0.3178 -0.1132  0.7084
 8328SOL    HW136203   8.759   1.337   0.288 -1.3845 -0.1939 -0.1035
 8328SOL    HW236204   8.778   1.427   0.424  1.5324 -1.1903  0.1819
 8329SOL     OW36205   6.960   9.631   3.972 -0.0691 -0.3102 -0.1835
 8329SOL    HW136206   7.044   9.679   3.997 -0.2337 -0.1247  0.0106
 8329SOL    HW236207   6.919   9.674   3.892 -0.6754  0.4141  0.5033
 8330SOL     OW36208   4.845   1.796   2.674  0.7780 -0.1675  0.1259
 8330SOL    HW136209   4.904   1.873   2.698 -0.2320  0.7817 -0.4227
 8330SOL    HW236210   4.845   1.783   2.575 -3.0242  2.3883 -0.3142
 8331SOL     OW36211   4.722   9.019   6.514  0.8148 -0.5905  0.0516
 8331SOL    HW136212   4.656   9.091   6.533 -1.2079 -2.0890 -1.0953
 8331SOL    HW236213   4.800   9.057   6.464  0.2979  0.9962  0.4313
 8332SOL     OW36214   9.501   5.124   2.556  0.5652  0.0681  0.4503
 8332SOL    HW136215   9.446   5.110   2.638 -1.0661  3.2576 -0.0054
 8332SOL    HW236216   9.581   5.181   2.578  0.2939  0.6652 -0.0953
 8333SOL     OW36217   4.940   1.654   6.416 -0.2031 -0.7988  0.1892
 8333SOL    HW136218   4.901   1.740   6.385  1.6061 -0.4181 -1.1253
 8333SOL    HW236219   4.982   1.606   6.339  0.6763 -1.8391  1.2910
 8334SOL     OW36220   1.967   4.405   3.585  0.0221 -0.3721  0.2294
 8334SOL    HW136221   1.943   4.465   3.508 -1.3121 -1.6659 -0.4005
 8334SOL    HW236222   1.925   4.440   3.669 -1.2382 -0.7075 -0.2378
 8335SOL     OW36223   4.054   1.553   5.272  0.1094 -0.0176 -0.0415
 8335SOL    HW136224   4.135   1.563   5.214  0.7813 -0.4286  0.8215
 8335SOL    HW236225   3.994   1.483   5.233  1.0138 -0.9817  0.2590
 8336SOL     OW36226   7.492   1.709   4.219  0.4771 -0.8901 -0.4588
 8336SOL    HW136227   7.457   1.731   4.128 -0.1830  0.5588  0.1192
 8336SOL    HW236228   7.498   1.793   4.273 -1.3151 -2.0100  1.5801
 8337SOL     OW36229   9.381   8.232   1.464 -0.0291 -0.2325 -0.3979
 8337SOL    HW136230   9.442   8.294   1.415 -1.3197  0.2591 -1.4243
 8337SOL    HW236231   9.359   8.153   1.406  0.2225 -0.7765  0.2431
 8338SOL     OW36232   3.205   5.973   2.750  0.0718 -0.1888  0.1438
 8338SOL    HW136233   3.129   6.038   2.751  0.1998 -0.0163 -0.7898
 8338SOL    HW236234   3.170   5.881   2.732  0.1722  0.0291 -1.2346
 8339SOL     OW36235   0.696   1.177   2.615 -0.2529 -0.0037 -0.2762
 8339SOL    HW136236   0.688   1.277   2.610 -1.5199 -0.1313 -1.2535
 8339SOL    HW236237   0.783   1.148   2.575  0.3641  0.7447  0.5142
 8340SOL     OW36238   8.718   1.982   4.209  0.8373 -0.9247  0.2015
 8340SOL    HW136239   8.637   1.980   4.150  1.1548  1.1821 -0.3722
 8340SOL    HW236240   8.789   1.924   4.170 -0.3043 -2.6282  0.5970
 8341SOL     OW36241   3.142   3.632   0.670 -0.3158  0.5139 -0.0679
 8341SOL    HW136242   3.202   3.699   0.713  0.6096 -0.1816 -0.2627
 8341SOL    HW236243   3.123   3.558   0.734 -2.2818  1.5147  0.5543
 8342SOL     OW36244   6.509   1.968   0.706 -0.3273  0.4958  0.2989
 8342SOL    HW136245   6.488   1.934   0.614  0.3335  1.1505 -0.0941
 8342SOL    HW236246   6.554   1.895   0.758  0.4860  0.5349 -0.3296
 8343SOL     OW36247   7.431   3.201   8.025  0.5435  0.1989 -0.3386
 8343SOL    HW136248   7.418   3.200   7.926  0.6764  1.6512 -0.3890
 8343SOL    HW236249   7.344   3.219   8.070  0.9015  2.0032 -0.3216
 8344SOL     OW36250   5.005   2.336   1.512 -0.0755 -0.4643  0.2213
 8344SOL    HW136251   5.044   2.390   1.587 -0.1622 -0.4740  0.2742
 8344SOL    HW236252   5.019   2.239   1.530 -1.0248 -0.5101  0.7468
 8345SOL     OW36253   1.649   7.431   2.818  0.1321 -0.6371  0.3286
 8345SOL    HW136254   1.694   7.493   2.753 -2.0370  0.6416  0.0137
 8345SOL    HW236255   1.714   7.361   2.847  2.3167  1.1296 -0.1580
 8346SOL     OW36256   1.814   5.699   3.423 -0.3612 -0.0890  0.1938
 8346SOL    HW136257   1.862   5.640   3.488 -0.6079 -0.4581  0.0432
 8346SOL    HW236258   1.856   5.790   3.423 -0.2924 -0.1196  0.7885
 8347SOL     OW36259   7.725   9.365   3.846  0.3251 -0.3749  0.2024
 8347SOL    HW136260   7.783   9.418   3.784 -0.0604 -0.1772  0.0108
 8347SOL    HW236261   7.698   9.279   3.803  2.9829 -1.8962  1.4324
 8348SOL     OW36262   4.997   4.794   1.876  0.0973 -0.4130 -0.5269
 8348SOL    HW136263   5.088   4.758   1.898  0.2261 -0.4300 -1.0715
 8348SOL    HW236264   4.927   4.737   1.918  0.3842  1.2337  2.3314
 8349SOL     OW36265   7.870   8.953   6.717 -0.1196 -0.0833 -0.0021
 8349SOL    HW136266   7.799   8.920   6.655  0.4146  0.5974 -1.0006
 8349SOL    HW236267   7.833   8.964   6.809 -1.3684  0.5179 -0.5755
 8350SOL     OW36268   7.383   2.781   4.042 -0.4628 -0.3456  0.1602
 8350SOL    HW136269   7.478   2.790   4.071 -0.3568  1.6319 -0.7294
 8350SOL    HW236270   7.323   2.812   4.115 -0.3286  0.7740 -0.1941
 8351SOL     OW36271   9.713   9.974   5.417  0.5296  0.1712  0.6051
 8351SOL    HW136272   9.761   9.917   5.483  0.3992 -1.2146 -0.4699
 8351SOL    HW236273   9.776  10.042   5.379  1.0170 -0.0934  0.9440
 8352SOL     OW36274   8.478   7.420   3.833  0.0868  0.7352 -0.5585
 8352SOL    HW136275   8.401   7.360   3.811  0.8730 -0.4973  0.0122
 8352SOL    HW236276   8.535   7.377   3.902  1.2809  1.6648 -0.9470
 8353SOL     OW36277   5.401   0.486   6.370 -0.1156 -0.1181  0.3993
 8353SOL    HW136278   5.466   0.481   6.446  0.4853 -1.8487 -0.2011
 8353SOL    HW236279   5.451   0.478   6.283 -1.1902 -2.3945 -0.0463
 8354SOL     OW36280   3.407   7.659   3.595 -0.4138 -0.1020  0.3498
 8354SOL    HW136281   3.394   7.630   3.689  0.2114  0.4470  0.6058
 8354SOL    HW236282   3.411   7.578   3.535 -0.4005 -0.4655  0.8440
 8355SOL     OW36283   1.428   2.094   1.178  0.1323  0.6311  0.0494
 8355SOL    HW136284   1.379   2.060   1.097 -1.8695  1.1994  0.9869
 8355SOL    HW236285   1.517   2.129   1.151 -0.3767  0.4965 -1.8723
 8356SOL     OW36286   2.920   5.321   2.934 -0.0627  0.2286  0.3037
 8356SOL    HW136287   2.989   5.262   2.893  0.0523 -0.2424  1.1482
 8356SOL    HW236288   2.965   5.389   2.992 -0.1659  1.4227 -0.9948
 8357SOL     OW36289   0.901   3.092   6.058 -0.1514  0.0159 -0.1934
 8357SOL    HW136290   0.894   2.993   6.057 -1.5726  0.0631  1.7769
 8357SOL    HW236291   0.995   3.119   6.081 -0.6339 -0.9292  3.1597
 8358SOL     OW36292   0.678   8.868   4.569 -0.6441  0.0342 -0.1745
 8358SOL    HW136293   0.692   8.928   4.648 -0.4275 -0.1034 -0.1086
 8358SOL    HW236294   0.764   8.856   4.521 -0.9320  0.7264 -0.8707
 8359SOL     OW36295   4.698   0.998   5.151  0.1508 -0.8383 -0.5588
 8359SOL    HW136296   4.695   0.904   5.118  0.5211 -0.6979 -0.9867
 8359SOL    HW236297   4.691   0.998   5.251  2.7932 -1.4630 -0.3430
 8360SOL     OW36298   8.192   4.273   1.064 -0.1696 -0.0967  0.0366
 8360SOL    HW136299   8.158   4.201   1.003  0.2820  0.6556 -1.1350
 8360SOL    HW236300   8.267   4.237   1.119  0.0253 -0.5474 -0.5093
 8361SOL     OW36301   2.083   5.185   0.971 -0.2960  0.3955 -0.3132
 8361SOL    HW136302   2.054   5.128   1.048 -0.7730 -0.2091 -0.9349
 8361SOL    HW236303   2.159   5.141   0.923  0.9559  1.4600  0.6593
 8362SOL     OW36304   1.818   0.664   2.910 -0.0257  0.2897 -0.0530
 8362SOL    HW136305   1.817   0.624   3.002 -0.6585  1.1612  0.3249
 8362SOL    HW236306   1.724   0.675   2.878  0.2133 -0.7124 -1.1201
 8363SOL     OW36307   6.245   9.331   4.683 -0.0838 -0.2398 -0.3792
 8363SOL    HW136308   6.338   9.295   4.673  0.0503  0.6406 -2.4557
 8363SOL    HW236309   6.247   9.431   4.684 -0.9013 -0.2206  0.8223
 8364SOL     OW36310   4.941   7.612   4.452 -0.3577  0.4713 -0.0616
 8364SOL    HW136311   4.929   7.695   4.398 -1.1741  1.4031  1.5047
 8364SOL    HW236312   5.035   7.607   4.486 -0.5605  1.2688  0.6402
 8365SOL     OW36313   5.740   6.061   1.061 -0.5812  0.4489  0.0314
 8365SOL    HW136314   5.715   5.984   1.002  0.9239 -1.4690  1.8133
 8365SOL    HW236315   5.660   6.092   1.111 -1.0921 -0.3401 -0.2843
 8366SOL     OW36316   0.809   3.520   3.931  0.0585  0.3101  0.1480
 8366SOL    HW136317   0.836   3.428   3.902  0.6764  0.2286  0.9643
 8366SOL    HW236318   0.851   3.541   4.020 -0.1506  1.3402  0.0128
 8367SOL     OW36319   9.066   2.223   3.968 -0.1052  0.3435  0.3980
 8367SOL    HW136320   9.007   2.217   4.048  1.2475  1.4757  1.4976
 8367SOL    HW236321   9.017   2.270   3.894 -0.5503  1.3727  1.3303
 8368SOL     OW36322   4.830   8.289   5.237 -0.4270  0.1711 -0.4336
 8368SOL    HW136323   4.917   8.290   5.188 -0.2633 -1.0740 -0.1772
 8368SOL    HW236324   4.755   8.304   5.172 -0.0205  1.5129 -0.6162
 8369SOL     OW36325   9.985   6.016   5.166 -0.0999 -0.6970 -0.2095
 8369SOL    HW136326   9.894   6.036   5.201  0.4647  0.3929  0.7024
 8369SOL    HW236327  10.035   5.961   5.233 -0.6576 -2.7335 -1.4470
 8370SOL     OW36328   3.306   6.732   4.326  0.6894  0.1230 -0.4752
 8370SOL    HW136329   3.226   6.739   4.266 -0.1719  0.6979  0.7312
 8370SOL    HW236330   3.349   6.643   4.313  0.4510  0.1988 -1.8705
 8371SOL     OW36331   3.104   1.374   2.309 -0.3716  0.1560  0.4326
 8371SOL    HW136332   3.100   1.411   2.402  1.0455 -0.0215  0.5729
 8371SOL    HW236333   3.037   1.422   2.252 -2.4848 -0.9212  1.9237
 8372SOL     OW36334   1.527   0.878   3.219 -0.1861 -0.0489 -0.0439
 8372SOL    HW136335   1.485   0.789   3.203  1.5938 -0.8458 -0.3779
 8372SOL    HW236336   1.527   0.898   3.317  0.1773 -0.8071  0.1163
 8373SOL     OW36337   1.062   7.114   5.906 -0.7983 -0.2166  0.1398
 8373SOL    HW136338   0.972   7.083   5.873 -1.3042  1.0810  0.2722
 8373SOL    HW236339   1.053   7.204   5.948  0.6015  0.0024  0.0012
 8374SOL     OW36340   8.276   4.725   3.547  0.1950 -0.6625  0.1489
 8374SOL    HW136341   8.296   4.724   3.449 -0.9745 -0.7877 -0.0977
 8374SOL    HW236342   8.298   4.636   3.586  0.8237 -0.5580  0.0351
 8375SOL     OW36343   2.167   0.942   0.195  0.0968 -0.6356 -0.4592
 8375SOL    HW136344   2.228   1.019   0.179 -0.7211 -0.0970 -1.0106
 8375SOL    HW236345   2.075   0.965   0.164 -0.4415 -1.3507  0.5902
 8376SOL     OW36346   4.368   4.479   1.417  0.1578  0.2329 -0.2219
 8376SOL    HW136347   4.375   4.475   1.317  2.2588  0.7163 -0.1075
 8376SOL    HW236348   4.326   4.394   1.450  1.7986 -1.0356 -1.3306
 8377SOL     OW36349   2.275   3.946   3.631  0.2675  0.3634  0.0469
 8377SOL    HW136350   2.225   4.032   3.629 -0.7519 -0.1652  1.4582
 8377SOL    HW236351   2.357   3.953   3.573  0.8599  2.6710  1.1019
 8378SOL     OW36352   5.083   0.994   2.445  0.0256 -0.0013 -0.1746
 8378SOL    HW136353   4.997   0.961   2.407 -0.0493 -0.5102  0.4312
 8378SOL    HW236354   5.118   0.927   2.510  0.3385  0.6917  0.3715
 8379SOL     OW36355   1.668   9.793   2.894  0.1552  0.2314 -0.5770
 8379SOL    HW136356   1.662   9.732   2.973  2.5533  0.7919  0.0957
 8379SOL    HW236357   1.610   9.873   2.908  1.7234  1.0704  1.3495
 8380SOL     OW36358   6.185   5.100   0.158  0.1609 -0.6561 -0.5011
 8380SOL    HW136359   6.251   5.090   0.232  1.1804 -0.8610 -1.4092
 8380SOL    HW236360   6.093   5.102   0.195  0.6489 -0.8920  0.7566
 8381SOL     OW36361   0.448   8.405   0.910  0.6559 -0.1212  0.2548
 8381SOL    HW136362   0.387   8.346   0.962  0.5675 -0.4851 -0.2500
 8381SOL    HW236363   0.522   8.349   0.870  0.0310 -0.0538 -1.0330
 8382SOL     OW36364   0.016   6.443   3.708 -0.4783 -0.2014 -0.0945
 8382SOL    HW136365   0.114   6.440   3.687 -0.1234 -0.3385  1.5054
 8382SOL    HW236366  -0.037   6.430   3.624  0.8413  3.4526 -1.5990
 8383SOL     OW36367   0.514   6.673   4.919 -0.6661 -0.2814  0.0530
 8383SOL    HW136368   0.581   6.680   4.993 -0.8599 -0.3440  0.2352
 8383SOL    HW236369   0.560   6.644   4.835 -0.3294  0.5068 -0.0308
 8384SOL     OW36370   2.057   8.992   1.763  0.0740  0.2372  0.4975
 8384SOL    HW136371   2.082   9.036   1.849 -0.7494  1.2113  0.2438
 8384SOL    HW236372   1.971   8.943   1.774  0.1658  0.0309  0.3241
 8385SOL     OW36373   3.644   1.615   3.271  0.1371 -0.4697  0.0437
 8385SOL    HW136374   3.617   1.694   3.216  3.3546 -0.8513 -2.2271
 8385SOL    HW236375   3.644   1.533   3.214 -2.0339 -1.9615  2.0938
 8386SOL     OW36376   4.081   3.223   4.522  0.0088  0.2900 -0.3330
 8386SOL    HW136377   4.073   3.129   4.488  0.3758 -1.1007  3.1603
 8386SOL    HW236378   4.158   3.268   4.476  2.0199 -2.2970  0.3546
 8387SOL     OW36379   2.393   8.706   5.970 -0.0138 -0.3518  0.1066
 8387SOL    HW136380   2.340   8.790   5.966 -0.0855 -0.3983  0.0741
 8387SOL    HW236381   2.344   8.633   5.921 -0.4806 -0.6999  1.0801
 8388SOL     OW36382   1.640   8.349   5.542 -0.0280  0.1358 -0.4142
 8388SOL    HW136383   1.636   8.322   5.638  1.3397  2.3244  0.3053
 8388SOL    HW236384   1.735   8.362   5.515 -0.4473  0.3462 -1.8225
 8389SOL     OW36385   4.601   2.199   0.393 -0.4635  0.1207 -0.4131
 8389SOL    HW136386   4.617   2.291   0.359 -0.4813 -0.0723 -0.9599
 8389SOL    HW236387   4.509   2.192   0.431 -0.6540  0.1909 -0.8535
 8390SOL     OW36388   0.720   4.518   2.735 -0.5541 -0.2442  0.5474
 8390SOL    HW136389   0.705   4.610   2.770  1.9750  0.3176  0.2357
 8390SOL    HW236390   0.780   4.468   2.797  0.9020 -0.5198 -1.0541
 8391SOL     OW36391   5.366   4.597   1.085 -0.0990  0.3675 -0.3436
 8391SOL    HW136392   5.278   4.642   1.074 -0.3965  0.1303  0.9228
 8391SOL    HW236393   5.368   4.513   1.030  0.7533  2.2824 -3.3273
 8392SOL     OW36394   3.778   9.244   5.762  0.0692 -0.1273 -0.6259
 8392SOL    HW136395   3.814   9.302   5.689  1.5803 -0.2943 -0.0356
 8392SOL    HW236396   3.678   9.239   5.755  0.1793  0.1001 -2.4832
 8393SOL     OW36397   3.040   1.134   2.654  0.1738 -0.2871  0.0330
 8393SOL    HW136398   3.085   1.139   2.564  0.5372 -1.8136  0.1119
 8393SOL    HW236399   3.028   1.038   2.679 -0.5648  0.1365  1.3084
 8394SOL     OW36400   9.693   0.491   5.094 -0.2722 -0.2210 -0.2994
 8394SOL    HW136401   9.694   0.391   5.107  0.8925  0.1515  2.7387
 8394SOL    HW236402   9.599   0.524   5.097 -0.5566 -1.0558  0.0632
 8395SOL     OW36403   5.465   9.779   1.521  0.0630 -0.5338 -0.0178
 8395SOL    HW136404   5.457   9.711   1.448 -0.6101  0.1938 -0.6355
 8395SOL    HW236405   5.391   9.846   1.512 -0.3585 -0.7472  1.6699
 8396SOL     OW36406   4.138   2.815   0.900 -0.3426 -0.1415 -0.1236
 8396SOL    HW136407   4.069   2.753   0.937  0.1566  0.1203  1.2864
 8396SOL    HW236408   4.095   2.900   0.870 -0.7704 -0.4189 -0.3002
 8397SOL     OW36409   0.150   2.867   0.586  0.5447 -0.3237 -0.3190
 8397SOL    HW136410   0.217   2.941   0.596  0.1485  0.4112 -2.6514
 8397SOL    HW236411   0.179   2.806   0.512 -0.0618 -1.4773  0.3755
 8398SOL     OW36412   4.491   0.674   6.333 -0.3710 -0.0116 -0.3832
 8398SOL    HW136413   4.563   0.658   6.266 -2.0180  1.9138 -2.7171
 8398SOL    HW236414   4.402   0.675   6.287 -1.7379 -0.4133  2.1326
 8399SOL     OW36415   7.321   3.175   4.120  0.5489  0.2276  0.4040
 8399SOL    HW136416   7.352   3.103   4.181 -0.9990 -0.7667  0.0531
 8399SOL    HW236417   7.321   3.262   4.169  0.5616 -0.3387  1.4292
 8400SOL     OW36418   6.003   7.807   4.209 -0.2026 -0.1963  0.1170
 8400SOL    HW136419   5.959   7.846   4.290 -0.5543 -1.0701  0.3539
 8400SOL    HW236420   5.989   7.868   4.131  1.1112  1.2194  0.9504
 8401SOL     OW36421   1.611   4.480   1.357 -0.2078  0.2624 -0.4468
 8401SOL    HW136422   1.662   4.489   1.271  1.7237  1.2344  0.7577
 8401SOL    HW236423   1.575   4.570   1.383  2.2229  0.7000  1.5380
 8402SOL     OW36424   6.837   9.335   4.304  0.0660  0.3716 -0.4203
 8402SOL    HW136425   6.906   9.263   4.311  0.3538  0.7812  1.2093
 8402SOL    HW236426   6.882   9.425   4.306 -0.5354  0.6775  1.8804
 8403SOL     OW36427   0.684   6.218   1.281 -0.3276  0.0043  0.2800
 8403SOL    HW136428   0.770   6.210   1.230 -0.7829 -2.1289 -0.2162
 8403SOL    HW236429   0.612   6.171   1.231 -1.3719  0.1177  1.6487
 8404SOL     OW36430   0.634   0.184   4.357 -0.3190  0.2880  0.3219
 8404SOL    HW136431   0.724   0.145   4.340  0.3621  2.1826 -0.5977
 8404SOL    HW236432   0.608   0.167   4.452  0.4965 -1.2562  0.2868
 8405SOL     OW36433   2.559   3.341   5.251 -0.0824  0.1597 -0.5360
 8405SOL    HW136434   2.632   3.294   5.199 -0.5545  0.3213 -1.3564
 8405SOL    HW236435   2.556   3.305   5.344 -1.0161 -2.0853 -1.3979
 8406SOL     OW36436   2.987   3.327   5.768 -0.2102  0.2917  0.1777
 8406SOL    HW136437   2.990   3.363   5.675 -0.4336  0.2047  0.1374
 8406SOL    HW236438   2.975   3.228   5.765 -2.6229  0.5479  0.3256
 8407SOL     OW36439   7.739   1.482   1.874 -0.4853 -0.1955  0.0342
 8407SOL    HW136440   7.757   1.391   1.837 -3.1825 -1.2475  1.2224
 8407SOL    HW236441   7.762   1.484   1.972  1.7956  1.1224 -0.4762
 8408SOL     OW36442   6.078   1.710   1.928  0.3683 -0.8070 -0.1372
 8408SOL    HW136443   6.116   1.737   2.016  0.5769  1.0047 -0.7643
 8408SOL    HW236444   6.141   1.735   1.855  0.4486 -2.7880 -0.7833
 8409SOL     OW36445   9.616   8.972   4.739 -0.2772  0.1618 -0.1236
 8409SOL    HW136446   9.681   8.994   4.666  0.7939 -4.3826 -0.6628
 8409SOL    HW236447   9.666   8.940   4.820 -1.6988 -0.3445  0.5637
 8410SOL     OW36448   7.149   2.076   2.062  0.4470 -0.2952 -0.7305
 8410SOL    HW136449   7.241   2.113   2.080  0.2469 -0.4507  0.7092
 8410SOL    HW236450   7.100   2.068   2.149 -1.4006  1.0074 -1.6520
 8411SOL     OW36451   2.956   4.376   1.049 -0.0163  0.5257  0.2683
 8411SOL    HW136452   2.922   4.465   1.081 -1.3486 -0.0703  0.5452
 8411SOL    HW236453   2.941   4.369   0.950 -1.3921 -0.0141  0.4974
 8412SOL     OW36454   0.877   5.224   5.783 -0.1556 -0.3147 -0.3297
 8412SOL    HW136455   0.852   5.191   5.874  0.3795  0.9435  0.2810
 8412SOL    HW236456   0.876   5.323   5.782  0.5563 -0.3061 -1.5085
 8413SOL     OW36457   2.894   3.084   0.822  0.2197 -0.3464  0.4801
 8413SOL    HW136458   2.798   3.093   0.797  0.3331  2.1059  0.7905
 8413SOL    HW236459   2.932   3.000   0.782 -1.2369  0.2285 -2.2160
 8414SOL     OW36460   2.729   8.862   4.751  0.0783  0.2452  0.2267
 8414SOL    HW136461   2.805   8.801   4.727  0.1448  0.1536  0.6612
 8414SOL    HW236462   2.690   8.901   4.668  0.2066 -0.1825 -0.0365
 8415SOL     OW36463   0.380   2.206   5.273  0.0404  0.1267  0.5313
 8415SOL    HW136464   0.331   2.119   5.274 -0.5334  0.4104 -1.2868
 8415SOL    HW236465   0.473   2.191   5.241 -0.0902  0.1865  0.1166
 8416SOL     OW36466   2.749   9.630   0.530 -0.0899  0.1459  0.1254
 8416SOL    HW136467   2.752   9.672   0.621  1.2029 -1.8720  1.0428
 8416SOL    HW236468   2.810   9.551   0.528 -1.5205 -0.9468 -1.9476
 8417SOL     OW36469   0.384   3.851   4.596 -0.6337 -0.0220 -0.2270
 8417SOL    HW136470   0.388   3.796   4.679 -0.7022 -1.8221 -1.3661
 8417SOL    HW236471   0.288   3.866   4.571 -0.6387  1.9109  0.8865
 8418SOL     OW36472   3.117   5.401   4.933 -0.0185  0.0415 -0.2882
 8418SOL    HW136473   3.059   5.327   4.968  0.4369 -0.5476 -0.7542
 8418SOL    HW236474   3.197   5.362   4.888  0.0819  0.8141 -0.7963
 8419SOL     OW36475   1.598   9.794   1.494  0.0405  0.2759  0.0235
 8419SOL    HW136476   1.546   9.878   1.482 -0.6199  0.0561  1.3229
 8419SOL    HW236477   1.540   9.724   1.536  0.8710 -0.5176 -0.1399
 8420SOL     OW36478   8.864   9.214   5.746  0.0383  0.0266 -0.2929
 8420SOL    HW136479   8.910   9.148   5.687  0.3533 -0.5202  0.5693
 8420SOL    HW236480   8.765   9.206   5.733  0.1393  0.5362 -1.4199
 8421SOL     OW36481   4.397   4.856   4.880 -0.1022 -0.0439  0.3598
 8421SOL    HW136482   4.497   4.860   4.884 -0.1883  0.5264  2.4379
 8421SOL    HW236483   4.361   4.947   4.860 -0.2181 -0.1305  0.1796
 8422SOL     OW36484   6.790   1.405   6.364 -0.0954 -0.6093  0.0051
 8422SOL    HW136485   6.840   1.339   6.421 -1.1960 -1.4474  0.0052
 8422SOL    HW236486   6.767   1.363   6.277  0.7019  0.3490 -0.6739
 8423SOL     OW36487   8.173   7.400   4.166  0.5090  0.0019  0.4492
 8423SOL    HW136488   8.258   7.452   4.175  0.8677 -0.4407 -0.3388
 8423SOL    HW236489   8.119   7.436   4.089 -0.1813  0.5011  1.1562
 8424SOL     OW36490   2.930   4.857   4.289  0.2578  0.1807 -0.0201
 8424SOL    HW136491   2.938   4.788   4.361  0.2436 -0.2527 -0.4322
 8424SOL    HW236492   2.908   4.812   4.202  0.3896  0.6906 -0.3173
 8425SOL     OW36493   9.759   8.416   5.520 -0.4814 -0.1790 -0.4954
 8425SOL    HW136494   9.667   8.451   5.503 -0.8901 -0.9723  0.0368
 8425SOL    HW236495   9.775   8.334   5.465  0.3895  0.6909 -1.5663
 8426SOL     OW36496   4.424   8.660   4.781 -0.1756 -0.3133 -0.5035
 8426SOL    HW136497   4.464   8.568   4.785  2.2815  0.7205 -0.6408
 8426SOL    HW236498   4.438   8.706   4.869 -0.8335  0.1739 -0.6523
 8427SOL     OW36499   8.516   6.278   3.106  0.6912  0.0876 -0.0586
 8427SOL    HW136500   8.521   6.343   3.182  0.4578  1.1504 -0.9346
 8427SOL    HW236501   8.442   6.213   3.122  0.9858 -0.0233  0.8711
 8428SOL     OW36502   4.116   5.950   1.960  0.2203 -0.3551  0.3928
 8428SOL    HW136503   4.055   5.927   2.036 -0.6638  2.9408  0.7666
 8428SOL    HW236504   4.210   5.928   1.985 -0.0812  0.5213  2.3805
 8429SOL     OW36505   7.176   2.348   3.406 -0.2322 -0.0942 -0.4546
 8429SOL    HW136506   7.207   2.430   3.454  3.4105  0.4651 -3.6161
 8429SOL    HW236507   7.088   2.366   3.363 -0.9522  1.1090  1.4371
 8430SOL     OW36508   4.160   1.483   4.566  0.0691 -0.8532  0.1040
 8430SOL    HW136509   4.233   1.419   4.542  0.9947  0.3337 -0.2484
 8430SOL    HW236510   4.176   1.571   4.521 -1.3218 -0.4304  0.4070
 8431SOL     OW36511   0.632   4.277   0.467  0.2508  0.1655 -0.5318
 8431SOL    HW136512   0.536   4.303   0.473 -0.0398 -1.1016  0.7129
 8431SOL    HW236513   0.659   4.270   0.371 -1.2107 -0.5463 -0.9011
 8432SOL     OW36514   0.635   3.170   6.084  0.5854  0.7260  0.2285
 8432SOL    HW136515   0.735   3.171   6.077  0.6663  2.0736  1.1917
 8432SOL    HW236516   0.602   3.076   6.086  2.0134  0.2366  2.0375
 8433SOL     OW36517   0.382   1.107   6.349  0.3263  0.4191 -0.0144
 8433SOL    HW136518   0.321   1.125   6.426 -1.2223 -1.2043 -0.8299
 8433SOL    HW236519   0.475   1.092   6.383 -0.3129 -0.1838  1.5250
 8434SOL     OW36520   1.325   3.125   4.403 -0.1586 -0.2358  0.0655
 8434SOL    HW136521   1.354   3.153   4.495 -1.0245 -1.2240  0.6555
 8434SOL    HW236522   1.286   3.033   4.408 -3.7024  1.1397 -0.6417
 8435SOL     OW36523   0.310   8.006   5.765 -0.0041  0.0715  0.1050
 8435SOL    HW136524   0.217   8.002   5.801 -0.8673  1.2608 -1.9076
 8435SOL    HW236525   0.320   7.937   5.692  0.4501  0.4620 -0.2036
 8436SOL     OW36526   0.891   1.376   4.340 -0.3025 -0.1951 -0.0537
 8436SOL    HW136527   0.847   1.458   4.305 -2.7584 -1.1923  0.5319
 8436SOL    HW236528   0.904   1.310   4.266 -1.2444 -0.4855  0.0237
 8437SOL     OW36529   3.427   1.157   4.049  0.2478  0.0679 -0.4138
 8437SOL    HW136530   3.360   1.226   4.022 -1.4824 -1.6194 -0.6184
 8437SOL    HW236531   3.452   1.101   3.970  0.1386 -0.7601  0.1285
 8438SOL     OW36532   0.914   0.121   1.154 -0.1936 -1.1296 -0.1703
 8438SOL    HW136533   0.829   0.120   1.102 -1.1617 -2.6940  1.3837
 8438SOL    HW236534   0.991   0.145   1.094 -1.7428  0.4526 -1.5508
 8439SOL     OW36535   8.817   7.742   5.428 -0.3153 -0.3775  0.3984
 8439SOL    HW136536   8.776   7.716   5.340  0.6360  2.4248 -0.9381
 8439SOL    HW236537   8.914   7.762   5.415 -0.2975  0.6144  1.9612
 8440SOL     OW36538   0.569   2.959   1.923  0.0299  0.2933 -0.0060
 8440SOL    HW136539   0.551   2.879   1.866  0.0111  0.7186 -0.6021
 8440SOL    HW236540   0.517   2.952   2.008 -0.6075  0.0661 -0.4092
 8441SOL     OW36541   5.104   9.819   1.726 -0.0133 -0.1244 -0.3316
 8441SOL    HW136542   5.029   9.796   1.664  0.0278  2.8065 -1.5053
 8441SOL    HW236543   5.151   9.900   1.693  2.0482 -0.3969  1.8295
 8442SOL     OW36544   9.429   8.765   4.700  0.1725  0.8003  0.4538
 8442SOL    HW136545   9.420   8.683   4.757 -1.3288 -0.3356 -1.3469
 8442SOL    HW236546   9.502   8.823   4.737  0.0562 -0.4571  2.8059
 8443SOL     OW36547   9.900   8.004   6.070  0.2163  0.2558 -0.3998
 8443SOL    HW136548   9.823   8.067   6.082  1.4923  1.8093 -0.1715
 8443SOL    HW236549   9.879   7.917   6.114 -1.6929  0.4205 -0.9705
 8444SOL     OW36550   0.297   4.169   2.210 -1.0799 -0.3858 -0.1083
 8444SOL    HW136551   0.377   4.118   2.178 -0.0383  1.4221 -0.4735
 8444SOL    HW236552   0.317   4.211   2.299 -1.0463  1.3078 -0.8814
 8445SOL     OW36553   6.215   1.745   5.604  0.4113 -0.3931 -0.4312
 8445SOL    HW136554   6.259   1.663   5.639  1.5342  0.8110  1.0834
 8445SOL    HW236555   6.163   1.723   5.521 -0.7569 -2.9419  0.9266
 8446SOL     OW36556   3.680   9.777   1.935  0.1658  0.4509  0.0575
 8446SOL    HW136557   3.613   9.850   1.917 -1.2158 -0.9443 -0.5907
 8446SOL    HW236558   3.706   9.780   2.031 -1.6318  0.3860  0.5692
 8447SOL     OW36559   8.945   7.731   3.939  0.2130 -0.8298 -0.7622
 8447SOL    HW136560   8.953   7.784   4.024 -1.6636 -0.4588 -0.8127
 8447SOL    HW236561   9.024   7.750   3.881  1.1846 -0.5785  0.6185
 8448SOL     OW36562   5.344   6.306   1.018 -0.3593  0.1884 -0.3450
 8448SOL    HW136563   5.351   6.293   0.920 -0.3181  0.3145 -0.3587
 8448SOL    HW236564   5.250   6.331   1.042 -0.4724 -0.2722 -0.3017
 8449SOL     OW36565   1.525   5.707   3.604 -0.2629  0.3953  0.1421
 8449SOL    HW136566   1.545   5.630   3.665  0.0958 -0.3249 -0.8505
 8449SOL    HW236567   1.611   5.753   3.580 -0.3900  0.6038  0.0887
 8450SOL     OW36568   1.086   4.656   4.238 -0.3739  0.1067 -0.1053
 8450SOL    HW136569   1.042   4.622   4.321  0.5970 -0.3750  0.2218
 8450SOL    HW236570   1.162   4.595   4.214 -0.6996  0.1947 -1.3926
 8451SOL     OW36571   8.045   8.765   2.555 -0.1542  0.1669  0.8912
 8451SOL    HW136572   8.066   8.847   2.502  1.6505  0.1210  1.4686
 8451SOL    HW236573   8.124   8.703   2.553 -0.4959 -0.3640  2.6312
 8452SOL     OW36574   2.055   1.734   0.735 -0.2076 -0.0121  0.6079
 8452SOL    HW136575   2.078   1.718   0.639 -0.0728 -0.7814  0.7643
 8452SOL    HW236576   1.989   1.665   0.765 -1.3268  1.0756  0.6810
 8453SOL     OW36577   7.796   5.627   1.320  0.1844  0.0173  0.0768
 8453SOL    HW136578   7.829   5.561   1.388 -3.2690  0.1674  1.9840
 8453SOL    HW236579   7.809   5.720   1.354 -0.1410  0.1510 -0.1598
 8454SOL     OW36580   4.189   5.030   1.886  0.1569 -0.2611 -0.1485
 8454SOL    HW136581   4.098   5.033   1.844 -0.3391  1.5241  1.0198
 8454SOL    HW236582   4.187   4.970   1.966 -0.0382 -0.0347  0.0141
 8455SOL     OW36583   7.589   4.210   2.684  0.7058 -0.3879  0.7260
 8455SOL    HW136584   7.626   4.143   2.749  1.8615 -0.5843 -0.1023
 8455SOL    HW236585   7.490   4.204   2.681  0.7078 -0.9689  1.8358
 8456SOL     OW36586   3.917   9.700   1.819  0.0512  0.0008 -0.7361
 8456SOL    HW136587   3.823   9.721   1.847  0.4954  0.9586  0.0315
 8456SOL    HW236588   3.955   9.778   1.770  1.6938  1.0313  2.0874
 8457SOL     OW36589   0.940   2.103   6.217 -0.5303 -0.0527 -0.0831
 8457SOL    HW136590   0.968   2.041   6.291 -0.6168 -1.1322 -0.9402
 8457SOL    HW236591   0.842   2.093   6.201 -0.6694  0.7996  0.2228
 8458SOL     OW36592   9.738   8.939   3.474  0.1317  0.1704  0.4604
 8458SOL    HW136593   9.673   8.872   3.438  0.9574  0.5541 -1.7856
 8458SOL    HW236594   9.820   8.891   3.506 -0.4518 -0.1351  1.5396
 8459SOL     OW36595   8.720   6.996   4.515  0.3642 -0.2127 -0.4968
 8459SOL    HW136596   8.628   6.985   4.551  1.2590 -1.0012  1.6415
 8459SOL    HW236597   8.729   6.944   4.430 -0.4116 -2.2847  0.6440
 8460SOL     OW36598   1.978   9.992   5.119 -0.0209 -0.4997 -0.0098
 8460SOL    HW136599   1.950   9.896   5.127  2.1746 -1.2198 -0.4267
 8460SOL    HW236600   1.902  10.051   5.144 -2.0263 -2.3158 -1.5871
 8461SOL     OW36601   5.963   4.636   1.195 -0.0309 -0.1087 -0.1489
 8461SOL    HW136602   5.871   4.625   1.157 -0.1894  0.5044  0.0435
 8461SOL    HW236603   5.982   4.733   1.208  1.4448 -0.0903 -2.1396
 8462SOL     OW36604   8.963   1.799   4.497 -0.3465 -0.2035 -0.3471
 8462SOL    HW136605   9.004   1.711   4.520  0.3053 -0.0672 -0.9619
 8462SOL    HW236606   9.016   1.872   4.540 -0.9058 -0.1078  0.1885
 8463SOL     OW36607   9.226   0.272   3.815  0.4779  0.5732 -0.0196
 8463SOL    HW136608   9.169   0.197   3.851 -0.9663  1.8045  0.3158
 8463SOL    HW236609   9.227   0.267   3.715 -0.5536  0.7733 -0.0451
 8464SOL     OW36610   1.141   5.547   2.692 -0.6500 -0.1181  0.2555
 8464SOL    HW136611   1.132   5.645   2.712 -1.0901 -0.4514  1.7336
 8464SOL    HW236612   1.225   5.512   2.733 -1.2790 -0.6890  1.0807
 8465SOL     OW36613   2.395   9.637   0.852 -0.4236  0.0635 -0.0775
 8465SOL    HW136614   2.331   9.706   0.818  0.6038  0.5085 -1.0983
 8465SOL    HW236615   2.447   9.598   0.776  0.6494 -0.1855  0.7710
 8466SOL     OW36616   0.018   5.191   3.615 -0.1243  0.0242 -0.5112
 8466SOL    HW136617   0.108   5.147   3.626 -0.4335 -0.3468  0.6241
 8466SOL    HW236618   0.021   5.255   3.538  1.7827  1.7406  0.9412
 8467SOL     OW36619   7.435   4.397   5.707  0.1598 -0.3479 -0.0722
 8467SOL    HW136620   7.485   4.318   5.742 -1.7958 -1.2147  0.8285
 8467SOL    HW236621   7.462   4.479   5.758 -0.6026 -1.1134  1.5807
 8468SOL     OW36622   9.952   4.836   3.530  0.1683 -0.2430  0.0151
 8468SOL    HW136623   9.899   4.751   3.532  0.6937 -0.5649  0.9652
 8468SOL    HW236624   9.922   4.895   3.605  0.3126  0.0953 -0.1951
 8469SOL     OW36625   9.594   3.690   2.012 -0.5490  0.0293  0.2654
 8469SOL    HW136626   9.503   3.730   2.021  0.4627  1.8642  3.2750
 8469SOL    HW236627   9.600   3.608   2.069 -0.8611 -1.1410 -1.3706
 8470SOL     OW36628   7.165   2.950   4.954  0.3526  0.2489 -0.0925
 8470SOL    HW136629   7.155   3.033   4.899 -0.4523  0.5024  0.4172
 8470SOL    HW236630   7.221   2.883   4.905  2.1344  1.6041  0.0704
 8471SOL     OW36631   8.568   5.377   1.483 -0.0660  0.4025 -0.0828
 8471SOL    HW136632   8.518   5.463   1.492  2.2410  1.9879 -1.8772
 8471SOL    HW236633   8.556   5.322   1.566 -1.9381  2.2190  0.8954
 8472SOL     OW36634   0.782   1.204   2.038  0.2823  0.3454  0.0314
 8472SOL    HW136635   0.721   1.142   2.086 -0.3093  1.2876  0.5104
 8472SOL    HW236636   0.858   1.230   2.098  0.7766 -0.2600 -0.3215
 8473SOL     OW36637   9.490   0.261   3.374 -0.0148 -0.3834  0.0833
 8473SOL    HW136638   9.530   0.347   3.407 -0.2928 -0.4749  0.6583
 8473SOL    HW236639   9.429   0.224   3.443 -0.0662 -0.9346 -0.2565
 8474SOL     OW36640   0.240   7.338   8.173  0.4126  0.0515  0.0235
 8474SOL    HW136641   0.207   7.363   8.082 -1.4066 -0.3485  0.5503
 8474SOL    HW236642   0.225   7.414   8.236  0.5253 -0.1245  0.2659
 8475SOL     OW36643   1.088   6.809   3.797  0.0786 -0.2395  0.2272
 8475SOL    HW136644   1.004   6.763   3.827  0.3829 -0.3109  0.9661
 8475SOL    HW236645   1.070   6.907   3.786  0.3278  0.0173  1.9996
 8476SOL     OW36646   0.995   2.645   5.231  0.3734  0.0151 -0.5501
 8476SOL    HW136647   0.944   2.729   5.252  0.1157 -0.0356 -0.9790
 8476SOL    HW236648   0.933   2.567   5.232  0.2373  0.0890 -2.1187
 8477SOL     OW36649   0.454   8.213   0.376 -0.3335 -0.0656 -0.1688
 8477SOL    HW136650   0.425   8.257   0.291  0.3851  0.6365 -0.0552
 8477SOL    HW236651   0.428   8.270   0.454 -0.0878 -0.2140  0.0245
 8478SOL     OW36652   9.534   3.540   0.201  0.3072  0.3539 -0.4701
 8478SOL    HW136653   9.453   3.552   0.144  2.2747  1.3694 -3.1778
 8478SOL    HW236654   9.560   3.443   0.204  0.0833  0.2766 -1.1412
 8479SOL     OW36655   4.557   4.146   1.545 -0.2450 -0.3324  0.1016
 8479SOL    HW136656   4.600   4.074   1.491 -0.2431 -1.9724  2.1946
 8479SOL    HW236657   4.624   4.184   1.609 -0.8683 -0.1727  0.6684
 8480SOL     OW36658   2.355   9.471   1.314 -0.0238  0.4071  0.0674
 8480SOL    HW136659   2.371   9.519   1.400  0.9265  0.0945  0.0705
 8480SOL    HW236660   2.387   9.528   1.238  0.2595  0.1688  0.0073
 8481SOL     OW36661   9.941   2.629   5.309 -0.0617  0.1302 -0.6585
 8481SOL    HW136662   9.915   2.676   5.225 -0.1360 -1.4404 -1.5409
 8481SOL    HW236663   9.933   2.530   5.296 -1.4575 -0.1251  1.6437
 8482SOL     OW36664   4.311   7.679   3.528  0.1017 -0.4042  0.5052
 8482SOL    HW136665   4.409   7.662   3.524  0.3390  1.3207 -1.9140
 8482SOL    HW236666   4.262   7.604   3.485  0.3842 -0.8966  1.0329
 8483SOL     OW36667   7.060   4.136   1.575  0.5752 -0.2605  0.1338
 8483SOL    HW136668   7.048   4.043   1.608 -0.4356 -1.4366 -3.3202
 8483SOL    HW236669   7.136   4.140   1.510 -0.5553  0.8703 -1.1855
 8484SOL     OW36670   6.933   8.389   4.329 -0.3660 -0.1885 -0.0614
 8484SOL    HW136671   6.916   8.448   4.407 -0.0936 -2.8252  2.0723
 8484SOL    HW236672   6.982   8.440   4.259  1.2103  1.6992  2.3300
 8485SOL     OW36673   7.689   8.805   5.216  0.5050  0.2160  0.1192
 8485SOL    HW136674   7.756   8.772   5.149  1.1315  0.0665  0.8072
 8485SOL    HW236675   7.609   8.745   5.215  1.1541 -0.6794  0.5538
 8486SOL     OW36676   8.935   4.573   5.525  0.0056  0.5869 -0.3722
 8486SOL    HW136677   8.906   4.511   5.452  1.4240 -1.7782  1.0087
 8486SOL    HW236678   9.031   4.597   5.512 -0.1183  1.2508 -0.0481
 8487SOL     OW36679   0.093   4.028   1.560 -0.0716 -0.3252  0.3617
 8487SOL    HW136680   0.167   3.962   1.547 -0.1786 -0.5573  0.9258
 8487SOL    HW236681   0.131   4.120   1.569  0.0828 -0.3187 -0.3370
 8488SOL     OW36682   9.547   0.458   3.588 -0.1008 -0.8386  0.1323
 8488SOL    HW136683   9.471   0.439   3.650 -2.9449  1.3141 -2.5475
 8488SOL    HW236684   9.600   0.535   3.622  0.1882 -1.5729  1.3782
 8489SOL     OW36685   9.969   1.013   1.227 -0.0823  0.2848 -0.4218
 8489SOL    HW136686   9.960   0.918   1.255  1.0764  0.2102 -0.2654
 8489SOL    HW236687   9.915   1.071   1.287 -0.1027 -0.1946  0.0234
 8490SOL     OW36688   2.682   4.611   3.822  0.4013  0.0450 -0.5738
 8490SOL    HW136689   2.657   4.645   3.913 -1.4765 -0.4984 -0.8584
 8490SOL    HW236690   2.772   4.568   3.825  1.3957  2.1216  0.5034
 8491SOL     OW36691   0.464   7.639   2.177  0.4250 -0.0889 -0.0597
 8491SOL    HW136692   0.425   7.612   2.089 -0.2718 -0.7165  0.4379
 8491SOL    HW236693   0.504   7.559   2.222  0.4059  0.1450  0.3800
 8492SOL     OW36694   7.725   1.187   3.834  0.2823 -0.0646  0.4325
 8492SOL    HW136695   7.673   1.198   3.919 -1.8277 -2.0017 -0.5351
 8492SOL    HW236696   7.816   1.152   3.854  0.8322  2.2136  2.0843
 8493SOL     OW36697   2.118   5.408   2.920  0.1450 -0.1542  0.3151
 8493SOL    HW136698   2.094   5.466   2.842  0.0378  0.0860  0.5282
 8493SOL    HW236699   2.165   5.462   2.989  0.6213 -0.4612  0.2305
 8494SOL     OW36700   2.705   8.554   4.506 -0.0095 -0.1836  0.9496
 8494SOL    HW136701   2.738   8.535   4.414 -0.4714  0.8559  0.5572
 8494SOL    HW236702   2.776   8.602   4.558  1.0596 -2.6606  1.8558
 8495SOL     OW36703   3.495   3.160   3.392  0.1001 -0.3432  0.1602
 8495SOL    HW136704   3.563   3.214   3.342 -0.1103 -0.0486  0.1905
 8495SOL    HW236705   3.480   3.200   3.482 -1.9050  1.0268 -0.7413
 8496SOL     OW36706   6.710   9.885   5.061 -0.2557  0.4688 -0.0364
 8496SOL    HW136707   6.680   9.809   5.003  1.9125 -0.1222 -0.4205
 8496SOL    HW236708   6.709   9.969   5.007 -2.3119  0.6983  0.2894
 8497SOL     OW36709   7.196   7.266   3.293  0.2218  0.0906  0.1215
 8497SOL    HW136710   7.245   7.339   3.245  1.2028 -0.1078  0.8171
 8497SOL    HW236711   7.146   7.210   3.227 -1.7076  2.2442 -0.3150
 8498SOL     OW36712   4.177   0.357   2.805 -0.0873 -0.0323  0.3154
 8498SOL    HW136713   4.185   0.257   2.806  1.0250  0.0537  0.4490
 8498SOL    HW236714   4.141   0.388   2.894  1.7692 -0.1466  1.1232
 8499SOL     OW36715   7.952   2.876   4.505 -0.4572 -0.7852  0.4758
 8499SOL    HW136716   7.948   2.921   4.416  0.1905 -1.8489 -0.1064
 8499SOL    HW236717   7.860   2.857   4.537 -0.7412  0.8735  0.7039
 8500SOL     OW36718   8.816   9.314   3.463 -0.6344 -0.4633  0.3236
 8500SOL    HW136719   8.900   9.283   3.418 -0.6093 -2.8204  1.9562
 8500SOL    HW236720   8.828   9.313   3.562 -2.4332 -0.3186  0.5648
 8501SOL     OW36721   4.472   6.525   1.692 -0.2975 -0.2255  0.6622
 8501SOL    HW136722   4.375   6.544   1.703 -0.1920  0.4515  0.4355
 8501SOL    HW236723   4.489   6.427   1.706 -1.3986 -0.8141 -1.9694
 8502SOL     OW36724   4.506   8.535   5.558 -0.2680  0.3938  0.0723
 8502SOL    HW136725   4.459   8.562   5.642 -0.0688 -1.3558  0.7742
 8502SOL    HW236726   4.473   8.591   5.482 -2.5985  0.0367  0.7814
 8503SOL     OW36727   8.700   6.639   1.877  0.1218  0.6689  0.5795
 8503SOL    HW136728   8.695   6.690   1.790 -0.2611 -0.2915  0.0357
 8503SOL    HW236729   8.778   6.672   1.930  0.4344  1.1814 -0.1866
 8504SOL     OW36730   5.656   7.929   6.130 -0.0541 -0.3163  0.2576
 8504SOL    HW136731   5.567   7.919   6.174 -0.5413  0.6071 -0.5113
 8504SOL    HW236732   5.645   7.924   6.031  0.5407  1.3814  0.1002
 8505SOL     OW36733   3.559   6.597   8.172  0.5609 -0.3626  0.0764
 8505SOL    HW136734   3.478   6.639   8.212  1.0599  0.5509  0.1399
 8505SOL    HW236735   3.531   6.524   8.108 -0.3194  0.3430 -0.3551
 8506SOL     OW36736   9.329   2.059   6.553 -0.2452 -0.3115  0.2451
 8506SOL    HW136737   9.299   2.148   6.588 -0.6952 -0.2670 -0.2389
 8506SOL    HW236738   9.249   2.002   6.535  0.0344 -0.7567  0.4089
 8507SOL     OW36739   3.307   4.597   3.948  0.1462 -0.4275  0.0739
 8507SOL    HW136740   3.278   4.690   3.926  0.0047 -0.2751  0.8948
 8507SOL    HW236741   3.361   4.560   3.872 -1.3666 -0.3629 -1.0481
 8508SOL     OW36742   1.488   5.649   2.669 -0.2615 -0.0459 -0.7925
 8508SOL    HW136743   1.453   5.566   2.713 -0.7048  0.7149  0.2774
 8508SOL    HW236744   1.588   5.643   2.661 -0.0423  0.3865  1.4906
 8509SOL     OW36745   0.181   8.559   4.813  0.2490 -0.1773  0.2630
 8509SOL    HW136746   0.179   8.658   4.797  0.9022 -0.3802 -1.1680
 8509SOL    HW236747   0.236   8.515   4.742  1.1325 -1.4317  1.6768
 8510SOL     OW36748   4.856   8.126   2.797  0.3493 -0.0096 -0.2818
 8510SOL    HW136749   4.928   8.129   2.728  1.9977 -0.8767  1.3685
 8510SOL    HW236750   4.856   8.037   2.842 -1.0654  0.3627  0.4886
 8511SOL     OW36751   2.988   3.542   4.072 -0.0365 -0.4443  0.6795
 8511SOL    HW136752   2.995   3.642   4.069  2.2110 -0.5701  1.2394
 8511SOL    HW236753   2.997   3.506   3.979 -2.3551 -0.0686  0.2737
 8512SOL     OW36754   3.720   4.326   0.302  0.3561 -0.1322 -0.6362
 8512SOL    HW136755   3.629   4.342   0.263 -0.2445 -0.2720  0.6901
 8512SOL    HW236756   3.741   4.229   0.300 -0.1819 -0.2777  0.4820
 8513SOL     OW36757   1.502   3.957   2.128 -0.2399 -0.2046 -0.2842
 8513SOL    HW136758   1.470   3.969   2.222  1.1772  0.9321  0.0733
 8513SOL    HW236759   1.597   3.989   2.121 -0.0093 -1.2052 -1.8749
 8514SOL     OW36760   4.199   9.248   1.109 -0.1380  0.2011 -0.3644
 8514SOL    HW136761   4.176   9.288   1.020 -0.2095  0.7887 -0.0843
 8514SOL    HW236762   4.130   9.274   1.176  0.1206  0.0768 -0.0471
 8515SOL     OW36763   9.664   8.260   8.055  0.4351  0.2384 -0.5768
 8515SOL    HW136764   9.729   8.272   7.980  0.1090 -0.3127 -0.9647
 8515SOL    HW236765   9.681   8.327   8.126  0.3910  1.1408 -1.4071
 8516SOL     OW36766   3.708   6.283   2.270  0.1451 -0.2642 -0.3025
 8516SOL    HW136767   3.741   6.243   2.185  1.5158  0.0220  0.0783
 8516SOL    HW236768   3.608   6.283   2.270  0.1287 -0.9253 -1.5915
 8517SOL     OW36769   1.487   0.281   0.759 -0.3558 -0.2796  0.4572
 8517SOL    HW136770   1.499   0.216   0.683  0.9315  0.7417 -0.2427
 8517SOL    HW236771   1.428   0.356   0.729 -0.1263 -0.0519  0.5770
 8518SOL     OW36772   1.806   8.268   0.698  0.2799  0.1996  0.8147
 8518SOL    HW136773   1.771   8.267   0.792 -0.0468  0.7074  0.7033
 8518SOL    HW236774   1.897   8.309   0.696  0.0967  0.6075  0.8465
 8519SOL     OW36775   4.835   9.272   2.461  0.0951 -0.2936  0.2640
 8519SOL    HW136776   4.881   9.187   2.488  1.2678 -0.5103 -2.2344
 8519SOL    HW236777   4.746   9.251   2.421 -0.0234 -0.2547  0.5018
 8520SOL     OW36778   9.798   4.887   0.447 -0.0534 -0.0333 -0.3064
 8520SOL    HW136779   9.881   4.929   0.411  0.1969 -0.0848  0.2046
 8520SOL    HW236780   9.732   4.874   0.373  1.1760 -1.8681 -1.1307
 8521SOL     OW36781   0.863   2.021   3.195  0.0517  0.0612  0.2670
 8521SOL    HW136782   0.962   2.009   3.205  0.3878  2.1785 -0.3617
 8521SOL    HW236783   0.818   1.989   3.279  1.2504 -0.9760  0.5353
 8522SOL     OW36784   9.257   0.490   3.191 -0.1893 -0.0792 -0.3944
 8522SOL    HW136785   9.311   0.540   3.258  0.0966 -0.3278 -0.4395
 8522SOL    HW236786   9.202   0.555   3.137 -0.4817  0.1103  0.1301
 8523SOL     OW36787   9.379   1.848   2.179  0.4912  0.2055  0.1551
 8523SOL    HW136788   9.375   1.859   2.279  0.1448  1.7906 -0.0104
 8523SOL    HW236789   9.321   1.917   2.137  2.3819  0.9807 -1.2267
 8524SOL     OW36790   0.522   1.441   1.164  0.2789 -0.1307  1.0385
 8524SOL    HW136791   0.430   1.435   1.203  0.5014 -1.5468  1.3706
 8524SOL    HW236792   0.589   1.442   1.237  0.6466 -1.7252  0.7443
 8525SOL     OW36793   5.018   6.174   0.841  0.1402  0.1871 -0.2381
 8525SOL    HW136794   4.919   6.169   0.826  0.2228  0.3899 -0.8756
 8525SOL    HW236795   5.040   6.253   0.898 -0.1080 -0.1346  0.3066
 8526SOL     OW36796   1.810   8.314   3.511 -0.1053  0.3268  0.4728
 8526SOL    HW136797   1.876   8.287   3.441 -0.6608  3.4113 -1.3068
 8526SOL    HW236798   1.744   8.240   3.524  1.3559 -1.2025 -0.5927
 8527SOL     OW36799   3.317   2.746   2.669 -0.2467  0.3391  0.8615
 8527SOL    HW136800   3.229   2.755   2.623  0.8619  0.2298 -1.3786
 8527SOL    HW236801   3.329   2.821   2.734 -1.0682  1.5757 -0.3990
 8528SOL     OW36802   4.175   1.739   4.399 -0.2078 -0.2977 -0.4102
 8528SOL    HW136803   4.111   1.813   4.378 -0.3229 -0.7850 -1.7684
 8528SOL    HW236804   4.243   1.772   4.465 -1.0541  0.6188  0.0118
 8529SOL     OW36805   1.798   6.914   1.815 -0.3956 -0.3589  0.0195
 8529SOL    HW136806   1.715   6.959   1.845 -1.1405 -2.0241  0.5026
 8529SOL    HW236807   1.789   6.815   1.827  1.9251 -0.5123  0.7828
 8530SOL     OW36808   2.744   2.247   5.047 -0.4556  0.1077  0.5556
 8530SOL    HW136809   2.745   2.307   4.967  0.1807  1.9460  1.9193
 8530SOL    HW236810   2.651   2.214   5.063 -1.3085  2.7161  1.2176
 8531SOL     OW36811   3.783   9.055   2.923  0.4101 -0.1032  0.3847
 8531SOL    HW136812   3.824   9.104   2.846 -1.4726 -0.7779 -1.0782
 8531SOL    HW236813   3.753   9.121   2.992 -0.4235  0.6984 -0.7270
 8532SOL     OW36814   3.730   4.295   1.392 -1.1062 -0.0371  0.8667
 8532SOL    HW136815   3.789   4.302   1.472  1.9262 -1.1398 -1.1890
 8532SOL    HW236816   3.714   4.199   1.370  1.6678  0.1267 -2.2948
 8533SOL     OW36817   1.731   6.252   5.883  0.4311  0.1893 -0.4374
 8533SOL    HW136818   1.797   6.221   5.814  0.7008  3.1238 -1.5501
 8533SOL    HW236819   1.646   6.281   5.838  0.1063  0.8772  0.5977
 8534SOL     OW36820   3.997   8.213   6.361 -0.4292 -0.2987 -0.4774
 8534SOL    HW136821   4.089   8.211   6.321 -0.5342  0.2130 -0.7583
 8534SOL    HW236822   4.001   8.179   6.455 -0.0795 -0.9597 -0.7276
 8535SOL     OW36823   4.100   0.939   4.087 -0.0211 -0.0375 -0.1003
 8535SOL    HW136824   4.180   0.997   4.073  1.0746 -1.4170  0.2988
 8535SOL    HW236825   4.028   0.992   4.133  0.6916  1.1810 -0.3607
 8536SOL     OW36826   1.478   5.690   4.751 -0.2200 -0.3790  0.1522
 8536SOL    HW136827   1.524   5.733   4.828  0.6837 -0.9897 -0.0418
 8536SOL    HW236828   1.487   5.747   4.669  1.0834 -0.9822 -0.1346
 8537SOL     OW36829   3.907   8.479   1.109  0.1196 -0.0567  0.0477
 8537SOL    HW136830   3.839   8.441   1.171 -2.7763  0.9831 -2.3558
 8537SOL    HW236831   3.976   8.409   1.088 -1.7899 -2.0842  0.3214
 8538SOL     OW36832   4.172   2.500   2.027 -0.1552 -0.4119 -0.2612
 8538SOL    HW136833   4.143   2.531   2.117  0.0838 -0.9477  0.0046
 8538SOL    HW236834   4.256   2.446   2.035 -0.1699 -0.5250 -0.7943
 8539SOL     OW36835   1.981   6.104   5.684 -0.3958 -0.0112 -0.3743
 8539SOL    HW136836   2.030   6.059   5.758  0.2905  0.7475 -0.3539
 8539SOL    HW236837   2.030   6.188   5.658 -0.6716 -0.2247 -1.6196
 8540SOL     OW36838   0.631   1.317   0.367  0.3841 -0.1458  0.0245
 8540SOL    HW136839   0.708   1.381   0.371  0.5330 -0.1839 -2.0782
 8540SOL    HW236840   0.665   1.223   0.367  0.2162 -0.2293  1.6309
 8541SOL     OW36841   5.329   9.270   3.412 -0.2969  0.1558 -0.2975
 8541SOL    HW136842   5.356   9.273   3.316 -1.2529  2.2910 -0.5342
 8541SOL    HW236843   5.230   9.256   3.418 -0.1518 -0.5935  0.3913
 8542SOL     OW36844   8.474   1.477   1.890 -0.2797 -0.4874  0.2215
 8542SOL    HW136845   8.428   1.544   1.832  0.6199  0.6426  0.7768
 8542SOL    HW236846   8.407   1.425   1.942 -0.9416  1.0780  0.9642
 8543SOL     OW36847   9.182   5.123   4.109  0.0373 -0.5407  0.0600
 8543SOL    HW136848   9.096   5.099   4.064  1.2066 -2.0974 -1.4119
 8543SOL    HW236849   9.251   5.145   4.041  1.2214 -0.7530  1.1614
 8544SOL     OW36850   1.476   5.244   0.502  0.3010  0.5651  0.1036
 8544SOL    HW136851   1.399   5.182   0.484  0.4712 -0.1172  1.6795
 8544SOL    HW236852   1.496   5.297   0.419 -0.6237 -0.6194 -0.8913
 8545SOL     OW36853   9.196   7.503   4.715 -0.2718  0.8828  0.4703
 8545SOL    HW136854   9.284   7.460   4.697 -0.2772  1.6758 -1.5427
 8545SOL    HW236855   9.210   7.595   4.752 -0.2326  1.1298 -0.1438
 8546SOL     OW36856   7.216   3.835   2.410  0.0783 -0.1245 -0.0864
 8546SOL    HW136857   7.174   3.921   2.436  1.3942 -0.0224  1.7664
 8546SOL    HW236858   7.176   3.760   2.463  2.3695  0.0085  1.8976
 8547SOL     OW36859   8.885   9.296   0.949  0.4169  0.2512 -0.7587
 8547SOL    HW136860   8.968   9.256   0.911 -0.1655 -0.2203 -1.5508
 8547SOL    HW236861   8.850   9.367   0.887  1.1083  1.5804  0.3467
 8548SOL     OW36862   2.002   0.056   4.856 -0.4385  0.4839  0.1781
 8548SOL    HW136863   2.096   0.060   4.822 -0.8156 -0.7264 -1.0735
 8548SOL    HW236864   2.001   0.013   4.947  0.0522 -1.0315 -0.5231
 8549SOL     OW36865   4.823   6.030   2.417  0.1091 -0.0131 -0.1609
 8549SOL    HW136866   4.886   5.952   2.413 -1.0913 -0.9905 -0.0426
 8549SOL    HW236867   4.734   6.004   2.379 -0.3622  1.2509  0.0361
 8550SOL     OW36868   1.587   7.135   2.023 -0.5850  0.1514  0.5127
 8550SOL    HW136869   1.537   7.118   1.939 -1.5375 -1.6804  1.4282
 8550SOL    HW236870   1.580   7.232   2.047  0.7157  0.9451 -2.1209
 8551SOL     OW36871   8.574   7.573   3.629  0.0208  1.0074  0.4026
 8551SOL    HW136872   8.519   7.519   3.693 -0.5959  1.8090  0.5670
 8551SOL    HW236873   8.626   7.642   3.680  0.4006  0.9098  0.1464
 8552SOL     OW36874   5.380   0.978   5.502  0.3291 -0.7550 -0.6333
 8552SOL    HW136875   5.474   0.963   5.469  0.2682 -0.1613 -1.0941
 8552SOL    HW236876   5.380   0.984   5.602  0.5902 -2.0919 -0.5455
 8553SOL     OW36877   4.570   2.001   2.632 -0.0994 -0.0374 -0.4119
 8553SOL    HW136878   4.471   1.997   2.646 -0.1230 -3.6354 -1.2694
 8553SOL    HW236879   4.591   1.981   2.537  1.5606 -1.1425  0.1658
 8554SOL     OW36880   4.430   0.394   5.746  0.1771 -0.4533  0.4179
 8554SOL    HW136881   4.472   0.469   5.696 -0.2026  0.0605  0.8692
 8554SOL    HW236882   4.331   0.400   5.739  0.1516 -3.2910 -3.0781
 8555SOL     OW36883   9.663   5.581   5.001 -0.2997 -0.0983  0.5095
 8555SOL    HW136884   9.643   5.485   5.022  2.7265 -0.0098  4.3029
 8555SOL    HW236885   9.611   5.640   5.062 -0.4742  0.6215 -0.3263
 8556SOL     OW36886   4.237   3.904   5.839  0.3622 -0.5674  0.3218
 8556SOL    HW136887   4.158   3.901   5.900 -0.5761 -0.3681 -0.8557
 8556SOL    HW236888   4.270   3.999   5.832 -0.8235 -0.2382 -1.0753
 8557SOL     OW36889   0.637   3.809   0.537  0.2290 -0.0651 -0.1983
 8557SOL    HW136890   0.631   3.823   0.438 -2.8494  0.3008 -0.0003
 8557SOL    HW236891   0.733   3.814   0.565  1.5074 -3.1645 -3.5823
 8558SOL     OW36892   3.011   3.694   3.520 -0.5079  0.1897  0.0302
 8558SOL    HW136893   2.933   3.741   3.480 -0.5405 -0.1323 -0.2914
 8558SOL    HW236894   3.007   3.699   3.619 -0.3066  1.1971 -0.0076
 8559SOL     OW36895   7.316   4.806   0.212 -0.2747 -0.2798 -0.4255
 8559SOL    HW136896   7.244   4.855   0.164 -1.3187 -1.0971  0.2895
 8559SOL    HW236897   7.406   4.836   0.178 -0.9070  1.7092 -0.3505
 8560SOL     OW36898   7.187   7.904   4.785  0.1389 -0.6084  0.4561
 8560SOL    HW136899   7.223   7.993   4.813  0.1868 -1.0164  1.7034
 8560SOL    HW236900   7.093   7.915   4.753  1.3798  0.5180 -3.1240
 8561SOL     OW36901   7.085   5.299   2.045  0.0866 -0.4796 -0.3173
 8561SOL    HW136902   7.107   5.394   2.071 -0.5759 -0.9643  2.1504
 8561SOL    HW236903   7.108   5.285   1.949  0.5374  2.0852 -0.6289
 8562SOL     OW36904   3.538   4.030   1.977  0.1123 -0.4954 -0.0712
 8562SOL    HW136905   3.563   3.960   1.911 -1.6136  0.1060 -1.4188
 8562SOL    HW236906   3.502   3.987   2.060  1.9580 -1.2487  0.3486
 8563SOL     OW36907   7.333   8.451   2.366 -0.1939 -0.3143  0.1343
 8563SOL    HW136908   7.385   8.378   2.320 -1.3348  1.3017 -3.9585
 8563SOL    HW236909   7.235   8.431   2.360 -0.4201  0.5491  0.8361
 8564SOL     OW36910   6.134   8.329   4.660  0.3960  0.1651 -0.1947
 8564SOL    HW136911   6.082   8.244   4.668 -1.4551  1.4264  1.7886
 8564SOL    HW236912   6.083   8.394   4.604 -0.2093  1.4087  1.7535
 8565SOL     OW36913   2.214   5.723   5.589 -0.2851  0.1518  0.4201
 8565SOL    HW136914   2.289   5.759   5.644  0.9307 -0.8174 -0.5997
 8565SOL    HW236915   2.234   5.734   5.492 -2.3309  1.6566  0.1270
 8566SOL     OW36916   0.334   1.182   1.642 -0.0596  1.0064 -0.2090
 8566SOL    HW136917   0.361   1.119   1.715 -0.1415  0.9434 -0.2333
 8566SOL    HW236918   0.316   1.131   1.558  0.1487  1.0914 -0.3058
 8567SOL     OW36919   6.101   5.836   0.047 -0.4848 -0.0920  0.1614
 8567SOL    HW136920   6.039   5.779   0.102 -2.3113  1.0011 -0.7375
 8567SOL    HW236921   6.165   5.884   0.108 -0.8495 -0.8195  1.1344
 8568SOL     OW36922   6.854   2.931   3.683  0.7897 -0.7992  0.0809
 8568SOL    HW136923   6.906   3.013   3.658  0.5380 -0.2626  1.3046
 8568SOL    HW236924   6.757   2.947   3.667  0.3780  0.3598  3.4556
 8569SOL     OW36925   1.059   8.054   4.564  0.1640  0.9364  0.8845
 8569SOL    HW136926   1.049   8.067   4.465 -0.9745 -0.1215  0.8475
 8569SOL    HW236927   1.139   7.998   4.583  0.0753  0.6897  0.5289
 8570SOL     OW36928   0.907   9.739   1.045  0.3654  0.4957  0.0646
 8570SOL    HW136929   0.978   9.677   1.080  0.2106  0.0979 -0.3272
 8570SOL    HW236930   0.889   9.810   1.113 -0.4961 -0.7263  1.1375
 8571SOL     OW36931   1.642   2.652   2.479  0.3871  0.0559  0.1462
 8571SOL    HW136932   1.562   2.665   2.421 -0.0411 -0.7779  0.5403
 8571SOL    HW236933   1.644   2.558   2.512  2.5953 -0.4779 -1.4385
 8572SOL     OW36934   8.727   5.148   5.358  0.2114  0.5094  0.1074
 8572SOL    HW136935   8.700   5.148   5.262  1.5578 -0.6160 -0.2902
 8572SOL    HW236936   8.771   5.235   5.381  3.2414 -0.5924 -1.2984
 8573SOL     OW36937   8.939   2.092   6.547  0.2039  0.1714  0.2574
 8573SOL    HW136938   9.001   2.020   6.516 -0.4686 -0.5248  0.5258
 8573SOL    HW236939   8.857   2.093   6.489  0.3055  0.8589  0.1238
 8574SOL     OW36940   2.473   0.572   4.956 -0.0713 -0.5095  0.1100
 8574SOL    HW136941   2.400   0.624   5.000 -0.3162 -1.9887  1.4897
 8574SOL    HW236942   2.505   0.621   4.875 -2.3018  0.3485 -0.2729
 8575SOL     OW36943   9.424   7.274   3.530 -0.2784 -0.6411 -0.0191
 8575SOL    HW136944   9.356   7.344   3.509 -0.8944 -1.1319  0.3170
 8575SOL    HW236945   9.492   7.310   3.594 -0.3072 -0.2004 -0.2339
 8576SOL     OW36946   9.461   5.043   4.722 -0.6922  0.1186 -0.5750
 8576SOL    HW136947   9.485   4.997   4.637 -0.1207 -1.6561  0.5231
 8576SOL    HW236948   9.410   4.981   4.781  0.7373  0.6253  1.2573
 8577SOL     OW36949   7.720   4.653   1.004 -0.3234 -0.2118  0.3683
 8577SOL    HW136950   7.799   4.677   0.948  1.8051 -2.7165  2.1810
 8577SOL    HW236951   7.700   4.727   1.068  0.7543  0.3091  0.1061
 8578SOL     OW36952   2.534   0.304   5.069  0.6215 -0.1406  0.2130
 8578SOL    HW136953   2.618   0.318   5.122 -0.7482  0.4444  2.3012
 8578SOL    HW236954   2.498   0.393   5.038  1.1078 -0.4373 -1.2406
 8579SOL     OW36955   7.182   9.373   6.516  0.1137 -0.1607 -0.2470
 8579SOL    HW136956   7.099   9.320   6.535  0.1691 -0.0608  0.2768
 8579SOL    HW236957   7.178   9.459   6.567  0.5437 -0.1615 -0.2144
 8580SOL     OW36958   1.974   8.045   3.612 -0.5542  0.6312  0.0899
 8580SOL    HW136959   1.925   8.083   3.533 -1.5911  1.2944  1.0464
 8580SOL    HW236960   2.043   8.109   3.643 -0.2304  0.4218 -0.1886
 8581SOL     OW36961   8.468   6.235   1.964 -0.0923  0.5045 -0.5203
 8581SOL    HW136962   8.444   6.227   2.061 -1.6214  1.5519 -0.7896
 8581SOL    HW236963   8.551   6.183   1.946 -0.7146 -1.0889  1.0194
 8582SOL     OW36964   9.396   9.024   2.951  0.1763  0.1099 -0.3428
 8582SOL    HW136965   9.334   8.956   2.910  0.3749 -0.9400  1.0451
 8582SOL    HW236966   9.381   9.113   2.908 -1.7357 -0.3066 -0.5890
 8583SOL     OW36967   7.027   8.124   5.008  0.4194  0.0688 -0.3313
 8583SOL    HW136968   7.100   8.152   4.945  1.5705 -0.5487  0.7014
 8583SOL    HW236969   6.940   8.159   4.975  1.3780  2.1351 -0.7794
 8584SOL     OW36970   8.116   3.860   5.953 -0.0823  0.4179  0.1694
 8584SOL    HW136971   8.025   3.866   5.913  0.5194 -0.4853 -1.3851
 8584SOL    HW236972   8.180   3.915   5.898  0.5765 -0.1008  0.4087
 8585SOL     OW36973   9.379   6.612   2.223  0.5657  0.1622  0.2317
 8585SOL    HW136974   9.444   6.587   2.151  0.9389 -1.6366  1.1738
 8585SOL    HW236975   9.349   6.530   2.271 -2.4622  0.9390 -0.2125
 8586SOL     OW36976   3.684   7.647   0.199 -0.2962  0.8541 -0.4847
 8586SOL    HW136977   3.674   7.740   0.162  1.1027  1.3831  0.4002
 8586SOL    HW236978   3.635   7.641   0.286 -0.7961  0.6165 -0.7833
 8587SOL     OW36979   0.713   1.168   2.999  0.4896  0.4827  0.1850
 8587SOL    HW136980   0.697   1.081   2.951 -2.2278  0.6561  0.7166
 8587SOL    HW236981   0.784   1.155   3.068  1.5714 -0.7876 -1.1413
 8588SOL     OW36982   3.128   8.675   6.136  0.2133  0.7037  0.7079
 8588SOL    HW136983   3.078   8.761   6.131  0.2385  0.6074 -2.2987
 8588SOL    HW236984   3.114   8.633   6.225 -1.6049  2.7385  1.4200
 8589SOL     OW36985   4.530   6.307   1.259 -0.3007  0.5557  0.0435
 8589SOL    HW136986   4.615   6.352   1.287  0.6267 -1.3131  0.2900
 8589SOL    HW236987   4.473   6.292   1.340  0.5944 -1.1499  0.3866
 8590SOL     OW36988   8.280   7.909   1.058 -0.3595 -0.1801 -0.0675
 8590SOL    HW136989   8.306   8.006   1.061  0.3589 -0.4110  2.0150
 8590SOL    HW236990   8.224   7.888   1.138  0.6127 -1.8079  0.1938
 8591SOL     OW36991   4.059   3.803   3.604 -0.3521 -0.1627  0.0843
 8591SOL    HW136992   4.015   3.814   3.693  2.2966  0.9394  1.2926
 8591SOL    HW236993   4.120   3.880   3.587  1.3584 -1.8012 -1.3994
 8592SOL     OW36994   9.101   2.382   0.859  0.2186 -0.1396 -0.2569
 8592SOL    HW136995   9.072   2.455   0.921 -1.2158 -0.0794 -0.9692
 8592SOL    HW236996   9.197   2.395   0.835  0.8077 -0.2016  1.9797
 8593SOL     OW36997   6.862   8.726   3.358 -0.0244 -0.3322 -0.6871
 8593SOL    HW136998   6.874   8.641   3.409 -1.0025  0.3880  0.7719
 8593SOL    HW236999   6.802   8.710   3.280  0.4953 -1.1628 -0.9295
 8594SOL     OW37000   2.646   0.273   1.488 -0.1396  0.1307 -0.0288
 8594SOL    HW137001   2.547   0.259   1.490 -0.0803 -0.2933  0.1403
 8594SOL    HW237002   2.668   0.356   1.438 -0.4893 -0.6849 -1.5585
 8595SOL     OW37003   9.499   9.945   0.837 -0.1521  0.1526 -0.1683
 8595SOL    HW137004   9.459   9.887   0.765 -0.4211 -0.0782  0.1632
 8595SOL    HW237005   9.426   9.999   0.880  0.2578  1.5673 -1.2255
 8596SOL     OW37006   2.527   7.609   1.014 -0.5917 -0.1268 -0.8478
 8596SOL    HW137007   2.459   7.567   0.954 -0.4564  0.0176 -1.1038
 8596SOL    HW237008   2.487   7.625   1.104 -0.6736 -0.7151 -0.7770
 8597SOL     OW37009   0.247   8.746   4.539  0.0447  0.1198 -0.3321
 8597SOL    HW137010   0.192   8.790   4.611  0.0875 -2.2848  1.2187
 8597SOL    HW237011   0.337   8.724   4.575  0.3010 -0.4929 -1.3410
 8598SOL     OW37012   9.840   2.185   5.894 -0.0641 -0.4931  0.1199
 8598SOL    HW137013   9.857   2.124   5.971  3.4565  0.5489  0.2850
 8598SOL    HW237014   9.853   2.280   5.923  1.6939 -0.0992 -1.8011
 8599SOL     OW37015   2.267   1.051   1.621  1.1140  0.5154  0.5230
 8599SOL    HW137016   2.264   0.954   1.648 -0.4112  0.4299  0.1115
 8599SOL    HW237017   2.353   1.069   1.574  0.6672 -1.0985 -0.9997
 8600SOL     OW37018   9.443   0.121   2.347  0.2520  0.1125 -0.2216
 8600SOL    HW137019   9.443   0.070   2.261  0.1248  3.6708 -2.4420
 8600SOL    HW237020   9.537   0.151   2.368  0.4064 -1.3831  1.3128
 8601SOL     OW37021   5.431   0.807   6.552  0.6311 -0.0191 -0.1816
 8601SOL    HW137022   5.339   0.799   6.591  1.3065  0.4548  1.5620
 8601SOL    HW237023   5.425   0.834   6.456 -1.0587 -0.4745 -0.2153
 8602SOL     OW37024   8.093   1.378   1.159  0.3295 -0.1985 -0.3420
 8602SOL    HW137025   8.124   1.472   1.147  0.9574  0.1227  3.0704
 8602SOL    HW237026   8.056   1.343   1.073 -0.1509  3.2358 -1.6181
 8603SOL     OW37027   7.909   3.231   4.785 -0.5408 -0.5201  0.1342
 8603SOL    HW137028   7.961   3.185   4.713  0.1610  1.0158 -0.3503
 8603SOL    HW237029   7.908   3.174   4.867  1.8110 -0.6299  0.1136
 8604SOL     OW37030   5.808   0.027   6.799  0.5762 -0.3509  0.0642
 8604SOL    HW137031   5.847   0.119   6.812  0.9796 -0.5823  0.4981
 8604SOL    HW237032   5.841  -0.010   6.711  0.6857 -0.2176  0.0488
 8605SOL     OW37033   9.659   5.005   2.022 -0.0435 -0.0972 -0.3663
 8605SOL    HW137034   9.656   4.952   1.937 -0.2568 -1.4357  0.4609
 8605SOL    HW237035   9.566   5.016   2.057  0.1117 -0.1438  0.0555
 8606SOL     OW37036   3.449   9.398   2.017 -0.4443 -0.3381 -0.3128
 8606SOL    HW137037   3.416   9.311   2.055 -0.2014 -0.0978  0.4702
 8606SOL    HW237038   3.376   9.465   2.018 -0.3453 -0.2334  0.0551
 8607SOL     OW37039   3.541   0.189   4.166  0.6462  0.5818  0.3444
 8607SOL    HW137040   3.492   0.150   4.243  0.4065 -0.1834 -0.1933
 8607SOL    HW237041   3.524   0.287   4.162 -1.9145  0.1244 -0.6278
 8608SOL     OW37042   7.756   1.154   5.794 -0.1770 -0.1272 -0.0829
 8608SOL    HW137043   7.829   1.100   5.836  1.7942  2.0683 -0.5723
 8608SOL    HW237044   7.703   1.096   5.732  2.8127 -1.1926 -1.7530
 8609SOL     OW37045   4.438   9.068   2.836 -0.2607 -0.4036 -0.0090
 8609SOL    HW137046   4.440   8.994   2.769  2.1107 -0.8671  0.5538
 8609SOL    HW237047   4.515   9.129   2.822 -1.3472  1.1262  0.5041
 8610SOL     OW37048   5.606   0.364   4.421  0.6086  0.3265 -0.2033
 8610SOL    HW137049   5.563   0.354   4.331 -0.5353  0.0125  0.3742
 8610SOL    HW237050   5.579   0.289   4.480  1.3312  0.5525  0.4265
 8611SOL     OW37051   3.087   9.136   3.371 -0.3072 -0.4973 -0.0273
 8611SOL    HW137052   3.016   9.069   3.351  0.2472 -0.9071 -0.6562
 8611SOL    HW237053   3.173   9.106   3.330 -0.3743  1.2994 -1.5316
 8612SOL     OW37054   0.699   9.165   5.891 -0.1602  0.2750  0.8833
 8612SOL    HW137055   0.721   9.080   5.939  1.4475  0.3831  0.3741
 8612SOL    HW237056   0.708   9.242   5.954 -2.2394  0.0320  1.5136
 8613SOL     OW37057   3.473   9.756   4.844 -0.2406  0.4522  0.0973
 8613SOL    HW137058   3.382   9.781   4.812 -0.4013  0.0600  0.2515
 8613SOL    HW237059   3.520   9.838   4.876 -1.6014  0.2679  2.7100
 8614SOL     OW37060   6.837   1.692   4.300  0.0617  0.6666  0.2909
 8614SOL    HW137061   6.747   1.708   4.261 -0.1832 -1.1718  0.0646
 8614SOL    HW237062   6.903   1.678   4.226 -0.3662 -2.6425  0.4641
 8615SOL     OW37063   2.967   3.856   3.048 -0.1547  0.0343 -0.1765
 8615SOL    HW137064   2.887   3.891   3.097 -0.1701 -0.2186 -0.0200
 8615SOL    HW237065   2.949   3.762   3.019  0.2040 -0.1277  0.1276
 8616SOL     OW37066   8.546   3.988   1.965 -0.1998  0.3856 -0.7944
 8616SOL    HW137067   8.541   4.079   1.923 -2.4958  0.8578  0.4227
 8616SOL    HW237068   8.480   3.927   1.921  0.0949 -0.1958 -0.4422
 8617SOL     OW37069   2.200   8.751   1.330  0.2839 -0.6827 -0.3191
 8617SOL    HW137070   2.106   8.742   1.297 -0.1412  2.1892 -0.0266
 8617SOL    HW237071   2.202   8.746   1.430  0.1321  1.2317 -0.1938
 8618SOL     OW37072   8.171   0.116   1.186 -0.2246 -0.9494 -0.4098
 8618SOL    HW137073   8.074   0.120   1.165 -0.0954  1.2412 -0.7154
 8618SOL    HW237074   8.220   0.184   1.131  1.3002 -1.1258  0.6938
 8619SOL     OW37075   7.446   0.654   1.950  0.4249  0.3784 -0.1420
 8619SOL    HW137076   7.432   0.752   1.963 -0.3899  0.1741  0.5286
 8619SOL    HW237077   7.392   0.622   1.873  0.1925  0.3289  0.0423
 8620SOL     OW37078   8.439   3.585   2.170  0.2872 -0.2493 -0.0063
 8620SOL    HW137079   8.497   3.623   2.098 -0.5671 -1.3545 -1.2966
 8620SOL    HW237080   8.445   3.642   2.251  1.5349  0.8238 -0.8357
 8621SOL     OW37081   4.282   2.816   4.804  0.2404  0.0433  0.4599
 8621SOL    HW137082   4.269   2.878   4.881 -1.0654 -1.9183  1.8738
 8621SOL    HW237083   4.380   2.796   4.793  0.4891  0.8246  1.2104
 8622SOL     OW37084   6.589   9.505   3.248 -0.0187 -0.4717  0.2770
 8622SOL    HW137085   6.663   9.488   3.182 -2.2281 -1.1142 -2.0784
 8622SOL    HW237086   6.612   9.460   3.335  1.5462 -2.1439 -0.9524
 8623SOL     OW37087   5.099   6.579   2.003 -0.0131  0.3381  0.1135
 8623SOL    HW137088   5.032   6.644   1.967 -0.0489  0.2957  0.1027
 8623SOL    HW237089   5.159   6.626   2.068  0.9202  0.7464 -1.0243
 8624SOL     OW37090   7.913   2.613   4.347  1.1171 -0.3788  0.0103
 8624SOL    HW137091   7.882   2.553   4.420 -2.1213  0.8023 -0.3411
 8624SOL    HW237092   7.945   2.700   4.386  0.3222 -0.1236  0.0872
 8625SOL     OW37093   1.708   2.401   4.250 -0.1030 -0.5686 -0.5986
 8625SOL    HW137094   1.799   2.418   4.212 -1.4522  4.0827 -2.1601
 8625SOL    HW237095   1.654   2.347   4.186  1.3323 -2.9414  0.1257
 8626SOL     OW37096   3.325   2.314   8.171 -0.1100  0.9744 -0.4242
 8626SOL    HW137097   3.350   2.219   8.190 -0.9784  0.4158 -1.9598
 8626SOL    HW237098   3.396   2.357   8.116  0.2187  1.1673  0.1541
 8627SOL     OW37099   0.856   8.978   5.005 -0.2019 -0.1465 -0.3088
 8627SOL    HW137100   0.869   9.077   4.997 -0.1199 -0.2387 -1.3984
 8627SOL    HW237101   0.771   8.959   5.053 -0.1441  0.4552  0.0334
 8628SOL     OW37102   4.164   1.771   3.155 -0.4286  0.5048 -0.4712
 8628SOL    HW137103   4.145   1.805   3.247 -1.9796 -0.8668 -0.2629
 8628SOL    HW237104   4.256   1.733   3.152 -0.5839  0.0188  0.6936
 8629SOL     OW37105   6.700   3.090   1.597 -0.9749 -0.5117 -0.3342
 8629SOL    HW137106   6.664   3.012   1.647 -2.2304 -0.0056 -0.4185
 8629SOL    HW237107   6.742   3.058   1.512  0.5212 -1.2974  0.6882
 8630SOL     OW37108   7.087   5.899   6.145 -0.1874 -0.0643 -0.1268
 8630SOL    HW137109   7.177   5.861   6.167 -0.3481  0.0351  0.6991
 8630SOL    HW237110   7.039   5.922   6.229 -0.1442  1.8924 -0.6236
 8631SOL     OW37111   0.479   0.385   0.748  0.2607  0.0725 -0.3489
 8631SOL    HW137112   0.487   0.428   0.658 -0.9088 -0.3419 -0.6737
 8631SOL    HW237113   0.454   0.288   0.736  0.3439 -0.0425  0.4075
 8632SOL     OW37114   3.542   8.553   1.912 -0.0550  0.3465 -0.2102
 8632SOL    HW137115   3.584   8.637   1.948 -0.9537  0.4559  0.6070
 8632SOL    HW237116   3.605   8.476   1.925  0.0089  0.5550  0.7740
 8633SOL     OW37117   7.423   5.098   2.430  0.1484 -0.0649 -0.3608
 8633SOL    HW137118   7.497   5.067   2.370  0.1412 -1.5849  0.3941
 8633SOL    HW237119   7.354   5.146   2.375  0.5452 -0.7157 -1.4417
 8634SOL     OW37120   0.987   1.063   4.629 -0.2068  0.0893 -0.1551
 8634SOL    HW137121   0.900   1.014   4.641  0.3756 -1.4707 -2.1503
 8634SOL    HW237122   0.977   1.156   4.664 -1.9212 -0.8359  1.9127
 8635SOL     OW37123   7.914   8.362   2.772  0.1991  0.1598  0.3815
 8635SOL    HW137124   7.991   8.299   2.762  1.4535  1.7900 -0.5244
 8635SOL    HW237125   7.829   8.310   2.783  1.1738 -1.6771 -0.6005
 8636SOL     OW37126   8.466   7.716   6.179  0.0743  0.5296  0.3081
 8636SOL    HW137127   8.528   7.689   6.105 -0.3555 -0.6108  0.3563
 8636SOL    HW237128   8.443   7.813   6.169 -1.2541  0.0089 -1.9788
 8637SOL     OW37129   8.360   2.760   3.696  0.3301  0.2677  0.1583
 8637SOL    HW137130   8.410   2.846   3.682  0.0632  0.4340  0.2154
 8637SOL    HW237131   8.357   2.739   3.794 -1.3282  1.2377  0.3311
 8638SOL     OW37132   9.843   3.299   5.369  0.6373 -0.3882  0.1304
 8638SOL    HW137133   9.896   3.309   5.453 -1.0539  0.5005  1.1219
 8638SOL    HW237134   9.769   3.233   5.384  1.0679 -1.1673 -1.0560
 8639SOL     OW37135   3.155   1.308   1.606 -0.3297  0.2657  0.4343
 8639SOL    HW137136   3.128   1.212   1.617 -1.6778  0.3872 -1.4474
 8639SOL    HW237137   3.200   1.319   1.517  1.4896  1.0415  1.4325
 8640SOL     OW37138   7.194   0.105   6.158  0.0359  0.1775  0.1691
 8640SOL    HW137139   7.148   0.188   6.190  0.7118  0.8361 -0.5310
 8640SOL    HW237140   7.231   0.120   6.066 -2.4852 -1.9273 -1.2624
 8641SOL     OW37141   8.145   3.669   1.172 -0.6310  0.2450  0.3116
 8641SOL    HW137142   8.084   3.706   1.243 -0.4947  0.8860  0.0997
 8641SOL    HW237143   8.156   3.571   1.186 -0.8525  0.3124  0.9962
 8642SOL     OW37144   5.322   8.131   3.501 -0.1607 -0.5348  0.0511
 8642SOL    HW137145   5.340   8.225   3.473 -0.2470 -0.8193 -1.0088
 8642SOL    HW237146   5.247   8.094   3.447  0.8670 -1.6968 -0.6236
 8643SOL     OW37147   8.901   0.429   2.736  0.1693  1.0017  0.5322
 8643SOL    HW137148   8.939   0.354   2.682  0.1877  0.1074  1.7814
 8643SOL    HW237149   8.835   0.480   2.680 -1.1218 -0.9835  0.1955
 8644SOL     OW37150   2.804   7.831   5.918  0.1446 -0.0671  0.2060
 8644SOL    HW137151   2.863   7.883   5.980  1.7138  1.0475 -2.1390
 8644SOL    HW237152   2.741   7.893   5.872  0.1489 -0.6294 -0.5624
 8645SOL     OW37153   8.791   2.575   1.349 -0.0611 -0.0920  0.6480
 8645SOL    HW137154   8.784   2.620   1.260 -0.2867 -0.9181  0.2475
 8645SOL    HW237155   8.888   2.569   1.376 -0.1859  3.0442  1.9558
 8646SOL     OW37156   9.883   0.645   3.831  0.0242 -0.1621  0.0068
 8646SOL    HW137157   9.965   0.673   3.782  1.2782 -2.8919  0.4335
 8646SOL    HW237158   9.804   0.649   3.769  0.5222  2.0391 -0.5331
 8647SOL     OW37159   3.343   4.648   0.242 -0.3722  0.4183  0.6331
 8647SOL    HW137160   3.286   4.670   0.163 -0.7756 -0.6385  0.6257
 8647SOL    HW237161   3.284   4.631   0.322 -0.2941 -3.5435 -0.0461
 8648SOL     OW37162   0.464   1.668   5.857 -0.3980 -0.0308  0.2800
 8648SOL    HW137163   0.414   1.584   5.834  2.2445 -1.4200 -0.7767
 8648SOL    HW237164   0.441   1.739   5.791  0.2415 -1.1772 -1.2347
 8649SOL     OW37165   5.397   6.256   0.746 -0.3216 -0.4272  0.6030
 8649SOL    HW137166   5.334   6.181   0.727 -1.6484  0.1312  2.6916
 8649SOL    HW237167   5.404   6.314   0.664 -1.3451 -1.3186 -0.1347
 8650SOL     OW37168   4.359   8.784   6.412  0.7104  1.0684  0.1290
 8650SOL    HW137169   4.410   8.850   6.357 -1.1231  0.7460 -2.0173
 8650SOL    HW237170   4.423   8.729   6.466  2.4706  2.2444 -0.7239
 8651SOL     OW37171   4.040   9.899   3.680 -0.4457  0.1930  0.0097
 8651SOL    HW137172   3.993   9.811   3.683  0.3124 -0.1895  1.7752
 8651SOL    HW237173   4.138   9.885   3.694 -0.4899  1.3965  1.7817
 8652SOL     OW37174   7.438   0.150   0.543  0.4206  0.2283 -0.1076
 8652SOL    HW137175   7.374   0.128   0.468 -0.6777 -0.6662  1.0628
 8652SOL    HW237176   7.511   0.082   0.545 -0.8006 -1.0705  1.0352
 8653SOL     OW37177   4.954   8.715   1.895  0.1591 -0.1106 -0.0044
 8653SOL    HW137178   4.926   8.811   1.891 -0.8239 -0.3953  0.0259
 8653SOL    HW237179   5.054   8.710   1.895  0.2285  0.9582  1.1427
 8654SOL     OW37180   1.008   4.125   2.535  0.1713  0.1285  0.2355
 8654SOL    HW137181   0.917   4.146   2.500 -0.8135 -0.9375  2.0422
 8654SOL    HW237182   1.043   4.043   2.490 -0.1514  0.0318  0.1585
 8655SOL     OW37183   0.299   3.077   0.832  0.0978 -0.0825  0.6898
 8655SOL    HW137184   0.322   3.063   0.928  0.1766 -0.7805  0.5795
 8655SOL    HW237185   0.200   3.072   0.819  0.2701 -3.8360  0.2004
 8656SOL     OW37186   8.414   0.353   5.531  0.1086  0.5724 -0.0328
 8656SOL    HW137187   8.366   0.269   5.504 -0.5875  1.1265 -0.5635
 8656SOL    HW237188   8.346   0.425   5.547  0.8435  1.7427 -2.1004
 8657SOL     OW37189   8.351   2.375   0.005  0.5039  0.4143 -0.6687
 8657SOL    HW137190   8.339   2.300  -0.060  0.8536  0.3311 -0.6397
 8657SOL    HW237191   8.272   2.435   0.001 -0.1306 -0.3699 -0.1483
 8658SOL     OW37192   3.200   3.175   3.015  0.3065 -0.3144  0.0689
 8658SOL    HW137193   3.255   3.176   3.099  1.1373 -0.2128 -0.4716
 8658SOL    HW237194   3.252   3.131   2.942 -0.0065  0.5114 -0.6595
 8659SOL     OW37195   2.161   8.051   1.553  0.0704 -0.1430 -0.3199
 8659SOL    HW137196   2.109   7.966   1.550  0.6011 -0.5043  0.5403
 8659SOL    HW237197   2.194   8.067   1.646 -0.1106  1.0576 -0.4479
 8660SOL     OW37198   9.213   1.189   5.977  0.0597 -0.4669  0.3038
 8660SOL    HW137199   9.145   1.221   5.911  0.1462 -0.9636 -0.0304
 8660SOL    HW237200   9.278   1.262   5.996 -0.0234 -0.2901 -0.0910
 8661SOL     OW37201   7.007   9.232   5.989  0.2010  0.0652 -0.3305
 8661SOL    HW137202   7.063   9.276   6.059 -1.9307  2.1810  0.1100
 8661SOL    HW237203   6.948   9.164   6.032 -0.8967  1.1560 -0.0787
 8662SOL     OW37204   1.947   6.718   5.870 -0.6903 -0.0201  0.3070
 8662SOL    HW137205   1.909   6.634   5.908 -0.5831 -0.6823 -1.0467
 8662SOL    HW237206   1.899   6.742   5.786  1.9388 -0.9508 -1.5145
 8663SOL     OW37207   5.899   9.625   2.691 -0.6975 -0.8614  0.1111
 8663SOL    HW137208   5.916   9.573   2.608  0.5750  0.5404 -0.5219
 8663SOL    HW237209   5.806   9.660   2.690 -0.8593 -1.3005 -0.4623
 8664SOL     OW37210   9.485   1.950   2.943  0.6636 -0.0408  0.4187
 8664SOL    HW137211   9.498   1.867   2.887  0.8466 -0.2830  0.8179
 8664SOL    HW237212   9.395   1.989   2.923 -0.1336 -1.2885  1.4542
 8665SOL     OW37213   2.773   0.282   3.646 -0.4420  0.1611 -0.4615
 8665SOL    HW137214   2.768   0.345   3.723 -1.3724  0.9557 -1.1701
 8665SOL    HW237215   2.868   0.254   3.632 -0.2126  0.3163  0.7137
 8666SOL     OW37216   8.042   3.667   3.370  0.0397 -0.9256 -0.3488
 8666SOL    HW137217   7.963   3.661   3.309 -0.4487 -1.3194  0.3079
 8666SOL    HW237218   8.125   3.645   3.320 -0.3180 -0.9539 -0.9377
 8667SOL     OW37219   0.092   5.013   2.507  0.5318  0.5765  0.3941
 8667SOL    HW137220   0.035   4.965   2.441 -0.7256  1.5880  0.7189
 8667SOL    HW237221   0.064   4.987   2.600  1.1148  0.4854  0.5434
 8668SOL     OW37222   0.998   4.914   2.369 -0.0563  0.2232  0.4669
 8668SOL    HW137223   1.002   4.901   2.468  0.9260 -1.0952  0.2712
 8668SOL    HW237224   1.052   4.993   2.343  1.5788 -0.7718  0.7689
 8669SOL     OW37225   8.471   1.235   5.698  0.1880 -0.3750 -0.1081
 8669SOL    HW137226   8.570   1.236   5.705  0.1873  2.0929 -0.0407
 8669SOL    HW237227   8.432   1.292   5.770 -1.2682 -1.1610 -0.2544
 8670SOL     OW37228   8.414   6.970   2.101  0.1313  0.0974  0.2470
 8670SOL    HW137229   8.388   6.875   2.088 -1.4420  0.6580 -0.8632
 8670SOL    HW237230   8.474   6.978   2.181  2.7126 -2.2215 -1.3822
 8671SOL     OW37231   0.322   6.616   2.168 -0.0793 -0.3496 -0.0890
 8671SOL    HW137232   0.344   6.656   2.257  0.6963 -0.6207 -0.1534
 8671SOL    HW237233   0.370   6.666   2.097 -0.3591 -0.4062 -0.3193
 8672SOL     OW37234   0.680   6.307   0.861  0.0367 -0.2857 -0.0779
 8672SOL    HW137235   0.728   6.384   0.903  2.0483 -1.7565  0.3845
 8672SOL    HW237236   0.695   6.224   0.915 -2.1086 -1.0249 -0.5617
 8673SOL     OW37237   3.825   1.551   4.673 -0.2418  0.0973 -0.1651
 8673SOL    HW137238   3.895   1.508   4.729  1.1865  1.8818 -0.5137
 8673SOL    HW237239   3.754   1.590   4.732  0.6394  0.9254  0.3533
 8674SOL     OW37240   4.481   4.398   0.028  0.1287  0.5201  0.3762
 8674SOL    HW137241   4.422   4.463  -0.021 -1.3242  0.8072  2.4454
 8674SOL    HW237242   4.572   4.397  -0.015 -1.2652  0.2480 -2.7054
 8675SOL     OW37243   9.343   6.940   2.023 -0.2225 -0.5360 -0.2734
 8675SOL    HW137244   9.261   6.994   2.006 -0.0607  0.7308  2.6795
 8675SOL    HW237245   9.332   6.888   2.107  1.5395 -1.3491 -0.5138
 8676SOL     OW37246   2.057   9.777   3.600 -0.0350 -0.1691 -0.6283
 8676SOL    HW137247   1.965   9.737   3.609 -0.3590  0.8284  0.6890
 8676SOL    HW237248   2.105   9.732   3.526 -0.7505 -2.3621  0.1780
 8677SOL     OW37249   2.869   5.870   5.217  0.1960 -0.2825  0.4503
 8677SOL    HW137250   2.968   5.867   5.201 -0.0312  1.3723 -1.4862
 8677SOL    HW237251   2.832   5.777   5.211  1.0979 -0.5074 -2.7921
 8678SOL     OW37252   4.649   3.910   7.992 -0.5893  0.1394  0.2320
 8678SOL    HW137253   4.727   3.914   7.930 -0.5042 -0.5992  0.2916
 8678SOL    HW237254   4.600   3.998   7.990 -0.4909  0.1764 -0.7478
 8679SOL     OW37255   7.091   0.728   6.596  0.2227 -0.2465 -0.7096
 8679SOL    HW137256   7.006   0.754   6.641  1.0296  2.4088 -0.6738
 8679SOL    HW237257   7.169   0.762   6.648  1.2375 -0.1500 -2.2540
 8680SOL     OW37258   3.769   8.508   2.817  0.0401  0.0574 -0.1910
 8680SOL    HW137259   3.861   8.484   2.849 -0.5920 -0.0629  1.5752
 8680SOL    HW237260   3.725   8.567   2.884 -1.6405 -0.8913 -0.4345
 8681SOL     OW37261   4.526   9.844   3.020  0.3285 -0.1865  0.1631
 8681SOL    HW137262   4.617   9.870   2.987  0.5521 -0.9194  0.2082
 8681SOL    HW237263   4.458   9.864   2.949  0.7125 -1.0315 -0.4537
 8682SOL     OW37264   2.701   7.290   5.245 -0.1506  0.1163 -0.0411
 8682SOL    HW137265   2.800   7.288   5.233 -0.2870  0.1679 -1.2298
 8682SOL    HW237266   2.664   7.198   5.229 -0.1945 -0.1183  1.3523
 8683SOL     OW37267   2.042   3.368   4.225 -0.0280 -0.6060 -0.1196
 8683SOL    HW137268   1.954   3.343   4.265 -1.1703  0.2362 -2.0239
 8683SOL    HW237269   2.030   3.446   4.164  1.6300 -1.8710 -2.1356
 8684SOL     OW37270   1.736   9.121   4.592 -0.1310  0.8898 -0.1212
 8684SOL    HW137271   1.722   9.030   4.552 -1.2188  1.0736 -0.1681
 8684SOL    HW237272   1.834   9.140   4.597  0.1732 -0.8592  1.1524
 8685SOL     OW37273   2.462   7.943   0.250  0.3020 -0.0075 -0.1870
 8685SOL    HW137274   2.514   7.972   0.170  1.3321 -0.9499  0.1264
 8685SOL    HW237275   2.374   7.990   0.251  0.6868  0.7660 -1.3284
 8686SOL     OW37276   9.399   2.057   0.356  0.0055 -0.4743  0.0158
 8686SOL    HW137277   9.327   2.126   0.366 -0.5813 -1.1423  0.4091
 8686SOL    HW237278   9.384   1.983   0.421  2.4359  0.5599  1.8613
 8687SOL     OW37279   3.838   9.867   3.286 -0.0564  0.0222  0.1030
 8687SOL    HW137280   3.917   9.914   3.326 -0.6225  2.2015 -1.2327
 8687SOL    HW237281   3.774   9.841   3.358  1.2880 -0.6504  1.0744
 8688SOL     OW37282   7.298   2.863   0.740  0.3881  0.1325 -0.0956
 8688SOL    HW137283   7.360   2.911   0.678 -0.0259 -0.4645 -0.9757
 8688SOL    HW237284   7.310   2.764   0.730 -0.2768  0.0232  0.1748
 8689SOL     OW37285   6.250   1.262   6.411  0.0439 -0.7672 -0.2837
 8689SOL    HW137286   6.289   1.340   6.364  1.0983 -0.6244  0.8044
 8689SOL    HW237287   6.188   1.294   6.483  0.2231 -0.9373 -0.0530
 8690SOL     OW37288   3.891   1.531   3.211  0.0776  1.1418  0.4453
 8690SOL    HW137289   3.900   1.433   3.232  1.4995  1.4159  1.0814
 8690SOL    HW237290   3.817   1.570   3.266 -0.7439  0.3589 -0.0747
 8691SOL     OW37291   1.535   6.750   0.923  0.2958  0.3940 -0.6153
 8691SOL    HW137292   1.593   6.715   0.997  1.5320  3.4731 -0.0742
 8691SOL    HW237293   1.586   6.748   0.837  1.1458  2.7934 -0.1981
 8692SOL     OW37294   7.585   0.749   5.867  0.0031 -0.2858  0.0744
 8692SOL    HW137295   7.492   0.749   5.904 -0.3922 -0.5747 -0.8740
 8692SOL    HW237296   7.635   0.828   5.901 -0.7069  0.0570  0.3374
 8693SOL     OW37297   1.506   0.897   5.901  0.0253 -0.3859 -0.1034
 8693SOL    HW137298   1.439   0.839   5.855  0.4783 -0.7946 -0.2525
 8693SOL    HW237299   1.550   0.845   5.975 -0.3581  0.1128  0.4807
 8694SOL     OW37300   0.327   4.296   2.906  0.6568 -0.8250  0.2798
 8694SOL    HW137301   0.380   4.213   2.890  2.2314  0.6239 -2.5104
 8694SOL    HW237302   0.383   4.362   2.957 -0.5048 -1.3518  2.2889
 8695SOL     OW37303   6.876   4.373   7.972  0.2505 -0.1978  0.2092
 8695SOL    HW137304   6.822   4.428   7.909  0.4608  0.0996  0.2880
 8695SOL    HW237305   6.972   4.400   7.965  0.1764  0.2931  1.1529
 8696SOL     OW37306   7.476   9.428   3.931  0.1851  0.4574 -0.0700
 8696SOL    HW137307   7.567   9.394   3.908 -0.0232 -0.1002 -0.0731
 8696SOL    HW237308   7.413   9.351   3.943 -0.3820  0.8548 -0.4557
 8697SOL     OW37309   3.431   0.611   3.657  0.5390  0.3956 -0.3974
 8697SOL    HW137310   3.395   0.519   3.672  0.8563  0.2748 -0.3762
 8697SOL    HW237311   3.502   0.609   3.588  0.1515  0.7191 -0.8097
 8698SOL     OW37312   2.974   3.970   4.264  0.3989  0.0512 -0.3721
 8698SOL    HW137313   2.958   3.951   4.361 -0.7446 -0.8811 -0.7281
 8698SOL    HW237314   2.893   3.942   4.212  0.3873  1.9570 -1.4169
 8699SOL     OW37315   1.672   2.218   4.668  0.3285  0.2187  0.1948
 8699SOL    HW137316   1.719   2.298   4.631 -1.3200  0.4488 -1.4735
 8699SOL    HW237317   1.591   2.247   4.719  1.3711 -0.2363  2.1812
 8700SOL     OW37318   0.602   6.157   1.671 -0.3189  0.0283 -0.0944
 8700SOL    HW137319   0.645   6.237   1.629 -1.5760  2.6354  3.3558
 8700SOL    HW237320   0.528   6.125   1.612  0.4367  1.1419 -1.7026
 8701SOL     OW37321   8.292   1.664   4.346  0.0705  0.2615  0.8853
 8701SOL    HW137322   8.314   1.759   4.324 -2.8616  1.0967  1.2474
 8701SOL    HW237323   8.226   1.663   4.421 -1.4766 -1.9746 -0.4574
 8702SOL     OW37324   9.992   9.450   3.677 -0.4955  0.1985  0.0136
 8702SOL    HW137325   9.972   9.385   3.751 -0.4964 -0.3695 -0.4890
 8702SOL    HW237326  10.081   9.493   3.694  0.0826 -0.8600 -0.3187
 8703SOL     OW37327   9.168   2.347   2.511  0.4137  0.2970 -0.1986
 8703SOL    HW137328   9.091   2.296   2.472  1.1921 -1.5275  0.6058
 8703SOL    HW237329   9.252   2.323   2.463  0.9533  0.0679  0.8657
 8704SOL     OW37330   5.094   9.599   6.844  0.5184  0.0918 -0.5064
 8704SOL    HW137331   4.995   9.590   6.843  0.5851 -0.6947  0.0888
 8704SOL    HW237332   5.136   9.511   6.821  1.0975 -0.0655  1.1543
 8705SOL     OW37333   1.696   7.006   0.627 -0.1634 -0.6183 -0.2671
 8705SOL    HW137334   1.632   7.083   0.629 -0.7066 -1.0467 -1.1840
 8705SOL    HW237335   1.652   6.924   0.663  0.4830 -0.4620  0.9068
 8706SOL     OW37336   1.341   0.244   5.405  0.0020  0.5119  0.6125
 8706SOL    HW137337   1.328   0.147   5.386 -0.0591  0.5895  0.2461
 8706SOL    HW237338   1.271   0.297   5.358  1.1799  0.8796 -0.7739
 8707SOL     OW37339   2.617   0.902   3.095 -0.4353 -0.4259  0.5702
 8707SOL    HW137340   2.662   0.814   3.079  1.2438  0.3895  0.5909
 8707SOL    HW237341   2.538   0.911   3.035  1.1022 -0.7355 -1.5748
 8708SOL     OW37342   2.946   1.945   3.492 -0.4192 -0.1658  0.0078
 8708SOL    HW137343   2.954   1.888   3.574 -0.5244 -0.7634 -0.3974
 8708SOL    HW237344   2.869   1.915   3.437 -0.3809  0.2677 -0.2881
 8709SOL     OW37345   2.090   9.246   4.070 -0.6581  0.1377  0.8538
 8709SOL    HW137346   2.000   9.287   4.059 -0.4913  0.5913  1.1819
 8709SOL    HW237347   2.160   9.308   4.035 -0.1999  1.1837  3.4655
 8710SOL     OW37348   3.612   2.100   6.216 -0.4333 -0.1041  0.0850
 8710SOL    HW137349   3.560   2.090   6.131 -0.5632 -2.7250  0.4149
 8710SOL    HW237350   3.571   2.172   6.272 -2.1133 -0.3283 -0.8095
 8711SOL     OW37351   0.305   8.410   4.558  0.4310 -0.3529 -0.4586
 8711SOL    HW137352   0.258   8.402   4.470  0.8577 -1.0712 -0.6266
 8711SOL    HW237353   0.404   8.407   4.544  0.5113  0.0166  0.0014
 8712SOL     OW37354   8.386   9.303   5.103 -0.0233 -0.0043 -0.4669
 8712SOL    HW137355   8.368   9.337   5.196 -1.3794  2.5922 -1.6249
 8712SOL    HW237356   8.336   9.217   5.089 -0.8327  0.2494  0.7890
 8713SOL     OW37357   2.840   2.577   2.765  0.0280 -0.0066  0.6990
 8713SOL    HW137358   2.933   2.611   2.778  0.9334 -1.8580 -0.6721
 8713SOL    HW237359   2.786   2.645   2.715  0.5066  1.2473  1.8610
 8714SOL     OW37360   1.916   9.353   1.084  0.2120 -0.7974 -0.2421
 8714SOL    HW137361   1.825   9.394   1.087  0.6351  0.0603  1.8920
 8714SOL    HW237362   1.977   9.411   1.029  0.3022  0.4102  1.1090
 8715SOL     OW37363   8.592   2.806   5.300  0.0715 -0.9844  1.3577
 8715SOL    HW137364   8.634   2.863   5.371  0.7024 -1.3092  1.2488
 8715SOL    HW237365   8.648   2.724   5.285  0.0498 -0.8228  0.3424
 8716SOL     OW37366   0.510   1.047   3.181  0.4241 -0.2409  0.1771
 8716SOL    HW137367   0.534   0.980   3.111 -0.0422 -0.0346 -0.1856
 8716SOL    HW237368   0.544   1.137   3.154 -0.7933  0.0647 -0.3703
 8717SOL     OW37369   6.406   9.266   3.169  0.5782 -0.6321  0.1582
 8717SOL    HW137370   6.496   9.288   3.206 -0.0423  2.5237 -0.0986
 8717SOL    HW237371   6.337   9.324   3.212 -1.2462 -2.4950 -0.1786
 8718SOL     OW37372   4.086   8.374   4.553  0.0679 -0.0509  0.3615
 8718SOL    HW137373   4.029   8.312   4.500 -0.0346 -0.1341  0.5701
 8718SOL    HW237374   4.049   8.467   4.545  0.1177 -0.0454  0.1976
 8719SOL     OW37375   3.430   6.095   0.272 -0.2457 -0.5913 -0.4593
 8719SOL    HW137376   3.459   6.180   0.229 -1.4034  0.7341  1.3371
 8719SOL    HW237377   3.345   6.064   0.231 -0.9691  0.2882  0.3633
 8720SOL     OW37378   2.735   9.449   3.117  0.2452  0.7418  0.5988
 8720SOL    HW137379   2.708   9.353   3.115  0.1848  0.7054  2.4553
 8720SOL    HW237380   2.835   9.455   3.105  0.1668  0.5033 -0.2165
 8721SOL     OW37381   9.770   8.288   2.071 -0.2275  0.0088  0.1703
 8721SOL    HW137382   9.782   8.365   2.133 -0.0446 -0.7421  1.0844
 8721SOL    HW237383   9.690   8.235   2.099 -0.4066 -0.0819 -0.5084
 8722SOL     OW37384   6.381   2.089   2.749 -0.1605 -0.0097 -0.4109
 8722SOL    HW137385   6.329   2.135   2.821  1.0019  0.9296 -0.1488
 8722SOL    HW237386   6.401   1.995   2.777  0.4130  0.3934  0.5684
 8723SOL     OW37387   9.457   1.690   1.082  0.2587 -0.2544 -0.7223
 8723SOL    HW137388   9.539   1.724   1.127 -0.8120  1.3848  0.0374
 8723SOL    HW237389   9.477   1.602   1.038  1.6450 -1.3848  2.0137
 8724SOL     OW37390   3.213   3.024   4.128 -0.4597 -0.5212  0.1777
 8724SOL    HW137391   3.148   3.076   4.073  0.0910 -0.2985 -0.2646
 8724SOL    HW237392   3.186   2.927   4.128 -0.5818 -0.4915 -0.3187
 8725SOL     OW37393   5.224   1.748   7.887  0.0461 -0.2757  0.7927
 8725SOL    HW137394   5.270   1.740   7.975 -0.4866  0.0614  1.0985
 8725SOL    HW237395   5.286   1.790   7.821  0.7215 -1.2485  0.7939
 8726SOL     OW37396   9.388   2.083   0.890  0.3293  0.6246 -0.1978
 8726SOL    HW137397   9.369   1.985   0.902 -1.9315  1.0604 -0.0062
 8726SOL    HW237398   9.465   2.109   0.948  0.3930 -0.8538  0.4130
 8727SOL     OW37399   4.297   9.317   4.731 -0.2185 -0.1500 -0.2741
 8727SOL    HW137400   4.208   9.343   4.770  0.1008  1.9193 -0.8433
 8727SOL    HW237401   4.307   9.358   4.640  1.1886 -0.6296 -0.3537
 8728SOL     OW37402   0.461   7.866   2.729 -0.0395  0.7850  0.3722
 8728SOL    HW137403   0.495   7.782   2.687 -0.0444  0.2499  1.4229
 8728SOL    HW237404   0.363   7.875   2.713  0.0937  0.9630 -0.3581
 8729SOL     OW37405   9.660   6.734   5.840 -0.2142  0.7304  0.0575
 8729SOL    HW137406   9.646   6.766   5.746  3.5871  0.5312 -0.6624
 8729SOL    HW237407   9.642   6.809   5.903 -0.2820  1.6398 -1.0206
 8730SOL     OW37408   3.540   2.607   8.054 -0.2411 -1.0259  0.2133
 8730SOL    HW137409   3.544   2.707   8.052  0.8132 -1.0462  1.1252
 8730SOL    HW237410   3.627   2.569   8.025  0.0551 -1.6545  1.8759
 8731SOL     OW37411   2.684   8.220   5.625 -0.1803  0.4419 -0.0249
 8731SOL    HW137412   2.678   8.156   5.549  0.8751 -1.9748  1.8507
 8731SOL    HW237413   2.775   8.263   5.626  0.3997 -0.7976  0.8476
 8732SOL     OW37414   8.842   2.668   0.733  0.2435  0.0843 -0.3281
 8732SOL    HW137415   8.760   2.724   0.740 -0.4921 -1.0285  0.0997
 8732SOL    HW237416   8.818   2.578   0.696  1.1283 -0.5397  0.5883
 8733SOL     OW37417   0.989   1.139   5.106 -0.4996  1.4103 -0.1299
 8733SOL    HW137418   0.907   1.160   5.158 -0.3448  0.1930  0.6539
 8733SOL    HW237419   0.983   1.045   5.071  0.1030  1.6671 -0.9293
 8734SOL     OW37420   6.343   8.400   5.398 -0.0625  0.0015 -0.7987
 8734SOL    HW137421   6.308   8.419   5.306  1.4079  0.9908 -1.1698
 8734SOL    HW237422   6.432   8.445   5.410  0.2521 -0.9976  0.7427
 8735SOL     OW37423   2.526   6.353   0.298  0.6294 -0.0332  0.2574
 8735SOL    HW137424   2.529   6.324   0.394 -0.9993 -2.5252 -0.4005
 8735SOL    HW237425   2.590   6.299   0.245 -0.4894 -0.5888 -0.5372
 8736SOL     OW37426   6.842   9.638   5.425  0.1578 -0.0776 -0.1601
 8736SOL    HW137427   6.916   9.577   5.453 -0.0059  0.1906  0.8921
 8736SOL    HW237428   6.880   9.714   5.372  0.3347 -1.1689 -1.6296
 8737SOL     OW37429   0.319   3.897   2.455 -0.3327 -0.6131 -0.4747
 8737SOL    HW137430   0.304   3.993   2.477 -0.8663 -0.8725  0.3458
 8737SOL    HW237431   0.235   3.845   2.474  0.1594 -1.3500 -0.2725
 8738SOL     OW37432   3.596   4.053   0.007  0.4696 -0.0444  0.1857
 8738SOL    HW137433   3.631   4.143  -0.020  1.6193 -0.6786 -0.4921
 8738SOL    HW237434   3.596   3.992  -0.073  2.4950 -1.5059  1.2426
 8739SOL     OW37435   6.045   0.929   1.619 -0.5657 -0.3370 -0.2912
 8739SOL    HW137436   6.057   1.006   1.556 -0.3164 -0.0528  0.1041
 8739SOL    HW237437   6.126   0.870   1.615  0.0175  0.3867  0.7319
 8740SOL     OW37438   6.720   1.516   4.535 -1.1303  0.3277 -0.4292
 8740SOL    HW137439   6.766   1.534   4.622 -0.1902  0.2366 -0.9082
 8740SOL    HW237440   6.762   1.569   4.462 -1.4116 -0.1828 -0.9743
 8741SOL     OW37441   7.972   9.909   3.388  0.0320  0.3213 -0.0169
 8741SOL    HW137442   7.991   9.959   3.303 -0.4571  0.2208 -0.1902
 8741SOL    HW237443   8.028   9.827   3.391  1.5832  1.3997  0.7519
 8742SOL     OW37444   9.259   8.050   0.272  0.4984  0.0997  0.3010
 8742SOL    HW137445   9.238   8.006   0.185 -0.7518 -0.8292  1.0520
 8742SOL    HW237446   9.294   7.981   0.336 -0.4037  0.4053  1.1287
 8743SOL     OW37447   2.121   1.708   1.888 -0.1427 -0.3321 -0.5937
 8743SOL    HW137448   2.044   1.760   1.851 -0.3093  0.0220  0.2399
 8743SOL    HW237449   2.103   1.684   1.983  0.2050 -1.4007 -0.7920
 8744SOL     OW37450   1.617   0.600   3.965  0.0058  0.1685  0.0576
 8744SOL    HW137451   1.558   0.652   3.903  0.1094 -1.2550 -1.2719
 8744SOL    HW237452   1.706   0.584   3.921 -0.5776 -2.5141 -0.2702
 8745SOL     OW37453   7.180   2.567   5.906 -0.0427  0.5244  0.1915
 8745SOL    HW137454   7.082   2.568   5.926 -0.2747  0.3660 -0.9094
 8745SOL    HW237455   7.216   2.475   5.920 -0.0752  0.5575  0.4917
 8746SOL     OW37456   2.529   9.869   5.284  0.5461  0.2380 -0.0072
 8746SOL    HW137457   2.485   9.951   5.246  0.7317  0.4457  0.2243
 8746SOL    HW237458   2.595   9.833   5.218  0.4778  0.2839 -0.1007
 8747SOL     OW37459   0.808   6.251   8.187 -0.5688  0.0788 -0.3069
 8747SOL    HW137460   0.766   6.273   8.098 -0.7431 -0.3516 -0.3333
 8747SOL    HW237461   0.828   6.335   8.236  0.2847  0.3486 -1.1095
 8748SOL     OW37462   0.726   4.725   1.782  0.8556 -0.0184  0.2226
 8748SOL    HW137463   0.798   4.763   1.841  1.4317 -0.5271 -0.1435
 8748SOL    HW237464   0.741   4.627   1.771  1.3027  0.2284 -1.5230
 8749SOL     OW37465   0.046   9.987   4.632  0.1123  0.6979  0.6063
 8749SOL    HW137466   0.139  10.008   4.604 -0.2375  0.1370 -1.0446
 8749SOL    HW237467   0.022  10.039   4.714  1.5915  1.4486  0.5592
 8750SOL     OW37468   9.591   7.370   1.643  0.0361  0.4885 -0.2608
 8750SOL    HW137469   9.571   7.287   1.592 -0.2523 -0.2011  0.9519
 8750SOL    HW237470   9.684   7.365   1.679 -0.3769  0.1560  0.7935
 8751SOL     OW37471   8.914   0.386   6.786  0.4893 -0.2628  0.5228
 8751SOL    HW137472   8.836   0.365   6.727  0.2978  0.6099  0.4470
 8751SOL    HW237473   8.885   0.387   6.881 -0.2858  2.8899  0.3184
 8752SOL     OW37474   7.193   5.335   0.954  0.1886 -0.4862 -0.4995
 8752SOL    HW137475   7.250   5.274   0.899  1.2252  0.1777 -0.1639
 8752SOL    HW237476   7.222   5.430   0.940 -0.5947 -0.1734 -0.0443
 8753SOL     OW37477   1.096   1.686   1.130 -0.0054  0.0100  0.1596
 8753SOL    HW137478   1.088   1.770   1.076  2.2320  1.1962  1.5989
 8753SOL    HW237479   1.086   1.707   1.227 -3.0546 -1.9698  0.3125
 8754SOL     OW37480   4.379   0.626   2.953 -0.3077  0.2225  0.5277
 8754SOL    HW137481   4.307   0.595   3.014 -0.2759 -2.2674 -0.6302
 8754SOL    HW237482   4.467   0.591   2.985 -0.1756 -0.3184 -0.3978
 8755SOL     OW37483   6.183   5.631   0.347  0.2920 -0.1267  0.6156
 8755SOL    HW137484   6.131   5.618   0.432 -2.0021  0.0186 -0.7084
 8755SOL    HW237485   6.210   5.542   0.311  0.7730 -0.2186  1.1951
 8756SOL     OW37486   4.686   5.456   3.254 -0.3122  0.2734  0.1254
 8756SOL    HW137487   4.680   5.432   3.157 -0.2405 -1.2795  0.4961
 8756SOL    HW237488   4.606   5.510   3.280 -0.7160  0.0402 -0.6174
 8757SOL     OW37489   9.052   1.467   1.220 -0.6367 -0.4392  0.1862
 8757SOL    HW137490   9.013   1.546   1.173  0.8016 -1.0359 -2.0385
 8757SOL    HW237491   9.137   1.494   1.265 -0.7923 -0.4345  0.4804
 8758SOL     OW37492   6.817   3.708   0.788  0.3817  0.8565  0.1337
 8758SOL    HW137493   6.910   3.717   0.752 -0.2696  1.1963 -1.5110
 8758SOL    HW237494   6.753   3.757   0.728 -0.3765  4.0652  3.4257
 8759SOL     OW37495   0.162   1.018   5.516  0.4043  0.2143  0.0481
 8759SOL    HW137496   0.113   1.085   5.461  2.0717  2.3568  1.0733
 8759SOL    HW237497   0.229   0.970   5.459  0.0851  0.3180 -0.4151
 8760SOL     OW37498   7.673   0.006   4.427 -0.5060 -0.3867  0.0155
 8760SOL    HW137499   7.748  -0.033   4.374 -0.7069  3.7112 -3.5113
 8760SOL    HW237500   7.709   0.074   4.491 -1.0031  0.0408 -0.1552
 8761SOL     OW37501   3.539   2.386   2.056 -0.3163  0.3391 -0.2924
 8761SOL    HW137502   3.554   2.305   2.000 -0.2074 -0.0738  0.3223
 8761SOL    HW237503   3.609   2.454   2.036  1.1338 -0.7097  0.9853
 8762SOL     OW37504   5.567   4.668   7.981 -0.1130 -0.1195  0.5611
 8762SOL    HW137505   5.595   4.754   7.938 -0.1669 -0.4364 -0.1000
 8762SOL    HW237506   5.491   4.686   8.044 -0.2683  0.2834  0.2613
 8763SOL     OW37507   9.446   6.240   3.050 -0.6649 -0.0085  0.3681
 8763SOL    HW137508   9.542   6.263   3.037 -0.5873 -0.3126  0.4082
 8763SOL    HW237509   9.438   6.152   3.095 -0.9570  0.4646  1.2463
 8764SOL     OW37510   3.048   9.825   3.275 -0.0448  0.0016  0.0433
 8764SOL    HW137511   3.105   9.888   3.222 -2.2007  0.4234 -1.8787
 8764SOL    HW237512   3.106   9.763   3.328  2.1504  1.1382 -0.9817
 8765SOL     OW37513   3.487   1.906   5.373 -0.1273  0.6408  0.7158
 8765SOL    HW137514   3.533   1.886   5.286 -1.7405 -0.1171  0.0137
 8765SOL    HW237515   3.436   1.825   5.403 -3.4702  2.3637 -0.0886
 8766SOL     OW37516   0.752   7.745   1.390  0.5267 -0.5600 -0.5156
 8766SOL    HW137517   0.718   7.824   1.339  0.2039 -0.0814  0.4271
 8766SOL    HW237518   0.678   7.704   1.444  1.2331  0.0147  0.9352
 8767SOL     OW37519   1.016   1.288   2.193  0.7771 -0.4861  0.6196
 8767SOL    HW137520   1.026   1.321   2.287 -0.7763  0.5627  0.4291
 8767SOL    HW237521   1.002   1.365   2.131  3.4353 -1.0325 -0.7416
 8768SOL     OW37522   9.015   6.158   5.287 -0.7454 -0.6772  0.7427
 8768SOL    HW137523   8.984   6.253   5.277 -1.0633 -0.8416  0.1530
 8768SOL    HW237524   9.115   6.155   5.283 -0.7512 -0.4097  0.3133
 8769SOL     OW37525   2.986   2.175   1.142  0.0764 -0.2890  0.4796
 8769SOL    HW137526   2.909   2.131   1.096  0.2890 -1.0475  0.8409
 8769SOL    HW237527   2.958   2.265   1.175 -0.3029 -0.0586 -0.4428
 8770SOL     OW37528   4.138   9.279   0.832  0.2202 -0.0422  0.0404
 8770SOL    HW137529   4.076   9.249   0.760  0.0948  0.4004 -0.0392
 8770SOL    HW237530   4.228   9.240   0.818  0.1421 -0.1179 -0.2460
 8771SOL     OW37531   2.584   7.760   2.131  0.7615  0.2867  0.1310
 8771SOL    HW137532   2.627   7.673   2.157 -2.1848 -0.5101  2.5625
 8771SOL    HW237533   2.579   7.819   2.211 -0.5823  1.2743 -0.6722
 8772SOL     OW37534   6.960   3.213   3.211  0.1775  0.5075 -0.2612
 8772SOL    HW137535   7.043   3.160   3.197 -0.1618 -0.0446 -0.2127
 8772SOL    HW237536   6.901   3.166   3.276  0.6613  1.8412  1.1727
 8773SOL     OW37537   3.168   1.082   5.983  0.2224  0.6420  0.5691
 8773SOL    HW137538   3.095   1.136   6.024 -0.6907  0.7938 -1.2371
 8773SOL    HW237539   3.144   0.985   5.988 -0.7831  0.7758 -1.2880
 8774SOL     OW37540   3.620   4.836   1.657 -0.5751 -0.1047  0.1660
 8774SOL    HW137541   3.587   4.755   1.607 -2.4975  0.5081  0.4328
 8774SOL    HW237542   3.551   4.908   1.654  0.1645  0.7036  1.9293
 8775SOL     OW37543   4.323   8.897   2.405 -0.0479  0.9120 -0.5527
 8775SOL    HW137544   4.417   8.921   2.426 -0.6232  2.0916  0.7571
 8775SOL    HW237545   4.300   8.931   2.313  0.5293  1.3772 -0.5266
 8776SOL     OW37546   8.241   5.916   3.863 -0.2140  0.1334  0.3804
 8776SOL    HW137547   8.148   5.896   3.893 -0.4088  0.9798  0.3662
 8776SOL    HW237548   8.256   5.879   3.772 -0.1399 -1.0689  0.8785
 8777SOL     OW37549   7.254   0.594   2.877  0.3246  0.3309  0.2110
 8777SOL    HW137550   7.230   0.690   2.887  2.2177  0.6106  2.5764
 8777SOL    HW237551   7.206   0.540   2.946 -0.1711 -0.3392 -0.6441
 8778SOL     OW37552   6.453   9.044   2.570  0.2463  0.4610 -0.9890
 8778SOL    HW137553   6.534   9.077   2.523  0.3906  2.0758  0.3100
 8778SOL    HW237554   6.455   9.076   2.665 -1.9406  0.6344 -0.9733
 8779SOL     OW37555   4.238   3.669   5.425  0.1890 -0.5273  0.5454
 8779SOL    HW137556   4.195   3.735   5.487  1.5782 -0.3822  1.3784
 8779SOL    HW237557   4.307   3.617   5.476  0.6612 -1.0851 -0.6636
 8780SOL     OW37558   9.276   9.947   2.470 -0.3165  0.4354  0.2626
 8780SOL    HW137559   9.195   9.974   2.521 -0.8047  0.0119 -0.2810
 8780SOL    HW237560   9.317  10.028   2.428 -0.6868  0.5958  0.2093
 8781SOL     OW37561   3.626   4.274   4.552 -0.1459  0.1983  0.1904
 8781SOL    HW137562   3.605   4.268   4.649 -0.7363  0.7310  0.1003
 8781SOL    HW237563   3.677   4.358   4.534  0.0678  0.0396  0.0607
 8782SOL     OW37564   7.531   0.006   5.773 -0.1739  0.2419  0.0874
 8782SOL    HW137565   7.589   0.064   5.717 -2.1522  2.8111  0.5663
 8782SOL    HW237566   7.569  -0.000   5.865  1.0985 -0.8689 -0.5147
 8783SOL     OW37567   8.795   5.649   1.253 -0.3331  0.2939 -0.1847
 8783SOL    HW137568   8.861   5.717   1.284 -2.2101  1.6339  0.9709
 8783SOL    HW237569   8.797   5.570   1.314 -0.4642  0.7361  0.3904
 8784SOL     OW37570   3.502   5.483   2.448  0.4637 -0.2169  0.1922
 8784SOL    HW137571   3.531   5.401   2.399  0.9272 -0.4733  0.8906
 8784SOL    HW237572   3.551   5.562   2.411  1.0750 -0.4593  0.4761
 8785SOL     OW37573   5.781   0.372   5.963 -0.2737 -0.3648  0.1367
 8785SOL    HW137574   5.737   0.282   5.972 -1.7466  0.2742 -0.5071
 8785SOL    HW237575   5.774   0.403   5.869  0.5291  0.2866  0.2908
 8786SOL     OW37576   4.648   9.034   2.129 -0.2841 -0.2886 -0.0894
 8786SOL    HW137577   4.645   8.963   2.059  1.4844 -0.0019 -0.4771
 8786SOL    HW237578   4.734   9.085   2.122  0.2508 -0.7277  2.7305
 8787SOL     OW37579   8.429   3.067   7.814  0.3938  0.4377  0.3775
 8787SOL    HW137580   8.452   3.156   7.774 -0.7514  0.9985  0.9245
 8787SOL    HW237581   8.513   3.023   7.846  0.9825  1.3162  0.0879
 8788SOL     OW37582   1.858   0.914   4.597  0.1846  0.0493 -0.2532
 8788SOL    HW137583   1.852   1.013   4.583  0.5289  0.0578 -0.3308
 8788SOL    HW237584   1.953   0.888   4.611  0.0352 -0.1949  0.3268
 8789SOL     OW37585   6.242   0.359   6.106  0.5743  0.2330  0.4516
 8789SOL    HW137586   6.330   0.313   6.116  0.1386 -0.8247 -0.3790
 8789SOL    HW237587   6.209   0.346   6.012  0.0052  1.4667  0.4781
 8790SOL     OW37588   3.921   8.262   4.354  0.1067  0.1049  0.2282
 8790SOL    HW137589   3.914   8.357   4.323  1.5680  0.3424  0.5618
 8790SOL    HW237590   3.869   8.203   4.293  1.0459  0.8439 -1.3386
 8791SOL     OW37591   9.469   6.110   0.857  0.9791 -0.2351 -0.0536
 8791SOL    HW137592   9.558   6.153   0.869  0.7430  0.3648 -0.4729
 8791SOL    HW237593   9.476   6.037   0.789  1.0704  0.0339 -0.3299
 8792SOL     OW37594   3.742   3.508   5.311  0.0472  0.1745  0.0104
 8792SOL    HW137595   3.839   3.529   5.296  0.3138  0.9342  2.5071
 8792SOL    HW237596   3.722   3.512   5.409 -2.3843 -0.6133 -0.4147
 8793SOL     OW37597   6.416   1.251   5.680  1.1383 -0.3413  0.1125
 8793SOL    HW137598   6.324   1.222   5.703  0.7504 -0.0062 -1.0187
 8793SOL    HW237599   6.471   1.172   5.652  0.6413 -0.2546 -1.0939
 8794SOL     OW37600   4.559   2.654   4.587  0.1759 -0.2398  0.3446
 8794SOL    HW137601   4.498   2.685   4.514  1.4481 -0.6427 -0.8901
 8794SOL    HW237602   4.640   2.611   4.548  1.3329  0.3961  1.9667
 8795SOL     OW37603   6.601   2.068   3.312 -0.0386  0.4997  0.0344
 8795SOL    HW137604   6.510   2.034   3.288 -0.3175  1.0246  0.3377
 8795SOL    HW237605   6.669   2.025   3.253 -0.1932 -1.8500  1.4653
 8796SOL     OW37606   1.813   7.828   4.961  0.0889 -0.1293 -0.3035
 8796SOL    HW137607   1.776   7.916   4.988  1.3029  0.0955  0.6929
 8796SOL    HW237608   1.913   7.830   4.969  0.3083 -0.8542 -2.4828
 8797SOL     OW37609   2.650   8.707   0.764 -0.0445 -0.3940  1.1709
 8797SOL    HW137610   2.586   8.784   0.761 -1.2119 -1.4063 -0.8365
 8797SOL    HW237611   2.717   8.716   0.690 -0.8935 -1.8768  0.2005
 8798SOL     OW37612   9.375   9.671   3.765  0.4238 -0.2071  0.4014
 8798SOL    HW137613   9.420   9.639   3.849  1.8881  0.8185  0.0137
 8798SOL    HW237614   9.419   9.755   3.733  0.0477 -0.7245 -1.5351
 8799SOL     OW37615   4.706   7.550   2.759  0.1604  0.1714  0.1833
 8799SOL    HW137616   4.632   7.614   2.740 -1.5109 -1.3678  1.3046
 8799SOL    HW237617   4.752   7.576   2.844  0.4903  0.7612 -0.1752
 8800SOL     OW37618   4.212   0.335   1.719 -0.5064  0.1156  0.5770
 8800SOL    HW137619   4.135   0.371   1.772 -2.6932 -1.6687 -1.2444
 8800SOL    HW237620   4.177   0.293   1.635  2.3901 -1.7372  0.2372
 8801SOL     OW37621   3.270   5.473   0.321 -0.1349  0.1955 -0.0857
 8801SOL    HW137622   3.208   5.459   0.398  1.0150  0.5327  0.9043
 8801SOL    HW237623   3.360   5.438   0.344  0.2307  0.3522 -1.2641
 8802SOL     OW37624   8.101   4.725   1.127 -0.0397 -0.4573  0.1714
 8802SOL    HW137625   8.036   4.669   1.076  1.3652 -2.2609  0.3289
 8802SOL    HW237626   8.192   4.714   1.087  0.2015  2.0666 -0.0683
 8803SOL     OW37627   9.949   3.001   3.250  0.1503  0.4844  0.2357
 8803SOL    HW137628   9.916   2.935   3.184 -2.0201  1.8292 -0.0679
 8803SOL    HW237629  10.027   3.051   3.212 -0.5945  0.7082 -1.0113
 8804SOL     OW37630   9.938   9.398   5.517  0.5096 -0.2521  0.1628
 8804SOL    HW137631   9.965   9.474   5.576  3.4494  0.3948 -1.8828
 8804SOL    HW237632   9.996   9.319   5.535  1.0471 -0.2357 -1.4106
 8805SOL     OW37633   7.340   1.651   5.605  0.0469  0.0560  0.8630
 8805SOL    HW137634   7.245   1.621   5.612 -0.5754  2.0826  1.5120
 8805SOL    HW237635   7.391   1.619   5.685  0.2235 -2.0704 -0.0803
 8806SOL     OW37636   2.205   4.693   1.647  0.2152  0.0640 -0.0908
 8806SOL    HW137637   2.219   4.601   1.684 -0.6047 -0.0195  0.0314
 8806SOL    HW237638   2.293   4.733   1.623  0.9107  0.5145  2.9431
 8807SOL     OW37639   8.397   3.760   6.292 -0.0218 -0.4982  0.0584
 8807SOL    HW137640   8.344   3.820   6.351  1.0832  0.6391 -0.0884
 8807SOL    HW237641   8.348   3.746   6.206  0.2781  1.1942 -0.3952
 8808SOL     OW37642   7.615   5.130   3.342  0.2717  0.2370  0.0052
 8808SOL    HW137643   7.633   5.059   3.409  0.5121  2.7179  2.6979
 8808SOL    HW237644   7.518   5.156   3.345  0.4934  1.0845  0.1668
 8809SOL     OW37645   9.621   3.118   5.490  0.6622  0.0903 -0.3777
 8809SOL    HW137646   9.665   3.031   5.467  0.6537 -0.1282  0.4226
 8809SOL    HW237647   9.645   3.144   5.583 -0.5215  0.2084 -0.0946
 8810SOL     OW37648   8.764   9.435   4.470  0.2123 -0.6114  0.4768
 8810SOL    HW137649   8.847   9.419   4.524  0.0170 -0.5859  0.7882
 8810SOL    HW237650   8.789   9.476   4.383  0.5416 -0.7289  0.5119
 8811SOL     OW37651   8.896   8.473   3.682 -1.1851 -0.0551  0.2637
 8811SOL    HW137652   8.940   8.452   3.769 -1.0347  0.2762  0.2663
 8811SOL    HW237653   8.861   8.566   3.684  0.4898  0.5972 -0.7392
 8812SOL     OW37654   7.940   0.778   5.276 -0.0851 -0.3653  0.0437
 8812SOL    HW137655   7.863   0.841   5.268  0.6468  0.6497  0.9504
 8812SOL    HW237656   8.006   0.797   5.203 -0.1097 -0.4359  0.0025
 8813SOL     OW37657   4.356   5.941   2.545  0.2350 -0.1320  0.2448
 8813SOL    HW137658   4.298   5.895   2.477  0.6122  0.3921 -0.4380
 8813SOL    HW237659   4.413   5.873   2.591  0.7843 -0.3613 -0.7473
 8814SOL     OW37660   2.884   1.268   3.103 -0.3034  0.0880 -0.3957
 8814SOL    HW137661   2.788   1.272   3.133 -0.2719  0.0607 -0.2931
 8814SOL    HW237662   2.890   1.297   3.007 -0.4134  0.0961 -0.3998
 8815SOL     OW37663   8.976   3.383   1.781 -0.0551 -0.0536  0.7430
 8815SOL    HW137664   9.050   3.390   1.714 -0.3702 -3.1687 -0.0016
 8815SOL    HW237665   8.995   3.444   1.858  2.5686  0.2411 -0.0914
 8816SOL     OW37666   4.617   5.877   0.786 -0.1092  0.6971 -0.1766
 8816SOL    HW137667   4.628   5.934   0.704  0.3130 -0.4020 -0.8982
 8816SOL    HW237668   4.521   5.878   0.814 -0.4681  0.1737 -1.3633
 8817SOL     OW37669   4.099   8.137   5.592  0.3510 -0.3580 -0.3430
 8817SOL    HW137670   4.001   8.127   5.573  0.3893 -1.0651 -0.1766
 8817SOL    HW237671   4.151   8.104   5.513  0.4702 -0.6528 -0.1381
 8818SOL     OW37672   7.160   9.216   5.601  0.4362  0.0706 -0.3376
 8818SOL    HW137673   7.182   9.128   5.560  1.1525 -1.3437  2.9189
 8818SOL    HW237674   7.219   9.287   5.562  1.8075 -1.3930 -0.9803
 8819SOL     OW37675   4.202   3.512   3.740 -0.7627  0.1341 -0.3445
 8819SOL    HW137676   4.119   3.493   3.793  0.3915  0.1656  1.4982
 8819SOL    HW237677   4.233   3.605   3.759  0.0523 -0.0932 -0.5563
 8820SOL     OW37678   7.511   9.047   5.583  0.4372 -0.1815  0.0840
 8820SOL    HW137679   7.554   9.040   5.493 -2.2746 -2.1176 -1.1202
 8820SOL    HW237680   7.475   9.139   5.596  1.2140  0.2287 -0.6206
 8821SOL     OW37681   0.208   0.718   0.814  0.3233  0.1368 -0.3026
 8821SOL    HW137682   0.274   0.755   0.880 -0.7871 -0.7200  1.3173
 8821SOL    HW237683   0.124   0.771   0.817  0.0709 -0.2373 -0.6415
 8822SOL     OW37684   2.682   0.728   3.891 -0.1519 -0.2229  0.0737
 8822SOL    HW137685   2.596   0.747   3.843  0.0296  0.1060 -0.1283
 8822SOL    HW237686   2.701   0.803   3.955 -0.0431 -0.3211  0.1568
 8823SOL     OW37687   8.381   1.293   5.940 -0.3292  0.2761 -0.4016
 8823SOL    HW137688   8.459   1.338   5.984 -0.4809  0.6817 -0.5442
 8823SOL    HW237689   8.331   1.239   6.007 -0.1389  0.3132 -0.2308
 8824SOL     OW37690   1.687   8.246   6.299  0.2862 -0.1442  0.0233
 8824SOL    HW137691   1.770   8.247   6.355 -0.0340  0.0653  0.5038
 8824SOL    HW237692   1.674   8.337   6.258  0.4607 -0.2670 -0.3045
 8825SOL     OW37693   3.660   2.274   2.969 -0.1202 -0.1912 -0.0850
 8825SOL    HW137694   3.591   2.333   2.928  0.0362  0.3452  0.4087
 8825SOL    HW237695   3.633   2.253   3.063  1.5059  1.9100  0.8919
 8826SOL     OW37696   9.835   9.362   4.333  0.3478  0.3867  0.1277
 8826SOL    HW137697   9.832   9.270   4.294  2.5759  0.1373  0.4733
 8826SOL    HW237698   9.843   9.355   4.432  0.2662  0.9552  0.1722
 8827SOL     OW37699   7.204   1.494   2.702  0.1259  0.4693  0.0861
 8827SOL    HW137700   7.236   1.589   2.700 -1.8539  1.1693  0.1193
 8827SOL    HW237701   7.269   1.435   2.654  1.5085  1.7981  0.3048
 8828SOL     OW37702   1.763   9.598   1.964 -0.2474 -0.3690  0.1850
 8828SOL    HW137703   1.856   9.563   1.948 -0.2884 -0.6081  0.4593
 8828SOL    HW237704   1.749   9.680   1.910 -0.2114 -0.8899 -0.6130
 8829SOL     OW37705   5.369   4.500   7.669 -0.3684 -0.1070  0.1455
 8829SOL    HW137706   5.289   4.491   7.728 -0.2316 -1.3210  0.1493
 8829SOL    HW237707   5.402   4.594   7.673 -0.6862 -0.0474  1.5768
 8830SOL     OW37708   9.114   5.298   5.083 -0.9470 -0.4045 -0.2634
 8830SOL    HW137709   9.055   5.362   5.132  0.3823 -0.8742  2.0069
 8830SOL    HW237710   9.058   5.226   5.041 -1.9891 -1.0358  2.1380
 8831SOL     OW37711   0.817   5.499   2.298  0.3499 -0.0245 -0.4151
 8831SOL    HW137712   0.745   5.568   2.293  2.0676  1.6171 -3.6466
 8831SOL    HW237713   0.777   5.411   2.324 -2.3307  1.4656  0.7141
 8832SOL     OW37714   0.166   4.268   0.553  0.0890  0.4374 -1.5824
 8832SOL    HW137715   0.091   4.234   0.496  0.3632 -1.3519 -0.9109
 8832SOL    HW237716   0.147   4.246   0.649 -0.2966  3.2809 -0.9654
 8833SOL     OW37717   3.913   9.849   6.640 -0.5802 -0.1233  0.1922
 8833SOL    HW137718   3.946   9.943   6.648  0.2905 -0.4285  0.2746
 8833SOL    HW237719   3.839   9.833   6.705 -0.8337  0.5530  0.0660
 8834SOL     OW37720   4.496   6.108   2.070  0.1372 -0.3265  0.2034
 8834SOL    HW137721   4.413   6.164   2.076  0.2595 -0.0891 -0.2999
 8834SOL    HW237722   4.471   6.011   2.071 -0.2349 -0.2515 -1.1294
 8835SOL     OW37723   5.111   7.998   5.726  0.1988  0.0480 -0.0642
 8835SOL    HW137724   5.192   7.995   5.668 -0.5382 -0.0200 -1.1054
 8835SOL    HW237725   5.080   8.093   5.735  2.0110  0.4418  2.6429
 8836SOL     OW37726   8.953   5.452   4.747 -0.3765  0.2117  0.1050
 8836SOL    HW137727   9.037   5.448   4.801 -0.1775 -1.0286 -0.2789
 8836SOL    HW237728   8.949   5.540   4.699  1.3242 -0.2355 -0.8865
 8837SOL     OW37729   4.722   4.242   1.750 -0.6425  0.3010  0.0359
 8837SOL    HW137730   4.797   4.308   1.746 -0.1094 -0.3236 -0.5936
 8837SOL    HW237731   4.749   4.165   1.809 -0.6473 -0.0880 -0.4627
 8838SOL     OW37732   9.130   9.012   3.952 -0.2265  0.5041  0.2722
 8838SOL    HW137733   9.038   9.037   3.921 -0.1084  0.0592 -0.4370
 8838SOL    HW237734   9.196   9.034   3.880  0.0441 -0.5492  0.2025
 8839SOL     OW37735   9.857   2.052   6.123  0.0494  0.2265  0.1230
 8839SOL    HW137736   9.950   2.038   6.160 -0.0246 -0.3623  0.0846
 8839SOL    HW237737   9.790   2.026   6.192 -0.0905 -0.9940 -0.4675
 8840SOL     OW37738   8.881   1.230   0.856 -0.9022  0.0790  0.0800
 8840SOL    HW137739   8.828   1.202   0.936 -0.5553 -2.3880 -0.5004
 8840SOL    HW237740   8.921   1.149   0.812  2.1483  1.7225 -0.3510
 8841SOL     OW37741   2.188   6.772   3.767  0.0499  0.1247  0.6116
 8841SOL    HW137742   2.251   6.697   3.786 -0.1567  0.2065  1.6415
 8841SOL    HW237743   2.140   6.798   3.851 -1.3818  0.0303 -0.1576
 8842SOL     OW37744   2.793   4.700   0.883  0.3893  0.2805  0.7654
 8842SOL    HW137745   2.851   4.667   0.958 -1.5395  2.1667  3.1597
 8842SOL    HW237746   2.729   4.628   0.857  0.6416 -0.1814  1.4001
 8843SOL     OW37747   9.405   7.939   5.413 -0.7015  0.1672 -0.1811
 8843SOL    HW137748   9.400   8.030   5.371 -1.0096  0.3107  0.1582
 8843SOL    HW237749   9.407   7.949   5.512 -1.6812 -0.2275 -0.1159
 8844SOL     OW37750   3.778   7.256   2.670  0.0443 -0.0612  0.1425
 8844SOL    HW137751   3.747   7.298   2.585  0.8843  0.1186 -0.0838
 8844SOL    HW237752   3.860   7.201   2.652  1.3419  1.4794  1.1494
 8845SOL     OW37753   1.280   3.264   1.109  0.5697  0.6126  0.0005
 8845SOL    HW137754   1.357   3.301   1.161 -1.6983  3.1407  1.7006
 8845SOL    HW237755   1.227   3.202   1.168  0.8080 -0.4526 -0.8929
 8846SOL     OW37756   9.116   0.847   1.786  0.0437  0.3066 -0.3242
 8846SOL    HW137757   9.089   0.774   1.724  1.3587 -0.2554 -0.2527
 8846SOL    HW237758   9.147   0.926   1.734 -2.5000  1.2938 -0.4265
 8847SOL     OW37759   1.350   0.282   4.954 -0.0870  0.2463  0.4444
 8847SOL    HW137760   1.357   0.345   5.031  1.9051  1.3942 -0.6215
 8847SOL    HW237761   1.255   0.254   4.942 -0.6582  1.2886  2.3182
 8848SOL     OW37762   4.484   9.016   6.763  0.5155 -0.1346 -0.2881
 8848SOL    HW137763   4.558   9.080   6.783  0.2216  0.9983 -2.6161
 8848SOL    HW237764   4.507   8.964   6.681 -0.4381 -1.1398  0.0731
 8849SOL     OW37765   1.172   1.762   3.380  0.0547  0.3897 -0.1843
 8849SOL    HW137766   1.249   1.713   3.338  0.2594  1.7503 -1.4584
 8849SOL    HW237767   1.154   1.846   3.328 -0.7861  1.2712  1.4903
 8850SOL     OW37768   8.065   9.850   2.983 -0.6969 -0.4883 -0.4003
 8850SOL    HW137769   8.058   9.907   3.064 -0.4004 -2.1368  0.8215
 8850SOL    HW237770   8.160   9.849   2.950 -0.3510 -1.5844  0.5817
 8851SOL     OW37771   3.697   6.481   4.531  0.4067 -0.1533 -0.0608
 8851SOL    HW137772   3.779   6.504   4.478  1.6214 -1.2039  1.3141
 8851SOL    HW237773   3.722   6.420   4.606 -2.1174 -2.8438 -1.3198
 8852SOL     OW37774   2.146   1.093   2.118  0.1959 -0.1962  0.3384
 8852SOL    HW137775   2.228   1.067   2.068 -0.2914 -0.6391 -0.2373
 8852SOL    HW237776   2.152   1.061   2.212  1.4813  1.3459  0.7992
 8853SOL     OW37777   3.032   5.467   2.333  0.4862 -0.3890  0.2023
 8853SOL    HW137778   3.024   5.491   2.236 -0.2931 -1.9624 -0.1383
 8853SOL    HW237779   3.022   5.550   2.388  1.6577  0.6254 -1.0814
 8854SOL     OW37780   9.563   4.199   5.520 -0.1039  0.1607 -0.1829
 8854SOL    HW137781   9.586   4.102   5.529  1.2636  0.1549 -3.0918
 8854SOL    HW237782   9.642   4.248   5.483 -1.3550  2.0784 -0.3861
 8855SOL     OW37783   5.681   2.030   5.577  0.2576  0.2501 -0.3187
 8855SOL    HW137784   5.621   2.070   5.508  0.9718 -0.7126 -1.5316
 8855SOL    HW237785   5.721   1.945   5.541 -0.3149 -0.9363  1.7324
 8856SOL     OW37786   8.867   2.369   2.661  1.0022 -0.1520  0.1987
 8856SOL    HW137787   8.891   2.334   2.570  0.8504 -0.6040  0.3285
 8856SOL    HW237788   8.784   2.322   2.693  1.5522 -0.6247  0.9383
 8857SOL     OW37789   7.792   0.386   4.909  0.3341 -0.0826  0.2280
 8857SOL    HW137790   7.743   0.450   4.850 -0.8275  0.3063  1.5865
 8857SOL    HW237791   7.741   0.373   4.994  2.1336 -0.4050  1.2888
 8858SOL     OW37792   0.512   7.090   1.285 -0.2616 -0.5918  0.7872
 8858SOL    HW137793   0.483   7.057   1.375  0.2809  0.9560  1.5389
 8858SOL    HW237794   0.612   7.085   1.279 -0.3936 -2.3575 -0.4045
 8859SOL     OW37795   7.573   7.760   5.218 -0.3153 -0.4250 -0.4026
 8859SOL    HW137796   7.666   7.730   5.197 -0.5050 -0.1456 -1.7029
 8859SOL    HW237797   7.514   7.681   5.235  0.2269 -0.5878  0.7085
 8860SOL     OW37798   7.675   1.825   3.102  0.9325  0.3324  0.3549
 8860SOL    HW137799   7.641   1.902   3.157 -0.2703  1.1361 -1.4450
 8860SOL    HW237800   7.770   1.841   3.077  1.2262  0.3709  1.4989
 8861SOL     OW37801   9.430   3.493   4.708 -0.1796  0.3982 -0.0658
 8861SOL    HW137802   9.467   3.571   4.758  3.0555 -0.3923 -1.1202
 8861SOL    HW237803   9.349   3.522   4.657  0.8826  3.0422 -0.3367
 8862SOL     OW37804   2.185   4.230   4.141 -0.5156  0.2824  0.4426
 8862SOL    HW137805   2.119   4.243   4.215 -1.3425  1.6051 -0.5152
 8862SOL    HW237806   2.137   4.226   4.054  0.5323 -0.4157 -0.1178
 8863SOL     OW37807   9.893   7.414   2.991 -0.0775 -0.2784  0.0636
 8863SOL    HW137808   9.825   7.348   3.021 -0.8479  0.4554 -0.0364
 8863SOL    HW237809   9.914   7.477   3.066  1.4043 -1.2381  0.4763
 8864SOL     OW37810   1.591   3.006   2.325  0.0684  0.9604 -0.2640
 8864SOL    HW137811   1.674   3.050   2.361 -0.1785  0.5852  0.7874
 8864SOL    HW237812   1.511   3.045   2.370 -0.3205  1.1826 -1.1385
 8865SOL     OW37813   1.059   9.494   1.153 -0.0387  0.2214 -0.4956
 8865SOL    HW137814   0.989   9.456   1.214  0.9257  0.6865  0.9341
 8865SOL    HW237815   1.149   9.477   1.192  0.5571  1.0357 -1.5163
 8866SOL     OW37816   8.247   7.629   5.575  0.2156  0.3653 -0.3063
 8866SOL    HW137817   8.162   7.626   5.628 -0.2589  0.5114 -1.0522
 8866SOL    HW237818   8.238   7.570   5.495  1.4487 -0.9939  0.5126
 8867SOL     OW37819   9.542   7.904   3.997  0.3992  0.4394 -0.2818
 8867SOL    HW137820   9.532   7.916   3.898 -1.7311  1.2081 -0.0178
 8867SOL    HW237821   9.638   7.888   4.020  1.1377  1.6848 -2.3386
 8868SOL     OW37822   9.648   3.009   4.422 -0.4062 -0.2704 -0.5076
 8868SOL    HW137823   9.634   3.088   4.482  2.3248 -0.0263 -0.0950
 8868SOL    HW237824   9.576   2.942   4.437 -0.4897  0.3589  2.1503
 8869SOL     OW37825   8.244   5.139   1.229 -0.1080  0.4169  0.3276
 8869SOL    HW137826   8.331   5.096   1.254 -0.3494 -0.1522  0.1929
 8869SOL    HW237827   8.230   5.221   1.286  0.6998  0.7380  0.0780
 8870SOL     OW37828   1.461   3.797   5.536 -0.5100 -0.2353 -0.4315
 8870SOL    HW137829   1.532   3.867   5.530 -0.8057  0.1268  0.2958
 8870SOL    HW237830   1.436   3.767   5.444 -0.2023  0.4318 -0.7344
 8871SOL     OW37831   9.127   5.075   4.536  0.0963  0.1837 -0.1079
 8871SOL    HW137832   9.195   5.049   4.606  1.5681  1.3058 -1.1057
 8871SOL    HW237833   9.090   4.992   4.494 -0.1284 -0.4796  1.3589
 8872SOL     OW37834   4.114   9.476   3.295  0.2135  0.1796  0.1012
 8872SOL    HW137835   4.100   9.406   3.224  1.8457 -0.1479  0.0584
 8872SOL    HW237836   4.132   9.431   3.382  3.9387  0.4051 -0.4370
 8873SOL     OW37837   1.910   1.532   1.771  0.0791  0.0254 -1.0148
 8873SOL    HW137838   1.841   1.473   1.730 -0.1520  0.8502 -1.8068
 8873SOL    HW237839   1.869   1.586   1.845  0.5657 -1.6908  0.5546
 8874SOL     OW37840   9.261   6.364   2.307  0.3758  0.1491 -0.0900
 8874SOL    HW137841   9.269   6.313   2.221 -0.8927  1.5880 -1.0852
 8874SOL    HW237842   9.165   6.370   2.334  0.5850  1.3110  0.4358
 8875SOL     OW37843   9.568   1.116   5.154  0.2934 -0.4898  0.1827
 8875SOL    HW137844   9.504   1.179   5.111 -1.5504 -0.2299  3.2079
 8875SOL    HW237845   9.543   1.022   5.131  1.2572 -0.2945 -1.8500
 8876SOL     OW37846   4.612   3.333   5.696  0.1102  0.1328 -0.0929
 8876SOL    HW137847   4.592   3.395   5.771  0.7743  0.3551 -0.1037
 8876SOL    HW237848   4.676   3.376   5.632  0.6307 -0.5783 -0.0604
 8877SOL     OW37849   3.692   1.276   6.514 -0.0130  0.2269 -0.3929
 8877SOL    HW137850   3.714   1.371   6.533 -2.0165  0.2771  1.8962
 8877SOL    HW237851   3.760   1.216   6.557  0.1874  0.5757 -0.2254
 8878SOL     OW37852   0.897   8.214   0.577 -0.6894 -0.3388 -0.0936
 8878SOL    HW137853   0.970   8.281   0.567 -0.7597 -0.5552 -2.4933
 8878SOL    HW237854   0.935   8.122   0.571 -1.1531 -0.4512 -1.5591
 8879SOL     OW37855   9.313   4.376   8.150  0.5820  0.1812 -0.3662
 8879SOL    HW137856   9.403   4.419   8.139  0.8992 -0.6147 -0.9635
 8879SOL    HW237857   9.322   4.277   8.138 -0.3839  0.1019 -0.4756
 8880SOL     OW37858   7.419   1.465   1.528 -0.3442 -0.1346 -0.2281
 8880SOL    HW137859   7.515   1.486   1.513 -0.3109  1.0118  1.5828
 8880SOL    HW237860   7.362   1.522   1.468  0.0792 -0.7745 -1.2554
 8881SOL     OW37861   4.914   8.189   1.700 -0.2631 -0.2179 -0.3554
 8881SOL    HW137862   4.892   8.209   1.605 -1.9907  0.1252  0.1051
 8881SOL    HW237863   4.904   8.271   1.755  1.1868 -0.3014  0.0656
 8882SOL     OW37864   3.236   0.834   5.453 -0.4279  0.2115  0.2778
 8882SOL    HW137865   3.265   0.877   5.539  1.0080 -0.0398 -0.0649
 8882SOL    HW237866   3.296   0.865   5.379 -0.7948 -0.6535 -0.3801
 8883SOL     OW37867   0.727   0.525   3.437  0.0058 -0.2895 -0.7268
 8883SOL    HW137868   0.712   0.494   3.343 -0.4307 -1.7670 -0.1794
 8883SOL    HW237869   0.760   0.449   3.492 -2.7337 -0.2536  1.0434
 8884SOL     OW37870   2.729   9.123   2.375 -0.3019  0.3731  0.3065
 8884SOL    HW137871   2.653   9.168   2.329 -1.0098 -0.6996  0.4159
 8884SOL    HW237872   2.786   9.076   2.308 -0.8850 -0.5257  0.4414
 8885SOL     OW37873   4.717   9.111   1.293 -0.9256  0.5535  0.1091
 8885SOL    HW137874   4.656   9.041   1.330  0.8467 -1.3843 -0.5109
 8885SOL    HW237875   4.689   9.134   1.200  0.1290 -1.4582 -0.7459
 8886SOL     OW37876   7.842   9.496   3.250 -0.3040 -0.6831 -0.1836
 8886SOL    HW137877   7.847   9.400   3.221 -3.4507 -0.7920 -0.5808
 8886SOL    HW237878   7.765   9.541   3.204 -0.0577  1.5146  1.4472
 8887SOL     OW37879   3.252   7.977   4.028  0.4044  0.0797 -0.2750
 8887SOL    HW137880   3.158   8.008   4.041  0.9977  1.8329  0.0797
 8887SOL    HW237881   3.305   8.051   3.988  1.7092 -0.7823 -0.1582
 8888SOL     OW37882   9.574   7.038   4.108  0.7597 -0.2671 -0.4389
 8888SOL    HW137883   9.642   7.091   4.158 -0.0614  1.1133 -0.7653
 8888SOL    HW237884   9.616   6.956   4.070  1.6138 -0.8388  1.6917
 8889SOL     OW37885   8.827   9.063   2.813 -0.0954 -0.1152 -0.3818
 8889SOL    HW137886   8.861   9.018   2.896 -1.4703 -1.9014 -0.7635
 8889SOL    HW237887   8.773   9.143   2.839  0.3499 -0.0594  0.4003
 8890SOL     OW37888   7.191   3.808   5.494 -0.1668  0.0616 -0.6634
 8890SOL    HW137889   7.225   3.755   5.417  0.8192 -0.4937  0.1566
 8890SOL    HW237890   7.267   3.850   5.543 -0.7747  0.2890  0.1027
 8891SOL     OW37891   0.619   8.221   6.120 -0.3195 -0.3527  0.2598
 8891SOL    HW137892   0.560   8.160   6.067  1.2542 -2.3842  0.7419
 8891SOL    HW237893   0.674   8.277   6.058 -0.9100 -0.2905 -0.2064
 8892SOL     OW37894   2.609   6.950   6.302 -0.0217  0.2548 -0.7856
 8892SOL    HW137895   2.616   6.968   6.400  2.0544  0.5403 -0.9646
 8892SOL    HW237896   2.520   6.981   6.268 -1.7349 -1.9884  1.4460
 8893SOL     OW37897   7.357   9.943   1.184 -0.0982  0.2926  0.7229
 8893SOL    HW137898   7.454   9.958   1.205 -0.3085  1.0963  1.1479
 8893SOL    HW237899   7.309  10.031   1.185 -0.4735  0.1317 -1.3903
 8894SOL     OW37900   3.671   4.345   2.669 -0.4461 -0.1174 -0.3558
 8894SOL    HW137901   3.576   4.344   2.638 -0.2230 -1.7275 -1.0342
 8894SOL    HW237902   3.732   4.359   2.591 -0.0045 -1.7240 -0.3114
 8895SOL     OW37903   3.419   2.885   8.041  0.0354  0.2308  0.0539
 8895SOL    HW137904   3.359   2.884   8.120  0.0605 -0.4492  0.0664
 8895SOL    HW237905   3.385   2.821   7.972  0.2872  0.4514 -0.2781
 8896SOL     OW37906   1.951   7.320   4.401 -0.2090  0.1984 -0.1121
 8896SOL    HW137907   1.934   7.228   4.437  0.0152  0.5139  0.8037
 8896SOL    HW237908   2.008   7.314   4.319  0.1420 -0.4444  0.1795
 8897SOL     OW37909   0.657   4.206   3.587 -0.1564  0.1362 -0.0327
 8897SOL    HW137910   0.715   4.287   3.603  0.8219 -0.3310 -1.1222
 8897SOL    HW237911   0.709   4.123   3.610 -1.2642 -0.1828  1.3884
 8898SOL     OW37912   1.563   3.519   0.556 -0.7090 -0.4451  0.4866
 8898SOL    HW137913   1.520   3.557   0.474 -1.8635  1.1296  1.7892
 8898SOL    HW237914   1.500   3.457   0.601 -0.1876 -1.0719  0.3645
 8899SOL     OW37915   9.778   4.412   4.860  0.1039 -0.0026  0.2506
 8899SOL    HW137916   9.743   4.436   4.769  1.5474 -0.9719 -0.5785
 8899SOL    HW237917   9.878   4.409   4.857  0.2158  1.2973  2.2221
 8900SOL     OW37918   9.340   7.848   1.990  0.3162  0.0672  0.2029
 8900SOL    HW137919   9.397   7.770   2.014 -0.4507 -0.4479  0.3588
 8900SOL    HW237920   9.243   7.822   1.996  0.0248  1.3195  1.2999
 8901SOL     OW37921   3.504   9.420   3.624 -0.0313  0.2317 -0.1227
 8901SOL    HW137922   3.417   9.434   3.670 -0.1614 -0.4700 -0.1493
 8901SOL    HW237923   3.509   9.476   3.542  0.0900  1.2922  0.5916
 8902SOL     OW37924   5.185   6.144   1.932  0.5661  0.1255  0.5742
 8902SOL    HW137925   5.123   6.198   1.990 -2.2186 -0.9736 -1.2695
 8902SOL    HW237926   5.163   6.047   1.942 -0.0895 -0.0736 -2.3919
 8903SOL     OW37927   3.460   3.140   3.975 -0.4349  0.0491 -0.0983
 8903SOL    HW137928   3.523   3.210   3.941  0.1256 -0.3540  0.1057
 8903SOL    HW237929   3.483   3.118   4.070 -0.8476 -0.1415 -0.0437
 8904SOL     OW37930   5.706   3.748   0.395  0.2070  0.2405 -0.0338
 8904SOL    HW137931   5.704   3.696   0.309  0.9297  1.0454 -0.5514
 8904SOL    HW237932   5.613   3.767   0.425 -0.0576  0.4520 -0.9608
 8905SOL     OW37933   1.469   0.958   4.621  0.3321  0.0409  0.4234
 8905SOL    HW137934   1.436   0.930   4.530  2.4750  0.0467 -0.3871
 8905SOL    HW237935   1.530   0.887   4.657 -1.2034 -0.3871  2.2926
 8906SOL     OW37936   6.063   5.287   1.592  0.1018  0.4431  0.1315
 8906SOL    HW137937   6.138   5.339   1.550 -1.0435  2.4514  0.5056
 8906SOL    HW237938   6.029   5.336   1.672 -1.6766 -0.3961 -0.0795
 8907SOL     OW37939   4.933   3.615   4.071 -0.1476 -0.4315  0.0894
 8907SOL    HW137940   4.923   3.702   4.118 -1.6583 -1.3448  1.5027
 8907SOL    HW237941   5.026   3.581   4.083 -0.6124 -0.8613  2.8353
 8908SOL     OW37942   9.308   4.623   0.670 -0.7618  0.2945  0.5311
 8908SOL    HW137943   9.219   4.589   0.641 -0.6485 -0.8958  1.5377
 8908SOL    HW237944   9.301   4.721   0.688 -2.5316 -0.2388  3.0532
 8909SOL     OW37945   7.259   2.406   2.318  0.3169 -0.1197  0.4027
 8909SOL    HW137946   7.268   2.506   2.315 -0.6462  0.0194  1.9020
 8909SOL    HW237947   7.247   2.371   2.225 -0.5236  1.2767 -0.0255
 8910SOL     OW37948   3.705   1.683   0.930 -0.0835 -0.3818 -0.1588
 8910SOL    HW137949   3.667   1.591   0.943 -1.2131  0.1171  0.2094
 8910SOL    HW237950   3.676   1.742   1.006  0.2803  0.3886 -0.6040
 8911SOL     OW37951   0.456   5.437   4.474 -0.1448  0.5734 -0.6628
 8911SOL    HW137952   0.469   5.506   4.403 -0.3202  0.8787 -0.3976
 8911SOL    HW237953   0.511   5.460   4.554 -0.2008  0.4012 -0.5740
 8912SOL     OW37954   7.384   2.775   8.059 -0.2933 -0.2273 -0.3276
 8912SOL    HW137955   7.391   2.688   8.011 -0.9766  0.7124 -2.1827
 8912SOL    HW237956   7.470   2.827   8.048  0.4223 -0.9764  1.4624
 8913SOL     OW37957   3.551   7.398   5.134  0.0271 -0.1045  0.5673
 8913SOL    HW137958   3.514   7.309   5.110 -0.1709  0.3588 -0.8781
 8913SOL    HW237959   3.651   7.395   5.131  0.0009  0.0601 -0.7630
 8914SOL     OW37960   8.974   3.466   2.063 -0.0644 -0.3695 -0.3929
 8914SOL    HW137961   9.040   3.541   2.059  1.2840 -1.4403  1.1647
 8914SOL    HW237962   9.023   3.379   2.079 -1.7167 -1.3967 -0.7993
 8915SOL     OW37963   1.863   8.807   5.243  0.0347 -0.7426 -1.1109
 8915SOL    HW137964   1.916   8.722   5.240  0.5354 -0.4528 -0.5797
 8915SOL    HW237965   1.769   8.787   5.272  1.2844 -0.6058  3.4308
 8916SOL     OW37966   7.886   7.622   6.137 -0.0229 -0.3442  0.5985
 8916SOL    HW137967   7.906   7.554   6.207 -0.6574 -0.1425  0.9771
 8916SOL    HW237968   7.804   7.673   6.162 -0.9800 -1.1056 -0.8992
 8917SOL     OW37969   8.116   6.282   2.659  0.2948  0.3793  0.0984
 8917SOL    HW137970   8.128   6.184   2.676 -0.3934  0.4589  1.0806
 8917SOL    HW237971   8.042   6.296   2.594 -0.6858  0.3035  1.1752
 8918SOL     OW37972   0.181   8.055   0.860 -0.5197 -0.1813 -0.1326
 8918SOL    HW137973   0.117   7.986   0.828 -1.3395  0.7890 -0.6280
 8918SOL    HW237974   0.136   8.145   0.861  0.3976  0.2834  0.8855
 8919SOL     OW37975   9.119   6.740   4.171 -0.3698 -0.4854  0.0251
 8919SOL    HW137976   9.157   6.713   4.259 -1.1400 -1.5523  0.0334
 8919SOL    HW237977   9.180   6.710   4.098  0.6526  1.0643  0.2203
 8920SOL     OW37978   8.039   1.410   3.429  0.0062 -0.2783 -0.5311
 8920SOL    HW137979   8.074   1.332   3.378 -1.1871 -1.2235  0.0747
 8920SOL    HW237980   8.084   1.416   3.518 -0.0100 -0.3653 -0.5178
 8921SOL     OW37981   3.021   1.593   2.121  0.4386 -1.2926  0.1121
 8921SOL    HW137982   2.978   1.679   2.093  0.8782 -1.5037 -1.2114
 8921SOL    HW237983   3.004   1.523   2.052  1.7107 -1.7552  0.2591
 8922SOL     OW37984   9.210   0.197   4.179 -0.5378  0.0031 -0.4772
 8922SOL    HW137985   9.207   0.222   4.276 -0.8469  1.5197 -0.8678
 8922SOL    HW237986   9.295   0.230   4.139  0.0272 -1.4691 -0.5020
 8923SOL     OW37987   8.840   4.358   4.422 -0.1127 -0.4666  0.5550
 8923SOL    HW137988   8.897   4.440   4.415  0.1535 -0.7334 -0.4877
 8923SOL    HW237989   8.886   4.282   4.377 -0.2018 -1.2815  1.8316
 8924SOL     OW37990   7.587   2.133   4.202  0.0343  0.5911 -0.5730
 8924SOL    HW137991   7.642   2.200   4.253 -1.8049  0.6555  1.4175
 8924SOL    HW237992   7.539   2.074   4.267 -0.6135 -0.8068 -2.3009
 8925SOL     OW37993   4.916   1.632   3.795 -0.4643  0.2786  0.4765
 8925SOL    HW137994   4.941   1.720   3.755 -1.3214 -0.4801 -1.8530
 8925SOL    HW237995   4.817   1.629   3.809 -0.0685  0.9328  3.7670
 8926SOL     OW37996   8.239   2.312   5.041  0.6526  0.5569  0.1618
 8926SOL    HW137997   8.322   2.308   4.987 -1.0787 -0.0115 -2.5747
 8926SOL    HW237998   8.210   2.220   5.066 -0.5482  0.5663 -1.1479
 8927SOL     OW37999   3.122   1.140   3.122 -0.5493  0.2016  0.9821
 8927SOL    HW138000   3.032   1.184   3.112 -0.4957  0.1023 -0.0228
 8927SOL    HW238001   3.128   1.063   3.058  0.6579  0.8796  0.2538
 8928SOL     OW38002   9.800   4.325   3.326 -0.3200  0.2017  0.6410
 8928SOL    HW138003   9.752   4.400   3.279 -0.3611 -0.1980  0.0305
 8928SOL    HW238004   9.745   4.294   3.403  0.1973  1.5131  1.5564
 8929SOL     OW38005   9.305   4.346   5.815 -0.1320  0.4567  0.5919
 8929SOL    HW138006   9.270   4.302   5.898  0.5899 -0.2170  0.5415
 8929SOL    HW238007   9.296   4.284   5.737  0.9718  0.3504  0.5370
 8930SOL     OW38008   8.861   5.579   3.469 -0.3986  0.6227  0.3117
 8930SOL    HW138009   8.939   5.623   3.513 -0.7297  2.4677 -0.8869
 8930SOL    HW238010   8.893   5.523   3.393  0.0610 -1.5933  2.0895
 8931SOL     OW38011   8.603   6.171   5.067  0.9011  0.2960  0.3170
 8931SOL    HW138012   8.548   6.089   5.051  0.9267  0.4415 -0.5163
 8931SOL    HW238013   8.696   6.145   5.092  0.4522  0.0435  1.7739
 8932SOL     OW38014   0.320   4.837   2.121 -0.2648 -0.3221  0.4178
 8932SOL    HW138015   0.257   4.900   2.076  0.1034  0.3813  0.8911
 8932SOL    HW238016   0.269   4.756   2.152 -0.3984 -1.2248 -1.9800
 8933SOL     OW38017   1.292   1.432   3.167 -0.3509 -0.1123 -0.1992
 8933SOL    HW138018   1.258   1.341   3.191  1.1129 -0.6091  0.0871
 8933SOL    HW238019   1.359   1.423   3.093  0.5031  0.6220  0.4802
 8934SOL     OW38020   1.226   2.432   4.415  0.4365 -0.1554  0.1393
 8934SOL    HW138021   1.209   2.468   4.506  0.6060  0.2997 -0.0108
 8934SOL    HW238022   1.142   2.441   4.360  0.6205  0.4326 -0.0424
 8935SOL     OW38023   1.199   2.205   0.736  0.1841 -0.0460 -0.2592
 8935SOL    HW138024   1.189   2.302   0.758 -0.7477  0.0606 -1.0976
 8935SOL    HW238025   1.282   2.191   0.683 -0.3856  0.5171 -1.3197
 8936SOL     OW38026   7.179   9.927   5.895  0.6742  0.3544 -0.0018
 8936SOL    HW138027   7.239   9.856   5.860 -0.8885 -0.5327 -0.9557
 8936SOL    HW238028   7.148   9.902   5.987  1.3320  0.5524  0.2752
 8937SOL     OW38029   3.331   9.049   6.310 -0.2912 -0.1397  0.2348
 8937SOL    HW138030   3.260   9.039   6.240 -0.9438  1.6447  0.6097
 8937SOL    HW238031   3.383   9.133   6.292  0.4702 -0.4307  1.0634
 8938SOL     OW38032   9.421   8.553   5.621 -0.2952  0.3974 -1.2379
 8938SOL    HW138033   9.472   8.637   5.641  1.0990  0.0499 -3.1361
 8938SOL    HW238034   9.337   8.577   5.571 -0.6701  0.7775 -0.4302
 8939SOL     OW38035   3.655   5.840   2.128 -0.5429 -0.1642 -0.0492
 8939SOL    HW138036   3.687   5.783   2.052 -2.2665 -1.0887 -0.1067
 8939SOL    HW238037   3.562   5.872   2.110 -0.1242  1.5075  0.6397
 8940SOL     OW38038   4.307   5.712   2.357  0.7421 -0.0142  0.1822
 8940SOL    HW138039   4.230   5.662   2.397  0.3385  1.0819  0.8201
 8940SOL    HW238040   4.392   5.662   2.373  0.2709 -0.7839  0.2845
 8941SOL     OW38041   0.639   1.461   2.573 -0.2472 -0.6348  0.4632
 8941SOL    HW138042   0.590   1.443   2.487  0.6578  0.3800 -0.2775
 8941SOL    HW238043   0.695   1.543   2.563 -0.4240 -0.2835  2.1664
 8942SOL     OW38044   8.403   5.566   0.723  0.7488 -0.0912 -0.5086
 8942SOL    HW138045   8.453   5.497   0.670 -0.3210 -0.8242 -0.5643
 8942SOL    HW238046   8.356   5.522   0.800  0.4122  0.6394 -0.2914
 8943SOL     OW38047   0.129   8.192   2.834  0.1599  0.1604  0.3834
 8943SOL    HW138048   0.213   8.245   2.819 -0.9551  1.5589 -1.1539
 8943SOL    HW238049   0.135   8.107   2.783 -0.9550  2.0643 -3.1408
 8944SOL     OW38050   4.906   7.314   2.598  0.1017  0.3356 -0.0750
 8944SOL    HW138051   4.840   7.292   2.670  1.1346  0.7446  1.0077
 8944SOL    HW238052   4.865   7.380   2.535  0.2117  2.2854  1.8204
 8945SOL     OW38053   1.955   9.884   4.628 -0.8627  0.1266 -0.0871
 8945SOL    HW138054   1.969   9.922   4.720  0.9515  1.4713 -0.8779
 8945SOL    HW238055   1.951   9.785   4.633 -1.1145  0.2028  1.4982
 8946SOL     OW38056   1.566   4.291   4.055  0.2979 -0.0239  0.6108
 8946SOL    HW138057   1.538   4.202   4.019 -0.1545  0.5791 -0.5652
 8946SOL    HW238058   1.645   4.279   4.116  0.7021 -1.1432 -0.1122
 8947SOL     OW38059   9.085   5.983   6.237 -0.1103 -0.0842  0.0581
 8947SOL    HW138060   9.071   6.030   6.323  1.4473  0.4021  0.0467
 8947SOL    HW238061   9.181   5.957   6.227  0.3209  2.2496 -2.7260
 8948SOL     OW38062   7.966   8.358   4.884  0.0351 -0.3945  0.2253
 8948SOL    HW138063   7.955   8.424   4.810 -1.8927 -0.7170  0.2119
 8948SOL    HW238064   8.051   8.378   4.933 -0.0308  1.4847 -0.3687
 8949SOL     OW38065   8.895   7.950   2.326  0.0578  0.1150 -0.2807
 8949SOL    HW138066   8.832   8.027   2.333 -0.3850 -0.3793  1.5355
 8949SOL    HW238067   8.981   7.981   2.287  0.0350  1.6361  0.8331
 8950SOL     OW38068   4.098   5.228   3.784 -0.2010  0.2356 -0.2425
 8950SOL    HW138069   4.097   5.254   3.881 -0.2883  0.4315 -0.2954
 8950SOL    HW238070   4.187   5.189   3.761 -0.2454  0.0152 -0.0387
 8951SOL     OW38071   9.474   7.992   4.582 -0.3915 -0.2615 -0.0519
 8951SOL    HW138072   9.470   8.061   4.510 -1.2102 -0.2404  0.0119
 8951SOL    HW238073   9.561   8.000   4.631 -1.4825  2.3393  1.5356
 8952SOL     OW38074   5.565   8.967   2.563 -0.5842 -0.2770 -0.0511
 8952SOL    HW138075   5.514   8.940   2.481 -0.5914 -0.7350  0.1063
 8952SOL    HW238076   5.638   9.031   2.537 -1.1021  0.2191 -0.3054
 8953SOL     OW38077   0.212   9.987   6.357  0.0097 -1.1574 -0.4612
 8953SOL    HW138078   0.234   9.900   6.312 -1.0381 -1.5586 -0.2150
 8953SOL    HW238079   0.128   9.977   6.409 -0.9093  0.4257 -1.6090
 8954SOL     OW38080   3.175   6.161   0.572 -0.2110 -0.4107  0.0141
 8954SOL    HW138081   3.186   6.239   0.510 -0.1162 -0.1543  0.3525
 8954SOL    HW238082   3.175   6.193   0.667 -1.8827 -0.6410  0.0922
 8955SOL     OW38083   2.329   0.075   1.228 -0.3133 -0.5384  0.0819
 8955SOL    HW138084   2.249   0.126   1.257  0.6050 -0.2211  2.1326
 8955SOL    HW238085   2.307  -0.022   1.224 -1.0979 -0.3437 -0.4386
 8956SOL     OW38086   8.888   4.194   4.652  0.1088  0.2775  1.0684
 8956SOL    HW138087   8.905   4.226   4.559  1.1560  0.4828  1.3269
 8956SOL    HW238088   8.975   4.172   4.696 -0.4351 -0.6007  1.7254
 8957SOL     OW38089   3.858   8.669   3.170  0.0350  0.2308  1.0750
 8957SOL    HW138090   3.760   8.676   3.187  0.1452  1.9985  1.0347
 8957SOL    HW238091   3.895   8.593   3.224 -1.0113  0.7906  2.6391
 8958SOL     OW38092   2.404   7.901   5.545 -0.0581  0.0615  0.5663
 8958SOL    HW138093   2.359   7.924   5.459  0.4426  0.8034  0.5042
 8958SOL    HW238094   2.343   7.926   5.621  0.3844  1.4075  0.4936
 8959SOL     OW38095   6.277   1.028   4.079  0.1704 -0.1883  0.7998
 8959SOL    HW138096   6.372   1.048   4.102  0.5181 -0.2995 -0.4723
 8959SOL    HW238097   6.217   1.056   4.154  1.1215  0.7850  1.2035
 8960SOL     OW38098   4.864   1.417   1.305 -0.0454 -0.3991 -0.4048
 8960SOL    HW138099   4.864   1.516   1.322  3.1963 -0.6805  1.7427
 8960SOL    HW238100   4.770   1.385   1.292 -1.5133  2.3260  2.8314
 8961SOL     OW38101   4.175   6.131   4.116  0.3672 -0.1409  0.3323
 8961SOL    HW138102   4.274   6.143   4.119  0.4228 -0.6194  0.6421
 8961SOL    HW238103   4.133   6.201   4.059  1.0353 -0.8508 -1.0319
 8962SOL     OW38104   4.674   1.968   1.934  0.0202  0.0583 -0.3117
 8962SOL    HW138105   4.616   1.990   1.856 -0.6447 -1.3108 -0.2151
 8962SOL    HW238106   4.754   2.027   1.934 -0.0220  0.1220 -1.9859
 8963SOL     OW38107   3.315   2.686   4.455 -0.0456  0.2112  0.3117
 8963SOL    HW138108   3.291   2.766   4.511  1.6924 -0.2491  1.7440
 8963SOL    HW238109   3.273   2.604   4.494  0.3587  0.0346  0.3813
 8964SOL     OW38110   8.040   6.376   1.756  0.2537 -0.3984  0.3570
 8964SOL    HW138111   8.138   6.361   1.749  0.4673  0.7445  0.6646
 8964SOL    HW238112   7.994   6.339   1.676  0.8293 -1.7904  0.6682
 8965SOL     OW38113   4.702   1.173   4.743  0.2379 -0.7547  0.3094
 8965SOL    HW138114   4.653   1.215   4.819 -1.1687 -0.7262 -0.5871
 8965SOL    HW238115   4.729   1.244   4.677  2.0116 -0.6959  1.0634
 8966SOL     OW38116   9.706   6.397   1.439  0.0253  0.3509 -0.0418
 8966SOL    HW138117   9.765   6.370   1.515  0.7205  0.5482 -0.5143
 8966SOL    HW238118   9.642   6.467   1.471  0.0629  0.1578  0.4634
 8967SOL     OW38119   4.129   4.341   3.771 -0.1849  0.2265  0.0956
 8967SOL    HW138120   4.170   4.254   3.745  0.1556  0.7000 -1.0111
 8967SOL    HW238121   4.045   4.356   3.719  0.4303  1.1280 -0.6580
 8968SOL     OW38122   3.059   2.872   2.566  0.3381  0.8906  0.1281
 8968SOL    HW138123   2.977   2.816   2.558  0.0049  1.3253  0.4761
 8968SOL    HW238124   3.050   2.932   2.646  0.8572  1.1662 -0.0224
 8969SOL     OW38125   8.646   3.964   0.539  0.0234 -0.1263  0.2781
 8969SOL    HW138126   8.595   3.976   0.454  0.7976 -1.0776 -0.3392
 8969SOL    HW238127   8.741   3.940   0.518  0.5993  1.0884  1.4051
 8970SOL     OW38128   0.655   6.450   5.893 -0.0350  0.0544  0.0612
 8970SOL    HW138129   0.741   6.496   5.914  0.3659 -1.2367  1.3009
 8970SOL    HW238130   0.579   6.512   5.914  0.5696  1.1306 -0.8740
 8971SOL     OW38131   4.033   0.736   3.569 -0.7157  0.1162 -0.4151
 8971SOL    HW138132   4.021   0.761   3.665  1.4952  0.1139 -0.1208
 8971SOL    HW238133   4.058   0.818   3.516 -0.4499 -0.1620 -0.7193
 8972SOL     OW38134   6.745   1.302   3.896 -0.0204 -0.4607 -0.3706
 8972SOL    HW138135   6.775   1.274   3.805  1.1515 -1.1050  0.2033
 8972SOL    HW238136   6.645   1.315   3.896 -0.1314 -1.2688 -1.5208
 8973SOL     OW38137   8.925   5.108   4.976 -0.8708  0.2074  0.2358
 8973SOL    HW138138   8.890   5.092   4.884  2.1558  2.3118 -1.3815
 8973SOL    HW238139   8.976   5.027   5.006  1.4840  0.9030 -1.6530
 8974SOL     OW38140   8.722   9.810   2.386 -1.0308 -0.0013 -0.7402
 8974SOL    HW138141   8.805   9.793   2.440 -0.5952  1.7204 -0.8273
 8974SOL    HW238142   8.645   9.761   2.426 -0.0542 -1.3201 -0.4297
 8975SOL     OW38143   2.463   6.617   3.502 -0.0308 -0.1203  0.1512
 8975SOL    HW138144   2.525   6.620   3.424  0.6500 -0.1270  0.6961
 8975SOL    HW238145   2.437   6.711   3.526 -0.4231 -0.1281 -0.2213
 8976SOL     OW38146   4.218   7.663   4.310 -0.3644  0.0565  0.1296
 8976SOL    HW138147   4.314   7.686   4.325 -0.3180 -0.8862  1.3391
 8976SOL    HW238148   4.172   7.740   4.266  0.4082  1.4282  1.6557
 8977SOL     OW38149   4.122   8.761   0.365 -0.2622 -0.3235 -0.5675
 8977SOL    HW138150   4.032   8.732   0.399 -0.6171 -0.2156 -1.4070
 8977SOL    HW238151   4.127   8.743   0.267  0.0442  1.1587 -0.8257
 8978SOL     OW38152   8.447   5.626   0.255 -0.0366 -0.4115 -0.3461
 8978SOL    HW138153   8.454   5.527   0.241  0.8410 -0.4906  0.5387
 8978SOL    HW238154   8.534   5.661   0.290 -1.1423  0.2335  1.9050
 8979SOL     OW38155   0.131   1.516   1.902  0.2771  0.4148 -0.3570
 8979SOL    HW138156   0.192   1.512   1.981  1.1666  0.9746 -1.0048
 8979SOL    HW238157   0.050   1.570   1.925  0.1729 -0.0590  0.4052
 8980SOL     OW38158   3.203   3.889   2.934  0.1885 -0.4230  0.3309
 8980SOL    HW138159   3.229   3.796   2.910  0.5794 -0.8835  2.3991
 8980SOL    HW238160   3.120   3.886   2.990 -0.8154  0.6066 -1.0802
 8981SOL     OW38161   6.968   0.153   3.753 -0.4146  0.3107  0.6491
 8981SOL    HW138162   6.937   0.065   3.790 -1.5395  0.0485 -0.8630
 8981SOL    HW238163   6.983   0.217   3.828 -1.5248 -0.5676  1.6482
 8982SOL     OW38164   6.626   0.979   4.076  0.1868  0.2454  0.1569
 8982SOL    HW138165   6.703   1.022   4.122  1.5713  1.0109 -2.7870
 8982SOL    HW238166   6.657   0.900   4.024 -1.2323 -0.2459  0.0163
 8983SOL     OW38167   9.091   7.913   4.514 -0.0484  0.4765 -0.3098
 8983SOL    HW138168   9.182   7.872   4.516  0.4994  1.6834  0.2443
 8983SOL    HW238169   9.052   7.904   4.422  0.7307  0.1659 -0.6106
 8984SOL     OW38170   8.661   7.356   6.583 -0.2254  0.2918 -1.4840
 8984SOL    HW138171   8.685   7.264   6.551  1.3026  0.0660  0.2555
 8984SOL    HW238172   8.692   7.424   6.516  1.4740 -0.2678 -1.2892
 8985SOL     OW38173   4.809   9.816   2.681 -0.0010  0.4330 -0.5009
 8985SOL    HW138174   4.781   9.767   2.598  0.4545  0.1051 -0.4633
 8985SOL    HW238175   4.849   9.904   2.655  3.5590 -1.2067 -0.9114
 8986SOL     OW38176   2.767   3.006   2.415 -0.5189  0.5232 -0.6013
 8986SOL    HW138177   2.723   3.035   2.330  2.0564  0.3288 -2.0428
 8986SOL    HW238178   2.802   2.913   2.404 -3.0648 -0.8216  1.8405
 8987SOL     OW38179   6.186   9.125   3.478  0.4400  0.4959 -0.0516
 8987SOL    HW138180   6.232   9.213   3.493 -0.8122  1.0904  0.3386
 8987SOL    HW238181   6.235   9.074   3.408  1.5826  1.2146  0.2088
 8988SOL     OW38182   8.352   3.417   4.589 -0.6081 -0.0332 -0.4604
 8988SOL    HW138183   8.366   3.368   4.503 -0.7137  0.6291 -0.8600
 8988SOL    HW238184   8.254   3.430   4.604 -0.5971 -0.3155 -0.1426
 8989SOL     OW38185   8.332   6.174   4.026 -0.2863 -0.2148  0.6442
 8989SOL    HW138186   8.330   6.249   4.092 -2.1194  0.3005  0.0502
 8989SOL    HW238187   8.397   6.194   3.954 -1.2209  1.1293  0.1509
 8990SOL     OW38188   9.324   0.977   5.860 -0.0118 -0.6931  0.1398
 8990SOL    HW138189   9.409   0.963   5.911  0.4805 -0.0442 -0.5000
 8990SOL    HW238190   9.266   1.042   5.910 -0.4197 -1.6317  0.9070
 8991SOL     OW38191   9.233   8.794   1.404 -0.0555 -0.4068 -0.8850
 8991SOL    HW138192   9.290   8.735   1.347  0.3254 -0.7023 -0.1941
 8991SOL    HW238193   9.213   8.748   1.490 -0.3279  0.1932 -0.6276
 8992SOL     OW38194   1.424   7.858   3.150 -0.3040  0.0098  0.1500
 8992SOL    HW138195   1.514   7.893   3.175  0.1207 -0.4917 -0.6417
 8992SOL    HW238196   1.390   7.798   3.222  0.7952 -1.2169 -0.3254
 8993SOL     OW38197   2.760   0.906   4.881  0.2013 -0.2306  0.2753
 8993SOL    HW138198   2.802   0.865   4.962  2.4245 -0.4333 -0.9720
 8993SOL    HW238199   2.829   0.951   4.825 -1.3484  0.1803 -1.3853
 8994SOL     OW38200   3.865   4.437   1.832  0.7756 -0.2996 -0.5333
 8994SOL    HW138201   3.773   4.446   1.795  0.7283 -1.0364 -0.6071
 8994SOL    HW238202   3.900   4.527   1.859 -1.1275 -0.3923  2.3713
 8995SOL     OW38203   1.837   9.567   0.216 -0.3783 -0.1123 -0.2862
 8995SOL    HW138204   1.930   9.592   0.241 -0.4335  2.0394 -2.1724
 8995SOL    HW238205   1.833   9.468   0.200  1.1072 -0.5390  1.6707
 8996SOL     OW38206   7.890   2.314   2.017 -0.6682  0.3746 -0.2065
 8996SOL    HW138207   7.893   2.214   2.007 -0.4230  0.2548  0.9791
 8996SOL    HW238208   7.843   2.354   1.938  2.0907 -0.4270 -2.3379
 8997SOL     OW38209   1.440   3.258   2.309  0.8172  0.4285 -0.0448
 8997SOL    HW138210   1.373   3.290   2.376  0.0458 -0.1096 -0.5614
 8997SOL    HW238211   1.400   3.260   2.218  0.9777 -1.4000 -0.1687
 8998SOL     OW38212   7.865   7.197   1.831  0.2730  0.2899  0.8297
 8998SOL    HW138213   7.861   7.159   1.924  0.3549 -1.9141 -0.0218
 8998SOL    HW238214   7.956   7.183   1.793 -0.0236  0.3334  0.0880
 8999SOL     OW38215   9.783   1.228   5.606  0.0207  0.4965 -0.1369
 8999SOL    HW138216   9.689   1.212   5.576 -0.7787 -0.5105  2.7172
 8999SOL    HW238217   9.831   1.284   5.538 -2.3722  0.3292 -2.0256
 9000SOL     OW38218   2.006   3.628   0.612  0.6314  0.6631 -0.2597
 9000SOL    HW138219   2.060   3.694   0.560  1.0276  0.0763 -0.6015
 9000SOL    HW238220   2.067   3.575   0.671  0.6514 -0.9887 -1.7038
 9001SOL     OW38221   9.498   1.450   0.970  0.0851 -0.2052  0.8153
 9001SOL    HW138222   9.504   1.352   0.991  0.9970 -0.3174  0.0857
 9001SOL    HW238223   9.461   1.461   0.877 -3.5179  0.2595  2.2264
 9002SOL     OW38224   7.504   2.327   0.002  0.7489 -0.2905 -0.4363
 9002SOL    HW138225   7.561   2.332   0.084  0.1320  0.3246 -0.0446
 9002SOL    HW238226   7.436   2.254   0.013  0.4862 -0.0238 -0.2837
 9003SOL     OW38227   1.045   6.535   5.713  0.8590  0.4972 -0.1246
 9003SOL    HW138228   1.030   6.439   5.740 -3.3250  0.2974 -2.7789
 9003SOL    HW238229   1.098   6.537   5.628  2.4309  0.6761  0.8273
 9004SOL     OW38230   3.295   0.236   3.478 -0.2210 -0.5380 -0.0575
 9004SOL    HW138231   3.266   0.296   3.403 -0.6433 -1.0927 -0.3468
 9004SOL    HW238232   3.390   0.256   3.502 -0.9977  1.7276  1.3125
 9005SOL     OW38233   8.609   9.538   6.653 -0.1742 -0.3575 -0.2202
 9005SOL    HW138234   8.691   9.536   6.595  0.1168 -1.1653  0.2136
 9005SOL    HW238235   8.576   9.632   6.660  0.6358 -0.0451 -0.5193
 9006SOL     OW38236   5.855   0.422   2.573  0.0545 -0.4027 -0.1250
 9006SOL    HW138237   5.759   0.402   2.591  0.2977 -2.4620 -0.9109
 9006SOL    HW238238   5.912   0.375   2.641  0.5183  0.5793  0.1679
 9007SOL     OW38239   7.491   8.317   2.970 -0.9962 -0.0491 -0.1480
 9007SOL    HW138240   7.446   8.291   3.056 -1.6739 -1.2330 -0.8423
 9007SOL    HW238241   7.453   8.404   2.938 -1.8840 -0.3827 -0.0397
 9008SOL     OW38242   7.279   4.464   1.339 -0.2311 -0.0377 -0.3406
 9008SOL    HW138243   7.283   4.499   1.245 -0.1112 -0.7185 -0.5942
 9008SOL    HW238244   7.274   4.364   1.337  2.7008 -0.2398  0.4226
 9009SOL     OW38245   3.657   9.076   2.355  0.1878 -0.2043 -0.0688
 9009SOL    HW138246   3.561   9.048   2.366  0.7840 -2.3393  0.0146
 9009SOL    HW238247   3.715   9.013   2.407  1.8075 -0.2926 -1.9380
 9010SOL     OW38248   7.289   5.964   0.123 -0.0119 -0.6850 -0.6469
 9010SOL    HW138249   7.352   6.041   0.135  0.5031 -1.1170 -0.5530
 9010SOL    HW238250   7.339   5.886   0.084 -0.6967 -0.7147 -1.4826
 9011SOL     OW38251   0.387   6.042   1.528 -0.2246 -0.0982  0.2684
 9011SOL    HW138252   0.345   6.121   1.482  1.2641  0.2455 -0.5359
 9011SOL    HW238253   0.430   5.984   1.459  0.2216 -0.6784  1.0383
 9012SOL     OW38254   8.676   3.625   4.992  0.1006  0.0283 -0.0277
 9012SOL    HW138255   8.633   3.654   5.078 -0.5106  1.6267 -0.8650
 9012SOL    HW238256   8.607   3.620   4.920  0.9870  0.8009 -0.9387
 9013SOL     OW38257   1.293   9.153   2.322 -0.0269  0.7230 -0.6111
 9013SOL    HW138258   1.348   9.205   2.256  0.5572 -0.7997 -1.3530
 9013SOL    HW238259   1.275   9.062   2.286 -1.6686  0.6501  0.3558
 9014SOL     OW38260   9.100   5.152   2.093 -0.4000 -0.2481 -1.0392
 9014SOL    HW138261   9.051   5.079   2.140  1.0983 -0.5628  0.0903
 9014SOL    HW238262   9.084   5.144   1.994 -2.0134 -0.7571 -0.7527
 9015SOL     OW38263   1.939   3.544   0.992  0.4528  0.1380 -0.0003
 9015SOL    HW138264   1.915   3.492   0.910 -1.2357  2.9943 -1.3893
 9015SOL    HW238265   1.860   3.547   1.054  1.2285 -0.6786  1.0593
 9016SOL     OW38266   1.238   9.821   3.842  0.0732  0.5296  0.3776
 9016SOL    HW138267   1.251   9.891   3.771 -0.3283  1.6556  1.3975
 9016SOL    HW238268   1.141   9.813   3.864  0.2089  0.2508  0.8710
 9017SOL     OW38269   2.725   2.173   0.851  0.3051 -0.4691  0.3012
 9017SOL    HW138270   2.753   2.116   0.927 -2.2317 -1.3854  0.6156
 9017SOL    HW238271   2.625   2.174   0.845  0.3605  1.9170 -1.2428
 9018SOL     OW38272   5.859   8.401   4.793  0.0401  0.3730 -0.4403
 9018SOL    HW138273   5.786   8.452   4.838 -0.1415  0.9063 -1.3361
 9018SOL    HW238274   5.917   8.357   4.863 -0.5917  0.6950  0.2909
 9019SOL     OW38275   1.437   6.280   5.793  0.2019  0.2087 -0.2454
 9019SOL    HW138276   1.480   6.320   5.875 -1.3002 -0.9796  1.1426
 9019SOL    HW238277   1.379   6.349   5.750  1.5541  1.0654 -0.7588
 9020SOL     OW38278   9.130   4.031   3.163 -0.1907  0.0124  0.2384
 9020SOL    HW138279   9.152   4.123   3.195 -0.8182 -0.3585  1.7728
 9020SOL    HW238280   9.213   3.975   3.159 -0.2699 -0.3000  2.4447
 9021SOL     OW38281   4.241   1.574   5.076  0.4065  0.5934  0.3620
 9021SOL    HW138282   4.291   1.532   5.000 -1.3270  0.1789 -0.5761
 9021SOL    HW238283   4.271   1.669   5.087  0.1983  0.8754 -1.2832
 9022SOL     OW38284   2.822   2.709   5.401  0.2894 -0.1737 -0.0370
 9022SOL    HW138285   2.823   2.609   5.390 -3.9162 -0.0499 -2.5260
 9022SOL    HW238286   2.850   2.752   5.315 -1.1469  0.7683 -0.0458
 9023SOL     OW38287   7.596   0.474   5.418 -0.0601  0.0183 -0.1287
 9023SOL    HW138288   7.533   0.427   5.480  0.0181 -1.4046 -1.0895
 9023SOL    HW238289   7.579   0.572   5.420 -0.8072 -0.1284  1.2857
 9024SOL     OW38290   9.399   5.724   5.436  0.1443  0.0162  0.0389
 9024SOL    HW138291   9.308   5.764   5.443  0.2335 -0.1538  2.4632
 9024SOL    HW238292   9.467   5.789   5.470  1.0983  0.6066 -2.8492
 9025SOL     OW38293   4.024   6.365   0.427  0.1628 -0.1303  0.2435
 9025SOL    HW138294   4.026   6.414   0.340 -1.1237  0.9590  0.8041
 9025SOL    HW238295   4.000   6.429   0.501  0.9539 -1.0936  1.3582
 9026SOL     OW38296   4.763   9.554   4.371  0.2002  0.2414  0.5157
 9026SOL    HW138297   4.841   9.616   4.380  2.2861 -1.8236 -2.4542
 9026SOL    HW238298   4.704   9.586   4.296  1.7231 -1.7033 -1.5811
 9027SOL     OW38299   6.986   8.642   6.799  0.1823 -0.1888  0.1222
 9027SOL    HW138300   6.942   8.718   6.846  0.6561  0.3651 -0.3130
 9027SOL    HW238301   7.077   8.670   6.768  0.5073 -1.0492  0.2793
 9028SOL     OW38302   7.204   1.215   6.518  0.0013  0.2194  0.2517
 9028SOL    HW138303   7.165   1.287   6.576 -0.0351  0.4855 -0.0965
 9028SOL    HW238304   7.130   1.158   6.482  0.0432 -0.0825  0.6499
 9029SOL     OW38305   1.664   6.096   3.471 -0.5106  0.0681 -0.2830
 9029SOL    HW138306   1.586   6.055   3.423 -0.3753 -0.6055  0.0674
 9029SOL    HW238307   1.748   6.049   3.444 -0.1159  1.3335 -1.2858
 9030SOL     OW38308   1.787   7.572   1.129  0.1159  0.4195 -0.4035
 9030SOL    HW138309   1.844   7.534   1.056  0.5487 -0.6100  0.4543
 9030SOL    HW238310   1.723   7.502   1.161  2.5191 -0.4271  2.8200
 9031SOL     OW38311   2.291   6.765   4.063 -0.2044 -0.0805  0.0512
 9031SOL    HW138312   2.321   6.854   4.097  1.1798 -0.6953  0.4791
 9031SOL    HW238313   2.215   6.732   4.118 -0.3524  0.5874  0.2461
 9032SOL     OW38314   5.783   9.096   2.422 -0.2388  0.4413 -0.0443
 9032SOL    HW138315   5.847   9.133   2.356 -0.5582  1.5362  0.2521
 9032SOL    HW238316   5.824   9.016   2.467 -0.6774 -1.3941 -2.7628
 9033SOL     OW38317   6.809   8.101   4.193  0.0989  0.4574 -0.3777
 9033SOL    HW138318   6.777   8.084   4.286 -2.0385  1.0551 -0.9636
 9033SOL    HW238319   6.844   8.195   4.187  0.5666  0.3017 -0.0899
 9034SOL     OW38320   4.380   7.333   3.010  0.3021 -0.4309 -0.2723
 9034SOL    HW138321   4.376   7.269   3.087 -2.6100  1.4697  1.2784
 9034SOL    HW238322   4.398   7.425   3.045 -1.6371  0.5586 -1.7714
 9035SOL     OW38323   4.736   1.248   1.924  0.5142  0.3947  1.0369
 9035SOL    HW138324   4.758   1.345   1.918  0.9010  0.3658  1.9381
 9035SOL    HW238325   4.670   1.224   1.853  1.1669  1.1099  0.1897
 9036SOL     OW38326   8.386   7.909   6.524 -0.2811  0.3238  0.0213
 9036SOL    HW138327   8.375   7.817   6.562  0.6315  0.3452  0.3473
 9036SOL    HW238328   8.459   7.908   6.455  1.2954  1.2681  1.6386
 9037SOL     OW38329   6.494   5.741   1.242  0.1673 -0.4702 -0.2565
 9037SOL    HW138330   6.466   5.787   1.327  2.6660  1.9790 -0.6885
 9037SOL    HW238331   6.418   5.686   1.208 -1.9654  1.0319  1.8775
 9038SOL     OW38332   7.162   8.339   4.661  0.7829 -0.0672  0.1944
 9038SOL    HW138333   7.088   8.396   4.698  0.0443  0.4065 -1.9375
 9038SOL    HW238334   7.249   8.388   4.671  0.5392  0.2332  0.9050
 9039SOL     OW38335   5.997   9.655   3.455  0.5988  0.0695  0.6193
 9039SOL    HW138336   6.089   9.645   3.420 -0.1193 -2.5919 -0.6228
 9039SOL    HW238337   5.990   9.608   3.543  0.3267 -0.0640  0.5261
 9040SOL     OW38338   0.739   0.818   5.748 -0.0752 -0.1360  0.5143
 9040SOL    HW138339   0.686   0.868   5.816 -0.1012  0.0978  0.3253
 9040SOL    HW238340   0.760   0.726   5.782 -0.6556 -0.2489  0.5599
 9041SOL     OW38341   6.991   0.369   5.723  0.4276 -0.2562  0.2254
 9041SOL    HW138342   6.980   0.398   5.818  0.4165  0.7801 -0.0814
 9041SOL    HW238343   6.905   0.384   5.674  0.2717 -1.2713  0.1677
 9042SOL     OW38344   9.880   5.118   0.218  0.0580  0.2660  0.5464
 9042SOL    HW138345   9.859   5.196   0.277 -0.9598 -0.4602  1.1609
 9042SOL    HW238346   9.974   5.088   0.235  0.3734  1.2036  0.4803
 9043SOL     OW38347   4.462   3.967   0.681  0.2018  0.5642  0.1757
 9043SOL    HW138348   4.404   3.935   0.605 -1.8768  0.9420  1.5428
 9043SOL    HW238349   4.533   4.027   0.646 -1.1571  1.2968 -1.4242
 9044SOL     OW38350   3.494   5.081   1.594 -0.3766 -0.1844 -0.1786
 9044SOL    HW138351   3.551   5.068   1.513 -0.7048  2.8775 -0.9834
 9044SOL    HW238352   3.522   5.165   1.641  0.3801 -2.3559  3.4220
 9045SOL     OW38353   6.570   5.638   1.643 -0.0038 -0.5773 -0.2291
 9045SOL    HW138354   6.558   5.737   1.634 -0.7072 -0.8783 -3.3000
 9045SOL    HW238355   6.661   5.613   1.610  0.4059 -0.9007  1.1278
 9046SOL     OW38356   0.151   0.954   3.441 -0.3585 -0.2500 -0.2093
 9046SOL    HW138357   0.098   0.987   3.520  0.1715 -3.2129  1.4308
 9046SOL    HW238358   0.243   0.994   3.444 -0.2232 -0.6246  0.8764
 9047SOL     OW38359   8.067   8.138   5.593 -0.1455 -0.0769  0.1079
 9047SOL    HW138360   8.140   8.070   5.584  0.6359  0.6541  0.8257
 9047SOL    HW238361   8.005   8.111   5.667  0.1601 -0.0127  0.3879
 9048SOL     OW38362   5.942   0.431   3.419 -0.0205 -0.1668  0.4373
 9048SOL    HW138363   5.914   0.503   3.355 -0.6754 -1.6455 -0.9819
 9048SOL    HW238364   5.868   0.364   3.428  0.6777 -0.8023  1.5489
 9049SOL     OW38365   0.420   8.321   4.241 -0.6532  0.1938 -0.1334
 9049SOL    HW138366   0.428   8.320   4.141 -0.0060 -0.6863 -0.0763
 9049SOL    HW238367   0.480   8.391   4.279  1.5551 -1.6695 -0.1538
 9050SOL     OW38368   9.950   3.385   3.784 -0.7526  0.0300  0.0869
 9050SOL    HW138369   9.959   3.408   3.881 -0.2161 -2.6078  0.6916
 9050SOL    HW238370  10.041   3.384   3.742 -0.8999  0.3216 -0.2345
 9051SOL     OW38371   1.657   0.730   1.193  0.1747 -0.3067  0.1210
 9051SOL    HW138372   1.735   0.714   1.132  1.3931  0.1681  1.5332
 9051SOL    HW238373   1.618   0.820   1.174 -0.8625 -1.0666 -1.4712
 9052SOL     OW38374   1.937   8.116   5.081  0.1827  0.2515 -0.3327
 9052SOL    HW138375   1.992   8.159   5.153  0.0693  0.4938 -0.3904
 9052SOL    HW238376   1.984   8.126   4.993  0.0657  0.4233 -0.3758
 9053SOL     OW38377   0.472   6.184   5.117 -0.2639  0.2197 -0.2958
 9053SOL    HW138378   0.572   6.189   5.112 -0.2976  1.1001 -0.2669
 9053SOL    HW238379   0.441   6.092   5.093  0.6962 -0.6946  1.8561
 9054SOL     OW38380   2.773   1.903   1.639  0.6299  0.0337  0.0980
 9054SOL    HW138381   2.857   1.851   1.655  1.3219  1.3950  1.0589
 9054SOL    HW238382   2.768   1.978   1.705 -1.0789  0.3003 -0.3075
 9055SOL     OW38383   5.836   9.682   2.220  0.4790 -0.0675 -0.2126
 9055SOL    HW138384   5.860   9.776   2.195 -0.0686  0.4838  1.2941
 9055SOL    HW238385   5.737   9.674   2.227  0.5471 -0.6382  0.1195
 9056SOL     OW38386   1.952   5.752   2.004 -0.4398 -0.1883 -0.0800
 9056SOL    HW138387   1.952   5.736   1.906  1.1032 -0.7328  0.0014
 9056SOL    HW238388   2.035   5.714   2.045 -0.8681  0.3870  1.3761
 9057SOL     OW38389   4.632   1.618   0.973  0.1544  0.9409  0.4179
 9057SOL    HW138390   4.724   1.631   1.008 -0.1032  0.7373  1.1916
 9057SOL    HW238391   4.629   1.537   0.914  0.1401  0.0118  1.6679
 9058SOL     OW38392   1.223   0.859   0.875  0.5220 -0.3378 -0.0440
 9058SOL    HW138393   1.293   0.929   0.859  0.5506 -0.3574 -0.0017
 9058SOL    HW238394   1.252   0.797   0.947 -0.6353  1.1388  1.7475
 9059SOL     OW38395   8.072   2.821   3.730  0.4769 -0.2374 -0.2229
 9059SOL    HW138396   8.032   2.731   3.716  0.4867 -0.5659  1.8004
 9059SOL    HW238397   8.172   2.814   3.727  0.4798 -0.3102  0.0606
 9060SOL     OW38398   8.215   2.019   3.694 -0.5156  0.2574 -0.3331
 9060SOL    HW138399   8.189   1.923   3.710 -1.1795  0.5181  0.1787
 9060SOL    HW238400   8.267   2.053   3.772  1.2220 -0.2068 -1.2787
 9061SOL     OW38401   8.027   9.270   4.232 -0.7172 -0.8809  0.2544
 9061SOL    HW138402   7.981   9.296   4.147 -0.0550  1.9236  0.6884
 9061SOL    HW238403   8.094   9.198   4.214 -0.4622 -0.1790 -1.6425
 9062SOL     OW38404   3.089   2.628   1.168 -0.1550 -0.0481 -0.3239
 9062SOL    HW138405   3.117   2.598   1.259  0.0422 -0.3911 -0.4957
 9062SOL    HW238406   3.109   2.725   1.157  0.8337 -0.2513 -0.3901
 9063SOL     OW38407   3.055   9.961   1.270  0.4279 -0.3639 -0.1832
 9063SOL    HW138408   2.959   9.943   1.248  1.3880 -2.9015 -2.6286
 9063SOL    HW238409   3.113   9.894   1.223  3.3470  0.4699  2.0806
 9064SOL     OW38410   8.503   2.933   0.058 -0.0911  0.1214 -0.9563
 9064SOL    HW138411   8.569   2.883   0.001  0.2857  0.4856 -0.8411
 9064SOL    HW238412   8.414   2.934   0.013 -0.9312 -3.2992  0.4080
 9065SOL     OW38413   8.802   7.608   5.075 -0.2208  0.1264  0.1691
 9065SOL    HW138414   8.704   7.597   5.094  0.0188 -0.8954  0.8649
 9065SOL    HW238415   8.840   7.520   5.048  0.1000  0.9255 -2.0805
 9066SOL     OW38416   6.556   0.878   3.290 -0.2767  0.8953  0.0144
 9066SOL    HW138417   6.543   0.816   3.368 -1.3442  0.2919 -0.6355
 9066SOL    HW238418   6.653   0.885   3.269 -0.1743 -1.0047 -0.2564
 9067SOL     OW38419   3.527   4.210   0.891  0.3172 -0.4710  0.4355
 9067SOL    HW138420   3.564   4.244   0.804 -0.3926  1.1962  0.7607
 9067SOL    HW238421   3.435   4.174   0.875 -0.1057  0.5048  0.6019
 9068SOL     OW38422   5.354   5.519   0.321 -0.0393 -0.5919 -0.7223
 9068SOL    HW138423   5.317   5.495   0.410 -3.3097  0.7190 -1.6401
 9068SOL    HW238424   5.286   5.573   0.270  2.6026  0.6255 -3.1270
 9069SOL     OW38425   7.997   7.568   5.691 -0.6660 -0.0073  0.3742
 9069SOL    HW138426   7.953   7.531   5.610  0.4349  0.5656 -0.4993
 9069SOL    HW238427   8.004   7.497   5.761 -0.2179 -0.9497 -0.6128
 9070SOL     OW38428   8.760   9.041   2.122 -0.3874 -0.4588 -0.1541
 9070SOL    HW138429   8.820   9.100   2.177  0.8570 -0.9725 -0.9566
 9070SOL    HW238430   8.685   9.096   2.086 -1.0198 -0.0274  1.7394
 9071SOL     OW38431   7.572   3.879   4.581 -0.2239 -0.0571 -0.2430
 9071SOL    HW138432   7.602   3.884   4.676  1.7793 -0.7902 -0.8054
 9071SOL    HW238433   7.620   3.804   4.535 -0.5354  0.8171 -2.0454
 9072SOL     OW38434   2.822   7.503   0.343  0.0013  0.1824 -0.1877
 9072SOL    HW138435   2.805   7.455   0.257  0.3651  0.8195 -0.6188
 9072SOL    HW238436   2.798   7.600   0.334 -1.1448  0.0083  0.8131
 9073SOL     OW38437   6.401   6.038   1.298  0.2833 -0.4635  0.0645
 9073SOL    HW138438   6.313   6.080   1.319  0.1750 -0.3624 -0.5797
 9073SOL    HW238439   6.398   5.999   1.206  1.0407 -0.1019 -0.1150
 9074SOL     OW38440   9.350   3.506   1.218  0.1511  0.0234  0.1214
 9074SOL    HW138441   9.415   3.447   1.266  0.1801 -0.0319  0.0148
 9074SOL    HW238442   9.389   3.534   1.130 -0.3777 -0.8055 -0.3791
 9075SOL     OW38443   1.239   7.782   1.574 -0.3765 -0.0891  0.4222
 9075SOL    HW138444   1.214   7.838   1.495 -1.7312 -1.8592 -0.4506
 9075SOL    HW238445   1.320   7.820   1.618  0.0796  1.2346 -1.5028
 9076SOL     OW38446   7.744   7.398   4.410  0.0306 -0.1915  0.1207
 9076SOL    HW138447   7.833   7.366   4.378  0.3603 -0.7963  1.6059
 9076SOL    HW238448   7.756   7.486   4.456 -0.5508  1.0481 -2.0104
 9077SOL     OW38449   8.862   5.874   0.435  0.2267  0.6092  0.7153
 9077SOL    HW138450   8.960   5.883   0.454  0.3551 -1.1633  0.9886
 9077SOL    HW238451   8.816   5.959   0.460  1.3058  0.5267  3.1479
 9078SOL     OW38452   7.076   6.822   5.429 -0.1913 -0.0884  0.7533
 9078SOL    HW138453   7.103   6.776   5.345 -1.3598  0.2693  0.1773
 9078SOL    HW238454   7.155   6.870   5.468  0.3959 -0.4219 -0.0174
 9079SOL     OW38455   0.778   7.898   2.493  0.0839 -0.3196  0.2085
 9079SOL    HW138456   0.698   7.899   2.433  0.7570  0.5573 -0.6776
 9079SOL    HW238457   0.755   7.940   2.581 -1.1027 -2.2414  0.8402
 9080SOL     OW38458   2.779   6.752   5.339  0.0463  0.1067 -0.5942
 9080SOL    HW138459   2.742   6.738   5.248  0.0030  0.6129 -0.6556
 9080SOL    HW238460   2.747   6.840   5.375 -1.7852 -1.1016  0.8063
 9081SOL     OW38461   1.516   2.293   5.318 -0.1850 -0.6104 -0.4742
 9081SOL    HW138462   1.468   2.213   5.355 -1.6475 -0.3284 -1.7578
 9081SOL    HW238463   1.493   2.374   5.372 -0.9897 -0.5185 -0.9462
 9082SOL     OW38464   3.926   2.032   3.251 -0.1247 -0.7679  0.0786
 9082SOL    HW138465   4.000   1.966   3.264  0.2669 -0.1760  0.8910
 9082SOL    HW238466   3.895   2.028   3.156  1.9719 -0.0040 -0.6818
 9083SOL     OW38467   4.432   3.436   8.105  0.5425 -0.1556  0.5691
 9083SOL    HW138468   4.476   3.526   8.099 -0.3767  0.3364  0.9482
 9083SOL    HW238469   4.429   3.394   8.015  1.6267 -0.1244  0.5123
 9084SOL     OW38470   8.921   0.411   3.796 -0.0647  0.8931 -0.3837
 9084SOL    HW138471   8.915   0.343   3.723  2.0784  0.4766 -0.1983
 9084SOL    HW238472   8.990   0.479   3.773  1.0503  0.4332  1.5130
 9085SOL     OW38473   7.802   2.752   2.578 -0.1445  0.0778  0.3367
 9085SOL    HW138474   7.742   2.734   2.500  0.0100  4.3403 -0.8514
 9085SOL    HW238475   7.893   2.714   2.559 -0.5889 -0.4772 -0.7577
 9086SOL     OW38476   8.914   1.845   4.868  0.6089  1.2245  0.0733
 9086SOL    HW138477   8.960   1.924   4.828  1.0680  0.8491 -0.1511
 9086SOL    HW238478   8.908   1.772   4.800 -0.5381  1.3485  0.0251
 9087SOL     OW38479   7.008   8.978   4.821 -0.1984  0.0343  0.2579
 9087SOL    HW138480   7.075   8.950   4.890 -0.9251  3.0193  2.2769
 9087SOL    HW238481   6.936   8.909   4.815  0.3311 -0.6912  1.8811
 9088SOL     OW38482   4.501   3.582   1.579 -0.1883 -0.1223  0.2459
 9088SOL    HW138483   4.478   3.518   1.506  3.3395  0.2206 -1.2876
 9088SOL    HW238484   4.483   3.676   1.548  1.4627  0.0338 -0.3163
 9089SOL     OW38485   3.023   3.631   5.273  0.4404 -0.1291 -0.1227
 9089SOL    HW138486   2.997   3.548   5.223  0.1211 -0.3163  0.3583
 9089SOL    HW238487   2.950   3.656   5.336  0.2217  0.9386 -0.7887
 9090SOL     OW38488   6.830   1.106   3.032  0.3918 -0.3767  0.0548
 9090SOL    HW138489   6.831   1.030   3.097 -1.0338  1.3206  2.1246
 9090SOL    HW238490   6.770   1.083   2.955 -1.5318 -0.6375  1.5890
 9091SOL     OW38491   4.235   8.154   1.442  0.0558 -0.1747  0.4288
 9091SOL    HW138492   4.226   8.056   1.425 -0.7288  0.2258 -1.5375
 9091SOL    HW238493   4.266   8.201   1.360 -1.4651  1.4841  0.7525
 9092SOL     OW38494   0.992   4.935   0.567  0.4757 -0.5019  0.3830
 9092SOL    HW138495   0.920   4.866   0.560 -1.7197  1.3858  3.1352
 9092SOL    HW238496   0.963   5.008   0.629  3.5299  1.9327 -0.8854
 9093SOL     OW38497   3.788   8.015   5.921 -0.2942  0.2937  0.4454
 9093SOL    HW138498   3.813   7.918   5.912 -1.6217 -0.1557  1.4113
 9093SOL    HW238499   3.689   8.025   5.910 -0.2529  1.4467  1.0225
 9094SOL     OW38500   7.845   2.776   1.481  0.3861 -0.1218  0.6882
 9094SOL    HW138501   7.766   2.722   1.449 -0.8832  0.2892  3.0031
 9094SOL    HW238502   7.926   2.717   1.485 -1.0561 -2.0399  3.5260
 9095SOL     OW38503   2.456   7.490   0.522 -0.2484 -0.2951 -0.5236
 9095SOL    HW138504   2.367   7.536   0.524  0.4377  1.1678 -1.7773
 9095SOL    HW238505   2.528   7.558   0.538  0.5590 -1.7724  2.2345
 9096SOL     OW38506   6.073   1.781   0.147  0.5845 -0.5548 -0.3783
 9096SOL    HW138507   6.059   1.835   0.230  0.7244 -0.5053 -0.3866
 9096SOL    HW238508   6.099   1.842   0.072  4.9082 -1.0544  0.5954
 9097SOL     OW38509   8.552   6.475   2.268 -0.4440 -0.2328 -0.0157
 9097SOL    HW138510   8.555   6.503   2.171  0.4838  0.7059  0.2729
 9097SOL    HW238511   8.644   6.475   2.305 -0.8075 -0.5122  0.8957
 9098SOL     OW38512   8.096   0.861   2.038 -0.3938 -0.2111  0.0936
 9098SOL    HW138513   8.004   0.822   2.041 -1.3721  2.0433 -0.0504
 9098SOL    HW238514   8.121   0.898   2.127  1.1149 -2.3779  0.6296
 9099SOL     OW38515   1.591   8.849   2.312  0.3908 -0.2709  0.4435
 9099SOL    HW138516   1.621   8.803   2.229  1.9541  0.9249  0.3082
 9099SOL    HW238517   1.552   8.939   2.289 -1.4768 -0.9626  0.8052
 9100SOL     OW38518   4.428   8.354   2.820 -0.0983 -0.4764  0.2036
 9100SOL    HW138519   4.395   8.331   2.728 -0.1817  0.2628  0.0402
 9100SOL    HW238520   4.503   8.293   2.845 -0.4605 -1.0587 -0.1227
 9101SOL     OW38521   0.916   7.663   2.788  0.1800 -0.1740 -0.0145
 9101SOL    HW138522   0.964   7.748   2.768  2.0001 -1.5804 -1.8820
 9101SOL    HW238523   0.862   7.636   2.708  0.1249 -1.0773  0.3248
 9102SOL     OW38524   2.203   7.997   6.391 -0.0459  0.2610  0.3400
 9102SOL    HW138525   2.169   8.053   6.467 -0.2201  3.2230 -1.8786
 9102SOL    HW238526   2.302   7.986   6.400  0.0190  1.0765  0.6903
 9103SOL     OW38527   0.930   0.021   0.679 -0.3258  0.2242 -0.4649
 9103SOL    HW138528   0.869   0.014   0.600 -2.2236  0.9426  0.8781
 9103SOL    HW238529   0.934   0.116   0.710  0.1739 -0.0846  0.4587
 9104SOL     OW38530   6.963   4.732   1.738 -0.2889 -0.2090  0.2072
 9104SOL    HW138531   7.017   4.648   1.744  0.2008  0.0760 -0.1588
 9104SOL    HW238532   6.964   4.779   1.827  0.1654 -0.1428  0.1661
 9105SOL     OW38533   6.382   9.910   2.419 -0.1444  0.1958 -0.4209
 9105SOL    HW138534   6.438   9.874   2.345  0.4782  1.9130 -0.8082
 9105SOL    HW238535   6.319   9.979   2.383 -2.2733 -1.4183  0.0677
 9106SOL     OW38536   3.294   2.127   6.180  0.3077  0.4452 -0.0717
 9106SOL    HW138537   3.290   2.217   6.137  0.2956 -0.3067 -1.6736
 9106SOL    HW238538   3.335   2.136   6.271 -0.0247  2.1110 -0.0597
 9107SOL     OW38539   5.059   0.998   2.061 -0.0052 -0.2009 -0.2909
 9107SOL    HW138540   5.137   1.059   2.070 -0.0208 -0.3988  1.4030
 9107SOL    HW238541   5.074   0.916   2.117 -1.2572 -0.3975 -0.2270
 9108SOL     OW38542   0.834   5.867   4.907  0.0110  0.0797  0.9229
 9108SOL    HW138543   0.875   5.851   4.997  0.2292 -1.9325  0.4986
 9108SOL    HW238544   0.735   5.855   4.913 -0.1299  1.3204  1.1771
 9109SOL     OW38545   4.416   6.236   1.765  0.0992  0.3245 -0.2567
 9109SOL    HW138546   4.492   6.223   1.702 -1.2214 -0.0581 -1.7829
 9109SOL    HW238547   4.395   6.150   1.810 -1.7158 -0.4198 -2.4666
 9110SOL     OW38548   2.724   0.771   5.324 -0.6965 -0.3288  0.2479
 9110SOL    HW138549   2.689   0.853   5.280 -0.2618 -0.4709 -0.3834
 9110SOL    HW238550   2.812   0.746   5.282  0.2843  0.1745  1.9665
 9111SOL     OW38551   4.425   3.501   7.586  0.1775  0.0386 -0.1669
 9111SOL    HW138552   4.397   3.594   7.562 -0.6570 -0.1925 -0.0913
 9111SOL    HW238553   4.458   3.454   7.504  1.2685  0.6287 -0.0769
 9112SOL     OW38554   4.705   1.457   4.013 -0.1688 -0.2451  0.1928
 9112SOL    HW138555   4.804   1.462   4.029 -0.4790 -0.7581  2.3851
 9112SOL    HW238556   4.684   1.496   3.923  2.3187 -2.4740 -1.4318
 9113SOL     OW38557   9.228   4.327   0.331  0.2931 -0.2251  0.1007
 9113SOL    HW138558   9.247   4.377   0.247  1.3121  1.6029  1.3834
 9113SOL    HW238559   9.306   4.335   0.393 -0.6743 -1.0311  1.4579
 9114SOL     OW38560   2.302   3.667   4.347  0.2855  0.0678  0.3355
 9114SOL    HW138561   2.250   3.712   4.275  1.1815  0.4726 -0.0718
 9114SOL    HW238562   2.265   3.692   4.436 -0.8857 -0.5051  0.0226
 9115SOL     OW38563   8.514   0.096   1.177  0.1758  0.0742 -0.5534
 9115SOL    HW138564   8.557   0.185   1.160  1.5583 -0.4933 -0.1151
 9115SOL    HW238565   8.471   0.064   1.093  2.4857 -0.3226 -1.6350
 9116SOL     OW38566   1.709   9.124   2.557  0.2023  0.3085 -0.0796
 9116SOL    HW138567   1.763   9.145   2.476  0.0464  1.3509  0.0831
 9116SOL    HW238568   1.715   9.026   2.576  0.9094  0.1912 -0.8640
 9117SOL     OW38569   0.959   9.491   3.503 -0.0452  0.1903 -0.2643
 9117SOL    HW138570   0.885   9.541   3.549  0.1529  0.4323 -0.2110
 9117SOL    HW238571   0.920   9.435   3.430 -0.6504 -1.8780  1.5859
 9118SOL     OW38572   1.693   7.220   1.000  0.3762  0.1886  0.3275
 9118SOL    HW138573   1.720   7.130   1.035 -0.0809 -0.2242 -0.3867
 9118SOL    HW238574   1.638   7.267   1.070  0.6593 -0.0647  0.7224
 9119SOL     OW38575   3.020   7.748   4.907 -0.0728  0.2464  0.0110
 9119SOL    HW138576   3.115   7.720   4.915 -0.1290 -0.1004 -0.5436
 9119SOL    HW238577   3.013   7.847   4.921  0.4393  0.3569 -0.5328
 9120SOL     OW38578   0.041   3.938   5.386  0.2512  0.1519  0.2582
 9120SOL    HW138579   0.041   3.903   5.292 -0.7483 -1.2126  0.7461
 9120SOL    HW238580   0.121   3.904   5.434 -0.0003 -0.3411  0.3287
 9121SOL     OW38581   7.403   3.618   5.173  0.2524 -0.4449 -0.2609
 9121SOL    HW138582   7.346   3.579   5.245  2.2719 -0.9231  1.1116
 9121SOL    HW238583   7.388   3.567   5.088 -0.6109 -1.2054  0.3382
 9122SOL     OW38584   4.107   4.912   7.703  0.3727  0.2130 -0.2348
 9122SOL    HW138585   4.087   4.991   7.762 -0.9016 -2.4846  3.1306
 9122SOL    HW238586   4.202   4.886   7.714  0.1685 -0.2118  0.5718
 9123SOL     OW38587   3.220   1.828   4.729  0.1401  0.1726 -0.2024
 9123SOL    HW138588   3.272   1.861   4.807 -0.6151  0.7813  0.0462
 9123SOL    HW238589   3.125   1.858   4.737 -0.2255 -0.8405 -0.7092
 9124SOL     OW38590   2.143   9.115   1.985  0.1473 -0.8386 -0.9072
 9124SOL    HW138591   2.178   9.186   1.924 -0.6120  0.7119  0.4401
 9124SOL    HW238592   2.220   9.064   2.024  0.8356  0.8002 -0.0596
 9125SOL     OW38593   4.410   0.853   4.347  0.3480  0.1130  0.4064
 9125SOL    HW138594   4.502   0.832   4.315  0.8999  0.9527  1.4307
 9125SOL    HW238595   4.413   0.881   4.443 -0.8835  0.9050  0.2247
 9126SOL     OW38596   6.755   0.657   5.963  0.2494  0.1459 -0.6372
 9126SOL    HW138597   6.763   0.749   6.000 -0.9294 -0.6969  1.8404
 9126SOL    HW238598   6.686   0.656   5.891  0.6581  1.2933 -1.0557
 9127SOL     OW38599   8.478   5.916   3.248 -0.1140  0.2262  0.2877
 9127SOL    HW138600   8.420   5.998   3.244 -0.5648 -0.1343 -0.6081
 9127SOL    HW238601   8.564   5.939   3.293  0.0600  1.3666 -0.6106
 9128SOL     OW38602   5.489   2.730   4.781 -0.3895 -0.1835 -0.4081
 9128SOL    HW138603   5.417   2.713   4.848 -1.0245  2.5474 -0.3404
 9128SOL    HW238604   5.449   2.772   4.699  1.0065  0.8230 -0.5986
 9129SOL     OW38605   1.575   8.819   1.646 -0.3169  0.3743 -0.4755
 9129SOL    HW138606   1.525   8.813   1.732 -0.2046  0.3627 -0.4108
 9129SOL    HW238607   1.639   8.742   1.638  1.3251  1.6062  0.4878
 9130SOL     OW38608   3.572   5.760   2.784 -0.5995  0.5330 -0.0185
 9130SOL    HW138609   3.588   5.854   2.753  2.0224 -0.0970 -0.7220
 9130SOL    HW238610   3.651   5.728   2.836 -1.8652 -0.9793  1.0116
 9131SOL     OW38611   3.622   1.722   4.760 -0.0197 -0.3569  0.3139
 9131SOL    HW138612   3.541   1.740   4.704 -0.7380  0.2129  1.5277
 9131SOL    HW238613   3.595   1.682   4.847  1.0834 -1.0528  0.3560
 9132SOL     OW38614   4.081   2.710   5.461  0.1047  0.2908  0.1589
 9132SOL    HW138615   4.145   2.695   5.385 -2.6107 -1.3799 -1.8721
 9132SOL    HW238616   4.035   2.798   5.450 -1.7948 -0.8676 -1.2865
 9133SOL     OW38617   0.833   5.073   0.754 -0.1287  0.1919 -0.3533
 9133SOL    HW138618   0.744   5.030   0.768  0.4369 -1.0518 -0.4963
 9133SOL    HW238619   0.858   5.126   0.835  0.2843 -1.7988  0.8363
 9134SOL     OW38620   6.144   2.191   5.381  0.2033 -0.1889 -0.2577
 9134SOL    HW138621   6.225   2.132   5.382 -0.5319 -1.2300 -1.3971
 9134SOL    HW238622   6.063   2.136   5.360 -0.5604  1.1377 -0.8128
 9135SOL     OW38623   4.077   7.146   5.247 -0.3987  0.0924  0.1785
 9135SOL    HW138624   4.075   7.228   5.305  0.1735 -1.2598  2.1699
 9135SOL    HW238625   4.004   7.152   5.179 -0.9017  1.8669  0.8338
 9136SOL     OW38626   4.146   4.708   3.880 -0.2930 -0.0253  0.4867
 9136SOL    HW138627   4.070   4.685   3.819  0.8207  1.1918 -1.3944
 9136SOL    HW238628   4.183   4.623   3.919 -2.1541 -0.6815  0.9162
 9137SOL     OW38629   0.088   8.876   0.393  0.5989 -0.0837 -0.3041
 9137SOL    HW138630   0.113   8.973   0.387  1.5328 -0.0776  2.8161
 9137SOL    HW238631   0.166   8.824   0.430 -0.4109 -1.7682 -0.5175
 9138SOL     OW38632   3.755   6.279   3.096 -0.3764 -0.0073 -0.4760
 9138SOL    HW138633   3.728   6.298   3.001 -0.1196  1.1800 -0.3115
 9138SOL    HW238634   3.713   6.193   3.125  0.0013 -0.6846 -1.8574
 9139SOL     OW38635   7.551   3.881   0.100 -0.1656  0.2588  0.0546
 9139SOL    HW138636   7.646   3.907   0.083 -0.5589  0.6711 -1.6717
 9139SOL    HW238637   7.515   3.833   0.019 -1.1310 -0.7656  1.0682
 9140SOL     OW38638   4.057   8.925   4.261  0.0445 -0.7561 -0.5773
 9140SOL    HW138639   4.019   8.961   4.347  1.0415 -1.1013  0.0087
 9140SOL    HW238640   3.990   8.939   4.188 -0.4172  0.4532  0.0459
 9141SOL     OW38641   2.186   3.482   1.233 -0.1188  0.2623 -0.2005
 9141SOL    HW138642   2.236   3.569   1.241  1.6339 -0.5142 -2.1376
 9141SOL    HW238643   2.108   3.494   1.172  0.8218  0.1935 -1.4243
 9142SOL     OW38644   1.180   3.684   1.538  0.5610 -0.2126 -0.4013
 9142SOL    HW138645   1.153   3.624   1.613  1.4057 -1.6810 -1.2535
 9142SOL    HW238646   1.128   3.770   1.544 -1.9784 -1.6983 -0.1657
 9143SOL     OW38647   8.913   1.682   6.480 -0.2853  0.3889  0.0443
 9143SOL    HW138648   8.960   1.599   6.452 -1.5620 -0.5196  0.5583
 9143SOL    HW238649   8.959   1.761   6.440  1.9036 -0.4456  0.8545
 9144SOL     OW38650   2.411   8.256   3.327 -0.4586 -0.0519 -0.5911
 9144SOL    HW138651   2.372   8.242   3.236 -3.1311  0.8680  0.3700
 9144SOL    HW238652   2.360   8.326   3.375  1.1902 -0.2193  1.4902
 9145SOL     OW38653   8.913   0.191   2.563  0.5302  0.6499 -0.0002
 9145SOL    HW138654   8.959   0.239   2.489  0.5560 -0.3582 -0.6447
 9145SOL    HW238655   8.969   0.113   2.592 -0.2294  0.0968 -0.0134
 9146SOL     OW38656   9.264   2.777   0.922  0.1615  0.1099  0.1202
 9146SOL    HW138657   9.227   2.818   0.838  0.6085  1.8395  0.7420
 9146SOL    HW238658   9.364   2.784   0.922  0.2959 -1.5803 -0.0468
 9147SOL     OW38659   3.567   0.791   4.901  0.4184  0.2217  0.3352
 9147SOL    HW138660   3.644   0.832   4.853  0.3398  1.0214  0.8749
 9147SOL    HW238661   3.593   0.771   4.995 -0.8912  3.3031  1.4315
 9148SOL     OW38662   7.457   8.663   5.158 -0.1992  0.0008  0.5813
 9148SOL    HW138663   7.426   8.656   5.063  0.1948  1.8037  0.2989
 9148SOL    HW238664   7.402   8.604   5.216 -1.7863  0.4231 -0.4710
 9149SOL     OW38665   7.322   9.255   4.907  0.0847  0.2930 -0.2096
 9149SOL    HW138666   7.333   9.155   4.906 -0.5546  0.1453  2.8978
 9149SOL    HW238667   7.392   9.296   4.848  0.6764 -1.9426 -1.1396
 9150SOL     OW38668   0.698   7.348   0.468  0.1770 -0.3489 -0.2768
 9150SOL    HW138669   0.782   7.343   0.413  0.8450 -0.7526  0.7631
 9150SOL    HW238670   0.679   7.258   0.507  0.2451  0.1487  0.9285
 9151SOL     OW38671   0.889   4.738   5.432  0.0365 -0.4143 -0.4396
 9151SOL    HW138672   0.849   4.653   5.398  0.5020 -1.2321  1.0172
 9151SOL    HW238673   0.989   4.732   5.425  0.1239 -0.4791  0.7760
 9152SOL     OW38674   7.646   8.291   3.510 -0.2697 -0.4353 -0.0542
 9152SOL    HW138675   7.696   8.263   3.428  0.4783 -0.9439  0.5786
 9152SOL    HW238676   7.572   8.225   3.528 -0.3040 -0.4369 -0.2001
 9153SOL     OW38677   9.361   7.931   3.299 -0.0228  0.2657 -0.4724
 9153SOL    HW138678   9.403   7.857   3.247 -0.8448 -0.7905  0.3509
 9153SOL    HW238679   9.279   7.962   3.253 -0.3188 -0.1350 -0.2184
 9154SOL     OW38680   1.735   8.123   1.311 -0.1848 -0.3876  0.2190
 9154SOL    HW138681   1.721   8.031   1.276  0.5279 -0.2954 -0.3127
 9154SOL    HW238682   1.694   8.189   1.249  2.0064 -0.1543 -1.0445
 9155SOL     OW38683   6.541   1.327   1.592 -0.3219  0.1676 -0.1013
 9155SOL    HW138684   6.470   1.327   1.662  1.5025  0.9906  1.8028
 9155SOL    HW238685   6.578   1.420   1.582  1.7248 -0.6079  0.2207
 9156SOL     OW38686   2.657   5.379   1.179  0.4932 -0.3571 -0.1040
 9156SOL    HW138687   2.742   5.417   1.215  0.6205  0.3011 -1.0884
 9156SOL    HW238688   2.603   5.452   1.137  0.4242 -1.1382 -1.4137
 9157SOL     OW38689   8.396   3.770   2.825 -0.2795  0.2278 -0.3543
 9157SOL    HW138690   8.417   3.824   2.907 -0.1565 -2.0797  1.1758
 9157SOL    HW238691   8.442   3.810   2.746  1.3597  1.2734  1.0998
 9158SOL     OW38692   3.046   4.176   0.517 -0.1604 -0.0603  0.6802
 9158SOL    HW138693   3.089   4.221   0.595  3.2028  0.2982 -1.2638
 9158SOL    HW238694   3.084   4.084   0.507 -1.0889 -0.3724 -0.1067
 9159SOL     OW38695   0.624   2.058   5.477 -0.6923  0.0324  0.0644
 9159SOL    HW138696   0.624   2.093   5.571  2.2023  1.1159 -0.2894
 9159SOL    HW238697   0.704   1.999   5.464 -1.4996 -0.7374 -1.5052
 9160SOL     OW38698   4.371   1.496   2.505 -0.5654  0.4347  0.3761
 9160SOL    HW138699   4.406   1.479   2.413 -0.3240 -1.0709  0.7415
 9160SOL    HW238700   4.447   1.496   2.570 -0.9685 -0.6345  0.8612
 9161SOL     OW38701   5.133   5.972   2.797 -0.1933 -0.0397 -0.0077
 9161SOL    HW138702   5.051   6.013   2.756 -0.9387 -0.9940  0.5053
 9161SOL    HW238703   5.122   5.968   2.896  0.0888 -1.0006 -0.0094
 9162SOL     OW38704   8.370   2.786   1.178 -0.0986 -0.4382  0.4869
 9162SOL    HW138705   8.289   2.729   1.191 -0.9385  0.6791  0.1958
 9162SOL    HW238706   8.350   2.881   1.202  1.2851 -0.2425  0.9532
 9163SOL     OW38707   7.904   8.488   4.622  0.0245  0.1309 -0.1277
 9163SOL    HW138708   8.003   8.475   4.624 -0.3901 -3.1997  2.1340
 9163SOL    HW238709   7.870   8.470   4.529  1.4579  0.7179 -0.7810
 9164SOL     OW38710   3.260   2.312   5.994  0.2612 -0.5002  0.2406
 9164SOL    HW138711   3.252   2.411   5.986  0.1317 -0.4755  0.6457
 9164SOL    HW238712   3.316   2.277   5.919  0.3740 -0.1125  0.1411
 9165SOL     OW38713   9.991   5.668   1.123 -0.0004 -0.2172 -0.0995
 9165SOL    HW138714  10.035   5.588   1.081 -0.4617 -0.3786 -0.2774
 9165SOL    HW238715  10.035   5.687   1.211  0.2116 -0.5782 -0.1250
 9166SOL     OW38716   0.028   1.834   4.961  0.3045 -0.4495 -0.2158
 9166SOL    HW138717  -0.022   1.850   4.876  1.4184 -0.9626 -0.9814
 9166SOL    HW238718   0.102   1.902   4.969 -0.1601 -0.0396  0.6289
 9167SOL     OW38719   9.201   8.528   4.198  0.1404 -0.6253 -0.3803
 9167SOL    HW138720   9.282   8.521   4.256  0.2197 -0.2918 -0.4502
 9167SOL    HW238721   9.200   8.617   4.153 -1.4670  0.3064  1.3974
 9168SOL     OW38722   2.032   5.532   3.987 -0.5105  0.2804  0.0041
 9168SOL    HW138723   1.947   5.498   4.029  0.4348 -1.2127  0.7440
 9168SOL    HW238724   2.067   5.463   3.923 -0.4458  1.3679 -1.1421
 9169SOL     OW38725   2.199   0.314   0.236  0.1459  0.4664 -0.8617
 9169SOL    HW138726   2.113   0.265   0.244  1.1336 -1.6168 -2.5757
 9169SOL    HW238727   2.197   0.371   0.154  0.8576 -0.5628 -1.6036
 9170SOL     OW38728   8.210   1.813   3.301  0.7427  0.2083  0.1857
 9170SOL    HW138729   8.257   1.725   3.309 -0.9657 -0.6772  0.6398
 9170SOL    HW238730   8.112   1.799   3.307  0.3840  2.0100 -1.0445
 9171SOL     OW38731   8.301   6.914   1.796 -0.4126  0.1425  0.7666
 9171SOL    HW138732   8.327   6.818   1.780  0.1184  0.4651 -0.3553
 9171SOL    HW238733   8.362   6.954   1.864  0.4865  0.1959 -0.0713
 9172SOL     OW38734   0.933   8.014   1.787  0.1785 -0.1979  0.6021
 9172SOL    HW138735   0.935   7.943   1.716 -0.1304  0.0937  0.3020
 9172SOL    HW238736   1.023   8.021   1.830  0.3593 -0.3953  0.2599
 9173SOL     OW38737   0.149   6.433   2.680  0.6708 -0.4078  0.1001
 9173SOL    HW138738   0.162   6.530   2.665  0.4497 -0.4823 -0.5799
 9173SOL    HW238739   0.072   6.400   2.624  2.5063 -1.5367 -1.8147
 9174SOL     OW38740   0.473   8.652   2.887  0.3089 -0.1431 -0.2641
 9174SOL    HW138741   0.445   8.685   2.978  1.0265 -1.7289  0.5476
 9174SOL    HW238742   0.411   8.688   2.818 -0.0019  1.4236  0.8112
 9175SOL     OW38743   8.119   8.220   2.701 -0.4699 -1.1348  0.4399
 9175SOL    HW138744   8.118   8.289   2.629  0.2027 -0.9400  0.6097
 9175SOL    HW238745   8.113   8.129   2.660  1.1774 -1.0896  0.0366
 9176SOL     OW38746   8.835   2.858   1.297  0.2330 -0.0938  0.1689
 9176SOL    HW138747   8.740   2.891   1.296 -0.1897 -1.2482  1.8310
 9176SOL    HW238748   8.866   2.846   1.202 -1.4506 -0.2139 -0.3906
 9177SOL     OW38749   8.520   2.529   1.090 -0.3217 -0.8332  0.7692
 9177SOL    HW138750   8.469   2.443   1.092 -1.2673 -0.3524 -1.5122
 9177SOL    HW238751   8.466   2.601   1.132 -0.5954 -0.8122  0.3839
 9178SOL     OW38752   4.057   7.302   4.850  0.0627 -0.2250 -0.6913
 9178SOL    HW138753   4.011   7.369   4.792 -0.7085 -0.9759 -0.9566
 9178SOL    HW238754   4.007   7.292   4.936  0.1669 -0.4628 -0.6588
 9179SOL     OW38755   4.135   3.945   1.927 -0.3067  0.4521  0.4023
 9179SOL    HW138756   4.064   3.893   1.878 -0.5755 -0.1055  1.3687
 9179SOL    HW238757   4.184   4.003   1.862 -0.1246 -0.8771 -0.6826
 9180SOL     OW38758   0.572   2.300   6.422 -0.1903 -0.0404  0.2854
 9180SOL    HW138759   0.537   2.218   6.466 -1.1248  0.7005  0.9575
 9180SOL    HW238760   0.665   2.318   6.453 -0.8690  0.5313  2.1017
 9181SOL     OW38761   0.986   0.623   2.505 -0.6535 -0.1955 -0.7840
 9181SOL    HW138762   0.938   0.610   2.418 -2.2637 -0.7755  0.1660
 9181SOL    HW238763   0.920   0.644   2.577  0.8480  2.3320 -0.0772
 9182SOL     OW38764   9.888   7.645   4.495 -0.1338 -0.4386 -0.0878
 9182SOL    HW138765   9.857   7.667   4.403  1.3647  0.1475 -0.4771
 9182SOL    HW238766   9.988   7.655   4.500 -0.3179  0.8095  1.9306
 9183SOL     OW38767   8.734   5.449   4.938 -0.2901 -0.4658  0.0715
 9183SOL    HW138768   8.827   5.459   4.973  0.2718 -3.7643 -0.2482
 9183SOL    HW238769   8.737   5.438   4.839 -1.0610 -0.1426  0.0088
 9184SOL     OW38770   0.040   1.604   2.275 -0.0936 -0.1028 -0.1808
 9184SOL    HW138771   0.125   1.653   2.292  0.1718 -0.2131 -1.1817
 9184SOL    HW238772  -0.017   1.606   2.358  2.4340 -3.1281  1.7388
 9185SOL     OW38773   7.728   9.283   6.868 -0.5396 -0.1211 -0.3369
 9185SOL    HW138774   7.739   9.382   6.862 -1.0387  0.0059  0.8147
 9185SOL    HW238775   7.638   9.257   6.835 -0.9874 -0.0310  0.7929
 9186SOL     OW38776   2.535   1.751   4.252 -0.1227 -0.2149  0.0620
 9186SOL    HW138777   2.619   1.697   4.258 -0.0441  0.1773  3.8740
 9186SOL    HW238778   2.546   1.836   4.305 -2.3674  0.6090 -0.7195
 9187SOL     OW38779   3.775   9.280   3.135  0.5224 -0.6298  0.2865
 9187SOL    HW138780   3.849   9.267   3.202 -1.0751 -0.7588  2.0716
 9187SOL    HW238781   3.797   9.359   3.077  2.0935 -0.7128  0.7321
 9188SOL     OW38782   8.672   9.970   3.547 -0.4132 -0.4651  0.4250
 9188SOL    HW138783   8.740   9.928   3.607  0.5346  0.0235 -0.2849
 9188SOL    HW238784   8.695  10.067   3.534 -0.7212 -0.5199 -0.5598
 9189SOL     OW38785   3.723   8.120   1.094  0.2915  0.1569 -0.1387
 9189SOL    HW138786   3.784   8.093   1.168  1.6354 -1.3567 -1.7352
 9189SOL    HW238787   3.775   8.172   1.025 -0.7427  0.8458 -0.4147
 9190SOL     OW38788   6.906   8.458   3.437 -0.4184  0.7203 -0.0460
 9190SOL    HW138789   6.916   8.389   3.365 -0.7297  0.3376  0.2781
 9190SOL    HW238790   6.991   8.465   3.488  0.3104  2.0769 -1.4196
 9191SOL     OW38791   9.815   3.424   2.928 -0.3448  0.3085  0.4224
 9191SOL    HW138792   9.758   3.481   2.986 -1.6280  0.1908 -0.6987
 9191SOL    HW238793   9.805   3.328   2.954 -0.2028  0.3453  0.6115
 9192SOL     OW38794   1.250   6.966   3.616  0.5389 -0.3091  0.6953
 9192SOL    HW138795   1.218   6.873   3.598  0.2350 -0.4000  1.6614
 9192SOL    HW238796   1.342   6.978   3.579  0.2173 -0.7097 -0.2433
 9193SOL     OW38797   1.681   9.263   5.145  0.4589  0.6230 -0.0084
 9193SOL    HW138798   1.769   9.218   5.135 -0.2577 -0.6215 -0.9459
 9193SOL    HW238799   1.635   9.228   5.227  0.4393  0.5583 -0.0465
 9194SOL     OW38800   4.034   2.981   4.339 -0.1597 -0.0237 -0.3258
 9194SOL    HW138801   4.109   2.955   4.400 -0.3077 -0.2324 -0.2296
 9194SOL    HW238802   3.997   2.899   4.295 -0.2090  0.0995 -0.5153
 9195SOL     OW38803   5.921   1.606   5.994 -0.2419  0.2636 -0.1946
 9195SOL    HW138804   5.988   1.573   5.927 -0.6584 -1.9186  0.4291
 9195SOL    HW238805   5.830   1.572   5.971 -0.7989  1.4506  0.1742
 9196SOL     OW38806   3.503   5.610   1.872  0.1517 -0.4891  0.0199
 9196SOL    HW138807   3.404   5.609   1.881  0.1174 -2.0848 -0.4202
 9196SOL    HW238808   3.542   5.529   1.916  1.2408  0.0047 -0.0036
 9197SOL     OW38809   9.024   6.092   0.078 -0.5891 -0.2706  0.3120
 9197SOL    HW138810   9.030   6.085  -0.022  0.0606 -1.1048  0.4033
 9197SOL    HW238811   8.935   6.132   0.103 -0.9386 -0.4715 -0.5788
 9198SOL     OW38812   9.503   6.447   4.577 -0.1167  0.1994 -0.7145
 9198SOL    HW138813   9.571   6.416   4.644 -0.7999  2.1724  0.9663
 9198SOL    HW238814   9.530   6.535   4.540 -1.3900  0.6725 -0.5583
 9199SOL     OW38815   5.590   0.826   4.536  0.3191  0.1928 -0.1385
 9199SOL    HW138816   5.621   0.914   4.501  2.4539 -0.2966  0.4420
 9199SOL    HW238817   5.618   0.816   4.631 -0.1286 -1.0131 -0.1201
 9200SOL     OW38818   0.407   5.896   5.116  0.2763  0.8173  0.3971
 9200SOL    HW138819   0.462   5.823   5.076 -0.7703 -0.6499  1.5902
 9200SOL    HW238820   0.313   5.889   5.083  0.1962  1.7262  0.4103
 9201SOL     OW38821   9.222   6.204   4.008  0.3869 -0.3090 -0.5091
 9201SOL    HW138822   9.270   6.292   4.020  0.3247 -0.4512  0.8784
 9201SOL    HW238823   9.183   6.200   3.916 -0.6114  1.6104 -0.2021
 9202SOL     OW38824   8.632   5.963   5.901  0.4409 -1.0603  0.0606
 9202SOL    HW138825   8.704   6.018   5.943 -0.6073  0.3406  0.0623
 9202SOL    HW238826   8.604   5.891   5.964 -0.0142  0.0474  1.1280
 9203SOL     OW38827   7.938   9.677   4.563  0.0738 -0.4085  0.4037
 9203SOL    HW138828   7.970   9.632   4.480  1.2616  0.2158  0.5203
 9203SOL    HW238829   7.851   9.636   4.592 -0.6540 -0.2472 -1.4599
 9204SOL     OW38830   7.230   7.021   6.680 -0.2456  0.2323 -0.6849
 9204SOL    HW138831   7.139   7.035   6.717 -0.0872  1.9267 -0.9156
 9204SOL    HW238832   7.224   7.010   6.581 -0.2653 -0.3657 -0.6194
 9205SOL     OW38833   0.661   2.613   4.150  0.6166 -0.5701  0.2405
 9205SOL    HW138834   0.683   2.580   4.242  1.1800 -0.5809  0.1053
 9205SOL    HW238835   0.572   2.578   4.122  1.1032 -1.7972  0.1878
 9206SOL     OW38836   4.186   8.953   6.093  0.0435 -0.1854  0.3779
 9206SOL    HW138837   4.135   8.874   6.128 -1.2220  0.1950 -0.5579
 9206SOL    HW238838   4.195   8.946   5.994 -1.1106  1.3985  0.1339
 9207SOL     OW38839   8.927   2.774   4.170  0.1076  0.2893 -0.4503
 9207SOL    HW138840   8.853   2.719   4.208  2.1086 -2.1579  0.0416
 9207SOL    HW238841   8.937   2.752   4.072  0.9713 -0.3153 -0.2308
 9208SOL     OW38842   2.388   4.308   2.491 -0.4466 -0.4563 -0.2571
 9208SOL    HW138843   2.419   4.334   2.399  0.2709  1.1014  0.4189
 9208SOL    HW238844   2.401   4.209   2.503  0.2735 -0.5313 -1.5155
 9209SOL     OW38845   2.839   3.354   2.950  0.3507  0.0168  0.3765
 9209SOL    HW138846   2.777   3.374   3.027 -0.8579  1.4726 -0.9421
 9209SOL    HW238847   2.830   3.258   2.924 -4.1703  0.9965 -2.1524
 9210SOL     OW38848   2.655   4.336   3.455 -0.1175 -0.2505  0.0072
 9210SOL    HW138849   2.740   4.308   3.409  0.1345 -0.3776  0.5344
 9210SOL    HW238850   2.626   4.425   3.420  0.5313  0.0462  0.2047
 9211SOL     OW38851   6.500   1.187   2.423 -0.4393  0.4139  0.1388
 9211SOL    HW138852   6.426   1.131   2.386 -0.8198  0.3636  0.9550
 9211SOL    HW238853   6.562   1.129   2.476 -0.3355  0.6122  0.2331
 9212SOL     OW38854   0.399   5.001   4.317 -0.5408 -0.1574  0.1553
 9212SOL    HW138855   0.358   4.913   4.292  1.9938 -1.0405 -1.1027
 9212SOL    HW238856   0.428   5.049   4.234 -2.9964  2.4572  0.7461
 9213SOL     OW38857   4.074   9.022   3.152  0.0993 -0.1841 -0.0285
 9213SOL    HW138858   4.040   9.083   3.223  0.9809  1.7352 -1.2242
 9213SOL    HW238859   4.048   9.057   3.062  2.9780 -0.0201 -0.8562
 9214SOL     OW38860   9.715   6.652   2.083 -0.6569 -0.3009  0.1531
 9214SOL    HW138861   9.813   6.668   2.070 -0.5420 -0.8077  0.4017
 9214SOL    HW238862   9.696   6.634   2.180 -1.5271  3.5718  0.8307
 9215SOL     OW38863   8.440   6.777   2.596  0.5431  0.0471 -0.3630
 9215SOL    HW138864   8.435   6.692   2.647  1.1319  0.0889 -0.2300
 9215SOL    HW238865   8.433   6.759   2.498 -1.8745  0.0841 -0.2088
 9216SOL     OW38866   2.727   3.359   3.592  0.2366  0.4574 -0.9104
 9216SOL    HW138867   2.769   3.382   3.679  0.1802  1.9991 -1.2830
 9216SOL    HW238868   2.797   3.324   3.529  0.1420 -1.3996 -0.0048
 9217SOL     OW38869   0.892   7.016   3.187  0.1494 -0.1633  0.1065
 9217SOL    HW138870   0.927   7.021   3.281 -1.0472 -0.7993  0.5979
 9217SOL    HW238871   0.828   6.940   3.180 -1.3264  1.1359 -0.7208
 9218SOL     OW38872   2.899   7.843   3.742  0.3050 -0.2313 -0.4560
 9218SOL    HW138873   2.912   7.751   3.778 -1.1207 -0.7812 -1.3238
 9218SOL    HW238874   2.809   7.850   3.699  0.8369  1.2438 -1.3745
 9219SOL     OW38875   5.378   2.519   5.841 -0.3037  0.6263 -0.3835
 9219SOL    HW138876   5.309   2.493   5.909 -0.9998  0.6241 -1.0847
 9219SOL    HW238877   5.431   2.439   5.815 -0.0862  0.6105  0.0947
 9220SOL     OW38878   3.852   0.208   6.341  0.2901 -0.6355  0.0646
 9220SOL    HW138879   3.930   0.216   6.403  0.2202 -1.6108  0.2966
 9220SOL    HW238880   3.825   0.112   6.334 -2.2829 -0.0695  1.6713
 9221SOL     OW38881   0.944   7.441   3.017 -0.2173  0.5454  0.2696
 9221SOL    HW138882   0.970   7.490   3.099 -3.0805  1.5017  0.6618
 9221SOL    HW238883   0.899   7.504   2.953  0.1659 -0.6159 -1.1818
 9222SOL     OW38884   3.063   8.035   6.686  0.2197 -0.4070  0.6581
 9222SOL    HW138885   3.163   8.040   6.694  0.3427 -2.8617  0.9597
 9222SOL    HW238886   3.023   8.032   6.778 -0.2426  1.8591  0.5638
 9223SOL     OW38887   8.870   4.880   0.496  0.0438  0.4667  0.2173
 9223SOL    HW138888   8.870   4.968   0.543 -0.9343  0.9813 -0.7246
 9223SOL    HW238889   8.793   4.825   0.527  0.8106 -0.1857  1.0064
 9224SOL     OW38890   0.198   1.487   3.124 -0.3497  0.0764 -0.0491
 9224SOL    HW138891   0.216   1.490   3.026 -0.5053  0.5483 -0.0645
 9224SOL    HW238892   0.116   1.539   3.145 -1.3294 -1.5002  0.1178
 9225SOL     OW38893   6.326   9.699   4.894 -0.1052  0.3515 -0.3447
 9225SOL    HW138894   6.300   9.781   4.843 -1.3477 -0.7417 -1.5337
 9225SOL    HW238895   6.257   9.681   4.964  0.2396  0.4071  0.0076
 9226SOL     OW38896   3.121   9.393   0.063  0.2934 -0.3032  0.0445
 9226SOL    HW138897   3.042   9.355   0.015  0.2732 -0.0989 -0.0818
 9226SOL    HW238898   3.204   9.346   0.033  0.3539  0.2403 -0.6352
 9227SOL     OW38899   7.530   4.262   6.144  0.1905 -0.1257 -0.2369
 9227SOL    HW138900   7.510   4.246   6.047  2.8341  0.9893 -0.9996
 9227SOL    HW238901   7.502   4.182   6.197 -1.4652 -0.6757 -1.8753
 9228SOL     OW38902   5.076   1.519   5.855 -0.2439  0.0446 -0.4881
 9228SOL    HW138903   5.090   1.420   5.859  0.6543  0.0804 -2.2929
 9228SOL    HW238904   5.155   1.561   5.811  0.0891  1.7411  1.6734
 9229SOL     OW38905   3.175   7.662   1.381 -0.6033 -0.7029 -0.9201
 9229SOL    HW138906   3.083   7.632   1.408  0.0530 -1.8978  0.0304
 9229SOL    HW238907   3.197   7.748   1.428 -0.6323 -1.2234  0.0502
 9230SOL     OW38908   9.059   3.210   4.054 -0.3034  0.4135 -0.7589
 9230SOL    HW138909   9.121   3.172   3.985  0.0585  1.1458 -0.8467
 9230SOL    HW238910   9.090   3.302   4.079 -1.1115  0.6171 -0.4871
 9231SOL     OW38911   5.993   4.347   7.794  0.2448  0.2807 -0.6051
 9231SOL    HW138912   5.902   4.371   7.762 -1.3865 -0.8291  2.9908
 9231SOL    HW238913   6.032   4.424   7.845  0.8027  0.2632 -0.9915
 9232SOL     OW38914   9.162   6.425   0.373 -0.7641 -0.6089  0.1218
 9232SOL    HW138915   9.208   6.511   0.350 -1.0158 -1.2442 -3.0362
 9232SOL    HW238916   9.227   6.350   0.365 -1.2642 -1.0319  0.0599
 9233SOL     OW38917   4.539   7.137   1.649  0.1083 -0.3565 -0.2090
 9233SOL    HW138918   4.614   7.088   1.605  0.7255 -0.4526  0.9358
 9233SOL    HW238919   4.493   7.076   1.714 -0.1576  0.0953  0.0259
 9234SOL     OW38920   8.369   9.602   2.222 -0.4553  0.3355  0.1092
 9234SOL    HW138921   8.330   9.690   2.195 -0.3986  0.0650 -0.8787
 9234SOL    HW238922   8.300   9.530   2.215  0.4825 -0.3632 -2.8403
 9235SOL     OW38923   5.715   0.852   3.679 -0.3029  0.2546 -0.1392
 9235SOL    HW138924   5.785   0.817   3.741 -0.0955  0.7299 -0.1008
 9235SOL    HW238925   5.752   0.859   3.586 -0.7198 -0.7917 -0.3944
 9236SOL     OW38926   3.719   5.360   0.655 -0.6593 -0.8037  0.4874
 9236SOL    HW138927   3.754   5.371   0.749 -0.8928  0.4200  0.4479
 9236SOL    HW238928   3.752   5.274   0.617  0.5625 -0.6742  1.2174
 9237SOL     OW38929   3.787   5.746   0.424  0.1642  0.8422 -0.1756
 9237SOL    HW138930   3.746   5.678   0.364  0.1610 -0.0592  0.8292
 9237SOL    HW238931   3.736   5.832   0.418 -1.4381 -0.0408  0.5243
 9238SOL     OW38932   5.754   9.033   4.584  0.2226 -0.3205 -0.9338
 9238SOL    HW138933   5.844   9.019   4.625 -0.0052 -0.3360 -0.4401
 9238SOL    HW238934   5.683   9.000   4.646 -0.0668 -1.6167 -1.9024
 9239SOL     OW38935   1.761   6.242   4.279  0.2475  0.3108  0.2294
 9239SOL    HW138936   1.790   6.337   4.280  0.5205  0.2438  2.9562
 9239SOL    HW238937   1.666   6.236   4.249  0.3365  1.3949 -0.2877
 9240SOL     OW38938   5.681   7.784   4.502  0.3648  0.0263  0.1689
 9240SOL    HW138939   5.776   7.814   4.497 -0.0248  1.0489 -1.2649
 9240SOL    HW238940   5.677   7.686   4.482  0.9639  0.2773 -1.2471
 9241SOL     OW38941   8.060   3.198   1.191  0.0915  0.0245 -0.4920
 9241SOL    HW138942   8.078   3.102   1.168  2.0520  0.2068  0.1649
 9241SOL    HW238943   8.039   3.249   1.109 -0.0648 -0.7965 -0.9673
 9242SOL     OW38944   9.093   9.788   3.861  0.3457 -0.1254  0.1688
 9242SOL    HW138945   9.069   9.824   3.951  1.7465 -0.5719  0.7535
 9242SOL    HW238946   9.193   9.781   3.854  0.2367 -0.4396 -1.2880
 9243SOL     OW38947   6.624   1.849   7.711  0.0081  0.3027  0.3999
 9243SOL    HW138948   6.577   1.773   7.666  0.3880  0.2770  0.0438
 9243SOL    HW238949   6.570   1.880   7.789 -1.6285  1.6471 -1.2329
 9244SOL     OW38950   5.586   1.796   3.175 -0.0091 -0.5020  0.2883
 9244SOL    HW138951   5.518   1.748   3.118 -0.9178 -0.5055  1.3558
 9244SOL    HW238952   5.677   1.780   3.137 -0.6975  0.4975 -1.8806
 9245SOL     OW38953   5.376   0.930   1.935  0.1169  0.2407  0.1500
 9245SOL    HW138954   5.349   1.013   1.983 -1.7956  0.7590 -1.7676
 9245SOL    HW238955   5.452   0.950   1.873 -0.2469  0.5529 -0.2011
 9246SOL     OW38956   1.383   2.721   1.181  0.2435 -0.0437 -0.1102
 9246SOL    HW138957   1.456   2.653   1.173 -1.8405 -2.2218 -0.9889
 9246SOL    HW238958   1.387   2.782   1.102  0.8457 -0.4158 -0.3733
 9247SOL     OW38959   0.701   3.174   0.561  0.1432  1.1054  0.4444
 9247SOL    HW138960   0.610   3.216   0.559  0.1928  1.1920 -0.8116
 9247SOL    HW238961   0.707   3.109   0.636 -1.8486 -0.8310 -1.0076
 9248SOL     OW38962   0.630   4.953   2.132 -0.0056  0.1054  0.8019
 9248SOL    HW138963   0.540   4.918   2.104  0.3177 -0.7406  0.7995
 9248SOL    HW238964   0.619   5.020   2.205 -0.7327  0.9846 -0.1062
 9249SOL     OW38965   7.909   6.249   5.459  0.1050 -0.0718  0.3313
 9249SOL    HW138966   7.908   6.152   5.434 -0.9573 -0.3523  1.4228
 9249SOL    HW238967   7.977   6.265   5.530 -0.2200 -0.1533  0.6630
 9250SOL     OW38968   8.689   7.687   0.629  0.2483 -0.2524  0.0849
 9250SOL    HW138969   8.754   7.730   0.691  0.0993 -0.1267  0.1562
 9250SOL    HW238970   8.679   7.743   0.547  0.2000 -0.2494  0.0925
 9251SOL     OW38971   1.757   1.814   0.785  0.1909 -0.0213 -0.1582
 9251SOL    HW138972   1.657   1.818   0.797 -0.1070 -2.2333 -1.6765
 9251SOL    HW238973   1.796   1.904   0.805 -2.3247  1.4048 -1.3463
 9252SOL     OW38974   2.857   0.930   5.903 -0.1206  0.4211  0.2760
 9252SOL    HW138975   2.917   0.858   5.937  1.7853  1.7143 -0.2816
 9252SOL    HW238976   2.817   0.902   5.815 -0.1224 -0.3102  0.5048
 9253SOL     OW38977   4.038   4.377   0.600 -0.3646  0.4620  0.2689
 9253SOL    HW138978   4.128   4.419   0.606 -0.0670 -0.3706  1.9744
 9253SOL    HW238979   3.977   4.418   0.668 -0.4373 -0.9518  1.0837
 9254SOL     OW38980   3.082   8.958   1.534 -0.2108  0.5900  0.1484
 9254SOL    HW138981   3.155   9.026   1.542 -1.2472  1.6866  0.4028
 9254SOL    HW238982   3.116   8.869   1.563  0.8175  1.2440  0.9683
 9255SOL     OW38983   2.473   9.197   4.994 -0.0684 -0.4960  0.4814
 9255SOL    HW138984   2.486   9.290   4.961 -0.7355 -0.5094  0.1814
 9255SOL    HW238985   2.379   9.169   4.979 -0.8322  0.0370  3.7283
 9256SOL     OW38986   9.631   6.283   1.216  0.6965 -0.3302 -0.1770
 9256SOL    HW138987   9.664   6.335   1.294 -3.0149  1.3258  0.4173
 9256SOL    HW238988   9.612   6.189   1.243 -0.1915  0.1362  0.8469
 9257SOL     OW38989   9.304   0.522   4.187 -0.5233  0.1839 -0.4616
 9257SOL    HW138990   9.364   0.463   4.133 -0.9864 -0.7088 -0.0025
 9257SOL    HW238991   9.257   0.468   4.257 -0.0623  1.2866  0.7320
 9258SOL     OW38992   6.582   0.036   2.996 -0.1478 -0.8024  0.3858
 9258SOL    HW138993   6.586   0.020   3.095  1.9018 -0.1504  0.4215
 9258SOL    HW238994   6.668   0.008   2.954 -0.3175  0.6308 -0.9576
 9259SOL     OW38995   1.090   0.020   2.072 -0.1400  0.0160 -0.3988
 9259SOL    HW138996   1.026  -0.056   2.063  1.1090 -0.9355 -1.2400
 9259SOL    HW238997   1.112   0.056   1.981  1.5417 -0.5181 -0.2163
 9260SOL     OW38998   4.858   0.059   3.876  0.4733  0.7139 -0.4752
 9260SOL    HW138999   4.913   0.142   3.876 -1.5957  2.1134  0.2659
 9260SOL    HW239000   4.898  -0.007   3.940  0.8451  2.0258  0.6575
 9261SOL     OW39001   4.932   1.776   8.068 -0.2444  0.2205 -0.0678
 9261SOL    HW139002   4.930   1.755   7.970  0.6334  0.9136 -0.2407
 9261SOL    HW239003   5.022   1.754   8.105 -0.4073  0.4465  0.4730
 9262SOL     OW39004   9.321   3.133   4.929 -0.2644 -0.2638 -0.6865
 9262SOL    HW139005   9.242   3.125   4.990 -0.1731 -0.5913 -0.6110
 9262SOL    HW239006   9.306   3.076   4.848 -0.4807  0.3351 -1.0721
 9263SOL     OW39007   7.546   7.825   3.875 -0.3775  0.1292 -0.0097
 9263SOL    HW139008   7.487   7.863   3.947  0.0291 -1.7892  1.3657
 9263SOL    HW239009   7.642   7.836   3.901 -0.2300 -0.5983 -0.2281
 9264SOL     OW39010   9.158   7.948   1.046  0.0708  0.2509 -0.6315
 9264SOL    HW139011   9.246   7.906   1.021  0.4386 -0.2771  1.4352
 9264SOL    HW239012   9.131   8.012   0.975  1.4381 -0.6078 -1.9781
 9265SOL     OW39013   0.274   6.089   0.648 -0.8035 -0.0979 -0.4103
 9265SOL    HW139014   0.189   6.123   0.608 -0.5317  1.5037  0.3419
 9265SOL    HW239015   0.307   6.153   0.717  0.9247 -0.7943 -0.5593
 9266SOL     OW39016   3.490   3.265   0.584  0.6838 -0.5254 -0.0231
 9266SOL    HW139017   3.407   3.220   0.616  0.7545 -0.6010  0.0520
 9266SOL    HW239018   3.481   3.286   0.486 -0.0606  0.8960  0.3341
 9267SOL     OW39019   4.485   3.178   5.175  0.5062 -0.2841  0.5974
 9267SOL    HW139020   4.490   3.223   5.086  0.5472  0.4609  0.9735
 9267SOL    HW239021   4.537   3.231   5.242 -1.2473  0.2859  1.5400
 9268SOL     OW39022   9.709   2.569   1.755  0.0172  0.1578 -0.0344
 9268SOL    HW139023   9.693   2.480   1.711  1.0086  0.2728 -0.6449
 9268SOL    HW239024   9.757   2.555   1.842 -1.6711 -0.0468  0.8887
 9269SOL     OW39025   3.976   8.997   0.954  0.1451  0.2321 -0.0155
 9269SOL    HW139026   4.058   9.040   0.917  0.0249 -0.5932 -1.2878
 9269SOL    HW239027   4.002   8.919   1.011  0.3072  1.1701  1.2184
 9270SOL     OW39028   0.261   4.611   3.299  0.1590  0.1121 -0.2067
 9270SOL    HW139029   0.208   4.539   3.345 -0.7938  0.3009 -0.9962
 9270SOL    HW239030   0.350   4.621   3.344 -0.6271  0.0712  1.3912
 9271SOL     OW39031   6.168   9.418   6.906 -0.1113 -0.3061  0.1563
 9271SOL    HW139032   6.213   9.362   6.975  0.3997  0.5727  0.5526
 9271SOL    HW239033   6.171   9.514   6.934  0.5064  0.1160 -1.3041
 9272SOL     OW39034   5.824   1.826   1.759  1.1822  0.5185 -0.3136
 9272SOL    HW139035   5.903   1.801   1.815  0.0406 -1.7042  0.3405
 9272SOL    HW239036   5.739   1.807   1.809  0.1614  0.1237 -2.1343
 9273SOL     OW39037   4.097   2.360   3.507 -0.4759  0.4040  0.0006
 9273SOL    HW139038   4.166   2.351   3.436  0.4798  0.6753  0.8963
 9273SOL    HW239039   4.022   2.296   3.488  1.1625 -1.6787  0.3615
 9274SOL     OW39040   5.311   3.275   4.381 -0.5516  0.4638  0.9048
 9274SOL    HW139041   5.262   3.245   4.463  0.4799 -1.0074  0.9870
 9274SOL    HW239042   5.382   3.209   4.358 -0.9016  0.7929 -1.2471
 9275SOL     OW39043   8.358   9.614   2.716  0.0609  0.1808  0.3501
 9275SOL    HW139044   8.372   9.583   2.622 -1.4564  0.5415  0.0056
 9275SOL    HW239045   8.312   9.542   2.768 -0.2161  0.4642  0.4968
 9276SOL     OW39046   4.106   5.230   0.698  0.5517  0.2664 -0.3448
 9276SOL    HW139047   4.143   5.180   0.619  1.1459  2.0919 -1.2668
 9276SOL    HW239048   4.034   5.177   0.741  0.8310 -1.1537 -1.6013
 9277SOL     OW39049   1.857   7.729   1.941 -0.0794  0.0835  0.0459
 9277SOL    HW139050   1.843   7.715   1.843  1.8915 -0.5518 -0.1564
 9277SOL    HW239051   1.849   7.827   1.962 -0.7217  0.1936 -0.7006
 9278SOL     OW39052   4.977   6.274   2.064 -0.3327 -0.5978 -0.0360
 9278SOL    HW139053   4.884   6.239   2.060 -0.6776  0.2983 -0.0875
 9278SOL    HW239054   4.974   6.374   2.076  0.5836 -0.1922 -2.7639
 9279SOL     OW39055   5.199   1.691   0.065 -0.1330 -0.4215 -0.0184
 9279SOL    HW139056   5.158   1.607   0.029 -0.0346 -0.4773 -0.0002
 9279SOL    HW239057   5.280   1.668   0.118  0.5074 -0.2273 -0.9017
 9280SOL     OW39058   2.277   5.118   3.869  0.3898 -0.2318  0.2246
 9280SOL    HW139059   2.361   5.071   3.842  0.4973  0.3212 -0.4148
 9280SOL    HW239060   2.200   5.079   3.819  0.4513  0.1457 -0.1619
 9281SOL     OW39061   8.387   2.889   1.977 -0.5943  0.0798  0.2683
 9281SOL    HW139062   8.476   2.918   1.943 -0.4538  0.2884  0.8127
 9281SOL    HW239063   8.319   2.959   1.956 -0.3179  0.6743  1.2928
 9282SOL     OW39064   8.272   4.091   4.163 -0.3600 -0.6944 -0.6588
 9282SOL    HW139065   8.340   4.112   4.092  1.1212  1.5375  1.3372
 9282SOL    HW239066   8.315   4.038   4.236 -0.4560  1.5417  1.0784
 9283SOL     OW39067   1.999   6.187   0.263  0.3441 -0.2081 -0.3248
 9283SOL    HW139068   2.025   6.267   0.208  1.3356  1.0149  1.8759
 9283SOL    HW239069   2.071   6.118   0.256  1.3776  0.7121  0.9005
 9284SOL     OW39070   2.399   5.564   2.270  0.0303 -0.3311 -0.0666
 9284SOL    HW139071   2.443   5.504   2.203  0.8554  2.6244 -2.2853
 9284SOL    HW239072   2.469   5.616   2.319 -0.8012  1.5969 -0.8888
 9285SOL     OW39073   2.412   6.812   2.293  0.3157 -0.4776  0.6662
 9285SOL    HW139074   2.454   6.823   2.203  0.9834 -2.3538  0.7305
 9285SOL    HW239075   2.429   6.893   2.348  1.3180 -0.0016 -0.3320
 9286SOL     OW39076   5.541   3.636   0.001  0.5455  0.0851  0.8112
 9286SOL    HW139077   5.531   3.541   0.030 -1.0874 -0.0476 -0.1267
 9286SOL    HW239078   5.458   3.687   0.026  0.5685  0.7766 -0.4825
 9287SOL     OW39079   9.866   9.184   2.860  0.1886 -0.3559 -0.5087
 9287SOL    HW139080   9.938   9.184   2.790  1.3985 -1.2415  0.7037
 9287SOL    HW239081   9.800   9.112   2.840 -0.2484  0.3019 -1.4944
 9288SOL     OW39082   9.894   7.927   2.912  0.1658  0.4502  0.6856
 9288SOL    HW139083   9.894   7.945   2.813  0.7101  1.9854  0.9425
 9288SOL    HW239084   9.926   7.834   2.929 -0.7024 -0.1041 -0.6309
 9289SOL     OW39085   8.214   1.459   0.366  0.2203 -0.2379  0.2945
 9289SOL    HW139086   8.210   1.359   0.367  0.4432 -0.2369  1.5129
 9289SOL    HW239087   8.121   1.495   0.360  0.0640 -0.5171  0.9266
 9290SOL     OW39088   9.757   3.975   2.719  0.8359  0.6142  0.4744
 9290SOL    HW139089   9.727   4.027   2.798  0.1779  0.7243  0.1557
 9290SOL    HW239090   9.808   4.034   2.657  0.5753  0.7443  0.3836
 9291SOL     OW39091   5.301   2.200   3.390  0.1228 -0.5453 -0.4642
 9291SOL    HW139092   5.362   2.252   3.450  0.7011  0.6061 -2.0258
 9291SOL    HW239093   5.343   2.112   3.367  0.8550 -0.0739 -0.9269
 9292SOL     OW39094   4.866   4.383   0.670  0.1865  0.4060 -0.0922
 9292SOL    HW139095   4.944   4.437   0.704  0.8642  0.7286 -2.1122
 9292SOL    HW239096   4.883   4.286   0.689  1.6823  0.3478 -1.6365
 9293SOL     OW39097   3.304   1.258   2.908  0.0092  0.2611  0.2756
 9293SOL    HW139098   3.220   1.225   2.950 -0.2026 -0.4691 -0.7041
 9293SOL    HW239099   3.288   1.349   2.868 -0.7702 -0.5761 -1.3432
 9294SOL     OW39100   8.359   6.705   2.077 -0.0243 -0.1059 -0.1812
 9294SOL    HW139101   8.260   6.699   2.063 -0.0976 -0.7512  0.5578
 9294SOL    HW239102   8.402   6.619   2.050  0.6234  0.9671 -2.6846
 9295SOL     OW39103   8.099   6.406   2.157 -0.6352  0.2716 -0.3834
 9295SOL    HW139104   8.165   6.413   2.232  0.9017 -1.2107 -1.5415
 9295SOL    HW239105   8.107   6.487   2.098  0.6471 -0.2200 -0.8968
 9296SOL     OW39106   9.658   2.883   2.370  0.2585 -0.2440 -0.3873
 9296SOL    HW139107   9.621   2.795   2.400  1.8710 -1.3950 -1.6941
 9296SOL    HW239108   9.727   2.914   2.435  1.4241 -1.1511 -1.1671
 9297SOL     OW39109   0.968   6.887   2.548 -0.2771  0.1098  0.3621
 9297SOL    HW139110   1.027   6.960   2.515 -1.1503  0.4342 -0.5213
 9297SOL    HW239111   0.912   6.921   2.624 -0.4380  0.2668  0.1749
 9298SOL     OW39112   6.193   4.457   0.008  0.1098 -1.1029 -0.2847
 9298SOL    HW139113   6.264   4.526  -0.002 -1.1773  0.0376 -1.9798
 9298SOL    HW239114   6.173   4.443   0.105  1.7378 -0.5251  0.1451
 9299SOL     OW39115   7.544   4.174   3.110  0.4481 -0.3379  0.3214
 9299SOL    HW139116   7.632   4.197   3.068  0.2223 -2.0224 -1.1272
 9299SOL    HW239117   7.488   4.124   3.044 -1.2266 -0.1301  1.5623
 9300SOL     OW39118   6.007   8.691   3.773 -0.0798 -0.4127 -0.0214
 9300SOL    HW139119   5.996   8.786   3.804  2.0107 -0.6632  1.5665
 9300SOL    HW239120   5.951   8.631   3.830 -0.8377 -0.2397 -0.5654
 9301SOL     OW39121   0.644   4.160   5.235  0.2296  0.0099 -0.0480
 9301SOL    HW139122   0.664   4.063   5.247 -2.5899 -0.7134 -1.0052
 9301SOL    HW239123   0.594   4.194   5.315 -1.5252 -0.1105 -1.0705
 9302SOL     OW39124   6.230   2.788   3.731  0.1793  0.0663 -0.2415
 9302SOL    HW139125   6.242   2.821   3.825  1.0484  2.5779 -1.1980
 9302SOL    HW239126   6.295   2.714   3.713  1.4599  1.0008  0.4769
 9303SOL     OW39127   7.333   7.211   2.688 -0.3358 -0.2374 -0.1338
 9303SOL    HW139128   7.376   7.204   2.779 -1.3692 -0.5371  0.3362
 9303SOL    HW239129   7.309   7.307   2.671 -1.6537 -0.4263  0.6173
 9304SOL     OW39130   0.083   8.179   6.156  0.4949  0.2578 -0.2570
 9304SOL    HW139131   0.037   8.111   6.098 -0.3802  0.0196  0.6983
 9304SOL    HW239132   0.162   8.215   6.108  0.0747 -0.3101 -1.4038
 9305SOL     OW39133   9.505   8.997   6.401  0.6055 -0.9354  0.0684
 9305SOL    HW139134   9.449   9.044   6.333  1.0504 -0.5566 -0.0421
 9305SOL    HW239135   9.598   9.035   6.400  0.0981  0.5344  2.2921
 9306SOL     OW39136   7.823   2.903   7.900  0.5801  0.5848  0.5013
 9306SOL    HW139137   7.855   2.924   7.808 -1.2557  0.1816 -0.2444
 9306SOL    HW239138   7.902   2.889   7.960  1.8336 -1.1941 -1.4803
 9307SOL     OW39139   3.582   9.772   1.182  0.2731 -0.4438 -0.2026
 9307SOL    HW139140   3.490   9.800   1.208  0.1454 -0.1348 -0.9727
 9307SOL    HW239141   3.642   9.853   1.178 -0.0987 -0.2585 -2.4438
 9308SOL     OW39142   1.383   5.387   3.848 -0.1038 -0.4930 -0.0227
 9308SOL    HW139143   1.292   5.427   3.842 -0.5214 -1.3603  0.4118
 9308SOL    HW239144   1.378   5.298   3.895  0.6352 -1.5820 -1.9199
 9309SOL     OW39145   8.265   2.511   4.351 -0.3726  0.1171 -0.1497
 9309SOL    HW139146   8.245   2.493   4.447 -0.2358 -1.9941 -0.4976
 9309SOL    HW239147   8.190   2.476   4.295  0.6882 -0.9221 -0.9521
 9310SOL     OW39148   2.886   9.933   4.636  0.2230  0.4786 -0.2181
 9310SOL    HW139149   2.851  10.023   4.660  0.4274  0.3160  0.6850
 9310SOL    HW239150   2.930   9.937   4.546  1.2015  1.5228  0.2989
 9311SOL     OW39151   4.271   7.924   4.101  0.0714  0.2032  0.2605
 9311SOL    HW139152   4.233   7.956   4.014  0.4914 -0.8331 -0.3215
 9311SOL    HW239153   4.350   7.865   4.083  0.1116 -0.0940  1.3470
 9312SOL     OW39154   0.831   9.210   4.118 -0.6621  0.1194  0.2523
 9312SOL    HW139155   0.879   9.288   4.078  1.1065 -0.5608  0.9992
 9312SOL    HW239156   0.738   9.237   4.142 -0.3959  1.7118 -0.4223
 9313SOL     OW39157   0.629   5.122   4.959  0.5875 -0.0095  0.7047
 9313SOL    HW139158   0.691   5.132   4.882  0.1390 -2.3673 -0.0014
 9313SOL    HW239159   0.536   5.106   4.926  0.4147 -1.2039  1.6980
 9314SOL     OW39160   2.127   4.173   2.643 -0.2219  0.4535  0.1715
 9314SOL    HW139161   2.094   4.196   2.551 -1.3762 -0.9174  0.2303
 9314SOL    HW239162   2.051   4.175   2.707  0.7934  2.5809  1.3511
 9315SOL     OW39163   6.602   4.068   1.813 -0.1576  0.1569 -0.0396
 9315SOL    HW139164   6.593   3.995   1.745  0.6073  0.3183 -0.3210
 9315SOL    HW239165   6.687   4.055   1.864 -1.3349 -0.6652  1.7345
 9316SOL     OW39166   7.379   7.540   4.188  0.0383 -0.1279  0.2509
 9316SOL    HW139167   7.382   7.633   4.225  0.2170 -0.2557  0.5578
 9316SOL    HW239168   7.345   7.542   4.094  0.3485  0.2850  0.1470
 9317SOL     OW39169   1.303   2.014   0.948  0.3910  0.3458  0.1215
 9317SOL    HW139170   1.223   1.954   0.940  0.8381 -0.2996  0.4902
 9317SOL    HW239171   1.281   2.104   0.909  0.0450 -0.3683 -1.3674
 9318SOL     OW39172   0.643   9.260   5.088 -0.0774  0.4033 -0.1977
 9318SOL    HW139173   0.741   9.263   5.068 -0.0426 -0.6550 -0.2379
 9318SOL    HW239174   0.623   9.178   5.143 -0.8675  0.8448  0.1801
 9319SOL     OW39175   3.656   7.935   0.584 -0.0598  0.3751 -0.6767
 9319SOL    HW139176   3.573   7.925   0.529 -0.2849 -2.2452  0.0717
 9319SOL    HW239177   3.707   7.850   0.583  2.2460  1.7172 -0.4743
 9320SOL     OW39178   9.109   0.929   4.403  0.4818  0.2464  0.1870
 9320SOL    HW139179   9.020   0.968   4.427 -0.2671 -0.9159 -0.6346
 9320SOL    HW239180   9.154   0.988   4.336 -0.4812 -0.0859 -0.7711
 9321SOL     OW39181   9.448   4.135   1.615  0.2994  0.0948  0.1652
 9321SOL    HW139182   9.508   4.111   1.539  1.7224 -0.2712  1.3859
 9321SOL    HW239183   9.475   4.224   1.653 -0.1659  0.0966  0.5040
 9322SOL     OW39184   3.510   1.149   6.331 -0.0429 -0.7154 -0.1138
 9322SOL    HW139185   3.552   1.206   6.401 -0.0318 -1.8317  0.7987
 9322SOL    HW239186   3.579   1.087   6.293  0.5974  1.6355 -2.9714
 9323SOL     OW39187   7.569   2.216   2.946  0.3289 -0.5529  0.5285
 9323SOL    HW139188   7.604   2.123   2.962  0.5194 -0.5911 -0.0881
 9323SOL    HW239189   7.544   2.226   2.849 -0.5663 -0.2524  0.7859
 9324SOL     OW39190   4.729   6.815   3.545 -0.3155 -0.0461  0.1242
 9324SOL    HW139191   4.688   6.772   3.465  1.0624 -0.1096 -0.5607
 9324SOL    HW239192   4.749   6.746   3.615 -2.1564  0.1017  0.8290
 9325SOL     OW39193   1.442   7.704   2.115 -0.6554 -0.8032  0.4838
 9325SOL    HW139194   1.404   7.710   2.208  2.0435  0.3855  1.5631
 9325SOL    HW239195   1.509   7.630   2.112  0.0927 -0.1025 -0.2022
 9326SOL     OW39196   2.796   9.806   0.304 -0.0843 -0.5774  0.1959
 9326SOL    HW139197   2.859   9.803   0.381 -0.6756  1.0783  0.7532
 9326SOL    HW239198   2.816   9.730   0.241  1.3128 -1.0822  1.2465
 9327SOL     OW39199   9.285   6.934   0.810  0.0104 -0.4312  0.0585
 9327SOL    HW139200   9.336   6.984   0.880  0.4880  1.3061 -1.4964
 9327SOL    HW239201   9.348   6.882   0.753 -0.3921 -1.9653  0.9789
 9328SOL     OW39202   2.107   4.167   0.164 -0.0448  0.2000 -0.4469
 9328SOL    HW139203   2.061   4.080   0.184 -1.1583  1.3333  2.1797
 9328SOL    HW239204   2.039   4.238   0.147  0.7820  1.1429  0.1007
 9329SOL     OW39205   3.047   0.150   5.493  0.1889  0.0490 -0.0712
 9329SOL    HW139206   3.014   0.129   5.585 -1.9599  1.3147 -0.5271
 9329SOL    HW239207   3.021   0.076   5.431 -1.3682  0.7838 -0.3184
 9330SOL     OW39208   7.412   2.163   3.820  0.0837 -0.3697 -0.1421
 9330SOL    HW139209   7.411   2.223   3.900 -2.1906  0.9522 -1.1251
 9330SOL    HW239210   7.333   2.182   3.763  0.9363 -2.2646 -2.0232
 9331SOL     OW39211   6.167   2.051   0.351 -0.0528  0.1370 -0.0603
 9331SOL    HW139212   6.230   2.004   0.289  0.8419  0.2161  0.7866
 9331SOL    HW239213   6.130   2.131   0.305 -1.0833 -1.0168 -1.2762
 9332SOL     OW39214   9.553   3.702   1.519  0.7183  0.1476  0.8000
 9332SOL    HW139215   9.607   3.751   1.450  0.2697 -0.0615  0.3005
 9332SOL    HW239216   9.456   3.723   1.506  0.3764 -1.9587 -0.3066
 9333SOL     OW39217   0.170   7.249   0.513 -0.2284 -0.1801 -0.5392
 9333SOL    HW139218   0.246   7.275   0.454 -0.2170  1.1896  0.0507
 9333SOL    HW239219   0.139   7.329   0.565 -1.1797 -1.0285  0.2356
 9334SOL     OW39220   7.327   9.674   3.065 -0.5816 -0.0273  0.3950
 9334SOL    HW139221   7.351   9.698   2.971 -0.2736 -1.1890  0.1776
 9334SOL    HW239222   7.244   9.618   3.066  0.3286 -1.3840  0.6959
 9335SOL     OW39223   9.867   8.727   4.805  0.0310  0.3355  0.4015
 9335SOL    HW139224   9.825   8.751   4.717  0.7034  2.6946  0.6927
 9335SOL    HW239225   9.961   8.697   4.789 -0.6848 -1.8481  0.0797
 9336SOL     OW39226   7.890   2.377   0.914 -0.2397 -0.1735  0.5167
 9336SOL    HW139227   7.836   2.294   0.927  0.7711 -1.1768 -1.5310
 9336SOL    HW239228   7.848   2.434   0.843  0.6303 -0.3104 -0.1161
 9337SOL     OW39229   9.001   1.466   1.923 -0.6846  0.6680  0.3177
 9337SOL    HW139230   8.932   1.418   1.977 -1.8177  0.4773 -1.2538
 9337SOL    HW239231   8.994   1.564   1.938 -0.1346  0.5300  1.4982
 9338SOL     OW39232   1.667   9.822   3.722 -0.0466 -0.2172 -0.3926
 9338SOL    HW139233   1.692   9.912   3.684  3.0153 -0.8176  0.0445
 9338SOL    HW239234   1.721   9.751   3.677 -1.1536 -1.6514  0.5135
 9339SOL     OW39235   1.433   3.835   2.418 -0.1224  0.5778 -0.6694
 9339SOL    HW139236   1.513   3.890   2.442 -1.4606  1.3312  2.3411
 9339SOL    HW239237   1.461   3.742   2.397  1.5450  0.7285  0.7619
 9340SOL     OW39238   1.050   3.666   3.092  0.1873 -0.2188  0.1635
 9340SOL    HW139239   1.045   3.697   2.997  0.4776 -1.4722 -0.2822
 9340SOL    HW239240   1.146   3.666   3.122 -0.0026  1.1329  0.7960
 9341SOL     OW39241   0.093   7.947   1.968  0.7995 -0.3139  0.1955
 9341SOL    HW139242   0.026   7.959   1.895  0.4448 -1.0664  0.4002
 9341SOL    HW239243   0.184   7.969   1.933  0.7146 -1.2812 -0.6506
 9342SOL     OW39244   1.428   1.401   0.855  0.0299 -0.0804 -0.0028
 9342SOL    HW139245   1.373   1.379   0.775  0.3799 -1.6432  0.1805
 9342SOL    HW239246   1.368   1.431   0.930 -0.5861 -1.8384  0.2195
 9343SOL     OW39247   4.079   6.349   2.862 -0.0615  0.2519  0.3694
 9343SOL    HW139248   3.989   6.368   2.823 -0.7577 -0.9264  1.3362
 9343SOL    HW239249   4.114   6.263   2.824  0.4100  0.4292  0.4010
 9344SOL     OW39250   1.178   0.783   1.774  0.1559  0.4397 -0.0595
 9344SOL    HW139251   1.255   0.840   1.799  0.1888 -0.2148  1.3821
 9344SOL    HW239252   1.093   0.835   1.781  0.3688  0.8869 -0.7407
 9345SOL     OW39253   1.910   4.233   3.219 -0.3741  0.6977 -0.5023
 9345SOL    HW139254   1.823   4.184   3.227 -0.4684  0.8314 -0.7057
 9345SOL    HW239255   1.923   4.292   3.299 -0.7844  1.1813 -0.7923
 9346SOL     OW39256   7.107   1.546   6.247 -0.1679  0.1254 -0.0875
 9346SOL    HW139257   7.174   1.473   6.246  0.2739  0.4941  1.4327
 9346SOL    HW239258   7.041   1.532   6.172 -0.4852 -2.1757  0.5812
 9347SOL     OW39259   5.548   5.402   8.029 -0.3411  0.5121  0.2668
 9347SOL    HW139260   5.624   5.441   7.977 -0.1303  2.2742  1.8347
 9347SOL    HW239261   5.584   5.341   8.100 -0.5841 -1.2240 -1.0739
 9348SOL     OW39262   5.284   8.847   5.602 -0.8805  0.1422 -0.0829
 9348SOL    HW139263   5.291   8.946   5.585 -0.2368  0.0808 -0.1926
 9348SOL    HW239264   5.368   8.815   5.644 -0.8673 -0.4730 -0.5750
 9349SOL     OW39265   8.677   8.505   4.093  0.6376 -0.1655  0.4603
 9349SOL    HW139266   8.716   8.593   4.069  1.9369 -1.0687 -0.8042
 9349SOL    HW239267   8.749   8.443   4.123  0.2088 -1.8134 -1.7609
 9350SOL     OW39268   2.377   9.331   3.952  0.1279  0.0881 -0.2258
 9350SOL    HW139269   2.341   9.418   3.986 -2.3581 -1.3393  0.9217
 9350SOL    HW239270   2.453   9.302   4.010 -0.1727  0.6493  0.4662
 9351SOL     OW39271   1.016   5.570   4.048 -0.0557 -1.0361 -0.2106
 9351SOL    HW139272   1.079   5.571   4.125 -2.3787  0.0782  1.7380
 9351SOL    HW239273   1.013   5.661   4.007 -0.6776 -0.9874 -0.0581
 9352SOL     OW39274   9.773   9.903   4.317  0.3461 -0.2703 -0.1356
 9352SOL    HW139275   9.817   9.820   4.282  1.1978  0.1669 -0.1312
 9352SOL    HW239276   9.844   9.968   4.346 -0.3343 -0.3860  1.8408
 9353SOL     OW39277   8.515   1.720   1.708  0.0716 -0.4458  0.1972
 9353SOL    HW139278   8.440   1.766   1.661  0.6089  0.7838  0.5114
 9353SOL    HW239279   8.516   1.747   1.804 -0.0324 -1.6773  0.5505
 9354SOL     OW39280   9.921   6.886   3.679 -0.0283 -0.4896  0.5251
 9354SOL    HW139281   9.986   6.832   3.732  1.5100  0.3228 -0.5308
 9354SOL    HW239282   9.920   6.980   3.713 -1.3160 -0.6959  1.1112
 9355SOL     OW39283   5.087   6.819   1.612  0.6258  0.2821 -0.2404
 9355SOL    HW139284   5.160   6.812   1.545  0.4440 -0.3597 -0.3776
 9355SOL    HW239285   5.120   6.868   1.693  0.7165  1.4380 -0.9700
 9356SOL     OW39286   4.180   9.570   2.375  0.1858 -0.6790  0.0680
 9356SOL    HW139287   4.118   9.558   2.453  0.9256  0.8894  0.9057
 9356SOL    HW239288   4.193   9.667   2.357 -2.0755 -0.9692 -3.7092
 9357SOL     OW39289   8.813   1.735   2.900 -0.2692 -0.5687  0.7102
 9357SOL    HW139290   8.717   1.738   2.927 -0.1422  0.2734  1.0573
 9357SOL    HW239291   8.837   1.641   2.876 -2.0493 -0.2965 -2.5023
 9358SOL     OW39292   7.119   1.632   0.229  0.3954  0.4576  0.1162
 9358SOL    HW139293   7.146   1.539   0.251 -1.8494 -0.1389  0.5519
 9358SOL    HW239294   7.097   1.682   0.313  0.2025  0.9076 -0.1951
 9359SOL     OW39295   5.458   8.462   3.954 -0.0486  0.8701 -0.1699
 9359SOL    HW139296   5.494   8.545   3.911  0.6559  2.6092  3.5585
 9359SOL    HW239297   5.358   8.466   3.957 -0.2819 -0.4837 -3.8237
 9360SOL     OW39298   6.214   8.286   3.822  0.1405  0.2730 -0.5748
 9360SOL    HW139299   6.206   8.325   3.913 -1.3573 -0.4106 -0.4141
 9360SOL    HW239300   6.221   8.360   3.754  2.2090  0.7862  0.1450
 9361SOL     OW39301   8.943   5.381   2.352 -0.2673  0.2497 -0.6558
 9361SOL    HW139302   8.949   5.477   2.383  1.1808  0.5807 -1.9124
 9361SOL    HW239303   8.902   5.326   2.425 -2.7065  2.1084 -0.5453
 9362SOL     OW39304   5.547   9.439   6.883 -0.0689  0.2630 -0.4138
 9362SOL    HW139305   5.592   9.528   6.882 -0.5745  0.5172 -0.7473
 9362SOL    HW239306   5.577   9.387   6.963  0.5672  0.5540 -0.4587
 9363SOL     OW39307   3.559   8.897   4.320 -0.5760  0.4999  0.1529
 9363SOL    HW139308   3.517   8.839   4.389  2.8425 -0.7715  1.2690
 9363SOL    HW239309   3.636   8.947   4.361 -0.8058  2.5697 -1.8504
 9364SOL     OW39310   4.957   2.080   2.024  0.3882  0.5634  0.3874
 9364SOL    HW139311   4.973   1.981   2.032  0.0751  0.5986  1.4513
 9364SOL    HW239312   4.948   2.120   2.115  2.1048  1.8371  0.0200
 9365SOL     OW39313   6.065   0.680   3.254 -0.1206  0.3125  0.7542
 9365SOL    HW139314   6.062   0.743   3.177  1.0914  0.0828  0.5074
 9365SOL    HW239315   6.157   0.681   3.295 -0.2538 -0.8566  1.1077
 9366SOL     OW39316   4.252   7.146   2.389 -0.0207 -0.1602 -0.2163
 9366SOL    HW139317   4.331   7.196   2.353 -0.9695  1.2480 -0.3820
 9366SOL    HW239318   4.207   7.098   2.313  1.1543 -1.6545  0.0173
 9367SOL     OW39319   7.269   3.402   5.667 -0.6094 -0.0420 -0.3665
 9367SOL    HW139320   7.342   3.428   5.730  0.4420  0.0392 -1.5915
 9367SOL    HW239321   7.288   3.441   5.576 -1.9402 -0.3948 -0.8033
 9368SOL     OW39322   5.201   0.331   1.668 -0.2974 -0.3601 -0.0110
 9368SOL    HW139323   5.277   0.280   1.628 -0.3935 -0.2837 -0.2909
 9368SOL    HW239324   5.234   0.387   1.744 -0.2823 -1.2755  0.6808
 9369SOL     OW39325   3.738   9.470   2.448 -0.9778  0.0558 -0.5767
 9369SOL    HW139326   3.776   9.448   2.358 -1.9303 -0.0197 -0.9663
 9369SOL    HW239327   3.747   9.568   2.465  2.5149 -0.4278  0.8057
 9370SOL     OW39328   1.984   2.629   1.553  0.6628 -0.2312  0.0841
 9370SOL    HW139329   1.984   2.642   1.652  2.1316  0.9500 -0.0633
 9370SOL    HW239330   1.890   2.637   1.519  0.3267  0.8026  1.2005
 9371SOL     OW39331   3.668   5.144   3.599  0.0794  0.4498 -0.4295
 9371SOL    HW139332   3.658   5.244   3.601  0.5951  0.4880  0.4724
 9371SOL    HW239333   3.728   5.115   3.674 -0.7431 -0.6138 -0.1752
 9372SOL     OW39334   9.982   2.001   5.609 -0.0597 -0.0908 -0.8967
 9372SOL    HW139335   9.963   1.939   5.685 -0.1320  2.5667  1.3547
 9372SOL    HW239336   9.896   2.034   5.570 -0.1362  2.3786  1.2017
 9373SOL     OW39337   0.664   7.028   1.637  0.1306  0.4077  0.4046
 9373SOL    HW139338   0.640   6.934   1.610 -0.8047  0.6328  0.4298
 9373SOL    HW239339   0.680   7.032   1.735  0.5588  0.1960  0.3441
 9374SOL     OW39340   9.001   9.489   5.543  0.7148  0.2756 -0.0350
 9374SOL    HW139341   8.918   9.505   5.597  0.5633 -1.5561  0.3008
 9374SOL    HW239342   9.057   9.420   5.588  0.1702 -1.9417 -2.6547
 9375SOL     OW39343   0.888   9.849   2.035  0.1755 -0.4953 -0.3629
 9375SOL    HW139344   0.802   9.898   2.022 -0.6136 -1.0190  2.4171
 9375SOL    HW239345   0.875   9.752   2.017 -0.1464 -0.7496  1.1351
 9376SOL     OW39346   3.092   2.407   3.496  0.2139 -0.2183  0.1290
 9376SOL    HW139347   3.157   2.474   3.531 -0.8837  1.0665 -0.2543
 9376SOL    HW239348   3.072   2.340   3.568  1.0989  0.0245  0.6142
 9377SOL     OW39349   0.244   2.693   0.378 -0.4114 -0.5444  0.2059
 9377SOL    HW139350   0.215   2.603   0.410 -0.3958 -0.8718 -0.6816
 9377SOL    HW239351   0.304   2.682   0.298  0.2296  0.2208  0.5765
 9378SOL     OW39352   7.756   1.054   1.527 -0.4216  0.1386  0.1200
 9378SOL    HW139353   7.756   0.986   1.601 -1.3741 -0.0989 -0.0991
 9378SOL    HW239354   7.754   1.008   1.439 -3.0555  0.4698 -0.0078
 9379SOL     OW39355   0.300   9.495   3.697  0.3998 -0.1489  0.0770
 9379SOL    HW139356   0.358   9.560   3.745  1.6231 -1.5214  0.4695
 9379SOL    HW239357   0.356   9.435   3.640 -0.7369 -0.6985 -0.4933
 9380SOL     OW39358   5.160   9.726   3.283  0.2806 -0.3605  0.0878
 9380SOL    HW139359   5.215   9.676   3.350 -1.3919 -2.6986 -0.2250
 9380SOL    HW239360   5.082   9.768   3.329  0.0057 -0.6365 -0.1191
 9381SOL     OW39361   4.927   8.867   3.077  0.1605  0.4908 -0.1783
 9381SOL    HW139362   4.960   8.773   3.067 -0.1843  0.1293  1.9044
 9381SOL    HW239363   5.004   8.930   3.072  0.6588 -0.0540  0.4460
 9382SOL     OW39364   9.615   6.933   2.006  0.1912  0.0197 -0.1773
 9382SOL    HW139365   9.621   6.834   2.019 -0.8350 -0.5473 -3.4619
 9382SOL    HW239366   9.521   6.964   2.023  0.0157  0.0677 -1.2019
 9383SOL     OW39367   3.758   6.213   0.506  0.0994  0.1477 -0.2617
 9383SOL    HW139368   3.834   6.235   0.566 -0.1936  1.2960 -0.2955
 9383SOL    HW239369   3.675   6.258   0.539  0.1040  1.4918 -1.9606
 9384SOL     OW39370   2.480   8.932   2.884  0.0344 -0.3325 -0.4515
 9384SOL    HW139371   2.502   9.029   2.892 -2.5559  0.4975 -2.5762
 9384SOL    HW239372   2.549   8.887   2.828  0.8376  0.4267 -0.0932
 9385SOL     OW39373   1.968   5.323   4.757 -0.2244 -0.0974 -0.0314
 9385SOL    HW139374   1.926   5.276   4.679  0.3900 -0.7433  0.0295
 9385SOL    HW239375   2.044   5.269   4.792 -0.0653  0.5235  0.5895
 9386SOL     OW39376   9.014   7.580   3.315 -0.4452  0.2791 -0.3481
 9386SOL    HW139377   8.942   7.622   3.260  1.1713  1.3005 -1.7361
 9386SOL    HW239378   8.985   7.489   3.343 -1.8071  0.2228 -1.8551
 9387SOL     OW39379   9.514   9.529   0.502  0.0535  0.8665  0.6806
 9387SOL    HW139380   9.565   9.452   0.465 -0.6092  0.8621 -0.2323
 9387SOL    HW239381   9.421   9.529   0.466  0.2241  2.4167  0.2080
 9388SOL     OW39382   2.117   0.139   3.852  0.1194  0.1426 -0.2709
 9388SOL    HW139383   2.160   0.210   3.797  0.6086 -0.8453 -1.1741
 9388SOL    HW239384   2.140   0.152   3.948 -0.0733  1.3958 -0.3856
 9389SOL     OW39385   5.880   1.363   1.705  0.1036  0.6329 -0.1424
 9389SOL    HW139386   5.870   1.426   1.628 -0.2687  1.2086  0.3697
 9389SOL    HW239387   5.794   1.315   1.720 -0.1076  1.1984  0.4897
 9390SOL     OW39388   7.799   9.388   4.102 -0.2171  0.0663 -0.0944
 9390SOL    HW139389   7.740   9.371   4.182  0.8467 -0.1473  0.6527
 9390SOL    HW239390   7.748   9.368   4.018 -0.5137 -2.2322  0.6081
 9391SOL     OW39391   9.527   5.599   0.387 -0.7495  0.2223 -0.3353
 9391SOL    HW139392   9.564   5.662   0.319 -0.7803  0.4434 -0.1517
 9391SOL    HW239393   9.600   5.540   0.422 -0.9004 -0.4474 -1.1538
 9392SOL     OW39394   4.421   3.257   3.277  0.3957 -0.5730 -0.5726
 9392SOL    HW139395   4.401   3.348   3.240 -2.3328 -0.2429  1.5341
 9392SOL    HW239396   4.500   3.262   3.337  0.6729  0.2849 -1.0051
 9393SOL     OW39397   8.361   3.735   4.113  0.3133  0.4296 -0.4082
 9393SOL    HW139398   8.408   3.737   4.025 -0.8003 -0.7060 -1.0543
 9393SOL    HW239399   8.263   3.748   4.099 -0.0888 -1.4134  0.4777
 9394SOL     OW39400   0.831   8.759   1.116 -0.0468  0.6407 -0.1846
 9394SOL    HW139401   0.867   8.708   1.194 -1.5916  0.0312  0.1460
 9394SOL    HW239402   0.748   8.808   1.143  0.4847  1.9950 -0.9450
 9395SOL     OW39403   3.876   2.377   4.853 -0.3851 -0.2959 -0.0584
 9395SOL    HW139404   3.852   2.403   4.759 -0.0904 -0.9424 -0.3103
 9395SOL    HW239405   3.928   2.451   4.895  1.6719 -1.0247 -1.2477
 9396SOL     OW39406   4.394   7.234   4.177 -0.4692 -0.2312 -0.3144
 9396SOL    HW139407   4.412   7.137   4.196 -1.9897 -0.8082 -1.7192
 9396SOL    HW239408   4.328   7.269   4.242 -0.7261 -0.4281 -0.4689
 9397SOL     OW39409   8.147   4.179   0.397 -0.7896  0.1451  0.1394
 9397SOL    HW139410   8.072   4.203   0.459 -0.9370  1.3044 -0.4820
 9397SOL    HW239411   8.188   4.093   0.428 -0.4631  1.0105  2.2156
 9398SOL     OW39412   0.746   1.080   0.308 -0.3750 -0.3320  0.1699
 9398SOL    HW139413   0.722   0.989   0.273 -2.0514  0.1901 -0.0721
 9398SOL    HW239414   0.845   1.091   0.307 -0.1731 -2.0736 -0.0236
 9399SOL     OW39415   3.753   7.092   1.548 -0.6054  0.9626 -0.2955
 9399SOL    HW139416   3.670   7.125   1.503  0.1199  2.0560 -0.8403
 9399SOL    HW239417   3.742   7.101   1.647 -1.8923 -0.7194 -0.2622
 9400SOL     OW39418   8.132   4.631   6.409 -0.6717  0.2948  0.3018
 9400SOL    HW139419   8.072   4.598   6.482 -0.2442  0.0200  0.5363
 9400SOL    HW239420   8.078   4.651   6.327 -0.9362 -1.1005  0.1162
 9401SOL     OW39421   0.900   7.349   4.782  0.4008 -0.0459  0.2453
 9401SOL    HW139422   0.924   7.377   4.689  0.0052 -0.5392 -0.0135
 9401SOL    HW239423   0.921   7.422   4.846  0.2453  0.4705 -0.2932
 9402SOL     OW39424   0.394   9.163   3.266  0.1957 -0.0465  0.2394
 9402SOL    HW139425   0.340   9.101   3.208 -0.8384 -0.2169  1.3590
 9402SOL    HW239426   0.472   9.113   3.304  0.3597 -0.1813 -0.2665
 9403SOL     OW39427   4.206   3.691   8.179 -0.4556  0.4923  0.0021
 9403SOL    HW139428   4.248   3.614   8.227 -2.7744 -2.0668 -1.9249
 9403SOL    HW239429   4.269   3.726   8.109  0.2822 -0.1931  0.3206
 9404SOL     OW39430   1.713   3.093   3.790 -0.1913 -0.6604  0.1253
 9404SOL    HW139431   1.696   3.190   3.776  0.7748 -0.6300 -0.8386
 9404SOL    HW239432   1.796   3.065   3.741 -1.8195 -2.4946 -1.6832
 9405SOL     OW39433   1.792   2.505   5.319 -0.0948  0.3789  0.0957
 9405SOL    HW139434   1.778   2.478   5.223  1.4629  1.9555 -0.5995
 9405SOL    HW239435   1.888   2.528   5.333 -0.6679  1.8967  1.6040
 9406SOL     OW39436   4.297   0.248   0.650 -0.6286  0.2692  0.2604
 9406SOL    HW139437   4.202   0.279   0.645 -0.9333 -0.2510  2.3449
 9406SOL    HW239438   4.357   0.326   0.668 -1.0124  0.2094  1.9379
 9407SOL     OW39439   7.312   2.126   0.083 -0.7425 -0.6300 -0.2920
 9407SOL    HW139440   7.343   2.036   0.116  0.9461 -0.3171 -0.9744
 9407SOL    HW239441   7.227   2.151   0.129 -0.7046 -2.1377  0.6292
 9408SOL     OW39442   1.457   7.531   5.906 -0.0899 -0.5707 -0.0535
 9408SOL    HW139443   1.374   7.478   5.888  0.3394 -1.8213  1.5446
 9408SOL    HW239444   1.529   7.503   5.842  0.3672 -2.4984  1.2721
 9409SOL     OW39445   9.268   4.878   0.723  0.4126 -0.1672  0.5469
 9409SOL    HW139446   9.176   4.918   0.722  0.0589 -1.0187 -1.2331
 9409SOL    HW239447   9.336   4.952   0.730 -0.3185  0.6182 -0.4646
 9410SOL     OW39448   1.540   1.492   1.219  0.5985  0.4369 -0.4004
 9410SOL    HW139449   1.583   1.403   1.199  0.2372  0.4387 -1.1934
 9410SOL    HW239450   1.549   1.552   1.140 -0.7654  0.4786 -0.5281
 9411SOL     OW39451   8.161   8.435   3.765  0.6472 -0.4751 -0.4473
 9411SOL    HW139452   8.063   8.435   3.750  0.9326 -1.5577 -2.4491
 9411SOL    HW239453   8.199   8.524   3.739  0.2072 -0.0231  0.4276
 9412SOL     OW39454   6.142   0.838   4.801  0.0076 -0.5395 -0.6447
 9412SOL    HW139455   6.159   0.928   4.842 -0.9512 -0.5738 -0.1398
 9412SOL    HW239456   6.203   0.770   4.842 -0.7359 -0.5145  0.5199
 9413SOL     OW39457   2.260   6.396   0.392 -0.8703  0.1098  0.3278
 9413SOL    HW139458   2.347   6.365   0.356 -1.6624 -0.9341 -0.7194
 9413SOL    HW239459   2.219   6.462   0.329 -0.6108  1.0131  1.0763
 9414SOL     OW39460   8.011   2.396   4.131 -0.0048  0.0999 -0.1920
 9414SOL    HW139461   7.948   2.469   4.159 -0.4559  0.0645 -1.0925
 9414SOL    HW239462   8.069   2.429   4.056 -0.5293 -0.6047 -0.9199
 9415SOL     OW39463   5.986   0.123   1.913  0.9202  0.0895 -0.0410
 9415SOL    HW139464   5.891   0.132   1.943  0.9297 -0.0183  0.0238
 9415SOL    HW239465   6.019   0.032   1.937  1.3175  0.4273  0.7280
 9416SOL     OW39466   2.158   2.837   3.804 -0.6345  0.0516 -0.2000
 9416SOL    HW139467   2.238   2.893   3.786 -1.0937  0.4523 -1.0003
 9416SOL    HW239468   2.186   2.742   3.816 -0.2139 -0.1138 -2.2569
 9417SOL     OW39469   9.375   9.724   5.171 -0.0970 -0.6217  0.3733
 9417SOL    HW139470   9.405   9.794   5.106  1.0906 -0.7545  0.7625
 9417SOL    HW239471   9.294   9.757   5.219  0.5765  0.5947  0.7133
 9418SOL     OW39472   2.642   0.817   2.797  0.2790  0.1753 -0.2473
 9418SOL    HW139473   2.636   0.754   2.874 -1.2859  0.7159  0.0855
 9418SOL    HW239474   2.664   0.766   2.714  2.0398 -0.4005  0.5464
 9419SOL     OW39475   0.925   9.509   1.579  0.2961 -0.3214 -0.0095
 9419SOL    HW139476   0.943   9.606   1.563 -0.5092  0.1071  1.5445
 9419SOL    HW239477   0.977   9.479   1.659  1.7934 -1.5892 -1.4371
 9420SOL     OW39478   4.975   4.854   1.158  0.2342  0.1656 -0.1932
 9420SOL    HW139479   5.067   4.870   1.194 -0.0894  1.3653  0.1104
 9420SOL    HW239480   4.908   4.879   1.228 -0.3649  1.1639 -1.1156
 9421SOL     OW39481   8.158   4.086   3.679  0.2781 -0.3858  0.0134
 9421SOL    HW139482   8.118   4.095   3.588  0.0263  1.2853  0.2695
 9421SOL    HW239483   8.256   4.108   3.674  0.4766 -1.2836 -0.0355
 9422SOL     OW39484   8.206   2.471   3.977  0.4277 -0.5527 -0.4522
 9422SOL    HW139485   8.276   2.424   3.923  2.0253  0.9322  0.2444
 9422SOL    HW239486   8.227   2.569   3.980 -0.7292 -0.3297  1.2035
 9423SOL     OW39487   9.670   8.721   3.876  0.1443 -0.2600  0.1779
 9423SOL    HW139488   9.627   8.804   3.911  0.4467 -0.1984  0.4074
 9423SOL    HW239489   9.659   8.647   3.942  0.4892 -0.2138  0.2854
 9424SOL     OW39490   3.720   4.143   3.784  0.1095  0.0680 -0.0301
 9424SOL    HW139491   3.720   4.226   3.840  0.8323  0.4759 -0.6327
 9424SOL    HW239492   3.635   4.136   3.734 -0.1581  0.1844  0.4059
 9425SOL     OW39493   3.524   7.937   1.666  0.0734  0.3320  0.3997
 9425SOL    HW139494   3.608   7.975   1.627 -0.6188  1.0110 -0.4667
 9425SOL    HW239495   3.484   8.003   1.729  0.3785 -0.1402  1.0905
 9426SOL     OW39496   3.588   2.291   3.254 -0.2444  0.0049 -0.1597
 9426SOL    HW139497   3.508   2.350   3.254 -0.7455 -0.6620  0.1040
 9426SOL    HW239498   3.664   2.337   3.299 -1.1971 -0.3101  1.7924
 9427SOL     OW39499   1.559   2.683   2.002 -0.2308 -0.1785 -0.0240
 9427SOL    HW139500   1.490   2.746   2.036  0.2414  0.4965 -0.3051
 9427SOL    HW239501   1.624   2.663   2.075  0.6742  1.1212 -0.4545
 9428SOL     OW39502   2.480   7.660   2.596 -0.4687 -0.1560  0.9290
 9428SOL    HW139503   2.561   7.632   2.646  0.6897 -0.6625 -1.1628
 9428SOL    HW239504   2.419   7.581   2.585  1.0883 -1.0283 -1.7811
 9429SOL     OW39505   2.129   0.218   1.610  0.7938  0.0075  0.1877
 9429SOL    HW139506   2.129   0.149   1.683  0.2049  0.1219  0.2998
 9429SOL    HW239507   2.035   0.241   1.586  0.9758 -0.9950 -1.5454
 9430SOL     OW39508   2.181   1.143   4.653  0.0442  0.0614  0.4655
 9430SOL    HW139509   2.143   1.062   4.608  0.5888  0.2329 -0.3191
 9430SOL    HW239510   2.273   1.122   4.688  0.9037  0.8348 -1.2810
 9431SOL     OW39511   4.196   5.020   2.589  0.3076 -0.4312  0.3309
 9431SOL    HW139512   4.269   5.039   2.654  2.0700  0.6744 -1.9131
 9431SOL    HW239513   4.219   4.939   2.536 -0.6784 -0.7772  0.4176
 9432SOL     OW39514   5.900   0.862   6.594  0.3653  0.9547  0.1801
 9432SOL    HW139515   5.961   0.933   6.627  1.5136  1.0131 -1.9858
 9432SOL    HW239516   5.940   0.818   6.513 -2.2339  0.7004 -1.0197
 9433SOL     OW39517   1.057   5.739   3.674 -0.4359  0.5467 -0.5536
 9433SOL    HW139518   0.999   5.677   3.621  1.3620 -2.3103  0.7025
 9433SOL    HW239519   1.136   5.766   3.619  0.1549 -0.4368 -0.1981
 9434SOL     OW39520   3.589   2.556   2.384  1.0397 -0.2737  0.5549
 9434SOL    HW139521   3.688   2.558   2.402  1.2152 -0.7656 -0.3544
 9434SOL    HW239522   3.564   2.469   2.342  0.4133  0.3343 -0.3537
 9435SOL     OW39523   2.409   1.116   3.727  0.7953  0.1764 -0.3965
 9435SOL    HW139524   2.378   1.126   3.632  0.5955  0.1151 -0.3366
 9435SOL    HW239525   2.436   1.205   3.763 -0.5978  0.4383  0.0028
 9436SOL     OW39526   6.287   9.765   2.618 -0.2999  0.3164 -0.0707
 9436SOL    HW139527   6.315   9.801   2.529  0.5174  0.6784  0.3292
 9436SOL    HW239528   6.201   9.807   2.646 -0.2005  0.7147 -0.3677
 9437SOL     OW39529   0.251   6.842   2.911 -0.6203  0.7316  0.4426
 9437SOL    HW139530   0.188   6.784   2.860  1.1985 -1.9373  1.0848
 9437SOL    HW239531   0.248   6.935   2.875 -2.7963 -0.0101 -1.3994
 9438SOL     OW39532   7.888   0.903   2.660  0.0132  0.8191  0.0495
 9438SOL    HW139533   7.904   0.872   2.567  0.0916 -0.5501  0.5028
 9438SOL    HW239534   7.793   0.886   2.686 -0.1088  1.5423  0.0996
 9439SOL     OW39535   5.626   2.632   0.342 -0.1863  0.0335  0.4517
 9439SOL    HW139536   5.603   2.602   0.249 -0.4983  0.6164  0.3381
 9439SOL    HW239537   5.574   2.715   0.364  0.1028  0.0593  1.0401
 9440SOL     OW39538   6.604   2.504   1.091  0.5791 -0.1673 -0.1033
 9440SOL    HW139539   6.652   2.446   1.025  2.7818  1.3741  0.0866
 9440SOL    HW239540   6.543   2.566   1.041  0.0695 -0.9570 -0.4768
 9441SOL     OW39541   2.791   0.525   4.993  1.3205 -0.8444 -0.6611
 9441SOL    HW139542   2.706   0.533   4.940  1.4876  1.0041 -0.7021
 9441SOL    HW239543   2.774   0.470   5.075 -0.4161  1.0178  0.2832
 9442SOL     OW39544   1.804   7.454   5.851 -0.0188 -0.1275 -0.3720
 9442SOL    HW139545   1.746   7.441   5.771  0.4781 -1.6108 -0.4969
 9442SOL    HW239546   1.869   7.379   5.858  1.2353  1.0018  0.3308
 9443SOL     OW39547   3.545   5.072   2.772 -0.5675 -0.5277 -0.3493
 9443SOL    HW139548   3.568   5.038   2.863 -0.7214  0.2766 -0.0054
 9443SOL    HW239549   3.608   5.032   2.705 -0.1830 -0.7897  0.1607
 9444SOL     OW39550   4.101   6.412   3.397  1.0766  0.5203 -0.2542
 9444SOL    HW139551   4.130   6.495   3.350  0.3278  1.2708  0.5876
 9444SOL    HW239552   4.018   6.430   3.450  0.5807 -0.9130 -0.5124
 9445SOL     OW39553   1.003   2.995   4.612 -0.2145  0.0958  0.0882
 9445SOL    HW139554   0.982   2.954   4.701 -1.5213  2.6656  1.0026
 9445SOL    HW239555   1.083   2.950   4.573 -1.0292 -2.6850  1.4475
 9446SOL     OW39556   8.023   7.451   3.707  0.6981  0.3684 -0.5104
 9446SOL    HW139557   8.038   7.474   3.803 -0.1797 -1.0586 -0.0253
 9446SOL    HW239558   7.933   7.484   3.679  0.3107 -0.5772 -0.4002
 9447SOL     OW39559   2.234   6.562   3.086  0.4473  0.3721  0.3435
 9447SOL    HW139560   2.230   6.601   2.994  1.1163 -1.7045 -0.6013
 9447SOL    HW239561   2.149   6.514   3.106  0.7282 -0.1350  0.3452
 9448SOL     OW39562   5.231   0.548   2.531 -0.1807 -0.1074  0.4420
 9448SOL    HW139563   5.303   0.615   2.515 -0.0227 -0.7773 -1.8069
 9448SOL    HW239564   5.269   0.456   2.521 -0.6574 -0.5370  2.3547
 9449SOL     OW39565   0.140   1.179   4.688  0.0888 -0.2329  0.1181
 9449SOL    HW139566   0.169   1.167   4.783 -0.3756 -1.2192  0.1459
 9449SOL    HW239567   0.220   1.171   4.628  0.2574 -0.4797  0.3728
 9450SOL     OW39568   9.415   1.068   6.283 -0.0936  0.2023  0.5750
 9450SOL    HW139569   9.423   1.040   6.187  1.4680  1.9033  0.1684
 9450SOL    HW239570   9.495   1.037   6.334 -1.6338 -2.0256  1.7226
 9451SOL     OW39571   3.185   1.031   0.379  0.0075 -0.3337  0.4959
 9451SOL    HW139572   3.190   1.052   0.476  1.3527 -1.4807  0.6978
 9451SOL    HW239573   3.270   0.986   0.350 -1.5267 -2.7065 -0.5296
 9452SOL     OW39574   0.742   3.977   1.294  0.0034 -0.3541  0.6843
 9452SOL    HW139575   0.719   4.003   1.200  0.8073  2.9904  1.3514
 9452SOL    HW239576   0.841   3.985   1.307 -0.0814 -0.9608  1.7788
 9453SOL     OW39577   4.019   1.128   6.480  0.0682  0.0187 -0.6486
 9453SOL    HW139578   4.071   1.210   6.459  1.2034 -0.4666  0.1837
 9453SOL    HW239579   3.961   1.104   6.403 -0.3535  1.6590 -0.8531
 9454SOL     OW39580   0.591   6.451   2.073  0.2287 -1.0507 -0.2288
 9454SOL    HW139581   0.502   6.405   2.075 -0.9818  1.2016 -0.0417
 9454SOL    HW239582   0.614   6.476   1.979 -0.6344  0.7033 -0.0057
 9455SOL     OW39583   5.069   7.909   5.059  0.2486  0.2400  0.3430
 9455SOL    HW139584   5.057   7.901   4.960  1.5592  1.6538  0.0386
 9455SOL    HW239585   5.101   8.002   5.080 -0.8870  0.2218  2.1782
 9456SOL     OW39586   8.734   6.805   2.336  0.0008 -0.0025 -0.2627
 9456SOL    HW139587   8.653   6.787   2.280 -0.1360 -1.7950  0.4563
 9456SOL    HW239588   8.738   6.739   2.411  0.9061  1.5212  1.0660
 9457SOL     OW39589   3.577   1.130   1.639  0.7182  0.1404  0.0916
 9457SOL    HW139590   3.659   1.114   1.585  1.8891  2.2398  1.2194
 9457SOL    HW239591   3.512   1.184   1.586  1.5076  1.4441  0.4276
 9458SOL     OW39592   5.515   8.425   2.268  0.1680  0.0218 -0.2694
 9458SOL    HW139593   5.425   8.392   2.297  0.1580 -0.3821 -0.7503
 9458SOL    HW239594   5.514   8.525   2.265 -0.0489  0.0409  0.4050
 9459SOL     OW39595   3.346   0.653   1.463  0.0442 -0.7635  0.2739
 9459SOL    HW139596   3.274   0.664   1.531  0.2830 -0.4150  0.4664
 9459SOL    HW239597   3.407   0.732   1.464  0.6810 -1.2480  0.4047
 9460SOL     OW39598   7.478   1.051   1.143  0.1377  0.3583 -0.1946
 9460SOL    HW139599   7.404   1.118   1.138 -0.6015 -0.4660 -0.2120
 9460SOL    HW239600   7.565   1.100   1.155 -0.6117  1.2453  1.8232
 9461SOL     OW39601   9.177   6.600   3.117 -0.3621  0.5632 -0.1011
 9461SOL    HW139602   9.272   6.574   3.102  0.1537  2.0018  0.6686
 9461SOL    HW239603   9.135   6.537   3.183  0.4987  0.8453  0.7209
 9462SOL     OW39604   9.018   3.796   4.006  0.0003  0.0905  0.1495
 9462SOL    HW139605   8.950   3.756   4.068 -0.6666  0.4144 -0.3578
 9462SOL    HW239606   9.082   3.725   3.977 -1.5529 -0.7764 -1.2356
 9463SOL     OW39607   2.444   6.687   5.064  0.4216  0.5688  0.0778
 9463SOL    HW139608   2.475   6.773   5.023 -0.8784  0.2385 -1.6559
 9463SOL    HW239609   2.353   6.699   5.103 -1.0401 -0.7223 -2.7703
 9464SOL     OW39610   3.521   8.275   4.199 -0.0038 -0.5044 -0.2400
 9464SOL    HW139611   3.464   8.278   4.116 -1.7280  0.3680  0.9470
 9464SOL    HW239612   3.612   8.241   4.175 -0.5156 -0.4153 -2.4683
 9465SOL     OW39613   0.455   4.068   2.803 -0.6305  1.3736  0.3593
 9465SOL    HW139614   0.467   4.112   2.714 -1.5826  0.3089 -0.3174
 9465SOL    HW239615   0.538   4.079   2.857  0.9812 -0.2917 -1.7025
 9466SOL     OW39616   8.955   3.440   1.329  0.1160  0.1493  0.5087
 9466SOL    HW139617   8.957   3.340   1.334 -2.4986 -0.2688 -3.8789
 9466SOL    HW239618   8.875   3.474   1.380 -1.5929 -0.4468 -1.6790
 9467SOL     OW39619   2.622   3.498   0.088 -0.1964  0.0761 -0.3197
 9467SOL    HW139620   2.679   3.532   0.013  0.2118  2.2533  0.9259
 9467SOL    HW239621   2.540   3.555   0.095  0.2520  0.5493  1.4825
 9468SOL     OW39622   8.120   9.598   6.588  0.3991 -0.2152 -0.2553
 9468SOL    HW139623   8.060   9.528   6.548 -0.1891  0.2495 -0.1960
 9468SOL    HW239624   8.136   9.578   6.684 -0.3920  0.1444 -0.0437
 9469SOL     OW39625   4.438   9.714   2.640  0.1398 -0.4895 -0.2506
 9469SOL    HW139626   4.356   9.771   2.649 -0.0458 -0.6461 -0.9172
 9469SOL    HW239627   4.494   9.747   2.564  0.8895 -0.1497  0.4416
 9470SOL     OW39628   1.356   2.721   2.639  0.0738 -0.3667  0.0382
 9470SOL    HW139629   1.407   2.636   2.630 -1.0748 -1.0337 -0.1827
 9470SOL    HW239630   1.274   2.718   2.582  1.7125  2.1998 -2.5847
 9471SOL     OW39631   1.909   0.445   0.721 -0.3743 -0.8471 -0.2689
 9471SOL    HW139632   1.966   0.514   0.675 -2.8691  0.2969 -1.7571
 9471SOL    HW239633   1.901   0.364   0.663 -0.4703 -0.8929 -0.1924
 9472SOL     OW39634   4.341   5.878   0.802  0.1375 -0.4010 -0.1357
 9472SOL    HW139635   4.303   5.907   0.889  1.0860  1.3399 -0.2901
 9472SOL    HW239636   4.275   5.897   0.729 -0.1109 -0.6291  0.0284
 9473SOL     OW39637   8.778   4.333   0.956 -0.4079  0.0126  0.3176
 9473SOL    HW139638   8.851   4.295   0.898  0.8051  1.9481  0.5460
 9473SOL    HW239639   8.764   4.429   0.933 -3.3056 -0.4772 -0.1018
 9474SOL     OW39640   9.311   6.803   6.163  0.1823 -0.5734 -0.4515
 9474SOL    HW139641   9.243   6.855   6.112  0.3028 -1.1141 -1.1885
 9474SOL    HW239642   9.274   6.777   6.252 -0.3371 -0.3069 -0.5862
 9475SOL     OW39643   1.807   3.255   0.104 -0.5014 -0.0524 -0.2500
 9475SOL    HW139644   1.746   3.185   0.142  2.0224 -2.7661 -0.9749
 9475SOL    HW239645   1.852   3.219   0.023  1.0630  2.3617 -0.4922
 9476SOL     OW39646   8.211   1.461   1.536 -0.4381 -0.2002  0.2566
 9476SOL    HW139647   8.114   1.464   1.514 -0.6538  3.2026  1.3492
 9476SOL    HW239648   8.265   1.476   1.453 -0.9892  2.1372  0.2905
 9477SOL     OW39649   1.360   1.676   5.108  0.2231  0.2402  0.2267
 9477SOL    HW139650   1.450   1.638   5.086  0.1757  0.6616 -0.7067
 9477SOL    HW239651   1.290   1.604   5.100 -0.1831  0.9895 -3.7158
 9478SOL     OW39652   8.137   5.559   3.247  0.2171  0.4898  0.3431
 9478SOL    HW139653   8.171   5.607   3.166  1.5284 -2.8101 -1.1439
 9478SOL    HW239654   8.044   5.525   3.229  0.4268 -0.0606  0.2891
 9479SOL     OW39655   1.296   2.584   1.615 -0.3142 -0.2530  0.1039
 9479SOL    HW139656   1.257   2.621   1.699 -1.7993  1.8013 -1.4213
 9479SOL    HW239657   1.354   2.654   1.572  0.9197 -1.4944 -0.2980
 9480SOL     OW39658   6.822   0.887   3.185 -0.8888  0.3048 -0.3572
 9480SOL    HW139659   6.817   0.833   3.101  0.3419  0.0210 -0.2547
 9480SOL    HW239660   6.870   0.836   3.256  1.1116  1.8725 -0.5487
 9481SOL     OW39661   4.430   3.356   7.838 -0.2487 -0.2531 -0.3000
 9481SOL    HW139662   4.431   3.411   7.755  0.2704  0.7051  0.3351
 9481SOL    HW239663   4.508   3.292   7.837 -1.1355 -1.3449 -1.2670
 9482SOL     OW39664   0.292   1.689   1.727 -0.1077  0.1490  0.6351
 9482SOL    HW139665   0.245   1.744   1.658  1.7502  0.7368 -0.1833
 9482SOL    HW239666   0.228   1.623   1.766 -1.2385 -0.0569 -1.5074
 9483SOL     OW39667   8.821   3.560   2.337 -0.3113 -0.7770 -0.4344
 9483SOL    HW139668   8.806   3.622   2.260 -0.3139 -1.4389 -0.9665
 9483SOL    HW239669   8.830   3.467   2.304 -0.6636 -1.1146  0.3971
 9484SOL     OW39670   8.217   7.002   4.661 -0.0968 -0.0042  0.2792
 9484SOL    HW139671   8.130   7.005   4.611 -0.5003 -0.4080  0.9370
 9484SOL    HW239672   8.211   7.063   4.740 -0.4875 -1.4772  1.4159
 9485SOL     OW39673   3.060   6.760   1.149 -0.4002 -0.1557  0.5502
 9485SOL    HW139674   2.985   6.765   1.215 -1.2931  2.5220 -0.6237
 9485SOL    HW239675   3.133   6.823   1.177 -0.4006  0.3308 -0.5415
 9486SOL     OW39676   6.849   0.614   5.564 -0.1473 -0.0379  0.2500
 9486SOL    HW139677   6.784   0.591   5.637 -0.5932  0.8486  0.1374
 9486SOL    HW239678   6.799   0.626   5.478  0.2228  0.2150  0.0721
 9487SOL     OW39679   2.766   8.363   4.027  0.3549  0.7418  0.5987
 9487SOL    HW139680   2.819   8.359   3.942 -0.1195 -0.5405  0.3493
 9487SOL    HW239681   2.732   8.272   4.050 -1.4537  1.4699  0.9422
 9488SOL     OW39682   4.922   0.499   3.935 -0.2537 -0.1496  0.9822
 9488SOL    HW139683   4.966   0.511   3.847  0.6578 -0.7916  1.3467
 9488SOL    HW239684   4.869   0.581   3.958 -1.1005 -0.2780 -0.4945
 9489SOL     OW39685   1.846   0.774   4.386 -0.4149  0.5159  0.4388
 9489SOL    HW139686   1.816   0.680   4.398 -0.1610  0.3510 -0.1952
 9489SOL    HW239687   1.852   0.819   4.475  0.9485 -0.5169  0.8953
 9490SOL     OW39688   8.036   0.407   5.686  0.4787  0.1181 -0.5783
 9490SOL    HW139689   7.978   0.486   5.700  1.3079  0.8619 -1.2582
 9490SOL    HW239690   8.131   0.430   5.708  0.4363 -1.2590  1.1343
 9491SOL     OW39691   0.865   8.794   3.026  0.5162 -0.7070 -0.0886
 9491SOL    HW139692   0.945   8.848   2.999 -0.4130  0.6864 -0.0867
 9491SOL    HW239693   0.848   8.723   2.957  0.6990  0.1100 -0.9884
 9492SOL     OW39694   2.392   9.711   4.823 -0.1079 -0.0483  0.3437
 9492SOL    HW139695   2.410   9.797   4.871 -2.1509  1.1485 -0.9273
 9492SOL    HW239696   2.293   9.700   4.811  0.1927 -2.0623 -0.4348
 9493SOL     OW39697   9.481   4.938   8.164  0.4511  0.2706  0.6013
 9493SOL    HW139698   9.454   4.911   8.071 -0.4018  1.3327  0.5267
 9493SOL    HW239699   9.407   4.914   8.227  1.7122 -1.9563  1.2726
 9494SOL     OW39700   8.317   1.487   8.096 -0.3131  0.1061  0.4974
 9494SOL    HW139701   8.332   1.570   8.042  1.2731 -0.3592  0.2099
 9494SOL    HW239702   8.355   1.499   8.188 -0.8269 -0.0015  0.7281
 9495SOL     OW39703   1.024   1.214   3.897  0.0453  0.1134  0.1132
 9495SOL    HW139704   0.986   1.238   3.987 -0.4240 -2.3077  0.5797
 9495SOL    HW239705   1.113   1.258   3.886 -0.4864  1.5005  1.2168
 9496SOL     OW39706   3.050   2.844   0.763 -0.5800  0.1834  0.2913
 9496SOL    HW139707   3.146   2.826   0.781 -0.5806 -0.2987 -0.1652
 9496SOL    HW239708   2.994   2.774   0.807 -0.7119  0.3395  0.3732
 9497SOL     OW39709   4.418   3.921   5.585  0.0108  0.3055  0.3828
 9497SOL    HW139710   4.330   3.874   5.593  1.7823 -2.9899  1.4437
 9497SOL    HW239711   4.444   3.928   5.489  0.2154 -1.8744  0.2698
 9498SOL     OW39712   7.179   9.926   3.407 -0.0875 -0.1242 -0.3168
 9498SOL    HW139713   7.223   9.916   3.317  0.9848  0.1660  0.1592
 9498SOL    HW239714   7.247   9.909   3.479 -0.7875  0.2484  0.4431
 9499SOL     OW39715   7.091   3.847   1.615  0.4136  0.1592  0.4596
 9499SOL    HW139716   7.021   3.792   1.570 -0.4897  0.4309  1.5168
 9499SOL    HW239717   7.180   3.828   1.573 -0.5568  1.3794 -2.3487
 9500SOL     OW39718   7.713   0.172   3.656  0.2591  0.0827 -0.4801
 9500SOL    HW139719   7.664   0.230   3.591 -0.7026  1.4177  1.3980
 9500SOL    HW239720   7.648   0.124   3.714  1.1359 -0.1573  0.3148
 9501SOL     OW39721   6.624   0.604   6.867 -0.0030 -0.1260 -0.4893
 9501SOL    HW139722   6.577   0.553   6.940  1.5680  0.2711  0.8231
 9501SOL    HW239723   6.701   0.550   6.833 -0.9348 -0.4555 -2.1297
 9502SOL     OW39724   4.198   0.129   6.832  0.0123 -0.0866  0.8897
 9502SOL    HW139725   4.178   0.216   6.877 -2.0138 -1.3066  2.4971
 9502SOL    HW239726   4.285   0.093   6.866  1.1176  1.5587 -0.1888
 9503SOL     OW39727   9.991   0.171   2.458 -0.1144 -0.3201 -0.4294
 9503SOL    HW139728  10.009   0.146   2.554 -1.3649  0.0817 -0.0808
 9503SOL    HW239729  10.071   0.217   2.421  1.1226 -2.1837 -0.1766
 9504SOL     OW39730   0.809   5.891   3.102  0.4772  0.0093 -0.3002
 9504SOL    HW139731   0.836   5.844   3.018 -0.5577 -1.3416  0.1183
 9504SOL    HW239732   0.849   5.845   3.181  0.8937  0.8753  0.0042
 9505SOL     OW39733   0.722   6.298   5.097 -0.8471 -0.0175 -0.1584
 9505SOL    HW139734   0.722   6.363   5.173 -1.4137 -2.0806  1.6744
 9505SOL    HW239735   0.804   6.241   5.102 -0.5160  0.3261 -1.5501
 9506SOL     OW39736   2.941   8.242   6.409  0.0807  0.2120  0.5171
 9506SOL    HW139737   2.986   8.219   6.324 -0.8872 -1.6297  0.4783
 9506SOL    HW239738   2.990   8.201   6.486 -1.5731 -1.9916  0.4577
 9507SOL     OW39739   8.032   3.924   5.335 -0.0781  0.0231 -0.4006
 9507SOL    HW139740   8.020   3.900   5.238 -0.0401 -1.4855 -0.0351
 9507SOL    HW239741   8.009   3.846   5.392 -1.4589  1.3474  0.8904
 9508SOL     OW39742   7.378   6.477   3.079  0.1161  0.1353 -0.2271
 9508SOL    HW139743   7.282   6.496   3.061 -0.1292 -0.8511 -0.0067
 9508SOL    HW239744   7.388   6.436   3.170  0.5810 -0.9859 -0.7696
 9509SOL     OW39745   1.237   8.761   5.366 -0.5404  0.1981  0.0197
 9509SOL    HW139746   1.165   8.791   5.304 -0.7262 -0.4126 -0.0657
 9509SOL    HW239747   1.315   8.728   5.313 -1.6565 -2.6583  0.0506
 9510SOL     OW39748   1.159   8.222   3.520  0.4614 -0.1457  0.6505
 9510SOL    HW139749   1.188   8.316   3.500  0.2001  0.1096  1.4874
 9510SOL    HW239750   1.190   8.162   3.446  1.3398  0.4671  0.5112
 9511SOL     OW39751   8.530   0.435   4.516 -0.5419  0.3395 -0.2467
 9511SOL    HW139752   8.550   0.484   4.431  0.2885 -0.5920 -0.6002
 9511SOL    HW239753   8.479   0.351   4.495  0.1852 -0.1953  0.1095
 9512SOL     OW39754   2.114   3.853   2.220 -0.5112 -0.0329 -0.1018
 9512SOL    HW139755   2.105   3.775   2.158  0.6975  0.0442 -0.3806
 9512SOL    HW239756   2.091   3.824   2.313  1.2802 -1.0894  0.0296
 9513SOL     OW39757   9.904   0.632   1.901 -0.1514  0.7444  0.4751
 9513SOL    HW139758  10.003   0.639   1.907  0.0670 -2.6240  2.1043
 9513SOL    HW239759   9.862   0.683   1.976  0.4105  0.8141  0.7451
 9514SOL     OW39760   0.856   5.497   5.794  0.6629  0.2632  0.1609
 9514SOL    HW139761   0.869   5.527   5.699 -1.4149 -0.9421 -0.5470
 9514SOL    HW239762   0.793   5.560   5.840  2.4945  1.4590  1.0998
 9515SOL     OW39763   8.145   2.979   1.493 -0.0534  0.3806  0.0769
 9515SOL    HW139764   8.165   3.057   1.553  0.2928 -1.3230  2.1989
 9515SOL    HW239765   8.117   2.900   1.547 -0.2441 -1.0673 -2.0433
 9516SOL     OW39766   2.896   1.574   6.200  0.6370 -0.4670 -0.2433
 9516SOL    HW139767   2.987   1.543   6.174  0.5680 -0.1314 -0.8996
 9516SOL    HW239768   2.828   1.508   6.167  0.6681 -0.9496  0.6390
 9517SOL     OW39769   5.579   0.362   2.619 -0.1962  0.4193  0.1725
 9517SOL    HW139770   5.564   0.454   2.653  0.7040  0.3175  0.8575
 9517SOL    HW239771   5.493   0.324   2.585 -0.3270  1.9716 -1.2652
 9518SOL     OW39772   3.192   2.198   3.097  0.7721 -0.0155  0.1290
 9518SOL    HW139773   3.189   2.164   3.192 -1.8008  0.0465  0.1027
 9518SOL    HW239774   3.181   2.121   3.034  0.6309  0.1819 -0.0859
 9519SOL     OW39775   1.109   4.706   3.720  0.3917 -0.2275 -0.2850
 9519SOL    HW139776   1.107   4.654   3.805 -1.6605 -1.8209 -1.2542
 9519SOL    HW239777   1.052   4.788   3.730  1.5054  0.4742  0.3963
 9520SOL     OW39778   2.210   9.677   4.495 -0.2696  0.1228 -0.1189
 9520SOL    HW139779   2.182   9.675   4.591 -0.8146  0.4143 -0.2705
 9520SOL    HW239780   2.129   9.674   4.437  0.0699 -0.2722 -0.5745
 9521SOL     OW39781   6.120   4.308   0.701 -0.1986  0.6518 -0.0844
 9521SOL    HW139782   6.098   4.256   0.619  0.2417  0.2817  0.0347
 9521SOL    HW239783   6.118   4.406   0.679 -0.5234  0.5695 -0.4260
 9522SOL     OW39784   4.402   9.448   0.771 -0.1930  0.4031  0.1880
 9522SOL    HW139785   4.314   9.472   0.730  0.2834  3.0357  0.5634
 9522SOL    HW239786   4.394   9.363   0.822 -1.9366 -0.5497 -1.6297
 9523SOL     OW39787   9.007   1.467   1.640 -0.1375  0.2030 -0.0996
 9523SOL    HW139788   9.096   1.467   1.596 -0.4931  0.7316 -0.8253
 9523SOL    HW239789   9.018   1.492   1.737  0.7518 -1.9014  0.3663
 9524SOL     OW39790   0.330   0.366   5.024  0.0732 -0.4825 -0.5525
 9524SOL    HW139791   0.353   0.416   5.107 -1.2118  0.5455 -0.8113
 9524SOL    HW239792   0.387   0.399   4.949 -0.2495  0.0644 -0.5562
 9525SOL     OW39793   1.058   3.053   2.326  0.6025  0.6450 -0.2122
 9525SOL    HW139794   1.073   3.141   2.279 -0.4590  0.6922 -0.4733
 9525SOL    HW239795   1.040   3.070   2.423  1.1873  0.6606 -0.1060
 9526SOL     OW39796   6.727   0.896   3.556 -0.2616 -0.8951  0.6681
 9526SOL    HW139797   6.809   0.953   3.548  0.0675 -1.3359  0.8614
 9526SOL    HW239798   6.696   0.896   3.651 -3.1841  2.9888 -0.1727
 9527SOL     OW39799   2.588   0.076   1.206  0.0650 -0.3594 -0.4124
 9527SOL    HW139800   2.492   0.077   1.234  0.1723  0.9323 -0.0951
 9527SOL    HW239801   2.633   0.159   1.237  1.7000 -1.6758  0.8160
 9528SOL     OW39802   2.636   9.103   3.494 -0.4381 -0.1462 -0.6669
 9528SOL    HW139803   2.598   9.078   3.583 -0.1534  0.1090 -0.4744
 9528SOL    HW239804   2.707   9.037   3.468  1.5672  1.4099  0.6512
 9529SOL     OW39805   0.372   9.767   6.145  0.6943 -0.0196 -0.4971
 9529SOL    HW139806   0.390   9.853   6.098 -0.9505  1.0445  0.7664
 9529SOL    HW239807   0.387   9.779   6.244 -0.2819 -0.9697 -0.2287
 9530SOL     OW39808   9.658   2.322   4.777  0.5245  0.4383 -0.1001
 9530SOL    HW139809   9.582   2.354   4.835 -0.7335  1.2522 -2.1338
 9530SOL    HW239810   9.687   2.397   4.717  1.9375 -0.3304 -0.3847
 9531SOL     OW39811   2.727   2.307   3.262 -0.5260 -0.2012  0.1478
 9531SOL    HW139812   2.733   2.343   3.355 -0.9432 -0.6674  0.3584
 9531SOL    HW239813   2.818   2.295   3.224 -0.3556 -0.0709  0.5213
 9532SOL     OW39814   2.406   9.435   6.114 -0.0631 -0.4739 -0.6346
 9532SOL    HW139815   2.487   9.376   6.112 -1.9391 -3.1628 -0.4845
 9532SOL    HW239816   2.370   9.446   6.021  0.6601  0.9775 -0.7410
 9533SOL     OW39817   3.248   0.529   0.717  0.0943 -0.6355  0.3390
 9533SOL    HW139818   3.242   0.430   0.728  0.2016 -0.6727  0.0772
 9533SOL    HW239819   3.179   0.560   0.653 -0.7427 -0.3769  1.3501
 9534SOL     OW39820   5.337   0.814   6.842  0.1865 -0.8048  0.6811
 9534SOL    HW139821   5.321   0.716   6.859  0.3820 -1.0936 -0.6957
 9534SOL    HW239822   5.431   0.827   6.810 -0.3564 -0.4093 -0.8086
 9535SOL     OW39823   9.384   2.348   6.132 -0.6448  0.1327 -0.0197
 9535SOL    HW139824   9.418   2.285   6.063  0.8722 -1.9398  2.5162
 9535SOL    HW239825   9.440   2.431   6.131 -0.6916  0.1525 -1.3353
 9536SOL     OW39826   8.100   8.261   6.519 -0.2556 -0.1352 -0.2747
 9536SOL    HW139827   8.026   8.255   6.586 -0.1007 -0.8546 -0.1654
 9536SOL    HW239828   8.108   8.175   6.470 -2.6273  1.4565 -3.6451
 9537SOL     OW39829   7.923   7.252   5.703  1.0272  0.5994 -0.3387
 9537SOL    HW139830   7.889   7.162   5.729 -1.8951  0.7494 -3.3342
 9537SOL    HW239831   7.930   7.310   5.784 -1.6866 -0.8288  0.9933
 9538SOL     OW39832   7.083   3.643   2.800  0.2913  0.2795 -0.0167
 9538SOL    HW139833   7.095   3.577   2.875 -2.7697 -1.0630 -0.6278
 9538SOL    HW239834   7.072   3.734   2.838 -0.5201 -0.2886  1.1364
 9539SOL     OW39835   4.248   6.269   1.490 -0.0656 -0.3276 -0.0321
 9539SOL    HW139836   4.252   6.366   1.514 -1.8421 -0.0622 -0.7051
 9539SOL    HW239837   4.199   6.219   1.561  0.5538 -0.6765  0.1509
 9540SOL     OW39838   3.765   5.193   3.342 -0.4086  0.0764 -0.1994
 9540SOL    HW139839   3.780   5.289   3.367 -0.8455  0.8996 -2.9445
 9540SOL    HW239840   3.732   5.142   3.421  1.8811  1.7047  1.8741
 9541SOL     OW39841   3.049   2.515   3.089  0.3126  0.0614  0.1414
 9541SOL    HW139842   2.954   2.533   3.065  0.1729  0.6680  1.0735
 9541SOL    HW239843   3.058   2.424   3.129 -0.0156  0.2863  0.7363
 9542SOL     OW39844   8.246   9.216   3.844 -0.7247 -0.0290  0.3315
 9542SOL    HW139845   8.317   9.209   3.915 -0.3560  1.2889  0.1081
 9542SOL    HW239846   8.287   9.202   3.754 -0.8277  0.3229  0.2309
 9543SOL     OW39847   9.977   6.628   1.891 -0.7203  0.0089  0.3905
 9543SOL    HW139848  10.002   6.649   1.797 -0.5870  1.3945  0.7346
 9543SOL    HW239849   9.969   6.528   1.902 -0.7634 -0.1559 -1.0796
 9544SOL     OW39850   6.400   0.932   6.457 -0.4529  0.2831  0.4244
 9544SOL    HW139851   6.320   0.935   6.396 -0.8049  0.1740  0.8766
 9544SOL    HW239852   6.380   0.982   6.541  0.4525  1.4195 -0.0316
 9545SOL     OW39853   1.623   2.578   1.166  0.1424  0.1139  0.5740
 9545SOL    HW139854   1.658   2.556   1.257 -0.4314 -0.4918  0.6498
 9545SOL    HW239855   1.700   2.600   1.106  0.4286  1.9190  1.5586
 9546SOL     OW39856   0.798   6.995   4.678 -0.1678 -0.6536  0.4340
 9546SOL    HW139857   0.894   6.965   4.680  0.3855  1.0558  0.1916
 9546SOL    HW239858   0.745   6.932   4.622  0.9603 -1.2331 -0.0050
 9547SOL     OW39859   4.527   8.959   5.664 -0.2847  0.2403 -0.7094
 9547SOL    HW139860   4.599   9.017   5.700 -0.4341  1.9873 -3.0554
 9547SOL    HW239861   4.566   8.872   5.633  0.0691 -0.6314  2.1072
 9548SOL     OW39862   9.251   0.364   0.747 -0.2058 -0.3628  0.0438
 9548SOL    HW139863   9.307   0.380   0.828 -0.5323  0.3392  0.1376
 9548SOL    HW239864   9.310   0.333   0.672  0.2125 -0.2940  0.3380
 9549SOL     OW39865   6.578   1.366   5.335 -0.1137 -0.6183  0.2488
 9549SOL    HW139866   6.577   1.385   5.433 -1.4148 -0.0442  0.1331
 9549SOL    HW239867   6.631   1.283   5.317  1.6024  0.2365  1.2497
 9550SOL     OW39868   2.371   1.288   3.485  0.6250 -0.0354  0.2987
 9550SOL    HW139869   2.436   1.347   3.533  1.4331 -1.2615  0.7364
 9550SOL    HW239870   2.395   1.286   3.387  0.8979 -0.0476  0.3654
 9551SOL     OW39871   9.187   6.193   1.309 -0.2021 -0.6202  0.0245
 9551SOL    HW139872   9.160   6.223   1.400 -0.1402 -1.6960  0.4072
 9551SOL    HW239873   9.136   6.110   1.284 -0.4805 -0.1370 -1.0687
 9552SOL     OW39874   2.224   0.967   3.502 -0.6102 -0.4868  0.5189
 9552SOL    HW139875   2.216   0.995   3.597  0.6018  0.3452  0.3888
 9552SOL    HW239876   2.317   0.933   3.485 -0.8414 -0.7063 -0.3438
 9553SOL     OW39877   3.905   3.429   1.384 -0.1018  0.3745  0.3235
 9553SOL    HW139878   3.827   3.451   1.326  1.1463  0.0033 -1.5201
 9553SOL    HW239879   3.979   3.390   1.329  1.1564  0.0962  2.1351
 9554SOL     OW39880   4.684   2.905   2.145  0.0511  0.1797 -0.0033
 9554SOL    HW139881   4.624   2.940   2.217  0.3026 -1.5735  1.0815
 9554SOL    HW239882   4.708   2.810   2.165  1.9052  0.3604 -1.2585
 9555SOL     OW39883   4.169   6.797   1.157 -0.7734  0.0934 -0.0240
 9555SOL    HW139884   4.178   6.854   1.076  1.3509 -1.1310 -0.6786
 9555SOL    HW239885   4.190   6.702   1.134 -1.5187 -0.5056  1.6557
 9556SOL     OW39886   7.164   6.428   6.399 -0.6690 -0.2185 -0.0783
 9556SOL    HW139887   7.241   6.491   6.390  1.6093 -2.6025  1.8489
 9556SOL    HW239888   7.112   6.425   6.314  0.4779  2.5597 -0.9041
 9557SOL     OW39889   4.804   4.427   4.297 -0.4574  0.7622  0.6175
 9557SOL    HW139890   4.781   4.524   4.297 -1.0239  0.6403 -0.5560
 9557SOL    HW239891   4.720   4.373   4.305 -0.3997  0.3450 -1.2574
 9558SOL     OW39892   6.903   2.439   4.826  0.5789  0.0060 -0.0002
 9558SOL    HW139893   6.831   2.385   4.782  1.5289 -0.6249 -0.8170
 9558SOL    HW239894   6.874   2.465   4.918 -0.8254  0.0530 -0.4440
 9559SOL     OW39895   8.837   1.002   2.935  0.2301  0.2720 -0.0276
 9559SOL    HW139896   8.753   0.949   2.922  1.9808 -2.1620 -1.9268
 9559SOL    HW239897   8.853   1.060   2.854  1.7133 -1.2742 -0.8827
 9560SOL     OW39898   6.547   4.586   0.119  0.1708  0.2366 -0.2147
 9560SOL    HW139899   6.632   4.550   0.159  0.0231  0.5539  0.3829
 9560SOL    HW239900   6.511   4.659   0.177 -0.0561  0.6854 -0.9209
 9561SOL     OW39901   9.162   6.061   4.228 -0.3529 -0.5231 -0.3737
 9561SOL    HW139902   9.244   6.053   4.285 -0.9762 -0.4137  0.5698
 9561SOL    HW239903   9.181   6.118   4.149  0.2488  0.2448  0.3153
 9562SOL     OW39904   9.415   3.679   0.419  0.0329 -0.6969  0.0828
 9562SOL    HW139905   9.456   3.651   0.332 -0.8598 -2.0880  0.0848
 9562SOL    HW239906   9.358   3.604   0.454 -0.3196  0.1840  1.4250
 9563SOL     OW39907   9.476   0.072   6.596  0.8404 -0.1762 -0.5800
 9563SOL    HW139908   9.479   0.172   6.590 -0.7208 -0.0133  0.9218
 9563SOL    HW239909   9.382   0.042   6.583  1.3156 -1.4682 -1.0652
 9564SOL     OW39910   9.548   5.586   4.382  0.7844  0.6752  0.3722
 9564SOL    HW139911   9.476   5.523   4.413  0.5858  1.0313  0.6430
 9564SOL    HW239912   9.637   5.545   4.397  0.6251  0.0891 -0.2800
 9565SOL     OW39913   5.407   7.690   5.075 -0.2750  0.2456  0.7146
 9565SOL    HW139914   5.472   7.619   5.048 -1.3750  0.0880 -1.6340
 9565SOL    HW239915   5.334   7.649   5.129 -0.1278 -0.1495  0.6132
 9566SOL     OW39916   9.689   6.458   3.145  0.3856  0.1705 -0.6773
 9566SOL    HW139917   9.717   6.489   3.054  1.6952  0.1598 -0.2815
 9566SOL    HW239918   9.729   6.517   3.214  2.0328 -1.7001  0.0407
 9567SOL     OW39919   2.386   7.388   2.625 -0.3620  0.4370 -0.1365
 9567SOL    HW139920   2.438   7.364   2.707 -0.3704  2.8288  0.6075
 9567SOL    HW239921   2.336   7.307   2.592  0.0429 -0.6739  1.9058
 9568SOL     OW39922   9.201   9.751   1.704 -0.3367 -0.0925  0.2331
 9568SOL    HW139923   9.272   9.786   1.643 -1.6395 -0.5715 -1.5866
 9568SOL    HW239924   9.243   9.722   1.790  1.4000  1.4686 -0.0475
 9569SOL     OW39925   0.781   5.990   0.558  0.0324 -0.3418  0.5177
 9569SOL    HW139926   0.793   6.081   0.519  1.0691  0.0989  1.8143
 9569SOL    HW239927   0.817   5.921   0.495  0.5451  0.2653  0.1461
 9570SOL     OW39928   9.477   9.176   5.438  0.6183  0.4175  0.0211
 9570SOL    HW139929   9.529   9.112   5.381  0.7803  0.9729 -0.4554
 9570SOL    HW239930   9.539   9.227   5.497  0.3823 -0.6776  1.2253
 9571SOL     OW39931   8.848   6.590   5.065  0.1734  0.3921  0.2158
 9571SOL    HW139932   8.786   6.649   5.014 -0.7229 -2.4139 -2.0798
 9571SOL    HW239933   8.942   6.608   5.035 -0.0652  0.8089 -0.3071
 9572SOL     OW39934   2.481   6.989   5.737 -0.8731  0.0981  0.1038
 9572SOL    HW139935   2.394   6.991   5.690 -0.6173 -1.8868 -0.4939
 9572SOL    HW239936   2.498   7.078   5.780 -2.0637  1.2529 -1.7667
 9573SOL     OW39937   8.840   1.077   4.725 -0.2147 -0.1506 -0.3382
 9573SOL    HW139938   8.789   0.990   4.728 -0.4204 -0.0097  0.5801
 9573SOL    HW239939   8.937   1.058   4.712 -0.2638 -0.5253 -0.1827
 9574SOL     OW39940   0.295   8.651   3.459 -0.4377 -1.1431 -0.4714
 9574SOL    HW139941   0.272   8.696   3.545 -2.2392 -1.2654 -0.8703
 9574SOL    HW239942   0.395   8.648   3.448 -0.2387  0.4316  0.7724
 9575SOL     OW39943   0.050   6.164   2.084 -0.0325  0.1132 -1.1202
 9575SOL    HW139944   0.102   6.189   2.166 -1.7742  0.5592 -0.1329
 9575SOL    HW239945   0.093   6.085   2.040  0.0065 -1.1296  1.0979
 9576SOL     OW39946   2.338   9.491   2.554 -0.6788  0.0138 -0.7725
 9576SOL    HW139947   2.319   9.589   2.560 -2.1468 -0.4008  2.3752
 9576SOL    HW239948   2.256   9.443   2.522 -0.3767 -0.3119 -1.0592
 9577SOL     OW39949   2.243   6.759   0.858  0.2681 -0.0477  0.1209
 9577SOL    HW139950   2.262   6.809   0.773 -1.6144  0.5781  0.0388
 9577SOL    HW239951   2.266   6.662   0.845  0.1858  0.0764 -1.0447
 9578SOL     OW39952   7.168   0.483   4.465  0.3271  0.1517 -0.1851
 9578SOL    HW139953   7.139   0.463   4.559  0.6420 -2.7730 -0.6525
 9578SOL    HW239954   7.267   0.470   4.458  0.3499  0.6910 -0.8384
 9579SOL     OW39955   8.189   3.501   1.908 -0.2370  0.3355  0.1488
 9579SOL    HW139956   8.232   3.457   1.829  1.9369 -1.2894  2.1791
 9579SOL    HW239957   8.181   3.435   1.983  0.2506  2.5525  2.2085
 9580SOL     OW39958   1.492   0.656   0.354  0.6526 -0.3018  0.2018
 9580SOL    HW139959   1.439   0.704   0.424  0.0787 -2.1261  1.0500
 9580SOL    HW239960   1.549   0.587   0.398  2.8321  0.7980 -0.8259
 9581SOL     OW39961   2.511   7.901   4.400  0.2597 -0.1036 -0.5361
 9581SOL    HW139962   2.556   7.841   4.465 -0.6756 -0.2545 -0.0138
 9581SOL    HW239963   2.498   7.853   4.313  0.8021 -0.1655 -0.5862
 9582SOL     OW39964   2.124   2.480   4.747  0.2278 -0.1079  0.2272
 9582SOL    HW139965   2.165   2.390   4.763 -3.3539 -1.5594  1.6942
 9582SOL    HW239966   2.074   2.479   4.661  1.5949  1.0615 -0.6090
 9583SOL     OW39967   6.961   0.866   7.909 -0.6263  0.1086  0.1429
 9583SOL    HW139968   7.006   0.869   7.820 -1.3371  0.6424 -0.1979
 9583SOL    HW239969   7.029   0.881   7.981 -0.0729 -0.2023 -0.3067
 9584SOL     OW39970   8.301   1.032   6.333 -0.0911  0.4082 -0.3040
 9584SOL    HW139971   8.275   1.110   6.275 -0.6691 -0.9277 -1.9049
 9584SOL    HW239972   8.397   1.010   6.319 -0.7925 -1.4236 -2.6851
 9585SOL     OW39973   6.392   3.415   8.021  0.4135 -0.5003  0.0013
 9585SOL    HW139974   6.475   3.360   8.015  0.9519  0.3216 -0.1380
 9585SOL    HW239975   6.331   3.391   7.945  1.2418  0.0568 -0.8607
 9586SOL     OW39976   0.803   9.671   5.833 -0.5105  0.5355 -0.1401
 9586SOL    HW139977   0.704   9.661   5.844 -0.0481 -3.0515  1.7276
 9586SOL    HW239978   0.838   9.735   5.901 -1.7180  3.2853 -2.0182
 9587SOL     OW39979   1.758   4.900   1.176 -0.1878  0.1036 -0.4826
 9587SOL    HW139980   1.822   4.945   1.238  0.2378 -1.4181  0.2163
 9587SOL    HW239981   1.712   4.968   1.120  0.4266  1.3953  0.5557
 9588SOL     OW39982   7.637   8.027   2.341  0.1292 -0.0639 -0.0501
 9588SOL    HW139983   7.654   7.967   2.263 -0.4534  0.3110 -0.4691
 9588SOL    HW239984   7.622   7.972   2.423  0.9092 -0.4555 -0.1638
 9589SOL     OW39985   0.080   3.769   2.226  0.4393 -0.0649 -1.2620
 9589SOL    HW139986   0.069   3.820   2.311 -0.0121 -1.2915 -0.5678
 9589SOL    HW239987  -0.009   3.757   2.182  0.5289 -0.3405 -1.3714
 9590SOL     OW39988   1.728   7.847   0.396 -0.2249  0.4672 -0.4986
 9590SOL    HW139989   1.680   7.837   0.483  1.1343 -2.4356 -0.0229
 9590SOL    HW239990   1.662   7.858   0.322 -1.5158 -0.7862  0.4414
 9591SOL     OW39991   9.086   1.099   3.742  0.1752  0.5236  0.1657
 9591SOL    HW139992   9.149   1.166   3.703  1.6908 -1.8878 -1.7284
 9591SOL    HW239993   9.133   1.047   3.814 -0.3433  0.1548  0.2407
 9592SOL     OW39994   3.642   5.660   1.656 -0.2158  0.0217 -0.0350
 9592SOL    HW139995   3.593   5.656   1.743 -1.1789 -1.3920 -0.6104
 9592SOL    HW239996   3.732   5.619   1.666  0.3143  1.3230  0.6769
 9593SOL     OW39997   0.958   4.913   3.837  0.3844  0.1509  0.0357
 9593SOL    HW139998   1.028   4.973   3.877  0.7759 -0.6569  0.5687
 9593SOL    HW239999   0.883   4.902   3.902 -0.5760  1.5820 -0.8130
 9594SOL     OW40000   4.767   8.551   3.224  0.1821 -0.6031 -0.9641
 9594SOL    HW140001   4.696   8.495   3.182 -0.1637 -0.5810 -0.4202
 9594SOL    HW240002   4.726   8.632   3.265  0.2256 -1.6070  1.1648
 9595SOL     OW40003   8.887   0.235   4.483  0.3277 -0.3922  0.0027
 9595SOL    HW140004   8.948   0.268   4.411  0.4723  0.1790  0.3834
 9595SOL    HW240005   8.820   0.306   4.506 -0.9546 -1.2807 -0.9246
 9596SOL     OW40006   3.996   8.640   4.526  0.1744  0.0209 -0.2227
 9596SOL    HW140007   4.087   8.680   4.533 -0.0415  1.0896 -3.0062
 9596SOL    HW240008   3.927   8.712   4.535 -0.3209 -0.3951 -0.6560
 9597SOL     OW40009   0.222   8.202   3.217 -0.3140 -0.1383 -0.2172
 9597SOL    HW140010   0.259   8.289   3.186 -0.2895  0.6573  1.9705
 9597SOL    HW240011   0.124   8.212   3.235  0.0107 -0.1169  1.5839
 9598SOL     OW40012   3.002   0.403   0.537  0.1368  1.5380 -0.0460
 9598SOL    HW140013   2.977   0.441   0.448 -0.9764 -0.7032 -0.7054
 9598SOL    HW240014   2.948   0.322   0.556 -0.1661  2.3813  3.0253
 9599SOL     OW40015   1.903   4.834   0.195 -0.2688  0.1187  0.2178
 9599SOL    HW140016   1.825   4.820   0.134 -0.2804  0.2737  0.1976
 9599SOL    HW240017   1.872   4.869   0.283 -0.4204 -1.6291  0.8817
 9600SOL     OW40018   7.655   7.740   6.245 -0.7699  0.1647  0.0528
 9600SOL    HW140019   7.666   7.821   6.188 -0.2523 -0.1407 -0.2880
 9600SOL    HW240020   7.634   7.768   6.339  1.2573  0.7413  0.3502
 9601SOL     OW40021   9.828   2.330   1.609  0.7094 -0.0974 -0.6001
 9601SOL    HW140022   9.915   2.294   1.642  0.3071  0.8270  1.5516
 9601SOL    HW240023   9.783   2.262   1.552  1.9014 -1.3588 -0.0560
 9602SOL     OW40024   6.964   7.337   4.424  0.2658  0.4032  0.0820
 9602SOL    HW140025   6.917   7.328   4.336 -0.0296 -0.2104  0.3056
 9602SOL    HW240026   7.029   7.414   4.419 -0.9972  1.4741 -0.1166
 9603SOL     OW40027   9.747   8.184   2.833  0.0521  0.2680  0.4312
 9603SOL    HW140028   9.793   8.118   2.893 -1.7625 -0.8270  0.6673
 9603SOL    HW240029   9.784   8.176   2.741 -0.2898 -1.2497  0.4114
 9604SOL     OW40030   1.419   3.333   1.609  0.1297  0.4483  0.2954
 9604SOL    HW140031   1.363   3.253   1.631 -0.8487  1.5208  1.8312
 9604SOL    HW240032   1.377   3.384   1.535  0.7807 -0.4606 -0.7221
 9605SOL     OW40033   5.124   1.856   2.176 -0.1415 -0.4164  0.4013
 9605SOL    HW140034   5.184   1.799   2.233 -0.7489 -0.8363  0.6224
 9605SOL    HW240035   5.045   1.802   2.147  0.7523 -0.5839 -1.8371
 9606SOL     OW40036   4.433   9.875   1.151 -0.5853 -0.1852 -0.1249
 9606SOL    HW140037   4.509   9.810   1.148 -0.5834 -0.2015  0.2544
 9606SOL    HW240038   4.369   9.855   1.077  0.5317  0.7642 -1.3664
 9607SOL     OW40039   1.888   1.520   1.371  0.2758  0.8350 -1.2504
 9607SOL    HW140040   1.962   1.553   1.430  0.3448 -0.1867 -0.7665
 9607SOL    HW240041   1.803   1.566   1.395 -0.1673 -1.1645  1.1278
 9608SOL     OW40042   3.871   5.771   3.174 -0.0465 -0.3072  0.1115
 9608SOL    HW140043   3.940   5.703   3.198  1.8331  1.5843  0.2277
 9608SOL    HW240044   3.868   5.782   3.074 -0.4832 -0.6896  0.0811
 9609SOL     OW40045   5.935   9.474   4.506  0.3219 -0.1325 -0.0327
 9609SOL    HW140046   5.976   9.553   4.553 -1.1333 -0.6329  2.1694
 9609SOL    HW240047   6.007   9.415   4.472  1.4510  0.4410  1.2939
 9610SOL     OW40048   1.922   6.630   6.237  0.2786 -0.0934 -0.1574
 9610SOL    HW140049   2.018   6.651   6.216 -0.1841  1.6512 -0.6172
 9610SOL    HW240050   1.880   6.708   6.281 -1.6134  0.1161 -2.2224
 9611SOL     OW40051   8.033   6.062   1.384  0.2273 -0.3657 -0.0352
 9611SOL    HW140052   8.086   6.127   1.330 -0.4951  2.9214  2.9549
 9611SOL    HW240053   8.086   5.979   1.399  2.0596  0.3849 -2.1811
 9612SOL     OW40054   5.845   1.680   0.023  0.1919 -0.0111 -0.5156
 9612SOL    HW140055   5.766   1.734   0.054  1.7188  1.2496  1.2294
 9612SOL    HW240056   5.929   1.717   0.062  1.4137 -2.9391 -0.2430
 9613SOL     OW40057   8.444   1.685   3.997 -0.1513  0.2829  0.2276
 9613SOL    HW140058   8.460   1.630   4.079 -2.0127 -0.1427  0.3332
 9613SOL    HW240059   8.531   1.701   3.951  0.4026 -3.4104 -0.2222
 9614SOL     OW40060   9.457   1.026   4.825 -0.5771  0.2304  0.1450
 9614SOL    HW140061   9.522   0.981   4.886 -0.5981  0.0390  0.0265
 9614SOL    HW240062   9.364   1.005   4.853 -0.5848 -0.3865 -0.3458
 9615SOL     OW40063   5.277   1.469   5.626  0.0780 -0.2173 -0.3176
 9615SOL    HW140064   5.213   1.401   5.663  0.6650 -1.0476 -0.8056
 9615SOL    HW240065   5.369   1.430   5.622  0.3944  0.5553 -0.7637
 9616SOL     OW40066   0.788   9.395   3.281 -0.2622 -0.0172  0.7991
 9616SOL    HW140067   0.695   9.426   3.261 -0.2100  0.0152  0.6034
 9616SOL    HW240068   0.807   9.310   3.231  0.3969  0.8837 -0.5252
 9617SOL     OW40069   8.812   0.695   4.230 -0.5949 -0.3047 -0.3280
 9617SOL    HW140070   8.776   0.788   4.234 -0.8472 -0.3064 -2.2567
 9617SOL    HW240071   8.860   0.681   4.144  0.3709 -1.6364  0.4103
 9618SOL     OW40072   6.568   3.261   1.330  0.5497 -0.0882 -0.2306
 9618SOL    HW140073   6.638   3.332   1.319 -0.2155  0.8773  0.9146
 9618SOL    HW240074   6.601   3.192   1.395  1.8972 -1.6179 -2.4587
 9619SOL     OW40075   1.447   2.821   5.487 -0.1204 -0.2271 -0.2765
 9619SOL    HW140076   1.352   2.817   5.455 -0.5541  0.6623  0.8785
 9619SOL    HW240077   1.460   2.902   5.545  1.0432 -0.9858  0.5493
 9620SOL     OW40078   7.694   6.797   1.324  0.1412  0.0757  0.0202
 9620SOL    HW140079   7.751   6.814   1.243 -0.6976  0.9381 -0.3962
 9620SOL    HW240080   7.718   6.862   1.395 -0.2682  0.3848 -0.1254
 9621SOL     OW40081   7.965   4.191   5.658 -0.0734 -0.7675  0.6871
 9621SOL    HW140082   8.012   4.153   5.578  1.5245  1.7484  0.3715
 9621SOL    HW240083   7.905   4.266   5.629  0.7206  0.3409  1.8569
 9622SOL     OW40084   3.470   9.412   1.373 -0.0060 -0.1399  0.0048
 9622SOL    HW140085   3.537   9.337   1.379  0.4291  0.4113  3.1738
 9622SOL    HW240086   3.474   9.453   1.282  1.8642 -2.0358 -0.8215
 9623SOL     OW40087   4.411   7.003   1.017  0.1560 -0.2004 -0.2826
 9623SOL    HW140088   4.388   7.005   1.114  0.4449 -0.6821 -0.2021
 9623SOL    HW240089   4.330   6.977   0.964  0.2605 -0.9817 -0.0778
 9624SOL     OW40090   3.261   4.433   0.981  0.5675  0.1411 -0.5694
 9624SOL    HW140091   3.181   4.472   1.026  0.4454 -0.2802 -0.4231
 9624SOL    HW240092   3.333   4.502   0.976  1.0341 -0.1807  1.4078
 9625SOL     OW40093   0.713   9.156   0.169 -0.4468 -0.3694 -0.1039
 9625SOL    HW140094   0.802   9.114   0.150 -0.1540  0.7809 -1.3693
 9625SOL    HW240095   0.643   9.110   0.115 -0.9605 -2.4866  2.2511
 9626SOL     OW40096   2.347   4.228   2.151  0.1493  0.0946 -0.7892
 9626SOL    HW140097   2.447   4.218   2.147  0.1794 -1.0193  1.5788
 9626SOL    HW240098   2.305   4.138   2.165 -1.1814  0.5905 -1.5106
 9627SOL     OW40099   5.097   2.105   0.665  0.1605 -0.5684 -0.2097
 9627SOL    HW140100   5.194   2.114   0.645  0.2168  2.0796  0.9911
 9627SOL    HW240101   5.044   2.163   0.603 -0.5421 -1.0713 -0.0866
 9628SOL     OW40102   2.946   9.772   5.787  0.1292  0.0139  0.2562
 9628SOL    HW140103   3.003   9.760   5.706 -0.7896 -2.6543 -0.0277
 9628SOL    HW240104   3.001   9.754   5.869  0.5145  0.6277  0.1354
 9629SOL     OW40105   6.711   2.472   6.109 -0.3072  0.3056 -0.1971
 9629SOL    HW140106   6.663   2.459   6.022  0.8074  0.3089 -0.8213
 9629SOL    HW240107   6.743   2.384   6.143  0.0163  0.4069 -0.2356
 9630SOL     OW40108   3.163   8.198   5.876  0.7485 -0.2820 -0.1074
 9630SOL    HW140109   3.115   8.274   5.918  0.5690 -0.7925  0.6316
 9630SOL    HW240110   3.172   8.123   5.943  1.5702 -0.6198 -0.5837
 9631SOL     OW40111   8.840   4.900   5.512 -0.3425 -0.5820  0.0106
 9631SOL    HW140112   8.797   4.965   5.449  1.7095 -0.2747 -1.1265
 9631SOL    HW240113   8.817   4.807   5.484 -0.8522 -0.4024 -0.1690
 9632SOL     OW40114   3.515   8.479   0.815 -0.0248  0.1925  0.1025
 9632SOL    HW140115   3.589   8.528   0.862 -1.6746  1.8629  1.0291
 9632SOL    HW240116   3.462   8.543   0.759 -0.9659 -0.9147 -0.2990
 9633SOL     OW40117   4.725   9.573   3.829 -0.6611 -0.4183 -0.0795
 9633SOL    HW140118   4.709   9.671   3.813 -0.6507 -0.1664  1.3960
 9633SOL    HW240119   4.817   9.561   3.867 -0.8867 -0.9571  0.2838
 9634SOL     OW40120   2.448   9.027   4.069  0.2324 -0.2125 -0.0003
 9634SOL    HW140121   2.462   9.043   4.167 -0.0192 -1.8717  0.3238
 9634SOL    HW240122   2.366   9.075   4.039  0.5186  0.6118  0.5163
 9635SOL     OW40123   1.042   6.741   0.773  0.4340  0.1054 -0.2555
 9635SOL    HW140124   0.954   6.693   0.777  1.6187 -2.0957  0.2236
 9635SOL    HW240125   1.115   6.679   0.802  2.3640  1.3537 -2.2454
 9636SOL     OW40126   1.886   7.265   2.891 -0.1052 -0.0908 -0.7066
 9636SOL    HW140127   1.948   7.235   2.963 -1.0836 -1.6229 -0.4874
 9636SOL    HW240128   1.909   7.220   2.805  0.0755  0.5449 -0.9990
 9637SOL     OW40129   1.563   5.629   5.385 -0.2603 -0.2500 -0.1453
 9637SOL    HW140130   1.530   5.651   5.293  2.4570 -1.2281 -1.4033
 9637SOL    HW240131   1.651   5.673   5.401 -1.6793  1.7228  2.8837
 9638SOL     OW40132   2.686   8.447   4.790 -0.0459  0.6324 -0.5286
 9638SOL    HW140133   2.608   8.457   4.851  0.3309  0.3819  0.0035
 9638SOL    HW240134   2.672   8.503   4.709 -0.5343  1.0091 -0.1936
 9639SOL     OW40135   3.155   0.532   4.394  0.0864  0.1969  0.2742
 9639SOL    HW140136   3.112   0.536   4.304  0.7749  0.3070 -0.0559
 9639SOL    HW240137   3.111   0.599   4.454 -0.8598 -0.3911  0.2373
 9640SOL     OW40138   3.593   3.195   0.024  0.2419 -0.1811  0.2275
 9640SOL    HW140139   3.554   3.128   0.087  1.3026 -0.9903  0.0349
 9640SOL    HW240140   3.638   3.147  -0.052  0.2114  0.7666 -0.3953
 9641SOL     OW40141   2.018   7.959   2.421 -0.3842  0.1916  0.2194
 9641SOL    HW140142   1.933   7.907   2.428  0.1851 -1.0254 -1.6624
 9641SOL    HW240143   2.095   7.896   2.413  0.4657  1.3106 -0.4829
 9642SOL     OW40144   1.582   2.818   2.935  0.4261 -0.2788  0.1652
 9642SOL    HW140145   1.553   2.869   2.854 -0.2619  0.5313  0.9090
 9642SOL    HW240146   1.565   2.721   2.921 -0.1898 -0.0841 -0.4590
 9643SOL     OW40147   1.648   2.890   3.950 -0.6736  0.1384  0.0081
 9643SOL    HW140148   1.587   2.912   4.026  0.2999  0.3501  0.7415
 9643SOL    HW240149   1.652   2.968   3.887  0.3505  0.9010  0.9873
 9644SOL     OW40150   3.410   8.571   1.622 -0.1027 -0.2297  0.0429
 9644SOL    HW140151   3.392   8.551   1.718  0.0546 -0.8920 -0.0602
 9644SOL    HW240152   3.494   8.525   1.593  1.0806  1.8123  0.1877
 9645SOL     OW40153   3.392   5.971   2.435  0.5057 -0.2132  0.0381
 9645SOL    HW140154   3.431   5.937   2.521  0.7763  1.1279  0.4497
 9645SOL    HW240155   3.440   6.054   2.407 -1.0570  0.6060 -0.2536
 9646SOL     OW40156   3.238   0.523   1.778 -0.0304 -0.4906  0.2433
 9646SOL    HW140157   3.199   0.568   1.698 -0.7990 -1.3617  0.1286
 9646SOL    HW240158   3.322   0.571   1.805  0.0108  0.0564 -0.8278
 9647SOL     OW40159   6.987   7.296   5.445  0.3109 -0.0156 -0.2863
 9647SOL    HW140160   6.913   7.267   5.384 -0.0157 -0.1068  0.1480
 9647SOL    HW240161   6.963   7.272   5.540  0.9649 -0.1885 -0.1618
 9648SOL     OW40162   2.492   2.398   1.293 -0.2551  0.3396 -0.1796
 9648SOL    HW140163   2.543   2.322   1.334  0.1467  0.5036 -0.3743
 9648SOL    HW240164   2.538   2.484   1.313  0.8542  0.2867 -2.3116
 9649SOL     OW40165   1.059   2.153   3.859 -0.4905  0.1304  0.0034
 9649SOL    HW140166   0.981   2.215   3.873 -1.2040 -0.9558  0.8852
 9649SOL    HW240167   1.066   2.090   3.936  2.5085  1.5332  0.9490
 9650SOL     OW40168   5.050   5.249   0.326  0.4072 -0.4448 -0.3770
 9650SOL    HW140169   5.115   5.186   0.368 -0.6940 -0.6480  1.0435
 9650SOL    HW240170   5.061   5.246   0.226  3.7085  0.7999 -0.1045
 9651SOL     OW40171   9.735   8.438   0.054 -0.1829  0.4010  0.0282
 9651SOL    HW140172   9.690   8.521   0.088  0.5096  0.9719 -0.4322
 9651SOL    HW240173   9.827   8.432   0.092  0.8851  1.4494 -2.2980
 9652SOL     OW40174   9.409   6.616   0.337  0.5660 -0.1525 -0.2286
 9652SOL    HW140175   9.505   6.642   0.349  0.2690  0.2830  1.2600
 9652SOL    HW240176   9.350   6.695   0.355 -0.1247 -0.7052 -0.0337
 9653SOL     OW40177   4.664   0.119   2.133  0.2867 -0.3783  0.6456
 9653SOL    HW140178   4.732   0.060   2.091  0.9081 -1.0638  2.5628
 9653SOL    HW240179   4.633   0.187   2.066  0.6878 -1.8844 -1.1184
 9654SOL     OW40180   5.568   7.503   4.955 -0.0863 -0.8783  0.4167
 9654SOL    HW140181   5.661   7.539   4.963 -0.6160  0.4816  0.6065
 9654SOL    HW240182   5.561   7.418   5.007  0.7953 -0.4993  1.1758
 9655SOL     OW40183   9.508   9.274   3.377 -0.4155 -0.4582 -0.0859
 9655SOL    HW140184   9.543   9.368   3.375  0.4630 -0.7663  0.3312
 9655SOL    HW240185   9.541   9.225   3.297 -0.9193 -0.4000 -0.3310
 9656SOL     OW40186   2.541   3.566   2.181 -0.0706 -0.1801  0.5312
 9656SOL    HW140187   2.458   3.586   2.130  1.8380  0.8229 -2.3466
 9656SOL    HW240188   2.609   3.526   2.119  1.1404 -2.2789  3.1094
 9657SOL     OW40189   9.838   6.535   3.952 -0.7855  0.8596 -0.3337
 9657SOL    HW140190   9.884   6.455   3.913  0.8354  1.1827  0.8417
 9657SOL    HW240191   9.741   6.516   3.963 -0.1380 -1.6666  1.5971
 9658SOL     OW40192   9.825   6.379   0.327 -0.1600 -0.2556 -0.0807
 9658SOL    HW140193   9.756   6.449   0.343 -1.1115 -0.7050 -2.0638
 9658SOL    HW240194   9.817   6.308   0.397 -0.1480  0.8811  1.0780
 9659SOL     OW40195   3.256   9.119   3.606  0.2411  0.2559  0.1335
 9659SOL    HW140196   3.208   9.032   3.604  1.6426 -0.5341  0.4300
 9659SOL    HW240197   3.197   9.190   3.567 -1.1501 -0.6829  0.4788
 9660SOL     OW40198   4.490   8.823   3.627  0.3630 -0.3450 -0.2093
 9660SOL    HW140199   4.458   8.878   3.550  2.4662 -0.2111 -1.0292
 9660SOL    HW240200   4.469   8.870   3.713 -0.4499  0.3272 -0.7629
 9661SOL     OW40201   4.627   2.823   4.809 -0.8054 -0.1689 -0.1478
 9661SOL    HW140202   4.619   2.910   4.760  2.6645 -0.3391 -1.1493
 9661SOL    HW240203   4.624   2.747   4.743 -3.1653 -0.8178  0.6568
 9662SOL     OW40204   0.638   0.179   1.094 -0.0232 -0.4204  0.4438
 9662SOL    HW140205   0.607   0.089   1.062 -0.2339 -0.2215  0.0858
 9662SOL    HW240206   0.566   0.222   1.149 -1.2007  0.9122 -2.0740
 9663SOL     OW40207   2.971   8.424   4.602  0.5099 -0.0638 -0.5015
 9663SOL    HW140208   2.987   8.355   4.531 -1.0709 -1.0307  0.0627
 9663SOL    HW240209   2.958   8.379   4.690 -2.0825  0.8471 -0.3932
 9664SOL     OW40210   4.216   2.022   5.453  0.4120 -0.6139 -0.3477
 9664SOL    HW140211   4.177   2.112   5.474 -0.1033 -1.1879  1.2291
 9664SOL    HW240212   4.312   2.020   5.482  0.1185 -0.9136  0.6411
 9665SOL     OW40213   7.843   7.625   4.221 -0.6651 -0.1374  0.2953
 9665SOL    HW140214   7.851   7.665   4.312  0.9824  0.5978 -0.1468
 9665SOL    HW240215   7.807   7.532   4.228  0.5356 -0.5052  1.7933
 9666SOL     OW40216   4.683   5.363   4.014  0.2292  0.4537 -0.3084
 9666SOL    HW140217   4.658   5.285   4.072  2.0474  1.3673  1.7823
 9666SOL    HW240218   4.726   5.330   3.931 -0.6379 -0.8332 -0.2575
 9667SOL     OW40219   0.698   3.314   1.644  0.1646  1.1832  0.3302
 9667SOL    HW140220   0.762   3.319   1.720 -0.6929  4.1437  0.9029
 9667SOL    HW240221   0.732   3.368   1.567 -0.1733  0.2265 -0.5164
 9668SOL     OW40222   9.369   2.110   4.783  0.2778  0.3289 -0.0290
 9668SOL    HW140223   9.368   2.140   4.687 -1.1279 -0.5066 -0.2829
 9668SOL    HW240224   9.461   2.081   4.808  0.4782 -0.2021 -1.3691
 9669SOL     OW40225   1.974   3.910   1.350  0.0750 -0.3071 -0.0830
 9669SOL    HW140226   1.879   3.885   1.330  0.8515 -2.0107 -1.8808
 9669SOL    HW240227   2.017   3.945   1.267  1.2093 -0.2113  0.5399
 9670SOL     OW40228   9.711   7.619   5.415 -0.6196  0.1535  0.5214
 9670SOL    HW140229   9.801   7.584   5.441  0.2873  0.7784 -1.7001
 9670SOL    HW240230   9.646   7.599   5.489  0.5619 -3.3100  0.7437
 9671SOL     OW40231   2.678   4.661   4.678 -0.5587  0.4036 -0.1322
 9671SOL    HW140232   2.637   4.570   4.667 -0.2281  0.3416 -0.8581
 9671SOL    HW240233   2.629   4.727   4.621  1.1168  0.0939 -1.9676
 9672SOL     OW40234   3.623   7.342   5.728 -0.3272 -0.1735  0.1740
 9672SOL    HW140235   3.597   7.258   5.777  0.2055 -0.5926 -0.2471
 9672SOL    HW240236   3.552   7.364   5.661 -0.7076 -0.0101  0.6305
 9673SOL     OW40237   8.088   6.616   2.485  0.3114  0.3826 -0.1923
 9673SOL    HW140238   8.147   6.547   2.443  0.3022  1.1020 -1.4064
 9673SOL    HW240239   7.994   6.584   2.486  0.4669 -0.0614  0.2049
 9674SOL     OW40240   7.673   4.845   1.184  0.4676  0.3760  0.1970
 9674SOL    HW140241   7.734   4.852   1.263  1.2490 -0.3190 -0.3292
 9674SOL    HW240242   7.600   4.913   1.192  0.2998  0.0370  1.7108
 9675SOL     OW40243   7.974   4.288   6.366  0.3250  0.4653  0.1473
 9675SOL    HW140244   8.067   4.315   6.342  0.1001 -0.6671 -2.0604
 9675SOL    HW240245   7.911   4.313   6.293 -1.1345  1.1678  1.5944
 9676SOL     OW40246   2.221   3.334   2.179 -0.3754  0.4026  0.0844
 9676SOL    HW140247   2.210   3.249   2.231  1.3693  0.8007  1.1201
 9676SOL    HW240248   2.273   3.315   2.096  0.3211  0.5239  0.4924
 9677SOL     OW40249   1.581   8.682   3.112 -0.5256  0.5249 -0.2357
 9677SOL    HW140250   1.511   8.664   3.043 -0.9891  0.0065  0.3581
 9677SOL    HW240251   1.568   8.774   3.149 -2.1912 -0.2973  1.3287
 9678SOL     OW40252   7.429   1.168   2.010 -0.4947 -0.0356 -0.7714
 9678SOL    HW140253   7.453   1.214   1.925 -3.3209  1.9666 -0.5753
 9678SOL    HW240254   7.362   1.095   1.991  0.0963 -0.6676 -0.4511
 9679SOL     OW40255   6.057   3.280   0.099  0.1411 -0.6656 -0.0981
 9679SOL    HW140256   6.120   3.260   0.174  0.1361 -0.2863  0.0086
 9679SOL    HW240257   5.987   3.209   0.095  0.0034 -0.5638  0.4135
 9680SOL     OW40258   1.649   3.896   0.389 -0.0725 -0.5048 -1.2058
 9680SOL    HW140259   1.625   3.993   0.393  0.1629 -0.5043  1.0627
 9680SOL    HW240260   1.713   3.875   0.463 -1.2735 -2.6749 -0.7359
 9681SOL     OW40261   8.676   9.405   1.845 -0.2417 -0.3992  0.0066
 9681SOL    HW140262   8.650   9.420   1.940  0.1222  0.7390 -0.0664
 9681SOL    HW240263   8.772   9.380   1.839 -0.0107  0.5100 -0.1375
 9682SOL     OW40264   7.287   2.739   4.493 -0.4308  0.1630 -0.3770
 9682SOL    HW140265   7.384   2.715   4.483 -0.6875 -0.4052 -1.6147
 9682SOL    HW240266   7.238   2.663   4.535 -0.1036  0.9673  1.4857
 9683SOL     OW40267   2.247   9.878   5.741  0.2688  0.3378  0.1479
 9683SOL    HW140268   2.271   9.816   5.666  0.3105  0.5189  0.0128
 9683SOL    HW240269   2.234   9.970   5.706 -1.2895  0.1132  0.1214
 9684SOL     OW40270   1.218   1.492   3.552  0.1787  0.1741 -0.3356
 9684SOL    HW140271   1.304   1.522   3.511 -0.7927  0.4599 -2.1843
 9684SOL    HW240272   1.141   1.532   3.503 -1.0408 -0.9338  0.6270
 9685SOL     OW40273   6.987   9.551   6.253 -0.2130  0.5284  0.2590
 9685SOL    HW140274   6.947   9.459   6.248  0.9854 -0.1029  1.8598
 9685SOL    HW240275   6.940   9.611   6.188 -0.0605 -1.5562 -1.8410
 9686SOL     OW40276   2.675   2.852   1.986 -0.4784 -0.0312 -0.3371
 9686SOL    HW140277   2.663   2.948   2.011  1.1215 -0.0339  0.4809
 9686SOL    HW240278   2.636   2.836   1.895  0.7124  1.7699 -1.1780
 9687SOL     OW40279   2.170   9.742   5.486  0.1100 -0.4210 -0.4169
 9687SOL    HW140280   2.135   9.835   5.500  1.1494 -0.0047 -0.5106
 9687SOL    HW240281   2.210   9.736   5.395  0.8201 -0.7107 -0.0847
 9688SOL     OW40282   9.709   1.923   2.295  0.0550  0.2710  0.1238
 9688SOL    HW140283   9.609   1.934   2.293 -0.2291 -2.0788 -0.2596
 9688SOL    HW240284   9.744   1.932   2.202  0.1648  0.8954  0.2289
 9689SOL     OW40285   1.354   4.981   1.057  0.2212  0.4995  0.4886
 9689SOL    HW140286   1.410   5.003   1.137 -1.0154 -1.5137  1.9565
 9689SOL    HW240287   1.331   4.884   1.058 -1.6211  0.8842 -1.1595
 9690SOL     OW40288   3.831   9.862   4.999 -0.2709 -0.5852  0.2186
 9690SOL    HW140289   3.899   9.846   5.071 -2.0900 -0.7184  1.9779
 9690SOL    HW240290   3.873   9.912   4.924  1.4328  0.5830  1.8897
 9691SOL     OW40291   2.517   9.228   2.238 -0.8370  0.3165 -0.1957
 9691SOL    HW140292   2.545   9.166   2.165  0.3147  2.6550 -1.8209
 9691SOL    HW240293   2.420   9.216   2.257 -1.3348  0.1621 -2.6593
 9692SOL     OW40294   6.536   2.301   3.906 -0.1527 -0.5690  0.6046
 9692SOL    HW140295   6.495   2.241   3.837 -0.8009  0.7682 -0.1991
 9692SOL    HW240296   6.635   2.301   3.895 -0.2581 -0.2869 -0.4190
 9693SOL     OW40297   0.756   3.840   3.078 -0.2035  0.3914  0.0022
 9693SOL    HW140298   0.766   3.876   3.171 -0.8475 -0.5540  0.4456
 9693SOL    HW240299   0.846   3.817   3.042  0.0320  0.5229  0.4977
 9694SOL     OW40300   1.746   7.694   5.214 -0.5648 -0.8095 -0.3323
 9694SOL    HW140301   1.774   7.753   5.138  2.8310 -2.1668 -0.2448
 9694SOL    HW240302   1.729   7.750   5.295  0.5555  0.2388 -0.8012
 9695SOL     OW40303   6.961   1.046   6.729 -0.5294  0.9447 -0.0731
 9695SOL    HW140304   6.930   0.957   6.764  1.3626 -0.2564 -1.3443
 9695SOL    HW240305   7.058   1.058   6.749 -0.5015  2.2418 -0.9019
 9696SOL     OW40306   3.965   3.532   3.896 -0.0629 -0.2669 -0.5646
 9696SOL    HW140307   4.020   3.612   3.919  1.3846 -1.7406  1.3581
 9696SOL    HW240308   3.874   3.540   3.937  0.2916  0.1099  0.1485
 9697SOL     OW40309   8.603   5.481   1.135 -0.4988  0.2934  0.0217
 9697SOL    HW140310   8.681   5.539   1.159 -0.0216  0.5184 -2.0061
 9697SOL    HW240311   8.635   5.387   1.122 -0.9035 -0.0001  1.0439
 9698SOL     OW40312   5.756   0.743   4.303  0.0272  0.6968  0.0654
 9698SOL    HW140313   5.684   0.754   4.371 -0.8083 -0.6668 -0.5572
 9698SOL    HW240314   5.831   0.806   4.322 -1.0822  1.7300  1.0582
 9699SOL     OW40315   5.711   2.523   5.924  0.0907 -0.3126 -0.0871
 9699SOL    HW140316   5.719   2.603   5.865  0.6187  0.0152  0.4231
 9699SOL    HW240317   5.676   2.446   5.871 -0.7466  0.3472 -0.5016
 9700SOL     OW40318   9.903   1.627   3.199 -0.2305 -0.0751  0.6085
 9700SOL    HW140319   9.816   1.669   3.173 -0.5954 -0.0923  1.7834
 9700SOL    HW240320   9.889   1.567   3.277  0.5956 -1.1315 -0.0367
 9701SOL     OW40321   0.223   2.087   2.942  0.1005  0.3689 -0.3960
 9701SOL    HW140322   0.268   2.106   2.854  0.1551  0.5418 -0.3318
 9701SOL    HW240323   0.162   2.162   2.965  0.9631  0.8850  0.2740
 9702SOL     OW40324   7.567   6.851   2.225 -0.1921 -0.1917 -0.5084
 9702SOL    HW140325   7.511   6.861   2.143  1.4409 -1.1523 -1.7595
 9702SOL    HW240326   7.640   6.920   2.224 -1.1870  0.9468  1.0338
 9703SOL     OW40327   8.566   8.849   6.287  0.7138 -0.1682 -0.0986
 9703SOL    HW140328   8.553   8.782   6.215 -5.1196 -1.2998  1.7679
 9703SOL    HW240329   8.603   8.804   6.368  1.1350 -0.1747 -0.2908
 9704SOL     OW40330   1.250   0.181   1.407 -0.2905 -0.0906  0.1040
 9704SOL    HW140331   1.312   0.104   1.423 -3.1942 -2.1970  1.5784
 9704SOL    HW240332   1.283   0.234   1.329  1.4982 -3.1088 -1.3007
 9705SOL     OW40333   6.837   0.102   5.968  0.1793 -0.2322  0.0181
 9705SOL    HW140334   6.781   0.037   6.018  0.2612 -0.2644  0.0686
 9705SOL    HW240335   6.881   0.056   5.891  0.4559 -0.3004  0.2167
 9706SOL     OW40336   8.009   2.217   0.017  0.2056  0.7383  0.3788
 9706SOL    HW140337   7.963   2.218   0.106  1.4617 -1.3764  1.1046
 9706SOL    HW240338   7.947   2.252  -0.053 -1.5797  0.4169  1.7493
 9707SOL     OW40339   2.478   9.224   2.588  0.2449 -0.2630 -1.1153
 9707SOL    HW140340   2.418   9.300   2.562  1.4038  0.1306 -2.7480
 9707SOL    HW240341   2.454   9.143   2.533 -1.2022 -1.1992  0.8449
 9708SOL     OW40342   9.221   2.275   5.728 -0.0974 -0.2746 -0.7026
 9708SOL    HW140343   9.174   2.233   5.805  0.2509 -1.2635 -1.0228
 9708SOL    HW240344   9.154   2.305   5.660 -0.3919  0.4131 -0.1192
 9709SOL     OW40345   6.738   0.356   1.057  0.1800  0.1086 -0.0707
 9709SOL    HW140346   6.699   0.374   0.967  0.5611  0.0031 -0.2556
 9709SOL    HW240347   6.763   0.443   1.100 -0.6552  0.2097  0.2300
 9710SOL     OW40348   3.313   0.453   3.067  0.0682 -0.1531 -0.1303
 9710SOL    HW140349   3.351   0.545   3.067 -1.1779  0.3829 -0.5556
 9710SOL    HW240350   3.245   0.445   3.140  0.9731 -1.0823  0.6167
 9711SOL     OW40351   2.565   6.447   1.876 -0.3516 -0.1304 -0.3258
 9711SOL    HW140352   2.610   6.429   1.789  1.0530 -0.9491  0.5480
 9711SOL    HW240353   2.551   6.546   1.886 -2.4705 -0.1792 -2.4011
 9712SOL     OW40354   9.230   7.046   5.202 -0.2376 -0.4537 -0.2265
 9712SOL    HW140355   9.222   7.128   5.146 -1.0217  0.0140  0.5523
 9712SOL    HW240356   9.305   6.989   5.169  1.3006  1.3219  0.1986
 9713SOL     OW40357   3.996   1.462   1.779 -0.2429  0.3758 -0.0498
 9713SOL    HW140358   3.920   1.403   1.804 -0.6774  1.5918  1.5569
 9713SOL    HW240359   3.992   1.546   1.832  0.8468  1.5057 -1.6945
 9714SOL     OW40360   8.730   8.251   1.426 -0.2314 -0.2583 -0.1173
 9714SOL    HW140361   8.658   8.194   1.386  0.3454 -0.5837 -0.6857
 9714SOL    HW240362   8.820   8.217   1.398  0.1241  0.8788 -0.3924
 9715SOL     OW40363   2.318   3.417   4.281  0.3147  0.3322 -0.1788
 9715SOL    HW140364   2.220   3.402   4.280  0.2056  0.9079  0.9221
 9715SOL    HW240365   2.338   3.509   4.315  1.2548  0.0250  0.1293
 9716SOL     OW40366   8.881   8.330   1.145 -0.2816 -0.0307 -0.3618
 9716SOL    HW140367   8.880   8.238   1.105 -1.0385 -0.6279  1.0067
 9716SOL    HW240368   8.918   8.327   1.237  0.0456  1.1078 -0.4424
 9717SOL     OW40369   8.585   3.887   3.797  0.3981  0.1375 -0.0918
 9717SOL    HW140370   8.666   3.905   3.852  1.1028  0.8234 -1.3193
 9717SOL    HW240371   8.612   3.871   3.702 -0.7404 -1.6811 -0.1338
 9718SOL     OW40372   9.095   2.453   4.992 -0.1101 -0.0565  0.2369
 9718SOL    HW140373   9.068   2.472   5.087 -0.9043  0.2551 -0.0427
 9718SOL    HW240374   9.173   2.391   4.991 -2.2271 -2.8672  1.0881
 9719SOL     OW40375   8.595   5.215   6.010  0.4360 -0.4377  0.4683
 9719SOL    HW140376   8.578   5.126   6.052  2.2858 -0.3826  1.4063
 9719SOL    HW240377   8.693   5.224   5.989 -0.0739  0.5085 -1.6554
 9720SOL     OW40378   0.118   3.908   4.550 -0.2020 -0.1622 -0.1334
 9720SOL    HW140379   0.075   3.986   4.505 -1.6712 -1.0526 -0.3100
 9720SOL    HW240380   0.057   3.829   4.546  1.2666 -1.3381  0.0235
 9721SOL     OW40381   0.070   9.974   2.755  0.8006  0.5267  0.0132
 9721SOL    HW140382   0.028  10.064   2.746 -0.1743  0.0679 -0.0144
 9721SOL    HW240383   0.156   9.983   2.805  0.0539  1.2891  1.1843
 9722SOL     OW40384   7.558   2.722   4.473  0.5566 -0.3182 -0.0992
 9722SOL    HW140385   7.594   2.800   4.524  0.9033 -2.1689  2.6240
 9722SOL    HW240386   7.609   2.712   4.387  2.1749  0.9863  0.6813
 9723SOL     OW40387   9.674   5.000   3.420 -0.7424 -0.6479  0.2093
 9723SOL    HW140388   9.636   5.075   3.474 -2.2425 -0.7278 -0.7073
 9723SOL    HW240389   9.718   4.934   3.481 -0.4176  0.3952  1.1232
 9724SOL     OW40390   7.309   9.232   3.444  0.0029 -0.4064  0.0695
 9724SOL    HW140391   7.262   9.144   3.444 -0.4425 -0.1746 -0.0941
 9724SOL    HW240392   7.304   9.272   3.352  0.1933 -0.2084  0.1452
 9725SOL     OW40393   2.489   0.947   3.439 -0.8221  0.4004 -0.2539
 9725SOL    HW140394   2.490   1.013   3.364 -1.9483 -0.0385 -0.6690
 9725SOL    HW240395   2.582   0.934   3.473 -0.5851  2.1918 -0.1587
 9726SOL     OW40396   5.215   1.258   3.866  0.9040 -0.0750 -0.1555
 9726SOL    HW140397   5.184   1.208   3.785 -0.9997  1.9401 -0.7197
 9726SOL    HW240398   5.224   1.194   3.942 -2.9661 -1.1380 -0.4601
 9727SOL     OW40399   5.414   8.895   4.466  0.2820 -0.2151  0.0345
 9727SOL    HW140400   5.452   8.917   4.556 -0.8663 -1.9368  0.9604
 9727SOL    HW240401   5.341   8.828   4.476 -1.5596  1.4178 -1.9308
 9728SOL     OW40402   6.132   7.838   6.729  0.0675 -0.2855  0.2781
 9728SOL    HW140403   6.088   7.923   6.700  0.0275 -0.2310  0.4923
 9728SOL    HW240404   6.214   7.860   6.783  0.6643 -0.3901 -0.5716
 9729SOL     OW40405   6.878   2.961   4.913  0.4104 -0.0279  0.0934
 9729SOL    HW140406   6.860   2.893   4.842  0.0966  0.1510 -0.0008
 9729SOL    HW240407   6.968   2.944   4.953  1.4004  0.9970 -1.6312
 9730SOL     OW40408   0.503   9.695   0.778  0.0905  0.0987  0.0142
 9730SOL    HW140409   0.481   9.631   0.851  0.8531  0.2650  0.4004
 9730SOL    HW240410   0.587   9.667   0.733 -0.2170  0.1626 -0.6082
 9731SOL     OW40411   8.532   4.970   6.138 -0.4231 -0.4741  0.1514
 9731SOL    HW140412   8.483   4.960   6.224 -2.5299 -0.5787 -1.0176
 9731SOL    HW240413   8.587   4.888   6.121 -2.0826 -1.6229  0.1410
 9732SOL     OW40414   9.290   7.307   3.070  0.0274 -0.1416  0.0043
 9732SOL    HW140415   9.198   7.346   3.069  0.8261  1.8237 -2.1282
 9732SOL    HW240416   9.308   7.262   2.983  1.7861  1.2877 -0.3988
 9733SOL     OW40417   4.034   0.697   5.857  0.5971  0.5270 -0.2054
 9733SOL    HW140418   4.012   0.619   5.916 -0.3706  0.8157 -0.1774
 9733SOL    HW240419   3.951   0.730   5.813  0.3343  3.6665  2.3817
 9734SOL     OW40420   3.522   7.947   4.658  0.0215  0.5250  0.3310
 9734SOL    HW140421   3.555   7.980   4.570 -1.1537 -0.0291 -0.3312
 9734SOL    HW240422   3.428   7.979   4.672  0.0898  0.3357  1.2395
 9735SOL     OW40423   2.617   3.246   5.522 -0.7570 -0.3927  0.1690
 9735SOL    HW140424   2.713   3.220   5.508 -0.9416 -0.5250 -0.8757
 9735SOL    HW240425   2.582   3.197   5.602  0.1613 -0.0299  0.8099
 9736SOL     OW40426   8.509   1.959   1.406  0.1864 -0.3744 -0.7846
 9736SOL    HW140427   8.588   2.011   1.373 -0.1566 -0.7885 -2.2844
 9736SOL    HW240428   8.459   1.921   1.329 -2.2263  0.9407  0.0490
 9737SOL     OW40429   5.137   2.454   0.901 -0.0020 -0.6803  0.4002
 9737SOL    HW140430   5.179   2.414   0.982 -1.5043 -2.9411  0.1200
 9737SOL    HW240431   5.208   2.473   0.833  0.8619 -1.9976  0.9140
 9738SOL     OW40432   8.882   9.611   4.311 -0.1620  0.1562  0.2077
 9738SOL    HW140433   8.981   9.620   4.296 -0.0385 -1.4734 -0.1624
 9738SOL    HW240434   8.836   9.695   4.284  1.1538  1.0053  0.5814
 9739SOL     OW40435   8.753   8.123   3.697  0.5416 -0.2843 -0.5554
 9739SOL    HW140436   8.827   8.172   3.649  1.1341 -0.0180  0.6021
 9739SOL    HW240437   8.666   8.139   3.651  0.9814  0.6238 -1.0689
 9740SOL     OW40438   0.507   4.581   0.677  0.2870 -0.9483  0.1492
 9740SOL    HW140439   0.593   4.532   0.687 -1.2374 -4.0519 -1.3435
 9740SOL    HW240440   0.441   4.548   0.744 -0.8843 -1.2685 -1.1309
 9741SOL     OW40441   2.842   7.184   5.920 -0.0678  0.7274  0.0493
 9741SOL    HW140442   2.762   7.183   5.979  0.7946  0.2640  1.2467
 9741SOL    HW240443   2.858   7.277   5.887 -1.7703  0.6088 -1.1621
 9742SOL     OW40444   8.870   3.218   4.901  0.5350  0.1511  0.1223
 9742SOL    HW140445   8.960   3.201   4.940  0.7515  3.9911  1.5292
 9742SOL    HW240446   8.880   3.271   4.816 -0.2887 -1.9896 -1.3448
 9743SOL     OW40447   8.288   4.485   1.291 -0.0922  0.4434 -0.2164
 9743SOL    HW140448   8.387   4.477   1.301  0.2167  0.4461 -2.9149
 9743SOL    HW240449   8.244   4.400   1.320  0.7234  0.2493  0.4808
 9744SOL     OW40450   3.597   3.220   2.531  0.5818 -0.0181  0.0638
 9744SOL    HW140451   3.564   3.126   2.530  0.8480 -0.1204  0.5307
 9744SOL    HW240452   3.689   3.222   2.570  0.9329  0.3238 -0.7675
 9745SOL     OW40453   3.617   1.303   3.466  0.2324  0.4374  0.0761
 9745SOL    HW140454   3.526   1.272   3.493 -0.0171  0.1548 -1.0407
 9745SOL    HW240455   3.659   1.356   3.540 -0.3401 -0.4836  1.0665
 9746SOL     OW40456   2.113   6.095   4.688  0.7139  0.7058 -0.4132
 9746SOL    HW140457   2.182   6.023   4.680  0.0451 -0.2521  1.9367
 9746SOL    HW240458   2.050   6.090   4.610  1.1630 -0.7318 -0.6946
 9747SOL     OW40459   6.822   1.921   3.177 -0.0308 -0.4148 -0.3438
 9747SOL    HW140460   6.919   1.944   3.163  0.4038 -3.1665 -2.0614
 9747SOL    HW240461   6.771   1.939   3.093 -1.6407  3.7097  1.3777
 9748SOL     OW40462   3.173   7.744   0.955 -0.2098  0.2915  0.1511
 9748SOL    HW140463   3.205   7.821   0.900  1.8437 -1.2418 -0.8562
 9748SOL    HW240464   3.167   7.662   0.898 -4.1287  0.0307  0.7757
 9749SOL     OW40465   2.962   3.239   0.298 -0.0747  0.7575 -0.8196
 9749SOL    HW140466   2.952   3.305   0.224 -1.3158 -0.7630 -2.0525
 9749SOL    HW240467   3.013   3.280   0.374 -0.9414  3.1415 -1.4985
 9750SOL     OW40468   8.962   9.808   2.782 -0.3984 -0.9322  0.3619
 9750SOL    HW140469   8.887   9.871   2.800 -1.0070 -1.2774 -0.9544
 9750SOL    HW240470   8.987   9.761   2.867 -0.7397  0.1844  1.0935
 9751SOL     OW40471   7.549   6.013   5.898 -0.2583  0.1659  0.0832
 9751SOL    HW140472   7.509   6.092   5.945 -2.1221 -0.3911 -0.5303
 9751SOL    HW240473   7.571   6.038   5.804 -0.1080  0.1792  0.1219
 9752SOL     OW40474   2.417   5.827   5.750  0.2984  0.0354 -0.6402
 9752SOL    HW140475   2.509   5.794   5.771  0.6484 -0.4062 -2.6982
 9752SOL    HW240476   2.371   5.854   5.834  1.8458 -0.9488  0.5531
 9753SOL     OW40477   1.225   2.857   2.281 -0.0273  0.8397  0.3670
 9753SOL    HW140478   1.173   2.941   2.300 -2.3644 -0.2955 -0.8464
 9753SOL    HW240479   1.192   2.783   2.339  0.6327  0.2422 -0.0117
 9754SOL     OW40480   9.754   9.177   3.619 -0.9009  0.0104  0.6611
 9754SOL    HW140481   9.766   9.088   3.575 -1.3815 -0.1717  0.8995
 9754SOL    HW240482   9.680   9.227   3.574 -0.9245  0.1096  0.8087
 9755SOL     OW40483   7.234   1.363   0.211  0.3153 -0.6479  0.3210
 9755SOL    HW140484   7.297   1.304   0.261  1.7041  1.1280  0.6847
 9755SOL    HW240485   7.258   1.362   0.114  0.3999 -0.5832  0.3417
 9756SOL     OW40486   3.123   0.878   3.020 -0.0385 -0.4837 -0.1143
 9756SOL    HW140487   3.184   0.878   2.941  1.8067  3.1027  1.2138
 9756SOL    HW240488   3.165   0.824   3.094 -0.1176 -0.8893 -0.3619
 9757SOL     OW40489   3.643   1.811   1.169 -0.0523 -0.1675  0.0422
 9757SOL    HW140490   3.583   1.796   1.247  0.4239  0.3328  0.5099
 9757SOL    HW240491   3.625   1.900   1.129  0.3669 -0.0196  0.1763
 9758SOL     OW40492   2.522   1.099   2.401 -0.2511 -0.3323 -0.3242
 9758SOL    HW140493   2.583   1.118   2.478 -1.2505 -1.7505  0.8502
 9758SOL    HW240494   2.443   1.159   2.406  0.2124  0.3229 -0.8646
 9759SOL     OW40495   1.223   6.088   5.855 -0.0671  0.5406 -0.0799
 9759SOL    HW140496   1.295   6.157   5.862 -0.5284  0.9501  0.6593
 9759SOL    HW240497   1.237   6.033   5.773  0.5738  1.2028 -0.4113
 9760SOL     OW40498   9.842   8.873   1.550  0.2780  0.2923  0.2074
 9760SOL    HW140499   9.803   8.838   1.636  2.5009 -2.4824  0.1529
 9760SOL    HW240500   9.823   8.809   1.476  1.4378  0.9183 -0.6516
 9761SOL     OW40501   6.406   8.679   5.977 -0.4758 -0.8312 -0.3270
 9761SOL    HW140502   6.450   8.597   5.938  0.7095 -0.3229 -0.0762
 9761SOL    HW240503   6.329   8.651   6.034  0.3863 -1.8285  0.3687
 9762SOL     OW40504   1.534   6.966   1.320 -0.5687 -0.0605 -0.7453
 9762SOL    HW140505   1.499   6.889   1.372 -3.1282  0.4732 -1.6123
 9762SOL    HW240506   1.492   6.968   1.229  0.4515  1.5845 -1.2202
 9763SOL     OW40507   7.861   9.234   3.136  0.8416 -0.2858  0.3419
 9763SOL    HW140508   7.902   9.217   3.046 -0.8016  0.8217 -0.6623
 9763SOL    HW240509   7.928   9.216   3.208  2.1234 -1.3960 -1.0897
 9764SOL     OW40510   6.518   1.935   4.411  0.3006 -0.3068 -0.0358
 9764SOL    HW140511   6.467   2.013   4.375 -2.0507 -1.8177 -0.1126
 9764SOL    HW240512   6.532   1.867   4.338  2.1175 -0.0816  0.0801
 9765SOL     OW40513   5.153   0.459   6.684 -0.3984 -0.2791 -0.2323
 9765SOL    HW140514   5.132   0.552   6.652  0.3430 -0.4915 -1.3827
 9765SOL    HW240515   5.071   0.418   6.724 -0.6817  0.9456  0.4971
 9766SOL     OW40516   2.502   3.697   5.820 -0.1698 -0.1693  0.7633
 9766SOL    HW140517   2.593   3.726   5.851 -0.0554 -0.7421  0.9835
 9766SOL    HW240518   2.496   3.704   5.721 -0.1754  0.6738  0.8150
 9767SOL     OW40519   9.141   5.908   3.090 -0.8542  0.3931 -0.0308
 9767SOL    HW140520   9.047   5.903   3.124 -0.7310 -0.5754  0.1879
 9767SOL    HW240521   9.158   5.833   3.026 -0.4199  0.9295 -0.5530
 9768SOL     OW40522   1.651   3.935   5.167  0.0100  0.7537 -0.4234
 9768SOL    HW140523   1.689   3.843   5.159  1.7511  1.3876  0.2279
 9768SOL    HW240524   1.697   3.984   5.241 -0.3965  2.3806 -1.2160
 9769SOL     OW40525   1.353   2.090   5.413 -0.4982  0.0953 -0.1263
 9769SOL    HW140526   1.343   2.148   5.494 -2.6178  0.2179 -0.4500
 9769SOL    HW240527   1.284   2.017   5.416 -0.4494 -0.0168 -1.7098
 9770SOL     OW40528   8.950   4.368   5.705 -0.3736 -0.4186 -0.5019
 9770SOL    HW140529   9.029   4.391   5.762 -0.6510 -0.0005 -0.2860
 9770SOL    HW240530   8.943   4.434   5.631 -0.7642 -0.2103 -0.2801
 9771SOL     OW40531   5.641   9.082   5.801  0.2490 -0.1046 -0.0773
 9771SOL    HW140532   5.578   9.150   5.839 -1.0340 -1.0027 -0.5269
 9771SOL    HW240533   5.692   9.038   5.874 -0.7137 -0.3753  0.4458
 9772SOL     OW40534   2.122   9.653   4.776  0.4566  0.0870  0.2079
 9772SOL    HW140535   2.081   9.659   4.867 -0.9881  0.7789 -0.4745
 9772SOL    HW240536   2.092   9.568   4.732  0.7670 -0.0144  0.1905
 9773SOL     OW40537   9.943   2.908   1.619  0.2591  0.0437 -0.4295
 9773SOL    HW140538   9.952   3.000   1.580  0.8810  0.7463  1.2996
 9773SOL    HW240539  10.003   2.845   1.570 -0.7964  0.3671 -2.1799
 9774SOL     OW40540   3.594   2.086   1.783 -0.3130  0.0223  0.3239
 9774SOL    HW140541   3.569   2.092   1.686 -1.1479  0.6416  0.5708
 9774SOL    HW240542   3.661   2.013   1.796  1.3654  1.2524 -1.0451
 9775SOL     OW40543   9.962   8.404   4.602 -0.5228  0.5195 -0.0243
 9775SOL    HW140544  10.038   8.397   4.538  0.4437 -1.1439  1.2656
 9775SOL    HW240545   9.994   8.445   4.688 -1.7323  2.4315 -0.4364
 9776SOL     OW40546   3.278   3.732   1.599 -0.2816 -0.3416 -0.0879
 9776SOL    HW140547   3.232   3.701   1.516 -0.2753 -0.3224 -0.0988
 9776SOL    HW240548   3.329   3.816   1.579 -1.6212  0.5842  0.3236
 9777SOL     OW40549   2.436   9.235   0.764  0.0921 -0.4928  0.7732
 9777SOL    HW140550   2.508   9.211   0.829  0.0164 -0.0022  1.0350
 9777SOL    HW240551   2.450   9.328   0.730 -1.0767  0.0347  1.7096
 9778SOL     OW40552   6.666   2.242   2.216 -0.2951 -0.1245 -0.6137
 9778SOL    HW140553   6.599   2.188   2.268  2.2401  0.5843  3.6330
 9778SOL    HW240554   6.671   2.334   2.255  2.4892  0.0963 -1.4050
 9779SOL     OW40555   3.351   8.653   0.705 -0.2510  0.6696 -0.3852
 9779SOL    HW140556   3.289   8.665   0.627 -1.0439  0.8930  0.2698
 9779SOL    HW240557   3.329   8.721   0.775 -0.0474 -0.0215  0.3542
 9780SOL     OW40558   6.573   9.239   2.407  0.0945  0.6615  0.9318
 9780SOL    HW140559   6.533   9.304   2.343  0.1645 -0.1320  0.0755
 9780SOL    HW240560   6.665   9.215   2.377 -0.1446 -0.2766  0.9199
 9781SOL     OW40561   0.173   0.810   2.222  0.0089 -0.0315 -0.5636
 9781SOL    HW140562   0.099   0.857   2.270  0.1303 -1.2272  0.8458
 9781SOL    HW240563   0.133   0.743   2.159 -0.1362  0.5095 -1.0451
 9782SOL     OW40564   0.411   2.626   5.836  0.5126 -0.0198 -0.1111
 9782SOL    HW140565   0.355   2.596   5.758 -0.2150  0.5911  0.1649
 9782SOL    HW240566   0.467   2.704   5.808  1.7383 -1.0609 -0.5776
 9783SOL     OW40567   2.925   0.366   4.016 -0.2553 -0.4622 -0.2288
 9783SOL    HW140568   2.896   0.273   4.037 -2.6043  0.8072  2.4671
 9783SOL    HW240569   2.857   0.410   3.957  1.3858 -0.7638 -2.3980
 9784SOL     OW40570   7.351   3.687   0.957 -0.0589  0.0372 -0.4411
 9784SOL    HW140571   7.310   3.675   1.048 -1.0797  0.1744 -0.8845
 9784SOL    HW240572   7.363   3.785   0.939 -1.6070  0.0919 -1.2273
 9785SOL     OW40573   0.881   8.975   2.744 -0.4052  0.1637 -0.3067
 9785SOL    HW140574   0.896   8.943   2.650 -0.4966 -0.2369 -0.1833
 9785SOL    HW240575   0.965   8.964   2.796 -0.5544 -0.2560 -0.1532
 9786SOL     OW40576   3.362   4.078   4.755  0.1047 -0.1468  0.5943
 9786SOL    HW140577   3.345   4.075   4.854 -2.0713  1.2287  0.3026
 9786SOL    HW240578   3.439   4.138   4.736 -1.4866  2.1825  1.2701
 9787SOL     OW40579   9.356   7.648   5.458 -0.3894 -0.4240  0.0643
 9787SOL    HW140580   9.420   7.603   5.520  1.5114 -0.4518 -1.8713
 9787SOL    HW240581   9.390   7.740   5.437 -0.4864 -0.7714 -1.6916
 9788SOL     OW40582   0.148   5.081   2.045 -0.5832  0.3006  0.0364
 9788SOL    HW140583   0.053   5.090   2.075 -0.8385 -3.2456  0.4615
 9788SOL    HW240584   0.208   5.123   2.112 -1.7725  1.9453  0.1197
 9789SOL     OW40585   7.102   2.171   0.273  0.1443 -0.5666 -0.4462
 9789SOL    HW140586   7.138   2.174   0.366 -0.3908  0.8714 -0.2695
 9789SOL    HW240587   7.021   2.113   0.271  0.2799 -0.7739 -0.0636
 9790SOL     OW40588   0.395   9.257   6.480  0.0649  0.6448  0.0232
 9790SOL    HW140589   0.312   9.203   6.467  0.3484 -0.3920  2.3180
 9790SOL    HW240590   0.473   9.195   6.492  0.9729  1.6036 -0.8800
 9791SOL     OW40591   3.123   8.757   1.286  0.0109  0.7210 -0.4721
 9791SOL    HW140592   3.180   8.743   1.367 -1.5414  1.0703  0.7155
 9791SOL    HW240593   3.130   8.852   1.256 -1.1538  1.1770  0.6447
 9792SOL     OW40594   5.536   3.010   5.300 -0.3006 -0.3288  0.1797
 9792SOL    HW140595   5.557   2.959   5.216 -0.7545 -0.2880  0.0387
 9792SOL    HW240596   5.621   3.039   5.344  0.0379 -2.8492  1.2716
 9793SOL     OW40597   3.063   4.473   5.153 -0.3782  0.1346  0.0379
 9793SOL    HW140598   2.965   4.485   5.139 -0.3866 -0.3656 -0.3332
 9793SOL    HW240599   3.091   4.382   5.122 -0.1586 -0.4871  1.9313
 9794SOL     OW40600   8.050   3.322   6.344 -0.5717 -0.2186 -0.1996
 9794SOL    HW140601   8.012   3.252   6.405 -2.0268  0.7888  0.1073
 9794SOL    HW240602   8.053   3.410   6.393 -0.8130  0.3913 -1.2593
 9795SOL     OW40603   3.008   6.662   5.476  0.4859  0.5021  0.5918
 9795SOL    HW140604   2.921   6.694   5.438  1.1013  1.8512  0.3024
 9795SOL    HW240605   2.991   6.582   5.535 -0.9331  0.6994  0.4672
 9796SOL     OW40606   0.824   7.631   3.522  0.1095 -0.1895  0.0578
 9796SOL    HW140607   0.912   7.600   3.487  0.6226  0.4544  0.7597
 9796SOL    HW240608   0.804   7.722   3.485 -0.4923 -0.5427 -0.4874
 9797SOL     OW40609   0.062   2.237   3.370  0.5863  0.0933 -0.6189
 9797SOL    HW140610   0.140   2.241   3.433  0.3057 -0.9666 -0.1936
 9797SOL    HW240611  -0.010   2.299   3.402  0.7122  0.0592 -0.2689
 9798SOL     OW40612   2.104   8.783   6.226 -0.0097 -0.7431 -0.2231
 9798SOL    HW140613   2.090   8.702   6.169  2.0105 -1.3917  0.1901
 9798SOL    HW240614   2.172   8.842   6.183 -0.6512  0.2008  0.0509
 9799SOL     OW40615   1.411   2.561   3.658  0.1936  0.2145  0.3917
 9799SOL    HW140616   1.405   2.654   3.696 -0.2058  0.5518 -0.4950
 9799SOL    HW240617   1.486   2.512   3.703  1.2735  1.4086 -0.0789
 9800SOL     OW40618   7.046   3.788   0.690 -0.6431  0.0996 -0.0119
 9800SOL    HW140619   7.078   3.704   0.644  1.2135 -0.5796  2.4369
 9800SOL    HW240620   7.091   3.867   0.649 -0.6120 -0.3092 -0.7811
 9801SOL     OW40621   3.973   4.884   3.572  0.6580  0.4050 -0.1938
 9801SOL    HW140622   3.976   4.790   3.605  0.1307  0.1987 -0.7251
 9801SOL    HW240623   3.947   4.945   3.647 -0.1110 -0.0061 -0.1244
 9802SOL     OW40624   2.826   8.975   0.400  1.0052 -0.5711 -0.1137
 9802SOL    HW140625   2.770   8.900   0.435  2.3909 -1.3966  0.4168
 9802SOL    HW240626   2.772   9.059   0.394  0.4978 -0.5903  3.2858
 9803SOL     OW40627   8.985   2.270   3.665 -0.1394  0.1108 -0.3403
 9803SOL    HW140628   9.026   2.178   3.668  0.9443  0.6139  0.7308
 9803SOL    HW240629   9.045   2.331   3.613  0.6284  0.9065  1.4372
 9804SOL     OW40630   1.108   9.309   5.668 -0.0422  0.3457  0.1859
 9804SOL    HW140631   1.095   9.405   5.691 -0.4948 -0.1603  2.0784
 9804SOL    HW240632   1.020   9.261   5.673  0.1925 -0.1944 -0.6795
 9805SOL     OW40633   9.814   7.734   6.102  0.0857 -0.0466  0.6487
 9805SOL    HW140634   9.837   7.641   6.071  0.0999  0.0928  0.2361
 9805SOL    HW240635   9.744   7.772   6.042 -0.1575  0.0852  1.0187
 9806SOL     OW40636   2.725   7.081   2.756 -0.2871  0.1088 -0.7496
 9806SOL    HW140637   2.772   7.103   2.671  0.4738 -2.4121 -1.0072
 9806SOL    HW240638   2.633   7.047   2.736 -0.2066 -0.2348 -0.5321
 9807SOL     OW40639   8.540   4.989   5.497  0.5012 -0.5674 -0.0175
 9807SOL    HW140640   8.625   5.039   5.481  0.7063 -0.6215  0.8410
 9807SOL    HW240641   8.518   4.932   5.418  0.0457  1.1998 -1.2055
 9808SOL     OW40642   6.932   8.501   6.330 -0.1322 -0.6975  0.3635
 9808SOL    HW140643   7.032   8.503   6.322 -0.1783 -1.7362 -0.6321
 9808SOL    HW240644   6.905   8.520   6.424  1.0103 -0.3814  0.6274
 9809SOL     OW40645   5.231   4.528   1.620  0.4014 -0.7120 -0.3160
 9809SOL    HW140646   5.239   4.568   1.711  1.4378 -0.5421 -0.4736
 9809SOL    HW240647   5.320   4.532   1.574 -0.5666  1.0653 -2.1083
 9810SOL     OW40648   2.258   8.581   4.539 -0.4766  0.5593  0.4368
 9810SOL    HW140649   2.334   8.638   4.508  1.4934 -1.9624  0.3885
 9810SOL    HW240650   2.266   8.490   4.496 -2.4162 -0.3512  1.9514
 9811SOL     OW40651   1.514   9.847   0.081 -0.6464 -0.0324  0.4436
 9811SOL    HW140652   1.550   9.801   0.161  0.4496 -1.9108 -1.0842
 9811SOL    HW240653   1.588   9.893   0.032 -1.3398  1.2885  0.6257
 9812SOL     OW40654   9.959   5.637   2.634 -0.0428  0.1838 -0.1936
 9812SOL    HW140655  10.014   5.659   2.553  0.1553  1.6672  0.3331
 9812SOL    HW240656  10.014   5.585   2.699  0.1750  0.0908 -0.4496
 9813SOL     OW40657   1.734   4.544   6.024  0.2431 -0.2738  0.5752
 9813SOL    HW140658   1.803   4.473   6.031  0.1791 -0.7518 -2.7761
 9813SOL    HW240659   1.643   4.502   6.020  0.1018  0.0635  0.1573
 9814SOL     OW40660   2.164   7.551   2.647 -0.2516  0.2214  0.2982
 9814SOL    HW140661   2.092   7.536   2.579  1.1099  2.0319 -1.5910
 9814SOL    HW240662   2.231   7.477   2.641  0.0762  0.5969 -0.5762
 9815SOL     OW40663   7.958   1.640   5.696 -0.4602 -0.3165  0.0854
 9815SOL    HW140664   7.937   1.617   5.601 -0.8093  1.3380 -0.2686
 9815SOL    HW240665   7.882   1.613   5.755 -0.6769 -0.4412 -0.2531
 9816SOL     OW40666   7.810   0.949   6.259 -0.0106  0.1197  0.3874
 9816SOL    HW140667   7.854   0.982   6.342 -0.5154 -0.2610  0.8055
 9816SOL    HW240668   7.778   0.855   6.273  0.3036 -0.1076 -0.3819
 9817SOL     OW40669   4.004   0.097   6.654 -0.0696  0.9523  0.0591
 9817SOL    HW140670   3.997   0.196   6.645  0.0238  1.1592  1.9570
 9817SOL    HW240671   4.080   0.075   6.715 -0.9842 -0.2301  0.7915
 9818SOL     OW40672   3.750   9.565   4.174 -0.4978  0.6828 -0.8437
 9818SOL    HW140673   3.850   9.555   4.176 -0.6104 -0.4487 -0.7363
 9818SOL    HW240674   3.724   9.621   4.096  0.0341 -1.3140 -2.4933
 9819SOL     OW40675   2.195   3.131   5.409  0.7996  0.4527 -0.4676
 9819SOL    HW140676   2.107   3.095   5.379  0.6950  0.2044  0.1387
 9819SOL    HW240677   2.234   3.188   5.336  0.8321 -0.6449 -1.3202
 9820SOL     OW40678   0.137   7.073   3.220 -0.1481 -0.2665 -0.1569
 9820SOL    HW140679   0.108   7.005   3.287 -2.2477  1.0172  0.3083
 9820SOL    HW240680   0.127   7.165   3.259 -1.3162  0.4975 -2.1437
 9821SOL     OW40681   1.620   2.015   0.529  0.5220  0.2464  0.2708
 9821SOL    HW140682   1.611   1.930   0.579 -1.5055  0.0074 -0.4432
 9821SOL    HW240683   1.650   1.996   0.435  0.3524  0.3329  0.1977
 9822SOL     OW40684   7.887   4.005   2.518  0.2541  0.7720  0.2808
 9822SOL    HW140685   7.983   4.030   2.506  0.2930  0.0856 -0.8676
 9822SOL    HW240686   7.833   4.088   2.531  0.7261  1.3034 -1.0240
 9823SOL     OW40687   2.395   4.716   2.780  0.0460 -0.5545 -0.1962
 9823SOL    HW140688   2.467   4.761   2.728 -0.8126  0.9341 -0.1132
 9823SOL    HW240689   2.368   4.631   2.734  1.7568 -1.0736 -0.2840
 9824SOL     OW40690   0.458   7.570   5.049  0.2977  0.3842  0.2342
 9824SOL    HW140691   0.504   7.606   4.967  0.1244  1.2038  0.4922
 9824SOL    HW240692   0.362   7.553   5.028  0.6687 -1.1674 -0.2577
 9825SOL     OW40693   1.786   1.216   4.255  0.3437  0.2981 -0.4226
 9825SOL    HW140694   1.714   1.203   4.323  1.2604  0.2466  0.5589
 9825SOL    HW240695   1.825   1.127   4.230  1.2679  0.4615  0.3921
 9826SOL     OW40696   0.317   6.354   2.134 -0.0138  0.3465 -0.3858
 9826SOL    HW140697   0.292   6.450   2.152  0.7987  0.2902  1.0855
 9826SOL    HW240698   0.286   6.297   2.210  0.5746 -0.3870 -0.6967
 9827SOL     OW40699   1.241   0.676   2.575 -0.1790 -0.1195 -0.0177
 9827SOL    HW140700   1.298   0.691   2.495  1.8232 -1.2715  1.1595
 9827SOL    HW240701   1.148   0.652   2.546  0.1020  1.0479 -1.9567
 9828SOL     OW40702   0.430   6.247   1.155  0.3935  0.7225  0.7626
 9828SOL    HW140703   0.457   6.326   1.100  1.4857 -0.1002  0.1094
 9828SOL    HW240704   0.372   6.278   1.231  0.3184  2.0708  0.1708
 9829SOL     OW40705   0.674   1.587   3.316  0.4142 -0.0535  0.2889
 9829SOL    HW140706   0.618   1.551   3.242  0.3866  0.3515  0.1087
 9829SOL    HW240707   0.764   1.611   3.281  0.1209  0.9532  0.1885
 9830SOL     OW40708   3.873   4.101   4.240 -0.4839  0.0761  0.0372
 9830SOL    HW140709   3.890   4.085   4.143  0.5116 -1.3261  0.4378
 9830SOL    HW240710   3.790   4.053   4.268 -1.0415  0.8738 -0.2128
 9831SOL     OW40711   9.996   1.015   4.193 -0.4236 -0.1743 -0.0200
 9831SOL    HW140712  10.037   0.959   4.121  0.6361 -0.6736  0.9586
 9831SOL    HW240713  10.068   1.045   4.256 -1.0812  1.6795 -0.1218
 9832SOL     OW40714   2.303   7.451   6.444 -0.1777 -0.2476 -0.0791
 9832SOL    HW140715   2.217   7.492   6.411  0.7672  0.4475 -1.7883
 9832SOL    HW240716   2.300   7.352   6.431 -0.3362 -0.1187 -1.0739
 9833SOL     OW40717   0.176   4.195   5.468 -0.5217 -0.0859  0.2452
 9833SOL    HW140718   0.096   4.155   5.422 -1.5008  0.7911  1.1478
 9833SOL    HW240719   0.168   4.294   5.468  0.4198 -0.0050  0.6267
 9834SOL     OW40720   2.235   1.323   3.112  0.5859  0.4973  0.0913
 9834SOL    HW140721   2.319   1.315   3.059 -0.2622  0.5617 -1.2931
 9834SOL    HW240722   2.198   1.232   3.131  0.1202  0.5179 -0.6958
 9835SOL     OW40723   0.232   6.598   5.799  0.2076 -0.0708 -0.3826
 9835SOL    HW140724   0.171   6.572   5.874  0.0018  2.1110  0.2477
 9835SOL    HW240725   0.250   6.518   5.741 -0.5614 -1.5049  1.3160
 9836SOL     OW40726   0.891   3.837   3.654 -0.3975 -0.0715  0.3654
 9836SOL    HW140727   0.877   3.856   3.557 -0.9819 -0.7467  0.3104
 9836SOL    HW240728   0.822   3.885   3.708  0.0799  0.5057  0.4737
 9837SOL     OW40729   9.534   1.633   1.465 -0.3507  0.0421  0.0501
 9837SOL    HW140730   9.619   1.581   1.464  0.2817  1.0566 -0.4633
 9837SOL    HW240731   9.541   1.708   1.531 -1.3646 -0.7071  1.0134
 9838SOL     OW40732   2.708   2.975   2.672 -0.2073  0.2373 -0.0213
 9838SOL    HW140733   2.742   2.998   2.581 -0.2529  0.4938  0.0270
 9838SOL    HW240734   2.657   2.888   2.668  1.6670 -0.9018  0.1743
 9839SOL     OW40735   7.977   3.386   5.893 -0.2547 -0.2630 -0.0779
 9839SOL    HW140736   8.067   3.370   5.932 -1.1714  1.1826  2.7258
 9839SOL    HW240737   7.968   3.482   5.868 -0.8439 -0.5116 -0.8385
 9840SOL     OW40738   0.567   7.877   3.644 -0.2682  0.2724  0.3127
 9840SOL    HW140739   0.542   7.804   3.580 -1.1246  0.5318  0.3484
 9840SOL    HW240740   0.656   7.915   3.618 -0.5134  0.2349 -0.5989
 9841SOL     OW40741   7.914   1.544   4.477  0.5032 -0.3273 -0.2273
 9841SOL    HW140742   7.814   1.546   4.479  0.4485 -0.1983 -2.1923
 9841SOL    HW240743   7.945   1.450   4.466  0.4806 -0.0724 -2.8328
 9842SOL     OW40744   6.666   8.065   4.434 -0.1153 -0.2560  0.1251
 9842SOL    HW140745   6.587   8.088   4.377 -0.3013  2.8724  1.5681
 9842SOL    HW240746   6.659   8.112   4.522  1.7688 -2.4872  1.5475
 9843SOL     OW40747   3.329   5.172   5.442 -0.3688  0.5430 -0.3005
 9843SOL    HW140748   3.277   5.123   5.512  0.1625  1.7182  0.9428
 9843SOL    HW240749   3.381   5.246   5.485 -1.2522  2.2829 -2.1229
 9844SOL     OW40750   0.462   7.924   5.096  0.2678  0.4531 -0.5895
 9844SOL    HW140751   0.423   7.929   5.003 -1.2974 -0.4098 -0.0050
 9844SOL    HW240752   0.441   8.008   5.145  0.1587  0.4677 -0.6623
 9845SOL     OW40753   8.140   0.376   6.120  0.6730 -0.6415  0.9660
 9845SOL    HW140754   8.218   0.439   6.121  1.2269 -1.2334 -1.7010
 9845SOL    HW240755   8.059   0.424   6.087  0.4203 -0.6296  1.5841
 9846SOL     OW40756   4.093   6.524   1.053 -0.5099  0.2975  0.2635
 9846SOL    HW140757   4.119   6.527   0.956  0.1231 -0.5647  0.3927
 9846SOL    HW240758   3.994   6.531   1.062 -0.6247 -0.2807 -0.4949
 9847SOL     OW40759   7.493   5.008   7.755  0.3725  0.2605  0.1376
 9847SOL    HW140760   7.557   4.974   7.823  1.0754 -0.4041 -0.8401
 9847SOL    HW240761   7.524   5.097   7.721 -0.4520  1.0104  1.3165
 9848SOL     OW40762   4.396   7.830   2.393  0.6956  0.2275  0.3943
 9848SOL    HW140763   4.325   7.761   2.407 -0.3386  0.4634 -3.2225
 9848SOL    HW240764   4.382   7.875   2.305  3.5549  2.4528  1.0037
 9849SOL     OW40765   0.890   1.621   3.539 -0.3787 -0.3358 -0.9912
 9849SOL    HW140766   0.860   1.646   3.447 -0.9320  0.6037 -0.5585
 9849SOL    HW240767   0.942   1.696   3.579 -0.2034 -0.7139 -0.5013
 9850SOL     OW40768   3.336   6.466   1.999  1.0174  0.0222  0.5390
 9850SOL    HW140769   3.292   6.471   2.089 -1.3803  1.5769 -0.6587
 9850SOL    HW240770   3.384   6.552   1.982  3.1543 -1.0284  1.1272
 9851SOL     OW40771   9.485   2.929   2.698 -0.2706 -0.8283 -0.6131
 9851SOL    HW140772   9.473   3.015   2.747 -0.5437 -1.7769  1.0090
 9851SOL    HW240773   9.399   2.879   2.697 -0.2407 -0.8587 -1.9979
 9852SOL     OW40774   0.790   3.849   4.896  0.2443 -0.4535 -0.5843
 9852SOL    HW140775   0.808   3.901   4.812  0.6865 -1.5895 -1.1998
 9852SOL    HW240776   0.695   3.818   4.896 -0.3772  1.3762  0.3622
 9853SOL     OW40777   8.325   6.409   1.396 -0.0574  0.7611  0.4706
 9853SOL    HW140778   8.413   6.405   1.348 -0.7929 -1.0631 -0.8240
 9853SOL    HW240779   8.317   6.495   1.445  2.3217  1.0806  0.3473
 9854SOL     OW40780   8.434   0.107   5.150  0.4785  0.2435  0.3691
 9854SOL    HW140781   8.414   0.188   5.206  0.3966  0.5932 -0.1678
 9854SOL    HW240782   8.352   0.051   5.141  0.7694 -0.3975  1.5388
 9855SOL     OW40783   3.438   2.958   1.141  0.2924  0.4793 -0.7241
 9855SOL    HW140784   3.522   2.941   1.191  0.3072 -1.8614 -1.4833
 9855SOL    HW240785   3.360   2.952   1.203  0.5780  1.2405 -0.2914
 9856SOL     OW40786   9.709   9.646   6.035  0.1693 -0.2126 -0.8435
 9856SOL    HW140787   9.704   9.593   6.120 -0.4677  1.2270  0.0438
 9856SOL    HW240788   9.638   9.716   6.035  1.8196  1.5394 -1.3538
 9857SOL     OW40789   7.649   1.931   3.465  0.1049  0.0686  0.0746
 9857SOL    HW140790   7.696   1.944   3.552 -1.6290 -0.3707  1.1166
 9857SOL    HW240791   7.625   1.835   3.454  0.7851  0.0383 -1.1438
 9858SOL     OW40792   7.444   3.335   5.412 -0.2559  0.0881  0.1965
 9858SOL    HW140793   7.506   3.281   5.469 -1.2456 -1.6516 -0.3318
 9858SOL    HW240794   7.422   3.285   5.329  0.8740  2.4634 -1.5935
 9859SOL     OW40795   3.042   4.342   4.873  0.5444 -0.3238  0.4804
 9859SOL    HW140796   3.058   4.323   4.776 -1.4792 -1.6979  0.3775
 9859SOL    HW240797   2.973   4.414   4.883  1.2326  0.2786  0.8902
 9860SOL     OW40798   1.198   1.896   1.465 -0.0831 -0.1161 -0.2820
 9860SOL    HW140799   1.274   1.898   1.531  0.3223  2.8466 -0.7754
 9860SOL    HW240800   1.234   1.878   1.374  0.1417  1.7209 -0.5857
 9861SOL     OW40801   4.773   3.459   3.913  0.0822  0.0939  0.0317
 9861SOL    HW140802   4.833   3.516   3.969 -2.5043  1.0980  1.8797
 9861SOL    HW240803   4.709   3.410   3.972 -0.5998 -1.3427 -1.8544
 9862SOL     OW40804   8.673   3.454   0.241 -0.1834  0.1881  0.0840
 9862SOL    HW140805   8.601   3.497   0.295  0.9622  1.1240  0.8964
 9862SOL    HW240806   8.755   3.511   0.243  0.5876 -0.8594 -0.8250
 9863SOL     OW40807   9.599   0.403   2.720 -0.1663  0.3266 -0.2216
 9863SOL    HW140808   9.669   0.428   2.653  0.1408 -2.2701 -0.9184
 9863SOL    HW240809   9.575   0.483   2.774  3.0861  1.3873 -0.2173
 9864SOL     OW40810   7.955   3.363   2.247 -0.1250 -0.0209  0.6736
 9864SOL    HW140811   7.868   3.361   2.198 -0.4176  1.1685  1.1355
 9864SOL    HW240812   7.948   3.309   2.330  0.0452 -1.1684 -0.0503
 9865SOL     OW40813   0.451   0.494   4.098 -0.3376 -0.7942  0.1136
 9865SOL    HW140814   0.476   0.431   4.024 -0.5038 -2.3367  1.3504
 9865SOL    HW240815   0.511   0.575   4.095  1.4105 -2.0689 -0.1010
 9866SOL     OW40816   6.680   8.800   6.710  0.7190 -0.4008 -0.0579
 9866SOL    HW140817   6.716   8.867   6.776  1.4425 -0.8227 -0.0165
 9866SOL    HW240818   6.587   8.826   6.683  0.6311  0.0928  0.6949
 9867SOL     OW40819   9.838   3.395   2.646  0.2151 -0.2475 -0.8159
 9867SOL    HW140820   9.905   3.331   2.609 -0.3971 -1.1411 -0.3745
 9867SOL    HW240821   9.838   3.390   2.746  0.3086  0.5897 -0.7678
 9868SOL     OW40822   4.478   8.332   5.127 -0.5687  0.5306 -0.0980
 9868SOL    HW140823   4.521   8.406   5.075  0.3491  0.0652 -0.0106
 9868SOL    HW240824   4.385   8.358   5.151 -1.0127  0.7573 -1.9764
 9869SOL     OW40825   6.245   3.594   0.454  0.0383  0.5368 -0.3858
 9869SOL    HW140826   6.192   3.525   0.504 -0.3513  2.3611  1.8343
 9869SOL    HW240827   6.319   3.549   0.403  0.7443 -1.4213  2.2209
 9870SOL     OW40828   7.709   1.966   8.097 -0.1350 -0.0575 -0.0739
 9870SOL    HW140829   7.632   1.901   8.097 -0.5871  0.4415 -1.5528
 9870SOL    HW240830   7.761   1.956   8.181 -1.4770 -0.8283  0.6902
 9871SOL     OW40831   3.484   3.393   4.371  0.3091  0.3021 -0.3826
 9871SOL    HW140832   3.393   3.351   4.375  0.3282  0.4120  1.7183
 9871SOL    HW240833   3.478   3.482   4.327 -0.5441  0.1831 -0.5151
 9872SOL     OW40834   0.891   3.625   1.137  0.2138 -0.3973  0.0208
 9872SOL    HW140835   0.791   3.629   1.128  0.3522  0.1167 -1.5264
 9872SOL    HW240836   0.921   3.530   1.133 -0.3765 -0.7213  2.6455
 9873SOL     OW40837   3.142   0.564   6.391 -0.4370 -0.8894  0.2852
 9873SOL    HW140838   3.043   0.581   6.395 -0.3943 -0.6576  0.3414
 9873SOL    HW240839   3.187   0.611   6.466  0.3103  3.2373 -2.6304
 9874SOL     OW40840   9.659   7.182   3.866 -0.0706  0.1982 -0.1999
 9874SOL    HW140841   9.598   7.114   3.908 -0.0103  0.4453  0.2881
 9874SOL    HW240842   9.740   7.136   3.830 -1.1657 -0.3180 -2.0727
 9875SOL     OW40843   6.272   1.716   3.168 -0.2203 -0.3160 -0.1906
 9875SOL    HW140844   6.350   1.771   3.137 -0.3803 -0.4276 -0.7791
 9875SOL    HW240845   6.230   1.670   3.090 -0.2953 -1.0095  0.2563
 9876SOL     OW40846   7.392   5.454   1.584 -0.3277 -0.4807  0.0923
 9876SOL    HW140847   7.420   5.550   1.587 -2.0062 -0.0240  3.7276
 9876SOL    HW240848   7.454   5.399   1.640 -0.2021 -1.3083 -0.8374
 9877SOL     OW40849   2.604   0.466   3.211 -0.2364 -0.1296  0.2441
 9877SOL    HW140850   2.642   0.385   3.167  4.4146  0.7626  2.3695
 9877SOL    HW240851   2.595   0.450   3.309 -1.9108  1.0370  0.3159
 9878SOL     OW40852   2.450   2.646   1.916  0.4375 -0.2426  0.0515
 9878SOL    HW140853   2.488   2.569   1.967  0.3605  0.4839  1.2466
 9878SOL    HW240854   2.509   2.669   1.839  2.9768  1.4508  2.3794
 9879SOL     OW40855   0.907   4.820   3.070 -0.5338 -0.2252  0.0975
 9879SOL    HW140856   0.849   4.899   3.052  1.2294  0.8393 -1.1185
 9879SOL    HW240857   0.973   4.843   3.142  1.7298  0.3846 -2.0873
 9880SOL     OW40858   5.438   7.738   5.531 -0.0007 -0.4079  0.5876
 9880SOL    HW140859   5.458   7.703   5.623 -1.0304 -1.4753  0.4226
 9880SOL    HW240860   5.354   7.696   5.497  0.8456 -0.7306 -1.2061
 9881SOL     OW40861   2.975   0.628   3.034  0.1696 -0.4539  0.3803
 9881SOL    HW140862   2.985   0.637   3.134 -1.1988  1.5658  0.3688
 9881SOL    HW240863   3.016   0.708   2.990 -0.4117 -0.6949 -0.6000
 9882SOL     OW40864   3.698   7.048   5.017 -0.2749 -0.5578  0.0711
 9882SOL    HW140865   3.773   7.001   5.063 -0.5837 -0.7744  0.3569
 9882SOL    HW240866   3.674   7.000   4.933 -0.1464 -0.5334  0.0215
 9883SOL     OW40867   7.429   9.744   5.431 -0.1588 -0.0179  0.1811
 9883SOL    HW140868   7.332   9.762   5.414 -0.6418 -1.1184  1.6232
 9883SOL    HW240869   7.468   9.694   5.354 -1.6946 -2.8229  1.1440
 9884SOL     OW40870   0.238   8.606   6.111 -0.3167  0.3703  0.1157
 9884SOL    HW140871   0.190   8.650   6.187  0.6842  0.6854  0.5698
 9884SOL    HW240872   0.293   8.674   6.062 -2.6015  0.6323 -2.2345
 9885SOL     OW40873   5.027   0.282   2.119 -0.3362 -0.1580 -0.7737
 9885SOL    HW140874   4.944   0.262   2.171  1.4636 -1.9902  1.4572
 9885SOL    HW240875   5.017   0.247   2.026 -1.7524 -1.0728 -0.2926
 9886SOL     OW40876   2.789   2.614   3.785  0.4664  0.6807 -1.0260
 9886SOL    HW140877   2.787   2.608   3.685  0.8702  0.9821 -1.0541
 9886SOL    HW240878   2.882   2.597   3.818  0.5741  1.7017 -0.7860
 9887SOL     OW40879   8.963   9.860   2.013 -0.0787 -0.4143 -0.2627
 9887SOL    HW140880   9.059   9.861   2.043 -0.8416  0.6372  2.2002
 9887SOL    HW240881   8.918   9.779   2.050 -0.6871  0.1988  0.3370
 9888SOL     OW40882   3.180   3.243   1.248 -0.2457  0.1550  0.2117
 9888SOL    HW140883   3.127   3.316   1.293  0.8587 -0.2153  2.1567
 9888SOL    HW240884   3.277   3.258   1.264  0.0747 -0.8267 -0.8001
 9889SOL     OW40885   2.466   8.213   1.863  0.1398  0.2306 -0.8370
 9889SOL    HW140886   2.469   8.309   1.888  1.5026 -0.0256  0.0532
 9889SOL    HW240887   2.374   8.176   1.881  0.1554  0.8829  0.6560
 9890SOL     OW40888   9.733   2.739   2.133  0.3965 -0.0027 -0.2671
 9890SOL    HW140889   9.692   2.793   2.206  2.1792  1.0012  0.0240
 9890SOL    HW240890   9.827   2.714   2.158  0.6777 -0.5322 -1.7696
 9891SOL     OW40891   8.498   0.169   5.935  0.0594 -0.3066 -0.4187
 9891SOL    HW140892   8.528   0.168   6.030  2.1495 -1.4605 -1.0549
 9891SOL    HW240893   8.534   0.249   5.889 -0.5149 -0.0226 -0.3778
 9892SOL     OW40894   7.613   6.847   3.839 -0.2945 -0.1511  0.1837
 9892SOL    HW140895   7.620   6.946   3.828 -2.6798  0.0373  0.2427
 9892SOL    HW240896   7.627   6.802   3.751  0.4545  0.2368  0.0969
 9893SOL     OW40897   0.980   3.559   4.186  0.3694 -0.2932  0.2462
 9893SOL    HW140898   0.889   3.549   4.226  0.3997 -0.4407  0.2810
 9893SOL    HW240899   1.048   3.528   4.253  0.4805  0.3636  0.4348
 9894SOL     OW40900   1.565   0.654   3.528  0.8867  0.2436  1.0139
 9894SOL    HW140901   1.536   0.749   3.542  2.2242  0.4640  2.4284
 9894SOL    HW240902   1.633   0.629   3.596 -0.4386 -2.1806  1.5398
 9895SOL     OW40903   2.182   6.998   5.074  0.4824 -0.1511  0.2073
 9895SOL    HW140904   2.194   6.905   5.109  0.3209 -0.1246  0.3320
 9895SOL    HW240905   2.191   6.997   4.974  0.1304 -0.3582  0.1779
 9896SOL     OW40906   4.260   7.590   2.396 -0.5930  0.3206  0.5022
 9896SOL    HW140907   4.346   7.548   2.424 -0.0315  0.2040 -1.2923
 9896SOL    HW240908   4.183   7.540   2.436  0.1496 -0.3578  1.0908
 9897SOL     OW40909   9.392   3.769   5.732 -0.1744  0.2233  0.6227
 9897SOL    HW140910   9.374   3.673   5.708  0.1035  0.3661 -0.1455
 9897SOL    HW240911   9.468   3.804   5.678 -0.7584  1.1112  0.3699
 9898SOL     OW40912   3.962   1.700   2.984  0.1681 -0.5332 -0.4865
 9898SOL    HW140913   3.914   1.622   3.024 -0.2440  0.1567  0.3841
 9898SOL    HW240914   4.030   1.734   3.049  0.8817 -0.6503 -1.1695
 9899SOL     OW40915   6.419   0.585   0.718  0.0420  0.5331  0.0701
 9899SOL    HW140916   6.435   0.618   0.811 -0.2898  1.2526 -0.1265
 9899SOL    HW240917   6.374   0.656   0.665  0.8259  0.3502 -0.8375
 9900SOL     OW40918   9.045   3.950   2.184  0.6613 -0.4380 -0.3306
 9900SOL    HW140919   9.120   4.013   2.201  2.1294 -1.1859 -3.6124
 9900SOL    HW240920   9.076   3.856   2.200  0.1667 -0.6774 -0.7562
 9901SOL     OW40921   3.151   2.252   4.347  0.3222  0.1398  0.2948
 9901SOL    HW140922   3.229   2.226   4.289  0.9845  0.9106  0.8449
 9901SOL    HW240923   3.143   2.187   4.422  0.3398 -0.0228  0.1580
 9902SOL     OW40924   9.502   6.167   1.670  0.2641  0.0115 -0.4285
 9902SOL    HW140925   9.531   6.099   1.737 -0.4995  0.6689  0.5929
 9902SOL    HW240926   9.548   6.151   1.583 -0.0358 -1.8985 -0.2450
 9903SOL     OW40927   4.223   8.303   4.781  0.0933  0.3290 -0.2694
 9903SOL    HW140928   4.309   8.353   4.773 -1.2717  2.9830  1.0164
 9903SOL    HW240929   4.173   8.306   4.694  0.7320 -0.2156 -0.6635
 9904SOL     OW40930   3.714   6.947   0.245 -0.3695  0.2269  0.0824
 9904SOL    HW140931   3.642   7.007   0.211  0.9519  1.0244 -1.3670
 9904SOL    HW240932   3.788   6.943   0.179  0.6036 -1.1777  1.2172
 9905SOL     OW40933   1.419   1.019   2.636  0.3037  0.1562 -0.2221
 9905SOL    HW140934   1.432   1.046   2.731 -1.7532 -1.5959  0.6127
 9905SOL    HW240935   1.323   0.994   2.621  1.0309 -1.6027 -2.2295
 9906SOL     OW40936   7.238   2.270   1.535 -0.1496  0.4301  0.1082
 9906SOL    HW140937   7.144   2.296   1.558 -0.8058  0.2988 -2.2984
 9906SOL    HW240938   7.301   2.338   1.572 -1.3264  1.5410  0.1063
 9907SOL     OW40939   1.504   6.892   4.303 -0.2982 -0.3521  0.2137
 9907SOL    HW140940   1.554   6.953   4.241 -0.5127 -0.3754  0.0165
 9907SOL    HW240941   1.451   6.947   4.367 -1.9500 -0.3148 -1.1366
 9908SOL     OW40942   9.050   8.233   2.350  0.1171  0.0544  0.1752
 9908SOL    HW140943   9.116   8.232   2.425 -0.9963 -2.1942  1.1637
 9908SOL    HW240944   8.957   8.234   2.387 -0.4363 -0.7004 -1.1546
 9909SOL     OW40945   5.491   1.435   1.914 -0.2820  0.3684  0.0557
 9909SOL    HW140946   5.445   1.461   2.000 -0.4240 -1.3377  0.5150
 9909SOL    HW240947   5.572   1.381   1.935 -0.0522  0.3495 -0.8703
 9910SOL     OW40948   7.307   8.361   3.973 -0.2061  0.2440  0.2440
 9910SOL    HW140949   7.322   8.346   4.071  1.7326  2.6309  0.3686
 9910SOL    HW240950   7.379   8.315   3.921 -0.9909 -0.6631 -0.0464
 9911SOL     OW40951   8.777   7.009   6.221 -0.6337 -0.1552 -0.4879
 9911SOL    HW140952   8.726   6.980   6.140 -1.2265 -1.0093  0.1824
 9911SOL    HW240953   8.817   6.930   6.266  0.1417  0.3720 -0.2308
 9912SOL     OW40954   3.186   0.727   3.233  0.0385  0.1958  0.1247
 9912SOL    HW140955   3.200   0.629   3.247 -0.3243 -0.0342 -1.0432
 9912SOL    HW240956   3.226   0.778   3.310  0.0645 -0.8693  0.8257
 9913SOL     OW40957   4.860   3.620   0.419 -0.3106 -0.3956 -0.2579
 9913SOL    HW140958   4.840   3.652   0.512  0.3960 -1.2339  0.1953
 9913SOL    HW240959   4.791   3.656   0.356 -1.2073 -0.3963  0.7015
 9914SOL     OW40960   3.884   1.343   5.632 -0.2257 -0.3500  0.0966
 9914SOL    HW140961   3.945   1.313   5.705 -0.7680 -0.7661  0.3854
 9914SOL    HW240962   3.919   1.426   5.591 -0.5732  0.5983  1.6792
 9915SOL     OW40963   2.910   3.475   1.061  0.6326  0.8011 -0.3155
 9915SOL    HW140964   2.888   3.571   1.041  0.7129  1.1317  1.0888
 9915SOL    HW240965   2.874   3.452   1.151 -0.4984 -0.8723 -1.1822
 9916SOL     OW40966   8.523   9.481   1.500 -0.1278  0.2141 -0.2377
 9916SOL    HW140967   8.478   9.512   1.584  1.0774 -0.3769  0.6363
 9916SOL    HW240968   8.545   9.384   1.508 -0.1830  0.1137 -1.3151
 9917SOL     OW40969   5.124   3.425   0.515 -0.3911 -0.1344  0.4138
 9917SOL    HW140970   5.174   3.475   0.586 -0.6062  0.7233 -0.0407
 9917SOL    HW240971   5.104   3.486   0.438  0.0373 -1.1069 -0.4938
 9918SOL     OW40972   8.978   1.546   3.635 -0.3261 -0.2971  0.2287
 9918SOL    HW140973   8.925   1.550   3.719 -0.1515 -0.4048  0.3452
 9918SOL    HW240974   8.924   1.503   3.563  0.3459 -2.3992  0.9236
 9919SOL     OW40975   0.057   1.415   5.116  0.0443  0.4178 -0.1899
 9919SOL    HW140976   0.039   1.463   5.030 -0.0827 -0.4130 -0.6392
 9919SOL    HW240977   0.003   1.330   5.118  1.6368 -0.6130 -0.2192
 9920SOL     OW40978   8.058   9.072   0.741 -0.4377 -0.1664 -0.9242
 9920SOL    HW140979   8.077   9.034   0.650  1.7958  0.3999 -0.7279
 9920SOL    HW240980   8.020   9.001   0.799 -1.6496 -0.6055 -2.2166
 9921SOL     OW40981   8.502   1.852   0.947  0.4055 -0.5135  0.7812
 9921SOL    HW140982   8.586   1.805   0.919  1.2103  0.9989  0.6056
 9921SOL    HW240983   8.511   1.949   0.927 -1.6768 -0.4420  0.0885
 9922SOL     OW40984   8.119   1.770   8.109 -0.4491  0.0990 -0.0568
 9922SOL    HW140985   8.146   1.779   8.205  1.4274  2.0186 -0.7389
 9922SOL    HW240986   8.089   1.858   8.074  0.5967 -0.2020 -1.7486
 9923SOL     OW40987   3.770   9.650   0.971 -0.3758  0.3229  0.4358
 9923SOL    HW140988   3.748   9.725   1.032 -0.5754  0.1247  0.6092
 9923SOL    HW240989   3.760   9.563   1.020 -0.8501  0.1493  0.0284
 9924SOL     OW40990   2.223   2.538   2.380 -0.7847  0.1015  0.4103
 9924SOL    HW140991   2.310   2.554   2.334 -0.4112 -1.3215  0.6270
 9924SOL    HW240992   2.178   2.626   2.397 -0.4893  0.7189 -1.8093
 9925SOL     OW40993   3.462   8.380   2.250  0.0470  0.3140 -0.4665
 9925SOL    HW140994   3.500   8.288   2.240 -0.1696 -0.1013  2.1841
 9925SOL    HW240995   3.363   8.377   2.236 -0.3282 -0.3502  2.0084
 9926SOL     OW40996   2.489   8.831   5.570  0.0638 -0.3539 -0.4858
 9926SOL    HW140997   2.561   8.885   5.526 -0.3819  2.4297  1.9915
 9926SOL    HW240998   2.531   8.770   5.637  0.3230 -0.7061 -0.9678
 9927SOL     OW40999   8.237   1.002   3.899 -0.3381 -0.5822  0.5107
 9927SOL    HW141000   8.311   1.047   3.849 -2.1289  1.0952 -0.7122
 9927SOL    HW241001   8.221   1.050   3.985 -0.5603 -0.4157  0.3781
 9928SOL     OW41002   0.813   5.796   2.028  0.2472  0.1100  0.0822
 9928SOL    HW141003   0.800   5.863   1.955  2.2586 -0.1933 -0.5586
 9928SOL    HW241004   0.883   5.829   2.091 -0.5880 -0.2133  1.2001
 9929SOL     OW41005   3.893   4.715   0.497 -0.3902  0.0798  0.1053
 9929SOL    HW141006   3.917   4.632   0.447  0.3396  0.0768  0.4507
 9929SOL    HW241007   3.909   4.700   0.595 -1.1015  0.3294  0.2632
 9930SOL     OW41008   3.433   3.024   6.188 -0.2457  0.0296 -0.1846
 9930SOL    HW141009   3.484   2.951   6.142 -2.2202 -1.7078  0.2969
 9930SOL    HW241010   3.428   3.005   6.286  1.5637  2.2750  0.3865
 9931SOL     OW41011   9.685   8.163   1.749 -0.7019 -0.3818 -0.2979
 9931SOL    HW141012   9.666   8.257   1.778 -0.6426 -0.5266  0.2081
 9931SOL    HW241013   9.599   8.120   1.721 -0.4488  0.5031 -2.5599
 9932SOL     OW41014   6.146   5.054   0.595 -0.1975  0.2345 -0.4486
 9932SOL    HW141015   6.183   4.966   0.563  1.8018  1.4928 -1.6408
 9932SOL    HW241016   6.124   5.047   0.693 -0.1793 -1.6243 -0.5563
 9933SOL     OW41017   8.032   8.925   4.523  0.1025  0.1797  0.2060
 9933SOL    HW141018   8.033   9.022   4.545  0.8495  0.4316 -0.9336
 9933SOL    HW241019   8.011   8.912   4.426 -1.1129 -0.8477  0.5780
 9934SOL     OW41020   0.727   9.419   5.369 -0.1953  0.3167 -0.0439
 9934SOL    HW141021   0.727   9.441   5.466 -2.6063 -0.9534  0.2816
 9934SOL    HW241022   0.654   9.469   5.323  0.2100  0.0359 -1.0111
 9935SOL     OW41023   1.091   9.593   2.942 -0.0624 -0.2781 -0.0806
 9935SOL    HW141024   1.172   9.650   2.930  0.0969 -0.3118  0.7793
 9935SOL    HW241025   1.050   9.612   3.031 -2.9276  2.1323 -1.8254
 9936SOL     OW41026   1.553   2.164   2.903 -0.2404 -0.0130 -0.0020
 9936SOL    HW141027   1.544   2.160   3.002 -1.3328 -1.3066 -0.1432
 9936SOL    HW241028   1.502   2.242   2.868 -0.3154  0.1201  0.3966
 9937SOL     OW41029   3.276   8.062   4.682  0.4383 -0.3402  0.2612
 9937SOL    HW141030   3.344   8.134   4.694  0.0758  0.2046 -0.8295
 9937SOL    HW241031   3.185   8.100   4.697  0.2382 -0.5224 -0.4452
 9938SOL     OW41032   4.244   8.867   1.132  0.5893 -0.5619 -0.5582
 9938SOL    HW141033   4.167   8.889   1.191 -1.2037 -2.7336 -1.9899
 9938SOL    HW241034   4.320   8.929   1.151 -0.5462 -0.0976  2.7478
 9939SOL     OW41035   2.800   3.706   5.424 -0.1201  0.0019  0.1623
 9939SOL    HW141036   2.736   3.666   5.359 -0.5042  0.9588 -0.0434
 9939SOL    HW241037   2.795   3.656   5.511 -2.4414  1.2121  0.7401
 9940SOL     OW41038   6.816   3.205   5.934 -0.2916  0.0516 -0.6119
 9940SOL    HW141039   6.762   3.125   5.961 -0.6704  0.5337  0.0886
 9940SOL    HW241040   6.762   3.262   5.872 -0.7109  0.7013  0.3488
 9941SOL     OW41041   0.697   3.985   3.754 -0.0789  0.1261 -0.1917
 9941SOL    HW141042   0.630   3.922   3.793 -0.3083 -0.8109 -2.0577
 9941SOL    HW241043   0.713   4.060   3.818 -1.8354 -0.3865  0.8845
 9942SOL     OW41044   8.910   9.170   2.308  0.1412 -0.1395  0.7791
 9942SOL    HW141045   8.989   9.115   2.283 -0.0188 -0.3039  0.6263
 9942SOL    HW241046   8.908   9.183   2.407  0.9818  0.8197  0.6805
 9943SOL     OW41047   1.409   7.708   4.330  0.0092  0.2647 -0.3626
 9943SOL    HW141048   1.452   7.638   4.387 -0.8621 -0.0331 -0.0595
 9943SOL    HW241049   1.479   7.755   4.276  0.7492  0.0534  0.4083
 9944SOL     OW41050   0.479   2.226   2.125  0.2407  0.1331 -0.0577
 9944SOL    HW141051   0.538   2.194   2.051  0.6654 -0.5132  0.5620
 9944SOL    HW241052   0.517   2.198   2.213 -0.0917  1.1750  0.4325
 9945SOL     OW41053   9.888   3.539   3.398  0.3910 -0.0187 -0.0170
 9945SOL    HW141054   9.930   3.451   3.423 -1.3179 -1.1135 -0.8439
 9945SOL    HW241055   9.864   3.589   3.481  0.9784 -0.5407  0.4723
 9946SOL     OW41056   0.873   5.286   3.081  0.5365 -0.2381 -0.0589
 9946SOL    HW141057   0.962   5.247   3.105  1.5049  2.4453  0.8885
 9946SOL    HW241058   0.809   5.271   3.156  0.7300 -0.5165  0.0545
 9947SOL     OW41059   3.620   5.327   4.106 -0.3049  0.0147  0.0678
 9947SOL    HW141060   3.633   5.229   4.122  1.7526  0.2205 -0.1440
 9947SOL    HW241061   3.524   5.346   4.087 -0.6771 -2.0052 -0.1499
 9948SOL     OW41062   0.774   2.678   1.404 -0.5495 -0.0687 -0.1301
 9948SOL    HW141063   0.819   2.766   1.391 -1.5196  0.1155 -2.4959
 9948SOL    HW241064   0.836   2.604   1.377 -0.2876 -0.0330  0.3691
 9949SOL     OW41065   8.479   8.344   2.348 -0.5160 -0.0801 -0.0134
 9949SOL    HW141066   8.502   8.403   2.270  1.1675 -0.9066 -0.1638
 9949SOL    HW241067   8.387   8.307   2.335  0.8034 -2.5143 -3.0948
 9950SOL     OW41068   2.619   8.539   2.993 -0.6867 -0.5444 -0.1843
 9950SOL    HW141069   2.660   8.449   2.986  1.0492  0.2215 -0.1017
 9950SOL    HW241070   2.578   8.550   3.084  1.5654 -0.2448  0.8228
 9951SOL     OW41071   2.489   0.152   0.927  0.7966 -0.1752  0.3883
 9951SOL    HW141072   2.492   0.136   1.025  0.0964 -0.1761  0.4116
 9951SOL    HW241073   2.471   0.249   0.910  0.4055 -0.2691  0.2636
 9952SOL     OW41074   2.163   5.130   1.724  0.3476 -0.0936  0.0444
 9952SOL    HW141075   2.210   5.043   1.708 -0.0768 -0.1978 -0.7052
 9952SOL    HW241076   2.111   5.154   1.642 -0.6029  0.1983  0.7284
 9953SOL     OW41077   9.535   9.582   5.379  0.4365  0.0120  0.5873
 9953SOL    HW141078   9.514   9.633   5.462 -1.4067 -0.9592  0.7265
 9953SOL    HW241079   9.475   9.612   5.305  1.4410  0.2103 -0.1668
 9954SOL     OW41080   8.663   4.659   5.532 -0.3771 -0.1280 -0.6535
 9954SOL    HW141081   8.755   4.629   5.557 -0.0924  0.4335 -1.0102
 9954SOL    HW241082   8.596   4.598   5.574  0.1801 -1.0606 -1.1057
 9955SOL     OW41083   7.433   9.033   6.031  0.0311 -0.7298  0.4656
 9955SOL    HW141084   7.344   9.055   5.990  0.1120  0.7493  1.0510
 9955SOL    HW241085   7.479   8.965   5.974  0.1761  1.3487 -2.0165
 9956SOL     OW41086   5.857   5.694   0.977 -0.0344  0.1787  0.0232
 9956SOL    HW141087   5.805   5.634   1.037  1.4522  0.4766  1.6378
 9956SOL    HW241088   5.795   5.761   0.935 -1.0576  0.1573  1.4580
 9957SOL     OW41089   6.764   8.045   4.851  0.1871  0.1497 -0.6630
 9957SOL    HW141090   6.747   8.130   4.801 -0.2732  0.3282 -0.2036
 9957SOL    HW241091   6.818   7.983   4.794  1.1940  1.0534 -0.7198
 9958SOL     OW41092   2.992   8.318   1.126 -1.0572 -0.6324  0.6752
 9958SOL    HW141093   2.910   8.311   1.068 -0.6952  1.9640 -0.2048
 9958SOL    HW241094   2.982   8.396   1.188  0.6613 -0.4281  0.7104
 9959SOL     OW41095   2.499   3.660   5.540  0.2630 -0.3334  0.2087
 9959SOL    HW141096   2.520   3.694   5.449  1.2055  0.2658  0.6365
 9959SOL    HW241097   2.566   3.589   5.565  0.7699  0.3834  0.9152
 9960SOL     OW41098   7.994   4.928   3.548  0.2139 -0.1891 -0.0050
 9960SOL    HW141099   8.020   5.015   3.506  1.8771 -0.4943  0.3832
 9960SOL    HW241100   7.994   4.856   3.479  3.2873 -0.7590  0.5465
 9961SOL     OW41101   7.296   3.675   4.266 -0.5230 -0.0622 -0.2763
 9961SOL    HW141102   7.335   3.631   4.185 -0.8060  0.6036 -0.7755
 9961SOL    HW241103   7.370   3.695   4.331 -0.6069 -2.9233  0.7701
 9962SOL     OW41104   8.747   4.269   1.230  0.3706 -0.2957  0.3403
 9962SOL    HW141105   8.779   4.285   1.137 -0.8208  0.0504 -0.0194
 9962SOL    HW241106   8.736   4.171   1.245  2.6271 -0.4919  0.8285
 9963SOL     OW41107   9.191   7.127   1.475  0.2317 -0.3839  0.0888
 9963SOL    HW141108   9.227   7.059   1.539 -1.1323 -0.8529  0.3725
 9963SOL    HW241109   9.176   7.213   1.524  0.3091 -0.3898  0.1236
 9964SOL     OW41110   3.501   7.589   4.093  0.0331  0.6640  0.0640
 9964SOL    HW141111   3.425   7.638   4.136  0.7777  1.3402  0.6081
 9964SOL    HW241112   3.582   7.594   4.151  0.7633  0.7401 -0.9428
 9965SOL     OW41113   3.059   4.109   1.174 -0.4659  0.0076 -0.7494
 9965SOL    HW141114   3.007   4.040   1.125 -2.7153  1.4885 -0.5352
 9965SOL    HW241115   3.024   4.118   1.267 -1.1670  2.3962 -1.2059
 9966SOL     OW41116   3.256   1.841   3.631 -0.4882 -0.1815 -0.8406
 9966SOL    HW141117   3.348   1.806   3.646 -0.2339  1.0440  0.4553
 9966SOL    HW241118   3.212   1.788   3.558  1.3307 -0.5883 -1.6617
 9967SOL     OW41119   9.843   1.386   1.289  0.1852 -0.3069  0.4034
 9967SOL    HW141120   9.897   1.315   1.335  0.4288  0.8603  1.9714
 9967SOL    HW241121   9.857   1.381   1.191  2.3353 -0.6887  0.7051
 9968SOL     OW41122   7.705   2.998   6.146  0.2484  0.0491  0.0013
 9968SOL    HW141123   7.750   3.082   6.117  0.2416  0.0359 -0.0471
 9968SOL    HW241124   7.613   2.995   6.107  0.9151 -0.8872 -1.5540
 9969SOL     OW41125   7.108   1.901   5.874  0.7699 -0.1299  0.4672
 9969SOL    HW141126   7.141   1.966   5.805  1.4404 -3.0943 -2.1026
 9969SOL    HW241127   7.183   1.840   5.901 -0.7288 -2.1882  0.0658
 9970SOL     OW41128   5.036   5.187   0.663 -0.2255 -0.3549  0.4613
 9970SOL    HW141129   5.120   5.218   0.618 -0.7197  0.6331  0.2052
 9970SOL    HW241130   5.048   5.188   0.762  0.2388 -0.7427  0.4132
 9971SOL     OW41131   9.222   1.150   1.958 -0.1678  0.8587 -0.4403
 9971SOL    HW141132   9.291   1.130   2.028 -1.1094  0.4539  0.3910
 9971SOL    HW241133   9.185   1.064   1.923 -1.0123  1.0809 -0.1029
 9972SOL     OW41134   5.969   8.224   4.411 -0.1892  0.4091  0.2632
 9972SOL    HW141135   5.908   8.300   4.435 -2.3172 -1.2581  0.2490
 9972SOL    HW241136   5.982   8.165   4.491 -1.2009 -1.0012 -0.5943
 9973SOL     OW41137   4.757   6.282   1.070 -0.5166 -0.5926 -0.3794
 9973SOL    HW141138   4.779   6.260   0.975 -0.8174 -0.7458 -0.4130
 9973SOL    HW241139   4.706   6.369   1.073  0.0879 -0.2377 -0.3017
 9974SOL     OW41140   4.561   9.685   7.244 -0.2212 -0.1407 -0.3087
 9974SOL    HW141141   4.511   9.625   7.182 -1.3347  0.7925 -0.3376
 9974SOL    HW241142   4.578   9.637   7.330 -0.2503 -0.8281 -0.6809
 9975SOL     OW41143   4.456   9.626   4.554 -0.2183 -0.3713  0.3013
 9975SOL    HW141144   4.498   9.715   4.573 -0.1805  0.2901 -2.6251
 9975SOL    HW241145   4.510   9.554   4.596 -0.4164  0.9919  2.9724
 9976SOL     OW41146   0.877   2.823   4.830  0.2734  0.3036 -0.3132
 9976SOL    HW141147   0.808   2.764   4.873  1.0025 -0.5408 -0.2889
 9976SOL    HW241148   0.958   2.769   4.807  0.8863  1.2597 -0.4559
 9977SOL     OW41149   9.740   3.166   3.910  0.0852 -0.4438 -0.4419
 9977SOL    HW141150   9.739   3.210   4.000 -1.5235  0.1953 -0.7586
 9977SOL    HW241151   9.800   3.217   3.849 -0.2166  0.1473 -0.2440
 9978SOL     OW41152   2.467   5.971   0.127 -0.1031  0.2446 -0.1675
 9978SOL    HW141153   2.545   6.032   0.139  0.3274  0.0472 -1.8492
 9978SOL    HW241154   2.497   5.889   0.078 -1.0914 -0.4312  0.3507
 9979SOL     OW41155   3.864   9.310   4.334  0.1253 -1.1571 -0.4117
 9979SOL    HW141156   3.860   9.217   4.369 -1.4355 -0.7437  0.5311
 9979SOL    HW241157   3.908   9.369   4.401 -2.0666 -0.5412  0.5300
 9980SOL     OW41158   8.900   6.248   1.585 -0.3039 -0.0794  0.2063
 9980SOL    HW141159   8.866   6.189   1.511 -1.5945 -0.6706  1.2620
 9980SOL    HW241160   8.942   6.329   1.545  0.6330 -1.2460 -1.2446
 9981SOL     OW41161   9.970   5.691   4.684 -0.1906 -0.0869  0.5306
 9981SOL    HW141162  10.002   5.774   4.639  0.3034 -0.9804 -0.7986
 9981SOL    HW241163  10.042   5.621   4.680 -1.5126 -1.4141 -0.6249
 9982SOL     OW41164   8.521   7.294   4.535  0.6767  0.9215  0.0210
 9982SOL    HW141165   8.524   7.194   4.529  2.7128  0.9883 -0.3418
 9982SOL    HW241166   8.426   7.324   4.535  0.0540 -0.9459 -1.0401
 9983SOL     OW41167   1.469   2.825   4.211  0.3044  0.0173 -0.3523
 9983SOL    HW141168   1.454   2.924   4.216  1.5144  0.2518 -1.2155
 9983SOL    HW241169   1.444   2.784   4.299  1.0532  1.2654  0.4582
 9984SOL     OW41170   0.111   5.493   5.000 -0.5356 -0.2508  0.1678
 9984SOL    HW141171   0.021   5.517   5.037 -1.0044 -0.7728 -0.6269
 9984SOL    HW241172   0.159   5.432   5.064 -1.2333 -0.9411  0.0291
 9985SOL     OW41173   4.914   9.188   5.978  0.2987  0.3695 -0.6545
 9985SOL    HW141174   4.956   9.153   5.894 -1.0454  0.2466 -1.2829
 9985SOL    HW241175   4.816   9.171   5.976 -0.1618  2.8416 -0.3156
 9986SOL     OW41176   3.973   5.278   1.100  0.3462  0.1801 -0.1413
 9986SOL    HW141177   4.065   5.291   1.135  0.0578  0.4325  0.5246
 9986SOL    HW241178   3.962   5.184   1.067  0.7811  0.1009 -0.0576
 9987SOL     OW41179   4.286   6.776   3.604  0.1872 -0.4514  0.4069
 9987SOL    HW141180   4.340   6.755   3.685  0.9488 -1.0251 -0.2390
 9987SOL    HW241181   4.346   6.778   3.523 -0.0071  3.2033  0.2629
 9988SOL     OW41182   0.231   3.936   1.102 -0.1956  0.4647 -0.5897
 9988SOL    HW141183   0.189   3.886   1.026 -0.0280  0.3818 -0.6277
 9988SOL    HW241184   0.161   3.958   1.170 -0.1378 -0.4408 -0.2360
 9989SOL     OW41185   8.953   3.940   2.532  0.2673 -0.1774  0.2774
 9989SOL    HW141186   8.932   4.033   2.503  1.0778 -0.2777 -0.6558
 9989SOL    HW241187   9.011   3.942   2.613 -1.4201  0.1100  1.5120
 9990SOL     OW41188   9.841   5.378   0.893  0.3049 -0.0986  0.0653
 9990SOL    HW141189   9.786   5.457   0.921 -0.3388 -0.7102  0.5669
 9990SOL    HW241190   9.936   5.391   0.923  0.7674  1.5916 -2.0096
 9991SOL     OW41191   5.981   7.538   4.227  0.3678  0.0374  0.0001
 9991SOL    HW141192   5.980   7.638   4.227  0.4900  0.0455  0.6864
 9991SOL    HW241193   6.071   7.506   4.197  1.1904  0.1818  2.1632
 9992SOL     OW41194   0.404   5.703   5.451  0.3220  0.0379  0.4343
 9992SOL    HW141195   0.327   5.651   5.415  1.5022 -0.9775 -0.6601
 9992SOL    HW241196   0.461   5.644   5.508 -0.1830  1.0129  1.9770
 9993SOL     OW41197   4.258   0.667   4.736  0.2368  0.5691  0.5125
 9993SOL    HW141198   4.339   0.620   4.771  1.2318  0.8430 -1.3572
 9993SOL    HW241199   4.261   0.669   4.637 -1.4147  1.7744  0.4635
 9994SOL     OW41200   2.283   6.300   1.181 -0.5945  0.0865 -0.2620
 9994SOL    HW141201   2.350   6.226   1.180 -1.1302 -0.4157  0.7773
 9994SOL    HW241202   2.249   6.314   1.274 -0.2481  1.8743 -0.3852
 9995SOL     OW41203   8.298   8.478   2.691 -0.4185  0.3722 -0.1459
 9995SOL    HW141204   8.370   8.544   2.669 -1.2163  1.3027  0.0217
 9995SOL    HW241205   8.326   8.387   2.660  1.3004  0.5268  0.8646
 9996SOL     OW41206   9.594   5.628   3.756  0.7859  0.2654 -0.3711
 9996SOL    HW141207   9.619   5.724   3.745  2.2989  0.1086  1.4194
 9996SOL    HW241208   9.584   5.606   3.853 -3.4791 -0.4706 -0.9016
 9997SOL     OW41209   8.957   1.116   6.101  0.6403  0.5221 -0.1893
 9997SOL    HW141210   9.045   1.159   6.121  0.1756  1.1609  0.5548
 9997SOL    HW241211   8.946   1.034   6.157  1.1356 -0.0617 -0.9347
 9998SOL     OW41212   3.609   0.568   3.464  0.3799 -0.3487  0.0280
 9998SOL    HW141213   3.581   0.472   3.464 -0.6805 -0.0445  0.9165
 9998SOL    HW241214   3.616   0.601   3.370  0.3394 -1.1811 -0.2697
 9999SOL     OW41215   4.692   4.740   8.117 -0.1970  0.2254 -1.0063
 9999SOL    HW141216   4.722   4.702   8.030 -1.7009 -0.6971 -1.1310
 9999SOL    HW241217   4.735   4.689   8.192  0.0769  0.1863 -1.1869
10000SOL     OW41218   8.679   0.863   3.202  0.2821 -0.3399  0.8198
10000SOL    HW141219   8.590   0.832   3.234  0.7013 -0.5537  1.8270
10000SOL    HW241220   8.742   0.785   3.200  0.4205 -0.2121  0.0082
10001SOL     OW41221   8.114   6.053   0.704  0.4963  0.6327 -0.1538
10001SOL    HW141222   8.096   5.955   0.714 -2.1444  1.0454 -0.4440
10001SOL    HW241223   8.104   6.098   0.792  0.9197  0.7493 -0.1669
10002SOL     OW41224   0.897   8.040   1.384  0.5412  0.4590  0.6522
10002SOL    HW141225   0.830   8.012   1.454  0.6902 -0.1351  0.5580
10002SOL    HW241226   0.915   8.138   1.393  0.0359  0.5234  1.0051
10003SOL     OW41227   9.487   5.084   0.707 -0.6541 -0.1091 -0.1995
10003SOL    HW141228   9.469   5.172   0.751  1.7098  0.4895 -0.3656
10003SOL    HW241229   9.516   5.099   0.613 -1.0259 -1.1217 -0.4797
10004SOL     OW41230   5.859   8.441   6.534  0.6322  0.4671  0.3357
10004SOL    HW141231   5.780   8.414   6.589  0.1136 -0.7712 -0.9761
10004SOL    HW241232   5.908   8.359   6.505  0.7036  1.0791 -1.3026
10005SOL     OW41233   7.882   2.636   5.431  0.2295 -0.0355 -0.4864
10005SOL    HW141234   7.937   2.558   5.400  0.1552 -0.0000 -0.7100
10005SOL    HW241235   7.786   2.621   5.406  0.2945  0.3627 -0.9966
10006SOL     OW41236   0.049   3.144   2.667  0.0880 -0.7716 -0.0394
10006SOL    HW141237  -0.043   3.130   2.703 -1.1983  0.8422 -2.5427
10006SOL    HW241238   0.086   3.230   2.703  0.8944 -1.6890  1.4043
10007SOL     OW41239   6.185   5.580   7.787  0.3054 -0.0817  0.5073
10007SOL    HW141240   6.248   5.567   7.710  1.6813  0.9987  1.4216
10007SOL    HW241241   6.230   5.636   7.857 -1.4822  0.2198  1.4283
10008SOL     OW41242   8.091   1.117   2.992  0.2395 -0.5792  0.0009
10008SOL    HW141243   8.060   1.023   2.976 -0.0365 -0.4421 -0.2687
10008SOL    HW241244   8.100   1.132   3.091 -1.0330 -0.4711  0.1173
10009SOL     OW41245   5.114   6.583   3.264 -0.6209  0.1659  0.3720
10009SOL    HW141246   5.179   6.518   3.225 -1.1128 -0.2110  0.1756
10009SOL    HW241247   5.067   6.631   3.190 -1.7983 -0.7905  0.4810
10010SOL     OW41248   5.879   2.455   3.573 -0.4123  0.3943 -0.3009
10010SOL    HW141249   5.939   2.533   3.587 -0.1478 -0.1693  1.9520
10010SOL    HW241250   5.785   2.482   3.590 -0.4059  0.4166 -0.3016
10011SOL     OW41251   9.499   2.619   6.145  0.2035  0.6992 -0.0954
10011SOL    HW141252   9.501   2.627   6.244 -2.7179  1.8435 -0.0870
10011SOL    HW241253   9.556   2.691   6.104  0.4379  0.9723  0.7133
10012SOL     OW41254   4.353   1.665   2.791  0.1079 -0.1789 -0.0804
10012SOL    HW141255   4.416   1.703   2.724  1.4529 -1.1504  0.5996
10012SOL    HW241256   4.268   1.717   2.791  1.8534  2.7828  0.7840
10013SOL     OW41257   9.929   8.034   1.724  0.7690  0.1696  0.0977
10013SOL    HW141258   9.899   7.941   1.747 -1.9598  1.9783  4.5187
10013SOL    HW241259   9.850   8.087   1.692  1.4962  1.9985  1.2619
10014SOL     OW41260   1.660   6.410   0.329 -0.0788  0.1227  0.3412
10014SOL    HW141261   1.749   6.398   0.374 -0.0666 -0.0380  0.2775
10014SOL    HW241262   1.664   6.370   0.237 -0.2147  0.1215  0.3357
10015SOL     OW41263   7.880   0.167   4.236 -0.0413  0.0991  0.2338
10015SOL    HW141264   7.864   0.227   4.315 -2.0699 -1.2589  0.8978
10015SOL    HW241265   7.914   0.079   4.269  0.2617 -0.0650 -0.5182
10016SOL     OW41266   5.000   7.838   5.346 -0.6622 -0.1069 -0.1341
10016SOL    HW141267   5.013   7.778   5.267  0.6587  0.6107 -0.4732
10016SOL    HW241268   4.934   7.909   5.323 -0.6520 -0.1927 -0.4269
10017SOL     OW41269   4.429   3.215   3.922  0.9715 -0.2564  0.1709
10017SOL    HW141270   4.459   3.208   3.827  0.1857 -1.2142 -0.0156
10017SOL    HW241271   4.341   3.262   3.926  1.6480  0.9848  0.5519
10018SOL     OW41272   8.071   1.806   2.307  0.3042  0.5499 -1.1742
10018SOL    HW141273   8.101   1.716   2.338  1.3495  1.2325 -0.1253
10018SOL    HW241274   8.067   1.808   2.207  0.0153 -0.7264 -1.1943
10019SOL     OW41275   6.633   3.346   4.538  0.0318  0.9486 -0.4451
10019SOL    HW141276   6.622   3.324   4.635 -1.6440  0.8276 -0.6366
10019SOL    HW241277   6.726   3.378   4.521  1.1357 -1.5023  0.7237
10020SOL     OW41278   3.807   3.853   3.720 -0.2766  0.5152  0.2292
10020SOL    HW141279   3.778   3.887   3.630  0.6592  0.2814 -0.1701
10020SOL    HW241280   3.826   3.930   3.780 -1.1956  0.6724  0.3221
10021SOL     OW41281   9.257   9.535   2.155  0.1053 -0.5121  0.0922
10021SOL    HW141282   9.277   9.439   2.133  0.3404 -0.3327 -0.4796
10021SOL    HW241283   9.160   9.544   2.179 -0.2625 -0.6176 -1.3503
10022SOL     OW41284   2.051   7.082   7.921 -0.3468  0.0795  0.1862
10022SOL    HW141285   2.027   7.152   7.988 -2.7379 -0.0413 -0.5080
10022SOL    HW241286   2.006   7.101   7.834  1.1050 -0.8796 -0.8188
10023SOL     OW41287   1.390   1.574   3.362 -0.4173 -0.5405  0.0021
10023SOL    HW141288   1.359   1.533   3.276 -0.5378 -1.5792  0.5413
10023SOL    HW241289   1.481   1.613   3.350 -0.4753 -0.5984 -0.6203
10024SOL     OW41290   9.312   2.584   3.168  0.4045 -0.1701 -0.2946
10024SOL    HW141291   9.342   2.552   3.078 -1.1326  0.4505 -1.0499
10024SOL    HW241292   9.257   2.513   3.213  0.0594  0.0168 -0.4170
10025SOL     OW41293   8.071   6.574   5.673 -0.0750 -0.4586  0.3385
10025SOL    HW141294   8.069   6.643   5.600  1.8980 -1.2188 -0.5045
10025SOL    HW241295   8.077   6.619   5.762 -0.5150  0.4694 -0.0947
10026SOL     OW41296   2.072   0.681   5.140 -0.3145  0.3491 -0.0637
10026SOL    HW141297   1.999   0.667   5.206  0.2516 -0.0925  0.4704
10026SOL    HW241298   2.039   0.741   5.067 -1.1553  0.2876  0.2547
10027SOL     OW41299   4.832   3.327   4.258 -0.2402  0.2932  0.0286
10027SOL    HW141300   4.773   3.314   4.178 -0.7523  2.7426 -0.0307
10027SOL    HW241301   4.836   3.241   4.310 -2.0524 -0.5617 -1.1760
10028SOL     OW41302   1.518   2.799   4.755 -0.0881 -0.3161  0.4170
10028SOL    HW141303   1.421   2.817   4.772  0.7445  0.3088  5.1586
10028SOL    HW241304   1.562   2.884   4.725 -1.1170 -0.8214 -2.6875
10029SOL     OW41305   9.133   2.025   3.620 -0.4856  0.2204  0.4333
10029SOL    HW141306   9.213   1.973   3.650 -1.1151  0.9686  3.5057
10029SOL    HW241307   9.054   1.965   3.615 -0.0246 -0.2738 -1.5198
10030SOL     OW41308   2.593   8.778   3.932 -0.0548 -0.2978  0.2181
10030SOL    HW141309   2.629   8.743   3.845  2.8665  0.8573  0.9070
10030SOL    HW241310   2.620   8.874   3.942 -2.7925  0.4158  1.1341
10031SOL     OW41311   5.344   1.374   5.219 -0.2283  0.2931  0.4185
10031SOL    HW141312   5.303   1.326   5.296 -1.8856 -0.0018 -0.6102
10031SOL    HW241313   5.359   1.309   5.144  0.6618  0.7247  0.2202
10032SOL     OW41314   2.595   0.183   6.157  0.5279  0.6457  0.6933
10032SOL    HW141315   2.592   0.177   6.057 -0.2962  0.4553  0.7280
10032SOL    HW241316   2.590   0.279   6.184 -0.9169  0.6021  0.6015
10033SOL     OW41317   2.444   7.664   1.916 -0.1039  0.1568 -0.1323
10033SOL    HW141318   2.407   7.572   1.928  0.0240  0.1770  0.3985
10033SOL    HW241319   2.461   7.706   2.005  0.2885  0.5156 -0.3724
10034SOL     OW41320   1.753   8.300   2.451 -0.4942 -0.0164  0.0941
10034SOL    HW141321   1.768   8.305   2.549 -1.2417  2.0252  0.1375
10034SOL    HW241322   1.839   8.279   2.404  0.2792  1.0071  1.0463
10035SOL     OW41323   3.499   2.505   2.878  0.0870  0.2568 -0.6227
10035SOL    HW141324   3.483   2.561   2.797 -1.5061  2.8288  1.3813
10035SOL    HW241325   3.416   2.453   2.900  0.3217  0.0089 -0.3201
10036SOL     OW41326   0.223   8.948   0.111 -0.5439  0.5990 -0.7174
10036SOL    HW141327   0.167   9.008   0.169 -0.5972 -1.5076  1.4847
10036SOL    HW241328   0.175   8.861   0.098  0.9902 -0.1850 -1.1553
10037SOL     OW41329   7.836   4.973   5.257 -0.4720 -0.2837  0.6199
10037SOL    HW141330   7.737   4.989   5.263 -0.3347  1.5515 -1.3319
10037SOL    HW241331   7.855   4.912   5.180 -0.0476 -0.3356  0.7662
10038SOL     OW41332   1.658   9.876   5.998 -0.3578  0.0086  0.4976
10038SOL    HW141333   1.754   9.869   6.026 -0.4142 -0.6849  0.5230
10038SOL    HW241334   1.653   9.905   5.903 -0.1161 -0.1258  0.4424
10039SOL     OW41335   6.630   2.214   1.001  0.8865  0.1741  0.0675
10039SOL    HW141336   6.566   2.181   1.069 -0.3183  0.3713 -0.9494
10039SOL    HW241337   6.585   2.218   0.912  1.3735  3.2348 -0.0912
10040SOL     OW41338   9.026   6.660   3.452  0.1613 -0.0228 -0.2870
10040SOL    HW141339   9.005   6.749   3.413  0.8882  0.5491  0.6008
10040SOL    HW241340   8.948   6.628   3.507  0.0257  0.2192 -0.3395
10041SOL     OW41341   3.444   6.955   2.617 -0.2846  0.2894 -0.2783
10041SOL    HW141342   3.478   7.006   2.538 -1.1632 -0.6586 -1.2828
10041SOL    HW241343   3.512   6.887   2.644 -0.1731  0.3162 -0.4883
10042SOL     OW41344   8.820   7.987   5.639  0.3863 -0.3214  0.3988
10042SOL    HW141345   8.777   7.897   5.628 -0.3097 -0.0591  0.9086
10042SOL    HW241346   8.755   8.049   5.682 -0.1928  1.3010 -2.6983
10043SOL     OW41347   4.492   3.391   1.364  0.0807 -0.4480 -0.2696
10043SOL    HW141348   4.427   3.324   1.401  2.1860 -2.4399 -0.1447
10043SOL    HW241349   4.571   3.344   1.325  1.2898  1.9428 -0.7892
10044SOL     OW41350   3.345   9.878   5.411 -0.3300 -0.2773  0.3098
10044SOL    HW141351   3.358   9.844   5.318  0.4526  2.3932 -0.6109
10044SOL    HW241352   3.417   9.843   5.470 -0.9053 -2.0945 -0.0211
10045SOL     OW41353   0.566   1.576   1.656 -0.2778 -0.1990  0.6145
10045SOL    HW141354   0.547   1.483   1.624  1.0639 -0.1614 -0.3625
10045SOL    HW241355   0.484   1.633   1.646 -0.7783 -0.9944  0.1563
10046SOL     OW41356   8.445   1.402   2.897 -0.1234 -0.6698 -0.6865
10046SOL    HW141357   8.364   1.384   2.952 -0.0166  1.1750  0.1115
10046SOL    HW241358   8.440   1.495   2.859  2.0652 -0.1691  0.1784
10047SOL     OW41359   7.463   6.862   6.674  0.2341  0.2849 -0.0932
10047SOL    HW141360   7.439   6.775   6.716  0.9861  0.2048  0.1899
10047SOL    HW241361   7.384   6.924   6.675 -0.2282 -0.3069 -0.0805
10048SOL     OW41362   7.545   8.242   6.415 -0.4433 -0.3389 -0.1123
10048SOL    HW141363   7.511   8.167   6.359 -1.3107  0.3757 -0.5459
10048SOL    HW241364   7.538   8.328   6.364  1.1506 -0.0449  0.1279
10049SOL     OW41365   3.457   5.013   3.719 -0.4909  0.1784 -0.4024
10049SOL    HW141366   3.480   5.008   3.816 -2.7350 -0.9342  0.1172
10049SOL    HW241367   3.516   5.080   3.673  1.4431 -0.2236  1.4514
10050SOL     OW41368   0.425   6.988   1.849 -0.4397  0.4016  0.4014
10050SOL    HW141369   0.451   7.037   1.933 -0.7888  0.2213  0.6132
10050SOL    HW241370   0.487   7.014   1.775 -0.1560  0.5940  0.7056
10051SOL     OW41371   9.736   2.926   6.438 -0.0293 -0.2885  0.2841
10051SOL    HW141372   9.704   2.965   6.524  0.6414 -0.2647  0.5255
10051SOL    HW241373   9.691   2.972   6.361  0.0457  0.3059  0.5934
10052SOL     OW41374   4.426   0.378   6.532  0.4289  0.4271  0.2012
10052SOL    HW141375   4.519   0.362   6.499 -0.1135 -1.1345 -0.5904
10052SOL    HW241376   4.420   0.471   6.570  2.3821  0.4332  0.5495
10053SOL     OW41377   8.448   5.027   1.582  0.0991  0.2583  0.5881
10053SOL    HW141378   8.365   5.049   1.634 -0.1398 -0.2375  0.4162
10053SOL    HW241379   8.423   4.985   1.495  0.4973  1.3391 -0.0477
10054SOL     OW41380   3.386   5.664   2.617 -0.1614  0.6432  0.2849
10054SOL    HW141381   3.437   5.589   2.574  0.9056  1.7448 -0.4151
10054SOL    HW241382   3.445   5.712   2.682 -1.4102 -0.2673  2.1080
10055SOL     OW41383   2.375   0.186   1.478  0.3581  0.0351  0.1411
10055SOL    HW141384   2.285   0.220   1.505  0.7181  0.0788  1.3517
10055SOL    HW241385   2.371   0.147   1.386 -1.2712 -1.4646  0.8313
10056SOL     OW41386   0.657   8.832   2.164 -0.1532 -0.6443 -0.3105
10056SOL    HW141387   0.625   8.913   2.213 -2.6260 -1.1145 -1.0664
10056SOL    HW241388   0.581   8.769   2.151  1.7557 -3.1793  0.3962
10057SOL     OW41389   3.194   6.405   0.042  0.4604 -0.3607 -1.0682
10057SOL    HW141390   3.104   6.445   0.022  1.1915  1.3200 -1.0835
10057SOL    HW241391   3.182   6.330   0.107 -0.5319  3.0171  2.8842
10058SOL     OW41392   1.273   0.088   2.717 -0.3785 -0.0235 -0.0804
10058SOL    HW141393   1.229   0.167   2.674 -1.9164  0.7299  2.7169
10058SOL    HW241394   1.218   0.059   2.796  2.4327 -1.1663  1.5156
10059SOL     OW41395   4.711   2.001   6.227  0.5035 -0.1760  0.2971
10059SOL    HW141396   4.674   1.908   6.232  0.9052 -0.2512  2.6001
10059SOL    HW241397   4.665   2.059   6.294 -0.7302  1.6829 -2.0868
10060SOL     OW41398   2.645   7.021   3.053 -0.7346 -0.2501 -0.2520
10060SOL    HW141399   2.724   7.029   2.991  0.8160  1.8160  1.8799
10060SOL    HW241400   2.563   7.055   3.007  0.0295 -0.4007 -1.7631
10061SOL     OW41401   3.354   4.966   4.495 -0.2239  0.3068  0.1347
10061SOL    HW141402   3.377   5.059   4.467 -2.3818  1.0146  0.6298
10061SOL    HW241403   3.292   4.925   4.427 -2.5506  0.7289  1.9442
10062SOL     OW41404   3.210   6.915   1.717  0.2228  0.3369  0.4948
10062SOL    HW141405   3.221   6.816   1.709  0.2924  0.3569  0.3172
10062SOL    HW241406   3.300   6.957   1.726  0.3816  0.5759 -1.8466
10063SOL     OW41407   6.165   1.618   4.756  0.1504  0.0605 -0.1035
10063SOL    HW141408   6.235   1.547   4.755 -0.1911 -0.3045  0.9037
10063SOL    HW241409   6.166   1.668   4.669  0.3482 -1.2112 -0.8328
10064SOL     OW41410   4.608   4.880   4.186 -0.0336  0.6262  0.4179
10064SOL    HW141411   4.600   4.956   4.122  1.0130  0.7284  0.3989
10064SOL    HW241412   4.553   4.899   4.268 -1.2958  0.5396 -0.3949
10065SOL     OW41413   0.212   4.355   2.015  0.2500 -0.0197 -0.0569
10065SOL    HW141414   0.115   4.329   2.022  0.6621 -1.0292  2.5367
10065SOL    HW241415   0.264   4.309   2.087  2.4239  1.6361 -0.5121
10066SOL     OW41416   0.929   4.415   2.880  0.1617  0.3731  0.2755
10066SOL    HW141417   0.999   4.426   2.809  0.4159  0.5568  0.5523
10066SOL    HW241418   0.935   4.323   2.918  1.4111  0.9457  1.5099
10067SOL     OW41419   1.106   5.213   4.458 -0.3873  0.4399  0.0020
10067SOL    HW141420   1.192   5.244   4.497  0.2665  0.9024 -1.7614
10067SOL    HW241421   1.088   5.119   4.487  1.2643 -0.0473 -0.5350
10068SOL     OW41422   1.498   0.957   2.959  0.2080  0.5178  0.0381
10068SOL    HW141423   1.501   0.912   3.048 -0.3146 -0.8962 -0.6380
10068SOL    HW241424   1.403   0.982   2.937  0.2959  0.6197 -0.2331
10069SOL     OW41425   7.635   9.793   4.738  0.2292 -0.5850 -0.3583
10069SOL    HW141426   7.602   9.736   4.663 -1.4648 -0.9874  0.6647
10069SOL    HW241427   7.560   9.848   4.774  0.9716 -0.5533  1.1805
10070SOL     OW41428   1.091   2.816   1.638 -0.7462  0.1721 -0.4695
10070SOL    HW141429   1.015   2.870   1.673 -0.5628 -0.6883  1.2763
10070SOL    HW241430   1.136   2.768   1.713  0.4390 -0.7100 -1.7127
10071SOL     OW41431   8.925   4.690   3.693  0.0933 -0.1843  0.0670
10071SOL    HW141432   9.018   4.653   3.692 -0.3416 -1.3516  1.5121
10071SOL    HW241433   8.868   4.640   3.629 -0.4733 -2.0357  1.9589
10072SOL     OW41434   3.117   8.215   6.211 -0.4019 -0.5240 -0.4253
10072SOL    HW141435   3.131   8.300   6.160 -0.5492 -0.2905 -0.0741
10072SOL    HW241436   3.204   8.184   6.249 -0.4810 -0.1412  0.0661
10073SOL     OW41437   6.912   6.348   5.917  0.2207 -0.4592  0.0814
10073SOL    HW141438   6.831   6.292   5.903  0.4954 -0.8215 -0.0672
10073SOL    HW241439   6.988   6.310   5.865 -0.0415  1.0632 -1.4392
10074SOL     OW41440   6.061   1.017   3.343  0.2394 -0.8064  0.0544
10074SOL    HW141441   6.040   1.111   3.318  1.2082 -0.3402  0.9471
10074SOL    HW241442   6.157   1.011   3.371 -0.2422 -1.7343  1.5467
10075SOL     OW41443   3.699   2.803   5.789 -0.3592 -0.3511  0.2584
10075SOL    HW141444   3.734   2.867   5.720 -2.1562 -0.5847 -0.8807
10075SOL    HW241445   3.676   2.716   5.746 -2.4072 -0.1890  0.9623
10076SOL     OW41446   0.643   5.618   0.383 -0.6221 -0.7101  0.1505
10076SOL    HW141447   0.599   5.576   0.304  1.6199 -1.2561 -0.8402
10076SOL    HW241448   0.677   5.547   0.445 -1.0579 -0.2994  0.8722
10077SOL     OW41449   1.374   6.913   4.707 -0.0484  0.0226  0.1162
10077SOL    HW141450   1.437   6.924   4.784 -0.5730 -0.6262  0.6371
10077SOL    HW241451   1.280   6.926   4.739 -0.1669  1.3016 -0.7203
10078SOL     OW41452   0.679   3.411   4.830 -0.1477 -0.2690 -0.1296
10078SOL    HW141453   0.691   3.510   4.833 -0.4942 -0.1759 -1.3993
10078SOL    HW241454   0.754   3.367   4.879  1.2760  0.5478 -1.5166
10079SOL     OW41455   3.656   8.587   2.245 -0.2441  0.0374  0.1100
10079SOL    HW141456   3.591   8.514   2.223 -0.3546 -1.4110  4.6030
10079SOL    HW241457   3.610   8.675   2.243 -1.4431 -0.5898 -0.3356
10080SOL     OW41458   4.007   1.211   2.284  0.2245  0.3070 -0.4224
10080SOL    HW141459   4.042   1.251   2.369 -1.2984  0.6477  0.0725
10080SOL    HW241460   4.082   1.196   2.220  1.0817  2.1036  0.1506
10081SOL     OW41461   7.413   0.316   2.564 -0.4879  0.1308  0.0540
10081SOL    HW141462   7.508   0.316   2.534  0.0193  1.0101  1.6001
10081SOL    HW241463   7.352   0.320   2.484  0.8132  2.0904 -0.8880
10082SOL     OW41464   3.036   8.194   3.429 -0.4060  0.2291  0.4140
10082SOL    HW141465   3.050   8.109   3.378 -0.5025  0.3133  0.2484
10082SOL    HW241466   2.949   8.189   3.479 -0.1930  0.0507  0.7671
10083SOL     OW41467   1.653   3.925   0.857 -0.0750  0.7585  0.2322
10083SOL    HW141468   1.601   4.003   0.892  0.4690  0.4078  1.8787
10083SOL    HW241469   1.651   3.851   0.924 -1.4640 -1.0651 -1.7606
10084SOL     OW41470   3.609   9.919   5.154 -0.2963 -0.3343 -0.3947
10084SOL    HW141471   3.701   9.916   5.114 -0.0448  0.2410  0.1275
10084SOL    HW241472   3.615   9.895   5.251 -0.3602  2.0956  0.2288
10085SOL     OW41473   1.140   9.421   0.911  0.5099 -0.4054 -0.3670
10085SOL    HW141474   1.098   9.477   0.838  0.3242  0.1852  0.1885
10085SOL    HW241475   1.105   9.451   1.000  0.2749 -1.5412 -0.0782
10086SOL     OW41476   5.881   1.201   3.108  0.4567 -0.8660 -0.0643
10086SOL    HW141477   5.889   1.274   3.175 -1.1929 -0.3574 -0.4052
10086SOL    HW241478   5.833   1.123   3.149  2.0015 -1.6931  0.2276
10087SOL     OW41479   7.025   1.178   0.305  0.0397  0.2491 -0.2648
10087SOL    HW141480   7.061   1.136   0.222  1.9192  1.3387 -0.0189
10087SOL    HW241481   7.059   1.272   0.313 -0.4510  0.2914  1.5183
10088SOL     OW41482   6.962   0.564   2.747 -0.6184 -0.7469 -0.1417
10088SOL    HW141483   6.884   0.522   2.701 -1.6405 -0.4497  1.2737
10088SOL    HW241484   7.018   0.613   2.680 -3.0207  1.1548 -0.8505
10089SOL     OW41485   4.713   8.799   2.295 -0.3469  0.4128  0.0673
10089SOL    HW141486   4.646   8.839   2.232  0.0556  1.2385  0.1626
10089SOL    HW241487   4.805   8.826   2.268  0.1686 -2.5634 -1.4386
10090SOL     OW41488   5.714   0.753   1.591  0.2816 -0.2609  0.2884
10090SOL    HW141489   5.753   0.712   1.674 -3.1266 -0.6389  1.7949
10090SOL    HW241490   5.669   0.681   1.537  1.8622  0.1045 -1.5831
10091SOL     OW41491   8.916   3.159   1.294  0.3033 -0.0652 -0.3610
10091SOL    HW141492   8.826   3.158   1.250 -1.5056 -0.5636  3.1749
10091SOL    HW241493   8.952   3.066   1.297 -0.3681 -0.2933  0.7487
10092SOL     OW41494   7.961   8.542   1.506 -0.9281  0.2366  0.3951
10092SOL    HW141495   8.029   8.616   1.508 -0.8255  0.1454  0.3055
10092SOL    HW241496   7.962   8.499   1.416  0.5458 -1.3097  1.1294
10093SOL     OW41497   2.610   0.591   5.899  0.3533  0.2777  0.4729
10093SOL    HW141498   2.536   0.615   5.836  1.2476  3.3884  0.5573
10093SOL    HW241499   2.597   0.640   5.986  0.9029 -1.4753  1.5722
10094SOL     OW41500   0.023   3.448   0.664 -0.0157  0.4169 -0.2409
10094SOL    HW141501  -0.027   3.419   0.582  1.0247 -0.2238 -0.6622
10094SOL    HW241502   0.017   3.377   0.734  1.2644 -0.1841 -0.7209
10095SOL     OW41503   0.218   8.839   5.265 -0.4109 -0.2525  0.0766
10095SOL    HW141504   0.300   8.784   5.249  0.3252  1.0491 -0.7722
10095SOL    HW241505   0.165   8.800   5.341  1.6466 -0.3710  1.4788
10096SOL     OW41506   3.109   3.405   5.416 -0.2628 -0.0784 -0.1883
10096SOL    HW141507   3.207   3.424   5.425  0.3778 -3.5556  1.0885
10096SOL    HW241508   3.076   3.441   5.328  1.6664  2.8536  0.2300
10097SOL     OW41509   8.299   0.650   1.716 -0.0296  0.1426  0.2001
10097SOL    HW141510   8.237   0.724   1.691  0.0555 -0.6338 -2.4474
10097SOL    HW241511   8.383   0.688   1.756 -0.9383  1.3274  1.0067
10098SOL     OW41512   1.192   4.291   1.848  0.2683 -0.3529 -0.0165
10098SOL    HW141513   1.252   4.229   1.899  0.1251 -1.3530 -1.0421
10098SOL    HW241514   1.200   4.383   1.886  1.4415 -0.7414  0.7196
10099SOL     OW41515   0.752   5.787   2.580 -0.3457  0.0411  0.2425
10099SOL    HW141516   0.770   5.874   2.628 -1.3115  0.1954  0.3337
10099SOL    HW241517   0.839   5.746   2.554  0.1430  0.8189  0.5922
10100SOL     OW41518   1.309   8.470   3.478  0.9351 -0.3578 -1.0344
10100SOL    HW141519   1.375   8.501   3.546 -2.8670  1.8783  1.8458
10100SOL    HW241520   1.278   8.549   3.424 -0.9320 -0.9412 -0.8504
10101SOL     OW41521   5.045   8.026   3.384 -0.1632  0.2589  0.2937
10101SOL    HW141522   5.081   7.934   3.374  0.1020  0.5713 -1.9218
10101SOL    HW241523   5.028   8.065   3.294 -0.4576  2.3084  1.2046
10102SOL     OW41524   0.588   4.053   1.524 -0.3910  0.2085  0.4695
10102SOL    HW141525   0.641   4.016   1.448 -0.8401  0.6063 -0.0424
10102SOL    HW241526   0.648   4.067   1.602 -0.3002 -1.9937  0.8245
10103SOL     OW41527   3.571   2.834   6.032 -0.2641  0.0165  0.0343
10103SOL    HW141528   3.526   2.746   6.046  1.4909 -0.7269  1.2004
10103SOL    HW241529   3.638   2.825   5.958  0.5007  0.1375  0.7074
10104SOL     OW41530   3.130   5.210   2.814  0.0566  0.8335  0.2992
10104SOL    HW141531   3.158   5.124   2.771  0.0973  0.1220  1.7152
10104SOL    HW241532   3.132   5.284   2.746  0.9677 -0.0875 -0.6943
10105SOL     OW41533   8.163   1.427   2.007 -0.0425  0.1657 -0.8227
10105SOL    HW141534   8.109   1.344   2.014  2.0997 -1.2022 -0.2225
10105SOL    HW241535   8.127   1.496   2.071 -3.2046  0.5597 -2.8887
10106SOL     OW41536   3.682   7.484   3.446 -0.1030  0.5596 -0.1821
10106SOL    HW141537   3.715   7.389   3.448 -0.6047  0.3894 -0.0698
10106SOL    HW241538   3.759   7.546   3.464  0.5763  0.2543 -1.8868
10107SOL     OW41539   2.704   6.178   3.633  0.0216 -0.1150  0.3751
10107SOL    HW141540   2.690   6.080   3.615 -1.6047  0.1511  0.1115
10107SOL    HW241541   2.729   6.225   3.549 -1.8920  0.1453 -0.0734
10108SOL     OW41542   2.755   4.490   5.136  0.6461  0.3914 -0.1947
10108SOL    HW141543   2.698   4.408   5.148 -0.4701  1.2374  0.4300
10108SOL    HW241544   2.721   4.563   5.195  1.1370  1.5556 -1.3241
10109SOL     OW41545   9.277   8.772   6.037 -0.2394  0.0607 -0.1502
10109SOL    HW141546   9.356   8.833   6.043 -0.6808  0.7381 -1.1776
10109SOL    HW241547   9.278   8.709   6.115  1.1394  0.2709  0.0209
10110SOL     OW41548   9.702   8.058   5.077  0.0546  0.0297 -0.3609
10110SOL    HW141549   9.706   7.976   5.134  0.9635  0.9856  1.0093
10110SOL    HW241550   9.772   8.054   5.006 -0.6488 -0.8828 -1.0010
10111SOL     OW41551   1.957   2.164   1.909 -0.1276 -0.5247  0.1733
10111SOL    HW141552   2.036   2.158   1.970  0.4429 -0.5503 -0.5639
10111SOL    HW241553   1.914   2.254   1.919  0.9841  0.1071 -0.6305
10112SOL     OW41554   2.515   3.409   2.476  0.5088  0.3165 -0.0478
10112SOL    HW141555   2.437   3.419   2.537  0.5730 -0.2469  0.1281
10112SOL    HW241556   2.493   3.451   2.388  0.1092  0.4079  0.0924
10113SOL     OW41557   4.021   6.194   3.228 -0.3175 -0.2325  0.0674
10113SOL    HW141558   3.958   6.199   3.150  0.2520 -0.5981 -0.4229
10113SOL    HW241559   4.023   6.282   3.276  0.3370  0.4143 -1.1240
10114SOL     OW41560   4.165   6.644   3.196  0.0276  0.6073 -0.1068
10114SOL    HW141561   4.229   6.594   3.137  0.7705 -0.6528  1.7306
10114SOL    HW241562   4.072   6.608   3.182  0.2721  0.0006 -0.1749
10115SOL     OW41563   0.352   5.237   3.334 -0.1305 -0.0990  0.3766
10115SOL    HW141564   0.429   5.299   3.323 -1.1529  1.0955 -0.1016
10115SOL    HW241565   0.330   5.196   3.246 -1.4547  1.2529  0.0762
10116SOL     OW41566   8.120   5.920   3.268  0.1306  0.3455  0.3946
10116SOL    HW141567   8.176   5.949   3.190  0.1265  1.3383  0.7575
10116SOL    HW241568   8.086   5.828   3.251  0.3453  0.4472 -0.6617
10117SOL     OW41569   4.411   1.622   5.805  0.2417 -0.0811  0.2014
10117SOL    HW141570   4.326   1.616   5.858 -0.9092  1.9184 -1.3761
10117SOL    HW241571   4.470   1.544   5.829 -1.0225 -0.2523  3.0283
10118SOL     OW41572   0.351   2.338   4.596  0.2060  0.4094  0.1096
10118SOL    HW141573   0.266   2.287   4.607  0.4807  0.3400  1.9985
10118SOL    HW241574   0.330   2.431   4.566 -0.4039 -0.1652 -1.3225
10119SOL     OW41575   6.018   0.300   1.709  0.0562  0.6699  0.0401
10119SOL    HW141576   5.923   0.325   1.691 -0.2472 -0.2035  0.4300
10119SOL    HW241577   6.021   0.213   1.758  1.1618 -0.9461 -2.7563
10120SOL     OW41578   7.811   2.445   6.263  0.0019 -0.3282  0.1572
10120SOL    HW141579   7.852   2.390   6.190 -1.6601 -1.1170 -0.1967
10120SOL    HW241580   7.789   2.535   6.228  0.9474 -0.0587  0.2201
10121SOL     OW41581   7.575   6.507   3.879 -0.5491 -0.1604  0.5069
10121SOL    HW141582   7.609   6.542   3.966 -2.0072  0.2451  0.9271
10121SOL    HW241583   7.598   6.571   3.806  0.3411 -0.3191  0.6340
10122SOL     OW41584   3.412   3.810   4.061  0.2431  0.3109 -0.1878
10122SOL    HW141585   3.476   3.771   3.996  1.2168  0.3408  0.7475
10122SOL    HW241586   3.438   3.904   4.081  1.4937 -0.5017  2.2140
10123SOL     OW41587   8.834   1.307   5.285 -0.0499  0.6092  0.6134
10123SOL    HW141588   8.793   1.397   5.268 -3.0115 -0.0797  3.6752
10123SOL    HW241589   8.769   1.235   5.264  1.0074 -0.6945  1.6852
10124SOL     OW41590   1.773   4.798   3.848  0.1896  0.0797 -0.3544
10124SOL    HW141591   1.823   4.821   3.932 -1.2748  0.3576  0.4494
10124SOL    HW241592   1.761   4.881   3.794  1.2874 -0.1290 -0.9467
10125SOL     OW41593   4.323   2.006   2.752 -0.1684  0.4163  0.1763
10125SOL    HW141594   4.327   2.017   2.852 -0.1590  0.7813  0.1383
10125SOL    HW241595   4.317   2.097   2.709  1.8565  0.3710 -0.2370
10126SOL     OW41596   7.911   7.816   5.425  0.2894 -0.8059  0.3572
10126SOL    HW141597   7.912   7.750   5.349 -0.2798  0.9226 -1.1739
10126SOL    HW241598   7.998   7.865   5.426 -0.0611 -0.1831  0.2419
10127SOL     OW41599   9.033   2.474   6.547  0.1487  0.0366  0.1267
10127SOL    HW141600   8.979   2.391   6.538  1.7377 -0.9050 -0.9620
10127SOL    HW241601   8.995   2.546   6.489 -0.2348 -0.4592 -0.2331
10128SOL     OW41602   9.519   3.204   3.699 -0.7034 -0.1987  0.0971
10128SOL    HW141603   9.522   3.105   3.712  1.7846 -0.6053 -2.8552
10128SOL    HW241604   9.572   3.249   3.771 -0.2378 -1.1803  0.3735
10129SOL     OW41605   2.529   3.902   0.203 -0.0473 -0.4993 -0.3965
10129SOL    HW141606   2.485   3.820   0.239 -0.4207 -0.4898 -0.8365
10129SOL    HW241607   2.460   3.965   0.167  0.3300 -0.5616 -1.2410
10130SOL     OW41608   9.996   1.141   2.434  0.6007  0.1241  0.0581
10130SOL    HW141609   9.982   1.044   2.450  0.5627 -0.0692 -1.1004
10130SOL    HW241610   9.955   1.167   2.346 -0.5676  1.4635  0.9709
10131SOL     OW41611   6.305   2.830   7.949  0.0279 -0.6084 -0.3780
10131SOL    HW141612   6.401   2.850   7.929  0.2421 -0.6451  0.5925
10131SOL    HW241613   6.249   2.852   7.869  0.9750 -1.5881 -1.3395
10132SOL     OW41614   0.715   2.643   6.040 -0.4044  0.1671 -0.3985
10132SOL    HW141615   0.651   2.603   6.105  0.5133 -1.2505 -0.3412
10132SOL    HW241616   0.798   2.586   6.035  1.2529  2.4603  0.2435
10133SOL     OW41617   8.446   6.120   2.217 -0.2455  0.4285 -0.2397
10133SOL    HW141618   8.407   6.149   2.304 -0.1416  0.1759 -0.1066
10133SOL    HW241619   8.397   6.040   2.183  0.2192  0.0441 -0.0169
10134SOL     OW41620   4.120   4.398   2.909  0.3368 -0.0129 -0.5580
10134SOL    HW141621   4.110   4.412   2.811  1.3799  1.9969 -0.3991
10134SOL    HW241622   4.056   4.458   2.958 -1.2181 -2.0550 -0.0194
10135SOL     OW41623   3.410   2.904   3.346 -0.7321 -0.0744  0.1926
10135SOL    HW141624   3.394   2.905   3.248  0.4279 -0.4716 -0.0021
10135SOL    HW241625   3.445   2.993   3.376 -1.4181  0.1615  0.3107
10136SOL     OW41626   1.667   8.865   4.505  0.2759 -0.0896 -0.4237
10136SOL    HW141627   1.697   8.776   4.541 -1.1400 -0.7099 -0.7557
10136SOL    HW241628   1.609   8.851   4.425  0.1060  1.1402 -0.5222
10137SOL     OW41629   0.735   0.498   3.822 -0.3980  0.8282 -0.3369
10137SOL    HW141630   0.657   0.545   3.779 -1.4307 -0.1405  0.4499
10137SOL    HW241631   0.810   0.493   3.756 -1.7158 -0.0311 -1.8238
10138SOL     OW41632   2.956   3.372   2.706  0.0502  0.6491  0.2833
10138SOL    HW141633   2.929   3.367   2.802  0.0380 -0.3649  0.2244
10138SOL    HW241634   2.883   3.337   2.648  0.5483  0.0929 -0.0178
10139SOL     OW41635   3.245   0.397   4.825 -0.3651 -0.1268  0.4257
10139SOL    HW141636   3.329   0.395   4.772  0.0201 -0.8809  1.0568
10139SOL    HW241637   3.263   0.438   4.915 -0.6745 -0.2712  0.5549
10140SOL     OW41638   9.569   5.829   1.860  0.5288 -0.6334  0.0680
10140SOL    HW141639   9.637   5.893   1.895  0.6161 -0.6041 -0.1548
10140SOL    HW241640   9.541   5.767   1.932  0.4753 -0.3710  0.2752
10141SOL     OW41641   1.299   5.638   3.452  0.5248  0.0977  0.2001
10141SOL    HW141642   1.378   5.661   3.509  1.4818 -0.3145 -0.9572
10141SOL    HW241643   1.246   5.721   3.434  0.7662  0.4010  0.8592
10142SOL     OW41644   0.512   2.722   2.677  0.3794  0.0223 -0.0929
10142SOL    HW141645   0.424   2.711   2.722  0.5143 -1.3279 -0.1146
10142SOL    HW241646   0.551   2.811   2.699  0.1698 -0.3770  1.9645
10143SOL     OW41647   3.310   7.317   2.802 -0.2803  0.0946  0.2696
10143SOL    HW141648   3.284   7.404   2.842  0.3839 -0.2074  1.3955
10143SOL    HW241649   3.237   7.250   2.817 -0.7093  0.4082 -0.4278
10144SOL     OW41650   9.334   9.264   6.227 -0.0590  0.2176  0.3108
10144SOL    HW141651   9.270   9.236   6.155  0.0847  1.5821 -0.3752
10144SOL    HW241652   9.352   9.362   6.218  0.9386  0.1411  1.4447
10145SOL     OW41653   2.749   8.605   0.984 -0.0144 -0.7452  0.1628
10145SOL    HW141654   2.704   8.649   1.061  0.6246 -1.1119  0.7497
10145SOL    HW241655   2.711   8.640   0.899  0.3793  0.8216  0.6157
10146SOL     OW41656   4.340   4.184   1.391 -0.0138  0.1160  0.1802
10146SOL    HW141657   4.381   4.163   1.303  0.8972  1.4431  0.2712
10146SOL    HW241658   4.406   4.168   1.464  0.0952  1.4519  0.3960
10147SOL     OW41659   2.279   6.457   0.854 -0.4154  0.0381  0.2546
10147SOL    HW141660   2.208   6.423   0.916 -1.4602  0.6144 -0.6148
10147SOL    HW241661   2.366   6.414   0.877 -1.2844 -1.6011  0.5618
10148SOL     OW41662   2.437   9.813   2.113  0.3223  0.1879 -0.0020
10148SOL    HW141663   2.407   9.825   2.019  2.2174 -0.9686 -0.7956
10148SOL    HW241664   2.407   9.723   2.146  1.0166 -0.0722 -0.0662
10149SOL     OW41665   1.421   4.907   5.283  0.3927 -0.0537 -0.4299
10149SOL    HW141666   1.500   4.950   5.240 -0.1267 -0.2833 -1.6605
10149SOL    HW241667   1.449   4.824   5.331  0.8099 -0.5108 -1.4412
10150SOL     OW41668   4.983   9.215   2.834  0.2129  0.4041 -0.5445
10150SOL    HW141669   5.026   9.127   2.815 -0.3576  0.0653 -0.2798
10150SOL    HW241670   5.027   9.257   2.913  1.1558  0.8254 -1.2831
10151SOL     OW41671   2.702   3.670   4.902 -1.0702 -0.3092 -0.4016
10151SOL    HW141672   2.640   3.622   4.964 -1.7846  0.4303 -0.5370
10151SOL    HW241673   2.680   3.647   4.807  0.5860 -2.1298 -0.3818
10152SOL     OW41674   9.087   0.240   5.557 -0.1288  0.2799 -0.3574
10152SOL    HW141675   9.033   0.318   5.527  0.6214  1.3391  1.0059
10152SOL    HW241676   9.111   0.251   5.654  1.1740 -0.9565 -0.5266
10153SOL     OW41677   0.961   6.508   2.002 -0.0816 -0.3790  1.0415
10153SOL    HW141678   1.059   6.516   2.023  0.0349 -2.8529  1.6205
10153SOL    HW241679   0.911   6.483   2.085 -1.0237 -0.5058  0.4430
10154SOL     OW41680   8.285   6.127   3.162  0.5968 -0.1890  0.0117
10154SOL    HW141681   8.202   6.174   3.191  1.1365 -0.4618  2.0381
10154SOL    HW241682   8.269   6.084   3.073 -0.8078  1.3831 -0.5240
10155SOL     OW41683   0.869   9.129   5.679  0.0418 -0.3246 -0.4286
10155SOL    HW141684   0.923   9.047   5.695  0.7369  0.0901 -0.6049
10155SOL    HW241685   0.808   9.145   5.757  0.0338 -0.9040 -0.3161
10156SOL     OW41686   4.021   3.924   3.054  0.8603  0.3449  0.6022
10156SOL    HW141687   4.066   4.013   3.058  3.2768 -0.6825 -2.1328
10156SOL    HW241688   4.039   3.873   3.138  0.4490  1.9287  1.6810
10157SOL     OW41689   6.677   0.327   5.911  0.0272 -0.0156 -0.4928
10157SOL    HW141690   6.746   0.266   5.950  0.6608  1.5566  0.8771
10157SOL    HW241691   6.648   0.394   5.980 -0.5092  1.3668 -2.0274
10158SOL     OW41692   1.323   6.643   2.680 -0.7547 -0.3630  0.2677
10158SOL    HW141693   1.378   6.673   2.757 -1.7769  0.9692  0.5022
10158SOL    HW241694   1.227   6.637   2.709 -1.2979  1.1692 -1.1676
10159SOL     OW41695   4.145   0.045   5.403  0.4589  0.2554 -0.0410
10159SOL    HW141696   4.114  -0.022   5.336  0.1128  1.9070 -1.5713
10159SOL    HW241697   4.077   0.053   5.476  0.3719 -0.8300  0.0130
10160SOL     OW41698   3.716   4.646   2.982 -0.3572 -0.0833  0.6046
10160SOL    HW141699   3.625   4.651   3.022 -1.7217 -2.2010 -2.0697
10160SOL    HW241700   3.729   4.555   2.941  2.4728  0.6279 -0.1803
10161SOL     OW41701   4.472   0.580   5.550  0.1406 -0.5839 -0.7139
10161SOL    HW141702   4.465   0.675   5.581  0.8347 -1.1070  1.1526
10161SOL    HW241703   4.393   0.557   5.493  0.1468  1.2058 -1.4597
10162SOL     OW41704   2.983   6.633   4.494  0.5962 -0.1570 -0.0140
10162SOL    HW141705   2.993   6.640   4.395  1.1537 -0.7175 -0.0016
10162SOL    HW241706   3.005   6.540   4.524  1.0590  0.1764  0.7045
10163SOL     OW41707   1.633   7.614   6.241 -0.8694 -0.0981 -0.4351
10163SOL    HW141708   1.612   7.577   6.331  0.0752  0.6887  0.1118
10163SOL    HW241709   1.709   7.680   6.248  0.5081 -1.4689 -2.0844
10164SOL     OW41710   0.215   5.345   3.020  0.0948 -0.6683  0.7168
10164SOL    HW141711   0.232   5.444   3.019  0.1025 -0.6715  0.5341
10164SOL    HW241712   0.294   5.297   2.981 -0.2235 -0.6978  0.0978
10165SOL     OW41713   8.079   6.735   5.421  0.3860 -0.3600  0.4969
10165SOL    HW141714   8.105   6.830   5.440 -1.6532  0.1581  0.8620
10165SOL    HW241715   7.980   6.731   5.405  0.5177 -2.3791  0.1091
10166SOL     OW41716   1.230   3.504   3.549 -0.2336 -0.2191  0.2298
10166SOL    HW141717   1.246   3.482   3.453  0.5297  1.8028 -0.1223
10166SOL    HW241718   1.137   3.539   3.561 -0.6016 -1.2219  0.3794
10167SOL     OW41719   2.391   1.350   1.575 -0.1942  0.0528  0.4505
10167SOL    HW141720   2.479   1.398   1.575 -0.8877  1.3305  0.4501
10167SOL    HW241721   2.340   1.374   1.658 -2.1664  2.3387 -1.3644
10168SOL     OW41722   9.816   4.062   0.921  0.0003 -0.0971  0.4758
10168SOL    HW141723   9.873   4.047   1.002  0.3695 -0.7549  0.0981
10168SOL    HW241724   9.731   4.009   0.930  0.3496 -0.7316  0.1229
10169SOL     OW41725   3.117   2.180   5.778  0.0720  0.4562 -0.4599
10169SOL    HW141726   3.062   2.207   5.857 -0.2197  0.6142 -0.7142
10169SOL    HW241727   3.191   2.246   5.765 -0.0138  0.5538 -0.4512
10170SOL     OW41728   9.857   0.790   5.147 -0.0435 -0.3984  0.0425
10170SOL    HW141729   9.864   0.815   5.050 -1.7176 -1.6097 -0.4101
10170SOL    HW241730   9.814   0.700   5.155 -1.0688  0.2450  1.9654
10171SOL     OW41731   3.054   8.701   3.869 -0.2179 -0.0691 -0.3559
10171SOL    HW141732   2.993   8.721   3.946  1.3998 -0.0885  0.9753
10171SOL    HW241733   3.149   8.698   3.902  0.7919  2.5042 -2.8083
10172SOL     OW41734   1.723   6.828   3.281  0.3587 -0.3767 -0.4306
10172SOL    HW141735   1.623   6.824   3.273  0.4776 -3.8487 -1.1695
10172SOL    HW241736   1.750   6.802   3.373  0.6287 -2.3341 -1.0216
10173SOL     OW41737   8.106   7.644   3.227  0.4494  0.4376  0.2648
10173SOL    HW141738   8.080   7.576   3.295  0.1143  0.3036  0.0023
10173SOL    HW241739   8.176   7.705   3.266 -0.4015  0.9381  1.0468
10174SOL     OW41740   7.676   1.594   1.479  0.1865 -0.1121  0.1381
10174SOL    HW141741   7.699   1.617   1.574  0.9976 -0.7277  0.0995
10174SOL    HW241742   7.654   1.678   1.429  2.2555  0.5157  0.2258
10175SOL     OW41743   3.528   9.334   5.914 -0.0156  0.1879 -0.2558
10175SOL    HW141744   3.525   9.380   5.825  2.4900  0.0839 -0.4101
10175SOL    HW241745   3.606   9.367   5.966 -1.3741  0.1270  1.8821
10176SOL     OW41746   0.123   1.480   5.595 -0.2851 -0.4312 -0.0446
10176SOL    HW141747   0.148   1.525   5.681 -1.2015 -0.7438  0.3887
10176SOL    HW241748   0.127   1.381   5.608 -0.4828 -0.4780 -0.3486
10177SOL     OW41749   8.070   0.599   6.794 -0.4847  0.2750  0.9266
10177SOL    HW141750   8.151   0.635   6.841 -0.8490  1.6935  0.4780
10177SOL    HW241751   8.099   0.527   6.730  0.7167  2.0953 -0.6591
10178SOL     OW41752   1.996   2.339   1.456  0.2055  0.1612 -0.1079
10178SOL    HW141753   1.979   2.300   1.365 -1.4311 -0.3475  0.3893
10178SOL    HW241754   1.978   2.437   1.455  1.2489  0.3479 -0.5962
10179SOL     OW41755   3.609   2.709   4.937  0.3530  0.0374 -0.1120
10179SOL    HW141756   3.533   2.745   4.882  1.7071  0.5141 -1.6946
10179SOL    HW241757   3.615   2.610   4.925 -0.5809 -0.1374  0.7520
10180SOL     OW41758   4.015   9.838   5.220 -0.1269 -0.2162 -0.3608
10180SOL    HW141759   3.963   9.798   5.296 -1.1787  0.8692 -0.5029
10180SOL    HW241760   4.077   9.769   5.183  0.9424 -0.5587  1.9526
10181SOL     OW41761   7.773   6.279   4.179 -0.1259  0.5661  0.1331
10181SOL    HW141762   7.813   6.194   4.213 -2.0949 -0.4827 -0.0977
10181SOL    HW241763   7.699   6.258   4.115 -0.1955  2.4590 -0.4328
10182SOL     OW41764   7.443   1.558   8.106  0.3649  0.0472  0.3128
10182SOL    HW141765   7.531   1.519   8.133  0.7823  0.4031 -0.5157
10182SOL    HW241766   7.454   1.656   8.089  0.3280 -0.3144 -1.9961
10183SOL     OW41767   5.370   9.730   1.804  0.4056 -0.1361  0.3010
10183SOL    HW141768   5.275   9.759   1.792 -0.3656 -2.5599  0.3086
10183SOL    HW241769   5.415   9.723   1.715 -0.3064 -1.7662  0.0450
10184SOL     OW41770   9.020   5.378   2.852  0.6136 -0.3121  0.1868
10184SOL    HW141771   8.929   5.414   2.831  0.2060 -1.3525  0.1341
10184SOL    HW241772   9.089   5.432   2.805 -0.0062  0.2112 -0.1262
10185SOL     OW41773   1.406   5.973   4.112  0.3047  0.9615 -0.2484
10185SOL    HW141774   1.503   5.948   4.118 -0.1965 -1.9634 -3.2213
10185SOL    HW241775   1.353   5.918   4.176  0.3734  1.3820  0.1772
10186SOL     OW41776   7.365   4.542   0.179 -0.0621 -0.5885 -0.4563
10186SOL    HW141777   7.291   4.484   0.143  0.4250 -0.9571 -0.8859
10186SOL    HW241778   7.326   4.621   0.225 -0.7508 -1.3300  0.2633
10187SOL     OW41779   7.727   4.123   0.115  0.1300 -0.0920  0.1142
10187SOL    HW141780   7.685   4.113   0.025 -0.4833  3.0822 -0.0190
10187SOL    HW241781   7.824   4.144   0.106 -0.0319  0.6913  0.1693
10188SOL     OW41782   3.185   2.053   0.353 -0.3848  0.0988  0.1207
10188SOL    HW141783   3.104   2.111   0.348  0.0439  0.7086  0.2168
10188SOL    HW241784   3.190   1.995   0.272  0.5376  1.9890 -1.2071
10189SOL     OW41785   1.413   7.133   0.525 -0.0767 -0.1261 -0.3157
10189SOL    HW141786   1.389   7.048   0.573  0.2901 -0.0650 -0.0215
10189SOL    HW241787   1.340   7.200   0.539  0.2655  0.0652  0.5964
10190SOL     OW41788   7.794   1.923   6.054  0.1875  0.1527 -0.1771
10190SOL    HW141789   7.819   1.986   5.980 -1.0023 -1.9186 -2.4112
10190SOL    HW241790   7.845   1.838   6.044 -2.1760 -1.2760 -0.4221
10191SOL     OW41791   2.934   1.332   2.812 -0.1710  0.1226 -0.3745
10191SOL    HW141792   2.952   1.256   2.750 -1.0277  0.0797 -0.5747
10191SOL    HW241793   3.019   1.381   2.830 -0.0050  0.4444 -1.9731
10192SOL     OW41794   5.165   1.515   2.685  0.0614  0.0540  0.5043
10192SOL    HW141795   5.246   1.563   2.650 -1.1996  3.3948  1.9206
10192SOL    HW241796   5.139   1.553   2.774 -3.2861 -0.6793 -0.0795
10193SOL     OW41797   2.729   3.628   8.061 -0.6334 -0.2195  0.4317
10193SOL    HW141798   2.764   3.647   7.970  2.3586 -2.4229  1.0555
10193SOL    HW241799   2.742   3.708   8.120  0.1805  0.1631 -0.2731
10194SOL     OW41800   0.963   3.822   5.100 -0.0641 -0.1938  0.0390
10194SOL    HW141801   0.908   3.833   5.017  1.0040 -0.3595 -0.7123
10194SOL    HW241802   0.977   3.911   5.143 -2.9021 -0.4434  1.5706
10195SOL     OW41803   4.516   1.553   4.201  0.4628 -0.1464  0.0229
10195SOL    HW141804   4.589   1.524   4.139 -1.9667 -3.5145 -1.3967
10195SOL    HW241805   4.503   1.486   4.273 -0.1328  1.2577  1.2632
10196SOL     OW41806   0.245   5.681   3.445  0.5448 -0.3528 -0.4389
10196SOL    HW141807   0.158   5.632   3.447 -0.2509  0.9525 -1.6415
10196SOL    HW241808   0.319   5.620   3.474 -0.3434 -2.3858 -2.2841
10197SOL     OW41809   2.640   3.397   0.615  0.1872 -0.1157 -0.3033
10197SOL    HW141810   2.673   3.409   0.708 -0.0798 -3.5939  0.2865
10197SOL    HW241811   2.679   3.314   0.576  1.6335  2.1669 -3.9509
10198SOL     OW41812   3.816   6.670   1.342  0.1063  0.2148 -0.0912
10198SOL    HW141813   3.807   6.717   1.429  0.5219 -1.9391  1.1339
10198SOL    HW241814   3.727   6.663   1.298 -0.2496  0.4621  0.5941
10199SOL     OW41815   6.111   1.645   5.362 -0.6365 -0.2991 -0.1878
10199SOL    HW141816   6.015   1.621   5.373  0.1982 -4.2145 -0.6235
10199SOL    HW241817   6.128   1.675   5.268 -1.5990  1.5641  0.2010
10200SOL     OW41818   4.926   9.849   6.969  0.0104 -0.0872 -0.2239
10200SOL    HW141819   4.881   9.773   6.921 -0.9358  0.3349 -0.0210
10200SOL    HW241820   5.024   9.846   6.951 -0.0159 -1.3611 -0.2196
10201SOL     OW41821   2.878   9.225   2.620 -0.7066  0.0620 -0.0307
10201SOL    HW141822   2.805   9.214   2.553 -0.4850  0.2180 -0.2978
10201SOL    HW241823   2.966   9.228   2.573 -0.5027 -0.4600  0.3174
10202SOL     OW41824   2.718   3.492   5.580  1.0641 -0.0088  0.5316
10202SOL    HW141825   2.733   3.475   5.677  2.8178  1.7018  0.5861
10202SOL    HW241826   2.679   3.410   5.538 -1.3734 -0.2052  2.9862
10203SOL     OW41827   4.796   5.336   1.822 -0.2425  0.5938 -0.4051
10203SOL    HW141828   4.818   5.243   1.852 -1.0547  1.7560  4.1479
10203SOL    HW241829   4.697   5.349   1.825  0.0042  2.2291  0.9629
10204SOL     OW41830   5.214   1.955   6.273 -0.1230  0.3541  0.3849
10204SOL    HW141831   5.252   1.970   6.182  0.5254  0.4733  0.6733
10204SOL    HW241832   5.115   1.948   6.267 -0.1281  0.9237 -0.2563
10205SOL     OW41833   7.434   1.524   5.920  0.3565  0.1226  0.3176
10205SOL    HW141834   7.502   1.535   5.992 -1.2609  2.3825  1.5916
10205SOL    HW241835   7.397   1.431   5.922  2.3900 -0.6938  0.5021
10206SOL     OW41836   4.097   1.056   3.032 -1.1265  0.2221 -0.1505
10206SOL    HW141837   4.006   1.059   3.072 -1.1234  0.8351 -0.1836
10206SOL    HW241838   4.093   1.011   2.942 -1.2848 -0.3255  0.1289
10207SOL     OW41839   4.208   7.448   3.450 -0.6110 -0.5788  0.2903
10207SOL    HW141840   4.203   7.416   3.355  0.7798 -1.0832  0.3730
10207SOL    HW241841   4.218   7.369   3.511 -0.8626 -0.2130  0.8030
10208SOL     OW41842   2.235   8.977   5.573  0.3986 -0.4550 -0.1230
10208SOL    HW141843   2.235   9.028   5.487  2.4756  1.3401  0.8957
10208SOL    HW241844   2.318   8.921   5.578  1.7558  1.6445  1.9228
10209SOL     OW41845   3.207   4.765   0.964  0.5196 -0.1449 -0.2644
10209SOL    HW141846   3.294   4.717   0.973  0.0200 -1.2997 -1.4201
10209SOL    HW241847   3.172   4.789   1.055 -0.4283 -4.2018  0.5198
10210SOL     OW41848   9.207   8.594   3.858 -0.2543  0.2304  0.0659
10210SOL    HW141849   9.282   8.529   3.851 -0.6569 -0.2340 -0.0499
10210SOL    HW241850   9.212   8.643   3.944 -0.8487 -1.0969  0.8794
10211SOL     OW41851   6.394   8.313   4.764  0.0524 -0.2617  0.0478
10211SOL    HW141852   6.298   8.324   4.738  0.0936 -0.4022 -0.1659
10211SOL    HW241853   6.413   8.217   4.782  0.3134 -0.3287 -0.5539
10212SOL     OW41854   5.593   9.268   2.797  0.0611 -0.3399  0.1588
10212SOL    HW141855   5.616   9.328   2.721 -0.8804 -0.9837 -0.6410
10212SOL    HW241856   5.498   9.282   2.824  0.2428 -0.4682  0.8895
10213SOL     OW41857   1.168   8.060   1.116  0.7874  0.4077  0.0010
10213SOL    HW141858   1.241   8.128   1.109 -0.9664  2.2528 -0.7432
10213SOL    HW241859   1.139   8.033   1.024  0.3889 -0.1953  0.3016
10214SOL     OW41860   9.225   0.609   4.891  0.0450  0.3836 -0.7250
10214SOL    HW141861   9.132   0.647   4.893 -0.2858 -0.4478 -0.1335
10214SOL    HW241862   9.223   0.520   4.848  0.6971  0.6872 -1.3788
10215SOL     OW41863   2.602   9.660   1.794  0.8534  0.5250 -0.0323
10215SOL    HW141864   2.553   9.748   1.792  0.5229  0.3657  0.8199
10215SOL    HW241865   2.679   9.666   1.858  0.9065  0.2357 -0.0696
10216SOL     OW41866   3.955   9.722   4.510 -0.2442  0.2365 -1.1011
10216SOL    HW141867   4.006   9.784   4.450 -0.5991  0.6374 -0.9879
10216SOL    HW241868   3.894   9.774   4.568 -1.1922 -0.2762 -1.6206
10217SOL     OW41869   5.565   0.172   4.621 -0.7809  0.3681  0.2911
10217SOL    HW141870   5.518   0.091   4.655  1.4957 -0.3536  1.8874
10217SOL    HW241871   5.564   0.243   4.692 -1.1910  1.0858 -0.4193
10218SOL     OW41872   8.056   1.949   4.897 -0.7879  0.2624 -0.3035
10218SOL    HW141873   8.080   1.999   4.981  1.3561  0.6137 -1.0868
10218SOL    HW241874   8.049   1.851   4.917  3.5417 -0.1637 -0.3919
10219SOL     OW41875   9.006   2.817   4.947  0.3505 -0.3675  0.0735
10219SOL    HW141876   8.930   2.821   5.011  1.6547  2.7739  1.5520
10219SOL    HW241877   8.978   2.768   4.864 -2.4627 -1.3914  1.5623
10220SOL     OW41878   1.190   3.996   5.366  0.2117  0.0313  0.2872
10220SOL    HW141879   1.151   4.004   5.274  0.9945  0.8802  0.0244
10220SOL    HW241880   1.121   3.958   5.427  0.0395 -1.5900 -0.8851
10221SOL     OW41881   3.219   9.461   2.375 -0.1703 -0.7637  0.9333
10221SOL    HW141882   3.164   9.533   2.419  0.4120  0.3781 -0.1799
10221SOL    HW241883   3.303   9.448   2.427  0.6950  0.8578 -0.0119
10222SOL     OW41884   0.287   8.688   1.812  0.1480  0.2916  0.0155
10222SOL    HW141885   0.360   8.683   1.744  0.0351 -2.1719  0.0084
10222SOL    HW241886   0.203   8.652   1.773 -0.5913  1.3302  0.6376
10223SOL     OW41887   0.063   7.196   6.040 -0.4936  0.6151  0.1775
10223SOL    HW141888   0.032   7.141   5.963  0.0889  0.3110  0.1511
10223SOL    HW241889   0.148   7.244   6.015 -0.5725  0.9062  0.4617
10224SOL     OW41890   5.566   9.822   1.986  0.1137 -0.5549 -0.5937
10224SOL    HW141891   5.660   9.793   1.965 -0.3665 -1.0183 -2.1287
10224SOL    HW241892   5.502   9.767   1.933 -1.0660 -0.5514  0.7901
10225SOL     OW41893   0.460   6.632   5.943 -0.4408 -0.1016  0.6507
10225SOL    HW141894   0.366   6.642   5.910 -0.4771  0.0397  0.7935
10225SOL    HW241895   0.466   6.669   6.036 -0.7548 -2.0885  1.4950
10226SOL     OW41896   2.177   4.111   5.565  0.7623 -0.0658  0.3736
10226SOL    HW141897   2.249   4.168   5.604 -0.7256  0.5838  2.2665
10226SOL    HW241898   2.099   4.168   5.538  0.4154 -0.8939 -0.4291
10227SOL     OW41899   8.686   3.211   5.107  0.3776 -0.1253 -1.0084
10227SOL    HW141900   8.758   3.185   5.043  1.0634  1.4877 -0.9208
10227SOL    HW241901   8.709   3.178   5.199  0.5593 -0.3950 -1.1502
10228SOL     OW41902   3.187   8.656   4.199  0.2540 -0.2079  0.7840
10228SOL    HW141903   3.246   8.649   4.118 -0.2160 -1.7667  0.5767
10228SOL    HW241904   3.104   8.603   4.185 -0.2287  0.2295  1.9479
10229SOL     OW41905   0.148   6.179   0.954  0.3450  0.5479  0.0485
10229SOL    HW141906   0.247   6.192   0.953  0.1867  1.6911 -0.8087
10229SOL    HW241907   0.125   6.110   1.023  1.8220 -0.4994 -0.4740
10230SOL     OW41908   8.961   3.127   4.305  0.3530 -0.5336 -0.0065
10230SOL    HW141909   9.004   3.146   4.217  0.9960 -1.9931 -0.0272
10230SOL    HW241910   9.031   3.130   4.377  0.3119 -1.9480  0.0920
10231SOL     OW41911   4.852   5.018   2.498  0.0517 -0.5185 -0.7168
10231SOL    HW141912   4.883   5.113   2.484  0.0528 -0.5314 -0.8000
10231SOL    HW241913   4.755   5.012   2.477 -0.4276 -0.0834  1.2787
10232SOL     OW41914   8.481   0.956   2.266  0.7652  0.8378 -0.0120
10232SOL    HW141915   8.421   0.963   2.346 -0.4338 -0.5311 -0.7595
10232SOL    HW241916   8.546   1.032   2.266  1.5898  0.1900  2.8896
10233SOL     OW41917   0.898   3.330   1.883  0.4692  0.0466 -0.2194
10233SOL    HW141918   0.886   3.408   1.945  0.4087  0.0969 -0.2950
10233SOL    HW241919   0.858   3.248   1.923 -0.6348  0.3337 -0.7247
10234SOL     OW41920   3.245   9.551   2.115 -0.0701  0.2096  0.0150
10234SOL    HW141921   3.294   9.639   2.119  0.1737  0.0579  0.4952
10234SOL    HW241922   3.232   9.517   2.208  1.2617 -1.0533 -0.2509
10235SOL     OW41923   7.753   7.466   3.618  0.3774  0.3177 -0.2611
10235SOL    HW141924   7.731   7.562   3.601  1.3121  0.4964 -0.4662
10235SOL    HW241925   7.682   7.426   3.677  0.1656  1.2164  0.1094
10236SOL     OW41926   0.558   5.527   3.830  0.3884  0.0321  0.4445
10236SOL    HW141927   0.473   5.580   3.825  1.7041  2.1939  0.2635
10236SOL    HW241928   0.550   5.447   3.772 -0.3989  1.8907 -2.1024
10237SOL     OW41929   6.060   9.173   5.806 -0.1084  0.0286 -0.2418
10237SOL    HW141930   6.145   9.190   5.757 -0.7350  0.1336 -1.3003
10237SOL    HW241931   5.982   9.190   5.745 -0.8686 -1.0337  0.4244
10238SOL     OW41932   1.105   5.719   4.487 -0.3903 -0.0543 -0.4737
10238SOL    HW141933   1.024   5.758   4.531  0.5905  0.7144  0.6812
10238SOL    HW241934   1.178   5.708   4.554  0.0886 -1.8412 -1.2538
10239SOL     OW41935   3.006   8.497   1.519 -0.2303 -0.1686 -0.2716
10239SOL    HW141936   2.981   8.482   1.423 -0.9043 -3.8800  0.4308
10239SOL    HW241937   2.925   8.523   1.571 -0.0202  1.0363 -0.5357
10240SOL     OW41938   7.878   0.458   0.317 -0.1783 -0.6223 -0.3514
10240SOL    HW141939   7.859   0.533   0.380  1.4394 -0.5496  0.0784
10240SOL    HW241940   7.840   0.373   0.354 -0.2866 -0.3713  0.1225
10241SOL     OW41941   8.058   8.187   4.430 -0.5968  0.1326  0.0122
10241SOL    HW141942   8.127   8.201   4.502 -0.7454 -0.6448  0.3187
10241SOL    HW241943   8.104   8.169   4.343 -0.3859 -1.2161  0.3808
10242SOL     OW41944   7.030   1.122   6.331  0.3613  0.0628  0.4706
10242SOL    HW141945   6.935   1.092   6.324 -0.2945  2.1790  0.1688
10242SOL    HW241946   7.074   1.113   6.241 -0.6460  2.6371 -0.3118
10243SOL     OW41947   2.961   2.267   0.632  0.0014  0.5377  0.2704
10243SOL    HW141948   3.031   2.270   0.704  0.7546  0.4310 -0.4478
10243SOL    HW241949   2.872   2.291   0.671  0.5935  1.5827  1.0110
10244SOL     OW41950   7.446   7.437   4.933 -0.2043 -0.6234  0.3288
10244SOL    HW141951   7.464   7.530   4.902  0.0871 -0.9591 -0.5511
10244SOL    HW241952   7.360   7.405   4.893  0.3014 -1.1520 -0.3517
10245SOL     OW41953   6.863   0.475   4.656  0.0071  0.3056  0.5653
10245SOL    HW141954   6.808   0.425   4.590  0.1283  2.3054 -1.0810
10245SOL    HW241955   6.811   0.553   4.691  0.8287  0.6743  0.9935
10246SOL     OW41956   6.975   4.256   2.626 -0.4720 -0.0951  0.1114
10246SOL    HW141957   7.002   4.349   2.601  1.3477 -0.8419 -0.7842
10246SOL    HW241958   6.881   4.240   2.598 -0.4020  1.0646 -0.8362
10247SOL     OW41959   4.339   1.423   1.778 -0.2314 -0.4261 -0.0010
10247SOL    HW141960   4.430   1.384   1.770  0.0160  0.3960 -1.4945
10247SOL    HW241961   4.345   1.512   1.824 -0.2542 -0.3069 -0.2262
10248SOL     OW41962   4.299   2.770   1.603  0.0875 -0.1703 -0.1471
10248SOL    HW141963   4.374   2.825   1.566  1.8046 -1.4086  1.4368
10248SOL    HW241964   4.250   2.823   1.672  0.6943 -0.0278  0.1754
10249SOL     OW41965   3.782   0.835   2.325  0.0696 -0.0383  0.3087
10249SOL    HW141966   3.694   0.882   2.320  0.8359  1.5360  1.2421
10249SOL    HW241967   3.853   0.899   2.355  1.5438 -1.2821 -0.4272
10250SOL     OW41968   3.155   2.852   3.349  0.1472  0.5202 -0.6842
10250SOL    HW141969   3.253   2.866   3.364 -0.0239 -0.3009  1.2665
10250SOL    HW241970   3.133   2.871   3.253  2.3572 -0.1248 -1.3328
10251SOL     OW41971   9.910   6.840   4.776 -0.3195 -0.3074 -0.7973
10251SOL    HW141972   9.969   6.792   4.711  1.6856  0.5462  0.3371
10251SOL    HW241973   9.828   6.784   4.795  1.9364 -3.3362  0.5146
10252SOL     OW41974   2.034   1.937   3.920 -0.5050  0.1379 -0.0003
10252SOL    HW141975   1.938   1.960   3.931 -0.6842 -0.0097 -1.1730
10252SOL    HW241976   2.081   1.946   4.008 -1.9191 -1.3802  0.9289
10253SOL     OW41977   3.369   8.682   8.078  0.8594  0.1862 -0.1568
10253SOL    HW141978   3.291   8.640   8.125  0.9571 -0.3470 -0.4627
10253SOL    HW241979   3.429   8.726   8.145 -0.4011  1.7781 -0.0362
10254SOL     OW41980   2.544   0.674   6.159  0.3473 -0.3055  0.2155
10254SOL    HW141981   2.589   0.762   6.143  0.9890 -0.8226 -0.8796
10254SOL    HW241982   2.447   0.689   6.177  0.2670  0.5760 -0.8667
10255SOL     OW41983   9.257   1.229   2.560 -0.2544 -0.2061 -0.2217
10255SOL    HW141984   9.327   1.193   2.498  0.9790 -0.1109  1.0804
10255SOL    HW241985   9.266   1.329   2.566 -1.2011 -0.0780 -0.8759
10256SOL     OW41986   5.137   4.713   0.998 -0.0052 -0.0488  0.7991
10256SOL    HW141987   5.059   4.738   1.056 -0.9175  0.3713 -0.5917
10256SOL    HW241988   5.161   4.790   0.939  0.1244 -0.9010 -0.2611
10257SOL     OW41989   5.279   8.458   5.215  0.1173 -0.5754 -0.1179
10257SOL    HW141990   5.376   8.439   5.227 -0.0945 -1.3376  0.4530
10257SOL    HW241991   5.245   8.510   5.293  0.1242 -0.1013 -0.4339
10258SOL     OW41992   3.722   2.727   2.698  0.1271 -0.2356 -0.3840
10258SOL    HW141993   3.723   2.627   2.697  0.6663 -0.2317 -0.9234
10258SOL    HW241994   3.797   2.761   2.641  0.0016  0.4756 -0.1260
10259SOL     OW41995   3.587   4.752   3.321  0.3443 -0.1065 -0.1272
10259SOL    HW141996   3.537   4.688   3.262  0.0151 -0.3255  0.3923
10259SOL    HW241997   3.684   4.731   3.317  0.3639  0.0955 -0.8654
10260SOL     OW41998   4.858   6.551   2.469  0.5745  0.7501 -0.1194
10260SOL    HW141999   4.856   6.611   2.549  0.1534 -1.9866  1.9745
10260SOL    HW242000   4.947   6.506   2.464  0.2197  0.1082 -0.6075
10261SOL     OW42001   1.132   2.650   2.462 -0.5970  0.2934  0.2350
10261SOL    HW142002   1.038   2.637   2.491 -0.1710  0.1296  1.5715
10261SOL    HW242003   1.175   2.561   2.446 -0.1057  0.2848  1.5104
10262SOL     OW42004   3.660   1.883   0.756 -0.3583 -0.4913  0.4168
10262SOL    HW142005   3.692   1.809   0.815 -0.5919 -0.1900  0.9286
10262SOL    HW242006   3.638   1.847   0.665 -0.2558 -1.0049  0.5953
10263SOL     OW42007   1.069   8.757   1.950  0.0144 -0.2077 -0.4027
10263SOL    HW142008   0.987   8.714   1.989 -0.2043  1.7262  1.3922
10263SOL    HW242009   1.122   8.688   1.901 -0.8741 -2.2810  1.4113
10264SOL     OW42010   4.313   9.789   6.592  0.0313 -0.0925  0.0687
10264SOL    HW142011   4.274   9.732   6.521 -2.2358  0.6146  0.7081
10264SOL    HW242012   4.333   9.880   6.556  0.1546 -0.1506 -0.0080
10265SOL     OW42013   2.598   1.641   5.419 -0.4072 -0.1345 -0.0023
10265SOL    HW142014   2.651   1.696   5.484  0.9819  0.5685 -1.6838
10265SOL    HW242015   2.528   1.697   5.377 -0.2375 -0.1510 -0.3101
10266SOL     OW42016   9.201   3.638   3.916 -0.0168 -0.1126  0.3288
10266SOL    HW142017   9.234   3.719   3.868  0.1965  0.8244  2.0243
10266SOL    HW242018   9.200   3.560   3.853  0.8847  0.9321 -1.0037
10267SOL     OW42019   3.018   4.813   3.511  0.0442  0.1347  0.2525
10267SOL    HW142020   3.017   4.721   3.551  2.0380  1.2379  3.0508
10267SOL    HW242021   3.095   4.820   3.447  1.1372  0.4089  1.5651
10268SOL     OW42022   0.528   8.344   1.886 -0.3917  0.0860  0.5050
10268SOL    HW142023   0.509   8.353   1.983  0.5262  1.9036  0.5189
10268SOL    HW242024   0.462   8.280   1.845 -1.3451  0.0230  2.1233
10269SOL     OW42025   8.840   6.262   4.084 -0.4125  0.3744 -0.3766
10269SOL    HW142026   8.767   6.276   4.151 -0.2681  0.7708 -0.2964
10269SOL    HW242027   8.871   6.167   4.087 -0.9673  0.1890 -0.4550
10270SOL     OW42028   5.302   0.255   3.253  0.4452  0.4269 -0.0750
10270SOL    HW142029   5.207   0.229   3.239  0.8738 -0.0134 -2.4826
10270SOL    HW242030   5.306   0.347   3.293 -0.9804  0.4813 -0.0301
10271SOL     OW42031   2.109   6.448   0.627  0.3582 -0.2140  0.4344
10271SOL    HW142032   2.173   6.425   0.553  0.0323  2.2313 -0.6509
10271SOL    HW242033   2.156   6.446   0.715  1.2396 -1.1350 -0.0496
10272SOL     OW42034   3.452   9.047   1.222 -0.0132 -0.4095 -0.4840
10272SOL    HW142035   3.426   8.966   1.274  1.5698 -1.4247 -1.2046
10272SOL    HW242036   3.527   9.094   1.268 -1.1188  0.8166  0.0772
10273SOL     OW42037   3.236   4.827   3.725  0.2525 -0.0108 -0.2997
10273SOL    HW142038   3.183   4.785   3.652 -0.8011  1.3989 -0.3772
10273SOL    HW242039   3.249   4.924   3.705  0.5554  0.2358  1.0295
10274SOL     OW42040   1.427   1.816   4.143 -0.8763 -0.3128  0.5835
10274SOL    HW142041   1.366   1.785   4.216 -1.3624 -1.6488 -0.3915
10274SOL    HW242042   1.474   1.738   4.102 -0.3043  0.4678 -0.2793
10275SOL     OW42043   5.100   7.581   2.472  0.1701  0.6917 -0.1613
10275SOL    HW142044   5.126   7.675   2.450  1.3283  0.5307  0.4971
10275SOL    HW242045   5.087   7.573   2.571 -1.0687  0.4368 -0.3368
10276SOL     OW42046   3.953   0.459   2.633 -0.1492 -0.0311  0.0331
10276SOL    HW142047   4.027   0.416   2.684  0.0340  0.2264 -0.0169
10276SOL    HW242048   3.865   0.425   2.667  0.0358 -2.4621 -1.7903
10277SOL     OW42049   8.068   6.003   3.508 -0.5186  0.1987 -0.3929
10277SOL    HW142050   8.004   6.079   3.495 -1.1261 -0.4910 -1.5749
10277SOL    HW242051   8.097   5.969   3.419  0.1233 -0.6402  0.1318
10278SOL     OW42052   5.828   8.284   5.993  0.0014 -0.5768  0.4120
10278SOL    HW142053   5.900   8.236   6.043 -1.2368 -2.8180  0.1128
10278SOL    HW242054   5.769   8.332   6.057 -1.6757 -3.5600  1.1804
10279SOL     OW42055   2.780   0.140   0.563 -0.2675 -0.5131  0.3151
10279SOL    HW142056   2.832   0.084   0.499  1.1493 -1.0702  1.9180
10279SOL    HW242057   2.696   0.092   0.589 -0.1833 -0.8755 -0.0809
10280SOL     OW42058   0.708   9.868   3.725 -0.2951  0.0620 -0.0248
10280SOL    HW142059   0.740   9.774   3.736 -1.7033 -0.3466  0.7276
10280SOL    HW242060   0.781   9.932   3.748  0.3309 -0.8521  0.5187
10281SOL     OW42061   8.629   3.775   4.648  0.4803  0.2057 -0.0832
10281SOL    HW142062   8.556   3.740   4.707 -0.0217  0.8277 -0.3254
10281SOL    HW242063   8.612   3.748   4.554  1.4528 -1.0575  0.0892
10282SOL     OW42064   9.144   7.012   2.965  0.3875 -0.0676  0.1168
10282SOL    HW142065   9.107   6.931   2.918 -0.9141  0.5639  0.0146
10282SOL    HW242066   9.072   7.053   3.021  1.5011  0.0792  1.4689
10283SOL     OW42067   7.764   2.567   3.139 -0.2788 -0.2312 -0.1916
10283SOL    HW142068   7.696   2.579   3.212  0.4641  1.0998  0.3076
10283SOL    HW242069   7.772   2.470   3.116  0.4277 -0.8433  2.4363
10284SOL     OW42070   5.938   9.789   7.264 -0.0296 -0.0603 -0.3999
10284SOL    HW142071   5.854   9.842   7.270  1.1748  2.0242 -1.5734
10284SOL    HW242072   6.016   9.850   7.249  1.5841 -2.0382 -0.3514
10285SOL     OW42073   3.449   0.417   6.282  0.4265  0.1219 -0.1255
10285SOL    HW142074   3.376   0.348   6.281  0.5018  0.0480 -0.8872
10285SOL    HW242075   3.411   0.506   6.259  0.7291 -0.0702 -1.3715
10286SOL     OW42076   7.989   6.927   4.339  0.4458  0.6486 -0.0856
10286SOL    HW142077   8.020   6.835   4.313  0.7332  1.5487 -3.0994
10286SOL    HW242078   7.910   6.919   4.399 -1.0350 -1.6138 -2.2033
10287SOL     OW42079   8.460   5.627   1.392 -0.0828  0.0221 -0.1710
10287SOL    HW142080   8.483   5.626   1.294 -1.0905  2.1329 -0.4595
10287SOL    HW242081   8.466   5.720   1.427 -0.3746 -0.6161  1.6400
10288SOL     OW42082   8.146   1.690   5.268 -0.2461 -0.0110 -0.1534
10288SOL    HW142083   8.240   1.724   5.261 -0.4763  0.6110 -0.2269
10288SOL    HW242084   8.136   1.608   5.212 -0.4410  1.4126 -2.2412
10289SOL     OW42085   3.426   5.199   3.343  0.1975 -0.0562 -0.4892
10289SOL    HW142086   3.467   5.225   3.256  0.1105 -1.2264 -0.9019
10289SOL    HW242087   3.448   5.103   3.363  0.0781  0.1517  0.6973
10290SOL     OW42088   2.304   8.111   4.251  0.3801  0.8367 -0.3328
10290SOL    HW142089   2.367   8.066   4.187  0.0741  1.3439 -1.0018
10290SOL    HW242090   2.355   8.143   4.330  0.9771  1.2524 -0.8750
10291SOL     OW42091   9.412   4.242   1.099  0.1701  0.5508  0.0602
10291SOL    HW142092   9.455   4.188   1.026  0.6137  0.6967  0.2137
10291SOL    HW242093   9.359   4.317   1.058  1.5375  1.4692 -0.0837
10292SOL     OW42094   8.171   6.782   3.841  0.1448  0.3116 -0.6935
10292SOL    HW142095   8.266   6.804   3.822  1.3967 -2.5034  1.7346
10292SOL    HW242096   8.148   6.693   3.801 -0.4504 -0.5176  1.3874
10293SOL     OW42097   9.537   7.925   1.038  0.7428  0.2093  0.8923
10293SOL    HW142098   9.506   7.830   1.047 -1.9594  1.0830  1.4709
10293SOL    HW242099   9.606   7.944   1.107  1.5973 -1.4369  0.5167
10294SOL     OW42100   3.804   0.570   4.399  0.2281 -0.2150 -0.0666
10294SOL    HW142101   3.868   0.629   4.349  0.9435  0.5747  1.7478
10294SOL    HW242102   3.718   0.564   4.348  1.3745 -0.4872 -2.0497
10295SOL     OW42103   3.649   1.097   2.245  0.5054 -0.5233 -0.1755
10295SOL    HW142104   3.580   1.082   2.316 -2.2181  0.1460 -2.6162
10295SOL    HW242105   3.699   1.181   2.264 -1.7075  0.8344 -0.1570
10296SOL     OW42106   2.139   1.990   0.854 -0.0795  0.0580 -0.1675
10296SOL    HW142107   2.108   1.898   0.828 -1.1453  0.9895 -2.3109
10296SOL    HW242108   2.236   1.985   0.880  0.1249 -1.5328 -1.1071
10297SOL     OW42109   3.297   0.856   3.458 -0.0772 -0.4199  0.3787
10297SOL    HW142110   3.233   0.932   3.455 -0.5586 -0.8854 -1.2497
10297SOL    HW242111   3.390   0.891   3.446 -0.3224 -0.1124 -0.6773
10298SOL     OW42112   1.114   1.972   1.931  0.1157 -0.1599 -0.7477
10298SOL    HW142113   1.105   1.896   1.995 -1.2595 -0.1677 -0.9452
10298SOL    HW242114   1.211   1.999   1.925  0.4881 -1.2999 -0.0111
10299SOL     OW42115   7.813   6.764   5.360 -0.4552  0.4206 -0.8073
10299SOL    HW142116   7.832   6.696   5.289 -0.1384 -1.2346  0.8343
10299SOL    HW242117   7.718   6.794   5.351 -1.2388 -1.7778 -0.3033
10300SOL     OW42118   9.491   3.428   3.874  0.1498  0.1583 -0.4239
10300SOL    HW142119   9.443   3.403   3.789  1.2180 -0.1038 -0.9517
10300SOL    HW242120   9.450   3.377   3.950  0.4117 -1.0425 -1.0659
10301SOL     OW42121   8.252   3.233   2.660  0.0657 -0.7958  0.3335
10301SOL    HW142122   8.324   3.173   2.694 -0.5882 -1.7605  0.0269
10301SOL    HW242123   8.292   3.321   2.635  0.9358 -0.8942  1.3234
10302SOL     OW42124   1.314   5.245   4.595 -0.2806  0.4110  0.2046
10302SOL    HW142125   1.324   5.320   4.661 -0.0782 -0.6504  1.4053
10302SOL    HW242126   1.316   5.158   4.644  0.1381 -0.4049 -1.2462
10303SOL     OW42127   7.249   8.303   2.712 -0.0049 -0.3021  0.0594
10303SOL    HW142128   7.223   8.375   2.647  0.7695 -0.4397 -0.4142
10303SOL    HW242129   7.217   8.327   2.804  0.0533  0.5351 -0.1367
10304SOL     OW42130   6.544   2.649   4.743  0.2217 -0.4704 -0.2201
10304SOL    HW142131   6.538   2.689   4.651 -1.2918  0.0661  0.0979
10304SOL    HW242132   6.524   2.551   4.738 -0.0970 -0.3961 -0.4419
10305SOL     OW42133   9.085   6.594   5.372 -0.4601 -0.0346 -0.3907
10305SOL    HW142134   9.075   6.659   5.447 -0.9442  0.2892 -0.7318
10305SOL    HW242135   9.001   6.540   5.363 -0.4216 -0.0377 -0.7350
10306SOL     OW42136   2.079   4.546   1.440 -0.3842 -0.0606  0.2745
10306SOL    HW142137   2.102   4.616   1.508 -1.0930  0.6556 -0.2120
10306SOL    HW242138   2.163   4.511   1.398 -0.0744  1.2702 -0.2438
10307SOL     OW42139   9.178   1.138   6.373  0.2715  0.2218  0.0540
10307SOL    HW142140   9.272   1.132   6.339  0.0775 -0.0796 -0.4416
10307SOL    HW242141   9.134   1.218   6.332  0.6127  0.9441  1.0597
10308SOL     OW42142   9.836   9.847   4.772  0.2740 -0.4998 -0.1826
10308SOL    HW142143   9.909   9.863   4.706  1.3044 -0.4027  0.9748
10308SOL    HW242144   9.801   9.936   4.804 -1.2499 -0.5278 -1.7002
10309SOL     OW42145   8.900   0.198   3.624  0.3220  0.2831 -0.7624
10309SOL    HW142146   8.896   0.220   3.527 -0.3025  0.8385 -0.6142
10309SOL    HW242147   8.909   0.099   3.636 -0.9139  0.0983 -1.3575
10310SOL     OW42148   7.403   7.520   5.221 -0.3101 -0.2482  0.5636
10310SOL    HW142149   7.426   7.460   5.144  0.5478 -0.4745  0.9946
10310SOL    HW242150   7.304   7.532   5.225 -0.5206 -1.9262  0.6924
10311SOL     OW42151   4.256   7.656   5.154 -0.3519 -0.0804  0.7766
10311SOL    HW142152   4.350   7.654   5.190 -0.3605  0.7919  0.8396
10311SOL    HW242153   4.254   7.610   5.065  0.1270 -0.1378  0.7933
10312SOL     OW42154   4.782   7.982   4.045  0.8965 -0.6976  0.6884
10312SOL    HW142155   4.743   8.053   4.104  1.2038  0.0177  0.0373
10312SOL    HW242156   4.756   8.000   3.950  1.2521 -1.2728  0.4825
10313SOL     OW42157   5.068   3.071   3.739  0.1020 -0.3210  0.2241
10313SOL    HW142158   5.056   3.130   3.818  0.3119  0.9167 -0.6486
10313SOL    HW242159   5.016   2.987   3.752 -2.4059  1.1849  0.3329
10314SOL     OW42160   2.244   7.005   4.795  0.0003  0.3240 -0.1425
10314SOL    HW142161   2.290   6.928   4.839 -0.4970  0.8637  1.3681
10314SOL    HW242162   2.173   6.972   4.734  1.0872 -0.4632 -1.0072
10315SOL     OW42163   1.924   1.114   5.929 -0.1739  0.2243  0.0941
10315SOL    HW142164   1.946   1.160   5.843  1.6054  1.3320  1.1070
10315SOL    HW242165   1.858   1.169   5.980  1.5363  1.4476  1.0548
10316SOL     OW42166   2.684   1.072   3.745 -0.1433 -0.7092  0.4840
10316SOL    HW142167   2.717   1.018   3.668 -1.0573  0.7658 -0.9784
10316SOL    HW242168   2.584   1.081   3.740 -0.2193 -0.5971  1.8364
10317SOL     OW42169   9.587   9.693   2.915 -0.1798  1.4623  0.2046
10317SOL    HW142170   9.603   9.698   3.013 -1.2490  1.5910  0.3800
10317SOL    HW242171   9.488   9.691   2.897  0.0039 -0.2559 -0.7704
10318SOL     OW42172   1.456   5.593   1.356  0.2276  0.5771 -0.2754
10318SOL    HW142173   1.523   5.612   1.427  0.8614 -0.2496 -0.6437
10318SOL    HW242174   1.428   5.497   1.362  0.4070  0.4599 -1.2391
10319SOL     OW42175   1.669   9.807   4.014  0.0371 -0.2468  0.1404
10319SOL    HW142176   1.583   9.822   4.063  0.0955  0.3486  0.0597
10319SOL    HW242177   1.652   9.813   3.915  0.1253 -0.3781  0.1166
10320SOL     OW42178   7.845   3.830   6.181  0.3692  0.2467 -0.4997
10320SOL    HW142179   7.883   3.892   6.250  0.4498  4.5545 -4.1870
10320SOL    HW242180   7.919   3.795   6.124  0.0369 -1.1239 -0.0875
10321SOL     OW42181   4.112   8.425   5.453 -0.9586 -0.4796  0.6592
10321SOL    HW142182   4.013   8.437   5.448 -1.0484 -1.4012  0.1611
10321SOL    HW242183   4.133   8.345   5.510 -0.5346 -0.7993  0.0632
10322SOL     OW42184   2.506   7.890   6.342 -0.4852 -0.1878 -0.5866
10322SOL    HW142185   2.516   7.857   6.248 -1.0061  1.4767 -1.2462
10322SOL    HW242186   2.498   7.813   6.404 -2.8211 -1.2880 -2.2254
10323SOL     OW42187   5.488   9.084   6.383 -0.1785  0.7628 -0.0143
10323SOL    HW142188   5.413   9.075   6.449 -0.1925  0.0026 -0.1272
10323SOL    HW242189   5.524   9.177   6.386  0.5376  0.4439  1.8538
10324SOL     OW42190   2.142   7.488   3.531 -0.4401 -0.4821  0.1461
10324SOL    HW142191   2.091   7.455   3.611 -0.3773 -1.2268 -0.1131
10324SOL    HW242192   2.240   7.475   3.546 -0.5054 -2.2720 -0.7462
10325SOL     OW42193   0.181   1.810   5.485 -0.3235  0.2330 -0.0042
10325SOL    HW142194   0.093   1.850   5.511 -0.2405 -0.3050  1.1543
10325SOL    HW242195   0.166   1.715   5.457 -0.2867  0.5412 -1.0764
10326SOL     OW42196   2.440   7.756   3.667  0.1370  0.0667 -0.4603
10326SOL    HW142197   2.412   7.663   3.643 -0.5555  0.4654 -1.2709
10326SOL    HW242198   2.365   7.801   3.716  0.6189  0.0630  0.2731
10327SOL     OW42199   6.360   0.805   3.732 -0.0473 -0.5250  0.2728
10327SOL    HW142200   6.272   0.823   3.776 -1.1226  0.3349 -2.1407
10327SOL    HW242201   6.421   0.883   3.747 -0.0364 -0.6916  1.1090
10328SOL     OW42202   8.030   9.976   5.650 -0.1968  0.6224  0.1711
10328SOL    HW142203   8.094   9.944   5.720  0.5048  0.9452 -0.3124
10328SOL    HW242204   8.069   9.961   5.559 -0.4989  1.4820 -0.1075
10329SOL     OW42205   3.153   8.856   4.624 -0.0351  0.5576  0.6729
10329SOL    HW142206   3.147   8.803   4.708  1.7584  0.0313  0.4867
10329SOL    HW242207   3.183   8.797   4.549  0.1330  1.4249  0.0467
10330SOL     OW42208   7.007   8.099   2.598 -0.5355  0.6734 -0.2791
10330SOL    HW142209   7.066   8.027   2.635 -0.1508 -0.0769 -2.2810
10330SOL    HW242210   6.949   8.136   2.671  1.1260  0.1641  1.3249
10331SOL     OW42211   0.497   4.297   4.279 -0.3227 -0.2036 -0.1299
10331SOL    HW142212   0.429   4.300   4.205  0.7881  0.6991 -1.1323
10331SOL    HW242213   0.463   4.239   4.353 -1.4693 -1.1006 -1.3307
10332SOL     OW42214   3.708   9.813   3.541  0.2323 -0.0088 -0.4459
10332SOL    HW142215   3.654   9.735   3.512  0.5602 -0.8246  1.0618
10332SOL    HW242216   3.803   9.785   3.552 -0.0350 -0.0362  2.3234
10333SOL     OW42217   0.573   7.425   6.338 -0.9439 -0.0111 -0.3250
10333SOL    HW142218   0.487   7.429   6.286 -0.2621  1.6808 -1.3359
10333SOL    HW242219   0.561   7.472   6.425 -0.4498  2.0354 -1.3452
10334SOL     OW42220   9.752   0.101   3.161  0.8848 -0.0494  0.0684
10334SOL    HW142221   9.765   0.069   3.254 -0.3979 -0.8625 -0.0238
10334SOL    HW242222   9.658   0.086   3.132  1.4882 -0.6928 -1.6859
10335SOL     OW42223   4.958   1.016   4.516  0.4450 -0.2551  0.3712
10335SOL    HW142224   4.957   1.031   4.614  0.5779 -0.7144  0.4451
10335SOL    HW242225   5.053   1.012   4.483  0.3919  0.8035  0.0832
10336SOL     OW42226   1.161   6.443   0.037 -0.3913  0.4239 -1.4250
10336SOL    HW142227   1.185   6.430  -0.060  0.3207  1.1616 -1.3499
10336SOL    HW242228   1.236   6.490   0.084  0.1430 -1.7034 -0.0509
10337SOL     OW42229   8.629   0.585   6.028  0.3215  0.0047  0.8781
10337SOL    HW142230   8.654   0.531   5.948 -0.1725 -0.3838  0.9856
10337SOL    HW242231   8.640   0.530   6.111  3.1754  1.1511  1.3282
10338SOL     OW42232   6.872   6.592   6.356 -0.4741 -0.1117 -0.0393
10338SOL    HW142233   6.774   6.585   6.340 -0.4938 -0.0634  0.0661
10338SOL    HW242234   6.917   6.510   6.321 -0.8121 -1.2309  2.0450
10339SOL     OW42235   1.164   7.313   5.242  0.9649  0.0839 -0.4898
10339SOL    HW142236   1.125   7.396   5.283  0.2443 -0.3563 -0.2726
10339SOL    HW242237   1.245   7.286   5.294 -0.5574 -1.0750  1.3247
10340SOL     OW42238   3.277   3.769   4.456 -0.0427 -0.4441  0.1253
10340SOL    HW142239   3.234   3.680   4.472  0.0697 -0.7271 -1.0897
10340SOL    HW242240   3.350   3.783   4.522 -2.4151  0.3406  2.6785
10341SOL     OW42241   1.601   8.202   5.829  0.3311 -0.0325  0.5536
10341SOL    HW142242   1.591   8.106   5.801 -0.0973 -0.1678  1.1622
10341SOL    HW242243   1.510   8.241   5.847  0.4287  0.7899 -0.6917
10342SOL     OW42244   7.972   4.017   4.200  0.1758  0.0147  0.0638
10342SOL    HW142245   7.951   4.069   4.282  0.1320  1.2497 -0.7260
10342SOL    HW242246   8.071   4.003   4.193 -0.0020 -2.3327  1.6691
10343SOL     OW42247   6.600   9.669   4.941 -0.6788  0.0347  0.3213
10343SOL    HW142248   6.500   9.679   4.939 -0.4907  1.7692 -1.2371
10343SOL    HW242249   6.630   9.618   4.861  0.0224  3.1041 -1.4410
10344SOL     OW42250   7.495   3.332   5.998  0.6414  0.1323  0.4276
10344SOL    HW142251   7.420   3.395   6.017  0.9221 -0.0071  2.1026
10344SOL    HW242252   7.570   3.350   6.062  2.6405  1.2247 -2.1219
10345SOL     OW42253   2.025   2.891   1.379  0.2192 -0.4908  0.0811
10345SOL    HW142254   2.008   2.850   1.469  0.9864 -0.6461  0.1591
10345SOL    HW242255   2.107   2.949   1.384 -1.2870  1.6821  0.1546
10346SOL     OW42256   8.411   2.278   2.208  0.0874  0.1961  0.2876
10346SOL    HW142257   8.330   2.230   2.174  0.5327  0.5627 -1.3186
10346SOL    HW242258   8.397   2.376   2.204  0.1533  0.2438  1.1529
10347SOL     OW42259   7.080   7.350   3.542  0.4659 -0.0841  0.2468
10347SOL    HW142260   7.122   7.328   3.454 -0.6741 -0.4394 -0.2066
10347SOL    HW242261   7.031   7.270   3.576  0.8304  0.0797  1.1710
10348SOL     OW42262   2.695   0.793   6.380  0.2080  0.0175  0.1487
10348SOL    HW142263   2.604   0.785   6.422 -0.3313  1.3730 -0.7385
10348SOL    HW242264   2.691   0.858   6.304  2.0583  0.5002  0.4513
10349SOL     OW42265   9.564   5.762   5.190  0.1817 -0.1073 -0.9208
10349SOL    HW142266   9.520   5.727   5.272  1.6005 -1.2804 -0.6455
10349SOL    HW242267   9.506   5.832   5.148 -1.3694 -0.7663  0.0929
10350SOL     OW42268   5.575   2.564   5.134 -0.6847  0.2772 -0.1455
10350SOL    HW142269   5.636   2.521   5.201  0.9382  1.1220 -1.0397
10350SOL    HW242270   5.508   2.621   5.181  0.2083  0.5718  0.7886
10351SOL     OW42271   9.132   9.225   6.654 -0.5761 -0.3330  0.4314
10351SOL    HW142272   9.076   9.152   6.615 -0.2467 -0.4491  0.1789
10351SOL    HW242273   9.224   9.190   6.673  0.3043  0.6434 -1.8917
10352SOL     OW42274   8.537   1.192   4.982  0.1230 -0.1112 -1.1384
10352SOL    HW142275   8.510   1.108   4.936 -0.3584 -0.5240 -0.1312
10352SOL    HW242276   8.566   1.170   5.076 -0.7216  0.9305 -0.6264
10353SOL     OW42277   9.890   3.756   4.550  0.1130  0.1076  0.3423
10353SOL    HW142278   9.864   3.660   4.562  0.3147 -0.0287 -0.2699
10353SOL    HW242279   9.813   3.815   4.574  0.9367 -0.0782  3.5811
10354SOL     OW42280   8.469   2.564   2.700 -0.1699 -0.2065  0.0383
10354SOL    HW142281   8.530   2.588   2.775 -0.5806  1.4093 -0.1257
10354SOL    HW242282   8.523   2.551   2.616  0.0280  0.7061  0.0113
10355SOL     OW42283   1.230   4.782   2.225  0.0056  0.0053  0.4478
10355SOL    HW142284   1.264   4.809   2.135 -1.7191 -1.7079 -0.7339
10355SOL    HW242285   1.211   4.865   2.279  1.9435  1.0270 -0.3841
10356SOL     OW42286   8.151   9.879   5.432 -0.2156  0.5021 -0.4108
10356SOL    HW142287   8.088   9.807   5.460 -2.4850  2.1663 -1.1500
10356SOL    HW242288   8.210   9.845   5.358  0.0743 -1.1970  0.5944
10357SOL     OW42289   3.467   4.420   0.187 -0.3223  0.0313 -0.6889
10357SOL    HW142290   3.448   4.515   0.210  0.4927 -0.0820  0.5105
10357SOL    HW242291   3.391   4.362   0.217 -0.3284  0.1693 -0.4416
10358SOL     OW42292   7.690   5.171   5.645  0.1291 -0.0845  0.0980
10358SOL    HW142293   7.691   5.071   5.646 -1.5754 -0.1018  0.6377
10358SOL    HW242294   7.697   5.205   5.739 -1.0873  0.2809  0.0565
10359SOL     OW42295   6.096   8.492   2.524  0.0863  0.2668 -0.1336
10359SOL    HW142296   6.180   8.442   2.548 -0.6372 -1.9492 -2.0498
10359SOL    HW242297   6.017   8.446   2.565 -0.5761 -0.1537 -1.8584
10360SOL     OW42298   0.624   5.702   0.702  0.2913 -0.2068  0.0677
10360SOL    HW142299   0.721   5.676   0.704  0.1358 -0.7688  0.6515
10360SOL    HW242300   0.569   5.620   0.688 -0.0300  0.3162 -1.7773
10361SOL     OW42301   9.379   4.086   2.456 -0.2484  0.4776 -0.1926
10361SOL    HW142302   9.306   4.149   2.429  0.6704  1.8551  0.4574
10361SOL    HW242303   9.389   4.015   2.387 -1.8895  0.5362 -0.5126
10362SOL     OW42304   3.842   0.971   0.359  0.0372 -0.8214 -0.0301
10362SOL    HW142305   3.848   0.924   0.447  0.0951 -1.2862 -0.2829
10362SOL    HW242306   3.892   0.919   0.289 -0.1636 -0.5506 -0.3773
10363SOL     OW42307   4.780   1.504   1.781  0.2420  0.1706 -0.5176
10363SOL    HW142308   4.725   1.514   1.698 -1.3148 -1.7511  0.2559
10363SOL    HW242309   4.874   1.480   1.756 -0.2113 -0.4156 -1.7040
10364SOL     OW42310   8.129   4.401   8.147  0.3064 -0.5734  0.4007
10364SOL    HW142311   8.171   4.467   8.209 -2.2512  0.9677  0.5510
10364SOL    HW242312   8.201   4.352   8.098  2.2873  2.6541 -0.0848
10365SOL     OW42313   9.421   6.296   5.833 -0.1410  0.1544  0.1014
10365SOL    HW142314   9.401   6.199   5.818 -0.4786  0.4470 -1.4240
10365SOL    HW242315   9.345   6.338   5.883  0.6859 -0.6863  2.1121
10366SOL     OW42316   3.817   9.017   0.532  0.2637  0.4102  0.1653
10366SOL    HW142317   3.867   8.967   0.461  0.9863  1.1371  0.1472
10366SOL    HW242318   3.813   8.962   0.615 -0.8808 -0.5844 -0.5437
10367SOL     OW42319   8.668   5.748   5.127 -0.1896 -0.1836 -0.4470
10367SOL    HW142320   8.630   5.695   5.051 -1.1054 -1.2652  0.7419
10367SOL    HW242321   8.744   5.803   5.094 -0.1881 -1.0873 -2.0253
10368SOL     OW42322   2.728   2.128   0.236  0.3794  0.4495  0.1711
10368SOL    HW142323   2.681   2.210   0.202 -0.7278  1.3437  3.6459
10368SOL    HW242324   2.789   2.153   0.311  1.2665 -1.7008  0.2000
10369SOL     OW42325   3.804   7.519   5.130 -0.4353 -0.7415 -0.0757
10369SOL    HW142326   3.805   7.592   5.062  1.0697 -0.8493 -0.1913
10369SOL    HW242327   3.809   7.558   5.222  1.3169 -0.7090 -0.1680
10370SOL     OW42328   8.454   5.163   3.742 -0.3440  0.2408  0.4300
10370SOL    HW142329   8.510   5.208   3.671 -2.2101  2.3769  0.2331
10370SOL    HW242330   8.382   5.110   3.698 -0.5364  0.2691  0.7157
10371SOL     OW42331   0.719   3.030   1.100  0.2744  0.0464 -0.5978
10371SOL    HW142332   0.811   2.993   1.117  0.6956  1.2762 -0.1209
10371SOL    HW242333   0.676   2.979   1.026  1.3979 -0.4581 -0.9185
10372SOL     OW42334   5.424   1.918   3.395 -0.2081  0.1554  0.5543
10372SOL    HW142335   5.486   1.939   3.471  0.5734  0.9045 -0.2755
10372SOL    HW242336   5.478   1.899   3.313 -1.0745  1.7873 -0.4310
10373SOL     OW42337   5.490   3.990   1.089  0.4565  0.5088 -0.4856
10373SOL    HW142338   5.587   4.006   1.074  0.8017  0.2400  1.3250
10373SOL    HW242339   5.457   4.051   1.162 -0.4543 -0.2147 -0.2793
10374SOL     OW42340   5.027   6.744   0.790 -0.3525  0.1853  0.3846
10374SOL    HW142341   5.053   6.772   0.882 -0.3366 -0.3083  0.5349
10374SOL    HW242342   5.108   6.712   0.740  0.2249  3.4055 -0.9079
10375SOL     OW42343   2.740   9.606   5.905 -0.3557 -0.0357  0.0259
10375SOL    HW142344   2.781   9.632   5.817  0.1077 -1.6177 -0.2336
10375SOL    HW242345   2.655   9.556   5.888  0.3862 -1.4709  0.4204
10376SOL     OW42346   8.044   8.598   3.448 -0.1799  0.2338  0.3680
10376SOL    HW142347   7.945   8.589   3.465  0.3042 -1.5211  2.4570
10376SOL    HW242348   8.078   8.515   3.404  0.6993  0.0318  1.4175
10377SOL     OW42349   7.358   9.370   5.177 -0.1908 -0.2689 -0.4369
10377SOL    HW142350   7.361   9.299   5.107 -0.4943 -0.3343 -0.3849
10377SOL    HW242351   7.275   9.424   5.166 -0.1210 -0.1265 -0.2755
10378SOL     OW42352   8.313   1.279   1.295 -0.7374 -0.1354  0.3154
10378SOL    HW142353   8.236   1.321   1.246 -1.1711  0.5597  1.5488
10378SOL    HW242354   8.289   1.270   1.392  0.9997  0.7129  0.8408
10379SOL     OW42355   0.870   4.708   0.510  0.3063  0.3540 -0.0163
10379SOL    HW142356   0.780   4.685   0.473 -0.7941  1.9354  1.6486
10379SOL    HW242357   0.896   4.640   0.579 -0.2748  0.7284  0.5731
10380SOL     OW42358   0.890   5.346   4.387 -0.1380 -0.3370  0.3593
10380SOL    HW142359   0.973   5.296   4.410 -1.4309 -2.1588  1.1556
10380SOL    HW242360   0.866   5.407   4.463 -0.8860 -1.6574  1.2060
10381SOL     OW42361   6.582   8.509   4.761 -0.3185 -0.0887 -0.3952
10381SOL    HW142362   6.524   8.429   4.778 -0.6808  0.4608  1.0133
10381SOL    HW242363   6.526   8.584   4.727 -0.6790  0.8010  2.0212
10382SOL     OW42364   7.933   9.372   4.698  0.1646  0.0029  0.0335
10382SOL    HW142365   7.886   9.457   4.678  0.8535  0.5229  0.6062
10382SOL    HW242366   7.993   9.385   4.777  0.1393 -1.0578  0.2358
10383SOL     OW42367   0.486   5.549   3.485 -0.2058 -0.4082 -0.7750
10383SOL    HW142368   0.483   5.477   3.555  0.5040  0.0590 -0.2555
10383SOL    HW242369   0.531   5.515   3.403  0.1941 -0.5279 -0.5032
10384SOL     OW42370   6.578   4.886   7.774 -0.2614  0.3013 -0.1848
10384SOL    HW142371   6.582   4.985   7.757  0.1599  0.5622  1.3502
10384SOL    HW242372   6.527   4.869   7.858  2.3857 -0.5540  1.3247
10385SOL     OW42373   1.042   6.138   2.602 -0.0895 -0.2767  0.3568
10385SOL    HW142374   0.979   6.091   2.663 -1.2650  0.7029 -0.0695
10385SOL    HW242375   0.993   6.166   2.519  1.1829 -0.4969 -0.4869
10386SOL     OW42376   9.633   2.800   5.436  0.2234  0.3366 -0.4877
10386SOL    HW142377   9.609   2.784   5.532  0.2273  1.0759 -0.3567
10386SOL    HW242378   9.634   2.713   5.386 -1.2741  0.1273 -0.1608
10387SOL     OW42379   4.089   3.020   5.955 -0.3220  0.1786 -0.0192
10387SOL    HW142380   4.063   3.004   6.050  0.4148  0.6898  0.2741
10387SOL    HW242381   4.013   3.063   5.906 -0.7853 -0.2931  0.2796
10388SOL     OW42382   8.716   6.298   4.339 -0.0463 -0.0505 -0.0867
10388SOL    HW142383   8.671   6.305   4.427 -1.6940  2.1335 -1.0500
10388SOL    HW242384   8.807   6.259   4.351  0.6910  2.3981  2.8893
10389SOL     OW42385   9.254   0.906   6.559  0.2618 -0.4975 -0.4107
10389SOL    HW142386   9.247   0.809   6.537 -1.0546 -0.0965 -1.8304
10389SOL    HW242387   9.254   0.959   6.475 -0.7286  0.8299  0.4069
10390SOL     OW42388   1.825   5.505   4.509 -0.4998  1.0508 -0.3267
10390SOL    HW142389   1.785   5.591   4.476 -1.5441  1.1654  1.1975
10390SOL    HW242390   1.756   5.453   4.559  0.5910  0.1020  0.2000
10391SOL     OW42391   9.667   0.478   5.545 -0.0813  0.5393  0.2989
10391SOL    HW142392   9.720   0.548   5.593  3.6464 -1.6706 -0.3769
10391SOL    HW242393   9.621   0.419   5.611 -0.2736  1.4273  0.9618
10392SOL     OW42394   3.748   4.049   1.728 -0.1969 -0.3745 -0.2349
10392SOL    HW142395   3.651   4.061   1.708  0.0220  0.0628 -1.0857
10392SOL    HW242396   3.800   4.120   1.681  0.6395 -1.3406 -0.7762
10393SOL     OW42397   2.338   8.959   2.641 -0.4832  0.0542 -0.3233
10393SOL    HW142398   2.406   8.950   2.568 -0.3914  1.9358 -0.4756
10393SOL    HW242399   2.381   8.938   2.729  0.0661  0.3365 -0.5213
10394SOL     OW42400   0.780   1.699   6.191  0.2423  0.7420  0.1616
10394SOL    HW142401   0.681   1.704   6.174 -0.1064  1.2430  2.1394
10394SOL    HW242402   0.806   1.604   6.206 -0.2145  0.7456  1.0332
10395SOL     OW42403   0.307   0.761   4.351  0.5802  0.4298  0.3266
10395SOL    HW142404   0.249   0.742   4.271 -0.1187  2.2352  0.3784
10395SOL    HW242405   0.395   0.716   4.340 -0.0059 -0.4503 -0.8395
10396SOL     OW42406   5.427   0.352   2.970 -0.2979 -0.3586 -0.1566
10396SOL    HW142407   5.400   0.256   2.973  1.0114 -0.7351 -0.1487
10396SOL    HW242408   5.415   0.386   2.876  1.2994 -1.1478 -0.6635
10397SOL     OW42409   0.508   6.940   0.876  0.0809 -0.0251  0.4040
10397SOL    HW142410   0.477   6.933   0.971 -0.2670  1.7003  0.4299
10397SOL    HW242411   0.497   7.034   0.845  0.8697 -0.4368 -1.1238
10398SOL     OW42412   1.508   3.654   3.760 -0.2713 -0.1044  0.1035
10398SOL    HW142413   1.448   3.730   3.734  0.2380 -0.4427 -2.1490
10398SOL    HW242414   1.507   3.585   3.688  1.4911 -0.9042  0.8260
10399SOL     OW42415   3.974   1.492   6.158  0.2996 -0.1400  0.3750
10399SOL    HW142416   4.063   1.466   6.122  0.4338 -1.0340  1.3198
10399SOL    HW242417   3.910   1.415   6.149 -0.9736  1.1424 -2.1499
10400SOL     OW42418   0.085   0.275   0.975  0.5313  0.2722 -0.5755
10400SOL    HW142419  -0.006   0.313   0.991 -0.6698 -2.3437 -0.8938
10400SOL    HW242420   0.149   0.349   0.957 -1.2744  2.2481  0.8376
10401SOL     OW42421   1.607   5.120   1.989 -0.7282 -0.1527 -0.1790
10401SOL    HW142422   1.675   5.082   2.052 -1.3943 -0.0228  0.6288
10401SOL    HW242423   1.652   5.181   1.924 -0.0607 -0.1359  0.2911
10402SOL     OW42424   5.702   6.387   1.375  0.0986  0.1797  0.1778
10402SOL    HW142425   5.684   6.328   1.454  1.4041 -0.7229 -0.1812
10402SOL    HW242426   5.708   6.482   1.405 -1.4369  0.0883  0.8527
10403SOL     OW42427   8.866   1.099   3.549 -0.0676 -0.0470  0.6382
10403SOL    HW142428   8.949   1.119   3.602  0.1060 -0.2463  0.4441
10403SOL    HW242429   8.877   1.011   3.503 -0.2747  0.0617  0.3839
10404SOL     OW42430   4.094   3.478   3.463  0.0493  0.2831  0.4916
10404SOL    HW142431   4.142   3.518   3.541 -0.7891  0.1835  1.0707
10404SOL    HW242432   4.116   3.380   3.457 -0.2417  0.1922  0.8816
10405SOL     OW42433   2.508   0.509   4.546 -0.3435  0.3067 -0.1678
10405SOL    HW142434   2.482   0.554   4.461  0.3410  1.3420  0.1630
10405SOL    HW242435   2.608   0.499   4.550 -0.3466  0.5429  0.6403
10406SOL     OW42436   7.314   5.699   1.068 -0.2121 -0.3890 -0.1886
10406SOL    HW142437   7.224   5.669   1.037 -0.7358 -0.1670  1.1027
10406SOL    HW242438   7.343   5.644   1.147 -0.0465  0.7923  0.5794
10407SOL     OW42439   9.495   7.646   1.046  0.0158  0.2933  0.0950
10407SOL    HW142440   9.541   7.622   0.961  0.7081  0.0309  0.5341
10407SOL    HW242441   9.548   7.610   1.123 -0.8217  0.1705  0.6164
10408SOL     OW42442   9.523   4.923   3.772  0.0117  0.0029  0.6169
10408SOL    HW142443   9.444   4.984   3.769  0.0185 -0.0028  0.2793
10408SOL    HW242444   9.491   4.828   3.775 -0.0205  0.0484  2.5061
10409SOL     OW42445   7.653   6.346   5.389  0.0640  0.3031  0.4198
10409SOL    HW142446   7.729   6.304   5.439 -0.1604  0.9946  1.3597
10409SOL    HW242447   7.574   6.285   5.391  0.6104 -0.4644 -0.6518
10410SOL     OW42448   8.343   9.240   2.960  0.4164  0.0805  0.1041
10410SOL    HW142449   8.364   9.268   3.054  1.0957  0.9137 -0.2985
10410SOL    HW242450   8.300   9.149   2.962  2.2966 -0.8203  1.0597
10411SOL     OW42451   8.525   3.057   0.930  0.3143  0.2079  0.4077
10411SOL    HW142452   8.474   2.972   0.940 -0.2874  0.7304  1.9490
10411SOL    HW242453   8.577   3.055   0.844 -0.1954 -1.4284  0.1198
10412SOL     OW42454   9.268   5.584   3.177 -0.3871 -0.1492  0.7559
10412SOL    HW142455   9.221   5.634   3.104 -2.4328 -3.0022  0.0265
10412SOL    HW242456   9.259   5.635   3.263 -1.6055  1.2049 -0.1437
10413SOL     OW42457   0.103   6.732   3.829  0.0507  0.1297 -0.5047
10413SOL    HW142458   0.162   6.728   3.749 -0.6538  0.9403 -1.0649
10413SOL    HW242459   0.097   6.641   3.871  1.4551 -0.0147 -0.6091
10414SOL     OW42460   7.419   8.584   2.896  0.0104 -0.1939  0.2353
10414SOL    HW142461   7.381   8.554   2.809  0.5977  0.7188 -0.3558
10414SOL    HW242462   7.506   8.630   2.880 -1.4131  2.8893  0.9547
10415SOL     OW42463   8.248   7.273   4.508  0.1217 -0.2289  0.2294
10415SOL    HW142464   8.181   7.323   4.562  0.5391  2.0644 -1.2990
10415SOL    HW242465   8.211   7.255   4.417  1.3870  0.6423 -0.4667
10416SOL     OW42466   9.687   3.840   3.529  0.0834  0.3198  0.3085
10416SOL    HW142467   9.644   3.783   3.599  0.5889 -0.6993 -0.2060
10416SOL    HW242468   9.755   3.900   3.571 -0.8638  0.9776  0.9361
10417SOL     OW42469   1.664   7.181   3.245  0.2824  0.0125 -0.5005
10417SOL    HW142470   1.585   7.240   3.259  0.6343 -0.1158  2.1672
10417SOL    HW242471   1.666   7.151   3.150 -2.2849  0.8359 -0.8516
10418SOL     OW42472   6.848   3.015   1.379 -0.3642  0.3341  0.5537
10418SOL    HW142473   6.906   2.967   1.444  1.6872  0.6551 -0.9932
10418SOL    HW242474   6.854   2.971   1.289 -1.2450  1.3599 -0.0257
10419SOL     OW42475   5.370   0.485   3.411 -0.3485  0.3959  0.3657
10419SOL    HW142476   5.428   0.506   3.331  1.6023  0.9317  1.8814
10419SOL    HW242477   5.303   0.558   3.424 -0.1346  0.7139 -0.2871
10420SOL     OW42478   0.215   9.657   3.290  0.4615 -0.0980 -0.5252
10420SOL    HW142479   0.300   9.629   3.246  0.3080  1.0169 -1.5763
10420SOL    HW242480   0.140   9.599   3.257  0.7897 -0.9882  0.2950
10421SOL     OW42481   0.058   4.976   0.974 -0.0263 -0.1263 -0.0012
10421SOL    HW142482   0.127   4.951   0.906  1.7741  2.3821  0.7890
10421SOL    HW242483   0.085   4.940   1.064 -0.4390 -0.2965  0.0524
10422SOL     OW42484   2.337   8.789   4.785 -0.3894  0.1861  0.1206
10422SOL    HW142485   2.419   8.766   4.838 -0.8333  1.1631  1.2643
10422SOL    HW242486   2.323   8.721   4.714  0.3988 -0.9802  1.0652
10423SOL     OW42487   4.470   5.569   2.143  0.1175  0.1670  0.0397
10423SOL    HW142488   4.480   5.473   2.169 -2.1534 -0.2506 -0.4743
10423SOL    HW242489   4.559   5.607   2.120  1.2791 -1.3103  1.9554
10424SOL     OW42490   1.344   8.269   3.295  0.0950 -0.4733 -0.4763
10424SOL    HW142491   1.318   8.309   3.207 -0.6848  0.8561  0.3501
10424SOL    HW242492   1.347   8.340   3.364  0.5924 -1.5410  0.6159
10425SOL     OW42493   5.688   8.663   5.898 -0.4742  0.1706 -0.4538
10425SOL    HW142494   5.756   8.609   5.848 -0.4272 -0.1352 -0.0660
10425SOL    HW242495   5.721   8.677   5.992  1.0506  3.5966 -1.4110
10426SOL     OW42496   7.154   4.541   1.754  0.0706 -0.0255  0.3817
10426SOL    HW142497   7.103   4.461   1.786 -1.2157  1.2557  1.6010
10426SOL    HW242498   7.191   4.590   1.833  1.1353  0.4044 -0.3780
10427SOL     OW42499   9.068   1.723   0.856 -0.1283 -1.0421  0.4090
10427SOL    HW142500   9.029   1.715   0.948 -1.4236  0.7562  0.0414
10427SOL    HW242501   9.015   1.665   0.794 -1.4124  0.3426  0.1742
10428SOL     OW42502   9.413   3.501   5.627 -0.0199 -0.0344 -0.3938
10428SOL    HW142503   9.476   3.468   5.697 -2.4943 -1.7005  1.1293
10428SOL    HW242504   9.370   3.423   5.582 -1.7212  1.0771 -0.7254
10429SOL     OW42505   6.230   9.044   5.351 -0.1193 -0.3718  0.3109
10429SOL    HW142506   6.302   9.096   5.305 -0.9763 -0.1455 -0.8135
10429SOL    HW242507   6.257   8.948   5.355  0.5261 -0.1850  0.4658
10430SOL     OW42508   9.115   3.497   4.125  0.4654  0.4065 -0.3971
10430SOL    HW142509   9.132   3.557   4.203  1.5481  0.4844 -0.6847
10430SOL    HW242510   9.163   3.533   4.045 -1.3676  0.8234 -1.3276
10431SOL     OW42511   9.754   8.372   0.937 -0.6422 -0.0387 -0.3114
10431SOL    HW142512   9.764   8.398   0.841 -0.4692 -0.1664 -0.3295
10431SOL    HW242513   9.788   8.279   0.950  0.2273  0.3212  0.0551
10432SOL     OW42514   8.273   1.663   0.541  0.1682 -0.2173  0.0644
10432SOL    HW142515   8.243   1.571   0.518 -1.3844  0.6460 -1.4872
10432SOL    HW242516   8.295   1.668   0.639 -0.2162 -2.0887  0.2561
10433SOL     OW42517   1.164   9.921   3.178  0.2816 -0.2830 -0.1058
10433SOL    HW142518   1.169   9.987   3.252  0.3547 -1.4155  0.9031
10433SOL    HW242519   1.178   9.829   3.213  0.4102 -0.8312 -1.5349
10434SOL     OW42520   6.941   7.078   5.167  0.2649  0.3381  0.7708
10434SOL    HW142521   7.018   7.089   5.229 -0.0710  0.8883  1.0984
10434SOL    HW242522   6.964   7.012   5.096  0.4986 -0.6144  1.7336
10435SOL     OW42523   1.244   8.174   2.704  0.0121  0.0438 -0.2633
10435SOL    HW142524   1.190   8.220   2.633 -0.6453  0.6222  0.5976
10435SOL    HW242525   1.341   8.195   2.691 -0.1956  0.9539 -0.4247
10436SOL     OW42526   2.323   7.416   5.307 -0.3401  0.3219  0.0720
10436SOL    HW142527   2.351   7.325   5.278 -1.5317 -0.0268  0.0124
10436SOL    HW242528   2.402   7.465   5.344  0.0519 -1.1911  1.3095
10437SOL     OW42529   9.534   2.949   3.815 -0.2619 -0.4301 -0.5850
10437SOL    HW142530   9.444   2.937   3.773 -0.5000 -0.9526  0.0623
10437SOL    HW242531   9.523   2.991   3.905  0.0878 -1.0340 -0.2569
10438SOL     OW42532   7.904   7.430   6.346 -0.9621  0.1636  0.5300
10438SOL    HW142533   7.831   7.454   6.411 -0.6337  0.0074  0.9611
10438SOL    HW242534   7.896   7.334   6.320  1.1249 -0.8324  3.2679
10439SOL     OW42535   6.781   7.296   5.861  0.0031 -0.0250  0.4991
10439SOL    HW142536   6.845   7.231   5.821  1.1044  1.3957 -0.0780
10439SOL    HW242537   6.794   7.298   5.960  0.6798  0.0780  0.4111
10440SOL     OW42538   6.164   0.604   6.624  0.5698  0.0619 -0.0456
10440SOL    HW142539   6.115   0.678   6.576  0.6200  0.8718  1.1218
10440SOL    HW242540   6.262   0.617   6.611  0.6519  1.2100  1.5752
10441SOL     OW42541   1.053   7.550   0.191 -0.3780  0.7498 -0.0323
10441SOL    HW142542   1.054   7.631   0.249  0.9243  1.7042 -1.3489
10441SOL    HW242543   1.140   7.543   0.142 -1.4086 -0.0554 -1.8051
10442SOL     OW42544   4.748   1.707   0.096 -0.3732 -0.1951  0.3351
10442SOL    HW142545   4.669   1.767   0.083 -0.5566 -0.4634  0.2019
10442SOL    HW242546   4.810   1.716   0.019  0.1081  0.5845  0.7959
10443SOL     OW42547   2.874   9.052   2.161 -0.0306  0.1476  0.0698
10443SOL    HW142548   2.791   9.028   2.111  0.0936 -1.2223  0.5078
10443SOL    HW242549   2.934   9.105   2.101 -0.9418  0.6142 -0.4438
10444SOL     OW42550   9.385   7.591   4.275 -0.3138  0.5682  0.2097
10444SOL    HW142551   9.330   7.647   4.214 -1.0614 -1.4995 -1.0772
10444SOL    HW242552   9.476   7.578   4.235 -1.0464 -1.4094 -0.8814
10445SOL     OW42553   9.381   8.152   4.379  0.3286 -0.3487 -0.4730
10445SOL    HW142554   9.384   8.118   4.285 -0.6110 -0.7144 -0.3760
10445SOL    HW242555   9.286   8.163   4.408  0.6128  0.0863  0.3178
10446SOL     OW42556   3.650   2.353   0.857 -0.0757 -0.2698  0.1119
10446SOL    HW142557   3.576   2.328   0.795  1.2016 -0.0124 -1.5531
10446SOL    HW242558   3.658   2.285   0.929  0.1847 -2.0193 -1.5505
10447SOL     OW42559   0.594   3.713   1.102 -0.8997  0.7599 -0.0505
10447SOL    HW142560   0.633   3.779   1.037 -1.7572  0.7615 -0.5643
10447SOL    HW242561   0.524   3.758   1.156 -0.2001  0.7501  0.8724
10448SOL     OW42562   6.103   9.329   6.469 -0.5309 -0.4742 -0.6077
10448SOL    HW142563   6.037   9.338   6.395  0.4008  0.1875 -1.3637
10448SOL    HW242564   6.165   9.253   6.450  1.4262  1.3809 -1.8755
10449SOL     OW42565   0.443   6.815   0.627  0.3960  0.0942 -0.1506
10449SOL    HW142566   0.381   6.882   0.587 -0.6528 -1.5682 -1.3886
10449SOL    HW242567   0.480   6.850   0.713 -3.1114  0.6448  1.1858
10450SOL     OW42568   5.128   1.564   5.223 -0.2596 -0.2629 -0.1605
10450SOL    HW142569   5.178   1.478   5.217 -0.8669 -0.6045 -0.4020
10450SOL    HW242570   5.154   1.612   5.307  2.8184  1.0836 -1.7745
10451SOL     OW42571   2.920   4.632   1.127 -0.6185  0.7268 -0.7126
10451SOL    HW142572   2.844   4.625   1.191 -0.4082  0.4347 -0.4932
10451SOL    HW242573   2.987   4.698   1.163 -0.8913  1.1728 -1.0297
10452SOL     OW42574   8.197   8.495   3.199 -0.4973  0.6229  0.1895
10452SOL    HW142575   8.252   8.422   3.239  0.0330  1.8066  1.6482
10452SOL    HW242576   8.110   8.457   3.167  1.3044 -1.3622 -2.5656
10453SOL     OW42577   2.969   4.056   3.606 -0.2305 -0.2320  0.0282
10453SOL    HW142578   2.947   4.021   3.514  0.6054  1.7542 -0.9405
10453SOL    HW242579   2.945   3.986   3.674  0.7458 -2.4345 -1.8038
10454SOL     OW42580   4.171   7.472   4.595  0.3529  0.1206 -0.2378
10454SOL    HW142581   4.266   7.444   4.609  0.5359  0.2331 -1.2612
10454SOL    HW242582   4.144   7.535   4.669  0.1934 -2.0493  1.6120
10455SOL     OW42583   8.201   1.204   0.461  0.1927  0.2550 -0.1449
10455SOL    HW142584   8.232   1.159   0.377 -1.2202  0.6802 -0.9130
10455SOL    HW242585   8.103   1.187   0.474 -0.1288  2.1861  0.1445
10456SOL     OW42586   3.948   4.172   1.063  0.5506 -0.0001 -0.4813
10456SOL    HW142587   3.929   4.089   1.012 -0.4326 -0.0706 -0.0182
10456SOL    HW242588   4.001   4.149   1.145  1.4729  0.0170 -1.0633
10457SOL     OW42589   9.209   2.147   6.154 -1.0270  0.7871  0.1329
10457SOL    HW142590   9.166   2.133   6.065  0.2273 -0.6136 -0.2823
10457SOL    HW242591   9.283   2.214   6.146 -0.9288  0.6795  0.1177
10458SOL     OW42592   3.750   3.734   4.166 -0.1352 -0.5159  0.3397
10458SOL    HW142593   3.750   3.759   4.069 -1.8922  1.1178  0.7343
10458SOL    HW242594   3.737   3.636   4.175  2.5975 -1.0624 -1.1365
10459SOL     OW42595   7.843   1.271   5.172  0.1466 -0.4182  0.1960
10459SOL    HW142596   7.790   1.225   5.100  1.4721  1.1683 -1.8305
10459SOL    HW242597   7.794   1.353   5.202  0.5162 -0.0381 -0.2492
10460SOL     OW42598   2.036   9.511   5.635 -0.0303  0.3701 -0.1778
10460SOL    HW142599   2.076   9.590   5.589  0.9719 -0.2982 -0.4746
10460SOL    HW242600   2.001   9.447   5.566 -0.6414  0.4501  0.0540
10461SOL     OW42601   7.220   6.865   4.223  0.0444 -0.0463  0.4126
10461SOL    HW142602   7.134   6.904   4.256  0.6719  1.7831 -0.0555
10461SOL    HW242603   7.278   6.938   4.188  0.7507 -1.5734 -1.6539
10462SOL     OW42604   1.290   8.859   2.597  0.7565 -0.0537  0.5538
10462SOL    HW142605   1.323   8.766   2.578  1.1857  0.4604 -1.3090
10462SOL    HW242606   1.361   8.925   2.574 -0.2672  0.8522 -0.0903
10463SOL     OW42607   3.825   5.707   2.887 -0.0351 -0.2693  0.1734
10463SOL    HW142608   3.876   5.623   2.910  1.6411  1.3762  2.7637
10463SOL    HW242609   3.883   5.767   2.832  0.1719  0.8117  1.5526
10464SOL     OW42610   8.199   3.336   0.768 -0.1417 -0.3241  0.2561
10464SOL    HW142611   8.201   3.433   0.742 -0.0298 -1.1019 -2.9103
10464SOL    HW242612   8.290   3.307   0.797  0.2896  0.0821 -0.6653
10465SOL     OW42613   8.603   0.371   5.791 -0.2677 -0.3645 -0.2435
10465SOL    HW142614   8.681   0.384   5.730 -0.0132  0.3992  0.2427
10465SOL    HW242615   8.518   0.376   5.737 -0.0782  1.1326 -0.4238
10466SOL     OW42616   7.985   6.657   0.669 -0.2966 -0.3394 -0.0369
10466SOL    HW142617   7.919   6.630   0.598  0.6741  1.1020 -1.5281
10466SOL    HW242618   8.076   6.665   0.628  0.7456 -1.8520  1.8984
10467SOL     OW42619   7.065   8.833   5.791  0.2009 -0.1199  0.4698
10467SOL    HW142620   7.105   8.765   5.853 -0.1251 -0.8422 -0.1074
10467SOL    HW242621   7.064   8.796   5.698 -1.8798 -0.1249  0.4877
10468SOL     OW42622   4.518   5.333   1.823 -0.3490 -0.4740 -0.1129
10468SOL    HW142623   4.515   5.234   1.837  0.0914 -0.3768  0.6808
10468SOL    HW242624   4.441   5.377   1.868  0.3506 -0.2964  0.9354
10469SOL     OW42625   0.549   2.135   4.945  0.3610 -0.3383  0.1411
10469SOL    HW142626   0.528   2.228   4.914 -1.7326 -0.4973  1.0266
10469SOL    HW242627   0.615   2.139   5.020  3.4492  0.1838 -2.5161
10470SOL     OW42628   1.264   6.294   3.955  0.4863  0.3750 -0.8224
10470SOL    HW142629   1.168   6.270   3.962  1.3683 -2.5898  2.4676
10470SOL    HW242630   1.317   6.213   3.931  2.3631  1.6241 -1.0082
10471SOL     OW42631   8.802   9.339   3.139 -0.6365 -0.2099  0.3913
10471SOL    HW142632   8.811   9.363   3.043 -1.1892 -2.6019 -0.2899
10471SOL    HW242633   8.884   9.367   3.189  0.6754 -1.1252 -1.2314
10472SOL     OW42634   4.056   4.497   3.333 -0.1183 -0.4066 -0.3932
10472SOL    HW142635   4.152   4.518   3.351 -0.3608  0.0466  0.4198
10472SOL    HW242636   4.032   4.526   3.241 -0.1373  1.8740  0.2873
10473SOL     OW42637   6.076   2.391   3.854  0.1578  0.1813 -0.1004
10473SOL    HW142638   6.075   2.435   3.764 -2.5815  0.3057 -0.0668
10473SOL    HW242639   6.111   2.298   3.845 -0.9321 -0.1156 -1.4753
10474SOL     OW42640   0.278   8.395   8.058  0.7484 -0.5590 -0.9090
10474SOL    HW142641   0.262   8.489   8.029  0.9459  0.1811  1.2807
10474SOL    HW242642   0.336   8.395   8.139 -0.0789 -2.5182 -0.2911
10475SOL     OW42643   0.655   6.792   4.573 -0.6845 -0.0910  0.1084
10475SOL    HW142644   0.689   6.701   4.597  1.1393  0.2813 -0.9648
10475SOL    HW242645   0.558   6.798   4.596 -0.3521 -1.6155  2.0721
10476SOL     OW42646   5.167   1.906   5.757 -0.3637 -0.8659 -0.3022
10476SOL    HW142647   5.221   1.990   5.753  0.7398 -1.5655 -0.6049
10476SOL    HW242648   5.078   1.921   5.715 -0.5449  0.4135  0.5250
10477SOL     OW42649   8.748   7.233   2.268 -0.0591 -0.1447 -0.5842
10477SOL    HW142650   8.768   7.264   2.175  0.1155  0.2172 -0.4245
10477SOL    HW242651   8.726   7.311   2.326 -1.5571 -0.4857 -0.6554
10478SOL     OW42652   7.041   4.655   1.027  0.2449  0.5334 -0.0777
10478SOL    HW142653   6.970   4.620   0.966  1.1221 -1.6597  0.1197
10478SOL    HW242654   7.000   4.673   1.117 -0.2062 -0.0845 -0.1534
10479SOL     OW42655   5.444   5.609   0.731  0.1136 -0.3148 -0.4813
10479SOL    HW142656   5.437   5.663   0.815 -0.2109 -0.6795 -0.2749
10479SOL    HW242657   5.540   5.583   0.717  0.1770 -0.2071 -0.2558
10480SOL     OW42658   0.818   6.232   0.428 -0.1764 -0.5588  0.0125
10480SOL    HW142659   0.743   6.280   0.473  0.1950 -0.0235  0.0647
10480SOL    HW242660   0.789   6.202   0.338 -0.3488 -0.0741 -0.0953
10481SOL     OW42661   7.142   6.705   5.155  0.7173 -0.0658  0.0266
10481SOL    HW142662   7.211   6.646   5.195  0.4405 -2.5754 -3.0475
10481SOL    HW242663   7.186   6.777   5.102  0.9877 -0.5449 -0.3979
10482SOL     OW42664   3.981   9.559   1.354 -0.3230  0.1716 -0.0081
10482SOL    HW142665   3.928   9.529   1.274 -0.2766  2.1209 -0.7784
10482SOL    HW242666   3.933   9.632   1.401  0.6180  0.4044  0.6095
10483SOL     OW42667   2.206   7.368   2.277 -0.4303 -0.2764  0.1845
10483SOL    HW142668   2.303   7.389   2.266 -0.5037 -0.7478 -1.4243
10483SOL    HW242669   2.160   7.447   2.319  0.3822  0.4982 -0.3622
10484SOL     OW42670   8.207   5.899   4.859  0.4282  0.2833 -0.6768
10484SOL    HW142671   8.260   5.912   4.943  0.5383  0.4694 -0.7755
10484SOL    HW242672   8.122   5.951   4.865  0.5577  0.5062 -0.7921
10485SOL     OW42673   6.801   3.077   3.380 -0.2640  0.0874 -0.3351
10485SOL    HW142674   6.842   3.013   3.445  1.2709  0.7747 -0.6088
10485SOL    HW242675   6.717   3.114   3.419  1.0096  1.0301  1.5862
10486SOL     OW42676   1.690   6.074   1.562  0.0573 -0.1439 -0.4115
10486SOL    HW142677   1.626   6.148   1.581 -1.3969 -1.2284 -0.9861
10486SOL    HW242678   1.693   6.011   1.639 -0.1097 -0.4768 -0.6757
10487SOL     OW42679   5.165   5.613   1.471  0.1251  1.1414 -0.0554
10487SOL    HW142680   5.148   5.557   1.552  2.1872  0.8872  0.2273
10487SOL    HW242681   5.178   5.554   1.392  0.6067  1.2693 -0.0777
10488SOL     OW42682   5.060   8.319   6.133  0.3399  0.0782  0.1146
10488SOL    HW142683   5.150   8.297   6.094 -0.0923  1.6411 -1.8633
10488SOL    HW242684   4.992   8.321   6.060 -0.8099  1.5733  1.1984
10489SOL     OW42685   8.171   0.898   4.343 -0.3156 -0.0097  0.1378
10489SOL    HW142686   8.080   0.857   4.353 -0.1470 -0.2711  0.6090
10489SOL    HW242687   8.228   0.839   4.286  0.3893 -1.1941  2.0024
10490SOL     OW42688   3.022   7.533   5.603 -0.5336  0.2771  0.6783
10490SOL    HW142689   3.029   7.528   5.503 -1.3724  0.7633  0.5901
10490SOL    HW242690   2.962   7.609   5.629  2.5152  2.4218  1.6748
10491SOL     OW42691   3.868   7.527   2.041 -0.0408 -0.0863 -0.0651
10491SOL    HW142692   3.923   7.601   2.003 -0.0430  0.1437  0.3793
10491SOL    HW242693   3.856   7.455   1.972 -1.0277  0.8561 -0.8782
10492SOL     OW42694   8.354   3.825   5.353  0.8367 -0.2395  0.0275
10492SOL    HW142695   8.342   3.863   5.445 -1.1475 -0.5826 -0.0681
10492SOL    HW242696   8.289   3.750   5.339  1.2318 -0.2978 -1.5930
10493SOL     OW42697   4.106   2.135   5.834  0.0366  0.1204  0.3324
10493SOL    HW142698   4.193   2.177   5.856  0.2783  0.8749 -1.8954
10493SOL    HW242699   4.036   2.206   5.820 -0.3987 -0.3656 -0.0202
10494SOL     OW42700   1.253   9.743   5.951  0.2112 -0.0144 -0.1042
10494SOL    HW142701   1.261   9.787   6.040  3.7197 -0.1875 -0.2731
10494SOL    HW242702   1.261   9.644   5.961  0.9005 -0.0176 -0.6180
10495SOL     OW42703   8.396   3.182   5.071  0.4123 -0.5122 -0.1606
10495SOL    HW142704   8.490   3.216   5.071 -0.0981  0.9638 -1.1227
10495SOL    HW242705   8.333   3.259   5.086 -0.6876 -1.3484 -0.4049
10496SOL     OW42706   0.230   2.381   0.411  0.3597 -0.0571 -0.0034
10496SOL    HW142707   0.305   2.381   0.344  0.0143  0.3471 -0.3946
10496SOL    HW242708   0.203   2.287   0.431  0.6770 -0.1900 -0.1935
10497SOL     OW42709   8.837   3.018   4.039 -0.4013 -0.8728 -0.3011
10497SOL    HW142710   8.921   3.072   4.034  0.4880 -2.2541 -0.8728
10497SOL    HW242711   8.852   2.941   4.102 -1.3235 -0.9794 -0.2140
10498SOL     OW42712   1.630   9.196   6.349 -0.1285 -0.5254 -0.4609
10498SOL    HW142713   1.574   9.237   6.421 -0.5179 -1.9135  0.0345
10498SOL    HW242714   1.697   9.263   6.317 -0.8817  0.5560  0.2071
10499SOL     OW42715   3.367   2.045   4.457 -0.0833 -0.4866 -0.0423
10499SOL    HW142716   3.353   2.076   4.551 -0.9410 -1.0970  0.0338
10499SOL    HW242717   3.461   2.013   4.447  0.4924  1.0837  0.1665
10500SOL     OW42718   7.083   1.999   1.139 -0.1569 -0.3130 -0.1528
10500SOL    HW142719   7.062   1.958   1.050 -1.6240  1.4531 -0.6349
10500SOL    HW242720   7.046   1.942   1.212 -1.8472 -0.0580 -0.8018
10501SOL     OW42721   6.239   7.955   4.465  0.0772 -0.5730  0.3327
10501SOL    HW142722   6.284   7.991   4.546  0.0807 -0.5754  0.3316
10501SOL    HW242723   6.294   7.881   4.426  0.8892  0.5165 -0.6210
10502SOL     OW42724   9.146   8.647   6.279  0.5810  0.4171 -0.3180
10502SOL    HW142725   9.163   8.719   6.347  1.1864 -1.2086  1.2945
10502SOL    HW242726   9.048   8.640   6.262  0.3624  0.4367  0.8647
10503SOL     OW42727   2.724   6.442   1.067 -0.8158 -0.1219  0.4181
10503SOL    HW142728   2.729   6.470   1.162 -1.7328 -0.4193  0.5579
10503SOL    HW242729   2.661   6.502   1.017 -1.6726 -1.0178  0.3971
10504SOL     OW42730   8.827   9.352   3.749  0.0539  0.2394 -0.2940
10504SOL    HW142731   8.742   9.397   3.776  0.2200  0.9997 -1.0077
10504SOL    HW242732   8.904   9.415   3.761  0.3682 -0.0583 -0.7076
10505SOL     OW42733   1.997   1.224   0.478 -0.2535 -0.1930 -0.0543
10505SOL    HW142734   1.994   1.316   0.516  0.9162 -0.7431  1.4251
10505SOL    HW242735   1.925   1.214   0.409 -2.2936  0.9359  1.8503
10506SOL     OW42736   2.368   9.976   3.837 -0.3089  0.1260 -0.0467
10506SOL    HW142737   2.296   9.969   3.769  0.7430 -0.6842 -1.0825
10506SOL    HW242738   2.418  10.062   3.824 -1.2243  0.8171  0.8417
10507SOL     OW42739   0.372   9.623   1.115 -0.0541 -0.6634 -0.2255
10507SOL    HW142740   0.277   9.615   1.144  0.7001 -0.5539  2.4017
10507SOL    HW242741   0.392   9.719   1.093 -0.6459 -0.7576 -1.2147
10508SOL     OW42742   8.758   3.224   7.990  0.4444  0.3631  0.3209
10508SOL    HW142743   8.700   3.296   8.029  0.1317  0.7990 -0.9207
10508SOL    HW242744   8.854   3.245   8.011  0.2322  0.0959  1.6342
10509SOL     OW42745   0.409   9.981   1.197 -0.0171  0.3448 -0.2015
10509SOL    HW142746   0.428   9.930   1.113  0.0246 -1.9437  1.1284
10509SOL    HW242747   0.322  10.029   1.189  1.2009  2.2427 -2.4590
10510SOL     OW42748   3.222   5.428   1.347 -0.1596 -0.1247 -0.1685
10510SOL    HW142749   3.319   5.438   1.365  0.3306 -0.7377 -2.3266
10510SOL    HW242750   3.173   5.411   1.432  1.7533 -0.8487  0.7900
10511SOL     OW42751   2.728   4.490   2.218  0.0640 -0.0843 -0.0192
10511SOL    HW142752   2.754   4.586   2.225  1.0351 -0.3408 -0.0390
10511SOL    HW242753   2.769   4.439   2.294  0.8164 -0.7575 -0.8810
10512SOL     OW42754   1.356   5.194   0.124 -0.2067  0.2547  0.3236
10512SOL    HW142755   1.435   5.133   0.123 -0.6670 -0.3602  0.4139
10512SOL    HW242756   1.386   5.289   0.128  0.5234  0.0294  0.1892
10513SOL     OW42757   2.655   1.979   4.402  0.5769 -0.3552 -0.3532
10513SOL    HW142758   2.747   1.980   4.363  0.0469 -0.9884 -1.6220
10513SOL    HW242759   2.661   1.954   4.499  1.5846 -2.0091 -0.8157
10514SOL     OW42760   6.584   1.550   5.125 -0.6586 -0.0885 -0.1100
10514SOL    HW142761   6.590   1.506   5.215 -1.4286 -0.1481 -0.0832
10514SOL    HW242762   6.665   1.527   5.071 -0.6045 -0.7613  0.2531
10515SOL     OW42763   3.966   0.650   6.670  0.4541 -0.2857 -0.2298
10515SOL    HW142764   4.003   0.700   6.591 -0.1710  1.6887  0.6831
10515SOL    HW242765   3.866   0.651   6.666  0.4099  0.2290  0.8151
10516SOL     OW42766   1.348   1.967   1.664 -0.2301 -0.3463  0.4854
10516SOL    HW142767   1.302   1.979   1.752 -0.7854 -0.4965  0.2112
10516SOL    HW242768   1.430   2.024   1.662 -0.5121  0.0751  0.8842
10517SOL     OW42769   3.504   9.405   2.875 -0.7127 -0.0899 -0.3585
10517SOL    HW142770   3.583   9.389   2.816 -0.8258  0.4752 -0.6686
10517SOL    HW242771   3.421   9.414   2.819 -1.0704 -1.0914 -0.0108
10518SOL     OW42772   4.715   2.662   1.511 -0.0093 -0.1504  0.0945
10518SOL    HW142773   4.696   2.741   1.570  0.1745 -0.4223  0.5153
10518SOL    HW242774   4.656   2.586   1.537  0.4588 -0.4464  0.2809
10519SOL     OW42775   6.540   2.723   4.063  0.4116 -0.1239 -0.3046
10519SOL    HW142776   6.638   2.720   4.082  0.6858 -1.6122 -1.8250
10519SOL    HW242777   6.493   2.659   4.124  0.3989  0.4556  0.2996
10520SOL     OW42778   9.145   0.156   1.930 -0.2520  0.0294 -0.3322
10520SOL    HW142779   9.071   0.113   1.879 -0.9447  0.6899  0.1108
10520SOL    HW242780   9.212   0.193   1.866 -0.7725  0.2555 -0.7483
10521SOL     OW42781   7.983   3.152   1.631 -0.0910  0.0675 -0.3434
10521SOL    HW142782   7.897   3.105   1.610  0.1237 -1.1112  1.2892
10521SOL    HW242783   7.976   3.197   1.720 -0.4727  3.6676 -2.1355
10522SOL     OW42784   7.498   8.190   3.885 -0.0908  0.5278 -0.6088
10522SOL    HW142785   7.475   8.133   3.964 -0.3661  2.5215  0.7848
10522SOL    HW242786   7.572   8.147   3.834  1.4160  0.1218  1.8204
10523SOL     OW42787   1.575   7.060   6.021 -0.1988 -0.0176 -0.2278
10523SOL    HW142788   1.495   7.008   5.990 -0.1032 -0.0975 -0.3418
10523SOL    HW242789   1.549   7.156   6.034 -0.4544 -0.1590  0.3080
10524SOL     OW42790   2.919   3.700   0.878  0.3837  0.3569 -0.3709
10524SOL    HW142791   2.979   3.768   0.835  1.6389  0.3861  1.3517
10524SOL    HW242792   2.947   3.609   0.848 -0.6960  0.5221 -1.9478
10525SOL     OW42793   5.591   1.443   5.278 -0.2320 -0.8385 -0.5018
10525SOL    HW142794   5.631   1.358   5.314 -1.6056 -1.6724 -0.8844
10525SOL    HW242795   5.494   1.428   5.259 -0.1435  0.3908 -1.9983
10526SOL     OW42796   0.711   4.162   1.764  0.6067 -0.0713  0.0002
10526SOL    HW142797   0.746   4.254   1.782  1.4316 -0.4962  0.6150
10526SOL    HW242798   0.636   4.143   1.827 -1.2646  1.1106 -1.7915
10527SOL     OW42799   2.037   9.045   0.690  0.3536 -0.4483 -0.2864
10527SOL    HW142800   1.972   8.994   0.747  0.4925  0.3564  0.6053
10527SOL    HW242801   2.115   9.072   0.745  1.3259 -1.1599 -1.2927
10528SOL     OW42802   0.988   3.927   5.564  0.1254 -0.2974 -0.0097
10528SOL    HW142803   1.057   3.894   5.629  2.2015 -2.7059 -3.2737
10528SOL    HW242804   0.931   3.851   5.534 -1.5908  1.0126 -0.1144
10529SOL     OW42805   1.278   1.544   6.313 -0.0662  0.4359 -0.0537
10529SOL    HW142806   1.346   1.569   6.382  0.3376 -0.3639 -0.1511
10529SOL    HW242807   1.222   1.469   6.349 -2.4822  2.6935  0.9765
10530SOL     OW42808   2.960   0.843   0.633  0.0667  0.0233 -0.2378
10530SOL    HW142809   2.951   0.746   0.655 -1.3991 -0.2708 -1.9939
10530SOL    HW242810   2.971   0.855   0.534  1.7136  1.5785  0.0864
10531SOL     OW42811   4.035   5.405   1.891  0.1571  0.0892  0.4297
10531SOL    HW142812   4.097   5.427   1.967 -0.8301  0.5915  1.0974
10531SOL    HW242813   4.089   5.373   1.813  1.0521 -2.2906  1.9677
10532SOL     OW42814   3.048   8.269   0.702 -0.1686 -0.2039  0.5006
10532SOL    HW142815   3.049   8.234   0.796  0.8347  0.6194  0.8012
10532SOL    HW242816   3.031   8.367   0.703  4.5380  0.7674  0.1968
10533SOL     OW42817   4.857   2.256   3.096  0.2256  0.1923 -0.2265
10533SOL    HW142818   4.918   2.216   3.028 -1.4286 -1.6846 -0.6954
10533SOL    HW242819   4.901   2.333   3.140  2.6189 -0.6498 -1.0652
10534SOL     OW42820   4.160   4.086   3.589 -0.1424 -0.5316  0.3323
10534SOL    HW142821   4.105   4.128   3.517 -1.7871  1.4051  2.6330
10534SOL    HW242822   4.250   4.062   3.553 -0.6186  1.1830 -2.1045
10535SOL     OW42823   9.125   8.454   6.081  0.4164  0.4443  0.0328
10535SOL    HW142824   9.086   8.519   6.015  0.0981  0.0099 -0.2153
10535SOL    HW242825   9.147   8.502   6.166 -0.9368  0.6505  0.2833
10536SOL     OW42826   0.337   3.170   5.846 -0.7245  0.0990  0.6782
10536SOL    HW142827   0.395   3.132   5.919  0.0215 -1.1432 -0.5558
10536SOL    HW242828   0.380   3.154   5.757 -0.8599  2.9633  0.0361
10537SOL     OW42829   3.212   0.864   1.875 -0.7483 -0.3181 -0.6187
10537SOL    HW142830   3.141   0.867   1.804 -0.9901  0.5051 -0.3569
10537SOL    HW242831   3.271   0.944   1.865 -2.3785  1.2507  1.7006
10538SOL     OW42832   3.376   8.387   5.051  0.5122 -0.2543  0.6758
10538SOL    HW142833   3.446   8.317   5.068  0.5078 -0.2503  0.7101
10538SOL    HW242834   3.286   8.344   5.055  0.3770  0.2073  3.1362
10539SOL     OW42835   0.017   2.468   6.589 -0.4231  0.0861 -0.4157
10539SOL    HW142836   0.044   2.563   6.569 -1.1746  0.1827 -0.9753
10539SOL    HW242837   0.095   2.408   6.574 -0.1252  0.5363 -0.6940
10540SOL     OW42838   2.516   8.937   0.715 -0.0170 -0.7640 -0.3752
10540SOL    HW142839   2.456   9.016   0.731  2.4742  1.4649 -1.6915
10540SOL    HW242840   2.486   8.890   0.632 -1.5223 -1.2576  0.4219
10541SOL     OW42841   8.726   9.326   6.783  0.4705 -0.1009  0.3331
10541SOL    HW142842   8.721   9.247   6.723  2.7512 -0.0909  0.0973
10541SOL    HW242843   8.648   9.386   6.766 -0.7465 -1.7917 -0.1662
10542SOL     OW42844   9.715   1.324   0.332 -0.6776 -0.2436 -0.1597
10542SOL    HW142845   9.645   1.394   0.350 -0.6387  0.1910 -1.6862
10542SOL    HW242846   9.787   1.362   0.274 -1.8895 -2.1888 -3.0802
10543SOL     OW42847   5.955   9.941   6.597 -0.2247 -0.2237 -0.9271
10543SOL    HW142848   5.935   9.847   6.569 -0.5786  0.3774 -2.7887
10543SOL    HW242849   6.050   9.962   6.573  0.3812 -0.6444  1.0461
10544SOL     OW42850   8.447   2.492   5.160  0.0839 -0.1396  0.1729
10544SOL    HW142851   8.406   2.412   5.117  0.1538  1.2498 -2.5628
10544SOL    HW242852   8.388   2.523   5.235 -1.1502 -1.3435 -0.2711
10545SOL     OW42853   2.054   5.162   2.557 -0.1875  0.4746  0.1126
10545SOL    HW142854   2.129   5.212   2.515  1.2564 -1.5518  0.2459
10545SOL    HW242855   2.054   5.177   2.656  1.8052 -1.7670  0.4870
10546SOL     OW42856   1.992   6.710   0.143  0.2706 -0.1201  0.3155
10546SOL    HW142857   1.922   6.744   0.206 -1.3052  0.3916 -1.6659
10546SOL    HW242858   1.984   6.758   0.055  3.0947 -0.0764  0.0360
10547SOL     OW42859   0.259   0.661   4.591  0.5573 -0.4487 -0.5324
10547SOL    HW142860   0.288   0.702   4.504 -2.0126  1.1893 -0.6756
10547SOL    HW242861   0.275   0.726   4.665 -0.0470 -0.6736 -0.2083
10548SOL     OW42862   1.372   2.633   0.438 -0.2198 -0.2262  0.2065
10548SOL    HW142863   1.397   2.564   0.507  1.8074  0.0942 -0.1693
10548SOL    HW242864   1.337   2.714   0.484  2.8664  0.7148  1.0500
10549SOL     OW42865   6.680   1.822   2.436  0.0108  0.2835 -0.4452
10549SOL    HW142866   6.667   1.775   2.348 -0.6978  0.3420 -0.3712
10549SOL    HW242867   6.772   1.802   2.470 -0.5828 -1.7800  0.0170
10550SOL     OW42868   8.652   7.284   3.973  0.8095 -0.2126  0.1254
10550SOL    HW142869   8.693   7.365   4.015 -2.3296  0.7897  1.4388
10550SOL    HW242870   8.660   7.206   4.036 -0.6018  0.3720  1.0689
10551SOL     OW42871   5.675   2.203   3.243 -0.0988  0.5256 -0.1566
10551SOL    HW142872   5.771   2.231   3.249  0.0976 -0.2030  0.1611
10551SOL    HW242873   5.656   2.134   3.313 -0.4737 -0.4158 -1.1678
10552SOL     OW42874   9.294   7.951   2.613 -0.6478 -0.3746 -0.2971
10552SOL    HW142875   9.285   8.047   2.640 -0.0677 -0.6169  0.7563
10552SOL    HW242876   9.329   7.898   2.690  1.3114 -1.0158 -1.5992
10553SOL     OW42877   8.700   8.866   0.355 -0.1833 -0.0178 -0.2819
10553SOL    HW142878   8.759   8.795   0.317 -0.3376 -0.0261 -0.5065
10553SOL    HW242879   8.688   8.938   0.287  1.2952  1.0131  0.5099
10554SOL     OW42880   5.452   1.254   2.280  0.3730  0.2483  0.7104
10554SOL    HW142881   5.551   1.246   2.276  0.3952  0.9014 -0.0514
10554SOL    HW242882   5.413   1.165   2.304  0.9516 -0.8322 -2.2416
10555SOL     OW42883   8.074   5.746   1.709 -0.0904 -0.2331  0.0313
10555SOL    HW142884   7.978   5.737   1.683 -0.1330  1.1617 -0.3120
10555SOL    HW242885   8.091   5.837   1.747  1.3499 -0.0433 -1.0156
10556SOL     OW42886   8.149   4.796   3.939 -0.0418  0.3676  0.0772
10556SOL    HW142887   8.145   4.878   3.996 -0.4299  1.0693 -0.9560
10556SOL    HW242888   8.233   4.797   3.884 -0.3735  0.4107 -0.4344
10557SOL     OW42889   4.680   2.783   5.484 -0.4323  0.4707  0.2485
10557SOL    HW142890   4.729   2.715   5.539  2.0040  1.7018 -0.3510
10557SOL    HW242891   4.699   2.875   5.519 -0.9629  1.0874 -1.0420
10558SOL     OW42892   8.702   1.653   5.474 -0.3273  0.1280  0.1699
10558SOL    HW142893   8.781   1.610   5.518 -0.2637  0.1137  0.0389
10558SOL    HW242894   8.624   1.590   5.476  0.1412 -0.5211 -1.2124
10559SOL     OW42895   7.919   3.661   5.329 -0.1877  0.4414  0.1643
10559SOL    HW142896   7.921   3.714   5.244 -1.1171  0.9970  0.4924
10559SOL    HW242897   7.825   3.638   5.352  0.1874 -1.1515  0.1529
10560SOL     OW42898   0.463   7.625   2.589  0.2314 -0.4919  0.7557
10560SOL    HW142899   0.405   7.548   2.614 -0.3922 -0.2861 -0.0068
10560SOL    HW242900   0.425   7.669   2.507 -0.1830  1.4339  1.9325
10561SOL     OW42901   2.381   3.929   2.173 -0.2308  0.3116  0.7463
10561SOL    HW142902   2.288   3.923   2.208  0.1011 -0.8540  1.4677
10561SOL    HW242903   2.445   3.892   2.241  0.5378 -0.8854 -0.5893
10562SOL     OW42904   1.188   2.652   5.051  0.7158 -0.1171 -0.0021
10562SOL    HW142905   1.129   2.644   5.131  0.1592 -1.4747 -0.5339
10562SOL    HW242906   1.278   2.614   5.072  0.5802 -0.4440 -0.0183
10563SOL     OW42907   4.816   2.596   4.100  0.4143 -0.1036 -0.6065
10563SOL    HW142908   4.901   2.550   4.126 -0.8602 -3.1774 -1.6110
10563SOL    HW242909   4.803   2.588   4.002 -0.5254  1.3315 -0.6124
10564SOL     OW42910   5.788   1.572   3.295  0.0659 -0.3435  0.2671
10564SOL    HW142911   5.790   1.620   3.207 -0.9069  1.2224  1.0794
10564SOL    HW242912   5.880   1.543   3.320  0.5459  0.4368 -0.5861
10565SOL     OW42913   0.731   7.789   3.317 -0.1405 -0.7521  0.6845
10565SOL    HW142914   0.632   7.806   3.319 -0.0233  0.1892 -0.4774
10565SOL    HW242915   0.748   7.699   3.276 -0.4498  0.1318 -1.4882
10566SOL     OW42916   2.537   1.147   0.723 -0.1500 -0.2676  0.2020
10566SOL    HW142917   2.466   1.095   0.676 -1.2823  1.2907  0.1311
10566SOL    HW242918   2.543   1.119   0.818 -1.9446  0.6484  0.6052
10567SOL     OW42919   2.543   9.901   0.241  0.8072  0.1558 -0.1744
10567SOL    HW142920   2.641   9.885   0.244  0.5329 -1.6706 -0.2957
10567SOL    HW242921   2.512   9.905   0.146  0.4737 -1.2764 -0.1385
10568SOL     OW42922   5.159   9.132   6.776  0.1930 -0.2284  0.0187
10568SOL    HW142923   5.190   9.092   6.862  0.3664  0.0724  0.0954
10568SOL    HW242924   5.094   9.070   6.732  1.1985 -1.0368 -0.3357
10569SOL     OW42925   9.583   0.398   2.136  0.2366  0.0618 -0.1460
10569SOL    HW142926   9.521   0.351   2.200 -0.2784  0.0959 -0.6142
10569SOL    HW242927   9.577   0.497   2.151 -0.0615  0.0820 -0.4127
10570SOL     OW42928   6.532   2.318   4.177  0.0583 -0.0755 -0.0137
10570SOL    HW142929   6.620   2.295   4.217 -0.5156 -2.1819  0.0959
10570SOL    HW242930   6.532   2.297   4.079 -0.7848 -1.5200  0.2764
10571SOL     OW42931   2.081   4.157   3.566  0.3182  0.4223  0.0428
10571SOL    HW142932   2.065   4.255   3.552  0.0952  0.2547 -0.8993
10571SOL    HW242933   2.043   4.106   3.489  2.3966 -0.2391 -0.5849
10572SOL     OW42934   4.324   9.317   2.278 -0.1364 -0.4090  0.1523
10572SOL    HW142935   4.259   9.389   2.254  1.3878  1.1238  0.4738
10572SOL    HW242936   4.319   9.299   2.376 -1.3222 -1.5847 -0.1048
10573SOL     OW42937   3.463   8.774   2.251  0.2944  0.3493  0.4083
10573SOL    HW142938   3.385   8.744   2.196  2.0122 -2.6421 -0.5303
10573SOL    HW242939   3.442   8.861   2.294 -3.9602 -0.8558  1.0053
10574SOL     OW42940   7.435   0.433   4.467  0.9123  0.4394 -0.6218
10574SOL    HW142941   7.491   0.492   4.408  1.4092  1.9772  1.3404
10574SOL    HW242942   7.494   0.385   4.532  0.3577 -1.1429 -1.2700
10575SOL     OW42943   4.323   1.376   2.877  0.0340 -0.1141 -0.0497
10575SOL    HW142944   4.407   1.332   2.846 -0.2039 -0.3804 -0.3254
10575SOL    HW242945   4.315   1.467   2.836 -1.3995 -1.3439 -2.6291
10576SOL     OW42946   8.956   7.255   0.752 -0.2137 -0.1872 -0.1716
10576SOL    HW142947   9.028   7.299   0.806 -2.5322  0.3191  2.6072
10576SOL    HW242948   8.906   7.325   0.700  2.0398 -0.6748 -3.1732
10577SOL     OW42949   8.254   5.352   0.203 -0.5605  0.4005 -0.3373
10577SOL    HW142950   8.225   5.267   0.160 -0.6221  1.1716 -1.8573
10577SOL    HW242951   8.354   5.350   0.216 -0.8603 -0.9431  1.9964
10578SOL     OW42952   7.120   9.718   4.895 -0.1978 -0.0313 -0.6282
10578SOL    HW142953   7.089   9.811   4.877 -1.6925 -0.4334 -0.2158
10578SOL    HW242954   7.058   9.653   4.852 -1.0871 -0.8944  1.8444
10579SOL     OW42955   1.406   7.300   4.323  0.5789  0.5015  0.1458
10579SOL    HW142956   1.326   7.308   4.264  0.0319 -0.5814  0.7294
10579SOL    HW242957   1.416   7.385   4.376  0.1105  0.8309 -0.2829
10580SOL     OW42958   9.197   6.144   2.974 -0.2646  0.4222  0.0951
10580SOL    HW142959   9.195   6.060   3.028  0.9452 -2.1505 -3.6954
10580SOL    HW242960   9.282   6.194   2.993 -0.4151  0.2014  1.4157
10581SOL     OW42961   5.822   8.490   4.258 -1.0558 -0.4335  0.0856
10581SOL    HW142962   5.789   8.408   4.211  2.2356 -1.8453  0.1639
10581SOL    HW242963   5.826   8.473   4.356 -2.9586  0.7862  0.4117
10582SOL     OW42964   9.619   8.410   1.863 -0.1897  0.2401 -0.2749
10582SOL    HW142965   9.522   8.430   1.870 -1.0662 -2.8298 -2.4082
10582SOL    HW242966   9.652   8.371   1.949 -1.2729 -0.2667 -0.0800
10583SOL     OW42967   8.316   3.868   1.484  0.0300  0.0858 -0.0270
10583SOL    HW142968   8.312   3.907   1.575 -0.0903  0.5224 -0.2187
10583SOL    HW242969   8.330   3.941   1.417 -1.4798 -0.0552 -0.5037
10584SOL     OW42970   9.221   6.447   5.954  0.1340  0.0212  0.2905
10584SOL    HW142971   9.125   6.464   5.932  0.6690  0.1488 -2.0371
10584SOL    HW242972   9.275   6.528   5.932  1.1930 -1.0853 -1.2791
10585SOL     OW42973   7.834   3.857   0.369 -0.3223 -0.4434  0.0996
10585SOL    HW142974   7.753   3.800   0.378 -0.3138 -0.6778 -1.1943
10585SOL    HW242975   7.817   3.929   0.302 -0.4830  1.3689  2.0555
10586SOL     OW42976   1.061   4.983   4.595 -0.2076 -0.4287 -0.1612
10586SOL    HW142977   1.143   4.926   4.599  0.8181  0.9722 -0.8807
10586SOL    HW242978   0.980   4.927   4.614  0.8432 -1.9626 -0.1545
10587SOL     OW42979   5.838   0.408   5.697  0.1356 -0.1514 -0.0935
10587SOL    HW142980   5.768   0.363   5.641  0.6542 -1.3191  0.1925
10587SOL    HW242981   5.928   0.392   5.658  0.2697  1.3509 -0.4581
10588SOL     OW42982   5.243   4.700   2.222 -0.4469  0.5118 -0.1566
10588SOL    HW142983   5.256   4.618   2.278 -0.3994  1.7541  1.6677
10588SOL    HW242984   5.331   4.738   2.196 -0.4699  0.1038 -0.8574
10589SOL     OW42985   7.837   2.674   2.895  0.4735 -0.3950  0.3975
10589SOL    HW142986   7.801   2.672   2.989  0.9367  0.5066  0.5967
10589SOL    HW242987   7.831   2.767   2.859  2.3760 -0.2817  0.3428
10590SOL     OW42988   7.513   4.688   6.180 -0.2898  0.3429  0.3725
10590SOL    HW142989   7.571   4.765   6.208 -3.0557  1.7638  2.3678
10590SOL    HW242990   7.549   4.603   6.219  2.3236  0.7011 -1.1741
10591SOL     OW42991   8.828   0.647   3.269 -0.1189 -0.4365  0.1684
10591SOL    HW142992   8.823   0.605   3.178  0.4366  1.0448 -0.5798
10591SOL    HW242993   8.876   0.586   3.332  0.1860 -1.1450 -0.7398
10592SOL     OW42994   1.628   6.493   5.087  0.0829 -0.1059  0.5038
10592SOL    HW142995   1.582   6.573   5.125 -1.5321 -1.0748  0.6517
10592SOL    HW242996   1.624   6.418   5.152 -0.5175 -1.0278 -0.5745
10593SOL     OW42997   5.067   9.005   4.859 -0.7974 -0.0436 -0.0099
10593SOL    HW142998   5.056   9.104   4.848  0.9844  0.1251 -0.3938
10593SOL    HW242999   5.080   8.963   4.769  0.6142 -0.3388  0.3170
10594SOL     OW43000   4.844   1.959   3.475 -0.7875  0.1796  0.4459
10594SOL    HW143001   4.939   1.966   3.442 -0.6262  0.6267  0.9886
10594SOL    HW243002   4.841   1.899   3.555 -1.3227 -1.6371 -0.9119
10595SOL     OW43003   9.891   5.485   1.998 -0.2646  0.3518 -0.4444
10595SOL    HW143004   9.867   5.428   2.077  0.1755 -0.2801 -0.7534
10595SOL    HW243005   9.978   5.452   1.960 -0.4263  0.7154 -1.1262
10596SOL     OW43006   4.909   9.368   3.577  1.0121 -0.0733  0.1312
10596SOL    HW143007   4.997   9.385   3.622  0.9226  0.2631  0.1777
10596SOL    HW243008   4.876   9.453   3.534  0.8174 -0.2511 -0.0741
10597SOL     OW43009   8.406   1.039   1.211  0.6898  0.5798 -0.4575
10597SOL    HW143010   8.375   0.979   1.137 -0.0140 -1.1820  1.2155
10597SOL    HW243011   8.364   1.129   1.201 -1.6737 -0.5007 -0.6172
10598SOL     OW43012   7.954   1.749   3.368 -0.8149  0.5666 -0.2473
10598SOL    HW143013   7.911   1.676   3.314  0.4102 -1.5881  1.5811
10598SOL    HW243014   7.892   1.779   3.440 -0.2475 -0.7298  0.7948
10599SOL     OW43015   5.547   1.694   1.575 -0.1283 -0.1055 -0.3912
10599SOL    HW143016   5.478   1.623   1.560 -0.4901  0.1044  0.2680
10599SOL    HW243017   5.628   1.674   1.519 -0.3899 -0.8049 -0.5284
10600SOL     OW43018   1.817   6.513   4.258 -0.0661 -0.4630 -0.1210
10600SOL    HW143019   1.726   6.552   4.275  1.4478  1.7710  3.4319
10600SOL    HW243020   1.852   6.549   4.171 -1.3408  1.0873 -0.0301
10601SOL     OW43021   1.089   2.512   4.625  0.7365 -0.0584 -0.0955
10601SOL    HW143022   1.046   2.423   4.645  2.9038 -0.9580  0.6496
10601SOL    HW243023   1.074   2.574   4.702 -0.0043 -0.0644 -0.2300
10602SOL     OW43024   4.663   2.361   1.631 -0.0374 -0.7314 -0.1723
10602SOL    HW143025   4.620   2.282   1.587  0.3505 -1.0174 -0.0382
10602SOL    HW243026   4.592   2.424   1.663 -0.3431 -0.9215 -0.4695
10603SOL     OW43027   7.698   1.853   6.296  0.2443  0.0060  0.4363
10603SOL    HW143028   7.737   1.925   6.354 -1.1419  1.4576 -0.3968
10603SOL    HW243029   7.728   1.866   6.202 -1.0045  0.2323  0.0606
10604SOL     OW43030   9.932   3.648   3.654 -0.8661  0.4372 -0.0686
10604SOL    HW143031   9.974   3.598   3.731  1.8887  0.9081 -1.1917
10604SOL    HW243032   9.841   3.678   3.680 -0.6193 -0.8165  2.4541
10605SOL     OW43033   3.767   9.866   4.680  0.1029  0.4581 -0.4491
10605SOL    HW143034   3.840   9.906   4.735  1.4381 -0.5525 -1.4652
10605SOL    HW243035   3.679   9.903   4.710  0.9627  1.2293  1.1934
10606SOL     OW43036   5.996   2.661   4.220 -0.1261  0.5032 -0.8741
10606SOL    HW143037   5.993   2.754   4.259 -0.3082  0.7784 -1.5377
10606SOL    HW243038   5.922   2.651   4.154  1.9099  1.0104 -3.3138
10607SOL     OW43039   3.439   7.124   1.296  0.1789  0.0574  0.5714
10607SOL    HW143040   3.524   7.071   1.298 -0.2533 -0.6446  0.5567
10607SOL    HW243041   3.440   7.186   1.217 -0.1726 -1.3789 -0.5864
10608SOL     OW43042   1.738   8.583   0.730  0.5472 -0.0911 -0.2388
10608SOL    HW143043   1.688   8.498   0.715 -2.3200  1.5009  0.0034
10608SOL    HW243044   1.767   8.589   0.826 -0.7781 -0.0203  0.1650
10609SOL     OW43045   3.159   5.468   4.197 -0.5455  0.2863  0.5942
10609SOL    HW143046   3.130   5.397   4.262  1.4807 -1.0000  0.1384
10609SOL    HW243047   3.220   5.533   4.244  0.8569 -0.6002  0.0143
10610SOL     OW43048   0.687   9.410   2.953 -0.0969  0.7123 -0.2348
10610SOL    HW143049   0.734   9.350   3.018  0.4462 -2.6032 -3.5274
10610SOL    HW243050   0.754   9.469   2.907  0.0257  0.3563 -0.5133
10611SOL     OW43051   4.877   6.956   2.634 -0.3155 -0.1861  0.5654
10611SOL    HW143052   4.955   6.924   2.581  0.3863 -0.0481  1.5067
10611SOL    HW243053   4.858   7.052   2.611 -0.2916 -0.2554  0.2507
10612SOL     OW43054   9.590   8.991   5.293 -0.0158  0.5337 -0.4267
10612SOL    HW143055   9.682   8.954   5.301 -0.3718 -0.1506  0.5766
10612SOL    HW243056   9.528   8.922   5.256 -0.0881  1.0689 -1.3319
10613SOL     OW43057   9.666   2.150   4.398  0.2107 -0.1363 -0.3231
10613SOL    HW143058   9.697   2.058   4.375 -2.2042 -0.7690 -1.2558
10613SOL    HW243059   9.744   2.211   4.404  1.7075 -1.8849 -1.3477
10614SOL     OW43060   7.248   4.897   7.682  0.0107  1.1130  0.1078
10614SOL    HW143061   7.337   4.942   7.672 -0.2178  1.7944  1.1930
10614SOL    HW243062   7.261   4.807   7.724  0.0708  1.6909  1.3440
10615SOL     OW43063   9.528   8.146   0.229 -0.1417 -0.0401 -0.0098
10615SOL    HW143064   9.514   8.186   0.138  0.6767 -1.7527 -0.9101
10615SOL    HW243065   9.439   8.123   0.269 -0.4924  0.4201 -0.5159
10616SOL     OW43066   6.191   2.206   2.936  0.5599  0.6334 -0.3951
10616SOL    HW143067   6.151   2.138   2.875  0.4224  0.2769  0.0870
10616SOL    HW243068   6.137   2.211   3.020  0.5843  1.3218 -0.4239
10617SOL     OW43069   5.986   1.254   1.990 -0.0563  0.2263 -0.1559
10617SOL    HW143070   5.950   1.184   1.927  1.3309 -0.4526 -0.2134
10617SOL    HW243071   6.044   1.318   1.939  1.0007 -0.2732  0.4071
10618SOL     OW43072   0.432   7.182   0.693  0.6086 -0.5412 -0.3883
10618SOL    HW143073   0.338   7.152   0.680  0.2408  1.0905 -1.7154
10618SOL    HW243074   0.488   7.151   0.617  1.0674 -1.1407  0.1836
10619SOL     OW43075   5.146   9.662   4.170 -0.1339  0.2848  0.5120
10619SOL    HW143076   5.217   9.591   4.170 -0.2980  0.1148  0.7191
10619SOL    HW243077   5.188   9.752   4.167  0.0460  0.1587 -1.0347
10620SOL     OW43078   8.644   3.858   2.171 -0.4096 -0.2984 -0.2964
10620SOL    HW143079   8.664   3.778   2.115  1.2130 -0.6003  0.6880
10620SOL    HW243080   8.598   3.927   2.115  0.5229 -0.8813 -1.8046
10621SOL     OW43081   3.025   8.549   6.348  0.1643  0.3628 -0.3100
10621SOL    HW143082   2.953   8.567   6.281  1.0143  0.7008 -1.1579
10621SOL    HW243083   3.006   8.463   6.396 -0.9983  0.6549 -0.2410
10622SOL     OW43084   5.481   9.079   5.200  0.3360  0.1362 -0.2259
10622SOL    HW143085   5.439   9.007   5.254 -0.5721  0.1609 -0.8894
10622SOL    HW243086   5.569   9.103   5.240  0.2800 -0.7722  0.4660
10623SOL     OW43087   5.630   0.606   2.751  0.1173 -0.4721 -0.1041
10623SOL    HW143088   5.543   0.651   2.772 -0.1071 -1.4096  0.9960
10623SOL    HW243089   5.705   0.660   2.790 -0.0467 -0.2704 -0.0660
10624SOL     OW43090   3.624   9.103   0.261  0.3680  0.4891  0.6756
10624SOL    HW143091   3.672   9.185   0.231 -0.9772  1.3134  0.7386
10624SOL    HW243092   3.605   9.109   0.359 -0.1838  0.3265  0.5788
10625SOL     OW43093   9.258   3.634   6.347 -0.3246  0.1481 -0.0824
10625SOL    HW143094   9.305   3.667   6.429  0.6887  0.5601 -0.8103
10625SOL    HW243095   9.160   3.629   6.364 -0.1595  0.5841  1.0362
10626SOL     OW43096   1.194   8.898   0.775 -0.2972  0.2050 -0.0933
10626SOL    HW143097   1.198   8.977   0.836  1.2834  0.0268  0.0566
10626SOL    HW243098   1.098   8.875   0.756 -0.7951  2.7603 -0.9326
10627SOL     OW43099   2.816   8.018   1.474 -0.0889 -0.1166 -0.2084
10627SOL    HW143100   2.863   8.024   1.386  0.2322 -0.6559 -0.0793
10627SOL    HW243101   2.884   8.000   1.546 -0.4426 -0.4316  0.0460
10628SOL     OW43102   1.744   5.144   2.658  0.0224  0.0178 -0.0358
10628SOL    HW143103   1.808   5.165   2.584 -0.6303 -0.3307 -0.6988
10628SOL    HW243104   1.781   5.070   2.714  0.7378  0.6011  0.2722
10629SOL     OW43105   5.674   8.805   5.287  0.0123 -0.4559 -0.6594
10629SOL    HW143106   5.705   8.856   5.207 -2.7906  0.1561 -1.3906
10629SOL    HW243107   5.579   8.829   5.308  0.3454 -1.3998  2.2208
10630SOL     OW43108   5.333   5.224   0.576  0.3859  0.3467  0.1319
10630SOL    HW143109   5.433   5.229   0.577  0.4967 -0.4757 -3.1982
10630SOL    HW243110   5.295   5.316   0.567  0.7602  0.7546  2.2790
10631SOL     OW43111   1.493   1.025   1.296 -0.1669  0.5426 -0.5934
10631SOL    HW143112   1.559   1.027   1.221  0.4275 -0.5129 -0.1061
10631SOL    HW243113   1.404   1.058   1.263  0.2084  0.5209 -1.6339
10632SOL     OW43114   9.334   5.300   4.740 -0.1110  0.1843  0.2315
10632SOL    HW143115   9.255   5.240   4.723 -0.6484  0.8007  0.5554
10632SOL    HW243116   9.407   5.247   4.783 -0.4846 -0.2993  0.2781
10633SOL     OW43117   4.027   6.690   4.565  0.1893  0.7267 -1.0333
10633SOL    HW143118   3.983   6.768   4.520  0.6932  1.5367 -0.1439
10633SOL    HW243119   4.123   6.712   4.584  0.6307 -0.5191 -1.7455
10634SOL     OW43120   0.767   1.748   3.947  0.0547  0.0328  0.1611
10634SOL    HW143121   0.867   1.754   3.954  0.0271 -0.2594  0.8118
10634SOL    HW243122   0.742   1.672   3.888  0.2149  0.1916 -0.1170
10635SOL     OW43123   0.798   4.345   3.268  0.2169 -0.0803 -0.1615
10635SOL    HW143124   0.708   4.302   3.258  0.1498 -0.0103  0.1316
10635SOL    HW243125   0.809   4.415   3.199 -0.0802  0.1244 -0.0049
10636SOL     OW43126   9.154   5.871   5.452  0.5648  0.1357  0.1337
10636SOL    HW143127   9.058   5.883   5.478  0.0507 -2.9398 -0.1939
10636SOL    HW243128   9.191   5.958   5.419 -1.5736  1.7753  1.9459
10637SOL     OW43129   0.413   5.198   5.305  0.3106 -0.2226  0.3234
10637SOL    HW143130   0.484   5.255   5.263  0.6186 -1.5192 -0.9223
10637SOL    HW243131   0.432   5.102   5.288 -1.7455 -0.5950 -0.0095
10638SOL     OW43132   9.283   6.989   4.032  0.4582 -0.0561  0.2099
10638SOL    HW143133   9.249   6.912   4.085 -1.2323  1.4756  1.4427
10638SOL    HW243134   9.378   7.008   4.056  0.4425 -0.8880  0.9077
10639SOL     OW43135   3.797   7.593   5.389  0.0071  0.1736  0.2301
10639SOL    HW143136   3.812   7.506   5.436 -1.1385 -0.2399 -0.1462
10639SOL    HW243137   3.712   7.634   5.421 -0.2113  0.4331 -0.6801
10640SOL     OW43138   7.925   7.184   6.078  0.2799  0.0423  0.8477
10640SOL    HW143139   7.978   7.180   6.162 -0.8875  2.1362  1.7233
10640SOL    HW243140   7.827   7.188   6.100 -0.1735 -1.7370 -0.6767
10641SOL     OW43141   2.146   4.517   1.054  0.1749 -0.0233 -0.1859
10641SOL    HW143142   2.082   4.468   0.994  0.2022  0.3013 -0.4882
10641SOL    HW243143   2.106   4.606   1.078  0.3611  0.0365 -0.0969
10642SOL     OW43144   1.837   9.304   0.166  0.1127  0.3679  0.2167
10642SOL    HW143145   1.791   9.244   0.231  1.1511 -0.2774  0.3718
10642SOL    HW243146   1.933   9.275   0.157  0.4004  1.4934 -0.3304
10643SOL     OW43147   4.006   8.433   0.310  0.2735 -0.8304 -0.4837
10643SOL    HW143148   4.044   8.465   0.397 -1.7797  3.4034 -1.0457
10643SOL    HW243149   3.913   8.399   0.325  0.3106 -1.1049 -0.8611
10644SOL     OW43150   6.661   1.154   5.837  0.2665 -0.4661 -0.4673
10644SOL    HW143151   6.603   1.224   5.879 -1.0090 -2.0878  0.5572
10644SOL    HW243152   6.704   1.191   5.755  0.6362  1.9062  0.7600
10645SOL     OW43153   8.461   8.660   1.490 -0.2554 -0.1331 -0.1379
10645SOL    HW143154   8.529   8.591   1.465 -0.5059 -0.8543  1.1264
10645SOL    HW243155   8.503   8.750   1.491 -0.0261 -0.1932 -2.2281
10646SOL     OW43156   2.954   5.571   0.546  0.5192  0.4650  0.2075
10646SOL    HW143157   2.922   5.626   0.469 -2.3939 -0.0808  0.9655
10646SOL    HW243158   2.878   5.554   0.609  1.9428 -2.3052  1.2664
10647SOL     OW43159   0.277   7.978   6.412  0.1773 -0.2948  0.3513
10647SOL    HW143160   0.202   7.927   6.369  0.8924  0.6094 -2.0691
10647SOL    HW243161   0.249   8.074   6.424  1.2715  0.2889 -1.5310
10648SOL     OW43162   9.368   7.505   5.013 -0.4809 -0.2212  0.4085
10648SOL    HW143163   9.388   7.548   4.924  0.2469 -2.2451 -0.4349
10648SOL    HW243164   9.448   7.514   5.072  0.2041 -1.6259 -0.2745
10649SOL     OW43165   0.718   2.038   5.777  0.4397  0.2911  0.0525
10649SOL    HW143166   0.763   1.991   5.701 -0.6718 -1.0393  0.2040
10649SOL    HW243167   0.771   2.024   5.860  3.0192  3.7965 -0.8595
10650SOL     OW43168   5.165   3.701   1.044 -0.1630 -0.0540 -0.2976
10650SOL    HW143169   5.213   3.736   0.964  2.6514 -0.7249  1.0177
10650SOL    HW243170   5.181   3.762   1.122 -1.6460 -0.1810  0.1174
10651SOL     OW43171   3.149   3.452   3.475  0.2916 -0.4728  0.0278
10651SOL    HW143172   3.092   3.534   3.473  0.9333 -0.0190 -0.0228
10651SOL    HW243173   3.228   3.466   3.415  1.3062 -0.4578  1.3478
10652SOL     OW43174   5.715   4.353   7.384 -0.1816  0.2723  0.5526
10652SOL    HW143175   5.710   4.381   7.288 -1.9010 -1.2364  0.1745
10652SOL    HW243176   5.807   4.370   7.419  0.5192  0.6585 -1.4248
10653SOL     OW43177   0.407   3.443   3.414 -0.0137  0.0199  0.7327
10653SOL    HW143178   0.471   3.366   3.422 -0.1292 -0.0067  1.3651
10653SOL    HW243179   0.319   3.410   3.381  0.5873  0.1972 -1.1472
10654SOL     OW43180   2.582   7.322   4.553  0.4475  0.4231  0.1557
10654SOL    HW143181   2.548   7.265   4.478  0.7915 -1.2218  1.1977
10654SOL    HW243182   2.532   7.408   4.556 -0.4180 -0.0231 -1.1846
10655SOL     OW43183   3.853   4.367   4.205 -0.2259 -0.0433 -0.1219
10655SOL    HW143184   3.829   4.413   4.291  0.7605  0.0026  0.1357
10655SOL    HW243185   3.876   4.272   4.224 -0.1005 -0.0575 -0.3470
10656SOL     OW43186   0.369   9.830   0.558  0.2793  0.1081  0.4135
10656SOL    HW143187   0.447   9.890   0.541  0.6783 -0.6475 -0.4908
10656SOL    HW243188   0.402   9.740   0.587 -0.3199  0.4056  2.0859
10657SOL     OW43189   2.542   6.504   2.556  0.0459  0.3656  0.4854
10657SOL    HW143190   2.536   6.420   2.610 -0.0084 -0.1066 -0.2401
10657SOL    HW243191   2.554   6.582   2.617  1.9704 -0.3701  1.0886
10658SOL     OW43192   7.364   0.738   5.226 -0.1687  0.2593  1.0632
10658SOL    HW143193   7.428   0.757   5.301 -0.6662 -0.2340  1.6220
10658SOL    HW243194   7.368   0.641   5.203  0.0271  0.4256  0.4078
10659SOL     OW43195   9.316   7.647   0.273  0.2857  0.3270  0.3202
10659SOL    HW143196   9.340   7.703   0.352  0.3816  1.3728 -0.4457
10659SOL    HW243197   9.397   7.595   0.243  0.7798  1.4684 -0.3326
10660SOL     OW43198   1.750   8.064   0.153  0.6730  0.5025 -0.2397
10660SOL    HW143199   1.813   8.102   0.085  0.7499 -1.4320 -1.3057
10660SOL    HW243200   1.796   8.058   0.242  1.0249  1.7795 -0.3261
10661SOL     OW43201   7.543   0.314   3.508 -0.4715  0.1079  0.1347
10661SOL    HW143202   7.519   0.233   3.455 -2.8200  1.0503 -0.2846
10661SOL    HW243203   7.487   0.391   3.480  1.3013  1.7607  0.9629
10662SOL     OW43204   5.961   4.901   1.210  0.1315 -0.7129 -0.1629
10662SOL    HW143205   5.958   4.951   1.124  2.0108 -1.8776 -0.9407
10662SOL    HW243206   5.991   4.962   1.283 -1.2245  0.2153 -0.3635
10663SOL     OW43207   1.967   1.528   4.436  0.3910  0.5813 -0.1784
10663SOL    HW143208   1.936   1.555   4.527  1.0404  2.4055 -0.4696
10663SOL    HW243209   1.945   1.601   4.370 -1.9136 -1.5715 -1.8777
10664SOL     OW43210   8.292   8.050   2.415 -0.0462  0.5357  0.0645
10664SOL    HW143211   8.302   8.099   2.329 -0.3557 -0.2091 -0.3962
10664SOL    HW243212   8.196   8.030   2.432 -0.1417  1.8813  1.2682
10665SOL     OW43213   6.854   4.592   0.485 -0.3248  0.0936 -0.2661
10665SOL    HW143214   6.858   4.691   0.498 -0.2651 -0.1589  1.7895
10665SOL    HW243215   6.791   4.552   0.551  1.6504 -1.5415  0.6656
10666SOL     OW43216   0.825   9.407   0.207  0.0808  0.1398  0.2303
10666SOL    HW143217   0.763   9.335   0.177  0.7007 -1.8104  3.4088
10666SOL    HW243218   0.918   9.388   0.174  0.0768 -0.0517  0.3302
10667SOL     OW43219   0.878   8.872   4.384  0.2629  0.0241 -0.1596
10667SOL    HW143220   0.918   8.963   4.377  1.3924 -0.3927  0.7955
10667SOL    HW243221   0.866   8.834   4.293 -1.7761  1.7838 -0.6821
10668SOL     OW43222   3.637   9.144   4.481 -1.1632  0.4093  0.0110
10668SOL    HW143223   3.559   9.107   4.532 -0.5875  0.2655  0.7943
10668SOL    HW243224   3.668   9.229   4.524  0.6343 -0.7880  1.1556
10669SOL     OW43225   7.382   6.914   6.221 -0.2994  0.4367  0.1717
10669SOL    HW143226   7.430   6.828   6.201  0.7492  0.9964  0.2965
10669SOL    HW243227   7.390   6.976   6.143 -1.0017  0.4534  0.1095
10670SOL     OW43228   7.297   3.551   1.269  0.6643  0.0291 -0.1912
10670SOL    HW143229   7.335   3.474   1.219  0.4734  0.1550 -0.5328
10670SOL    HW243230   7.233   3.518   1.338 -1.8416  0.0235 -2.4212
10671SOL     OW43231   3.654   7.011   1.148  0.0736 -0.0447 -0.4141
10671SOL    HW143232   3.738   6.968   1.180 -0.1155  0.7844  1.2290
10671SOL    HW243233   3.673   7.062   1.064  1.5012  1.1566  0.6157
10672SOL     OW43234   0.794   1.242   3.771  0.3651 -0.3447 -0.3982
10672SOL    HW143235   0.879   1.238   3.824 -0.2113  1.7268  0.7259
10672SOL    HW243236   0.813   1.274   3.678  0.7145  1.0349  0.1346
10673SOL     OW43237   0.283   6.368   5.077  0.4181  0.0352 -0.8998
10673SOL    HW143238   0.221   6.346   5.152  0.9400  0.3308 -0.3847
10673SOL    HW243239   0.354   6.298   5.070  0.4846  0.1114 -0.9980
10674SOL     OW43240   6.670   0.341   2.475 -0.0021  0.0873  0.3266
10674SOL    HW143241   6.622   0.257   2.501 -0.1542 -0.3463 -1.2476
10674SOL    HW243242   6.662   0.353   2.376  1.0892  1.2978  0.3829
10675SOL     OW43243   1.776   8.645   1.585 -0.0152  0.5857  0.4535
10675SOL    HW143244   1.765   8.574   1.515 -1.9332  1.0943  0.1977
10675SOL    HW243245   1.832   8.719   1.550  0.9821 -0.2436  0.2887
10676SOL     OW43246   8.132   1.515   2.309  0.4813  0.4120 -0.1419
10676SOL    HW143247   8.200   1.447   2.336 -0.4672 -1.0205 -1.2011
10676SOL    HW243248   8.047   1.498   2.358  0.8803  2.2043  1.1930
10677SOL     OW43249   7.078   2.712   1.107 -0.4744  0.5841  0.1109
10677SOL    HW143250   7.046   2.749   1.020  0.0314  0.3388 -0.1845
10677SOL    HW243251   7.006   2.722   1.176 -1.5649 -0.8446 -0.7797
10678SOL     OW43252   1.624   1.386   8.179 -0.1760 -0.2599 -0.1179
10678SOL    HW143253   1.588   1.405   8.270  1.1646  0.3034  0.3143
10678SOL    HW243254   1.697   1.451   8.158 -1.1774  0.3006 -2.0304
10679SOL     OW43255   8.887   6.837   4.061  0.3318  0.3211  0.4707
10679SOL    HW143256   8.981   6.857   4.091  0.7027 -0.3340 -0.2458
10679SOL    HW243257   8.859   6.904   3.992  0.8179 -0.3708 -0.4049
10680SOL     OW43258   2.262   0.043   1.927 -0.2474  0.6207 -0.4403
10680SOL    HW143259   2.333   0.091   1.876 -0.8317  0.6005 -1.2752
10680SOL    HW243260   2.255  -0.051   1.894  0.6433  0.0490  0.9446
10681SOL     OW43261   7.111   0.404   4.723 -0.4867  0.0095 -0.2167
10681SOL    HW143262   7.138   0.315   4.759 -0.2193  0.1423 -0.0846
10681SOL    HW243263   7.013   0.405   4.706 -0.2888 -0.7555 -1.4745
10682SOL     OW43264   5.449   8.158   3.763 -0.0897 -0.4792  0.1438
10682SOL    HW143265   5.449   8.244   3.815  0.6901 -0.6168  0.3822
10682SOL    HW243266   5.391   8.168   3.682 -1.1768 -0.2051  0.9396
10683SOL     OW43267   2.510   5.531   5.333  0.3348  0.0600  0.3078
10683SOL    HW143268   2.464   5.620   5.336  2.2404  1.0451  1.5251
10683SOL    HW243269   2.457   5.468   5.277 -1.2063  1.8767 -0.3373
10684SOL     OW43270   5.373   8.632   6.207 -0.6355 -0.1998 -0.5455
10684SOL    HW143271   5.411   8.541   6.221  2.3233  1.1035  0.1447
10684SOL    HW243272   5.357   8.646   6.109  3.8214  0.3761 -1.2861
10685SOL     OW43273   9.995   1.006   1.996  0.2796 -0.4500 -0.5243
10685SOL    HW143274  10.078   1.021   2.050  0.5846  0.2113 -1.1615
10685SOL    HW243275   9.978   1.087   1.940 -0.5750 -0.7500 -0.6940
10686SOL     OW43276   8.321   0.789   1.075 -0.0270  0.8269 -0.2197
10686SOL    HW143277   8.269   0.850   1.015 -1.1757 -0.0899 -0.1776
10686SOL    HW243278   8.387   0.738   1.021 -3.4553 -2.6197 -1.4154
10687SOL     OW43279   3.821   2.716   3.763  0.6723  0.6868  0.3920
10687SOL    HW143280   3.887   2.645   3.739 -0.0423 -0.4974  1.8845
10687SOL    HW243281   3.834   2.795   3.702  2.3324 -0.1858 -0.4235
10688SOL     OW43282   7.860   4.246   1.316 -0.0025  0.0891 -0.1715
10688SOL    HW143283   7.822   4.339   1.310 -1.7942 -0.5404  1.1166
10688SOL    HW243284   7.879   4.213   1.224  0.1522  1.5293 -0.6811
10689SOL     OW43285   4.430   9.679   3.572 -0.1150  0.0681  0.1919
10689SOL    HW143286   4.384   9.667   3.484 -1.8932 -0.1000  1.1146
10689SOL    HW243287   4.440   9.590   3.617 -0.8943  0.3654  0.9685
10690SOL     OW43288   9.942   3.939   1.187 -0.4297 -0.6638 -0.0686
10690SOL    HW143289   9.910   4.022   1.230  1.3678  0.0750 -0.1060
10690SOL    HW243290   9.924   3.861   1.247 -0.4461 -0.0077  0.7908
10691SOL     OW43291   9.988   2.051   0.180 -0.2447 -0.4223 -0.2613
10691SOL    HW143292  10.065   1.998   0.215 -0.5296 -0.6790 -0.0295
10691SOL    HW243293   9.998   2.146   0.209  0.3843 -0.2953 -0.8687
10692SOL     OW43294   8.005   8.754   3.719  0.2020  0.5401  0.1999
10692SOL    HW143295   7.975   8.822   3.652  0.7696  0.2433 -0.3531
10692SOL    HW243296   7.986   8.662   3.685 -2.7837  0.4497  1.9856
10693SOL     OW43297   9.509   6.958   3.791 -0.0704 -0.1349 -0.2991
10693SOL    HW143298   9.535   6.933   3.698 -0.2843 -1.6580  0.0260
10693SOL    HW243299   9.432   7.021   3.789  0.5930  0.6600 -1.1655
10694SOL     OW43300   2.701   7.949   0.706  0.3997  0.5810  0.2794
10694SOL    HW143301   2.638   7.895   0.650  0.6475  0.6779 -0.0942
10694SOL    HW243302   2.730   7.895   0.784 -1.0383  0.9266  1.0818
10695SOL     OW43303   4.236   8.364   5.916  0.1949  0.0703  0.0696
10695SOL    HW143304   4.240   8.265   5.923 -0.1577  0.1230  1.1930
10695SOL    HW243305   4.179   8.400   5.990  1.4510  1.2082  0.5092
10696SOL     OW43306   9.399   5.574   3.600 -0.0496  0.1940  0.1240
10696SOL    HW143307   9.374   5.639   3.529  1.1300  0.0706 -0.4098
10696SOL    HW243308   9.469   5.614   3.659 -0.8047  0.1804  1.0451
10697SOL     OW43309   5.489   1.736   4.473  0.0666  0.1762 -0.6785
10697SOL    HW143310   5.521   1.768   4.384  1.5305  1.3178  0.2166
10697SOL    HW243311   5.552   1.768   4.544 -0.3090 -1.9000  0.6245
10698SOL     OW43312   7.681   4.918   3.515  0.0778  0.2117 -0.1500
10698SOL    HW143313   7.673   4.875   3.425  0.7480  0.8285 -0.5078
10698SOL    HW243314   7.699   4.848   3.584 -2.0824 -0.4797 -0.2300
10699SOL     OW43315   2.457   4.192   4.400  0.1435  0.0084 -0.2103
10699SOL    HW143316   2.368   4.233   4.420  0.0334 -0.4492  0.2595
10699SOL    HW243317   2.459   4.160   4.306  0.8816  2.7703 -1.1977
10700SOL     OW43318   8.654   2.669   3.476 -0.4070 -0.4917 -0.0417
10700SOL    HW143319   8.675   2.763   3.504  0.7652 -0.0354 -2.3519
10700SOL    HW243320   8.558   2.662   3.451 -1.1231 -0.5551  2.5721
10701SOL     OW43321   0.439   8.299   3.976 -0.3832 -0.1266  0.1510
10701SOL    HW143322   0.507   8.353   3.927 -0.2359  0.8351  1.3784
10701SOL    HW243323   0.420   8.215   3.926 -1.8272  1.7912 -2.6477
10702SOL     OW43324   3.992   1.071   4.296  0.5779 -0.6996  0.0448
10702SOL    HW143325   3.904   1.072   4.249  0.3749 -2.1454  0.3972
10702SOL    HW243326   3.989   1.133   4.374  0.3665  0.4057 -0.8243
10703SOL     OW43327   4.257   8.081   5.378 -0.3704  0.7267 -0.8800
10703SOL    HW143328   4.261   7.995   5.326 -0.4089  0.3266 -0.2271
10703SOL    HW243329   4.336   8.138   5.355  1.1655 -0.6893  0.7750
10704SOL     OW43330   8.141   9.597   0.938  0.3423  0.2462 -0.3207
10704SOL    HW143331   8.186   9.576   1.025 -0.6188  0.5916  0.2696
10704SOL    HW243332   8.198   9.565   0.862  0.2358 -1.9005  0.4899
10705SOL     OW43333   1.760   1.173   0.290 -0.3285 -0.9364 -0.2951
10705SOL    HW143334   1.751   1.104   0.219 -0.2230 -0.8940 -0.3504
10705SOL    HW243335   1.669   1.206   0.317 -0.3589 -0.8158 -0.5455
10706SOL     OW43336   8.605   0.843   5.180  0.3268 -0.3198  0.6638
10706SOL    HW143337   8.527   0.806   5.229 -0.2111  1.0808  0.8903
10706SOL    HW243338   8.688   0.826   5.233  0.0780 -1.0337  0.8378
10707SOL     OW43339   9.236   3.443   1.662 -0.0561 -0.0940  0.2980
10707SOL    HW143340   9.215   3.501   1.583 -0.8077 -0.9766 -0.1578
10707SOL    HW243341   9.292   3.366   1.632 -1.1747 -0.9713  0.4414
10708SOL     OW43342   3.363   1.329   5.625 -0.1173 -0.7180  0.6138
10708SOL    HW143343   3.447   1.276   5.637  0.9917  1.1085  1.0003
10708SOL    HW243344   3.313   1.334   5.712  0.6852  0.3777  1.0181
10709SOL     OW43345   1.699   4.277   2.982  0.1293 -0.8222  0.2386
10709SOL    HW143346   1.626   4.240   2.925 -0.4686 -1.4257  1.3710
10709SOL    HW243347   1.659   4.333   3.055  0.7718 -1.3115  0.9769
10710SOL     OW43348   5.604   5.779   0.195  0.4897  0.4351 -0.1679
10710SOL    HW143349   5.671   5.852   0.207  2.0736 -0.9287 -0.6555
10710SOL    HW243350   5.546   5.774   0.277 -1.3642  3.9235 -1.1571
10711SOL     OW43351   3.448   3.961   3.111 -0.1946 -0.3130  0.2171
10711SOL    HW143352   3.361   4.006   3.096 -0.1307 -0.3663 -0.3069
10711SOL    HW243353   3.439   3.863   3.092 -0.1170 -0.3870  0.5417
10712SOL     OW43354   7.130   4.867   1.260 -0.5656  0.0576 -0.5036
10712SOL    HW143355   7.165   4.954   1.294 -0.1481 -0.2087 -0.2373
10712SOL    HW243356   7.182   4.838   1.180  1.8701 -1.8212  1.6887
10713SOL     OW43357   5.866   9.336   3.061 -0.5823  0.1766  0.5886
10713SOL    HW143358   5.927   9.405   3.021  1.2722 -0.3921  2.3900
10713SOL    HW243359   5.814   9.292   2.988  1.4011  0.4507 -1.0389
10714SOL     OW43360   8.302   0.851   2.682  0.5444 -0.2695 -0.4241
10714SOL    HW143361   8.292   0.759   2.643  1.5366  0.0403 -1.4467
10714SOL    HW243362   8.395   0.861   2.718 -0.0064 -0.1467  0.9789
10715SOL     OW43363   6.475   1.895   7.930 -0.4903 -0.4535  0.3337
10715SOL    HW143364   6.402   1.830   7.950 -0.2008 -1.6849 -2.3495
10715SOL    HW243365   6.454   1.984   7.972 -2.5899 -1.3007  1.1244
10716SOL     OW43366   3.128   7.813   5.415 -0.2384 -0.3529 -0.3062
10716SOL    HW143367   3.130   7.714   5.402  1.0582 -0.1751 -1.6514
10716SOL    HW243368   3.086   7.834   5.503 -0.0985 -2.1083  0.2095
10717SOL     OW43369   0.786   6.756   3.110  0.1173 -0.3623 -0.6309
10717SOL    HW143370   0.711   6.745   3.045 -0.2621 -1.3771 -0.0240
10717SOL    HW243371   0.863   6.699   3.081 -1.0631 -3.0624  1.3172
10718SOL     OW43372   8.155   2.626   1.245  0.0856 -0.0773  0.0352
10718SOL    HW143373   8.137   2.632   1.343 -0.8303  0.4369 -0.1562
10718SOL    HW243374   8.108   2.545   1.208 -0.2202  0.1654 -0.1138
10719SOL     OW43375   4.086   6.546   8.158  0.2839  0.2811 -0.0698
10719SOL    HW143376   4.006   6.574   8.212  0.3511 -0.9089  0.6645
10719SOL    HW243377   4.082   6.448   8.141  1.4936  0.2481 -0.2098
10720SOL     OW43378   9.617   7.386   3.682  0.3205  0.1002 -0.3377
10720SOL    HW143379   9.636   7.303   3.734 -0.8403  0.2722  0.3713
10720SOL    HW243380   9.703   7.424   3.648  0.8512 -1.4915 -0.8372
10721SOL     OW43381   7.022   1.564   6.502 -0.0248  0.6426  0.4813
10721SOL    HW143382   7.064   1.574   6.411  0.6648  1.5275  0.8905
10721SOL    HW243383   6.948   1.498   6.497  0.7735 -0.2050 -0.4752
10722SOL     OW43384   1.581   0.581   6.171 -0.2764 -0.9493  0.1380
10722SOL    HW143385   1.554   0.505   6.231  1.1579 -1.1648  0.5384
10722SOL    HW243386   1.676   0.569   6.144 -0.2465  0.3578 -0.3532
10723SOL     OW43387   8.897   6.784   5.894 -0.1892 -0.0372  0.1756
10723SOL    HW143388   8.954   6.811   5.817 -0.3893 -0.0148  0.0362
10723SOL    HW243389   8.808   6.829   5.887 -0.7456 -1.2087 -0.3735
10724SOL     OW43390   5.959   0.061   4.981 -0.1973  0.0205  0.0460
10724SOL    HW143391   6.054   0.031   4.965 -0.9233 -2.1579 -0.3213
10724SOL    HW243392   5.956   0.120   5.062  1.2452 -1.2217  1.0368
10725SOL     OW43393   9.267   9.221   5.262  0.1437 -0.6572  0.1539
10725SOL    HW143394   9.321   9.214   5.346  0.2764 -2.5502 -0.0747
10725SOL    HW243395   9.198   9.293   5.273  2.3174  1.4528  0.6469
10726SOL     OW43396   2.434   0.055   0.484 -0.5306 -0.7782  0.2316
10726SOL    HW143397   2.484   0.029   0.567  2.1564  0.2994 -0.9776
10726SOL    HW243398   2.487   0.028   0.404 -1.8679  0.5367 -1.1204
10727SOL     OW43399   8.062   1.039   1.164  0.1115 -0.0433  0.2861
10727SOL    HW143400   8.102   0.955   1.199 -0.1698 -0.4506 -0.3672
10727SOL    HW243401   8.039   1.099   1.241  2.2776  0.3545  0.6694
10728SOL     OW43402   9.883   0.432   2.612 -0.0936  0.0494 -0.1822
10728SOL    HW143403   9.864   0.487   2.693 -0.5629 -0.2583 -0.0849
10728SOL    HW243404   9.957   0.368   2.633  0.7742  0.9518 -0.4364
10729SOL     OW43405   9.096   1.082   1.381  0.3808  0.3401 -0.2461
10729SOL    HW143406   9.190   1.050   1.365  0.2369  0.0986 -0.5910
10729SOL    HW243407   9.059   1.121   1.297 -0.2797 -0.7162 -0.4601
10730SOL     OW43408   2.941   7.435   0.887  0.8594 -0.0791 -1.0539
10730SOL    HW143409   3.037   7.452   0.861  0.4760 -0.5228 -2.8770
10730SOL    HW243410   2.888   7.413   0.804 -0.3880 -1.8622  0.1705
10731SOL     OW43411   0.450   5.975   5.392 -0.0411  0.1777 -0.5569
10731SOL    HW143412   0.441   5.880   5.422 -0.1035 -0.1020 -1.4486
10731SOL    HW243413   0.448   5.979   5.292  0.5090  1.0662 -0.5397
10732SOL     OW43414   7.115   0.997   2.744 -0.1812 -0.0689  0.2470
10732SOL    HW143415   7.104   1.096   2.736 -2.1056 -0.3033 -0.2259
10732SOL    HW243416   7.026   0.954   2.755  0.6550 -1.7421  0.7073
10733SOL     OW43417   7.987   3.580   4.934 -0.3916 -0.1101 -0.2885
10733SOL    HW143418   8.053   3.544   4.868  2.4244  4.6421 -0.3245
10733SOL    HW243419   7.894   3.568   4.898  0.7750 -1.7749 -2.9227
10734SOL     OW43420   5.891   7.839   5.253  0.4283 -0.2880 -0.3512
10734SOL    HW143421   5.973   7.815   5.306  0.2679 -0.3669 -0.1415
10734SOL    HW243422   5.819   7.773   5.272  0.1650  0.0460 -0.1919
10735SOL     OW43423   0.188   6.995   1.714  0.0312 -0.2130 -0.0902
10735SOL    HW143424   0.276   6.972   1.755  1.9825  0.9342 -3.5018
10735SOL    HW243425   0.117   6.994   1.785  2.9384 -0.1007  2.9182
10736SOL     OW43426   3.078   5.699   1.701 -0.2534 -0.3783 -0.1232
10736SOL    HW143427   2.980   5.713   1.710  0.1861  1.2718  3.1002
10736SOL    HW243428   3.122   5.786   1.679  0.5797 -0.9626 -0.8189
10737SOL     OW43429   5.154   9.566   5.956  0.6327 -0.0176  0.1411
10737SOL    HW143430   5.204   9.614   6.027  0.6364 -0.5454  0.5019
10737SOL    HW243431   5.157   9.467   5.974 -1.9302  0.0348  1.1227
10738SOL     OW43432   1.877   6.495   5.995  0.0625  0.5776 -0.3938
10738SOL    HW143433   1.831   6.406   6.001 -0.1498  0.7113 -0.0090
10738SOL    HW243434   1.945   6.502   6.068  0.3648  0.5710 -0.6736
10739SOL     OW43435   7.345   1.582   6.852 -0.8058 -0.8409 -0.2396
10739SOL    HW143436   7.445   1.586   6.848 -0.8255  0.9078  0.5732
10739SOL    HW243437   7.308   1.603   6.762 -0.4698 -0.4857 -0.2956
10740SOL     OW43438   6.997   8.923   3.701 -0.0866  0.0352  1.0161
10740SOL    HW143439   6.999   8.971   3.789 -0.3083  1.4733  0.2520
10740SOL    HW243440   7.004   8.990   3.627  0.4617 -1.2038 -0.0515
10741SOL     OW43441   0.184   0.090   5.975 -0.2544 -0.2951  0.3786
10741SOL    HW143442   0.116   0.025   6.009 -0.2971 -0.9175 -0.8795
10741SOL    HW243443   0.190   0.083   5.875  2.6962 -1.2969  0.5868
10742SOL     OW43444   7.854   0.240   0.495 -1.3716 -0.6620  0.2533
10742SOL    HW143445   7.852   0.142   0.476  4.3750 -0.9609  0.2467
10742SOL    HW243446   7.891   0.255   0.587 -0.3707  1.5048 -0.4593
10743SOL     OW43447   0.242   3.445   1.005  0.8610 -0.9886  0.3062
10743SOL    HW143448   0.342   3.442   1.009  0.9573 -0.2949 -1.1377
10743SOL    HW243449   0.208   3.519   1.063  1.2994 -0.1590 -0.4772
10744SOL     OW43450   3.499   9.591   3.085  0.1154 -0.0055 -0.5096
10744SOL    HW143451   3.419   9.574   3.142  0.7944  1.6938  0.9980
10744SOL    HW243452   3.506   9.519   3.016 -0.6651 -2.1894  1.5885
10745SOL     OW43453   3.065   0.190   3.621  0.1212 -0.6146  0.1630
10745SOL    HW143454   3.087   0.110   3.677  0.7663 -1.3418 -1.0820
10745SOL    HW243455   3.149   0.238   3.596 -0.1867 -0.1057  0.0952
10746SOL     OW43456   7.626   2.055   3.223 -0.5624  0.1393  0.4097
10746SOL    HW143457   7.617   2.025   3.319 -1.1351  0.9796  0.6281
10746SOL    HW243458   7.670   2.145   3.221  0.7152 -0.4964 -0.2087
10747SOL     OW43459   1.439   0.731   2.383 -0.1856 -0.7993  0.8097
10747SOL    HW143460   1.478   0.797   2.319  0.8080 -0.2366  1.9653
10747SOL    HW243461   1.493   0.730   2.467 -0.8141 -2.3318  1.2166
10748SOL     OW43462   3.616   8.948   7.930 -0.3938 -0.0926  0.5850
10748SOL    HW143463   3.536   8.888   7.920 -0.7289  0.0872  2.0397
10748SOL    HW243464   3.634   8.994   7.843 -1.2559 -0.9018 -0.0371
10749SOL     OW43465   7.404   0.656   0.693 -0.2864 -0.1961  0.0552
10749SOL    HW143466   7.381   0.603   0.611 -0.5600  0.5401 -0.3448
10749SOL    HW243467   7.325   0.659   0.754 -0.7722  1.0114 -0.6086
10750SOL     OW43468   4.747   5.601   8.181 -0.0440 -0.0692  0.7429
10750SOL    HW143469   4.655   5.625   8.210 -0.3257 -1.1766  0.7746
10750SOL    HW243470   4.743   5.527   8.114  0.7134  1.0989 -0.6328
10751SOL     OW43471   2.678   2.358   4.802  0.0688  0.1635 -0.3698
10751SOL    HW143472   2.603   2.337   4.740  1.1969  0.7942 -1.9782
10751SOL    HW243473   2.678   2.456   4.823 -0.2385 -0.0277  0.5333
10752SOL     OW43474   4.996   9.811   5.443  0.1905 -0.7599 -0.2159
10752SOL    HW143475   5.005   9.718   5.409 -2.1210 -0.3255 -2.1820
10752SOL    HW243476   4.922   9.815   5.511  0.4542 -0.4222  0.0529
10753SOL     OW43477   1.107   0.225   3.596  0.1905 -0.2099 -0.0419
10753SOL    HW143478   1.173   0.296   3.620 -1.1594  1.4394 -1.0973
10753SOL    HW243479   1.135   0.182   3.510 -0.4622  0.9823 -0.8669
10754SOL     OW43480   2.089   6.305   0.976  0.1394 -0.4634  0.1396
10754SOL    HW143481   1.996   6.337   0.993 -0.1883 -1.1028 -0.4123
10754SOL    HW243482   2.137   6.295   1.063  0.4457  2.0437  0.2825
10755SOL     OW43483   8.255   8.280   3.389  0.1591  0.2996  0.2501
10755SOL    HW143484   8.335   8.276   3.449 -0.5304 -3.9126  1.0337
10755SOL    HW243485   8.252   8.198   3.332 -2.4231  1.4376 -1.3471
10756SOL     OW43486   7.196   9.843   6.555 -0.3194  0.1133 -0.3684
10756SOL    HW143487   7.280   9.876   6.598 -1.4529  1.2630  1.0565
10756SOL    HW243488   7.216   9.804   6.465  1.4776  2.1144 -0.8650
10757SOL     OW43489   8.304   5.276   5.034 -0.7741 -0.0448 -0.1136
10757SOL    HW143490   8.401   5.275   5.060 -0.6296 -1.2317 -0.6665
10757SOL    HW243491   8.248   5.258   5.115 -0.5577  0.9816  0.2736
10758SOL     OW43492   8.701   6.710   4.849 -0.4497  0.1127 -0.7006
10758SOL    HW143493   8.635   6.656   4.798  2.4702 -0.8991 -3.5761
10758SOL    HW243494   8.666   6.803   4.863 -3.7691 -1.2752  0.6948
10759SOL     OW43495   0.899   6.479   0.108 -0.2829 -0.2792 -0.0288
10759SOL    HW143496   0.992   6.465   0.073 -0.2962 -2.9431  0.8376
10759SOL    HW243497   0.896   6.561   0.164  2.1548 -1.4365  1.8804
10760SOL     OW43498   4.838   3.014   4.189 -0.1637 -0.4789  0.5730
10760SOL    HW143499   4.786   2.949   4.245  0.4002 -1.4363 -0.0009
10760SOL    HW243500   4.936   2.995   4.199  0.0959  1.2141  1.5310
10761SOL     OW43501   3.448   0.287   2.331  0.4341  0.4045 -0.1938
10761SOL    HW143502   3.373   0.351   2.346  0.2102  0.2986 -0.8284
10761SOL    HW243503   3.525   0.334   2.289  2.2520  1.3975  4.0155
10762SOL     OW43504   0.207   6.610   0.471  0.1254  0.0531 -0.0256
10762SOL    HW143505   0.153   6.693   0.452 -0.2182 -0.2844 -0.5272
10762SOL    HW243506   0.276   6.598   0.401  0.8214  0.4545  0.5911
10763SOL     OW43507   5.139   1.529   4.757  1.1580  0.1525  0.1754
10763SOL    HW143508   5.145   1.600   4.827  2.1414  0.3574 -0.1117
10763SOL    HW243509   5.043   1.504   4.742  0.9770 -0.3321  2.0419
10764SOL     OW43510   3.899   0.820   6.257 -0.0556  0.0487  0.1629
10764SOL    HW143511   3.968   0.790   6.323 -0.1158 -0.5465 -0.0428
10764SOL    HW243512   3.827   0.751   6.251 -0.8132  0.7956  0.5822
10765SOL     OW43513   7.588   4.555   5.880 -0.4993  0.1558 -0.3798
10765SOL    HW143514   7.592   4.513   5.971  0.0322 -0.4413 -0.6710
10765SOL    HW243515   7.615   4.651   5.886 -1.2220  0.3262  0.2124
10766SOL     OW43516   4.511   4.223   4.703 -0.7787 -0.1742  0.0193
10766SOL    HW143517   4.570   4.277   4.763  0.9008 -0.8922 -0.9622
10766SOL    HW243518   4.468   4.150   4.755  1.5870 -1.5255  0.1627
10767SOL     OW43519   5.854   9.483   4.865 -0.5625  0.5953 -0.3172
10767SOL    HW143520   5.840   9.521   4.957  1.3557 -1.1509  0.7395
10767SOL    HW243521   5.933   9.422   4.866 -1.4349 -0.6360 -2.7965
10768SOL     OW43522   4.078   4.324   8.160  0.4269  0.1847  0.2603
10768SOL    HW143523   4.070   4.345   8.063 -2.1885  0.1021  0.4291
10768SOL    HW243524   4.072   4.409   8.213  1.5373  0.1960  0.3820
10769SOL     OW43525   6.674   2.765   3.377  0.0327  0.1837 -0.7205
10769SOL    HW143526   6.639   2.840   3.320  0.8820  0.9500 -0.2401
10769SOL    HW243527   6.768   2.784   3.402 -0.7016  0.4531  1.9679
10770SOL     OW43528   1.643   1.416   3.471  0.6592  0.1131 -0.2484
10770SOL    HW143529   1.625   1.443   3.376 -0.5841 -0.6265 -0.2396
10770SOL    HW243530   1.740   1.430   3.492  0.8751  0.6144 -1.5200
10771SOL     OW43531   2.912   7.047   1.470 -0.3119 -0.5066  0.1164
10771SOL    HW143532   2.940   7.139   1.441 -1.2503 -0.3269 -0.2609
10771SOL    HW243533   2.815   7.049   1.494 -0.1651 -1.2528  0.7626
10772SOL     OW43534   9.749   1.868   0.258  0.1176  0.5192  0.4630
10772SOL    HW143535   9.834   1.912   0.228  0.3609  0.1562  0.6183
10772SOL    HW243536   9.683   1.870   0.183  0.0327  1.3941  0.5606
10773SOL     OW43537   2.713   5.615   2.331  0.5386  0.6112  0.5550
10773SOL    HW143538   2.775   5.540   2.310 -1.1178 -0.2195 -1.5661
10773SOL    HW243539   2.729   5.691   2.268 -0.0618  0.6942  0.4955
10774SOL     OW43540   2.340   5.921   4.562  0.0985  0.0215  0.2345
10774SOL    HW143541   2.309   5.828   4.541  1.2686 -0.3239 -0.0030
10774SOL    HW243542   2.425   5.916   4.614 -0.5330  0.9438  1.3752
10775SOL     OW43543   9.670   8.237   0.447 -0.1001 -0.3002  0.4343
10775SOL    HW143544   9.592   8.284   0.489 -0.5431 -2.6435  2.3453
10775SOL    HW243545   9.646   8.211   0.353 -0.8391  0.8247  0.2971
10776SOL     OW43546   0.445   8.452   2.190 -0.0799 -0.2523  0.5753
10776SOL    HW143547   0.377   8.432   2.261  0.1140  0.2026  0.8868
10776SOL    HW243548   0.444   8.550   2.169 -0.1116 -0.3799 -0.0243
10777SOL     OW43549   4.228   0.707   3.970 -0.1547 -0.4070  0.0989
10777SOL    HW143550   4.174   0.777   4.017  0.1818 -0.3533  0.4001
10777SOL    HW243551   4.166   0.639   3.929 -0.5056  0.3112 -0.5817
10778SOL     OW43552   2.032   9.529   1.946 -0.0325  0.4078  0.3867
10778SOL    HW143553   1.993   9.439   1.962 -0.0509  0.4966  0.8524
10778SOL    HW243554   2.042   9.545   1.848 -0.1469 -0.0490  0.3031
10779SOL     OW43555   4.735   3.815   0.589 -0.4855 -0.0974 -0.3182
10779SOL    HW143556   4.646   3.779   0.616 -0.6451  0.2345 -0.4028
10779SOL    HW243557   4.731   3.846   0.494 -0.1378 -0.5595 -0.4889
10780SOL     OW43558   8.454   9.990   0.485  0.0360  0.4273 -0.3069
10780SOL    HW143559   8.544  10.027   0.460 -0.3558  0.5364 -1.5884
10780SOL    HW243560   8.414  10.046   0.558  1.0321  0.3329  0.3205
10781SOL     OW43561   4.010   7.758   1.399  0.1368  0.2702 -0.5534
10781SOL    HW143562   4.062   7.705   1.332 -0.4411  0.1159 -0.8815
10781SOL    HW243563   3.917   7.773   1.365  1.5162  5.3398 -2.5123
10782SOL     OW43564   5.207   5.056   0.422  0.3158  0.5806  0.3932
10782SOL    HW143565   5.270   5.096   0.488  1.3649 -0.9736  0.3544
10782SOL    HW243566   5.250   4.977   0.378 -1.1651  0.3063 -0.6072
10783SOL     OW43567   7.880   5.570   5.731  0.4584 -0.8205 -0.0690
10783SOL    HW143568   7.836   5.554   5.643  0.1939 -0.4613 -0.0037
10783SOL    HW243569   7.923   5.486   5.763  1.3318 -0.7280 -0.9683
10784SOL     OW43570   1.279   3.900   0.725 -0.0435  0.1424 -0.3200
10784SOL    HW143571   1.347   3.917   0.653 -0.0016  1.5351  0.0249
10784SOL    HW243572   1.294   3.810   0.764  1.6104  0.4151 -0.2729
10785SOL     OW43573   3.133   4.072   5.212  0.6443  0.0026 -0.0235
10785SOL    HW143574   3.221   4.116   5.229  0.4032  0.8071 -0.7847
10785SOL    HW243575   3.137   4.022   5.126  0.6214 -0.6771  0.3701
10786SOL     OW43576   8.028   9.363   4.964 -0.5590 -0.4400 -0.2411
10786SOL    HW143577   8.005   9.265   4.959  2.5155 -1.1694 -1.0560
10786SOL    HW243578   8.052   9.386   5.059 -0.4260 -0.6893 -0.2123
10787SOL     OW43579   4.987   7.665   1.773 -0.3622 -0.3959 -0.4733
10787SOL    HW143580   5.069   7.628   1.816 -0.6963 -2.3238 -1.4261
10787SOL    HW243581   4.995   7.764   1.765  0.3314 -0.1483  2.6693
10788SOL     OW43582   2.181   6.366   4.080 -0.7942  0.5335  0.6644
10788SOL    HW143583   2.135   6.321   4.157 -2.0345 -0.2239 -0.4998
10788SOL    HW243584   2.117   6.377   4.005  1.2374 -1.7091 -1.4755
10789SOL     OW43585   9.673   7.662   0.728 -0.0237  0.7300 -0.4340
10789SOL    HW143586   9.665   7.563   0.740 -0.1567  0.7784 -0.1226
10789SOL    HW243587   9.602   7.693   0.664 -0.0417  0.6394 -0.4597
10790SOL     OW43588   3.566   9.712   0.425  0.3020 -0.1943  0.4300
10790SOL    HW143589   3.534   9.794   0.472  0.0031 -0.2225  0.2765
10790SOL    HW243590   3.604   9.648   0.492  1.6015  0.5522  0.4169
10791SOL     OW43591   1.234   0.180   4.671 -0.2253  0.7387  0.2794
10791SOL    HW143592   1.283   0.160   4.756 -1.8584 -1.4046  0.7700
10791SOL    HW243593   1.298   0.180   4.594  0.9409  0.6597  1.2347
10792SOL     OW43594   4.326   3.957   3.265  0.1999 -0.2839 -0.2224
10792SOL    HW143595   4.336   3.963   3.364  0.1482 -1.1699 -0.1590
10792SOL    HW243596   4.371   4.034   3.222  1.5907 -0.7338  0.4103
10793SOL     OW43597   2.860   4.539   4.895  0.1273 -0.0813 -0.5392
10793SOL    HW143598   2.790   4.554   4.826  0.3062  1.2420 -0.4402
10793SOL    HW243599   2.816   4.523   4.984 -0.0691  0.5682 -0.5127
10794SOL     OW43600   0.135   1.560   0.648  0.1581  0.0056 -0.0298
10794SOL    HW143601   0.231   1.539   0.630 -0.3380 -1.2829 -1.2175
10794SOL    HW243602   0.094   1.600   0.566 -0.9311 -1.6891 -0.3340
10795SOL     OW43603   3.808   3.528   2.672  0.0384 -0.2273  0.1951
10795SOL    HW143604   3.747   3.462   2.717  1.0939  0.2171  2.3419
10795SOL    HW243605   3.780   3.621   2.695 -1.3018  0.1343 -2.6381
10796SOL     OW43606   1.160   3.063   1.242  0.3133  0.1635  0.1512
10796SOL    HW143607   1.203   3.009   1.314  0.1899  0.5828  0.5447
10796SOL    HW243608   1.061   3.058   1.250  0.3033  0.7780  0.4414
10797SOL     OW43609   3.164   9.875   4.434 -0.4389  0.1938  0.2881
10797SOL    HW143610   3.081   9.821   4.421  0.1205 -0.8108  0.7487
10797SOL    HW243611   3.186   9.925   4.351  0.2301 -2.0258 -0.9193
10798SOL     OW43612   4.302   4.260   0.168  0.4775 -0.1490  0.2606
10798SOL    HW143613   4.204   4.271   0.148  0.9649  0.2360 -2.0311
10798SOL    HW243614   4.353   4.336   0.128  1.8418 -0.8985  0.5404
10799SOL     OW43615   5.470   0.959   4.023 -0.3742 -0.1161 -0.0897
10799SOL    HW143616   5.522   0.874   4.034 -1.1697 -0.3621  2.0540
10799SOL    HW243617   5.375   0.937   4.002 -0.3496  0.2690 -0.6033
10800SOL     OW43618   1.189   6.028   4.761  0.4209 -0.2747  0.2267
10800SOL    HW143619   1.110   6.074   4.720 -0.3699 -0.6864  1.2422
10800SOL    HW243620   1.267   6.090   4.763  0.1028  0.1681 -0.7255
10801SOL     OW43621   7.383   1.827   3.983  0.4173 -0.6714  0.2891
10801SOL    HW143622   7.343   1.834   3.891 -0.0644  0.1336  0.5609
10801SOL    HW243623   7.469   1.878   3.986 -0.2806  0.4835  0.6859
10802SOL     OW43624   1.408   5.268   5.567 -0.0068  0.1131  0.9306
10802SOL    HW143625   1.425   5.307   5.477  0.1100 -0.4760  0.6972
10802SOL    HW243626   1.362   5.336   5.625  3.3980  1.8678  1.6923
10803SOL     OW43627   0.272   3.705   5.127  0.6683 -0.1735  0.1727
10803SOL    HW143628   0.308   3.798   5.127  0.8109 -0.2228 -1.0907
10803SOL    HW243629   0.302   3.658   5.210 -1.0102  1.5023  1.7845
10804SOL     OW43630   7.783   1.816   4.688 -0.2356 -0.0203 -0.2054
10804SOL    HW143631   7.785   1.716   4.692 -0.1358  0.0078  0.5796
10804SOL    HW243632   7.875   1.850   4.671 -0.1069 -0.0314  0.4514
10805SOL     OW43633   2.900   8.330   2.484  0.0622 -0.1515 -0.0119
10805SOL    HW143634   2.885   8.251   2.425  0.6682 -1.1789  1.1832
10805SOL    HW243635   2.865   8.311   2.576  2.7598 -0.1567  1.0707
10806SOL     OW43636   6.980   2.437   0.868 -0.2856 -0.1828  0.5803
10806SOL    HW143637   7.066   2.471   0.906 -0.7770  1.4776  0.2561
10806SOL    HW243638   6.999   2.364   0.802  0.9205  0.6531 -0.0095
10807SOL     OW43639   9.829   4.252   2.295  0.0871 -0.4721 -0.0374
10807SOL    HW143640   9.912   4.204   2.267  0.0144 -1.0053  0.6380
10807SOL    HW243641   9.775   4.193   2.355 -1.2125 -0.4670 -1.1688
10808SOL     OW43642   1.171   7.609   3.058  0.5377 -0.3920  0.4961
10808SOL    HW143643   1.249   7.650   3.011 -1.1680  2.2651 -0.1191
10808SOL    HW243644   1.150   7.521   3.016  0.8465  0.6038 -1.8145
10809SOL     OW43645   8.014   1.697   1.010 -0.0766  0.3780  0.1206
10809SOL    HW143646   8.091   1.649   1.053  0.6769  2.0472  0.6869
10809SOL    HW243647   8.033   1.708   0.912  1.2727  2.3469  0.5658
10810SOL     OW43648   3.378   4.293   4.461  0.2485  0.4118 -0.2074
10810SOL    HW143649   3.385   4.366   4.393 -0.8195 -0.0532 -0.8358
10810SOL    HW243650   3.466   4.281   4.506  0.4544  2.0262 -0.1486
10811SOL     OW43651   1.015   8.699   6.345 -0.0430 -0.4537  0.5860
10811SOL    HW143652   0.923   8.674   6.376 -1.1321 -1.6536 -3.3820
10811SOL    HW243653   1.071   8.617   6.334  0.6494  0.0372  0.3812
10812SOL     OW43654   8.828   1.315   2.054 -0.1654 -0.3647 -0.2303
10812SOL    HW143655   8.795   1.285   1.964  1.0337 -1.0978 -0.4272
10812SOL    HW243656   8.846   1.234   2.111  1.1191  0.0428 -0.0593
10813SOL     OW43657   9.912   7.615   3.192 -0.5745 -0.0071  0.6118
10813SOL    HW143658   9.948   7.695   3.241  0.1451  0.6248 -0.9384
10813SOL    HW243659   9.841   7.572   3.248 -0.0900  0.9765  2.0142
10814SOL     OW43660   9.034   0.481   5.798 -0.4655  0.3742 -0.1778
10814SOL    HW143661   8.965   0.448   5.734 -0.6002  1.5333 -0.6460
10814SOL    HW243662   9.123   0.482   5.752 -0.0505 -1.4421  0.5269
10815SOL     OW43663   3.023   2.562   0.052  0.5683 -0.1950  0.5385
10815SOL    HW143664   2.988   2.628   0.119  0.6152 -1.0917  1.4480
10815SOL    HW243665   3.048   2.611  -0.032 -1.5012  0.6418  0.3885
10816SOL     OW43666   1.131   3.595   0.714  0.2295 -0.9121 -0.5177
10816SOL    HW143667   1.114   3.624   0.620 -1.1696 -0.2713 -0.0782
10816SOL    HW243668   1.228   3.575   0.726  0.5469 -0.2216 -1.8802
10817SOL     OW43669   6.737   1.250   0.324  0.1927 -0.1363 -0.1828
10817SOL    HW143670   6.832   1.252   0.290 -0.6283  1.2794 -2.5249
10817SOL    HW243671   6.694   1.163   0.297  0.4054 -0.2103 -0.2866
10818SOL     OW43672   9.864   8.092   3.618 -0.0277  0.3498  0.5159
10818SOL    HW143673   9.835   8.129   3.706 -0.6692  2.6314 -0.6045
10818SOL    HW243674   9.900   8.166   3.561  2.0955 -1.3888 -0.4813
10819SOL     OW43675   3.469   4.621   1.006  0.0859 -0.6172 -0.2938
10819SOL    HW143676   3.524   4.609   0.924  1.7273 -1.6550  0.9261
10819SOL    HW243677   3.513   4.689   1.066  0.2666 -1.7442  0.8695
10820SOL     OW43678   0.768   9.395   4.667 -0.1369  0.0559  1.0834
10820SOL    HW143679   0.675   9.358   4.665 -0.7567  1.6162  0.1543
10820SOL    HW243680   0.831   9.329   4.626 -1.1142 -0.2888  0.1097
10821SOL     OW43681   9.419   7.508   6.139  0.1557 -0.2294  0.1017
10821SOL    HW143682   9.433   7.599   6.179 -1.7551 -0.1943  0.7827
10821SOL    HW243683   9.321   7.492   6.128  0.5042 -1.9526 -0.6368
10822SOL     OW43684   5.521   1.216   1.131  0.7612 -0.8878 -0.1650
10822SOL    HW143685   5.579   1.197   1.052 -0.5640 -1.4518 -1.0234
10822SOL    HW243686   5.442   1.155   1.129  0.0328  0.0075  0.8735
10823SOL     OW43687   0.547   9.408   1.231 -0.0693  0.6414 -0.1768
10823SOL    HW143688   0.536   9.321   1.182  0.4981  1.1467 -1.2177
10823SOL    HW243689   0.490   9.478   1.188  2.4532  1.7619 -1.8258
10824SOL     OW43690   3.473   8.117   1.859  0.0228 -0.3354  0.0222
10824SOL    HW143691   3.483   8.044   1.926  1.0310 -0.5956 -0.3967
10824SOL    HW243692   3.421   8.192   1.898 -2.2622 -1.8424  0.0233
10825SOL     OW43693   0.536   2.233   0.973 -0.3894  0.0858  0.0513
10825SOL    HW143694   0.520   2.136   0.988  0.9923 -0.2219 -0.4078
10825SOL    HW243695   0.502   2.285   1.051 -1.1986 -0.7584  0.2669
10826SOL     OW43696   7.564   9.138   2.506 -0.1822  0.0816 -0.2223
10826SOL    HW143697   7.558   9.053   2.452  2.7765 -0.8114  0.7645
10826SOL    HW243698   7.518   9.212   2.456  0.1694 -1.3174 -2.7262
10827SOL     OW43699   5.305   0.310   6.009  0.1206 -0.2441 -0.1731
10827SOL    HW143700   5.278   0.215   6.026 -1.2140  0.2762  0.8299
10827SOL    HW243701   5.231   0.357   5.961  1.2097  0.0168 -1.5927
10828SOL     OW43702   7.656   3.190   4.729  0.3325  0.3647 -0.4140
10828SOL    HW143703   7.628   3.249   4.653  0.6256 -0.3802 -1.1056
10828SOL    HW243704   7.750   3.211   4.755  0.0289  1.0375  0.1465
10829SOL     OW43705   9.658   4.241   0.488  0.3925  0.0343 -0.3900
10829SOL    HW143706   9.595   4.312   0.520 -0.0904 -0.8269  0.5899
10829SOL    HW243707   9.695   4.267   0.399  0.4180  1.6384  0.0783
10830SOL     OW43708   5.748   5.489   1.508  0.1547  0.3253  0.3446
10830SOL    HW143709   5.796   5.574   1.528 -1.6207  0.9174  2.2564
10830SOL    HW243710   5.744   5.433   1.592  1.6434 -1.8334 -0.9650
10831SOL     OW43711   6.917   3.232   1.733 -0.1481 -0.1688 -0.2877
10831SOL    HW143712   6.843   3.193   1.678  0.0851 -2.6140  1.0688
10831SOL    HW243713   6.939   3.170   1.808  1.7680  1.5875  0.6479
10832SOL     OW43714   9.106   6.556   1.224  0.3288 -0.2200 -0.2941
10832SOL    HW143715   9.073   6.618   1.153 -0.8854 -3.0742 -2.3099
10832SOL    HW243716   9.182   6.502   1.188 -0.2892 -1.6882  0.5538
10833SOL     OW43717   2.153   7.526   1.399  0.3501  0.5314 -0.3872
10833SOL    HW143718   2.252   7.512   1.401  0.5478  1.9407  0.4355
10833SOL    HW243719   2.132   7.612   1.354 -0.4499  0.6654  0.2175
10834SOL     OW43720   4.911   1.268   3.625 -0.4498 -0.2807  0.2791
10834SOL    HW143721   4.987   1.269   3.690  0.4364  0.9246 -0.7564
10834SOL    HW243722   4.941   1.226   3.539  0.2657  3.6780 -1.5173
10835SOL     OW43723   2.922   2.610   5.780 -0.3989  0.3008 -0.2766
10835SOL    HW143724   2.895   2.532   5.724 -1.0109  0.4035 -0.1212
10835SOL    HW243725   2.841   2.651   5.822  0.0125  0.4837  0.3423
10836SOL     OW43726   8.262   1.344   4.475 -0.4181 -0.0193  0.5195
10836SOL    HW143727   8.351   1.304   4.451  0.5191  0.9843  2.2680
10836SOL    HW243728   8.237   1.412   4.406 -0.2417 -0.8983 -0.4289
10837SOL     OW43729   7.535   1.932   2.261  0.3188  0.1999 -0.3272
10837SOL    HW143730   7.514   1.834   2.257 -2.3924  0.7635 -1.1659
10837SOL    HW243731   7.489   1.979   2.186  1.5163  2.1342  0.1205
10838SOL     OW43732   3.084   2.995   0.249 -0.3575 -0.6990 -0.8410
10838SOL    HW143733   3.062   3.087   0.281  3.3195  0.0839 -0.4593
10838SOL    HW243734   2.999   2.941   0.243 -2.2147  1.8494  1.5152
10839SOL     OW43735   0.751   6.277   5.517 -0.8596  0.2668 -0.2443
10839SOL    HW143736   0.704   6.190   5.526 -0.8692  0.3317  0.3311
10839SOL    HW243737   0.684   6.351   5.511 -0.8690  0.1651 -1.5429
10840SOL     OW43738   1.367   1.309   4.254 -0.3912  0.6880  0.0932
10840SOL    HW143739   1.305   1.273   4.323 -1.4974 -0.7900 -1.6372
10840SOL    HW243740   1.461   1.308   4.290 -0.6964 -1.8223  0.8886
10841SOL     OW43741   1.877   8.853   1.468  0.1286  0.1631  0.2473
10841SOL    HW143742   1.831   8.942   1.460 -2.0374 -0.9477  0.2176
10841SOL    HW243743   1.906   8.823   1.377  0.2170  0.4941  0.1633
10842SOL     OW43744   2.616   4.718   2.963 -0.0942  0.2385  0.0987
10842SOL    HW143745   2.574   4.642   3.012  0.3919  0.1918  0.4498
10842SOL    HW243746   2.575   4.804   2.993  0.5686  0.2541  0.9812
10843SOL     OW43747   2.148   3.539   1.833 -0.2020 -0.1034  0.0875
10843SOL    HW143748   2.115   3.445   1.831 -0.4153 -0.0096 -1.3095
10843SOL    HW243749   2.073   3.601   1.810  0.6169  0.1893 -1.8912
10844SOL     OW43750   0.655   3.851   5.659 -0.3244 -0.7751  0.1836
10844SOL    HW143751   0.672   3.949   5.649  1.8793 -1.1115  0.5934
10844SOL    HW243752   0.683   3.821   5.749 -1.5789 -1.6902  0.2836
10845SOL     OW43753   9.811   1.571   4.407 -0.1079  0.1370 -0.1761
10845SOL    HW143754   9.711   1.578   4.411  0.0233  1.6058  1.0257
10845SOL    HW243755   9.837   1.499   4.343 -1.9441 -0.5042 -0.2259
10846SOL     OW43756   8.171   0.983   5.374  0.4647 -0.5711 -0.7560
10846SOL    HW143757   8.195   0.915   5.443 -0.1461 -0.0897 -0.0676
10846SOL    HW243758   8.099   0.946   5.315 -0.8666 -0.0000  0.4890
10847SOL     OW43759   9.285   4.244   0.637 -0.8549 -0.3127 -0.3345
10847SOL    HW143760   9.294   4.145   0.648  1.5869 -0.0338  0.4464
10847SOL    HW243761   9.325   4.290   0.716 -1.9522  1.3040 -0.6987
10848SOL     OW43762   7.221   2.076   5.694  0.5481 -0.5821 -0.1451
10848SOL    HW143763   7.220   2.171   5.664  0.5934 -0.4618  0.2305
10848SOL    HW243764   7.239   2.017   5.616  0.5152 -0.2827 -0.3814
10849SOL     OW43765   4.080   5.252   2.712 -0.0739 -0.0813 -0.2188
10849SOL    HW143766   4.106   5.180   2.648  0.1731  1.0324 -1.3888
10849SOL    HW243767   3.988   5.284   2.691 -0.8425 -1.2084  1.3612
10850SOL     OW43768   9.182   9.991   6.580  0.1017 -0.0888 -0.1978
10850SOL    HW143769   9.179   9.919   6.650  1.8662  0.3824  0.3761
10850SOL    HW243770   9.110   9.974   6.513 -1.5394 -0.6334  1.6442
10851SOL     OW43771   2.377   2.056   4.553  0.3221  0.4103  0.4143
10851SOL    HW143772   2.449   1.990   4.577  0.1627  0.1712  0.2392
10851SOL    HW243773   2.321   2.019   4.479 -1.4684 -0.4551  2.1449
10852SOL     OW43774   1.239   2.710   2.897 -0.3824 -0.0129 -0.4990
10852SOL    HW143775   1.295   2.706   2.814 -1.6520  1.5988 -1.4457
10852SOL    HW243776   1.296   2.685   2.976  0.9818 -0.9994 -1.7644
10853SOL     OW43777   1.363   8.274   4.942  0.2915 -0.1285 -0.1790
10853SOL    HW143778   1.340   8.316   4.855 -0.8227 -0.3427 -0.0003
10853SOL    HW243779   1.344   8.176   4.937 -3.1095  0.3737  1.3823
10854SOL     OW43780   2.925   9.619   1.613  0.3307  0.1986 -0.2347
10854SOL    HW143781   2.951   9.641   1.707  1.3128  1.8693 -0.8777
10854SOL    HW243782   2.977   9.540   1.581 -0.8471 -1.1082  0.9930
10855SOL     OW43783   9.022   1.975   1.432  0.4127  0.7054 -0.0027
10855SOL    HW143784   9.033   1.923   1.516 -0.1477  0.0739 -0.3120
10855SOL    HW243785   8.981   2.064   1.453  0.2592  0.5445  0.3856
10856SOL     OW43786   0.598   8.903   1.172  0.2276  0.0530 -0.2841
10856SOL    HW143787   0.596   8.899   1.272 -2.7707  1.0998 -0.2296
10856SOL    HW243788   0.565   8.816   1.135 -0.5217  0.3338 -0.2960
10857SOL     OW43789   9.510   0.709   4.224  0.6807 -0.0097 -0.9190
10857SOL    HW143790   9.423   0.662   4.212  0.7087 -0.4286  0.4987
10857SOL    HW243791   9.493   0.804   4.250  0.6498  0.2891 -1.9814
10858SOL     OW43792   6.986   9.590   2.456 -0.0342  0.7983 -0.0043
10858SOL    HW143793   7.067   9.624   2.504  0.0739 -0.5994  0.8232
10858SOL    HW243794   6.922   9.551   2.522 -0.9055  0.9148 -0.7685
10859SOL     OW43795   7.257   6.279   1.389  0.2131 -0.1331 -0.2751
10859SOL    HW143796   7.293   6.360   1.436  0.2517 -0.8676  1.0074
10859SOL    HW243797   7.214   6.306   1.303  0.3103  1.2407  0.0957
10860SOL     OW43798   8.169   8.944   5.893 -0.1807 -0.2336  0.1566
10860SOL    HW143799   8.145   8.856   5.853 -0.4358  0.4137 -1.1308
10860SOL    HW243800   8.110   8.962   5.972  0.7344 -1.7907  1.2294
10861SOL     OW43801   1.295   0.383   1.227 -0.0278 -0.0842  0.4631
10861SOL    HW143802   1.379   0.419   1.187  0.7177 -1.4894  0.7153
10861SOL    HW243803   1.254   0.452   1.287  0.9533  0.6115  0.3520
10862SOL     OW43804   4.979   0.355   4.884  0.7159 -0.3597  0.0552
10862SOL    HW143805   5.079   0.366   4.890  0.4991  0.7915  2.0782
10862SOL    HW243806   4.936   0.443   4.868 -0.1089 -0.5143  1.3550
10863SOL     OW43807   7.137   2.002   5.297  0.9328 -0.4581  0.2977
10863SOL    HW143808   7.058   2.038   5.347  0.1966 -1.6845  0.0360
10863SOL    HW243809   7.200   1.959   5.362  1.5091  0.7019  0.5322
10864SOL     OW43810   4.255   0.998   0.585 -0.1039 -0.0582 -0.8596
10864SOL    HW143811   4.317   1.055   0.638 -0.7541 -0.6656  0.6046
10864SOL    HW243812   4.184   1.055   0.544 -1.2902  0.1509  1.3466
10865SOL     OW43813   5.675   9.379   6.627  0.0833 -0.3870  0.1014
10865SOL    HW143814   5.769   9.392   6.659  0.5284 -0.6986 -1.0251
10865SOL    HW243815   5.612   9.424   6.689  0.9784 -0.1984  0.8933
10866SOL     OW43816   3.002   2.835   3.590  0.0173 -0.2965 -0.8952
10866SOL    HW143817   2.929   2.768   3.579  0.4141 -0.6985 -1.0600
10866SOL    HW243818   3.062   2.833   3.510 -1.1091  1.6372 -1.8256
10867SOL     OW43819   7.335   0.224   5.295 -0.0768  0.2250  0.7012
10867SOL    HW143820   7.319   0.309   5.346  1.2630  0.4996  0.6898
10867SOL    HW243821   7.341   0.148   5.359  0.1809  0.3602  0.8404
10868SOL     OW43822   6.595   1.686   5.725  0.4601  0.2502  0.1916
10868SOL    HW143823   6.560   1.759   5.666 -0.4653  0.3044  0.8017
10868SOL    HW243824   6.685   1.711   5.758 -0.8262  2.2279  2.3273
10869SOL     OW43825   9.722   3.438   5.184 -0.1750  0.0444 -0.3678
10869SOL    HW143826   9.631   3.404   5.207 -0.2332 -1.1368 -2.2491
10869SOL    HW243827   9.790   3.392   5.241 -0.5133 -1.1345 -0.9156
10870SOL     OW43828   7.108   9.593   5.536  0.6537  0.1296  0.3246
10870SOL    HW143829   7.166   9.673   5.553 -0.2911  0.8844  0.0528
10870SOL    HW243830   7.165   9.511   5.533  1.8393  0.9572 -0.8494
10871SOL     OW43831   8.072   3.478   3.639 -0.5623  0.1446 -0.2911
10871SOL    HW143832   7.995   3.493   3.702 -1.2836  0.3596 -1.2017
10871SOL    HW243833   8.052   3.523   3.552  0.6737  0.3299 -0.4877
10872SOL     OW43834   2.835   9.152   0.063  0.0428  0.2109 -0.2461
10872SOL    HW143835   2.808   9.073   0.008 -0.5671 -0.5214  1.0647
10872SOL    HW243836   2.933   9.149   0.081  0.2134  0.3549 -1.1216
10873SOL     OW43837   8.653   3.033   1.898  0.1197  0.9249 -0.0303
10873SOL    HW143838   8.701   3.032   1.810 -0.6455  1.4684 -0.4666
10873SOL    HW243839   8.718   3.018   1.972  0.7601  0.3827 -0.6984
10874SOL     OW43840   4.889   0.617   4.862  0.4131 -0.5496 -0.3233
10874SOL    HW143841   4.879   0.649   4.768 -0.8294  0.0115 -0.0087
10874SOL    HW243842   4.813   0.651   4.917  0.2265 -2.2669  0.5088
10875SOL     OW43843   7.907   5.808   8.162  0.0869  0.0046  0.1593
10875SOL    HW143844   7.862   5.849   8.241  0.1292  0.0991  0.1346
10875SOL    HW243845   7.888   5.863   8.080 -2.0353 -1.4366 -0.3801
10876SOL     OW43846   2.370   6.576   1.258  0.5097  0.4007  0.1305
10876SOL    HW143847   2.463   6.542   1.275  0.3317  1.6198  4.3313
10876SOL    HW243848   2.308   6.499   1.244  1.7085 -0.5703  0.1227
10877SOL     OW43849   0.939   4.052   2.916  0.1976  0.3088 -0.3426
10877SOL    HW143850   0.940   3.964   2.869  0.4409  0.0342  0.1802
10877SOL    HW243851   0.845   4.076   2.940 -0.0367  0.8962 -1.8085
10878SOL     OW43852   9.038   5.962   1.238 -0.2729 -0.4127  0.4365
10878SOL    HW143853   8.987   5.921   1.162  0.3870 -0.6051  0.0966
10878SOL    HW243854   9.077   5.890   1.295  1.5298 -0.2903 -0.5900
10879SOL     OW43855   2.767   0.207   4.722  0.3192 -0.1690 -0.1318
10879SOL    HW143856   2.834   0.279   4.740  0.9408 -0.7194 -0.2136
10879SOL    HW243857   2.728   0.175   4.808  2.3624 -1.9241  0.1629
10880SOL     OW43858   5.858   8.881   5.729 -0.0344  0.0291 -0.0152
10880SOL    HW143859   5.782   8.946   5.720  1.1212  1.7452  2.0124
10880SOL    HW243860   5.849   8.831   5.815  1.2990  0.5151  0.4244
10881SOL     OW43861   0.728   3.849   5.259  0.1393  0.4001 -0.4438
10881SOL    HW143862   0.714   3.822   5.355 -0.3030  1.7179 -0.1151
10881SOL    HW243863   0.809   3.804   5.223  0.6422  0.3303  0.7383
10882SOL     OW43864   7.607   3.475   3.941  0.4161  0.3897  0.5441
10882SOL    HW143865   7.671   3.398   3.930  0.9321  1.0637 -1.4460
10882SOL    HW243866   7.657   3.557   3.969  0.4035  0.8552 -0.7702
10883SOL     OW43867   6.503   8.416   6.195  0.6612  0.0718  0.0269
10883SOL    HW143868   6.570   8.489   6.209 -0.0869  0.6677  0.5679
10883SOL    HW243869   6.416   8.444   6.234 -0.2788 -0.1422 -1.8588
10884SOL     OW43870   9.025   2.822   4.644 -0.2254 -0.1317  0.2119
10884SOL    HW143871   8.927   2.838   4.631 -0.2943 -0.8039 -0.1339
10884SOL    HW243872   9.073   2.841   4.558 -0.2538 -1.2879 -0.0707
10885SOL     OW43873   3.119   0.824   5.990  0.4646  0.6027  0.6892
10885SOL    HW143874   3.157   0.758   5.926 -0.5803 -0.1160  0.8089
10885SOL    HW243875   3.062   0.777   6.058 -0.3515  1.6238  0.7282
10886SOL     OW43876   3.417   4.543   4.296  0.5718  0.0728 -0.2753
10886SOL    HW143877   3.458   4.588   4.375 -0.4711 -1.7550  1.3341
10886SOL    HW243878   3.323   4.576   4.285  0.7674  0.4477 -0.8840
10887SOL     OW43879   2.995   3.808   2.526 -0.6857 -0.1953 -0.0878
10887SOL    HW143880   3.040   3.729   2.568 -1.6275 -0.9581 -0.4770
10887SOL    HW243881   3.003   3.887   2.586  1.8554 -0.0940 -0.5097
10888SOL     OW43882   0.498   1.459   4.751  0.3982 -0.0369 -0.8787
10888SOL    HW143883   0.443   1.514   4.687  1.0154  0.8415 -0.6604
10888SOL    HW243884   0.437   1.418   4.819  0.0501  1.2898 -0.3727
10889SOL     OW43885   8.065   0.022   1.664 -0.5661  0.0507 -0.3123
10889SOL    HW143886   7.982  -0.015   1.706  0.3104  0.1082  1.5303
10889SOL    HW243887   8.074   0.119   1.687  0.7490 -0.3026  0.7249
10890SOL     OW43888   2.470   5.592   1.109  0.0429  0.7051  0.1045
10890SOL    HW143889   2.382   5.546   1.115 -0.4456  1.6058 -0.0177
10890SOL    HW243890   2.473   5.667   1.175  0.9660  0.2779  0.5571
10891SOL     OW43891   8.905   2.616   4.441 -0.0363 -0.2689 -0.2709
10891SOL    HW143892   8.948   2.683   4.380 -0.0805  0.4771  0.4973
10891SOL    HW243893   8.886   2.660   4.529 -1.8216 -0.7719 -0.4045
10892SOL     OW43894   5.154   9.403   3.688 -0.1899  0.0574  0.4470
10892SOL    HW143895   5.107   9.373   3.772 -0.2278  0.4295  0.5591
10892SOL    HW243896   5.248   9.369   3.689  0.1588  1.0284  1.1854
10893SOL     OW43897   5.900   8.718   2.741  0.1309 -0.1000  0.3025
10893SOL    HW143898   5.901   8.801   2.685 -0.9379 -0.1743  0.1527
10893SOL    HW243899   5.963   8.650   2.703 -0.5965 -0.1500 -0.8308
10894SOL     OW43900   7.833   3.232   1.343 -0.3661  0.0698 -0.0434
10894SOL    HW143901   7.870   3.230   1.436  0.5148 -1.7807 -0.3979
10894SOL    HW243902   7.904   3.202   1.279 -2.2664 -2.9229 -0.8199
10895SOL     OW43903   8.109   2.489   3.126 -0.4261  0.1000  0.8128
10895SOL    HW143904   8.135   2.464   3.033  0.2642  0.3374  0.9427
10895SOL    HW243905   8.012   2.514   3.128 -0.8660 -1.5371  0.4813
10896SOL     OW43906   6.010   7.462   4.744 -0.0139 -0.3998 -0.6583
10896SOL    HW143907   6.057   7.438   4.830  0.7894 -2.2217 -1.5863
10896SOL    HW243908   6.074   7.511   4.684 -0.0783 -0.5907 -0.8821
10897SOL     OW43909   3.185   5.354   2.603 -0.4899  1.0291 -0.7360
10897SOL    HW143910   3.137   5.346   2.516  0.1657  1.2141 -1.1176
10897SOL    HW243911   3.284   5.355   2.587 -0.2614 -1.9084  0.2222
10898SOL     OW43912   5.114   1.398   1.498 -0.0462  0.3230  0.6629
10898SOL    HW143913   5.096   1.352   1.585  0.7681  0.2184  0.7892
10898SOL    HW243914   5.029   1.431   1.459 -0.2270  2.0205  2.4196
10899SOL     OW43915   4.943   2.532   5.329 -0.7176  0.3835 -0.2278
10899SOL    HW143916   5.040   2.530   5.356 -0.4286  1.8415 -1.1271
10899SOL    HW243917   4.887   2.555   5.409 -0.1903  1.0658 -0.0514
10900SOL     OW43918   2.818   5.720   1.827  0.0535  0.2639 -0.2433
10900SOL    HW143919   2.839   5.817   1.838  0.6215  0.0955  0.2432
10900SOL    HW243920   2.730   5.709   1.781 -0.0336  1.0070 -0.2581
10901SOL     OW43921   8.539   8.589   2.678  0.5356 -0.0187  0.1893
10901SOL    HW143922   8.597   8.523   2.726  1.1210 -0.5876 -1.2522
10901SOL    HW243923   8.573   8.681   2.694 -0.5433  0.0058  2.5784
10902SOL     OW43924   9.243   2.610   4.666  0.1655  0.1970  0.8321
10902SOL    HW143925   9.330   2.652   4.692 -0.3019  3.0478 -1.8575
10902SOL    HW243926   9.168   2.674   4.687 -0.6874  0.2915 -2.2425
10903SOL     OW43927   3.312   2.357   5.390 -0.2832  0.1446 -0.8961
10903SOL    HW143928   3.322   2.259   5.412 -0.4284  0.0111 -1.4239
10903SOL    HW243929   3.235   2.394   5.442 -0.4676 -0.1121 -0.9841
10904SOL     OW43930   1.945   5.193   4.464  0.4487  0.2205  0.1595
10904SOL    HW143931   1.868   5.229   4.411 -0.7050  2.0570  2.9120
10904SOL    HW243932   2.020   5.259   4.463  0.1014  0.6573  1.4250
10905SOL     OW43933   4.150   2.424   8.113  0.5675  0.5882  0.2361
10905SOL    HW143934   4.239   2.379   8.100  0.1011 -1.2277  2.8550
10905SOL    HW243935   4.164   2.515   8.152  1.3281  0.7216 -0.3385
10906SOL     OW43936   9.495   7.222   4.396  0.2349 -0.5179  0.0907
10906SOL    HW143937   9.417   7.260   4.347  1.3626  0.2261 -1.1656
10906SOL    HW243938   9.567   7.198   4.331  0.8621 -1.6561  1.1848
10907SOL     OW43939   6.795   9.512   6.556  0.2247  0.1085 -0.8120
10907SOL    HW143940   6.855   9.465   6.491  1.1952  1.8856 -1.2421
10907SOL    HW243941   6.851   9.564   6.621 -0.7814 -0.4287  0.5076
10908SOL     OW43942   2.275   8.280   2.397 -0.0432  0.1364  0.8035
10908SOL    HW143943   2.302   8.304   2.490  0.3740  0.2609  0.6497
10908SOL    HW243944   2.356   8.255   2.344 -0.0301  2.0228 -0.1113
10909SOL     OW43945   0.143   7.583   3.486 -0.2511  0.1477  0.1466
10909SOL    HW143946   0.217   7.566   3.421  1.8460  2.2959  1.8689
10909SOL    HW243947   0.091   7.663   3.457  0.4736  0.9026  0.9038
10910SOL     OW43948   4.607   2.578   1.052  0.1160 -0.6880 -0.4596
10910SOL    HW143949   4.523   2.620   1.017  0.1875 -0.9222 -0.9196
10910SOL    HW243950   4.595   2.554   1.148 -0.4413 -0.9769 -0.6024
10911SOL     OW43951   2.856   8.719   5.889  0.1200 -0.5762  0.3680
10911SOL    HW143952   2.815   8.641   5.938  0.0643 -0.6617  0.1868
10911SOL    HW243953   2.841   8.803   5.942 -2.9829 -0.1228 -1.1288
10912SOL     OW43954   3.259   2.378   2.894 -0.7706  0.5452  0.0348
10912SOL    HW143955   3.232   2.342   2.805  0.7631  1.5299 -0.8595
10912SOL    HW243956   3.222   2.320   2.966 -0.2822 -1.4995 -1.3000
10913SOL     OW43957   9.535   9.917   3.990 -0.3627 -0.2774 -0.0466
10913SOL    HW143958   9.524   9.818   3.992 -0.2172 -0.2813  0.7357
10913SOL    HW243959   9.501   9.953   3.903 -0.2564 -1.0292 -0.3990
10914SOL     OW43960   4.023   9.357   4.744  0.4370  0.1120 -0.6017
10914SOL    HW143961   4.002   9.433   4.805  1.0468 -0.1002 -0.1275
10914SOL    HW243962   4.031   9.391   4.650  0.2224  0.5530 -0.4623
10915SOL     OW43963   8.064   3.729   1.841  0.0370  0.8417 -0.2726
10915SOL    HW143964   8.131   3.661   1.872  0.4782  1.9747  1.3257
10915SOL    HW243965   7.990   3.682   1.792  0.2653 -0.8289  0.9119
10916SOL     OW43966   2.738   3.503   2.007 -0.0884  0.0319  0.3495
10916SOL    HW143967   2.699   3.570   1.944  0.6617  0.5796  0.4681
10916SOL    HW243968   2.776   3.427   1.955  0.4746  0.4552  0.1353
10917SOL     OW43969   0.525   9.047   1.687  0.7178  0.0397  0.1723
10917SOL    HW143970   0.473   9.124   1.725  1.6221  0.1202  1.2657
10917SOL    HW243971   0.622   9.056   1.712  0.9136 -1.2181 -0.0872
10918SOL     OW43972   8.111   7.614   4.546 -0.4025 -0.7650  0.5223
10918SOL    HW143973   8.160   7.563   4.618  0.8598  1.7390  1.5103
10918SOL    HW243974   8.175   7.638   4.473 -0.6516  0.6004  0.7444
10919SOL     OW43975   7.386   2.920   3.497  0.6255  0.9535 -0.5195
10919SOL    HW143976   7.375   2.899   3.594  0.9775 -0.2727 -0.7332
10919SOL    HW243977   7.301   2.956   3.460 -0.0734 -0.3204 -0.1804
10920SOL     OW43978   7.262   2.096   5.076 -0.2027  0.0015  0.3242
10920SOL    HW143979   7.199   2.150   5.019 -0.8583 -0.0516  0.9811
10920SOL    HW243980   7.213   2.065   5.158  0.8154  0.3415  1.0617
10921SOL     OW43981   5.071   0.544   2.805 -0.2745  0.0152 -0.8926
10921SOL    HW143982   4.997   0.478   2.820 -0.7685  0.6975 -0.3186
10921SOL    HW243983   5.097   0.543   2.708 -0.5857 -0.7019 -0.9707
10922SOL     OW43984   9.078   7.185   4.338 -0.2416 -0.1568  0.3661
10922SOL    HW143985   9.108   7.097   4.376 -0.0268 -1.3509 -2.4667
10922SOL    HW243986   9.157   7.245   4.326 -0.0133 -0.5682 -0.1951
10923SOL     OW43987   4.562   8.002   5.478  0.3584  0.0265  0.2562
10923SOL    HW143988   4.492   7.978   5.546  1.2245  0.0362  1.1598
10923SOL    HW243989   4.567   8.102   5.469  0.9948  0.0666  0.9871
10924SOL     OW43990   7.827   8.533   1.756 -0.1598 -0.1207 -0.2457
10924SOL    HW143991   7.862   8.542   1.663  0.5604 -3.1168 -0.3129
10924SOL    HW243992   7.901   8.549   1.821  0.0441 -0.9844 -0.2623
10925SOL     OW43993   1.814   1.559   0.059  0.1968 -0.0373  0.0020
10925SOL    HW143994   1.836   1.490   0.128 -1.3793 -0.4586  0.1107
10925SOL    HW243995   1.819   1.650   0.099 -2.3318 -0.3636  1.1709
10926SOL     OW43996   1.249   1.470   1.075  0.1630 -0.1767  0.2753
10926SOL    HW143997   1.198   1.409   1.014 -0.2829  1.7260 -1.3346
10926SOL    HW243998   1.190   1.547   1.101  1.0745  0.1784  1.3177
10927SOL     OW43999   3.690   7.227   0.948 -0.3150  0.1995 -0.0127
10927SOL    HW144000   3.640   7.192   0.869 -0.5908  1.9134 -0.6294
10927SOL    HW244001   3.652   7.316   0.973  0.9781  0.4936  0.9153
10928SOL     OW44002   0.534   9.483   1.519 -0.2175  0.5980 -0.2025
10928SOL    HW144003   0.576   9.444   1.438  0.4617  1.4386 -0.2555
10928SOL    HW244004   0.438   9.454   1.524 -0.4151  1.0151 -1.5989
10929SOL     OW44005   9.396   9.198   4.758  0.1709 -0.2237 -0.0633
10929SOL    HW144006   9.464   9.127   4.740 -0.3890 -0.7100 -0.2856
10929SOL    HW244007   9.373   9.199   4.856  0.1326 -0.3928 -0.0707
10930SOL     OW44008   5.600   9.816   2.253 -0.1884 -0.0943  0.0375
10930SOL    HW144009   5.517   9.792   2.303 -1.2905  1.8325 -0.8328
10930SOL    HW244010   5.579   9.826   2.156  0.9085  1.1521 -0.0848
10931SOL     OW44011   7.732   1.163   1.148  0.2286 -0.4034 -0.1070
10931SOL    HW144012   7.728   1.259   1.177 -0.2951 -0.5431  0.2892
10931SOL    HW244013   7.761   1.159   1.053  1.8420  0.0628  0.3569
10932SOL     OW44014   2.195   3.799   1.478  0.3550  0.2692  0.5225
10932SOL    HW144015   2.129   3.849   1.422  0.8237  1.5221  1.0724
10932SOL    HW244016   2.198   3.839   1.570  1.6157 -0.0000  0.6079
10933SOL     OW44017   1.939   5.528   8.167 -0.3264 -0.2268 -0.0322
10933SOL    HW144018   1.963   5.614   8.211 -1.9786 -0.4161  1.2643
10933SOL    HW244019   1.978   5.526   8.075 -1.3899  2.4841 -0.5852
10934SOL     OW44020   4.884   2.433   0.881  0.4851  0.5349 -0.2978
10934SOL    HW144021   4.983   2.446   0.876  0.7335 -1.4663 -0.8792
10934SOL    HW244022   4.838   2.519   0.858  2.0711  1.3144 -0.6202
10935SOL     OW44023   2.898   7.776   5.650 -0.2930  0.4584  0.0635
10935SOL    HW144024   2.854   7.793   5.739  0.8740  3.3702  0.1518
10935SOL    HW244025   2.831   7.793   5.577 -0.2315  1.7773  0.2941
10936SOL     OW44026   2.862   3.914   5.594  0.0581 -0.4618  0.4571
10936SOL    HW144027   2.860   3.844   5.523 -1.6817  0.5099 -0.4989
10936SOL    HW244028   2.851   3.870   5.684  1.7165 -1.6378  0.1080
10937SOL     OW44029   9.428   8.092   1.699  0.3563 -0.1857 -0.1852
10937SOL    HW144030   9.403   8.138   1.613  2.7071 -0.0817 -0.8539
10937SOL    HW244031   9.410   7.994   1.691  2.0512 -0.4147 -1.3999
10938SOL     OW44032   4.897   8.875   3.536  0.1818 -0.5609  0.6228
10938SOL    HW144033   4.858   8.920   3.456  0.6683  0.9056  1.1892
10938SOL    HW244034   4.846   8.792   3.556 -0.3810 -0.5655 -0.7913
10939SOL     OW44035   1.641   3.398   4.368  0.1172  0.0365 -0.0568
10939SOL    HW144036   1.693   3.465   4.315 -0.8761  0.2764 -0.7376
10939SOL    HW244037   1.700   3.322   4.394  0.1382 -1.0762 -3.2252
10940SOL     OW44038   0.523   9.499   6.401 -0.0672  0.2163 -0.0182
10940SOL    HW144039   0.588   9.470   6.330 -1.6916 -2.5389 -0.4754
10940SOL    HW244040   0.454   9.428   6.413 -1.2459  1.7487  2.6198
10941SOL     OW44041   8.211   9.529   3.046  0.4937  0.6611 -0.0204
10941SOL    HW144042   8.218   9.620   3.085  0.6795  0.8380 -0.4587
10941SOL    HW244043   8.180   9.535   2.951 -0.7633  0.1807  0.3496
10942SOL     OW44044   5.765   8.322   2.935  0.0453  0.2067 -0.0912
10942SOL    HW144045   5.802   8.355   3.023 -0.7814  3.7997 -0.9947
10942SOL    HW244046   5.675   8.281   2.951  0.4004 -0.2135  0.8996
10943SOL     OW44047   9.709   7.267   0.131  0.3039 -0.0862 -0.0533
10943SOL    HW144048   9.727   7.172   0.104 -0.1390  0.2148 -1.4509
10943SOL    HW244049   9.785   7.301   0.186  1.3741 -0.6443 -1.1657
10944SOL     OW44050   3.127   5.438   1.596  0.4792  0.1092 -0.1099
10944SOL    HW144051   3.105   5.524   1.641 -0.1651  0.1296 -0.4669
10944SOL    HW244052   3.182   5.381   1.658  1.6758  1.1301 -0.2017
10945SOL     OW44053   4.816   8.500   4.535 -0.4375  0.1441  0.2883
10945SOL    HW144054   4.794   8.590   4.498  0.5573  0.1167 -0.3914
10945SOL    HW244055   4.735   8.442   4.534 -0.5544  0.3154 -1.3567
10946SOL     OW44056   0.828   9.886   4.917  0.9491 -0.0175 -0.5692
10946SOL    HW144057   0.783   9.908   5.003  0.7790 -0.4962 -0.5328
10946SOL    HW244058   0.782   9.809   4.874  0.2812  0.9917 -1.6886
10947SOL     OW44059   2.813   4.790   0.392 -0.3525  0.3444  0.0982
10947SOL    HW144060   2.857   4.861   0.447 -1.8358  0.7988  0.7124
10947SOL    HW244061   2.781   4.716   0.451  1.5397 -1.0703 -0.5736
10948SOL     OW44062   8.978   6.175   3.478 -0.6010  0.0297  0.3262
10948SOL    HW144063   8.910   6.206   3.412 -2.7414 -1.0011  1.9680
10948SOL    HW244064   8.946   6.091   3.522  2.0750 -0.8841  0.6413
10949SOL     OW44065   2.346   4.490   1.348 -0.3188  0.1702  0.0782
10949SOL    HW144066   2.352   4.393   1.323  0.0450  0.1622  0.1915
10949SOL    HW244067   2.419   4.511   1.414 -1.9680 -0.0938  2.0225
10950SOL     OW44068   8.942   3.522   0.928  0.4472 -0.3307  0.1645
10950SOL    HW144069   9.011   3.570   0.873 -1.1620  0.2232 -1.4245
10950SOL    HW244070   8.923   3.573   1.011 -0.4826  1.2927 -1.0132
10951SOL     OW44071   5.139   3.254   5.024 -0.1004  0.6677 -0.2778
10951SOL    HW144072   5.113   3.157   5.028 -1.9893  1.1304 -0.9198
10951SOL    HW244073   5.200   3.275   5.100  0.7914 -1.1635 -0.4582
10952SOL     OW44074   7.782   9.790   5.347  0.6976  0.0311 -0.0309
10952SOL    HW144075   7.816   9.876   5.385  2.0405 -1.1606  1.5612
10952SOL    HW244076   7.696   9.766   5.391  1.5044 -0.5964  1.2425
10953SOL     OW44077   7.876   3.358   8.005 -0.4356  0.1497 -0.0025
10953SOL    HW144078   7.970   3.360   8.038 -0.0173  1.3917 -1.2118
10953SOL    HW244079   7.862   3.276   7.950  0.2878  0.5314 -0.7726
10954SOL     OW44080   5.103   5.730   0.354  0.4937  0.0517 -0.4180
10954SOL    HW144081   5.012   5.709   0.391 -0.1865  1.5102 -1.2123
10954SOL    HW244082   5.135   5.816   0.393  0.7882  0.4082 -1.4276
10955SOL     OW44083   6.829   0.437   6.761 -0.2913 -0.1549  0.2922
10955SOL    HW144084   6.857   0.374   6.688 -1.5280 -1.4733  0.9396
10955SOL    HW244085   6.910   0.469   6.810  0.3930 -0.7707 -0.4151
10956SOL     OW44086   9.118   9.626   2.925  0.3165  0.2497  0.2686
10956SOL    HW144087   9.165   9.639   3.012  0.3816 -1.3565  0.4979
10956SOL    HW244088   9.067   9.540   2.927 -1.5740  1.3139 -0.4557
10957SOL     OW44089   5.701   8.556   3.340 -0.4913  0.1577 -0.5266
10957SOL    HW144090   5.791   8.572   3.299 -1.0778  1.3447 -1.3981
10957SOL    HW244091   5.708   8.486   3.411  0.3853 -2.9115 -3.4827
10958SOL     OW44092   9.228   4.620   2.466 -0.5269  0.0385 -0.2279
10958SOL    HW144093   9.212   4.703   2.412  0.1935  0.9442  0.9269
10958SOL    HW244094   9.220   4.641   2.563 -0.5385 -1.2953  0.0642
10959SOL     OW44095   7.460   1.687   3.012  0.2243  0.3543 -0.3384
10959SOL    HW144096   7.492   1.594   3.031  1.8716  0.8348 -0.7004
10959SOL    HW244097   7.519   1.753   3.058 -1.4943  1.2025  0.6756
10960SOL     OW44098   1.674   3.128   4.944  0.1677 -0.1093 -0.0053
10960SOL    HW144099   1.697   3.046   4.997 -3.2549 -0.8863  0.4271
10960SOL    HW244100   1.713   3.209   4.989  0.4068 -1.1258  1.6871
10961SOL     OW44101   2.167   9.449   6.260 -0.2362  0.3288 -0.6244
10961SOL    HW144102   2.210   9.409   6.342  1.6616  1.6041 -0.9709
10961SOL    HW244103   2.238   9.470   6.193 -1.6121  0.9504 -1.8913
10962SOL     OW44104   9.126   8.778   5.044  0.3809 -0.3288 -0.1719
10962SOL    HW144105   9.199   8.828   5.089  0.8554 -1.5922  0.5046
10962SOL    HW244106   9.137   8.680   5.060 -1.3456 -0.5644 -0.2252
10963SOL     OW44107   8.458   3.321   0.859  0.4024  0.0691  0.2919
10963SOL    HW144108   8.546   3.364   0.843  1.0010 -0.8589  1.0447
10963SOL    HW244109   8.471   3.232   0.903 -0.8288 -0.8699 -1.1955
10964SOL     OW44110   1.356   0.760   0.587 -0.5199 -0.0405  0.3039
10964SOL    HW144111   1.316   0.741   0.677 -3.2176  0.6296 -0.7101
10964SOL    HW244112   1.380   0.857   0.582  0.3848 -0.2491  0.5847
10965SOL     OW44113   8.544   4.860   2.178 -0.0949  0.6987  0.0306
10965SOL    HW144114   8.589   4.862   2.089 -0.4643 -1.1288 -0.2337
10965SOL    HW244115   8.555   4.948   2.224  1.2622  1.2076 -1.2401
10966SOL     OW44116   1.287   4.349   5.095 -0.4806  0.0523  0.5207
10966SOL    HW144117   1.215   4.287   5.124  0.2435 -0.8825  0.3461
10966SOL    HW244118   1.295   4.347   4.995 -0.5589  0.5455  0.5034
10967SOL     OW44119   8.315   5.983   0.500 -0.3030  0.3898  0.2461
10967SOL    HW144120   8.345   6.052   0.435  0.0502  0.7428  0.7803
10967SOL    HW244121   8.239   6.019   0.555  0.6148  0.7608  1.2833
10968SOL     OW44122   2.459   7.817   2.806 -0.3539 -0.3527 -0.2851
10968SOL    HW144123   2.539   7.871   2.830 -0.4440 -1.1054  1.7718
10968SOL    HW244124   2.471   7.779   2.714  1.1418  0.4330 -0.4347
10969SOL     OW44125   5.320   0.341   3.636 -0.1177  0.5499  0.1926
10969SOL    HW144126   5.336   0.381   3.546 -0.2175 -0.4076 -0.2625
10969SOL    HW244127   5.331   0.411   3.706 -0.6807  1.4564 -0.6043
10970SOL     OW44128   4.768   3.927   0.344 -0.2789  0.6643  0.2162
10970SOL    HW144129   4.696   3.919   0.275  0.7289 -0.3980 -0.7241
10970SOL    HW244130   4.825   4.007   0.325  0.1604  0.2194 -0.3347
10971SOL     OW44131   6.064   9.652   1.884 -0.4826 -0.1657  0.1426
10971SOL    HW144132   6.139   9.601   1.926  0.5094  1.5469  0.4937
10971SOL    HW244133   6.071   9.748   1.909 -1.5455  0.3872 -1.6000
10972SOL     OW44134   5.237   7.961   5.454  0.1920  0.6453 -0.9072
10972SOL    HW144135   5.156   7.933   5.402 -0.3526  3.2411 -1.5117
10972SOL    HW244136   5.320   7.934   5.405 -0.3095  0.6447 -1.7474
10973SOL     OW44137   7.176   6.373   1.148 -0.1456  0.4822  0.7253
10973SOL    HW144138   7.247   6.438   1.120 -1.1630  0.7099 -1.4132
10973SOL    HW244139   7.124   6.344   1.068 -0.6739 -1.8365  1.8672
10974SOL     OW44140   6.224   8.352   6.544 -0.2192 -0.0157  0.5415
10974SOL    HW144141   6.211   8.427   6.610  0.8287  0.7669 -0.1302
10974SOL    HW244142   6.231   8.390   6.452 -0.7973 -1.0452  0.0675
10975SOL     OW44143   5.010   0.190   1.862  0.1977 -0.2723  0.0224
10975SOL    HW144144   4.911   0.204   1.851  0.3268  0.1999 -0.5922
10975SOL    HW244145   5.057   0.226   1.782  0.7166 -2.4583 -0.6636
10976SOL     OW44146   8.606   2.139   3.046 -0.1493  0.0574 -0.0776
10976SOL    HW144147   8.693   2.172   3.082  0.3854  0.0213 -1.3065
10976SOL    HW244148   8.551   2.102   3.121  0.1858  1.6319  0.9632
10977SOL     OW44149   2.550   7.740   4.089 -0.3687  0.9180 -0.3011
10977SOL    HW144150   2.594   7.818   4.046 -1.7394  0.1872 -3.1672
10977SOL    HW244151   2.453   7.738   4.062 -0.6788 -0.9834  0.8692
10978SOL     OW44152   7.365   0.612   6.280  0.2975 -0.4547  0.3756
10978SOL    HW144153   7.386   0.518   6.254  1.2467 -0.2676  0.4293
10978SOL    HW244154   7.269   0.620   6.306  0.5905 -1.7732  1.9482
10979SOL     OW44155   2.021   4.353   6.045 -0.3006 -0.0212  0.2755
10979SOL    HW144156   2.032   4.269   6.099  1.4448  0.4788  0.7519
10979SOL    HW244157   2.007   4.330   5.949  0.4778 -0.8602  0.3558
10980SOL     OW44158   3.996   1.956   2.615  0.0281 -0.1186 -0.0033
10980SOL    HW144159   4.013   2.032   2.677  1.2872 -1.0576  0.8035
10980SOL    HW244160   4.051   1.968   2.532 -0.2177  0.1506 -0.1283
10981SOL     OW44161   7.908   2.335   6.597  0.1230  0.4104 -0.2566
10981SOL    HW144162   7.826   2.330   6.540  0.2370 -0.5142 -0.3478
10981SOL    HW244163   7.920   2.428   6.630 -1.3441  0.4046  0.3085
10982SOL     OW44164   3.409   7.429   0.657  0.8912 -0.1225 -0.5013
10982SOL    HW144165   3.467   7.347   0.649  0.2260 -0.6874  0.3426
10982SOL    HW244166   3.465   7.506   0.689  1.1591 -0.7111  0.4795
10983SOL     OW44167   8.867   8.692   2.333  0.6600  0.3193  0.1497
10983SOL    HW144168   8.804   8.635   2.386  0.1386 -0.6984 -1.4894
10983SOL    HW244169   8.886   8.647   2.245  2.6563  1.2395  0.0768
10984SOL     OW44170   0.990   3.801   1.847  0.0008  0.4306  0.2956
10984SOL    HW144171   0.893   3.783   1.834  0.2253 -0.0983 -0.7697
10984SOL    HW244172   1.006   3.899   1.853 -0.2769  0.6931 -2.5512
10985SOL     OW44173   9.385   1.809   0.536 -0.1052  0.4005 -0.1077
10985SOL    HW144174   9.322   1.873   0.580 -1.5485 -1.1763  0.2037
10985SOL    HW244175   9.474   1.815   0.579 -0.6167  1.1774  0.8642
10986SOL     OW44176   4.021   9.549   2.593 -0.5495  0.1958  0.3704
10986SOL    HW144177   3.947   9.483   2.580  1.4226 -2.4847  2.2690
10986SOL    HW244178   4.017   9.584   2.687 -0.8276  1.8895 -0.2545
10987SOL     OW44179   9.789   3.665   0.995 -0.0060 -0.1177 -0.1934
10987SOL    HW144180   9.709   3.723   1.009  1.4410  1.4701  1.7027
10987SOL    HW244181   9.787   3.589   1.059  0.1570  0.1116  0.0869
10988SOL     OW44182   0.626   4.821   5.493  0.0437 -0.0140  0.4628
10988SOL    HW144183   0.723   4.834   5.474 -0.1044 -2.1233 -2.1155
10988SOL    HW244184   0.609   4.725   5.514 -1.6937  0.0095 -0.7165
10989SOL     OW44185   4.835   1.877   1.593 -0.1061  0.0823 -0.1161
10989SOL    HW144186   4.843   1.916   1.501 -0.9303  0.5255 -0.0073
10989SOL    HW244187   4.882   1.936   1.659 -1.5047  1.0055  0.0734
10990SOL     OW44188   1.234   9.665   3.217  0.0239 -0.4956  0.5404
10990SOL    HW144189   1.299   9.598   3.182  1.0184 -0.3269  2.0398
10990SOL    HW244190   1.141   9.629   3.209  0.4218 -1.4014 -0.0988
10991SOL     OW44191   3.177   0.528   0.173 -0.1985  0.4916 -0.4171
10991SOL    HW144192   3.082   0.518   0.203  0.8680 -0.4895  2.9052
10991SOL    HW244193   3.192   0.622   0.140 -1.7259  1.3914  1.3443
10992SOL     OW44194   5.081   8.585   6.245 -0.2211 -0.2364 -0.5536
10992SOL    HW144195   5.052   8.496   6.210  2.9450 -0.9283 -1.6426
10992SOL    HW244196   5.176   8.601   6.218 -0.6257  3.3199 -0.0494
10993SOL     OW44197   4.477   4.184   2.644 -0.0221 -0.4383 -0.8035
10993SOL    HW144198   4.481   4.282   2.628 -1.1972 -0.4295 -1.0424
10993SOL    HW244199   4.403   4.144   2.590  0.5495 -1.4784 -0.8317
10994SOL     OW44200   9.329   4.129   3.743 -0.0768 -0.0991 -0.4346
10994SOL    HW144201   9.346   4.141   3.645 -0.2672 -0.9403 -0.5732
10994SOL    HW244202   9.233   4.146   3.763 -0.3887 -1.5413 -0.6620
10995SOL     OW44203   4.297   7.099   2.083  0.3980 -0.4333 -0.0702
10995SOL    HW144204   4.205   7.077   2.049  0.0086  0.7690  0.1830
10995SOL    HW244205   4.305   7.198   2.094  1.9763 -0.4773 -0.7870
10996SOL     OW44206   3.554   8.197   5.883 -0.0217 -0.5221 -0.0807
10996SOL    HW144207   3.530   8.224   5.977  0.0267  0.9251 -0.4698
10996SOL    HW244208   3.501   8.252   5.819  2.0122  0.4787 -0.9324
10997SOL     OW44209   6.806   4.507   0.184  0.2357 -0.1093 -0.2087
10997SOL    HW144210   6.881   4.470   0.129  0.1223 -1.8120  0.7387
10997SOL    HW244211   6.843   4.566   0.255  0.5863 -0.0847 -0.4104
10998SOL     OW44212   7.378   1.552   3.694 -0.4629 -0.0160 -0.1948
10998SOL    HW144213   7.444   1.507   3.753 -1.3404 -0.4713  0.4545
10998SOL    HW244214   7.400   1.649   3.687  0.6069 -0.2740 -0.4594
10999SOL     OW44215   2.842   9.114   5.131  0.0022 -0.8766  0.3137
10999SOL    HW144216   2.920   9.053   5.140  0.1125 -0.8208 -0.2174
10999SOL    HW244217   2.757   9.061   5.129  0.1404 -1.0657 -0.7995
11000SOL     OW44218   4.690   2.080   1.070  0.4361 -0.1351  0.3567
11000SOL    HW144219   4.600   2.088   1.028  0.4400  1.0091  0.5543
11000SOL    HW244220   4.759   2.121   1.011  0.8507 -1.0609  0.1783
11001SOL     OW44221   0.705   6.846   4.063 -0.4338 -0.0163  0.6700
11001SOL    HW144222   0.735   6.798   4.145  0.3780  0.8719  0.9139
11001SOL    HW244223   0.775   6.913   4.037 -1.9833  1.7935  0.9907
11002SOL     OW44224   9.250   0.974   0.495  0.0197  0.0437  0.1556
11002SOL    HW144225   9.283   0.937   0.581  0.9664  1.0334  0.2293
11002SOL    HW244226   9.265   0.907   0.422 -0.8101 -0.8035  0.7554
11003SOL     OW44227   8.261   8.844   6.150  0.3807 -0.3896 -0.0821
11003SOL    HW144228   8.290   8.929   6.195 -1.6713  0.4916 -0.3302
11003SOL    HW244229   8.255   8.859   6.051  0.8748 -1.0900 -0.2204
11004SOL     OW44230   3.622   1.905   5.103 -0.1085 -0.1805  0.7376
11004SOL    HW144231   3.613   1.995   5.061 -0.2952 -1.5916 -2.3901
11004SOL    HW244232   3.719   1.883   5.114 -0.0632  0.4101  1.5724
11005SOL     OW44233   0.875   8.749   4.125  0.3337  0.0203  0.4012
11005SOL    HW144234   0.851   8.670   4.069  0.2724 -1.6262  2.6573
11005SOL    HW244235   0.888   8.829   4.067 -4.8870 -0.3157 -1.5411
11006SOL     OW44236   7.000   0.462   1.134 -0.9450  0.0016  0.0917
11006SOL    HW144237   7.091   0.438   1.102 -1.2986 -0.4904 -0.5754
11006SOL    HW244238   6.987   0.561   1.127 -0.2348  0.1496  0.8146
11007SOL     OW44239   8.978   1.431   6.320  0.2239  0.3463 -0.4561
11007SOL    HW144240   8.979   1.380   6.406  2.8915 -2.3653 -1.9800
11007SOL    HW244241   8.893   1.413   6.271  0.5388 -1.6184 -0.3214
11008SOL     OW44242   8.089   9.226   4.507 -0.0880 -0.3329 -0.4406
11008SOL    HW144243   8.085   9.260   4.413  1.7870  1.4009  0.0611
11008SOL    HW244244   8.018   9.270   4.562 -0.1189 -0.0819 -0.6794
11009SOL     OW44245   1.742   9.692   6.409 -0.2448 -0.3228  0.2462
11009SOL    HW144246   1.735   9.613   6.349  2.0194 -0.6959  0.4230
11009SOL    HW244247   1.800   9.669   6.488 -0.1199  1.2966  0.6398
11010SOL     OW44248   8.590   0.334   4.156  0.2843 -0.6465  0.1803
11010SOL    HW144249   8.555   0.327   4.062  0.6967  2.4607 -0.2587
11010SOL    HW244250   8.630   0.247   4.183 -0.0004 -1.6477 -2.4654
11011SOL     OW44251   7.176   2.633   0.037 -0.6319  0.4119 -0.0124
11011SOL    HW144252   7.144   2.568  -0.032 -1.4432  0.6655  0.1183
11011SOL    HW244253   7.253   2.685   0.000 -1.1584  0.6559 -0.7888
11012SOL     OW44254   9.450   3.575   2.433 -0.9319  0.1394 -0.7773
11012SOL    HW144255   9.483   3.630   2.509  0.8630 -0.2770 -1.2370
11012SOL    HW244256   9.350   3.568   2.437 -0.8172 -0.2367  1.7449
11013SOL     OW44257   9.555   4.321   2.637 -0.1387  0.6177  0.4626
11013SOL    HW144258   9.512   4.350   2.552  0.6145  3.8648  1.1256
11013SOL    HW244259   9.568   4.221   2.635  1.0771  0.7543 -3.7559
11014SOL     OW44260   1.655   5.809   4.145  0.5879  0.5951  0.4701
11014SOL    HW144261   1.626   5.743   4.075  1.6942  0.1662  0.4007
11014SOL    HW244262   1.717   5.876   4.105  1.8960 -0.1497  1.2045
11015SOL     OW44263   0.523   7.715   1.786  0.3009 -0.2484 -0.6980
11015SOL    HW144264   0.523   7.808   1.822 -0.0008 -0.1256 -1.0176
11015SOL    HW244265   0.612   7.672   1.804  0.9492  0.6053 -1.8512
11016SOL     OW44266   3.541   3.143   1.487  0.3927 -0.2305  0.3110
11016SOL    HW144267   3.572   3.209   1.556  0.2830 -1.0757  1.1792
11016SOL    HW244268   3.460   3.096   1.521 -1.7953  1.8526 -1.8736
11017SOL     OW44269   8.966   7.099   0.518 -0.7268 -0.4859 -0.1921
11017SOL    HW144270   9.055   7.092   0.474 -0.6529 -0.1748 -0.0980
11017SOL    HW244271   8.978   7.122   0.615 -0.8919 -0.9787 -0.0517
11018SOL     OW44272   9.905   7.400   0.270 -0.1960  0.7140 -0.3095
11018SOL    HW144273   9.893   7.387   0.369  0.3166  1.6712 -0.1176
11018SOL    HW244274   9.927   7.495   0.251 -0.8559  0.6631 -1.4119
11019SOL     OW44275   4.054   8.784   3.348 -0.0541  0.0724  0.2435
11019SOL    HW144276   4.094   8.859   3.295  0.0641  0.5480  1.0049
11019SOL    HW244277   3.982   8.740   3.294 -0.2568  0.8537 -0.1328
11020SOL     OW44278   7.498   9.947   6.832  0.3515  0.1143  0.2350
11020SOL    HW144279   7.598   9.952   6.831  0.2911  1.7155  0.5199
11020SOL    HW244280   7.461   9.997   6.754 -0.3086  3.1092  2.3532
11021SOL     OW44281   9.850   8.827   1.989 -0.0046  0.1528  0.5756
11021SOL    HW144282   9.883   8.742   2.031 -0.5612  0.5063  1.7517
11021SOL    HW244283   9.907   8.903   2.021  0.4832  0.2372 -0.4634
11022SOL     OW44284   4.822   9.602   3.001 -0.1580 -0.3285 -0.0849
11022SOL    HW144285   4.819   9.563   3.093 -1.4814 -0.6400 -0.2464
11022SOL    HW244286   4.751   9.559   2.944 -0.7998  1.3929 -0.6262
11023SOL     OW44287   3.297   2.554   3.592 -0.4965 -0.2180 -0.3536
11023SOL    HW144288   3.272   2.641   3.635 -0.6255  0.2400 -1.3553
11023SOL    HW244289   3.388   2.527   3.622 -0.9094 -0.3273  0.8669
11024SOL     OW44290   0.939   6.271   2.886 -0.4052 -0.1284 -0.0910
11024SOL    HW144291   0.994   6.193   2.917 -3.4555 -2.2980  0.1027
11024SOL    HW244292   0.957   6.288   2.789  2.2283  0.6785  0.4913
11025SOL     OW44293   2.327   5.011   2.822  0.4066  0.2707  0.4229
11025SOL    HW144294   2.328   4.911   2.821  0.5015  0.2419  2.1035
11025SOL    HW244295   2.232   5.044   2.825  0.3789  0.2393 -0.0162
11026SOL     OW44296   3.113   2.088   2.303  0.0342 -0.5487  0.2740
11026SOL    HW144297   3.140   2.151   2.377 -0.8906  1.0530 -0.7175
11026SOL    HW244298   3.082   2.002   2.343  1.0049 -0.2735  1.6869
11027SOL     OW44299   8.592   6.385   2.863  0.0004 -0.6710 -0.1567
11027SOL    HW144300   8.676   6.438   2.858  1.0109 -2.2354 -0.0665
11027SOL    HW244301   8.584   6.343   2.953  0.7340 -3.0861 -1.1720
11028SOL     OW44302   3.016   0.549   0.974  0.5245  0.4102  0.0241
11028SOL    HW144303   2.940   0.613   0.988 -2.5508 -3.2475  0.8998
11028SOL    HW244304   3.069   0.541   1.058  0.6491  1.4723  0.0465
11029SOL     OW44305   3.703   9.021   5.272  0.0542  0.2945 -0.2731
11029SOL    HW144306   3.778   9.019   5.339  0.6780  1.2594 -0.9175
11029SOL    HW244307   3.702   8.936   5.221  0.3012  0.0078  0.1915
11030SOL     OW44308   2.484   8.736   4.445  0.4830 -0.5283  0.3514
11030SOL    HW144309   2.469   8.746   4.347  1.9795 -0.8203  0.0804
11030SOL    HW244310   2.558   8.669   4.461  1.2392  0.5794  1.6184
11031SOL     OW44311   1.903   8.511   6.294  0.1087 -0.2751  0.0424
11031SOL    HW144312   1.969   8.495   6.366  0.8271  0.7985 -0.3626
11031SOL    HW244313   1.948   8.504   6.205 -0.3692  0.2611 -0.2454
11032SOL     OW44314   0.827   3.284   5.882  0.2114 -0.3546  0.2681
11032SOL    HW144315   0.866   3.369   5.919  2.4242 -1.0217 -0.4889
11032SOL    HW244316   0.881   3.206   5.913  0.8568 -1.0989 -2.6138
11033SOL     OW44317   2.659   4.990   4.054 -0.5459  0.0913  0.3021
11033SOL    HW144318   2.738   5.003   3.994  2.4316 -0.0612  4.0245
11033SOL    HW244319   2.633   5.077   4.095 -1.6272 -0.0505 -0.0777
11034SOL     OW44320   6.973   4.322   1.751 -0.2234  0.8203 -0.0205
11034SOL    HW144321   6.887   4.338   1.704 -1.6062 -3.1038  0.9627
11034SOL    HW244322   7.031   4.263   1.695  0.3491  0.5609  0.8322
11035SOL     OW44323   4.375   9.573   3.327  0.0555  0.3152 -0.1633
11035SOL    HW144324   4.282   9.538   3.322  0.5184 -1.2672  1.7504
11035SOL    HW244325   4.413   9.581   3.235 -1.4147 -0.5583 -0.8556
11036SOL     OW44326   7.051   2.700   3.553 -0.0547  0.1997  0.2417
11036SOL    HW144327   6.976   2.723   3.615  0.5409 -0.2855  1.1521
11036SOL    HW244328   7.116   2.640   3.600  1.9901  2.3064  0.1688
11037SOL     OW44329   0.323   9.384   0.465 -0.4971  0.1622  0.2201
11037SOL    HW144330   0.413   9.426   0.469 -0.6062  0.3552  0.7298
11037SOL    HW244331   0.311   9.322   0.543 -0.3438 -0.8019 -0.5162
11038SOL     OW44332   2.566   2.638   3.075 -0.1483  0.0304  0.4261
11038SOL    HW144333   2.495   2.709   3.076  1.7220  2.0052 -1.5651
11038SOL    HW244334   2.638   2.664   3.139 -0.2685 -0.9662  0.9679
11039SOL     OW44335   4.738   4.000   4.671 -0.1064  0.1208 -0.0029
11039SOL    HW144336   4.769   4.095   4.680 -1.7738  0.7544 -0.7187
11039SOL    HW244337   4.708   3.966   4.760  2.2346 -0.3860  0.6304
11040SOL     OW44338   8.066   0.288   4.850  0.2939  0.2421  0.3532
11040SOL    HW144339   7.976   0.332   4.855 -0.1734 -0.3166 -2.2551
11040SOL    HW244340   8.060   0.196   4.888 -0.6676 -0.3775 -1.2395
11041SOL     OW44341   3.139   3.786   4.068  0.0227  0.0536  0.0021
11041SOL    HW144342   3.237   3.805   4.076  0.4558 -1.9074 -0.3111
11041SOL    HW244343   3.087   3.866   4.097  1.7144  1.4375 -0.6764
11042SOL     OW44344   0.382   7.301   1.167  0.1501  0.8417 -0.2031
11042SOL    HW144345   0.426   7.255   1.245 -1.0710 -0.9431 -0.5147
11042SOL    HW244346   0.422   7.267   1.082  2.4827  3.8495 -0.3626
11043SOL     OW44347   6.429   5.337   7.397 -0.4434 -0.1061  0.0496
11043SOL    HW144348   6.333   5.338   7.371  0.0479  0.5408 -1.8038
11043SOL    HW244349   6.456   5.244   7.422 -1.2004 -0.5538 -0.7875
11044SOL     OW44350   1.979   2.373   3.061 -0.1957  0.4021  0.2745
11044SOL    HW144351   1.953   2.305   2.993 -1.6380  0.1432  1.0424
11044SOL    HW244352   2.077   2.392   3.055  0.0950 -1.2258 -0.4098
11045SOL     OW44353   4.529   4.383   2.290 -0.5787  0.3807  0.0425
11045SOL    HW144354   4.479   4.307   2.250  0.8080 -1.3391  1.4898
11045SOL    HW244355   4.616   4.394   2.242 -0.6453  0.8546  0.0314
11046SOL     OW44356   2.751   1.516   5.666  0.0273  0.2206 -0.1762
11046SOL    HW144357   2.818   1.446   5.643  0.2166  0.0308  0.9270
11046SOL    HW244358   2.661   1.475   5.673 -0.0443  0.2941 -0.6570
11047SOL     OW44359   2.217   6.448   2.715 -0.3681  0.4889 -0.0595
11047SOL    HW144360   2.287   6.378   2.700 -0.3373  0.4516  0.2505
11047SOL    HW244361   2.249   6.535   2.677 -0.6324  0.2182 -0.9183
11048SOL     OW44362   0.147   0.535   5.757 -0.4525 -0.3554 -0.0051
11048SOL    HW144363   0.108   0.599   5.691  2.9206 -2.0821 -3.8642
11048SOL    HW244364   0.094   0.451   5.757  0.4194 -0.9194 -1.6976
11049SOL     OW44365   3.937   5.582   4.244 -0.0292  0.2596 -0.2082
11049SOL    HW144366   3.986   5.638   4.177 -0.1278  0.1227 -0.3925
11049SOL    HW244367   3.851   5.626   4.268  0.3311  0.6580  0.3533
11050SOL     OW44368   4.672   8.689   6.886 -0.3787 -0.1575 -0.4784
11050SOL    HW144369   4.711   8.731   6.804 -0.3825 -1.0616 -0.9612
11050SOL    HW244370   4.584   8.648   6.862 -1.2820  1.2397  0.4322
11051SOL     OW44371   6.965   6.240   6.483  0.0736  0.1792 -0.2761
11051SOL    HW144372   6.891   6.303   6.508 -0.8067 -1.4974  1.5238
11051SOL    HW244373   7.048   6.292   6.465 -0.6639  1.8643  1.0284
11052SOL     OW44374   7.139   1.237   3.721 -0.0542  0.6503  0.1278
11052SOL    HW144375   7.130   1.285   3.808  0.7509  2.3709 -0.7140
11052SOL    HW244376   7.236   1.225   3.699 -0.1537 -4.2558  1.8452
11053SOL     OW44377   0.771   5.011   1.523  0.7745 -0.1182  0.4313
11053SOL    HW144378   0.817   4.947   1.461  1.2443  0.4316  0.2062
11053SOL    HW244379   0.699   4.963   1.573 -1.8113  0.1013 -2.8772
11054SOL     OW44380   0.058   7.921   5.824  0.0763 -0.1800 -0.2711
11054SOL    HW144381   0.055   7.830   5.783  1.7521 -0.7892  0.8936
11054SOL    HW244382  -0.026   7.937   5.875 -0.7262 -0.6060 -1.4496
11055SOL     OW44383   7.640   5.991   0.792  0.0770  0.4952 -1.0820
11055SOL    HW144384   7.635   5.973   0.891  1.3084 -0.8131 -1.2509
11055SOL    HW244385   7.553   5.967   0.750  0.4891 -1.7294 -0.7412
11056SOL     OW44386   9.749   6.488   5.763  0.7460  0.4701  0.4083
11056SOL    HW144387   9.724   6.572   5.812 -0.2669  0.4560 -0.0675
11056SOL    HW244388   9.718   6.494   5.668  1.8915  0.1169  0.0054
11057SOL     OW44389   7.476   1.461   1.996 -0.3045  0.4026 -0.7529
11057SOL    HW144390   7.568   1.497   1.978  0.6551 -1.4526  0.2600
11057SOL    HW244391   7.439   1.422   1.912 -0.4152  1.6848 -1.3075
11058SOL     OW44392   3.182   6.342   0.381  0.2950 -0.5181 -0.3041
11058SOL    HW144393   3.124   6.420   0.357 -0.2923 -0.9091 -0.1582
11058SOL    HW244394   3.278   6.365   0.362 -0.0268 -0.3353 -1.7337
11059SOL     OW44395   8.913   2.956   1.051  0.1233  0.2837 -0.2369
11059SOL    HW144396   8.822   2.945   1.011  0.4694  1.3915 -1.3780
11059SOL    HW244397   8.943   3.051   1.040  2.7419 -0.7501 -2.7557
11060SOL     OW44398   7.989   7.302   2.148 -0.3977  0.0393  0.5018
11060SOL    HW144399   8.039   7.380   2.111 -0.3558 -0.1211  0.2146
11060SOL    HW244400   8.027   7.217   2.109 -0.1000 -0.1545  1.2059
11061SOL     OW44401   1.967   5.095   1.217  0.0539 -0.1595 -0.1441
11061SOL    HW144402   1.901   5.169   1.226  1.6669  1.3330 -0.3677
11061SOL    HW244403   2.010   5.078   1.306  0.2303 -0.2989 -0.2552
11062SOL     OW44404   1.265   9.021   1.545  0.7043  0.2474  0.0088
11062SOL    HW144405   1.176   8.976   1.545  0.7194  0.1413  2.6598
11062SOL    HW244406   1.323   8.982   1.473 -0.9424 -0.5612 -0.8837
11063SOL     OW44407   3.342   4.410   2.098  0.0925 -0.2536  0.5013
11063SOL    HW144408   3.426   4.357   2.091 -0.5617 -1.4697  1.5982
11063SOL    HW244409   3.358   4.503   2.065  1.9848 -0.3367  1.1372
11064SOL     OW44410   4.160   7.649   2.777  0.3885  0.2430 -0.3994
11064SOL    HW144411   4.135   7.739   2.812 -0.4545 -0.1494  0.0157
11064SOL    HW244412   4.084   7.585   2.790  1.7468 -1.0840  1.3125
11065SOL     OW44413   1.246   7.087   0.926  0.5455  0.0087 -0.2943
11065SOL    HW144414   1.275   7.182   0.913 -0.6846  0.6636  1.4551
11065SOL    HW244415   1.173   7.065   0.862 -0.1678  0.7351  0.2485
11066SOL     OW44416   3.437   0.090   4.395 -0.0207  0.1762 -0.3319
11066SOL    HW144417   3.431   0.113   4.492 -1.1674 -1.1698 -0.0668
11066SOL    HW244418   3.487   0.004   4.384  1.1707  0.9429 -1.0370
11067SOL     OW44419   2.299   9.699   5.263 -0.2866  0.1479  0.0841
11067SOL    HW144420   2.257   9.704   5.172  1.2334 -0.4193 -0.6746
11067SOL    HW244421   2.377   9.762   5.267  0.6599 -1.0270  0.4361
11068SOL     OW44422   1.701   9.110   4.267 -0.1418 -0.5108  0.4575
11068SOL    HW144423   1.739   9.026   4.230  0.7339  0.6856 -1.4320
11068SOL    HW244424   1.742   9.128   4.357 -0.5093 -2.1975  0.9830
11069SOL     OW44425   6.494   9.186   6.555  0.5029  0.1311 -0.3929
11069SOL    HW144426   6.418   9.212   6.614 -0.6758 -1.2878 -1.2596
11069SOL    HW244427   6.529   9.268   6.509 -1.3451  0.6231 -0.9661
11070SOL     OW44428   6.894   7.512   3.336 -0.1063 -0.0221  0.2911
11070SOL    HW144429   6.954   7.521   3.415 -2.0392 -0.5788  1.8595
11070SOL    HW244430   6.926   7.436   3.278  1.8531  0.9996  0.0290
11071SOL     OW44431   8.882   6.398   2.065  0.3166  0.3944 -0.4239
11071SOL    HW144432   8.858   6.336   1.990 -0.1832  1.2480 -0.9741
11071SOL    HW244433   8.879   6.493   2.033  3.2218  0.6100 -0.1732
11072SOL     OW44434   4.009   3.879   5.980  0.2837  0.3438 -0.7906
11072SOL    HW144435   3.994   3.784   6.006  1.1214  0.7501  1.2790
11072SOL    HW244436   3.954   3.900   5.899 -0.0246 -1.8392 -1.1947
11073SOL     OW44437   9.213   2.657   0.474  0.2467 -0.1877 -0.3813
11073SOL    HW144438   9.120   2.685   0.500 -0.0624 -0.7178 -0.9165
11073SOL    HW244439   9.279   2.714   0.523 -0.3378 -0.8287  1.1865
11074SOL     OW44440   9.813   3.890   2.151  0.1871 -0.0411  0.0415
11074SOL    HW144441   9.755   3.808   2.144  0.2188 -0.1115  0.5703
11074SOL    HW244442   9.759   3.965   2.188  0.5233 -0.2005  0.8623
11075SOL     OW44443   4.225   0.334   4.968  0.6177  0.3149  0.7197
11075SOL    HW144444   4.240   0.312   5.065  0.0060 -1.8699  0.3305
11075SOL    HW244445   4.313   0.333   4.920  0.7805  0.2505  1.0125
11076SOL     OW44446   4.938   1.908   3.726 -0.1274 -0.6848 -0.1381
11076SOL    HW144447   5.011   1.976   3.723 -0.1286 -0.6400  0.5844
11076SOL    HW244448   4.881   1.925   3.807 -0.9203 -0.7364 -0.6802
11077SOL     OW44449   7.701   5.917   3.076 -0.2515 -0.1599 -0.7963
11077SOL    HW144450   7.683   5.835   3.022 -1.2522  0.0305 -0.7672
11077SOL    HW244451   7.756   5.981   3.021  1.6253 -1.3513 -0.3650
11078SOL     OW44452   8.266   0.587   3.785  0.0087 -0.2563 -0.4079
11078SOL    HW144453   8.349   0.553   3.828 -0.1974 -1.5856 -1.0436
11078SOL    HW244454   8.289   0.632   3.699  0.1796  0.3789 -0.0344
11079SOL     OW44455   6.626   1.624   6.123 -0.0634 -0.2953  0.7815
11079SOL    HW144456   6.626   1.696   6.192  2.0536  0.1114  0.4166
11079SOL    HW244457   6.720   1.592   6.110 -0.5784 -1.0259 -1.2244
11080SOL     OW44458   9.539   6.858   3.521 -0.2765  0.6288 -0.0651
11080SOL    HW144459   9.549   6.911   3.437 -1.4522  1.0692  0.0511
11080SOL    HW244460   9.475   6.782   3.506  0.8210 -0.3050 -0.0255
11081SOL     OW44461   0.164   1.558   2.830  0.2870 -0.0373  0.6227
11081SOL    HW144462   0.171   1.513   2.741  0.6950  0.8922  0.1773
11081SOL    HW244463   0.186   1.655   2.820  0.1544  0.1097  1.7047
11082SOL     OW44464   4.401   0.618   1.819 -0.2193 -0.1481 -0.1530
11082SOL    HW144465   4.301   0.625   1.827 -0.2597 -0.7503 -0.1399
11082SOL    HW244466   4.424   0.562   1.740  0.1287  1.8654 -1.5285
11083SOL     OW44467   9.118   5.642   2.957  0.9714 -0.3441 -0.0385
11083SOL    HW144468   9.160   5.620   2.870  0.0179 -1.4775 -0.2383
11083SOL    HW244469   9.019   5.626   2.951  0.6713  1.1907  0.7424
11084SOL     OW44470   8.044   5.481   5.387  0.0357  0.0519 -0.4841
11084SOL    HW144471   8.038   5.542   5.308 -1.5921 -0.1660 -0.5498
11084SOL    HW244472   7.963   5.493   5.444 -1.0948 -3.1105 -1.2939
11085SOL     OW44473   8.186   3.234   2.146  0.1202  0.0218 -0.2756
11085SOL    HW144474   8.280   3.254   2.174  0.5039 -0.6230 -1.0868
11085SOL    HW244475   8.123   3.280   2.208  0.9720  1.5755 -0.5335
11086SOL     OW44476   4.483   3.852   0.260  0.1505 -0.2464 -0.1510
11086SOL    HW144477   4.428   3.888   0.186 -0.1111  0.9049  0.5959
11086SOL    HW244478   4.437   3.868   0.347  1.0489 -0.4493  0.3732
11087SOL     OW44479   3.276   6.142   1.655 -0.1716 -0.3372 -0.0116
11087SOL    HW144480   3.251   6.046   1.643 -1.0477 -0.1760  0.4849
11087SOL    HW244481   3.375   6.153   1.640 -0.4069 -0.9547 -2.1309
11088SOL     OW44482   8.712   7.011   1.935 -0.3574 -0.0676 -0.6145
11088SOL    HW144483   8.672   7.032   1.846 -0.4527 -0.0517 -0.5692
11088SOL    HW244484   8.639   7.002   2.003 -0.2727  0.1516 -0.4921
11089SOL     OW44485   0.408   6.064   3.041  0.1303 -0.0518  0.2539
11089SOL    HW144486   0.507   6.071   3.029 -0.1123  0.4940 -1.6677
11089SOL    HW244487   0.373   6.150   3.078  0.1886  0.3573 -0.6175
11090SOL     OW44488   2.400   7.693   1.270  0.0590 -0.1530 -0.3548
11090SOL    HW144489   2.363   7.753   1.341 -0.2469 -0.7518 -0.0147
11090SOL    HW244490   2.428   7.606   1.310  2.1456  0.3965 -0.5308
11091SOL     OW44491   9.325   8.004   6.371 -0.8177  0.1416  0.2166
11091SOL    HW144492   9.369   8.094   6.367 -0.7691  0.0829 -0.6894
11091SOL    HW244493   9.246   8.003   6.309 -1.0057 -0.3316  0.4666
11092SOL     OW44494   8.404   5.835   0.065  0.0922  0.4256  0.6111
11092SOL    HW144495   8.479   5.883   0.020 -0.4999 -0.3418 -1.2177
11092SOL    HW244496   8.441   5.769   0.130  0.9484  1.5371  1.2699
11093SOL     OW44497   8.634   5.545   5.752  0.2090  0.5668 -0.1869
11093SOL    HW144498   8.729   5.558   5.724 -0.0603  0.6754 -1.0457
11093SOL    HW244499   8.599   5.461   5.711 -0.5917  1.4072 -1.2362
11094SOL     OW44500   3.032   7.959   7.789  0.8143  0.0570 -0.5660
11094SOL    HW144501   3.013   7.988   7.882 -1.3098 -1.2708 -0.5600
11094SOL    HW244502   3.026   8.037   7.727  1.9748  0.8878  0.3513
11095SOL     OW44503   1.753   1.512   2.869 -0.2882  0.4135 -0.1077
11095SOL    HW144504   1.789   1.428   2.829 -0.3874  0.3186  0.0032
11095SOL    HW244505   1.827   1.562   2.915 -0.3634  0.0625  0.3929
11096SOL     OW44506   6.643   1.864   1.555 -1.0022 -0.4114 -0.3919
11096SOL    HW144507   6.710   1.866   1.628 -0.4648 -1.5409 -0.8472
11096SOL    HW244508   6.552   1.880   1.593 -0.8749 -2.1910  0.7050
11097SOL     OW44509   4.429   1.695   3.142  0.0704 -0.2036  0.4867
11097SOL    HW144510   4.453   1.598   3.143  0.5360 -0.0815  1.7748
11097SOL    HW244511   4.429   1.729   3.047 -1.6174 -1.8223 -0.1193
11098SOL     OW44512   0.568   8.667   3.445 -0.4676 -0.3180  0.1309
11098SOL    HW144513   0.647   8.704   3.397 -2.5324  1.6811 -1.8936
11098SOL    HW244514   0.594   8.642   3.539  2.3577  0.9679 -0.2646
11099SOL     OW44515   0.632   8.122   2.275  0.1604 -0.1688 -0.2728
11099SOL    HW144516   0.661   8.132   2.180  1.2823 -2.4325 -0.1982
11099SOL    HW244517   0.561   8.051   2.280 -2.4792  2.4260  0.1154
11100SOL     OW44518   2.396   2.951   3.932  0.7280  0.2337  0.4095
11100SOL    HW144519   2.455   3.011   3.987  0.6218  1.5473 -0.8612
11100SOL    HW244520   2.453   2.882   3.887  0.7349 -1.2289  2.6281
11101SOL     OW44521   0.414   4.255   0.777  0.4382  0.0585 -0.8623
11101SOL    HW144522   0.322   4.274   0.743  1.4690  2.6796 -2.4223
11101SOL    HW244523   0.428   4.156   0.783 -2.3730 -0.3800 -0.8158
11102SOL     OW44524   1.960   9.087   5.218 -0.5894  0.1352  0.0670
11102SOL    HW144525   1.955   9.109   5.121  1.4993  0.7896  0.0962
11102SOL    HW244526   1.944   8.989   5.231  0.6076 -0.2207 -1.0756
11103SOL     OW44527   0.294   8.370   0.197  0.6653 -0.3790  0.0515
11103SOL    HW144528   0.338   8.454   0.230  0.8531 -0.5351  0.2034
11103SOL    HW244529   0.201   8.364   0.234  0.1358  0.4794 -1.1216
11104SOL     OW44530   9.146   3.901   5.087  0.1643  0.0556 -0.3704
11104SOL    HW144531   9.241   3.871   5.086  0.3275  0.5474  0.1376
11104SOL    HW244532   9.124   3.940   5.176  0.0640  1.7637 -1.1315
11105SOL     OW44533   1.127   8.897   0.345  0.5388 -0.3597  0.3880
11105SOL    HW144534   1.204   8.896   0.280  0.0087  0.6011 -0.2646
11105SOL    HW244535   1.132   8.816   0.403  1.5026 -0.8042 -0.2914
11106SOL     OW44536   3.537   6.528   0.768 -0.5916 -0.1081 -0.2252
11106SOL    HW144537   3.473   6.524   0.845 -0.2908 -2.3207 -0.0785
11106SOL    HW244538   3.548   6.624   0.740 -1.9509  0.5649  1.4189
11107SOL     OW44539   3.519   0.510   0.774 -0.0809 -0.1500  0.0693
11107SOL    HW144540   3.420   0.508   0.760 -0.4531 -2.2681  2.7633
11107SOL    HW244541   3.563   0.440   0.717 -0.2653 -0.2411  0.0412
11108SOL     OW44542   0.504   0.769   6.145 -0.3020  0.2633  0.4624
11108SOL    HW144543   0.418   0.811   6.173 -0.1817  0.8428 -0.0255
11108SOL    HW244544   0.540   0.817   6.065  1.0047  0.6847  1.2884
11109SOL     OW44545   8.608   9.789   3.827  0.2691 -0.0365  0.4908
11109SOL    HW144546   8.695   9.745   3.847  0.4941  0.7675  1.3012
11109SOL    HW244547   8.606   9.819   3.731  1.3950  1.0829  0.8047
11110SOL     OW44548   2.771   3.272   2.510 -0.0109  0.0591 -0.1638
11110SOL    HW144549   2.796   3.178   2.489 -0.9380 -0.5030  1.1446
11110SOL    HW244550   2.676   3.289   2.480 -0.1266  0.3264  0.3461
11111SOL     OW44551   3.700   8.418   4.775 -0.3746 -0.1582 -0.1506
11111SOL    HW144552   3.791   8.383   4.798 -1.0570 -0.3255  2.4333
11111SOL    HW244553   3.674   8.489   4.840 -2.4904 -0.7890 -0.2554
11112SOL     OW44554   8.061   8.181   3.891 -0.2873 -0.6818 -0.1176
11112SOL    HW144555   8.150   8.146   3.920  0.0215 -0.5209 -0.8401
11112SOL    HW244556   8.052   8.169   3.792 -1.0733 -0.6957 -0.0468
11113SOL     OW44557   8.199   0.313   3.790  0.0905  0.0905 -0.4210
11113SOL    HW144558   8.219   0.411   3.791  0.1132  0.0805  0.0557
11113SOL    HW244559   8.155   0.287   3.876  0.6613 -0.4325 -0.2782
11114SOL     OW44560   4.127   9.519   1.136 -0.0138 -0.2330  0.2041
11114SOL    HW144561   4.094   9.517   1.231 -1.2953 -0.6307 -0.2433
11114SOL    HW244562   4.194   9.446   1.123 -0.7338 -0.9515  0.4829
11115SOL     OW44563   3.497   4.179   1.688  0.2522 -0.2354 -0.1758
11115SOL    HW144564   3.433   4.133   1.749 -0.4547  1.3328  0.2921
11115SOL    HW244565   3.517   4.270   1.723  1.7023 -0.2004 -1.0385
11116SOL     OW44566   6.088   7.846   4.726 -0.4439 -0.0204  0.2038
11116SOL    HW144567   6.101   7.771   4.660 -2.3834 -0.6579  0.5253
11116SOL    HW244568   6.053   7.808   4.812  2.5955  0.7255  1.8348
11117SOL     OW44569   3.113   7.977   6.079 -0.5862 -0.3690  0.8325
11117SOL    HW144570   3.173   7.925   6.139 -0.2679  0.5684  1.3494
11117SOL    HW244571   3.096   8.067   6.119 -0.2378  0.3316 -0.5456
11118SOL     OW44572   3.120   1.314   3.509 -0.4662  0.0404 -0.3338
11118SOL    HW144573   3.061   1.370   3.451 -0.4090  0.8265  0.3592
11118SOL    HW244574   3.184   1.373   3.559  0.2402 -0.7192 -0.3221
11119SOL     OW44575   7.341   3.976   0.262  0.3042  0.0546  0.5383
11119SOL    HW144576   7.406   3.912   0.222 -0.4184  0.6695 -1.7157
11119SOL    HW244577   7.286   3.929   0.332  0.2325 -1.5988 -0.6002
11120SOL     OW44578   7.954   5.323   5.827  0.2382 -0.7270  0.0669
11120SOL    HW144579   8.015   5.367   5.893  1.2632  0.0336 -1.3667
11120SOL    HW244580   8.007   5.265   5.765 -0.3238  0.6813 -1.7874
11121SOL     OW44581   3.305   8.102   2.565  0.3473  0.2743 -0.3202
11121SOL    HW144582   3.219   8.125   2.611  0.2559 -0.9334  0.1176
11121SOL    HW244583   3.362   8.048   2.627  1.6676  1.5497 -0.3969
11122SOL     OW44584   2.275   4.478   2.664 -0.5562  0.1902  0.4519
11122SOL    HW144585   2.288   4.398   2.722 -1.7599 -0.7479 -0.5425
11122SOL    HW244586   2.312   4.460   2.573 -2.2223  0.1756 -0.2348
11123SOL     OW44587   9.368   8.449   0.796 -0.1912  0.1699 -0.5895
11123SOL    HW144588   9.411   8.359   0.788  1.7958  1.1668 -1.4216
11123SOL    HW244589   9.376   8.498   0.710 -0.5334  1.4839  0.1129
11124SOL     OW44590   1.924   3.330   3.882  0.3371 -0.1065 -1.1262
11124SOL    HW144591   1.985   3.404   3.853  2.4830 -0.7436  1.5188
11124SOL    HW244592   1.978   3.250   3.906 -1.1775  0.1545  3.9080
11125SOL     OW44593   2.878   8.620   3.508 -0.7380  0.0803  0.1974
11125SOL    HW144594   2.920   8.553   3.568 -2.2996 -0.8165  0.3069
11125SOL    HW244595   2.890   8.592   3.412  0.5293  0.7978  0.1280
11126SOL     OW44596   5.762   8.418   6.247 -0.0627  0.0245  0.0502
11126SOL    HW144597   5.776   8.446   6.343 -1.3922  0.0349  0.2448
11126SOL    HW244598   5.666   8.429   6.223 -0.4040 -3.3264 -0.2365
11127SOL     OW44599   4.990   6.327   2.881 -0.1908 -0.3984 -0.0803
11127SOL    HW144600   4.986   6.254   2.812 -0.6401 -0.1423 -0.3302
11127SOL    HW244601   5.019   6.412   2.838 -0.2701 -0.2854  0.0904
11128SOL     OW44602   8.866   8.363   2.726 -0.1519  0.0205 -0.2430
11128SOL    HW144603   8.953   8.317   2.743  0.5425  0.0199 -3.5315
11128SOL    HW244604   8.791   8.298   2.740  0.5072 -0.6246  0.3086
11129SOL     OW44605   2.919   3.299   2.220  0.3162 -0.1567 -0.5403
11129SOL    HW144606   2.911   3.319   2.317 -1.5996 -1.3238 -0.4431
11129SOL    HW244607   2.917   3.385   2.168 -1.0511  0.3207  0.2920
11130SOL     OW44608   8.321   2.361   1.098 -0.5140  0.2443 -0.3317
11130SOL    HW144609   8.294   2.317   1.012  0.2947 -0.4400 -0.2407
11130SOL    HW244610   8.242   2.365   1.160 -0.8388 -0.1767 -0.7167
11131SOL     OW44611   2.298   4.175   5.894 -0.0361 -0.2292  0.1446
11131SOL    HW144612   2.349   4.099   5.853  1.6956  1.9448 -1.8432
11131SOL    HW244613   2.212   4.187   5.845  0.1697 -0.2334 -0.2191
11132SOL     OW44614   8.656   0.453   0.635 -0.3001  0.5019  0.2677
11132SOL    HW144615   8.660   0.353   0.639  0.9877  0.4416 -2.0123
11132SOL    HW244616   8.603   0.481   0.555 -1.0045  1.6517  1.1252
11133SOL     OW44617   0.526   5.520   1.977 -0.4999  0.4480  0.2116
11133SOL    HW144618   0.604   5.555   1.926 -0.8177 -2.2322 -2.2524
11133SOL    HW244619   0.534   5.546   2.073  1.1293  3.9224 -0.8168
11134SOL     OW44620   1.160   6.284   4.931 -0.2859  0.0734  0.0955
11134SOL    HW144621   1.250   6.327   4.934 -1.0972  1.8406 -0.1939
11134SOL    HW244622   1.156   6.211   4.999  0.6283  1.4767  1.7252
11135SOL     OW44623   2.730   4.210   4.033  0.1885 -0.4270  0.3949
11135SOL    HW144624   2.697   4.195   3.940 -0.2527  2.3694  0.0440
11135SOL    HW244625   2.678   4.285   4.075  2.1339  0.0888  1.9407
11136SOL     OW44626   5.255   9.340   5.437 -0.3591 -0.1583  0.3932
11136SOL    HW144627   5.170   9.391   5.424 -0.0761  0.2535  0.1287
11136SOL    HW244628   5.304   9.377   5.517  0.2849  0.5995 -0.3360
11137SOL     OW44629   4.043   9.601   0.894 -0.2292  0.2673 -0.4340
11137SOL    HW144630   3.948   9.632   0.900 -0.8053 -1.4263 -0.2935
11137SOL    HW244631   4.075   9.575   0.986  0.6750  1.6285 -0.3391
11138SOL     OW44632   2.960   5.513   3.126  0.0466  0.2632  0.1120
11138SOL    HW144633   2.955   5.446   3.200  0.3335  0.5606  0.4002
11138SOL    HW244634   3.026   5.584   3.149 -1.8892  1.8785  0.8210
11139SOL     OW44635   9.768   7.251   5.231 -0.1295  0.2239 -0.5744
11139SOL    HW144636   9.862   7.232   5.204  0.9049  2.3196  1.4124
11139SOL    HW244637   9.741   7.341   5.196 -0.3625  0.9180  1.3320
11140SOL     OW44638   9.419   3.656   0.710 -0.1035 -0.2186 -0.7252
11140SOL    HW144639   9.387   3.663   0.615 -1.9329  1.6055 -0.0048
11140SOL    HW244640   9.500   3.714   0.721  0.4023 -0.8094 -1.2767
11141SOL     OW44641   2.397   1.237   5.420 -0.2351 -0.0829 -0.2269
11141SOL    HW144642   2.377   1.248   5.322 -4.0318  3.0806  0.7680
11141SOL    HW244643   2.479   1.290   5.443 -1.5238  2.3504 -1.0423
11142SOL     OW44644   1.956   4.372   5.497 -0.4201 -0.2451 -0.0797
11142SOL    HW144645   2.034   4.408   5.446 -0.0650 -0.0604  0.5893
11142SOL    HW244646   1.878   4.361   5.435  0.2413 -0.7953 -0.8343
11143SOL     OW44647   1.293   6.329   1.796 -0.1875  0.0660  0.4535
11143SOL    HW144648   1.281   6.395   1.870  0.5032 -0.7407  1.2927
11143SOL    HW244649   1.276   6.237   1.830  1.5204 -0.4441 -0.0410
11144SOL     OW44650   5.101   5.396   2.283 -0.1168 -0.3492 -0.2923
11144SOL    HW144651   5.066   5.327   2.345  1.7373 -0.1807  0.9798
11144SOL    HW244652   5.037   5.408   2.207 -1.5742 -1.7801  0.6751
11145SOL     OW44653   5.908   1.585   4.253  0.1687  0.5400 -0.1255
11145SOL    HW144654   5.817   1.568   4.216 -0.0517 -0.8032  0.9859
11145SOL    HW244655   5.948   1.499   4.286  1.4295  1.2711  0.3236
11146SOL     OW44656   4.005   9.463   4.496  0.1383  0.6657  0.0211
11146SOL    HW144657   4.104   9.446   4.489 -0.0822 -0.1464 -1.3679
11146SOL    HW244658   3.989   9.561   4.506  1.0190  0.9831 -1.4416
11147SOL     OW44659   0.368   7.326   4.528 -0.4045  0.2175 -0.4621
11147SOL    HW144660   0.440   7.379   4.483 -1.2182  1.7122 -0.0261
11147SOL    HW244661   0.410   7.263   4.594  0.5848  0.1695 -1.1245
11148SOL     OW44662   8.588   0.202   4.917  0.2348  0.6364 -0.2893
11148SOL    HW144663   8.527   0.262   4.864  0.8403  0.6034 -1.0353
11148SOL    HW244664   8.535   0.153   4.986 -0.5049  0.9494 -0.6283
11149SOL     OW44665   8.554   7.068   3.456  0.2711  0.1483  0.1525
11149SOL    HW144666   8.634   7.076   3.397 -0.1730 -1.2890 -0.6701
11149SOL    HW244667   8.473   7.054   3.400 -0.5693  1.5156  0.9792
11150SOL     OW44668   9.311   5.522   0.970  0.3934  0.2862  0.3345
11150SOL    HW144669   9.330   5.424   0.978 -0.5254  0.2009  1.6845
11150SOL    HW244670   9.384   5.566   0.918  0.2335 -1.2906 -1.2753
11151SOL     OW44671   5.171   8.202   3.020 -0.1795 -0.1321  0.0476
11151SOL    HW144672   5.258   8.190   3.066 -0.4000  1.1128  0.7906
11151SOL    HW244673   5.176   8.281   2.958 -0.4390 -0.7222 -0.7393
11152SOL     OW44674   2.366   7.138   0.732  0.2758 -0.0065  0.0134
11152SOL    HW144675   2.366   7.105   0.637  0.3973  0.8916 -0.3053
11152SOL    HW244676   2.400   7.066   0.792 -1.6891 -1.2953 -0.3687
11153SOL     OW44677   8.452   6.890   4.567  0.1623 -0.3819  0.0433
11153SOL    HW144678   8.369   6.919   4.615  0.6204  1.6851 -0.3553
11153SOL    HW244679   8.431   6.877   4.470  0.1684 -0.3928  0.0433
11154SOL     OW44680   1.798   8.610   1.003 -0.2761 -0.3486  0.1536
11154SOL    HW144681   1.889   8.646   0.981 -1.0949  2.1158  0.5976
11154SOL    HW244682   1.801   8.561   1.089  0.2918  1.3002  1.0961
11155SOL     OW44683   4.380   3.806   2.857  0.7082 -0.4226 -0.0883
11155SOL    HW144684   4.411   3.772   2.768  1.9899  0.9365 -0.1717
11155SOL    HW244685   4.442   3.877   2.890 -0.7944  0.4212  1.0211
11156SOL     OW44686   9.212   0.308   2.177 -0.4036  0.3192  0.2035
11156SOL    HW144687   9.277   0.248   2.223 -1.8866 -1.8776 -0.4922
11156SOL    HW244688   9.177   0.264   2.094 -4.1574  0.6021  1.5174
11157SOL     OW44689   3.177   3.211   1.611  0.1244 -0.0930 -0.6763
11157SOL    HW144690   3.106   3.143   1.594 -0.8901  0.5120  1.0029
11157SOL    HW244691   3.262   3.165   1.637  0.3146 -0.8146 -2.5086
11158SOL     OW44692   8.400   6.761   5.663 -0.4781  0.2804  0.2901
11158SOL    HW144693   8.395   6.662   5.653 -0.6827  0.0746  2.2216
11158SOL    HW244694   8.394   6.804   5.573 -0.3629 -1.4518 -0.5684
11159SOL     OW44695   3.133   4.101   4.095  0.2489  0.2885 -0.0438
11159SOL    HW144696   3.083   4.063   4.173  0.1683 -0.1334 -0.3016
11159SOL    HW244697   3.232   4.088   4.109  0.1575 -1.2556 -0.7726
11160SOL     OW44698   2.902   1.356   0.797 -0.2651 -0.3431  0.2888
11160SOL    HW144699   2.971   1.289   0.822 -1.4309 -1.6312  0.1271
11160SOL    HW244700   2.915   1.384   0.702  0.2820 -0.2631  0.3869
11161SOL     OW44701   5.624   0.693   1.913 -0.1743 -0.1229  0.3596
11161SOL    HW144702   5.670   0.777   1.942  1.2299 -0.8502  0.2940
11161SOL    HW244703   5.526   0.699   1.933  0.3412  0.4317  2.8783
11162SOL     OW44704   8.479   5.049   4.978 -0.3138  0.3972  0.1800
11162SOL    HW144705   8.441   4.985   5.045 -1.0119  0.9082  0.2721
11162SOL    HW244706   8.546   5.108   5.023 -0.8985  0.8468  0.4702
11163SOL     OW44707   8.430   5.858   1.550  0.0449  0.0139 -0.3442
11163SOL    HW144708   8.389   5.868   1.640  1.9360  0.8600  0.4484
11163SOL    HW244709   8.436   5.947   1.505 -0.5509 -0.3480 -1.1602
11164SOL     OW44710   2.716   9.116   1.769  0.4764 -0.1317 -0.0129
11164SOL    HW144711   2.626   9.120   1.726  0.1343 -1.1309  0.6000
11164SOL    HW244712   2.747   9.209   1.789 -0.3193  0.2281 -0.4210
11165SOL     OW44713   0.954   0.310   0.740  0.2566  0.0608 -0.0754
11165SOL    HW144714   1.023   0.382   0.735  0.4069 -0.0803 -0.0537
11165SOL    HW244715   0.882   0.337   0.804 -0.5717  0.9373 -1.3609
11166SOL     OW44716   5.619   2.614   5.439 -1.0191  0.0226  0.7900
11166SOL    HW144717   5.608   2.651   5.531 -0.5150  0.1217  0.8110
11166SOL    HW244718   5.705   2.647   5.400 -1.8682  1.0432 -0.2226
11167SOL     OW44719   0.705   0.811   4.106 -0.2326 -0.1162 -0.0889
11167SOL    HW144720   0.738   0.842   4.016  0.2799  0.7894  0.4026
11167SOL    HW244721   0.654   0.885   4.150 -0.2623 -0.4730  0.4827
11168SOL     OW44722   6.297   4.695   2.222 -0.2394 -0.4218  0.0707
11168SOL    HW144723   6.325   4.664   2.131  0.8228 -1.7509  0.8207
11168SOL    HW244724   6.240   4.777   2.214 -0.6248 -0.8546 -1.8117
11169SOL     OW44725   9.702   6.396   4.756  0.3216  0.3136  0.7228
11169SOL    HW144726   9.738   6.431   4.843 -0.1825  0.0662  1.0307
11169SOL    HW244727   9.715   6.297   4.753  0.1889  0.3017  0.5853
11170SOL     OW44728   8.474   2.326   4.083  0.8791  0.6085 -0.5978
11170SOL    HW144729   8.462   2.425   4.070  3.0308  0.7231 -1.9199
11170SOL    HW244730   8.553   2.310   4.142  1.6311 -0.3657 -1.8601
11171SOL     OW44731   4.614   9.528   2.812 -0.7372  0.3608 -0.3272
11171SOL    HW144732   4.558   9.579   2.748  0.5258  0.7426 -1.1375
11171SOL    HW244733   4.606   9.430   2.793  1.6634  0.5870 -2.7958
11172SOL     OW44734   0.491   5.023   1.137  0.1822  0.3766  0.9395
11172SOL    HW144735   0.525   4.964   1.209  2.4455  1.6663  0.9736
11172SOL    HW244736   0.468   4.968   1.057  1.3439 -0.6605  1.3028
11173SOL     OW44737   6.260   2.861   3.988 -0.0235 -0.2319  0.4078
11173SOL    HW144738   6.293   2.789   4.049  1.3221 -0.0812 -0.1094
11173SOL    HW244739   6.286   2.950   4.026  0.4175 -0.1207 -0.1578
11174SOL     OW44740   1.704   6.181   0.709  0.1308  0.0174 -0.1742
11174SOL    HW144741   1.652   6.239   0.648 -0.2695 -1.1476 -0.9613
11174SOL    HW244742   1.793   6.160   0.668  0.1985 -0.0760  0.0182
11175SOL     OW44743   7.834   1.666   0.130 -0.2922 -0.2157 -0.3815
11175SOL    HW144744   7.907   1.615   0.084 -1.0675 -0.9799 -0.7631
11175SOL    HW244745   7.824   1.755   0.085  0.9096  0.2049  0.1467
11176SOL     OW44746   3.992   8.181   3.145  0.3658  0.1679  0.4843
11176SOL    HW144747   3.965   8.243   3.219  0.4255  0.0805  0.5790
11176SOL    HW244748   4.060   8.116   3.179  1.6145  1.1566 -0.0772
11177SOL     OW44749   5.639   9.490   6.155  0.5033 -0.3757 -0.6157
11177SOL    HW144750   5.657   9.586   6.177  2.5721 -0.3859 -2.0434
11177SOL    HW244751   5.580   9.486   6.074  0.8754 -0.3085 -0.8908
11178SOL     OW44752   7.369   3.195   5.187  0.1021 -0.3512 -0.3040
11178SOL    HW144753   7.358   3.096   5.191  1.2487 -0.4719  0.1124
11178SOL    HW244754   7.399   3.221   5.095  0.2530 -0.4405 -0.2804
11179SOL     OW44755   4.557   8.271   5.398  0.4337 -0.1321 -0.2922
11179SOL    HW144756   4.525   8.351   5.449  1.8784 -0.3286  0.9349
11179SOL    HW244757   4.539   8.286   5.300 -0.8528  0.9481  0.0855
11180SOL     OW44758   0.295   0.115   2.880 -0.0530  0.3148  0.3315
11180SOL    HW144759   0.358   0.167   2.822  1.4569 -1.1903  0.5568
11180SOL    HW244760   0.248   0.176   2.942  1.1561  1.4919  0.1154
11181SOL     OW44761   4.801   6.055   0.307  0.1138 -0.4334  0.1457
11181SOL    HW144762   4.802   5.961   0.272  2.1537 -0.5865  0.5413
11181SOL    HW244763   4.762   6.056   0.399  0.6675 -0.9911  0.3894
11182SOL     OW44764   5.868   1.883   3.404  0.3811  0.1930  0.3209
11182SOL    HW144765   5.962   1.915   3.420  1.1402 -1.4825 -0.6772
11182SOL    HW244766   5.869   1.785   3.386 -1.6109  0.1131  0.5981
11183SOL     OW44767   5.774   4.329   0.581  0.3691 -0.2479 -0.0078
11183SOL    HW144768   5.843   4.362   0.518  0.2140  0.0778 -0.0090
11183SOL    HW244769   5.722   4.255   0.538  1.2276 -1.0295  0.2819
11184SOL     OW44770   6.386   1.031   6.019  0.4924  0.7169  0.4489
11184SOL    HW144771   6.346   1.123   6.030 -0.6249  0.1779  0.9990
11184SOL    HW244772   6.422   1.022   5.926 -3.2646  0.2543 -1.0445
11185SOL     OW44773   6.321   0.747   5.461 -0.4278 -0.0687  0.2997
11185SOL    HW144774   6.368   0.690   5.529  0.0716 -1.2844 -1.0550
11185SOL    HW244775   6.236   0.703   5.433 -0.8577  0.6530  0.4587
11186SOL     OW44776   9.810   1.675   2.754 -0.0298 -0.0265 -0.1844
11186SOL    HW144777   9.858   1.748   2.803 -1.2128  0.6229  0.0341
11186SOL    HW244778   9.828   1.587   2.798 -0.2137  0.4132  0.7822
11187SOL     OW44779   6.725   4.817   7.562 -0.4289  0.4546 -0.3697
11187SOL    HW144780   6.673   4.800   7.646 -2.2211 -0.6666 -1.6637
11187SOL    HW244781   6.814   4.773   7.569 -0.9234 -0.4245  0.6119
11188SOL     OW44782   9.503   3.083   0.703  0.0380  0.5311  0.3508
11188SOL    HW144783   9.534   3.026   0.779 -0.7344  0.1188  0.3629
11188SOL    HW244784   9.574   3.149   0.680  0.9596 -0.4532  0.3178
11189SOL     OW44785   2.325   9.154   6.283 -0.2917  0.1920 -0.6486
11189SOL    HW144786   2.233   9.130   6.312  0.2442  1.5283  2.4414
11189SOL    HW244787   2.362   9.224   6.345  2.4032  0.4221 -2.4311
11190SOL     OW44788   9.251   8.832   2.837 -0.1187 -0.3623  0.9810
11190SOL    HW144789   9.163   8.798   2.804 -0.8329  2.0218  0.3161
11190SOL    HW244790   9.325   8.773   2.803 -1.3100 -1.2232 -0.1352
11191SOL     OW44791   0.560   3.561   0.217 -0.0462 -0.3423 -0.2779
11191SOL    HW144792   0.590   3.527   0.306  1.9701  0.2148 -0.7115
11191SOL    HW244793   0.475   3.612   0.228  0.8808  0.8746  1.5742
11192SOL     OW44794   6.744   7.950   5.369 -0.2843  0.2257 -0.1647
11192SOL    HW144795   6.764   8.035   5.320 -0.3418 -0.3633 -1.2270
11192SOL    HW244796   6.703   7.884   5.306  1.2184 -1.1513  0.2639
11193SOL     OW44797   4.201   1.377   6.126  0.1813  0.3185 -0.1511
11193SOL    HW144798   4.166   1.283   6.120  0.5217  0.2590 -1.3999
11193SOL    HW244799   4.301   1.375   6.127  0.2252  0.7313 -1.8443
11194SOL     OW44800   9.539   0.689   5.819 -0.3466 -0.3252 -0.3249
11194SOL    HW144801   9.636   0.665   5.816 -0.2252  0.2877 -1.3676
11194SOL    HW244802   9.517   0.750   5.744 -1.2625  0.5967  0.6655
11195SOL     OW44803   0.362   9.536   2.875 -0.2357 -0.6611  0.3918
11195SOL    HW144804   0.288   9.555   2.810 -0.7759 -2.9156  0.2887
11195SOL    HW244805   0.415   9.458   2.842  1.6032  0.3303  0.9639
11196SOL     OW44806   5.597   1.011   0.885 -0.0441 -0.2289 -0.3415
11196SOL    HW144807   5.647   1.027   0.800  3.1281 -1.1424  1.2583
11196SOL    HW244808   5.659   0.971   0.953 -2.5516  0.2500  2.3300
11197SOL     OW44809   0.174   5.557   5.392  0.4675 -0.0678 -0.1043
11197SOL    HW144810   0.185   5.489   5.320  0.2976 -1.0221  0.7485
11197SOL    HW244811   0.138   5.512   5.474  2.2042  0.6726  1.0925
11198SOL     OW44812   0.909   8.018   0.301  0.2081  0.3587 -0.0512
11198SOL    HW144813   0.935   7.993   0.395  0.1919  0.2970 -0.0623
11198SOL    HW244814   0.990   8.046   0.250  0.0046  1.7875  0.4029
11199SOL     OW44815   3.798   6.447   1.053  0.2539 -0.2590 -0.0888
11199SOL    HW144816   3.760   6.371   1.105  0.5795 -0.9116 -0.7861
11199SOL    HW244817   3.792   6.427   0.955 -0.4935  1.0164 -0.3133
11200SOL     OW44818   4.592   3.629   2.661 -0.7323  0.0436 -0.0842
11200SOL    HW144819   4.660   3.688   2.706  0.9903 -1.7359 -0.3073
11200SOL    HW244820   4.571   3.666   2.571  2.1844 -0.9470 -1.2321
11201SOL     OW44821   1.404   0.779   6.258  0.1918  0.1790  0.3722
11201SOL    HW144822   1.343   0.699   6.263  0.1905  0.1006 -0.7537
11201SOL    HW244823   1.498   0.748   6.243  0.0414  0.4144 -1.1520
11202SOL     OW44824   2.647   3.570   3.411  0.5762  0.1613  0.5866
11202SOL    HW144825   2.668   3.509   3.487  1.8589  2.0718  1.8284
11202SOL    HW244826   2.648   3.519   3.325  0.4209 -1.7673  1.7099
11203SOL     OW44827   3.488   4.156   3.633  0.2706  0.0599  0.1222
11203SOL    HW144828   3.420   4.229   3.646 -0.1557  0.2042 -2.6480
11203SOL    HW244829   3.456   4.093   3.562  3.0390  0.1532 -1.2700
11204SOL     OW44830   1.656   8.980   3.398 -0.2009  0.0848  0.0074
11204SOL    HW144831   1.651   8.954   3.495  1.5046  1.1061  0.3916
11204SOL    HW244832   1.743   8.949   3.360 -0.5026  0.4464 -0.9875
11205SOL     OW44833   3.302   7.882   1.505 -0.3363 -0.1864 -0.2560
11205SOL    HW144834   3.272   7.966   1.461 -2.1072 -0.6950 -0.0757
11205SOL    HW244835   3.387   7.899   1.556  0.3892  0.9965 -1.8027
11206SOL     OW44836   7.458   4.570   2.878  0.0712 -0.0774  0.3430
11206SOL    HW144837   7.556   4.559   2.892  0.1231 -0.0008  0.0285
11206SOL    HW244838   7.410   4.491   2.917  0.4136 -1.1528 -1.3436
11207SOL     OW44839   0.559   8.796   4.908  0.1206 -0.2736 -0.7926
11207SOL    HW144840   0.513   8.739   4.841  1.9271 -0.8818 -1.5605
11207SOL    HW244841   0.600   8.875   4.862 -1.1646  0.9105  0.0541
11208SOL     OW44842   1.760   0.124   5.203  0.6498 -0.0049 -0.7560
11208SOL    HW144843   1.683   0.078   5.158  0.4440 -2.2927  1.8107
11208SOL    HW244844   1.761   0.221   5.176 -2.6814 -0.0844 -1.4182
11209SOL     OW44845   4.404   9.910   4.916  0.0617  0.1201  0.2159
11209SOL    HW144846   4.384   9.951   4.827 -1.3073 -0.4382  0.2588
11209SOL    HW244847   4.366   9.967   4.989  0.6843  0.2751  0.4284
11210SOL     OW44848   9.329   4.840   0.177 -0.1564  0.4201 -0.0958
11210SOL    HW144849   9.320   4.907   0.251  3.7156 -0.3093  1.1174
11210SOL    HW244850   9.340   4.748   0.216  0.0101 -0.2218 -1.6187
11211SOL     OW44851   2.832   9.559   2.434 -0.1846  0.3149 -0.0444
11211SOL    HW144852   2.759   9.546   2.367  0.2505 -0.0949 -0.4374
11211SOL    HW244853   2.795   9.546   2.526 -0.6066  0.0982 -0.2419
11212SOL     OW44854   6.339   1.292   1.756 -0.1823  0.2667 -0.2668
11212SOL    HW144855   6.264   1.344   1.796  0.6217  1.6703 -0.5544
11212SOL    HW244856   6.358   1.212   1.813 -0.9773  0.6554  0.5597
11213SOL     OW44857   8.171   8.788   6.403 -0.0092  0.0751 -0.1397
11213SOL    HW144858   8.125   8.701   6.416  2.6618 -1.1354  1.6907
11213SOL    HW244859   8.203   8.796   6.309 -0.2172 -0.9486 -0.3016
11214SOL     OW44860   3.796   1.277   1.802  0.0852  0.3055 -0.1130
11214SOL    HW144861   3.824   1.222   1.881  0.2562  0.1414 -0.2859
11214SOL    HW244862   3.822   1.229   1.717  0.1500  0.6066 -0.2651
11215SOL     OW44863   6.565   1.565   7.946 -0.3457  0.1482  0.2151
11215SOL    HW144864   6.661   1.591   7.955 -0.1886 -0.0671 -0.8143
11215SOL    HW244865   6.525   1.610   7.866 -1.3154  0.8430  1.0637
11216SOL     OW44866   1.061   7.108   5.593 -0.4790 -0.2256  0.2283
11216SOL    HW144867   1.051   7.056   5.678 -0.1050  1.7033  1.4812
11216SOL    HW244868   1.076   7.205   5.615 -1.9815  0.5635 -2.0606
11217SOL     OW44869   4.406   0.137   1.191 -0.3120  0.2934  0.4080
11217SOL    HW144870   4.434   0.042   1.174  0.0585  0.5190 -0.2432
11217SOL    HW244871   4.481   0.199   1.169  0.0857  0.6376  2.5764
11218SOL     OW44872   4.808   4.025   1.901  0.2542  0.1052 -0.0421
11218SOL    HW144873   4.907   4.032   1.911  0.2798  0.5150 -0.5628
11218SOL    HW244874   4.776   3.940   1.942  1.3685 -2.1583 -3.5790
11219SOL     OW44875   2.139   4.293   3.058 -0.3402  0.1982  0.1963
11219SOL    HW144876   2.062   4.278   3.120  0.0292  1.5329  1.0002
11219SOL    HW244877   2.191   4.373   3.088  0.2340  0.4692 -1.4529
11220SOL     OW44878   3.027   3.834   1.441 -0.3014  0.1627  0.0134
11220SOL    HW144879   2.995   3.918   1.486  0.4671  1.0625 -1.0837
11220SOL    HW244880   3.115   3.851   1.398 -0.0121 -1.3032  0.0039
11221SOL     OW44881   1.310   0.437   4.310  0.2932 -0.4823 -0.4581
11221SOL    HW144882   1.331   0.346   4.346  1.6162 -0.1377 -0.3182
11221SOL    HW244883   1.395   0.483   4.284 -0.4042  0.5142 -1.0231
11222SOL     OW44884   1.174   8.333   0.669  0.3668  0.2338  0.0921
11222SOL    HW144885   1.126   8.314   0.754  0.1510  0.6354  0.0630
11222SOL    HW244886   1.272   8.337   0.686  0.2935  0.7993  0.4204
11223SOL     OW44887   3.823   3.573   3.532 -0.1624 -0.1843  0.6585
11223SOL    HW144888   3.845   3.667   3.556  0.3911 -0.8713  3.0012
11223SOL    HW244889   3.906   3.527   3.499  0.0933 -0.4688  1.6740
11224SOL     OW44890   3.317   0.066   0.949  0.5096  0.4044  0.2482
11224SOL    HW144891   3.412   0.069   0.917  0.5484  1.9608  0.4762
11224SOL    HW244892   3.303  -0.017   1.003  1.3828 -0.4865 -0.8565
11225SOL     OW44893   3.399   2.814   4.813 -0.4319  0.3695 -0.6938
11225SOL    HW144894   3.316   2.853   4.855  0.3018  2.0280 -0.7513
11225SOL    HW244895   3.425   2.868   4.734 -0.5748 -1.5084 -2.0567
11226SOL     OW44896   7.672   4.248   2.413 -0.3242 -0.5672 -0.1733
11226SOL    HW144897   7.619   4.327   2.382 -1.9332 -1.9806 -1.0858
11226SOL    HW244898   7.654   4.232   2.510  0.0748  0.2361  0.0362
11227SOL     OW44899   9.283   9.400   5.903 -0.0375 -0.1202 -0.4925
11227SOL    HW144900   9.356   9.385   5.837  0.6557 -2.7133  0.8233
11227SOL    HW244901   9.238   9.488   5.883  2.2738  0.6958 -2.3643
11228SOL     OW44902   8.691   1.659   0.933  0.1199 -0.1686 -0.3075
11228SOL    HW144903   8.726   1.620   0.848 -1.9167 -1.7000 -0.5012
11228SOL    HW244904   8.706   1.594   1.008  0.7602  0.6257  0.2605
11229SOL     OW44905   8.545   9.396   6.314 -0.2501 -0.5107  0.4005
11229SOL    HW144906   8.529   9.493   6.294  1.1778 -0.4242 -0.4133
11229SOL    HW244907   8.483   9.366   6.386 -1.4124  0.7367 -0.0635
11230SOL     OW44908   9.315   7.511   3.915  0.9811 -0.1651  0.0240
11230SOL    HW144909   9.337   7.527   3.819  0.2305 -2.2149 -0.5067
11230SOL    HW244910   9.321   7.597   3.965 -0.3094  1.2591 -2.1874
11231SOL     OW44911   0.944   3.028   3.961  0.0065  0.1739  0.0743
11231SOL    HW144912   0.875   3.022   4.034 -0.1589  0.5289 -0.0544
11231SOL    HW244913   0.982   3.120   3.959  0.1127  0.1229 -0.1977
11232SOL     OW44914   1.061   0.362   4.766 -0.1511  0.0017  0.0423
11232SOL    HW144915   1.064   0.444   4.708 -1.4816  0.5166  0.6707
11232SOL    HW244916   1.094   0.283   4.715  0.4471  0.8008 -0.8102
11233SOL     OW44917   4.681   9.198   5.838 -0.1587  0.0099 -0.6174
11233SOL    HW144918   4.626   9.154   5.909  1.1768 -1.1299 -0.2451
11233SOL    HW244919   4.653   9.293   5.827 -0.3836  0.2028  1.4429
11234SOL     OW44920   8.159   8.779   1.012 -0.7284 -0.2979 -0.5417
11234SOL    HW144921   8.226   8.831   0.959  1.2479 -2.2124  0.0144
11234SOL    HW244922   8.159   8.812   1.107 -1.6268  0.6526 -0.8585
11235SOL     OW44923   8.759   1.122   2.358  0.2557 -0.0042 -0.2830
11235SOL    HW144924   8.785   1.148   2.451  1.1865 -1.7879 -0.0129
11235SOL    HW244925   8.838   1.082   2.311  0.1506  2.0905 -2.3021
11236SOL     OW44926   5.933   0.919   4.686  0.5872  0.0283  0.7245
11236SOL    HW144927   5.932   0.862   4.604  2.8872  1.2617 -0.2175
11236SOL    HW244928   6.014   0.897   4.741 -0.3385 -0.0013  2.1000
11237SOL     OW44929   3.318   7.109   0.470 -0.5025  0.0154  0.6820
11237SOL    HW144930   3.371   7.130   0.552  0.2261 -0.9696  0.4662
11237SOL    HW244931   3.232   7.160   0.472 -0.2345  0.4312  1.7744
11238SOL     OW44932   2.532   3.551   1.376 -0.1807 -0.0858 -0.2243
11238SOL    HW144933   2.454   3.543   1.438  0.0130 -2.1794 -0.2217
11238SOL    HW244934   2.553   3.648   1.362 -1.2363  0.4513  1.6878
11239SOL     OW44935   6.267   2.188   4.631  0.1798 -0.1624  0.5410
11239SOL    HW144936   6.295   2.160   4.539 -1.5820  0.8141 -0.3151
11239SOL    HW244937   6.167   2.195   4.635  0.1566 -1.2204  2.8331
11240SOL     OW44938   1.045   8.497   0.107  0.5938 -0.2749  0.0044
11240SOL    HW144939   0.956   8.451   0.103  0.0805  0.6639  0.5059
11240SOL    HW244940   1.050   8.567   0.036  1.4210 -1.1597 -0.8339
11241SOL     OW44941   6.959   5.574   0.994 -0.3244 -0.3941 -0.1132
11241SOL    HW144942   7.039   5.571   0.935  0.7384  1.6376  1.1750
11241SOL    HW244943   6.882   5.614   0.944 -0.1038 -0.8961 -0.8551
11242SOL     OW44944   8.121   9.754   1.293 -0.4167 -0.1295 -0.6171
11242SOL    HW144945   8.085   9.685   1.356 -2.0289  0.0667 -1.3080
11242SOL    HW244946   8.148   9.835   1.345 -1.3357 -0.1290 -0.1251
11243SOL     OW44947   8.867   7.053   0.952  0.5015  0.4119  0.1537
11243SOL    HW144948   8.900   7.121   0.886 -1.2085  0.1163 -1.0325
11243SOL    HW244949   8.858   6.964   0.906  0.2581 -0.0255  1.0504
11244SOL     OW44950   9.355   5.054   5.350  0.5862  0.3853 -0.3883
11244SOL    HW144951   9.414   4.976   5.371  1.3589  0.2934 -2.7678
11244SOL    HW244952   9.260   5.030   5.372  1.1534 -0.1689  1.6059
11245SOL     OW44953   1.126   2.807   3.971  0.2945 -0.2840  0.2828
11245SOL    HW144954   1.059   2.878   3.994  1.2540 -0.0381  2.4468
11245SOL    HW244955   1.192   2.844   3.907 -1.1354 -0.2674 -1.2207
11246SOL     OW44956   8.034   6.206   0.912  0.4836 -0.1549 -0.0326
11246SOL    HW144957   7.992   6.148   0.981 -1.6961 -0.0097 -1.2031
11246SOL    HW244958   8.084   6.280   0.957 -0.9951 -0.0044  1.4187
11247SOL     OW44959   7.948   6.311   2.409  0.2349  0.0865  0.1996
11247SOL    HW144960   7.856   6.342   2.431 -0.3552 -0.6558 -1.1252
11247SOL    HW244961   7.976   6.348   2.320  1.7663  1.4110  1.2057
11248SOL     OW44962   5.725   5.030   7.889 -0.3645 -0.3723 -0.3926
11248SOL    HW144963   5.724   5.022   7.790 -0.6741  0.7925 -0.4899
11248SOL    HW244964   5.631   5.031   7.923 -0.3145  1.2163 -0.2679
11249SOL     OW44965   9.271   6.125   5.479  0.4572 -0.2969  0.2410
11249SOL    HW144966   9.291   6.154   5.385 -0.2386 -1.8975 -0.4035
11249SOL    HW244967   9.241   6.205   5.532  1.0382  0.6564 -0.8360
11250SOL     OW44968   6.180   8.196   5.431  0.2620  0.5231  0.1472
11250SOL    HW144969   6.210   8.112   5.386 -0.2832 -0.0181  0.7607
11250SOL    HW244970   6.252   8.265   5.426  0.9277 -0.1643  0.0998
11251SOL     OW44971   5.558   9.825   6.325 -0.6806  0.2052  0.1640
11251SOL    HW144972   5.654   9.797   6.336 -0.7587  0.7053  2.2883
11251SOL    HW244973   5.554   9.920   6.294 -0.4883 -0.4534 -1.9706
11252SOL     OW44974   3.913   3.876   5.085  0.1898  0.0989  0.2479
11252SOL    HW144975   3.951   3.786   5.067 -0.7671 -0.1661 -0.4695
11252SOL    HW244976   3.878   3.880   5.179  0.2800 -0.2521  0.2941
11253SOL     OW44977   3.193   9.314   6.194  0.5236  0.1305  0.4498
11253SOL    HW144978   3.278   9.273   6.226  1.5453 -0.2921 -2.5709
11253SOL    HW244979   3.210   9.362   6.108 -2.3705 -0.2696 -0.4052
11254SOL     OW44980   1.248   2.483   0.230 -0.1392  0.5330 -0.3027
11254SOL    HW144981   1.313   2.498   0.155 -0.1256  1.0973 -0.1800
11254SOL    HW244982   1.269   2.545   0.305  1.1116 -1.4430  1.0052
11255SOL     OW44983   2.410   7.390   1.821  0.4997  0.1318  0.2216
11255SOL    HW144984   2.311   7.376   1.818  0.5815 -0.4979  0.3000
11255SOL    HW244985   2.447   7.348   1.904  0.8058  0.5539  0.3030
11256SOL     OW44986   8.363   1.944   4.267 -0.5251  0.1413  0.3986
11256SOL    HW144987   8.383   2.002   4.347  0.7537 -0.8512  0.8201
11256SOL    HW244988   8.433   1.960   4.197  0.1263 -1.2434  0.7147
11257SOL     OW44989   7.627   8.457   3.808  0.6311 -0.1629  0.6816
11257SOL    HW144990   7.587   8.366   3.798  1.3254 -0.4062  0.1391
11257SOL    HW244991   7.568   8.512   3.868 -0.4212 -0.5735  0.0307
11258SOL     OW44992   4.725   7.339   1.824  0.1804 -0.1606  0.1897
11258SOL    HW144993   4.675   7.266   1.777 -0.3031 -0.3303  0.9621
11258SOL    HW244994   4.674   7.425   1.815 -1.0464 -0.6322  2.2511
11259SOL     OW44995   7.435   1.144   3.261 -0.5938  0.3665 -0.4793
11259SOL    HW144996   7.530   1.121   3.283 -1.4430 -1.5831  1.3699
11259SOL    HW244997   7.402   1.212   3.327 -0.6674  0.6238 -0.7802
11260SOL     OW44998   0.950   2.205   4.436  0.5680  0.2060  0.5477
11260SOL    HW144999   0.978   2.285   4.383  0.5695 -0.7083 -0.8396
11260SOL    HW245000   0.951   2.124   4.378 -2.5854 -0.2802  1.0653
11261SOL     OW45001   9.096   2.673   3.909 -0.0332 -0.1409  0.7519
11261SOL    HW145002   9.024   2.610   3.881 -0.5085  0.7741 -0.0976
11261SOL    HW245003   9.156   2.628   3.976 -0.6645 -1.3086  0.5343
11262SOL     OW45004   4.378   2.162   4.326 -0.2380  0.0545  0.1809
11262SOL    HW145005   4.450   2.120   4.381  0.8598  1.2154 -0.3580
11262SOL    HW245006   4.353   2.251   4.365 -0.0104  0.5271 -0.7390
11263SOL     OW45007   4.392   1.065   2.857  0.4349 -0.0957  0.1978
11263SOL    HW145008   4.303   1.080   2.900  1.0960  0.9352  1.2221
11263SOL    HW245009   4.386   0.987   2.795 -0.9304 -0.6355  0.9939
11264SOL     OW45010   7.726   2.806   0.056 -0.3877  0.1541 -0.6023
11264SOL    HW145011   7.709   2.709   0.042 -1.3071 -0.0171  1.5465
11264SOL    HW245012   7.688   2.858  -0.020  0.0757 -1.1377 -1.7440
11265SOL     OW45013   0.184   6.209   1.421 -0.0379  0.0905 -0.4406
11265SOL    HW145014   0.117   6.137   1.402 -0.3193  0.6928 -1.8165
11265SOL    HW245015   0.149   6.297   1.389  1.2093  0.4772 -0.7891
11266SOL     OW45016   1.824   3.701   5.101 -0.5727 -0.0904 -0.7192
11266SOL    HW145017   1.888   3.646   5.153 -1.9955  0.2143  1.3907
11266SOL    HW245018   1.791   3.648   5.022 -0.8900 -1.7701  0.5123
11267SOL     OW45019   9.175   3.427   3.755 -0.3881  0.0379 -0.4044
11267SOL    HW145020   9.133   3.392   3.671 -0.5324  0.4154 -0.4881
11267SOL    HW245021   9.211   3.350   3.808 -1.6496 -0.3424 -0.0763
11268SOL     OW45022   0.700   0.989   5.231  0.2634  0.3003  0.6687
11268SOL    HW145023   0.722   1.085   5.247 -1.8423  0.5052  2.6106
11268SOL    HW245024   0.732   0.933   5.308  2.1881 -0.7093 -0.8095
11269SOL     OW45025   6.718   8.679   3.136  0.3810 -0.2150  0.3363
11269SOL    HW145026   6.673   8.590   3.147  0.1965  0.1031  2.3024
11269SOL    HW245027   6.777   8.676   3.055 -0.7101 -1.6552 -0.4446
11270SOL     OW45028   9.230   5.826   5.717 -0.3956 -0.2634 -0.5109
11270SOL    HW145029   9.196   5.741   5.758 -1.8639 -0.0091 -1.1569
11270SOL    HW245030   9.188   5.837   5.626  1.4503  0.0608 -1.3371
11271SOL     OW45031   2.697   1.600   0.269  0.3232 -0.2190 -0.1348
11271SOL    HW145032   2.648   1.647   0.196 -0.9642 -1.4477 -0.0861
11271SOL    HW245033   2.632   1.554   0.329  1.3556  0.9935  1.9602
11272SOL     OW45034   0.870   4.793   2.146  0.6004 -0.2060 -0.7288
11272SOL    HW145035   0.907   4.821   2.234 -0.6108 -0.5986 -0.0898
11272SOL    HW245036   0.781   4.836   2.131 -1.1083 -3.2689  0.0836
11273SOL     OW45037   1.471   8.029   1.522 -0.1289 -0.2146 -0.3275
11273SOL    HW145038   1.565   8.026   1.555 -0.7059 -0.0710  1.3654
11273SOL    HW245039   1.464   7.978   1.436  0.7896 -3.3144  1.3324
11274SOL     OW45040   8.375   3.719   3.824 -0.1257 -0.1627 -0.1307
11274SOL    HW145041   8.436   3.792   3.795 -0.1984 -0.4825 -1.1452
11274SOL    HW245042   8.281   3.743   3.798 -0.3685  0.1252  1.0112
11275SOL     OW45043   8.415   5.195   8.097 -0.2854  0.3372  0.2295
11275SOL    HW145044   8.494   5.195   8.036 -0.6858  0.8958 -0.3105
11275SOL    HW245045   8.343   5.253   8.057 -0.8991 -0.0309  0.7893
11276SOL     OW45046   9.162   2.484   3.512 -0.0185  0.8664  0.4528
11276SOL    HW145047   9.079   2.540   3.503  0.5377  1.5541 -0.5346
11276SOL    HW245048   9.243   2.541   3.499  0.6174  0.1825  1.3327
11277SOL     OW45049   5.576   8.295   3.155 -0.0031  0.6793  0.2639
11277SOL    HW145050   5.592   8.356   3.233 -0.8262  0.5177  0.5644
11277SOL    HW245051   5.480   8.300   3.127  0.1925  0.4120 -0.4680
11278SOL     OW45052   9.434   1.616   2.007 -0.4193  0.1739 -0.9268
11278SOL    HW145053   9.402   1.696   2.057  0.2477 -0.3517  0.3856
11278SOL    HW245054   9.369   1.540   2.020  0.9975 -0.7272  1.2893
11279SOL     OW45055   9.940   2.755   4.613  0.0164  0.0340  0.3034
11279SOL    HW145056   9.909   2.748   4.519 -0.7487 -1.6380  0.6548
11279SOL    HW245057   9.989   2.671   4.638  0.5846  0.6408  1.2606
11280SOL     OW45058   0.082   4.361   4.556 -0.2292 -0.1686 -0.1915
11280SOL    HW145059   0.054   4.446   4.510 -2.4401  0.2909  1.8804
11280SOL    HW245060   0.182   4.358   4.561 -0.1036  2.3309 -0.2759
11281SOL     OW45061   4.171   7.594   5.403 -0.4395  0.3714 -0.4669
11281SOL    HW145062   4.173   7.615   5.305  0.4293 -0.8131 -0.7079
11281SOL    HW245063   4.259   7.558   5.432 -0.6776  0.7368  0.7712
11282SOL     OW45064   4.673   1.129   3.727 -0.3041 -0.0442  0.0427
11282SOL    HW145065   4.744   1.161   3.665 -0.8844  0.7661 -0.2212
11282SOL    HW245066   4.585   1.129   3.680 -0.8908  1.3984  1.0982
11283SOL     OW45067   3.152   2.057   1.355 -0.8996  0.7299 -0.4521
11283SOL    HW145068   3.124   2.113   1.433  1.0122  1.2453 -0.1131
11283SOL    HW245069   3.105   2.089   1.272 -0.2024  2.5435 -0.1676
11284SOL     OW45070   6.391   4.858   7.980 -0.0531  0.1754  0.0770
11284SOL    HW145071   6.345   4.936   8.023  0.6302  0.8981 -0.4917
11284SOL    HW245072   6.325   4.808   7.923 -0.3660  0.6342  0.0344
11285SOL     OW45073   9.893   3.267   5.021  0.2546  0.6586  0.6211
11285SOL    HW145074   9.816   3.313   5.066  0.4710  0.2210  1.4654
11285SOL    HW245075   9.978   3.296   5.066  0.6405  1.6180 -0.7096
11286SOL     OW45076   3.741   3.948   5.302  0.2119 -0.2957 -0.0151
11286SOL    HW145077   3.656   3.895   5.292  1.8471 -3.1644  0.7720
11286SOL    HW245078   3.763   3.956   5.399  0.7635  0.5823 -0.2168
11287SOL     OW45079   6.437   2.627   3.454  0.0700  0.0622 -0.1537
11287SOL    HW145080   6.524   2.671   3.429  0.8192 -2.4345 -2.1534
11287SOL    HW245081   6.439   2.604   3.551  1.1975  0.9960  0.0691
11288SOL     OW45082   1.268   2.131   2.605 -0.1302  0.4545 -0.2891
11288SOL    HW145083   1.217   2.164   2.525  0.1169 -1.4791 -1.2713
11288SOL    HW245084   1.349   2.082   2.575  0.7241  0.9233  1.2084
11289SOL     OW45085   8.766   8.912   3.593 -0.9294  0.2638 -0.0821
11289SOL    HW145086   8.818   8.952   3.668  0.7655 -0.2062 -0.9810
11289SOL    HW245087   8.747   8.816   3.613  1.2982 -0.4192 -1.1413
11290SOL     OW45088   3.860   8.225   3.901 -0.7271  0.4060 -0.5638
11290SOL    HW145089   3.812   8.273   3.827 -2.4231 -0.1195  0.1807
11290SOL    HW245090   3.959   8.226   3.882 -1.1312  0.0925 -2.9619
11291SOL     OW45091   0.071   8.443   5.362  0.1189 -0.0372 -0.0386
11291SOL    HW145092   0.046   8.418   5.269 -0.3291  0.1063  0.0431
11291SOL    HW245093  -0.008   8.432   5.422  0.4882 -0.4188  0.3810
11292SOL     OW45094   8.462   0.247   3.916 -0.0885  0.0891  0.1127
11292SOL    HW145095   8.372   0.260   3.956 -0.1001 -1.4604  0.6398
11292SOL    HW245096   8.455   0.184   3.838  0.7673 -1.3418  1.1751
11293SOL     OW45097   8.164   9.058   4.148  0.1278 -0.2257  0.0148
11293SOL    HW145098   8.161   9.019   4.056 -1.3984  0.1317 -0.1023
11293SOL    HW245099   8.123   8.993   4.213 -3.5332  1.5642 -0.3592
11294SOL     OW45100   5.177   5.768   8.050  0.3733  0.1218 -1.0384
11294SOL    HW145101   5.235   5.847   8.071  1.0011 -0.7445  0.6174
11294SOL    HW245102   5.180   5.749   7.952  2.2870  0.5679 -1.0830
11295SOL     OW45103   4.678   0.015   1.007  0.0437  0.4507 -0.0542
11295SOL    HW145104   4.630  -0.058   1.055  1.3278 -1.0642 -1.0228
11295SOL    HW245105   4.627   0.041   0.926  0.3396 -0.4524 -0.5356
11296SOL     OW45106   4.392   2.187   0.675 -0.1442 -0.4605  0.4059
11296SOL    HW145107   4.391   2.169   0.773  0.8318 -1.1520  0.3032
11296SOL    HW245108   4.334   2.265   0.654 -0.4424 -0.3805  1.5210
11297SOL     OW45109   0.992   8.904   5.796  0.0210 -0.5766 -0.0082
11297SOL    HW145110   1.091   8.921   5.790  0.2522 -1.9268 -0.2626
11297SOL    HW245111   0.965   8.901   5.892  0.2752 -0.5050  0.0685
11298SOL     OW45112   8.721   3.135   6.161  0.0809  0.2939  0.1777
11298SOL    HW145113   8.623   3.142   6.178 -0.0135 -0.9829  0.1777
11298SOL    HW245114   8.769   3.201   6.219 -0.6485 -0.3353  1.5251
11299SOL     OW45115   7.537   9.702   3.275 -0.9189 -0.3007  0.1525
11299SOL    HW145116   7.529   9.727   3.371 -1.1290 -1.1946  0.3690
11299SOL    HW245117   7.452   9.725   3.228 -0.6981  0.4338  0.1103
11300SOL     OW45118   5.220   1.051   2.795 -0.4580 -0.2725 -0.3351
11300SOL    HW145119   5.215   1.146   2.763  0.9220 -0.6557 -1.7449
11300SOL    HW245120   5.215   1.049   2.895 -1.5631  1.1973 -0.3458
11301SOL     OW45121   6.341   3.235   5.065 -0.1504  0.5223 -0.0897
11301SOL    HW145122   6.354   3.217   4.967  0.1366  2.2094 -0.3692
11301SOL    HW245123   6.425   3.210   5.114  0.1800  0.9451 -0.4425
11302SOL     OW45124   2.999   9.671   4.697 -0.0594 -0.5883  0.1589
11302SOL    HW145125   2.944   9.603   4.746  1.6709 -2.0435  0.1081
11302SOL    HW245126   2.940   9.748   4.671 -1.8244 -1.5727  1.1165
11303SOL     OW45127   2.529   6.307   3.806  0.0876 -0.2339 -0.0929
11303SOL    HW145128   2.559   6.350   3.891  0.3384  0.7102 -0.6581
11303SOL    HW245129   2.608   6.289   3.747  0.0093 -1.6063  0.1889
11304SOL     OW45130   4.590   8.929   1.721  0.2279  0.1861  0.5338
11304SOL    HW145131   4.591   8.946   1.623 -0.1699  1.6560  0.7763
11304SOL    HW245132   4.507   8.969   1.761  0.1078 -0.8749  1.3890
11305SOL     OW45133   3.958   2.118   0.935 -0.1564 -0.4591  0.2564
11305SOL    HW145134   3.876   2.087   0.982 -0.6544  0.0456 -0.2674
11305SOL    HW245135   3.938   2.131   0.838  0.4106  0.1216  0.2103
11306SOL     OW45136   2.474   1.667   5.093 -0.2315 -0.3087 -0.3222
11306SOL    HW145137   2.524   1.669   5.007  0.5761  0.0522  0.1506
11306SOL    HW245138   2.385   1.713   5.081 -0.1700 -0.3592 -0.9840
11307SOL     OW45139   4.221   2.069   1.497 -0.3859 -0.4613 -0.0041
11307SOL    HW145140   4.234   2.139   1.568 -0.2399 -0.1240 -0.3560
11307SOL    HW245141   4.269   2.098   1.414 -0.2631 -1.0196 -0.1286
11308SOL     OW45142   9.212   0.548   5.376 -0.3291 -0.6238  0.3028
11308SOL    HW145143   9.241   0.501   5.293 -1.0144 -0.7596  0.1353
11308SOL    HW245144   9.133   0.607   5.356  0.8623  1.0244  0.3887
11309SOL     OW45145   2.217   1.256   5.790 -0.3990 -0.1093 -0.5733
11309SOL    HW145146   2.144   1.228   5.728 -0.3617 -1.9032  0.1800
11309SOL    HW245147   2.253   1.176   5.839  0.2361  1.1339  1.0437
11310SOL     OW45148   2.314   9.019   1.358 -0.2978 -0.2195  0.3765
11310SOL    HW145149   2.252   9.063   1.423 -0.4095  1.3944 -0.7966
11310SOL    HW245150   2.270   8.939   1.319 -0.7023 -0.4885  1.3611
11311SOL     OW45151   9.780   2.216   3.711 -0.2871 -0.2197 -0.2158
11311SOL    HW145152   9.711   2.268   3.762  0.7056 -0.2378  1.1764
11311SOL    HW245153   9.807   2.135   3.763 -0.3625 -1.0721 -1.4723
11312SOL     OW45154   8.907   8.930   0.060  0.1821 -0.1349 -0.0246
11312SOL    HW145155   8.977   8.889   0.119 -1.4074 -0.1199  1.9369
11312SOL    HW245156   8.848   8.858   0.024 -0.3134  0.0829  0.3501
11313SOL     OW45157   8.424   1.500   6.265  0.1331  0.2595 -0.1680
11313SOL    HW145158   8.387   1.586   6.300 -0.1083  0.7552 -1.6138
11313SOL    HW245159   8.457   1.514   6.171  2.2306 -0.6369  0.4009
11314SOL     OW45160   2.856   9.254   1.055 -0.5420 -0.1992 -0.3116
11314SOL    HW145161   2.820   9.201   1.131 -0.1866  0.0550  0.0382
11314SOL    HW245162   2.932   9.204   1.013  0.1198  0.2602  0.3362
11315SOL     OW45163   1.759   4.136   2.637 -0.2557 -0.0236  0.2689
11315SOL    HW145164   1.836   4.169   2.691 -0.3803  0.7848 -0.0466
11315SOL    HW245165   1.675   4.141   2.691 -0.1084 -0.7971  0.5738
11316SOL     OW45166   1.423   4.619   3.629  0.0533 -0.1804 -0.4854
11316SOL    HW145167   1.450   4.523   3.625  1.2779  0.2253 -2.4334
11316SOL    HW245168   1.440   4.655   3.721  0.0107 -1.6880  0.1228
11317SOL     OW45169   6.894   8.131   2.858  0.1540  0.0436 -0.0232
11317SOL    HW145170   6.923   8.037   2.840 -1.1604 -0.5431  0.8142
11317SOL    HW245171   6.971   8.183   2.897  1.4782 -0.0983 -2.3880
11318SOL     OW45172   6.951   5.807   0.710 -0.1585  0.1769  0.0562
11318SOL    HW145173   6.881   5.753   0.756 -0.3916  0.2033 -0.2619
11318SOL    HW245174   6.908   5.885   0.663 -0.1094 -0.5922 -1.3134
11319SOL     OW45175   4.649   4.412   0.266  0.2566  0.1286 -0.0222
11319SOL    HW145176   4.603   4.379   0.183  0.3696  1.3106 -0.5694
11319SOL    HW245177   4.729   4.466   0.239  0.6296  0.0223  0.8781
11320SOL     OW45178   9.111   9.911   4.621 -0.0294 -0.0022  0.0756
11320SOL    HW145179   9.178   9.901   4.547  0.9883 -0.1759  1.0062
11320SOL    HW245180   9.105   9.825   4.672 -0.7625  0.1006  0.1724
11321SOL     OW45181   8.545   8.690   6.078 -0.2912 -0.0221 -0.1597
11321SOL    HW145182   8.458   8.735   6.058 -0.3588 -0.6299 -1.2818
11321SOL    HW245183   8.529   8.597   6.111 -0.0371 -0.7864 -2.1086
11322SOL     OW45184   0.230   6.600   4.614 -0.1727  0.6988 -0.4889
11322SOL    HW145185   0.301   6.570   4.551  0.5615  0.6955  0.3306
11322SOL    HW245186   0.165   6.526   4.629  1.6987 -0.5669  1.6274
11323SOL     OW45187   4.163   4.769   1.400 -0.2991 -0.0713  0.2219
11323SOL    HW145188   4.126   4.679   1.425  1.0642 -0.8420 -0.5129
11323SOL    HW245189   4.255   4.779   1.437 -0.4852  1.0753  0.3909
11324SOL     OW45190   2.879   6.137   5.289  0.4915  0.3329  0.2266
11324SOL    HW145191   2.875   6.038   5.278  1.0738  0.1455  1.6327
11324SOL    HW245192   2.969   6.163   5.325  0.1098  1.3049  0.4832
11325SOL     OW45193   6.008   9.069   3.067  0.5838 -0.0046  0.4519
11325SOL    HW145194   6.000   9.161   3.107  0.0768  0.4783 -0.7191
11325SOL    HW245195   5.974   9.001   3.133 -0.9466  0.8399  0.5755
11326SOL     OW45196   6.548   3.253   3.642  0.0976  0.3959 -0.0966
11326SOL    HW145197   6.592   3.318   3.580 -0.1002  0.0366 -0.6151
11326SOL    HW245198   6.581   3.269   3.735  1.8554 -0.3038 -0.5692
11327SOL     OW45199   2.558   2.696   1.090 -0.0394  0.1209  0.5035
11327SOL    HW145200   2.509   2.781   1.071  0.4014  0.6547  1.6879
11327SOL    HW245201   2.509   2.620   1.047 -0.8224  0.8821  0.0154
11328SOL     OW45202   7.526   2.023   5.436 -0.1751  0.1852 -0.5148
11328SOL    HW145203   7.568   2.081   5.366  0.5955  0.4246  0.1422
11328SOL    HW245204   7.596   1.993   5.501 -0.7882 -0.4961 -0.1666
11329SOL     OW45205   7.341   9.921   3.157 -0.2821 -0.4408 -0.4487
11329SOL    HW145206   7.333   9.829   3.118 -1.7951 -1.2809  1.7021
11329SOL    HW245207   7.323   9.989   3.086  1.3898 -1.7782 -2.1929
11330SOL     OW45208   7.521   1.639   2.350 -0.6191  0.0703  0.1550
11330SOL    HW145209   7.534   1.545   2.318 -2.9537  0.5229 -2.2643
11330SOL    HW245210   7.604   1.670   2.396  1.7663 -1.7307 -2.7276
11331SOL     OW45211   3.312   7.308   2.113  0.1002  0.5922 -0.3490
11331SOL    HW145212   3.357   7.334   2.198  0.2848 -1.3275  0.1651
11331SOL    HW245213   3.239   7.373   2.092  0.9014  1.8019  0.5872
11332SOL     OW45214   4.140   5.619   1.560  0.4176 -0.5409  0.1246
11332SOL    HW145215   4.230   5.588   1.590  0.5756  1.3627  1.7387
11332SOL    HW245216   4.151   5.699   1.500 -0.1653 -0.8003 -0.3309
11333SOL     OW45217   9.832   7.958   0.241  0.5794 -0.1333 -0.2227
11333SOL    HW145218   9.889   7.970   0.323 -0.7773  0.1154  0.7071
11333SOL    HW245219   9.764   8.031   0.238  0.9640  0.1735 -1.8846
11334SOL     OW45220   5.205   7.601   5.418 -0.0122 -0.4508  0.0217
11334SOL    HW145221   5.123   7.616   5.473 -0.8220  2.3156 -1.8814
11334SOL    HW245222   5.183   7.612   5.321  2.4125 -0.6504 -0.5764
11335SOL     OW45223   8.270   4.847   4.288 -0.0418 -0.7631 -0.2472
11335SOL    HW145224   8.299   4.867   4.381  2.6250  0.5254 -1.3091
11335SOL    HW245225   8.228   4.756   4.284  1.2611 -1.4748  1.8954
11336SOL     OW45226   1.336   6.169   0.291 -0.4982 -0.2115  0.1449
11336SOL    HW145227   1.266   6.097   0.293  0.0909 -0.8046 -0.1657
11336SOL    HW245228   1.421   6.133   0.330  0.1386 -0.0634 -1.0884
11337SOL     OW45229   3.486   3.204   5.975  0.4081  0.1906  0.2773
11337SOL    HW145230   3.476   3.142   6.053  0.2596  1.3938  1.2253
11337SOL    HW245231   3.396   3.223   5.937  0.4661 -0.2708 -0.1025
11338SOL     OW45232   2.255   1.974   3.243  0.6034  0.3620 -0.0927
11338SOL    HW145233   2.227   2.070   3.245  1.5120  0.6354 -0.6072
11338SOL    HW245234   2.348   1.965   3.277 -0.0452 -0.5449  1.4827
11339SOL     OW45235   8.099   5.883   5.581  0.0598 -0.5372 -0.3666
11339SOL    HW145236   8.071   5.790   5.602 -0.4529 -0.5218 -0.9573
11339SOL    HW245237   8.122   5.889   5.483  0.4737 -0.1418 -0.2456
11340SOL     OW45238   7.842   4.155   1.025 -0.0743  0.2386 -0.5717
11340SOL    HW145239   7.747   4.165   1.053  0.8317 -0.8034  3.0632
11340SOL    HW245240   7.863   4.222   0.953 -2.6142  2.8257  1.0070
11341SOL     OW45241   7.541   7.710   4.902 -0.2060 -0.7336 -0.2852
11341SOL    HW145242   7.530   7.730   5.000  2.8868  2.6450 -0.5613
11341SOL    HW245243   7.457   7.734   4.854 -0.5052  0.9503  1.0348
11342SOL     OW45244   1.656   9.419   2.325 -0.1566  0.0265 -0.3642
11342SOL    HW145245   1.591   9.491   2.349  0.0748 -0.0569  0.5249
11342SOL    HW245246   1.741   9.460   2.291  0.0121  0.1779  0.2374
11343SOL     OW45247   5.053   8.637   2.515 -0.1915  0.0114  0.6240
11343SOL    HW145248   5.070   8.631   2.417  0.7535 -2.0074  0.8980
11343SOL    HW245249   5.123   8.696   2.557  0.0450  0.0080  0.2395
11344SOL     OW45250   7.579   2.910   2.219  0.4315 -0.2894  0.1228
11344SOL    HW145251   7.553   2.886   2.313  0.2498 -0.7281 -0.0357
11344SOL    HW245252   7.672   2.946   2.218 -0.3789  1.9418  0.8049
11345SOL     OW45253   0.249   9.623   2.604  0.9883  0.0352 -0.1449
11345SOL    HW145254   0.262   9.524   2.608 -1.9714 -0.3935  0.0894
11345SOL    HW245255   0.244   9.652   2.508 -1.6337 -0.5955 -0.2328
11346SOL     OW45256   4.905   2.527   4.784  0.6261  0.4031 -0.0074
11346SOL    HW145257   4.892   2.624   4.763 -1.2140  0.2161  0.1327
11346SOL    HW245258   4.820   2.490   4.821  1.4249 -1.1835  0.2745
11347SOL     OW45259   5.236   0.473   1.909  0.1734 -0.4026 -0.2271
11347SOL    HW145260   5.180   0.422   1.974 -0.3357  1.0470  0.4786
11347SOL    HW245261   5.333   0.461   1.931  0.2774 -3.9876 -2.2255
11348SOL     OW45262   5.124   1.577   3.624 -0.2292  0.0624  0.2016
11348SOL    HW145263   5.156   1.484   3.606 -1.2794  0.0298 -1.5078
11348SOL    HW245264   5.047   1.574   3.688  0.8747 -0.0911  1.5669
11349SOL     OW45265   0.204   5.332   5.190  0.1187  0.0649  0.4241
11349SOL    HW145266   0.289   5.297   5.231  0.7429  0.4593 -0.5327
11349SOL    HW245267   0.134   5.261   5.195  1.4077 -1.3933 -1.5999
11350SOL     OW45268   0.600   2.581   0.463  0.6237  0.2223 -0.1972
11350SOL    HW145269   0.523   2.565   0.525  0.4801 -0.1847 -0.4852
11350SOL    HW245270   0.605   2.679   0.442  1.0640  0.4635  0.9684
11351SOL     OW45271   8.601   8.674   5.434 -0.4214 -0.0957  0.3739
11351SOL    HW145272   8.682   8.725   5.404  0.4659 -1.4797  0.3691
11351SOL    HW245273   8.530   8.680   5.363 -0.4858  1.4588  0.5586
11352SOL     OW45274   4.041   5.605   2.427  0.3118  0.2865  0.2145
11352SOL    HW145275   3.955   5.563   2.399  2.2756 -3.3908 -0.6548
11352SOL    HW245276   4.060   5.583   2.522  0.5438  0.6278  0.2489
11353SOL     OW45277   0.276   2.946   6.333  0.4897  0.5556 -0.4284
11353SOL    HW145278   0.305   2.857   6.297  0.3128 -0.1248  1.0691
11353SOL    HW245279   0.327   3.019   6.287  4.2161 -0.5637  1.6962
11354SOL     OW45280   6.839   0.620   6.271  0.0304 -0.2356  0.2406
11354SOL    HW145281   6.765   0.656   6.328  0.5712  3.0944 -1.0905
11354SOL    HW245282   6.799   0.571   6.193 -0.7326 -0.0999  0.5418
11355SOL     OW45283   9.510   8.152   2.452 -0.0953  0.7800 -0.2006
11355SOL    HW145284   9.480   8.246   2.440 -1.7807  0.1932 -0.8112
11355SOL    HW245285   9.484   8.120   2.543  0.7593  0.9992  0.1245
11356SOL     OW45286   7.282   1.842   0.112 -0.6069 -0.1519 -0.0747
11356SOL    HW145287   7.212   1.771   0.121  0.0325 -0.8245 -0.4055
11356SOL    HW245288   7.322   1.861   0.202  0.1850 -1.1925 -0.2014
11357SOL     OW45289   3.859   8.687   0.449  0.5269 -0.2793  0.1511
11357SOL    HW145290   3.789   8.736   0.397  1.4137 -1.0057 -1.7812
11357SOL    HW245291   3.839   8.589   0.447  0.9459 -0.3731  0.5968
11358SOL     OW45292   0.879   0.600   0.922 -0.1349  0.3536  0.0885
11358SOL    HW145293   0.966   0.566   0.886 -0.3875 -0.2414  0.0355
11358SOL    HW245294   0.825   0.523   0.957 -1.4503  0.4893 -1.6172
11359SOL     OW45295   6.922   0.724   3.769 -0.4297  0.2981 -0.1238
11359SOL    HW145296   6.920   0.639   3.717  1.1609  1.3010 -1.8679
11359SOL    HW245297   6.969   0.795   3.716 -0.8690  1.9992  1.7026
11360SOL     OW45298   8.202   8.404   4.079  0.3938  0.8906 -0.1349
11360SOL    HW145299   8.167   8.403   3.985 -2.9463  0.4975  1.0326
11360SOL    HW245300   8.226   8.311   4.106  0.6573  0.8927 -0.3593
11361SOL     OW45301   2.459   0.408   0.331 -0.0763 -0.2231  0.4557
11361SOL    HW145302   2.378   0.369   0.288 -0.0718 -0.2838  0.5049
11361SOL    HW245303   2.465   0.505   0.307 -1.2719  0.2730  2.1212
11362SOL     OW45304   7.066   3.051   2.266  0.0426  0.2677  0.2219
11362SOL    HW145305   7.156   3.008   2.275 -0.2396 -0.3333  0.1931
11362SOL    HW245306   7.055   3.118   2.339  0.2578 -0.1236  0.6213
11363SOL     OW45307   0.202   8.381   1.831 -0.1879  0.3581  0.1208
11363SOL    HW145308   0.113   8.407   1.870  0.4987  1.4995  0.9316
11363SOL    HW245309   0.256   8.462   1.812  0.6806 -0.3305 -0.4066
11364SOL     OW45310   7.202   1.806   1.407  0.3630 -0.6160  0.2246
11364SOL    HW145311   7.249   1.850   1.330 -1.3593  0.9136  0.0087
11364SOL    HW245312   7.233   1.848   1.493 -2.0806  1.8950 -0.0458
11365SOL     OW45313   1.908   7.060   1.381  0.5327 -0.3301  0.2669
11365SOL    HW145314   2.004   7.030   1.379 -0.5479 -3.9851 -1.4664
11365SOL    HW245315   1.868   7.048   1.290 -1.5984  1.0810  0.9970
11366SOL     OW45316   7.917   2.065   5.569 -0.0938  0.4167  0.2682
11366SOL    HW145317   7.840   2.123   5.543 -0.6520 -1.2698 -1.9799
11366SOL    HW245318   7.996   2.088   5.513 -0.3786 -1.0889 -0.7911
11367SOL     OW45319   4.631   5.910   3.190  0.0716  0.1908 -0.0271
11367SOL    HW145320   4.585   5.961   3.117 -0.1829 -2.1258 -1.5413
11367SOL    HW245321   4.713   5.961   3.219  0.3602  1.0179 -2.1426
11368SOL     OW45322   0.195   1.108   1.044  0.1368 -0.2595 -0.3149
11368SOL    HW145323   0.252   1.167   1.100 -1.5831  0.9037  0.2433
11368SOL    HW245324   0.142   1.047   1.103 -0.5643 -0.0650 -0.7332
11369SOL     OW45325   9.251   6.706   4.402 -0.5211  0.1663 -0.1334
11369SOL    HW145326   9.250   6.806   4.407  2.0398  0.2288 -0.0627
11369SOL    HW245327   9.338   6.672   4.438 -1.0312 -2.0522 -0.9204
11370SOL     OW45328   8.813   5.175   3.772 -0.3672 -0.6129 -0.1942
11370SOL    HW145329   8.748   5.150   3.700 -0.9128  1.1702 -0.3543
11370SOL    HW245330   8.814   5.275   3.782  1.5580 -0.6870  0.5441
11371SOL     OW45331   1.214   2.418   2.343 -0.5141  0.4058  0.2867
11371SOL    HW145332   1.308   2.385   2.347 -0.7860 -0.2719  1.1690
11371SOL    HW245333   1.153   2.349   2.382 -1.2120  1.4479  1.0652
11372SOL     OW45334   3.995   0.175   2.478 -0.6162  0.2753  0.0239
11372SOL    HW145335   3.997   0.140   2.571  0.0911  1.3554  0.4329
11372SOL    HW245336   3.941   0.259   2.475  1.0861  1.3921 -0.1043
11373SOL     OW45337   8.207   4.455   0.483  0.6114  0.3739 -0.3671
11373SOL    HW145338   8.152   4.491   0.558  1.0465 -0.0299  0.1533
11373SOL    HW245339   8.183   4.359   0.467 -1.1910  1.1137 -2.3519
11374SOL     OW45340   0.194   7.502   1.098 -0.7050  0.0013 -0.1755
11374SOL    HW145341   0.131   7.452   1.039 -2.2357  0.5758  0.9429
11374SOL    HW245342   0.255   7.438   1.144 -0.2109 -0.5309 -1.5380
11375SOL     OW45343   1.377   3.859   4.110  0.0988 -0.0670 -0.3754
11375SOL    HW145344   1.340   3.862   4.017  1.1440 -0.7684 -0.8146
11375SOL    HW245345   1.411   3.768   4.130  0.3767  0.2239  0.5088
11376SOL     OW45346   3.164   9.402   4.895 -0.7411 -0.0151  0.0635
11376SOL    HW145347   3.076   9.367   4.927 -1.6805  2.1462 -0.1115
11376SOL    HW245348   3.218   9.326   4.860 -2.1762 -1.5037  0.9914
11377SOL     OW45349   9.047   2.576   1.431 -0.0901  0.1958  0.0359
11377SOL    HW145350   9.042   2.545   1.526  0.5209 -1.5183 -0.4778
11377SOL    HW245351   9.128   2.634   1.420 -0.3709  0.7138  0.6354
11378SOL     OW45352   3.115   7.478   2.025  0.8637  0.1152  0.5370
11378SOL    HW145353   3.149   7.509   1.936  1.6863 -2.2185  0.0031
11378SOL    HW245354   3.127   7.551   2.092  2.2696  1.1396 -0.7823
11379SOL     OW45355   0.697   7.543   3.173  0.5764  0.0399  0.3974
11379SOL    HW145356   0.642   7.463   3.151  0.6236  0.0810  0.1283
11379SOL    HW245357   0.771   7.516   3.235  0.3900 -0.0580  0.5778
11380SOL     OW45358   1.058   0.724   0.185 -0.4724 -0.1278 -0.4573
11380SOL    HW145359   1.094   0.670   0.109 -0.5465 -2.9962  1.5048
11380SOL    HW245360   1.131   0.784   0.220  0.2970 -0.6718 -1.1068
11381SOL     OW45361   2.217   0.161   0.592 -0.4282  0.4421  0.2291
11381SOL    HW145362   2.297   0.112   0.555 -0.2289  1.2550 -0.4404
11381SOL    HW245363   2.213   0.147   0.691 -0.5827 -1.2165 -0.0016
11382SOL     OW45364   3.529   6.116   4.173 -0.5143  0.4545 -0.0670
11382SOL    HW145365   3.606   6.155   4.225 -0.2817  1.1029 -0.8862
11382SOL    HW245366   3.484   6.046   4.228  0.1850  0.6184  0.7263
11383SOL     OW45367   5.851   0.156   6.419 -0.3739 -0.0903 -0.1143
11383SOL    HW145368   5.863   0.088   6.492 -0.2011  0.2414  0.1650
11383SOL    HW245369   5.776   0.218   6.442 -2.1643 -1.6659 -1.4941
11384SOL     OW45370   5.908   7.372   5.134  0.4191  0.1993 -0.0719
11384SOL    HW145371   5.891   7.440   5.206 -2.2579  1.2383 -1.6405
11384SOL    HW245372   5.899   7.281   5.173 -1.4205  0.7461  0.8604
11385SOL     OW45373   0.218   9.541   6.038  0.1125  0.1446 -0.3122
11385SOL    HW145374   0.248   9.464   6.094 -0.4691  0.2929  0.2062
11385SOL    HW245375   0.263   9.625   6.068  0.2009  0.1321 -0.4096
11386SOL     OW45376   3.024   9.792   0.863  0.0134 -0.7110 -0.0047
11386SOL    HW145377   3.106   9.760   0.815  0.5707  0.4578  0.1408
11386SOL    HW245378   3.026   9.892   0.869 -1.5373 -0.6624 -0.1928
11387SOL     OW45379   6.794   1.689   7.552 -0.4287  0.5368 -0.5557
11387SOL    HW145380   6.748   1.745   7.621 -1.4313  0.7295 -1.3690
11387SOL    HW245381   6.846   1.616   7.597 -1.4483  0.3823  0.3818
11388SOL     OW45382   7.713   0.886   0.363 -0.0524 -0.2996 -0.1044
11388SOL    HW145383   7.679   0.933   0.445  0.1489 -0.7634  0.2538
11388SOL    HW245384   7.647   0.816   0.335  0.3399 -0.8233  0.2632
11389SOL     OW45385   9.527   2.018   3.257  0.5811  0.1291  0.2871
11389SOL    HW145386   9.539   2.016   3.157  1.0136  2.4671  0.2653
11389SOL    HW245387   9.458   2.085   3.281 -1.5048 -2.3503  1.4379
11390SOL     OW45388   8.657   7.640   5.978  0.3736  0.6872  0.0183
11390SOL    HW145389   8.714   7.685   5.909 -0.8652  2.4907  0.1425
11390SOL    HW245390   8.573   7.606   5.935  1.5555 -2.1344 -0.2063
11391SOL     OW45391   4.190   6.711   2.387  0.6133 -0.2608  0.3250
11391SOL    HW145392   4.253   6.661   2.447  0.4185 -0.2940  0.5048
11391SOL    HW245393   4.238   6.738   2.304  1.2136  0.7790  0.9998
11392SOL     OW45394   5.313   0.852   4.960 -0.7005  0.2009  0.3454
11392SOL    HW145395   5.276   0.783   5.022 -0.3069  0.6015  1.0301
11392SOL    HW245396   5.272   0.840   4.869 -0.4022 -1.1362  0.3700
11393SOL     OW45397   2.812   3.048   3.222  0.3045  0.0756  0.3631
11393SOL    HW145398   2.780   3.023   3.313 -0.0370 -1.2267 -0.0914
11393SOL    HW245399   2.891   2.991   3.197  2.0766  2.2416  0.8773
11394SOL     OW45400   2.259   7.442   3.806 -0.8943 -0.0687 -0.1186
11394SOL    HW145401   2.177   7.398   3.768 -0.8872  1.5621 -2.1195
11394SOL    HW245402   2.341   7.404   3.762 -0.7059 -0.1249  0.2772
11395SOL     OW45403   2.976   1.159   5.302 -0.2817  0.2328 -0.3520
11395SOL    HW145404   3.000   1.117   5.214 -1.0131  0.9093 -0.8776
11395SOL    HW245405   3.050   1.221   5.330  0.5725 -1.0068  0.1805
11396SOL     OW45406   4.939   2.577   1.402 -0.2305 -0.4837  0.6745
11396SOL    HW145407   4.968   2.483   1.422 -0.3783 -0.3493  1.5516
11396SOL    HW245408   4.865   2.602   1.465  0.7151  0.6849  1.3440
11397SOL     OW45409   2.905   9.779   4.353  0.0421 -0.1723 -0.1223
11397SOL    HW145410   2.897   9.682   4.376 -0.7136  0.5597  2.9380
11397SOL    HW245411   2.820   9.827   4.378  0.4516  1.2887 -1.4614
11398SOL     OW45412   0.750   1.920   3.433  0.6952 -0.2260  0.1746
11398SOL    HW145413   0.728   1.944   3.528 -0.4972  0.2285 -0.1953
11398SOL    HW245414   0.683   1.854   3.399 -0.6038  1.7311 -1.2154
11399SOL     OW45415   8.554   3.285   1.942  0.2129  0.3821 -0.0385
11399SOL    HW145416   8.502   3.262   2.024  1.2449 -0.3009  0.4416
11399SOL    HW245417   8.591   3.201   1.902  2.1612  0.9679  0.4651
11400SOL     OW45418   0.630   6.290   4.234  0.3888  0.0412  0.3093
11400SOL    HW145419   0.603   6.287   4.137 -0.2333 -0.2579  0.4884
11400SOL    HW245420   0.593   6.210   4.281  0.1864  0.5034  0.9285
11401SOL     OW45421   2.595   8.063   2.521 -0.1720 -0.2732 -0.0675
11401SOL    HW145422   2.556   8.109   2.600 -0.2328 -0.5417  0.0613
11401SOL    HW245423   2.602   8.127   2.444  1.4867  0.4589  0.6659
11402SOL     OW45424   5.096   9.629   4.931  0.5934  0.1122 -0.8361
11402SOL    HW145425   5.024   9.644   4.863 -0.7021 -0.8217  0.2960
11402SOL    HW245426   5.158   9.558   4.899 -1.6415 -2.3432  0.1510
11403SOL     OW45427   4.382   5.841   2.115  0.3188  0.3353  0.1064
11403SOL    HW145428   4.331   5.820   2.198  1.2673 -1.2970  0.3038
11403SOL    HW245429   4.426   5.758   2.081 -0.2134  0.9411 -2.1495
11404SOL     OW45430   8.293   5.598   3.498  0.6351  0.2936 -0.6996
11404SOL    HW145431   8.299   5.536   3.576  1.7772  0.5827 -0.5518
11404SOL    HW245432   8.221   5.567   3.437  0.8395 -0.8809 -0.3600
11405SOL     OW45433   4.311   6.912   3.157 -0.0994 -0.5694  0.0278
11405SOL    HW145434   4.272   6.897   3.066 -0.3368 -2.4979  0.4192
11405SOL    HW245435   4.316   6.824   3.206  0.2833  0.4001  1.7700
11406SOL     OW45436   4.155   3.842   5.596  0.4832  0.4550 -0.1204
11406SOL    HW145437   4.162   3.849   5.696  0.4096  1.2969 -0.1751
11406SOL    HW245438   4.116   3.926   5.559  2.1828  0.8755 -1.0245
11407SOL     OW45439   6.113   9.889   1.999  0.1783  0.6717 -0.4740
11407SOL    HW145440   6.200   9.937   1.989  0.9710 -0.8058 -0.8000
11407SOL    HW245441   6.080   9.899   2.093  1.7623 -0.5138  0.2318
11408SOL     OW45442   3.102   8.727   4.852 -0.9204 -0.3991 -0.1557
11408SOL    HW145443   3.117   8.628   4.848  0.7943 -0.1127 -1.7045
11408SOL    HW245444   3.164   8.767   4.920  0.3238 -0.0738 -1.4683
11409SOL     OW45445   9.085   6.758   1.044 -0.3826 -0.0814  0.5094
11409SOL    HW145446   9.039   6.784   0.959  0.0425 -3.3581 -0.7964
11409SOL    HW245447   9.161   6.820   1.062 -0.6511  0.8209 -1.3765
11410SOL     OW45448   6.554   8.130   5.479 -0.5664  0.2528  0.4734
11410SOL    HW145449   6.610   8.056   5.441 -1.4653 -0.0796 -0.2332
11410SOL    HW245450   6.523   8.105   5.571 -0.5878 -0.1044  0.3697
11411SOL     OW45451   1.752   6.133   5.526 -0.1495 -0.7479  0.1714
11411SOL    HW145452   1.823   6.129   5.596 -0.0748  1.8023  0.2701
11411SOL    HW245453   1.780   6.077   5.448  2.6123  1.2543 -0.3442
11412SOL     OW45454   0.506   4.243   1.931  0.0105 -0.0707  0.0066
11412SOL    HW145455   0.469   4.336   1.934 -0.5373 -0.3088  1.4249
11412SOL    HW245456   0.438   4.180   1.969  1.4958 -0.6377  1.7734
11413SOL     OW45457   1.748   1.791   1.935 -0.5559  0.1267 -0.1527
11413SOL    HW145458   1.819   1.843   1.889  0.2330  0.3243  1.2610
11413SOL    HW245459   1.666   1.789   1.878 -0.1494  1.7675 -0.8195
11414SOL     OW45460   7.813   1.648   2.215 -0.0473 -0.1586  0.4598
11414SOL    HW145461   7.841   1.690   2.301  1.0863 -1.7668  0.9138
11414SOL    HW245462   7.876   1.675   2.142  2.1013 -2.8370  1.2359
11415SOL     OW45463   3.172   5.310   0.527  0.3229  0.0812  0.4673
11415SOL    HW145464   3.102   5.320   0.597  0.6645 -0.6102  0.9061
11415SOL    HW245465   3.129   5.294   0.438 -0.0800  0.1050  0.6620
11416SOL     OW45466   8.238   1.360   6.415 -0.2326 -0.2855  0.3226
11416SOL    HW145467   8.174   1.425   6.457 -0.0986  0.9288 -1.3142
11416SOL    HW245468   8.306   1.410   6.362 -0.1797 -1.7692 -1.0529
11417SOL     OW45469   8.576   3.283   3.114  0.3325  0.0096 -0.5473
11417SOL    HW145470   8.545   3.192   3.140 -1.7273  1.1840  1.2489
11417SOL    HW245471   8.510   3.324   3.050 -0.0898  1.2177  0.6519
11418SOL     OW45472   2.524   6.213   5.895  0.2689 -0.4848  0.2044
11418SOL    HW145473   2.575   6.269   5.961  0.8897 -1.8637  0.9204
11418SOL    HW245474   2.560   6.229   5.803 -0.1918  0.9935  0.2717
11419SOL     OW45475   7.594   6.371   2.950  0.0203 -0.1650  0.1089
11419SOL    HW145476   7.648   6.341   3.029 -0.3776 -0.9139  0.1015
11419SOL    HW245477   7.513   6.419   2.982  0.1538  0.0335  0.1462
11420SOL     OW45478   2.096   1.897   5.356  0.3536 -0.0907 -0.0069
11420SOL    HW145479   2.129   1.981   5.399  0.5973  1.2651 -2.7631
11420SOL    HW245480   2.013   1.917   5.304 -0.4673 -1.8970  0.5653
11421SOL     OW45481   2.394   5.424   3.679 -0.5243 -0.1502 -0.2884
11421SOL    HW145482   2.472   5.430   3.741 -0.4905 -0.2421 -0.3229
11421SOL    HW245483   2.413   5.356   3.608 -0.4364  0.1706 -0.5778
11422SOL     OW45484   4.175   8.801   4.908 -0.2803 -0.0992  0.1796
11422SOL    HW145485   4.233   8.741   4.854  1.7364  1.7545  0.1990
11422SOL    HW245486   4.190   8.896   4.879 -4.8009  0.2969 -1.1856
11423SOL     OW45487   7.808   9.485   2.853 -0.5210 -0.1620 -0.2868
11423SOL    HW145488   7.814   9.458   2.949  0.9177 -0.4060 -0.4397
11423SOL    HW245489   7.818   9.584   2.845 -0.5796 -0.1490 -0.1998
11424SOL     OW45490   8.384   8.256   2.584 -0.4625 -0.0886  0.9999
11424SOL    HW145491   8.426   8.322   2.522 -0.1624  0.4172  1.7292
11424SOL    HW245492   8.363   8.172   2.535  0.2110  0.1360  0.3255
11425SOL     OW45493   8.823   9.594   4.718  0.2257 -0.1942  0.8414
11425SOL    HW145494   8.922   9.594   4.702  0.4342 -2.2502  1.9580
11425SOL    HW245495   8.776   9.625   4.636  1.7830  0.6085  0.2282
11426SOL     OW45496   4.056   6.999   2.023  0.1463 -0.1267  0.5125
11426SOL    HW145497   4.043   7.012   1.924  0.3519 -0.6477  0.4130
11426SOL    HW245498   4.024   6.908   2.048  1.2585 -0.4652  0.7054
11427SOL     OW45499   1.165   5.532   4.266 -0.0058  0.0980  0.0470
11427SOL    HW145500   1.261   5.546   4.290  0.0174 -2.2624  1.5256
11427SOL    HW245501   1.107   5.556   4.344 -0.5376  0.4289 -0.4442
11428SOL     OW45502   9.263   1.456   5.355 -0.4778  0.6734  0.3584
11428SOL    HW145503   9.359   1.475   5.334 -0.8205  3.3047  0.9908
11428SOL    HW245504   9.220   1.415   5.275  0.9384  0.3919 -0.2840
11429SOL     OW45505   7.058   6.958   5.781 -0.0488 -0.2001  0.3516
11429SOL    HW145506   7.053   6.863   5.813  1.7086  0.1035  1.5844
11429SOL    HW245507   7.136   6.968   5.719  0.5501  0.7434  1.2557
11430SOL     OW45508   8.565   7.663   1.916  0.1739 -0.8615 -0.1440
11430SOL    HW145509   8.528   7.739   1.969 -0.2504 -0.8438 -0.4643
11430SOL    HW245510   8.557   7.684   1.818 -0.6230 -1.6385 -0.2533
11431SOL     OW45511   2.576   2.328   2.509 -0.3030  0.8295 -0.4256
11431SOL    HW145512   2.543   2.381   2.587  1.0118 -1.3615  1.7174
11431SOL    HW245513   2.669   2.356   2.486 -0.5811  1.2682 -1.0358
11432SOL     OW45514   6.330   1.523   6.310 -0.0107 -0.2939  0.6775
11432SOL    HW145515   6.255   1.507   6.246  1.1497  0.5356 -0.9179
11432SOL    HW245516   6.357   1.619   6.306  2.1611 -0.9075  0.0716
11433SOL     OW45517   3.806   7.268   1.317  0.1487  0.1818 -0.4783
11433SOL    HW145518   3.721   7.318   1.300  1.2164  1.6291 -1.7639
11433SOL    HW245519   3.795   7.211   1.398 -1.6730  1.2089  0.0488
11434SOL     OW45520   1.620   2.883   2.666  0.3518  0.3195 -0.2173
11434SOL    HW145521   1.546   2.938   2.627 -0.2971  0.0408  0.6265
11434SOL    HW245522   1.633   2.801   2.610 -0.3923  0.0602 -0.0210
11435SOL     OW45523   3.410   7.557   5.324 -0.0762  0.0327 -0.6033
11435SOL    HW145524   3.465   7.632   5.360 -0.3437 -0.0260 -0.0631
11435SOL    HW245525   3.455   7.518   5.243  0.4656  0.2499 -0.4106
11436SOL     OW45526   3.990   2.509   3.691  0.4184  0.0884 -0.3685
11436SOL    HW145527   3.914   2.444   3.692  0.8040 -0.3705 -1.0871
11436SOL    HW245528   4.057   2.481   3.623  1.1391  0.6047  0.1206
11437SOL     OW45529   6.960   8.463   2.791  0.0199  0.1440 -0.0059
11437SOL    HW145530   6.868   8.498   2.807  0.6417  1.1460  1.5319
11437SOL    HW245531   6.999   8.431   2.878  0.3982 -2.0892 -0.9729
11438SOL     OW45532   8.111   3.180   3.596  0.6373 -0.3861 -0.1267
11438SOL    HW145533   8.076   3.273   3.597 -0.8474 -0.9182 -0.4780
11438SOL    HW245534   8.086   3.134   3.681 -0.5174 -1.1144 -0.8370
11439SOL     OW45535   6.140   9.315   2.715  0.5736 -0.2213 -0.4969
11439SOL    HW145536   6.067   9.251   2.738  0.4262  0.3260  0.6051
11439SOL    HW245537   6.202   9.323   2.793 -0.9131  3.0474  0.4363
11440SOL     OW45538   4.341   7.939   3.472  0.0262 -0.0002 -0.1146
11440SOL    HW145539   4.338   7.844   3.502  1.4857  0.2150  0.8038
11440SOL    HW245540   4.304   7.998   3.544  0.4776  0.2399 -0.0743
11441SOL     OW45541   0.286   0.571   1.539  0.1615  0.2836  0.3178
11441SOL    HW145542   0.271   0.504   1.612  0.9187 -0.1354  0.0964
11441SOL    HW245543   0.383   0.572   1.514  0.0178  0.8921 -0.2362
11442SOL     OW45544   2.661   5.528   0.556  0.1636  0.1978 -0.0170
11442SOL    HW145545   2.644   5.467   0.478 -1.3074  1.0925 -0.4168
11442SOL    HW245546   2.660   5.623   0.525 -1.3530  0.6054  1.2375
11443SOL     OW45547   8.755   5.848   0.001  0.0611  0.1320 -0.1639
11443SOL    HW145548   8.754   5.793   0.084  0.6304 -0.9551 -0.8655
11443SOL    HW245549   8.843   5.895  -0.007  0.2756 -0.3190 -0.4994
11444SOL     OW45550   1.514   4.896   0.829  0.0737 -0.2059  0.5416
11444SOL    HW145551   1.571   4.976   0.811  0.6556 -0.3530  1.6307
11444SOL    HW245552   1.455   4.914   0.908 -1.4562 -0.0346 -0.6036
11445SOL     OW45553   9.107   5.111   3.655  0.2923  0.1970  0.0678
11445SOL    HW145554   9.128   5.031   3.711  0.8500  0.5087  0.3056
11445SOL    HW245555   9.091   5.190   3.715  0.5544  0.4521 -0.1976
11446SOL     OW45556   2.439   1.376   2.671 -0.0118  0.3023  0.2741
11446SOL    HW145557   2.496   1.457   2.664  3.5092 -2.0349  0.4143
11446SOL    HW245558   2.457   1.330   2.758 -1.5560 -0.9052 -0.0147
11447SOL     OW45559   6.182   8.065   3.012 -0.2370 -0.2972 -0.0578
11447SOL    HW145560   6.116   8.075   3.086 -0.1979 -0.5284  0.0082
11447SOL    HW245561   6.156   8.125   2.936 -1.2672 -1.3626 -0.5607
11448SOL     OW45562   0.618   7.557   4.394 -0.8433 -0.4949 -0.3878
11448SOL    HW145563   0.682   7.616   4.345 -0.2868 -0.8994 -0.1584
11448SOL    HW245564   0.633   7.566   4.493  0.7112 -2.6125 -0.3957
11449SOL     OW45565   9.108   9.674   3.553 -0.2433  0.1027  0.0718
11449SOL    HW145566   9.136   9.578   3.562  0.4547  0.0635 -2.1658
11449SOL    HW245567   9.068   9.705   3.639  1.4082 -1.5841  1.5130
11450SOL     OW45568   4.556   2.214   3.026  0.1941  0.7789  0.0269
11450SOL    HW145569   4.510   2.193   3.113  0.1753 -1.4514 -0.4813
11450SOL    HW245570   4.655   2.208   3.038  0.1839 -4.2778 -1.0891
11451SOL     OW45571   0.690   2.869   3.476 -0.1362  0.3294 -0.4096
11451SOL    HW145572   0.697   2.883   3.575  0.6115 -1.3438 -0.1956
11451SOL    HW245573   0.619   2.801   3.457  0.8021 -0.5385 -0.8890
11452SOL     OW45574   8.498   7.365   1.941 -0.3946 -0.1259  0.3745
11452SOL    HW145575   8.448   7.348   2.025  0.2026  1.2292  1.0197
11452SOL    HW245576   8.541   7.456   1.945  0.1700 -0.3069 -1.1177
11453SOL     OW45577   0.102   4.887   3.311 -0.2269 -0.7597  0.3800
11453SOL    HW145578   0.188   4.836   3.311  0.3289  0.1696  0.6880
11453SOL    HW245579   0.062   4.885   3.403  0.8789  1.1453  0.9307
11454SOL     OW45580   7.189   8.463   5.015 -0.4434  0.1013 -0.2699
11454SOL    HW145581   7.176   8.553   5.058  1.0977  0.1119  0.1994
11454SOL    HW245582   7.150   8.393   5.075 -1.4646  0.4212 -0.5379
11455SOL     OW45583   7.574   7.053   1.963 -0.1940 -0.1328  0.3270
11455SOL    HW145584   7.586   7.114   1.885  0.5709  1.7855  1.9005
11455SOL    HW245585   7.557   7.107   2.045 -3.1608 -2.1938  1.1440
11456SOL     OW45586   9.031   9.538   3.812  0.5289  0.1154  0.2781
11456SOL    HW145587   9.103   9.494   3.759  1.2404  1.3694  0.1849
11456SOL    HW245588   9.068   9.618   3.860 -0.1194 -0.8823  2.5359
11457SOL     OW45589   5.319   1.886   5.323  0.0268 -0.0417 -0.1890
11457SOL    HW145590   5.262   1.956   5.364 -0.7588 -0.2461 -0.9169
11457SOL    HW245591   5.292   1.796   5.356  0.7814 -0.0417  0.4497
11458SOL     OW45592   9.297   5.280   5.581 -0.1685 -0.0951  0.7789
11458SOL    HW145593   9.359   5.208   5.550  2.4731  2.7063 -0.6264
11458SOL    HW245594   9.319   5.305   5.676  0.8413  0.8498  0.3038
11459SOL     OW45595   2.893   9.159   1.550  0.4968  0.2734  0.8605
11459SOL    HW145596   2.950   9.079   1.533 -1.7123 -1.1729  0.1633
11459SOL    HW245597   2.832   9.141   1.627 -0.9967  0.7351 -0.1896
11460SOL     OW45598   3.764   6.848   3.260  0.0040  0.0582  0.5001
11460SOL    HW145599   3.811   6.832   3.347  1.5384 -1.5727 -0.5799
11460SOL    HW245600   3.666   6.855   3.276  0.2081 -0.8219  2.2954
11461SOL     OW45601   8.485   4.188   4.700  0.2273 -0.0439  0.7170
11461SOL    HW145602   8.541   4.174   4.618 -0.2310  2.5215 -0.0907
11461SOL    HW245603   8.396   4.144   4.688 -0.1680  1.0498 -0.5750
11462SOL     OW45604   3.403   0.905   4.147  0.2281  0.1446  0.1826
11462SOL    HW145605   3.416   0.896   4.246  1.9455  0.3577 -0.0102
11462SOL    HW245606   3.416   1.001   4.120  0.7117 -0.0689 -0.3668
11463SOL     OW45607   3.941   4.383   3.577 -0.1324  0.3208 -0.2419
11463SOL    HW145608   3.985   4.390   3.487  1.5208  0.3349  0.5587
11463SOL    HW245609   3.847   4.351   3.565  0.0604  0.3512 -1.9818
11464SOL     OW45610   7.338   0.917   4.348 -0.5610  0.1534  0.0751
11464SOL    HW145611   7.316   0.953   4.258 -1.5637  0.8927  0.5985
11464SOL    HW245612   7.437   0.916   4.360 -0.4040 -0.4864 -1.2400
11465SOL     OW45613   1.687   3.044   0.258  0.0318 -0.4074 -0.4016
11465SOL    HW145614   1.702   3.099   0.340  0.4487 -0.5595 -0.3730
11465SOL    HW245615   1.682   2.947   0.283 -3.8802 -0.1760 -0.0340
11466SOL     OW45616   7.528   3.767   0.665  0.0296 -0.1811  0.0893
11466SOL    HW145617   7.466   3.843   0.684  0.1110 -0.0395 -0.2030
11466SOL    HW245618   7.587   3.751   0.744  1.5616  1.5416 -0.6569
11467SOL     OW45619   3.226   6.249   1.366  0.0420  0.1249  0.2986
11467SOL    HW145620   3.221   6.201   1.454  1.2666 -1.8185 -0.6637
11467SOL    HW245621   3.321   6.260   1.339 -0.3456 -0.0434 -1.1842
11468SOL     OW45622   3.847   4.173   2.254  0.6095  0.8813 -0.1198
11468SOL    HW145623   3.834   4.194   2.157 -0.7817  1.5766  0.1992
11468SOL    HW245624   3.848   4.074   2.267  0.6621  0.7852 -0.8208
11469SOL     OW45625   3.778   2.714   1.464  0.3915 -0.0649  0.0001
11469SOL    HW145626   3.760   2.638   1.402 -0.4386 -0.4034  0.6413
11469SOL    HW245627   3.870   2.706   1.501 -0.3648 -1.8701  1.5717
11470SOL     OW45628   1.950   9.381   2.222  0.0710  0.2496 -0.4332
11470SOL    HW145629   1.930   9.478   2.211  1.5940  0.4353 -1.7269
11470SOL    HW245630   1.942   9.335   2.134  0.0640 -0.6614  0.0400
11471SOL     OW45631   1.343   1.597   5.735 -0.3822 -0.0418 -0.1556
11471SOL    HW145632   1.443   1.593   5.731 -0.4467 -1.0645 -1.1508
11471SOL    HW245633   1.313   1.586   5.830  0.4545  0.2997  0.1563
11472SOL     OW45634   1.614   0.524   4.986  0.3117  0.2619 -0.0164
11472SOL    HW145635   1.650   0.543   4.895  0.6462  1.7881  0.4132
11472SOL    HW245636   1.678   0.466   5.036 -0.2423 -1.2396 -1.0078
11473SOL     OW45637   8.323   3.039   1.284 -0.2380  0.0741 -0.1853
11473SOL    HW145638   8.255   3.036   1.357  1.4569 -1.2388  1.3669
11473SOL    HW245639   8.349   3.134   1.267  0.3849  0.2910  1.8873
11474SOL     OW45640   8.086   7.027   2.806  0.0511 -0.2725  0.0517
11474SOL    HW145641   8.021   7.044   2.880 -0.3157  1.4128 -0.6251
11474SOL    HW245642   8.039   6.981   2.730 -0.0558 -0.1878  0.0663
11475SOL     OW45643   9.625   6.549   5.205  0.2156 -0.0272 -0.2458
11475SOL    HW145644   9.535   6.593   5.209  0.4299  0.2828  1.2009
11475SOL    HW245645   9.692   6.605   5.253  0.8803 -1.0176 -0.0019
11476SOL     OW45646   0.894   5.410   1.796  0.3016 -0.1790  0.0786
11476SOL    HW145647   0.872   5.502   1.828 -0.7750 -0.1194 -0.8140
11476SOL    HW245648   0.853   5.343   1.857 -1.2885 -0.0652 -0.8605
11477SOL     OW45649   0.452   2.161   1.764  0.1356  0.3985  0.3849
11477SOL    HW145650   0.366   2.162   1.814 -1.4825 -0.1323 -2.3003
11477SOL    HW245651   0.526   2.133   1.826 -1.4476  1.6040  2.9045
11478SOL     OW45652   5.025   0.177   6.384  0.2003  0.1694 -0.6512
11478SOL    HW145653   5.110   0.167   6.436 -0.5118 -2.1506  0.1283
11478SOL    HW245654   5.046   0.205   6.291  1.7862  0.1164 -0.3221
11479SOL     OW45655   9.385   2.794   4.244  0.3689  0.2416 -0.6494
11479SOL    HW145656   9.334   2.737   4.179 -0.1101  1.8790 -1.7411
11479SOL    HW245657   9.483   2.783   4.227  0.2860 -0.3448 -0.7701
11480SOL     OW45658   1.646   7.805   2.824  0.3736 -0.1281  0.1016
11480SOL    HW145659   1.671   7.758   2.740  0.8113  0.7239 -0.2491
11480SOL    HW245660   1.549   7.790   2.844  0.8254 -2.3580  0.7634
11481SOL     OW45661   3.058   9.299   4.310 -0.4762 -0.7894 -0.4816
11481SOL    HW145662   3.081   9.240   4.386 -0.4165  1.2580  1.1399
11481SOL    HW245663   3.142   9.336   4.270 -0.5331 -1.4069 -1.1806
11482SOL     OW45664   3.765   8.038   3.033 -0.3256 -0.3936 -0.3284
11482SOL    HW145665   3.762   8.109   2.963 -0.5509 -0.7509 -0.6862
11482SOL    HW245666   3.848   8.047   3.087  0.3755 -0.7712 -1.3403
11483SOL     OW45667   2.394   1.933   2.455  0.2510 -0.3109  0.2245
11483SOL    HW145668   2.330   1.875   2.506 -0.5259 -0.7248 -1.1862
11483SOL    HW245669   2.487   1.908   2.479 -0.0933 -1.0549  0.8259
11484SOL     OW45670   7.496   4.119   2.246  0.2150 -0.3825  0.4837
11484SOL    HW145671   7.575   4.155   2.295  0.4152 -1.9512  1.3625
11484SOL    HW245672   7.479   4.025   2.275  0.0134 -1.1764 -2.0992
11485SOL     OW45673   2.821   0.853   5.647  0.0123 -0.3677 -0.5842
11485SOL    HW145674   2.723   0.831   5.643  0.1703 -0.9699 -1.3784
11485SOL    HW245675   2.871   0.792   5.584  1.0210 -0.8019  0.6130
11486SOL     OW45676   8.535   2.229   6.505 -0.6243 -0.2896  0.0070
11486SOL    HW145677   8.474   2.308   6.503  0.5069  0.5857 -0.5137
11486SOL    HW245678   8.611   2.247   6.568  1.4065  0.4133 -2.5225
11487SOL     OW45679   8.954   9.857   1.062 -0.4521 -0.5493 -0.3812
11487SOL    HW145680   8.888   9.931   1.076  0.8466  0.6321 -0.3485
11487SOL    HW245681   8.946   9.823   0.969  0.2825  1.0022 -1.0328
11488SOL     OW45682   2.961   0.079   5.746  0.5341 -0.1009  0.3387
11488SOL    HW145683   2.870   0.117   5.765  0.3231 -0.1170 -0.6250
11488SOL    HW245684   2.998   0.039   5.830  0.5776  1.8333  1.2645
11489SOL     OW45685   0.675   0.202   2.957 -0.3489  0.2894  0.1413
11489SOL    HW145686   0.735   0.143   3.011 -2.0299 -1.1156  0.5172
11489SOL    HW245687   0.590   0.153   2.936 -1.7216  2.5133  0.3531
11490SOL     OW45688   0.003   5.921   1.011 -0.2938  0.3173 -0.6673
11490SOL    HW145689   0.059   5.912   0.928 -2.2290 -0.1634 -1.9595
11490SOL    HW245690  -0.022   5.830   1.044 -0.0397  0.5252  0.1170
11491SOL     OW45691   0.176   2.107   6.216  0.2909 -0.2269  0.2631
11491SOL    HW145692   0.175   2.175   6.289 -1.0328  1.8481 -1.6072
11491SOL    HW245693   0.143   2.019   6.251  0.2115  0.5718  2.2638
11492SOL     OW45694   7.872   6.016   2.103  0.1570  0.3930 -0.0624
11492SOL    HW145695   7.937   6.073   2.052 -0.7211  1.9027  0.4698
11492SOL    HW245696   7.839   6.067   2.183 -0.3418 -1.0313  0.6541
11493SOL     OW45697   7.114   7.915   4.320 -0.2052 -0.5273 -0.1216
11493SOL    HW145698   7.144   8.010   4.326 -2.8192  0.3532 -0.4120
11493SOL    HW245699   7.038   7.900   4.383  0.9456 -2.7623  0.7952
11494SOL     OW45700   8.346   1.579   3.334  0.0785 -0.3596  0.2788
11494SOL    HW145701   8.346   1.501   3.272  0.0729  1.6501 -2.3349
11494SOL    HW245702   8.354   1.547   3.428 -0.1996 -3.5001 -0.7158
11495SOL     OW45703   1.565   9.703   2.669  0.2246  0.5409 -0.1486
11495SOL    HW145704   1.496   9.756   2.619  0.2461  0.9461  0.2581
11495SOL    HW245705   1.606   9.759   2.740  1.5743  0.5636 -0.9352
11496SOL     OW45706   1.108   3.543   1.744 -0.1783 -0.1759 -0.1728
11496SOL    HW145707   1.086   3.622   1.801  0.1666  0.9641 -1.5822
11496SOL    HW245708   1.055   3.464   1.774 -0.3497  0.5218  1.4138
11497SOL     OW45709   8.063   5.328   3.016  0.0880 -0.2674 -0.2512
11497SOL    HW145710   8.005   5.403   3.045  0.8536  0.1331  0.2523
11497SOL    HW245711   8.154   5.363   2.992  0.3328 -0.9752 -0.3791
11498SOL     OW45712   1.555   7.436   5.643 -0.3328  0.1427 -0.0567
11498SOL    HW145713   1.519   7.503   5.578  0.2216  1.4754  0.9904
11498SOL    HW245714   1.577   7.351   5.595 -1.4132  0.5734 -1.3283
11499SOL     OW45715   3.143   1.626   4.909 -0.2524 -0.0682  0.1394
11499SOL    HW145716   3.089   1.670   4.980  1.5038  0.6341  1.0589
11499SOL    HW245717   3.197   1.695   4.860  0.0990 -0.7948 -0.5205
11500SOL     OW45718   8.683   1.649   4.852  0.0437  0.3727 -0.6477
11500SOL    HW145719   8.632   1.580   4.801  0.1600 -0.4534  0.3451
11500SOL    HW245720   8.650   1.740   4.826 -2.6039 -0.1686  0.6759
11501SOL     OW45721   3.659   2.077   0.966 -0.1093  0.3655  0.2292
11501SOL    HW145722   3.568   2.059   1.003 -1.2031  0.3265 -2.3692
11501SOL    HW245723   3.683   2.007   0.900  1.5332  0.7744  0.3590
11502SOL     OW45724   6.384   8.664   4.597 -0.0062  0.2255  0.2801
11502SOL    HW145725   6.299   8.655   4.648 -0.3529  0.4225 -0.2614
11502SOL    HW245726   6.368   8.717   4.514  0.5927  0.0604  0.0555
11503SOL     OW45727   6.682   2.081   4.579  0.1602 -0.4453 -0.1296
11503SOL    HW145728   6.654   2.049   4.670 -4.2475  1.3119 -0.7481
11503SOL    HW245729   6.639   2.024   4.509  0.1542  0.7454 -1.1126
11504SOL     OW45730   3.983   6.895   3.888 -0.2675 -0.6717 -0.3277
11504SOL    HW145731   3.997   6.983   3.935 -1.3614 -0.5589 -0.2029
11504SOL    HW245732   4.008   6.821   3.950  0.0612 -0.4688 -0.2135
11505SOL     OW45733   8.154   7.765   0.600  0.4658 -0.5505  0.2061
11505SOL    HW145734   8.209   7.845   0.576 -2.6633  2.1215  1.6589
11505SOL    HW245735   8.164   7.746   0.697 -0.1229 -0.9039  0.1985
11506SOL     OW45736   8.417   1.112   3.255  0.7020  0.0393  0.2415
11506SOL    HW145737   8.442   1.053   3.178 -1.1462 -0.3170 -0.1215
11506SOL    HW245738   8.453   1.204   3.239  0.8049 -0.1688 -0.7833
11507SOL     OW45739   0.719   3.046   1.517  0.2326 -0.5163 -0.0799
11507SOL    HW145740   0.689   3.104   1.592 -2.3019 -0.5628 -1.0055
11507SOL    HW245741   0.659   3.060   1.438  1.2879 -2.3309 -1.2454
11508SOL     OW45742   4.887   3.906   7.837  0.5981 -0.1154 -0.0287
11508SOL    HW145743   4.906   3.959   7.919 -0.4800  1.3584 -0.7077
11508SOL    HW245744   4.972   3.891   7.786  1.3874 -1.6434  1.6773
11509SOL     OW45745   9.172   7.390   0.860 -0.6052  0.4424  0.3577
11509SOL    HW145746   9.218   7.412   0.946  1.2688 -0.1397 -0.4701
11509SOL    HW245747   9.107   7.463   0.838  1.8425  2.7009  0.2296
11510SOL     OW45748   2.139   4.248   1.650 -0.0185  0.0293  0.0406
11510SOL    HW145749   2.071   4.308   1.607  0.6714  0.3651 -0.5818
11510SOL    HW245750   2.229   4.291   1.645  0.1682 -0.1854  1.3049
11511SOL     OW45751   9.011   4.085   1.340 -0.0582 -0.2465  0.4943
11511SOL    HW145752   8.920   4.043   1.334 -0.5511  0.9692 -0.9699
11511SOL    HW245753   9.028   4.116   1.433 -1.3650 -0.0248  0.6696
11512SOL     OW45754   9.209   8.497   5.399 -0.0527  0.2872 -0.3701
11512SOL    HW145755   9.182   8.404   5.423  0.9643  0.2885  0.8403
11512SOL    HW245756   9.198   8.510   5.300 -1.1871 -0.7764 -0.3943
11513SOL     OW45757   9.442   3.853   1.250  0.1766  0.7026  0.4043
11513SOL    HW145758   9.488   3.922   1.306  0.3192  0.6202  0.3903
11513SOL    HW245759   9.400   3.785   1.310  0.6555  0.4053  0.4075
11514SOL     OW45760   4.770   9.299   4.494  0.2557 -0.2672  0.3632
11514SOL    HW145761   4.700   9.306   4.565 -1.7938  1.5369 -1.7317
11514SOL    HW245762   4.777   9.386   4.445  0.9401 -1.7319 -2.2301
11515SOL     OW45763   1.422   6.534   1.383 -0.5194 -0.1037  0.2851
11515SOL    HW145764   1.326   6.538   1.355 -0.0952  1.5155 -1.0226
11515SOL    HW245765   1.470   6.464   1.329  0.0945  2.3991 -2.5271
11516SOL     OW45766   6.986   2.915   0.921 -0.5478  0.5804 -0.5527
11516SOL    HW145767   6.929   2.935   1.001 -0.2123 -1.6066  0.2657
11516SOL    HW245768   7.080   2.944   0.938 -0.0175 -1.7691  0.7093
11517SOL     OW45769   7.151   4.454   0.751 -0.2768  0.1591 -0.3154
11517SOL    HW145770   7.131   4.483   0.658 -1.3688  0.8866  0.1370
11517SOL    HW245771   7.234   4.500   0.782  0.3240 -0.4047 -1.0706
11518SOL     OW45772   9.841   0.589   4.865 -0.4000 -0.0049  0.0282
11518SOL    HW145773   9.797   0.556   4.948 -0.3697 -0.9574 -0.3342
11518SOL    HW245774   9.916   0.528   4.840 -1.9331 -1.0790 -2.0425
11519SOL     OW45775   3.564   6.103   1.558  0.5131 -0.3480 -0.7973
11519SOL    HW145776   3.634   6.160   1.516 -0.7395  1.8131 -0.0031
11519SOL    HW245777   3.579   6.099   1.657  0.1649 -0.8278 -0.7594
11520SOL     OW45778   3.242   7.223   5.177 -0.5435 -0.0473 -0.2324
11520SOL    HW145779   3.213   7.312   5.143  1.2575  1.0643  1.0614
11520SOL    HW245780   3.293   7.175   5.105  1.9173  1.6480  0.3112
11521SOL     OW45781   0.201   8.125   4.233 -0.1305  0.0764  0.4732
11521SOL    HW145782   0.272   8.196   4.239 -1.9410  2.2114 -2.0045
11521SOL    HW245783   0.224   8.062   4.160 -0.5535  0.5634 -0.0921
11522SOL     OW45784   3.480   3.577   1.427  0.1083  0.1873 -0.1597
11522SOL    HW145785   3.543   3.629   1.483  0.7581  0.8427 -1.4809
11522SOL    HW245786   3.414   3.639   1.384 -0.4824 -0.3217  0.0087
11523SOL     OW45787   8.655   5.208   1.197 -0.4519  0.5600 -0.6691
11523SOL    HW145788   8.606   5.243   1.276  0.0580  1.3097 -0.6743
11523SOL    HW245789   8.596   5.148   1.144 -0.4622 -0.8218  0.8665
11524SOL     OW45790   7.405   8.169   4.320 -0.3263  0.1833 -0.8462
11524SOL    HW145791   7.470   8.243   4.335 -0.6883  0.6431 -1.5137
11524SOL    HW245792   7.320   8.188   4.369  0.6333 -1.2477  1.4298
11525SOL     OW45793   6.241   1.436   7.862 -0.2083 -0.0398  0.4390
11525SOL    HW145794   6.156   1.435   7.914  0.2848 -0.8717  1.2360
11525SOL    HW245795   6.273   1.342   7.847  0.2410  0.2388 -0.4025
11526SOL     OW45796   6.156   3.078   0.664  0.0701  0.3242 -0.0623
11526SOL    HW145797   6.156   3.083   0.565 -0.2765  0.0273 -0.0807
11526SOL    HW245798   6.062   3.067   0.697  0.5364 -3.8620  0.0648
11527SOL     OW45799   6.573   8.174   6.876 -0.3839 -0.9172  0.0621
11527SOL    HW145800   6.477   8.201   6.862 -0.0787  0.0986 -0.1059
11527SOL    HW245801   6.606   8.126   6.794 -0.1186  0.5922 -0.7251
11528SOL     OW45802   3.499   3.692   3.052 -0.0715 -0.1475  0.2573
11528SOL    HW145803   3.486   3.593   3.040 -0.0705 -0.3635  1.9090
11528SOL    HW245804   3.596   3.714   3.046  0.0782 -0.4720  1.4292
11529SOL     OW45805   8.684   8.513   1.413 -0.0085  0.0619 -0.3361
11529SOL    HW145806   8.769   8.558   1.440  1.2909 -2.3264 -0.2611
11529SOL    HW245807   8.689   8.416   1.438 -1.7257 -0.6681 -2.6611
11530SOL     OW45808   4.190   9.227   2.830 -0.0035 -0.1619  0.1085
11530SOL    HW145809   4.275   9.178   2.847 -0.1379 -0.2746  0.4648
11530SOL    HW245810   4.210   9.321   2.803  0.2101  0.1151  1.2027
11531SOL     OW45811   5.858   8.684   3.120 -0.7665  0.0548  0.2893
11531SOL    HW145812   5.875   8.770   3.169  1.8382  0.0789 -0.6233
11531SOL    HW245813   5.804   8.703   3.038 -1.0052  0.6843  0.5870
11532SOL     OW45814   3.263   6.655   1.635  0.0424  0.1733 -0.2505
11532SOL    HW145815   3.307   6.653   1.545 -1.0015 -0.0901 -0.7626
11532SOL    HW245816   3.219   6.568   1.652 -2.4452  1.2760 -0.8429
11533SOL     OW45817   0.386   2.450   0.632  0.1161  0.4627  0.0830
11533SOL    HW145818   0.300   2.424   0.589  0.5982 -0.0156 -0.6089
11533SOL    HW245819   0.376   2.448   0.731 -0.6586  0.3677  0.0028
11534SOL     OW45820   4.441   2.633   2.368 -0.1422 -0.7167 -0.2154
11534SOL    HW145821   4.489   2.583   2.440 -0.5067 -1.3304 -0.3924
11534SOL    HW245822   4.433   2.575   2.287 -1.0734 -0.5801 -0.2268
11535SOL     OW45823   7.316   5.730   6.131  0.4452  0.0130  0.6446
11535SOL    HW145824   7.336   5.652   6.191  0.7214  0.7556  1.5205
11535SOL    HW245825   7.279   5.696   6.045  2.4509 -1.2133  0.2307
11536SOL     OW45826   5.136   6.226   3.355  0.0553 -0.3018 -0.2694
11536SOL    HW145827   5.036   6.231   3.357  0.0656 -0.3376  0.5943
11536SOL    HW245828   5.173   6.270   3.437  0.7554 -0.1157 -0.6811
11537SOL     OW45829   4.828   2.394   1.848  0.6759  0.2622 -1.0469
11537SOL    HW145830   4.775   2.372   1.767  0.4871  1.5673 -1.2957
11537SOL    HW245831   4.925   2.374   1.832  0.3881 -1.1928 -0.9439
11538SOL     OW45832   5.078   4.654   0.283 -0.6425  0.4941  0.1439
11538SOL    HW145833   5.171   4.655   0.247 -1.4096  2.2076 -1.8701
11538SOL    HW245834   5.081   4.661   0.383  1.3745  2.7951 -0.0260
11539SOL     OW45835   3.788   8.953   3.777 -0.1754  0.4733  0.4781
11539SOL    HW145836   3.704   9.004   3.795  0.6972  1.7119  1.0903
11539SOL    HW245837   3.765   8.863   3.739 -1.7651  0.8358  0.5557
11540SOL     OW45838   1.446   6.750   2.901  0.1523  0.4469 -0.1471
11540SOL    HW145839   1.367   6.770   2.958 -1.0540  1.0161 -1.9662
11540SOL    HW245840   1.527   6.737   2.958 -1.5449 -1.6518  1.8575
11541SOL     OW45841   5.127   3.260   0.847 -0.3250 -0.1535 -0.1085
11541SOL    HW145842   5.160   3.354   0.845  0.7370 -0.4988  0.5915
11541SOL    HW245843   5.081   3.243   0.934 -1.3631 -0.0098 -0.6204
11542SOL     OW45844   2.272   9.268   4.553 -0.4622  0.1951 -0.7220
11542SOL    HW145845   2.358   9.229   4.586  0.2786  0.5969 -2.1421
11542SOL    HW245846   2.208   9.194   4.532 -0.2595 -0.1220 -0.2454
11543SOL     OW45847   0.489   9.967   1.883 -0.2563  0.5379 -0.3690
11543SOL    HW145848   0.423   9.981   1.809  0.2663  0.3491 -0.8759
11543SOL    HW245849   0.571   9.923   1.847 -1.0127 -1.9380  0.7756
11544SOL     OW45850   4.024   5.028   2.947 -0.0894  0.3411  0.6453
11544SOL    HW145851   3.965   5.014   3.026  1.5335 -0.6172  1.7302
11544SOL    HW245852   4.013   4.952   2.883 -1.9113  1.4583 -0.4200
11545SOL     OW45853   3.537   8.970   3.397  0.6424  0.0064 -0.5114
11545SOL    HW145854   3.567   9.038   3.463  0.9887 -1.2247  0.6144
11545SOL    HW245855   3.541   9.009   3.305  1.8635  1.1584  0.0138
11546SOL     OW45856   8.904   1.898   3.588  0.4641  0.0038  0.4617
11546SOL    HW145857   8.849   1.820   3.557  1.3201 -0.3600 -0.1494
11546SOL    HW245858   8.844   1.977   3.603 -0.1579 -0.2520 -0.6581
11547SOL     OW45859   2.412   0.884   0.593 -0.5831  0.0151  0.1451
11547SOL    HW145860   2.322   0.893   0.551 -0.4892  0.7711  0.1098
11547SOL    HW245861   2.482   0.887   0.522 -0.5186 -0.4314  0.1872
11548SOL     OW45862   2.336   5.121   4.567 -0.4109  0.1857 -0.4082
11548SOL    HW145863   2.296   5.073   4.489  3.8143 -1.7370 -1.5810
11548SOL    HW245864   2.389   5.200   4.534 -0.3929  0.6450  0.7140
11549SOL     OW45865   3.097   4.034   2.675  0.0275  0.2516  0.3330
11549SOL    HW145866   3.185   4.071   2.646 -0.3377  2.3531  1.7892
11549SOL    HW245867   3.112   3.961   2.742  0.6700  0.1439  0.0722
11550SOL     OW45868   9.291   2.957   1.588  0.3216  0.1517  0.3126
11550SOL    HW145869   9.313   2.885   1.654 -0.8180 -0.4257  0.0864
11550SOL    HW245870   9.370   3.016   1.574  1.2550 -1.0312  0.5412
11551SOL     OW45871   4.105   1.179   3.853 -0.7447  0.3846  0.0430
11551SOL    HW145872   4.186   1.130   3.884  0.1102  1.8364  0.1703
11551SOL    HW245873   4.079   1.148   3.762  1.3832  1.5686 -1.0055
11552SOL     OW45874   1.454   6.449   4.875 -0.1764 -0.4325 -0.0722
11552SOL    HW145875   1.534   6.467   4.933  0.1472 -0.6074 -0.4566
11552SOL    HW245876   1.387   6.522   4.886  0.2896  0.0129 -0.1675
11553SOL     OW45877   0.853   1.418   6.243 -0.0524  0.2072  0.1338
11553SOL    HW145878   0.934   1.379   6.289 -0.3288 -0.5608 -0.0261
11553SOL    HW245879   0.869   1.421   6.144 -0.4039 -0.3832  0.0587
11554SOL     OW45880   3.941   2.732   4.645 -0.1405 -0.2266  0.1686
11554SOL    HW145881   3.971   2.703   4.736 -0.6063 -1.9785 -0.2050
11554SOL    HW245882   3.850   2.696   4.627  0.0241 -0.0587 -1.0680
11555SOL     OW45883   4.515   9.582   3.095  0.2167  0.0723  0.2642
11555SOL    HW145884   4.527   9.679   3.072 -1.1511  0.2245  0.1523
11555SOL    HW245885   4.473   9.535   3.018  0.4586 -0.5221  0.4912
11556SOL     OW45886   7.411   0.873   0.495  0.1103 -0.2772 -0.8376
11556SOL    HW145887   7.371   0.820   0.569 -1.7608  0.6305 -1.1559
11556SOL    HW245888   7.500   0.834   0.469  0.3506 -1.1566  1.2186
11557SOL     OW45889   2.159   9.117   5.853  0.4908 -0.0710  0.6897
11557SOL    HW145890   2.148   9.214   5.874 -0.3730 -0.4638  2.0713
11557SOL    HW245891   2.121   9.099   5.762 -1.2153  0.5088  1.2654
11558SOL     OW45892   8.654   6.929   5.998  0.2746 -0.5403  0.0130
11558SOL    HW145893   8.640   6.830   6.007  0.8409 -0.5940  0.3875
11558SOL    HW245894   8.660   6.953   5.902  2.1667 -1.1867 -0.0659
11559SOL     OW45895   2.587   8.973   5.130  0.5736  0.6939 -0.2993
11559SOL    HW145896   2.601   8.927   5.217 -0.9018 -1.1072 -0.9732
11559SOL    HW245897   2.500   9.022   5.132 -0.1463 -0.5043 -1.1973
11560SOL     OW45898   5.563   1.388   3.967 -0.1688 -0.2426  0.1709
11560SOL    HW145899   5.522   1.376   3.876  1.9295 -0.9072 -0.7159
11560SOL    HW245900   5.540   1.310   4.025 -1.1303 -0.0420  0.0625
11561SOL     OW45901   6.779   2.030   1.731 -0.4696 -0.3626 -0.1113
11561SOL    HW145902   6.685   2.056   1.754 -0.3368  0.8940 -0.9084
11561SOL    HW245903   6.842   2.084   1.787 -0.2353 -1.9365  1.1455
11562SOL     OW45904   3.861   4.960   3.183 -0.3802 -0.3320 -0.0257
11562SOL    HW145905   3.839   5.039   3.240  2.3815  0.7517 -0.3764
11562SOL    HW245906   3.874   4.879   3.241  0.0339  0.2138  0.6460
11563SOL     OW45907   8.889   8.723   4.684 -0.0348  0.5154 -0.1141
11563SOL    HW145908   8.796   8.745   4.715  0.7814  2.3225  1.1000
11563SOL    HW245909   8.922   8.641   4.731 -1.2222 -0.4971 -1.0023
11564SOL     OW45910   8.171   1.889   0.450 -0.3649 -0.1283 -0.0672
11564SOL    HW145911   8.182   1.813   0.513 -0.1245  1.0093  1.2727
11564SOL    HW245912   8.202   1.974   0.493 -0.2795  0.6811 -1.6692
11565SOL     OW45913   4.528   2.932   0.257 -0.2992  0.4631  0.3219
11565SOL    HW145914   4.493   2.929   0.351  0.1654  0.8708  0.5098
11565SOL    HW245915   4.479   3.001   0.205 -0.3086  0.4905  0.3673
11566SOL     OW45916   8.141   2.621   1.822 -0.3562 -0.4224  0.2796
11566SOL    HW145917   8.181   2.529   1.823  0.0971 -0.2338 -0.4303
11566SOL    HW245918   8.188   2.678   1.754 -1.2412  0.0612  0.0533
11567SOL     OW45919   0.012   6.888   4.044 -0.5350 -0.7711 -0.0826
11567SOL    HW145920  -0.074   6.906   3.996 -0.6156  1.5029  0.8530
11567SOL    HW245921   0.074   6.838   3.984 -1.6561 -0.3865 -1.5796
11568SOL     OW45922   9.883   7.735   1.787 -0.0275  0.4537  0.2821
11568SOL    HW145923   9.959   7.688   1.744  0.6714  0.3981  1.5521
11568SOL    HW245924   9.863   7.693   1.876 -1.3106  0.6812  0.1100
11569SOL     OW45925   3.902   1.052   5.744 -0.4303 -0.1626 -0.4147
11569SOL    HW145926   3.920   1.080   5.649  0.9891  0.0633 -0.0791
11569SOL    HW245927   3.876   0.955   5.745 -0.3007 -0.2096 -1.0181
11570SOL     OW45928   7.469   0.590   2.585  1.0384 -0.2615  0.2004
11570SOL    HW145929   7.486   0.633   2.674 -0.5679 -1.6480  1.2023
11570SOL    HW245930   7.439   0.496   2.599 -0.5322 -0.0801 -1.7539
11571SOL     OW45931   5.682   1.005   1.542 -0.4089 -0.5764 -0.0561
11571SOL    HW145932   5.722   0.921   1.577  0.6634  0.0257  0.1872
11571SOL    HW245933   5.678   1.073   1.615 -1.5821 -0.5241 -0.1631
11572SOL     OW45934   3.855   3.506   4.671 -0.3661  0.2658 -0.2952
11572SOL    HW145935   3.784   3.443   4.641 -1.3402 -0.4788  3.3098
11572SOL    HW245936   3.939   3.455   4.690 -0.4988  0.3282  0.5089
11573SOL     OW45937   1.595   1.912   5.312 -0.4319  0.1334  0.0756
11573SOL    HW145938   1.501   1.926   5.344 -0.6102  1.1350 -0.8472
11573SOL    HW245939   1.599   1.927   5.213  0.3014 -1.9273 -0.2224
11574SOL     OW45940   6.830   8.289   5.799 -0.6468 -0.2705 -0.1150
11574SOL    HW145941   6.795   8.269   5.891  1.0307  0.7494  0.7758
11574SOL    HW245942   6.868   8.206   5.759 -0.7577 -0.5759  0.4100
11575SOL     OW45943   3.561   9.056   3.869 -0.6102 -0.9001  0.1678
11575SOL    HW145944   3.523   9.074   3.778  1.0743  0.7079 -0.2401
11575SOL    HW245945   3.603   9.140   3.905 -1.2315 -1.5162  2.4265
11576SOL     OW45946   0.955   5.570   5.120  0.1233 -0.1204 -0.1195
11576SOL    HW145947   1.044   5.565   5.165 -0.1632 -1.2623  0.3192
11576SOL    HW245948   0.908   5.653   5.149  0.4175 -0.2682  0.8021
11577SOL     OW45949   8.676   2.308   1.745 -0.3180  0.2023 -0.0851
11577SOL    HW145950   8.674   2.305   1.845  0.7050  0.9710 -0.0368
11577SOL    HW245951   8.626   2.229   1.709 -0.6407 -0.1171  1.0231
11578SOL     OW45952   6.701   3.468   0.336 -0.3639  0.1442 -0.1580
11578SOL    HW145953   6.776   3.472   0.269 -0.9074  0.6574 -0.7413
11578SOL    HW245954   6.730   3.510   0.422 -0.2682  1.1371 -0.6679
11579SOL     OW45955   2.569   3.059   3.092  0.0457  0.0202  0.2836
11579SOL    HW145956   2.665   3.041   3.110  0.0894 -0.2162 -0.1809
11579SOL    HW245957   2.527   3.098   3.174  0.9241  1.6595 -0.0267
11580SOL     OW45958   9.525   7.526   5.625  0.1414  0.0234  0.3555
11580SOL    HW145959   9.509   7.529   5.724 -0.6169 -0.4114  0.2500
11580SOL    HW245960   9.518   7.431   5.593  1.9878 -0.0626  0.1402
11581SOL     OW45961   1.808   6.526   3.537  0.3746  0.0802 -0.1751
11581SOL    HW145962   1.906   6.550   3.539  0.3916 -0.0653  1.7201
11581SOL    HW245963   1.786   6.485   3.448  1.6247  1.7903 -1.3242
11582SOL     OW45964   4.182   3.429   5.170  0.2822 -0.4205 -0.0096
11582SOL    HW145965   4.274   3.458   5.199 -0.3415  0.5964  1.0152
11582SOL    HW245966   4.130   3.401   5.251 -0.7481  0.2872 -0.4222
11583SOL     OW45967   6.420   3.005   4.507  0.2045  0.5058  0.1353
11583SOL    HW145968   6.322   2.999   4.487  0.1556 -1.1353  0.7378
11583SOL    HW245969   6.461   3.077   4.452 -0.5005 -1.7771 -3.5761
11584SOL     OW45970   0.276   9.105   3.031 -0.3369  0.0394  0.1658
11584SOL    HW145971   0.346   9.172   3.006 -0.7044  0.3810  0.0452
11584SOL    HW245972   0.186   9.140   3.005 -0.5244 -0.5300  0.0484
11585SOL     OW45973   8.849   6.435   5.328  0.0830  0.2653  0.4651
11585SOL    HW145974   8.829   6.477   5.239 -1.2542 -1.1458  0.0831
11585SOL    HW245975   8.764   6.409   5.373  0.7894  0.1996  1.7998
11586SOL     OW45976   8.672   6.009   0.638  0.3786 -0.1308  0.1486
11586SOL    HW145977   8.586   6.045   0.674  0.5271 -0.1906  0.5695
11586SOL    HW245978   8.656   5.920   0.595  0.6220 -1.2650  2.3423
11587SOL     OW45979   7.740   1.747   2.546  0.0527  0.1842  0.4243
11587SOL    HW145980   7.730   1.746   2.645 -3.3737  0.4499  0.1381
11587SOL    HW245981   7.737   1.841   2.513  0.1952  0.0307 -0.0286
11588SOL     OW45982   3.305   5.286   4.786  0.1197 -0.4403 -0.3915
11588SOL    HW145983   3.379   5.255   4.846 -0.1298  0.4287  0.3853
11588SOL    HW245984   3.327   5.375   4.748 -0.3350 -0.3692 -0.4992
11589SOL     OW45985   5.122   9.238   4.171  0.0330  0.1092  0.8164
11589SOL    HW145986   5.202   9.292   4.142 -0.2660  1.2691  2.0870
11589SOL    HW245987   5.151   9.172   4.241 -0.3429  1.4709  2.2933
11590SOL     OW45988   0.327   3.825   3.101  0.1423 -0.0648  0.1879
11590SOL    HW145989   0.281   3.738   3.121  0.4886 -0.2857  0.0443
11590SOL    HW245990   0.289   3.864   3.018 -0.3152  0.1381  0.4924
11591SOL     OW45991   7.691   7.125   5.359 -0.4194 -0.0242  0.3213
11591SOL    HW145992   7.661   7.220   5.349 -0.0551  0.3425  2.4791
11591SOL    HW245993   7.753   7.102   5.284 -0.2883  1.5427 -0.0677
11592SOL     OW45994   4.908   2.170   0.828 -0.1510 -0.4548 -0.6826
11592SOL    HW145995   4.907   2.269   0.833 -0.4140 -0.4982  0.4004
11592SOL    HW245996   4.985   2.140   0.772 -0.8701  0.3813 -2.1481
11593SOL     OW45997   2.116   3.562   4.799 -0.1527  0.1492 -0.5461
11593SOL    HW145998   2.088   3.486   4.741 -1.4041  0.5297 -0.4519
11593SOL    HW245999   2.109   3.648   4.747 -0.0751  0.3566 -0.2137
11594SOL     OW46000   0.172   9.760   0.744  0.1927 -0.3929  0.4043
11594SOL    HW146001   0.169   9.800   0.835 -2.6576  1.7116 -0.5392
11594SOL    HW246002   0.247   9.800   0.691  0.3291  0.1832  1.0358
11595SOL     OW46003   4.433   5.191   1.353 -0.0666  0.3941 -0.2157
11595SOL    HW146004   4.512   5.249   1.374  1.2717 -1.8041  0.9191
11595SOL    HW246005   4.457   5.127   1.281 -2.0624  2.2895 -2.6409
11596SOL     OW46006   1.798   9.358   1.640 -0.4072 -0.2225  0.3075
11596SOL    HW146007   1.880   9.414   1.648 -0.8491  0.3815  0.6207
11596SOL    HW246008   1.779   9.340   1.544  0.2160 -0.5500  0.2437
11597SOL     OW46009   1.066   7.645   2.330  0.2534 -0.4361  0.0063
11597SOL    HW146010   1.055   7.671   2.234  1.0940 -0.4142 -0.0819
11597SOL    HW246011   0.992   7.582   2.356 -0.4905  0.2502 -0.4035
11598SOL     OW46012   6.746   1.892   8.022 -0.7836  0.3685  0.0376
11598SOL    HW146013   6.803   1.812   7.999 -0.5868  0.6314 -0.4140
11598SOL    HW246014   6.656   1.882   7.980 -1.4487 -0.5573  1.6564
11599SOL     OW46015   9.976   4.114   4.435  0.1350  0.5047 -0.1320
11599SOL    HW146016  10.026   4.182   4.490 -0.1559  1.9568 -1.6174
11599SOL    HW246017   9.884   4.148   4.416 -0.7576 -1.2734  0.8900
11600SOL     OW46018   2.915   0.454   4.749  0.5627  0.8717  0.1321
11600SOL    HW146019   3.012   0.477   4.745  1.1128 -1.2802  0.3460
11600SOL    HW246020   2.878   0.482   4.837  1.3097  0.5687  0.5512
11601SOL     OW46021   2.248   9.071   0.892  0.0574 -0.4556 -0.4681
11601SOL    HW146022   2.287   9.144   0.836  1.7700  0.5919  1.9790
11601SOL    HW246023   2.208   9.110   0.975  0.3534 -2.2417  0.5448
11602SOL     OW46024   1.951   8.212   0.057  0.0785  0.7326  0.2801
11602SOL    HW146025   1.882   8.282   0.076 -0.7112 -0.4314  1.8153
11602SOL    HW246026   2.026   8.221   0.123 -0.2826 -0.1874  0.8255
11603SOL     OW46027   7.675   7.169   3.382 -0.3124 -0.7250  0.8374
11603SOL    HW146028   7.767   7.206   3.396 -0.9063  0.2521  2.2407
11603SOL    HW246029   7.673   7.073   3.413  0.3934 -0.9445  0.2044
11604SOL     OW46030   2.578   7.843   4.665 -0.0272  0.3934  0.5011
11604SOL    HW146031   2.588   7.748   4.696 -0.2218  0.5100  0.9175
11604SOL    HW246032   2.493   7.881   4.699  0.0909  0.7496  0.4046
11605SOL     OW46033   8.554   7.812   1.038  0.1583  0.4555 -0.3427
11605SOL    HW146034   8.470   7.865   1.047 -0.9068 -1.1433 -0.8418
11605SOL    HW246035   8.557   7.769   0.949  0.7979 -0.7227  0.2400
11606SOL     OW46036   6.402   0.937   1.627 -0.1136  0.0177  0.4117
11606SOL    HW146037   6.339   0.859   1.629  0.9345 -0.8413  0.1903
11606SOL    HW246038   6.400   0.983   1.716 -1.2773  0.1746  0.3059
11607SOL     OW46039   4.624   3.978   3.625 -0.0763 -0.0248  0.3025
11607SOL    HW146040   4.707   3.938   3.588 -0.9855 -2.0377  0.3776
11607SOL    HW246041   4.632   3.988   3.724 -0.8461 -2.5804  0.6544
11608SOL     OW46042   8.133   7.185   3.655  0.3129  0.4470  0.4413
11608SOL    HW146043   8.142   7.272   3.705 -0.2872  1.0506 -0.4759
11608SOL    HW246044   8.223   7.146   3.640  0.6993  1.5914 -0.2919
11609SOL     OW46045   8.391   9.353   6.077  0.1595  0.5143 -0.2912
11609SOL    HW146046   8.459   9.374   6.148 -0.3331  0.4541  0.2037
11609SOL    HW246047   8.323   9.290   6.115  0.1554  0.1144 -0.9632
11610SOL     OW46048   8.215   8.468   4.693 -0.1410  0.4191 -0.4074
11610SOL    HW146049   8.248   8.558   4.668  1.6048  0.3926  1.6608
11610SOL    HW246050   8.209   8.460   4.793  3.3351 -2.9285 -0.3379
11611SOL     OW46051   1.569   0.040   1.714  0.1955  0.0414  0.3181
11611SOL    HW146052   1.511   0.101   1.768  0.3851  0.2733  0.2624
11611SOL    HW246053   1.603   0.089   1.634  1.1270  0.1589  0.7796
11612SOL     OW46054   9.491   8.435   5.318 -0.1470 -0.4414  0.6803
11612SOL    HW146055   9.397   8.438   5.351 -0.9861  0.2341 -1.6803
11612SOL    HW246056   9.501   8.360   5.253  0.0665  1.4775 -1.5640
11613SOL     OW46057   2.297   8.901   3.620  0.2753  0.5105  0.2204
11613SOL    HW146058   2.273   8.997   3.628  0.7058  0.6850 -0.5416
11613SOL    HW246059   2.215   8.846   3.602  0.3285  1.0020 -1.5682
11614SOL     OW46060   2.554   0.669   2.369 -0.3503  0.0254  0.2093
11614SOL    HW146061   2.613   0.682   2.289  0.5016  0.2282  0.8591
11614SOL    HW246062   2.481   0.605   2.347 -1.4839  1.8164 -1.4522
11615SOL     OW46063   2.260   5.179   4.904 -0.1055  0.1287  0.3483
11615SOL    HW146064   2.227   5.114   4.836  0.0478 -0.7026  1.0624
11615SOL    HW246065   2.355   5.203   4.884 -0.2844  0.4342 -0.1404
11616SOL     OW46066   5.609   0.056   2.651  0.7590 -0.1348 -0.7602
11616SOL    HW146067   5.517   0.075   2.616  0.4125  1.0614  0.7303
11616SOL    HW246068   5.671   0.129   2.623 -0.0253  2.0891  2.9144
11617SOL     OW46069   4.253   9.005   0.519 -0.6407 -0.6428 -0.0928
11617SOL    HW146070   4.351   8.993   0.502 -0.5843  0.7268 -0.7867
11617SOL    HW246071   4.201   8.939   0.463 -0.1506 -0.9610 -0.1727
11618SOL     OW46072   1.925   4.746   6.008 -0.0538 -0.2677 -0.3051
11618SOL    HW146073   1.838   4.698   6.023 -1.2353  2.5225  2.3151
11618SOL    HW246074   1.910   4.823   5.946  1.0756 -1.1451 -1.6922
11619SOL     OW46075   3.460   9.137   5.266 -1.1094 -0.2730  0.0163
11619SOL    HW146076   3.467   9.236   5.255  0.0761 -0.4678 -1.1526
11619SOL    HW246077   3.551   9.097   5.267 -1.5607 -1.3110  1.0182
11620SOL     OW46078   9.797   2.934   3.744  0.5531 -0.5982  0.1595
11620SOL    HW146079   9.712   2.966   3.786  0.6473  0.9237 -0.7474
11620SOL    HW246080   9.858   3.012   3.731  0.9882 -1.2198 -1.7199
11621SOL     OW46081   7.462   8.769   3.222  0.2227 -0.8959  0.1759
11621SOL    HW146082   7.418   8.804   3.139 -1.1877  0.2076  1.3639
11621SOL    HW246083   7.561   8.785   3.217  0.0914 -0.4380 -1.0794
11622SOL     OW46084   3.313   0.510   5.162 -0.0773  0.6980 -0.4118
11622SOL    HW146085   3.223   0.553   5.150 -0.3487 -0.0703 -1.1882
11622SOL    HW246086   3.301   0.416   5.191  0.4162  0.0719 -2.1524
11623SOL     OW46087   7.861   2.907   5.821  0.3631 -0.3044  0.5243
11623SOL    HW146088   7.884   2.892   5.725 -1.3982  0.5472 -0.0535
11623SOL    HW246089   7.829   3.001   5.833 -1.6630 -1.0874  1.4695
11624SOL     OW46090   6.863   7.873   4.452  0.2682 -0.1308  0.7146
11624SOL    HW146091   6.787   7.938   4.455  1.9979  1.9248  1.0588
11624SOL    HW246092   6.827   7.780   4.445 -2.2487  0.9273 -1.1908
11625SOL     OW46093   9.411   2.608   3.721  0.3108 -0.7903  0.7849
11625SOL    HW146094   9.343   2.592   3.793  0.1671  1.6705  1.2409
11625SOL    HW246095   9.364   2.624   3.634  0.1722  2.3772  1.3823
11626SOL     OW46096   9.585   2.074   2.555  0.0869  0.8057  0.2462
11626SOL    HW146097   9.646   2.136   2.603  0.9145 -0.4243  0.8035
11626SOL    HW246098   9.638   2.018   2.491 -0.8632  1.7423 -1.4016
11627SOL     OW46099   0.912   1.676   3.242 -0.1055 -0.0851 -0.0227
11627SOL    HW146100   0.985   1.733   3.280  0.7739 -0.8844 -0.4939
11627SOL    HW246101   0.949   1.622   3.166 -1.5107  0.4983 -1.1473
11628SOL     OW46102   5.044   8.570   5.739  0.6209 -0.0197  0.5571
11628SOL    HW146103   5.029   8.610   5.830 -2.0094  0.3135  0.0108
11628SOL    HW246104   4.958   8.570   5.688  1.7644 -1.4928 -1.4319
11629SOL     OW46105   1.324   5.061   4.788 -0.1288 -0.1959 -0.1622
11629SOL    HW146106   1.318   5.066   4.887 -0.1895  0.6056 -0.2027
11629SOL    HW246107   1.411   5.020   4.761  1.6828  3.2271  0.1706
11630SOL     OW46108   6.540   2.843   0.938  0.2093  0.1082 -0.5963
11630SOL    HW146109   6.476   2.775   0.974  1.5590 -0.2460  1.2038
11630SOL    HW246110   6.490   2.910   0.884 -1.8006  0.1717  1.2524
11631SOL     OW46111   8.025   7.556   2.925 -0.1792  0.1045 -0.1415
11631SOL    HW146112   8.044   7.549   3.023 -0.1301  1.3028 -0.0552
11631SOL    HW246113   8.058   7.474   2.879 -2.4019 -1.5696  1.1733
11632SOL     OW46114   3.699   5.747   5.756  0.0732  0.1473 -0.2730
11632SOL    HW146115   3.650   5.834   5.760  1.7721  1.0777  0.8402
11632SOL    HW246116   3.719   5.715   5.849 -2.2886 -2.4882 -0.5839
11633SOL     OW46117   7.885   4.661   0.821  0.1089  0.1342 -0.0340
11633SOL    HW146118   7.873   4.605   0.739  0.4374  0.6901 -0.4718
11633SOL    HW246119   7.927   4.748   0.795 -0.8462  0.7789  0.5623
11634SOL     OW46120   7.229   8.674   6.674 -0.1719  0.1687  0.2479
11634SOL    HW146121   7.316   8.718   6.694  0.2774 -0.6623  0.1281
11634SOL    HW246122   7.236   8.576   6.691 -0.8193 -0.0349 -0.6155
11635SOL     OW46123   3.839   9.365   5.539  0.6858 -0.5204 -0.2619
11635SOL    HW146124   3.751   9.318   5.526  0.0501  0.3264  0.9660
11635SOL    HW246125   3.884   9.374   5.450 -0.2825 -1.3124 -0.8518
11636SOL     OW46126   1.749   3.926   1.189  0.4606 -0.2606  0.3655
11636SOL    HW146127   1.654   3.895   1.193  0.5696 -0.6613 -0.1767
11636SOL    HW246128   1.765   3.977   1.104  0.9843 -1.0268  0.0014
11637SOL     OW46129   2.468   6.937   4.921 -0.4579 -0.3140  0.5668
11637SOL    HW146130   2.544   6.959   4.983  0.3163  3.1299 -1.5077
11637SOL    HW246131   2.503   6.886   4.842 -0.6687 -0.5527  0.6263
11638SOL     OW46132   0.015   5.608   0.559  0.2699  0.1212 -0.1240
11638SOL    HW146133  -0.074   5.619   0.604  0.6959 -0.2721  0.8108
11638SOL    HW246134   0.079   5.564   0.621  1.6430  1.9929 -0.1715
11639SOL     OW46135   6.154   3.961   0.878 -0.4202 -0.3279 -0.1232
11639SOL    HW146136   6.150   3.955   0.778  0.2898 -2.1512 -0.0525
11639SOL    HW246137   6.061   3.958   0.915 -0.5915 -1.6291 -0.6349
11640SOL     OW46138   4.532   4.066   2.909  0.1595  0.8196 -0.4691
11640SOL    HW146139   4.488   4.096   2.994  3.8598  3.1594  0.7075
11640SOL    HW246140   4.511   4.130   2.836 -0.7114  0.3307 -0.6633
11641SOL     OW46141   2.212   7.820   2.231 -0.1806  0.7134 -0.2676
11641SOL    HW146142   2.312   7.817   2.222 -0.1110  3.9887 -0.9601
11641SOL    HW246143   2.171   7.784   2.147  0.3989 -0.2498 -0.1524
11642SOL     OW46144   3.025   3.705   3.795  0.2633  0.1796  0.2662
11642SOL    HW146145   2.974   3.787   3.822  0.9090  0.5465  0.3611
11642SOL    HW246146   3.116   3.707   3.834  1.2175  0.7120 -1.9043
11643SOL     OW46147   3.362   2.719   5.714 -0.1596 -0.1648  0.1205
11643SOL    HW146148   3.418   2.796   5.743 -0.2149 -0.5761  1.3296
11643SOL    HW246149   3.418   2.656   5.660  0.0468  0.3905 -0.3216
11644SOL     OW46150   9.959   2.201   4.101 -0.1405 -0.0005 -0.5264
11644SOL    HW146151   9.995   2.190   4.193  1.3951 -0.8284 -1.1987
11644SOL    HW246152   9.898   2.281   4.098  1.3917  1.2513  0.7465
11645SOL     OW46153   0.005   8.644   5.940  0.0266 -0.1395 -0.1749
11645SOL    HW146154   0.103   8.625   5.945  0.1269  0.5802  0.5072
11645SOL    HW246155  -0.022   8.655   5.844  0.4049 -1.4040 -0.4364
11646SOL     OW46156   4.141   7.175   3.482  0.6164 -0.6189  0.2649
11646SOL    HW146157   4.162   7.103   3.548  0.7723 -0.2334  0.6415
11646SOL    HW246158   4.053   7.157   3.439  0.5043 -0.8621  0.5934
11647SOL     OW46159   8.698   7.436   4.366  0.4392 -0.0319  0.1222
11647SOL    HW146160   8.635   7.376   4.415  0.5744 -0.0489  0.2785
11647SOL    HW246161   8.651   7.521   4.342 -0.2314 -0.8472 -1.5400
11648SOL     OW46162   2.245   8.365   5.463 -0.4288 -0.0314  0.4024
11648SOL    HW146163   2.309   8.391   5.392  1.9401 -0.3093  2.3731
11648SOL    HW246164   2.237   8.265   5.465  2.2860 -0.2646  2.7919
11649SOL     OW46165   0.867   7.426   1.622  0.4665  0.1698 -0.0829
11649SOL    HW146166   0.793   7.383   1.570  0.2940 -0.9235  1.0408
11649SOL    HW246167   0.947   7.436   1.563 -0.2150  0.3380 -0.9896
11650SOL     OW46168   0.271   2.163   2.656 -0.1032 -0.7574  0.3853
11650SOL    HW146169   0.352   2.177   2.713 -1.0079 -1.0777  1.7640
11650SOL    HW246170   0.293   2.186   2.561  1.7441 -1.2995  0.6561
11651SOL     OW46171   4.438   1.141   6.448  0.1532 -0.1163  0.1283
11651SOL    HW146172   4.465   1.072   6.515 -1.0490 -1.1333 -0.3981
11651SOL    HW246173   4.404   1.095   6.365 -0.9999  1.1002 -0.0932
11652SOL     OW46174   4.467   7.299   2.299 -0.0337  0.0789  0.4312
11652SOL    HW146175   4.548   7.252   2.265 -0.1550 -0.2538  0.6024
11652SOL    HW246176   4.495   7.380   2.351  0.2464 -0.8139  1.6954
11653SOL     OW46177   8.659   1.751   3.311 -0.2600 -0.5587  0.5543
11653SOL    HW146178   8.631   1.804   3.231 -0.5975 -0.5543  0.6752
11653SOL    HW246179   8.590   1.759   3.382  0.2534 -0.1992  1.0162
11654SOL     OW46180   1.566   8.808   0.482 -0.0234 -0.6291  0.3764
11654SOL    HW146181   1.586   8.812   0.384 -0.4307  1.5276  0.3538
11654SOL    HW246182   1.481   8.857   0.500 -0.3443 -1.6734  1.7206
11655SOL     OW46183   2.458   8.139   6.177  0.7027 -0.1171  0.0157
11655SOL    HW146184   2.423   8.216   6.231  1.8727  0.4606 -0.0168
11655SOL    HW246185   2.478   8.062   6.237  2.4572  0.6898  0.5137
11656SOL     OW46186   2.763   3.732   0.571 -0.2426 -0.3292 -0.5331
11656SOL    HW146187   2.819   3.664   0.523  2.0268  1.3741 -0.3868
11656SOL    HW246188   2.667   3.715   0.551  0.4618 -1.5827 -3.1901
11657SOL     OW46189   8.807   6.791   6.408 -0.3517  0.0780 -0.2888
11657SOL    HW146190   8.771   6.716   6.351  0.9832  1.5548 -3.1616
11657SOL    HW246191   8.882   6.756   6.464  0.7774 -0.6020 -2.1736
11658SOL     OW46192   0.585   1.015   3.678 -0.0883  0.2734 -0.2462
11658SOL    HW146193   0.510   1.027   3.613  0.6984  2.6543 -0.7567
11658SOL    HW246194   0.671   1.004   3.628  0.1759 -0.5475  0.3699
11659SOL     OW46195   8.940   8.237   1.692 -0.1151  0.1411  0.4509
11659SOL    HW146196   8.849   8.259   1.656 -0.2199  1.6826  1.6181
11659SOL    HW246197   8.931   8.175   1.770 -0.1245 -0.0848  0.2716
11660SOL     OW46198   2.689   8.423   0.672 -0.2338  0.0318  0.0634
11660SOL    HW146199   2.617   8.353   0.677  0.3942 -0.7322 -1.4932
11660SOL    HW246200   2.649   8.513   0.691 -1.1772 -0.6370  1.4019
11661SOL     OW46201   2.474   9.106   4.313  0.4039 -0.5935 -0.1129
11661SOL    HW146202   2.495   9.204   4.311  1.3034 -0.7356  1.1836
11661SOL    HW246203   2.523   9.064   4.390  0.7349 -2.2260 -1.2025
11662SOL     OW46204   4.022   0.957   3.391 -0.3504  0.2212  0.1324
11662SOL    HW146205   3.926   0.984   3.385 -0.9039 -1.1232  2.3669
11662SOL    HW246206   4.039   0.878   3.332 -0.9728 -0.4430  0.8320
11663SOL     OW46207   1.946   5.528   5.481  0.2856  0.0583 -0.3973
11663SOL    HW146208   2.015   5.587   5.524  0.9760 -0.4633 -0.7718
11663SOL    HW246209   1.888   5.583   5.422  0.1294  0.5700  0.2265
11664SOL     OW46210   9.837   8.217   3.858 -0.3357  0.2968 -0.7215
11664SOL    HW146211   9.842   8.189   3.954 -1.4380  0.8429 -0.4946
11664SOL    HW246212   9.928   8.244   3.826 -0.0069  0.3355  0.2410
11665SOL     OW46213   6.998   5.374   8.136  0.0916  0.5381 -0.5565
11665SOL    HW146214   6.990   5.348   8.040  1.7626  1.6187 -1.0283
11665SOL    HW246215   6.935   5.449   8.156  0.3454  0.8866 -1.0498
11666SOL     OW46216   9.849   3.660   2.485 -1.3133  0.4423  0.0043
11666SOL    HW146217   9.846   3.614   2.396 -2.1857  0.3128  0.0980
11666SOL    HW246218   9.883   3.596   2.555 -0.4154  0.6091 -0.2650
11667SOL     OW46219   8.521   2.091   1.657 -0.0146 -0.2274  0.0954
11667SOL    HW146220   8.436   2.082   1.709 -0.8333  1.0798 -0.9593
11667SOL    HW246221   8.512   2.042   1.570  0.8963 -1.3934  0.6534
11668SOL     OW46222   8.763   8.211   5.125 -0.5890  0.3894  0.5768
11668SOL    HW146223   8.794   8.299   5.160  3.3831 -1.3045  1.6701
11668SOL    HW246224   8.722   8.158   5.199 -2.1817  0.9347  0.1115
11669SOL     OW46225   5.045   4.387   0.362  0.9477 -0.5695  0.3360
11669SOL    HW146226   5.089   4.379   0.451  2.0483 -1.0993 -0.2425
11669SOL    HW246227   5.029   4.484   0.342  2.3876 -0.3261  0.3080
11670SOL     OW46228   4.949   9.672   5.156 -0.3372  0.2356 -0.1907
11670SOL    HW146229   4.909   9.763   5.168  0.0124  0.3305  0.2611
11670SOL    HW246230   5.003   9.670   5.072 -0.7899  0.2850 -0.4882
11671SOL     OW46231   7.355   7.082   4.183  0.2583  0.0700 -0.4460
11671SOL    HW146232   7.452   7.107   4.182  0.1946  0.3515  0.3908
11671SOL    HW246233   7.306   7.139   4.249 -0.3752 -0.4581 -0.4563
11672SOL     OW46234   4.647   8.775   5.335 -0.1208 -0.0587 -0.2782
11672SOL    HW146235   4.679   8.864   5.303  0.1559 -0.1383 -0.2245
11672SOL    HW246236   4.548   8.776   5.341 -0.0967  0.3932  0.1500
11673SOL     OW46237   6.706   0.051   4.803 -0.0793  0.1035  0.4918
11673SOL    HW146238   6.674   0.134   4.756 -1.9636  1.4338  3.9433
11673SOL    HW246239   6.686  -0.029   4.747 -0.4480  1.7772 -1.8312
11674SOL     OW46240   7.561   8.338   4.561 -0.0001  0.3397 -0.8527
11674SOL    HW146241   7.614   8.358   4.644 -1.9730  1.7056  0.1149
11674SOL    HW246242   7.624   8.313   4.487  1.9697  1.5003  0.3782
11675SOL     OW46243   2.310   2.742   0.839 -0.6354 -0.3514  0.2669
11675SOL    HW146244   2.221   2.777   0.810 -0.2835  0.2617 -0.0770
11675SOL    HW246245   2.369   2.818   0.864  0.0321 -0.7173 -0.1896
11676SOL     OW46246   8.145   2.194   2.127 -0.2013  0.3025 -0.5566
11676SOL    HW146247   8.080   2.177   2.201  2.5561  0.3408  1.9969
11676SOL    HW246248   8.104   2.255   2.060 -2.5454  0.8695  1.2950
11677SOL     OW46249   7.323   9.210   3.944 -0.1911 -0.1159  0.7243
11677SOL    HW146250   7.249   9.197   4.010  0.9358 -0.9075  1.8550
11677SOL    HW246251   7.369   9.122   3.927 -0.8457 -0.0409 -1.5790
11678SOL     OW46252   0.725   0.133   2.201 -0.0450 -0.0640  0.1970
11678SOL    HW146253   0.662   0.149   2.125 -1.2890 -0.2287  1.1632
11678SOL    HW246254   0.743   0.035   2.209  0.6795  0.0248 -0.3483
11679SOL     OW46255   2.235   9.123   4.851 -0.6888 -0.2623  0.2032
11679SOL    HW146256   2.139   9.124   4.825 -0.5633 -0.6048 -0.2709
11679SOL    HW246257   2.292   9.103   4.771 -0.3669 -2.4350  0.9285
11680SOL     OW46258   4.691   9.517   5.883 -0.2510  0.3160 -0.0065
11680SOL    HW146259   4.670   9.523   5.980 -0.5747 -1.0889  0.0063
11680SOL    HW246260   4.613   9.477   5.834  0.9944 -1.6207 -0.4417
11681SOL     OW46261   4.353   8.289   4.444  0.2082  0.0705 -0.4688
11681SOL    HW146262   4.294   8.363   4.476 -0.0937  0.1645 -1.2479
11681SOL    HW246263   4.296   8.214   4.410  0.5300 -0.1285 -0.5673
11682SOL     OW46264   7.584   4.008   1.994  0.1240  0.2575 -0.2192
11682SOL    HW146265   7.574   3.909   1.990  2.0096 -0.0219  1.1660
11682SOL    HW246266   7.533   4.044   2.071  0.4930  0.2102  0.0470
11683SOL     OW46267   3.695   3.560   4.912  0.2009 -0.0724  0.0401
11683SOL    HW146268   3.716   3.519   4.823  0.3615 -2.0732  0.9883
11683SOL    HW246269   3.706   3.660   4.906  4.4178 -0.4998 -1.0957
11684SOL     OW46270   3.025   4.568   1.978  0.1109  0.5260 -0.0040
11684SOL    HW146271   2.931   4.585   1.948  0.4530 -0.9910 -2.0601
11684SOL    HW246272   3.028   4.563   2.078 -1.6581  2.4389  0.1703
11685SOL     OW46273   1.110   8.128   3.978  0.5862  0.5885  0.5826
11685SOL    HW146274   1.024   8.105   3.931  0.3897  0.3839  1.0397
11685SOL    HW246275   1.179   8.155   3.910 -0.6020  3.3249  0.4056
11686SOL     OW46276   9.268   2.057   4.307 -0.2121 -1.1699  0.1356
11686SOL    HW146277   9.312   1.971   4.280  2.0155  0.2393 -0.8353
11686SOL    HW246278   9.325   2.103   4.375  0.6397  1.3919 -2.2305
11687SOL     OW46279   0.928   3.499   5.575 -0.3690 -0.8140  0.1743
11687SOL    HW146280   0.990   3.446   5.517  1.9502  1.9747 -0.0561
11687SOL    HW246281   0.957   3.491   5.671 -0.4581 -0.5772  0.2223
11688SOL     OW46282   6.126   2.139   5.654 -0.0898  0.2686  0.1015
11688SOL    HW146283   6.066   2.202   5.704 -0.1310  0.6336 -0.4057
11688SOL    HW246284   6.134   2.169   5.559  0.2026 -0.2743 -0.0459
11689SOL     OW46285   1.748   3.043   1.866  0.5177 -0.5311  0.3259
11689SOL    HW146286   1.680   3.084   1.927 -0.9755 -2.0383 -0.3010
11689SOL    HW246287   1.780   3.111   1.800 -0.9864 -0.0349  0.1010
11690SOL     OW46288   2.598   6.750   2.697 -0.3904  0.0152 -0.2761
11690SOL    HW146289   2.648   6.771   2.613  0.6701  3.1233  1.0657
11690SOL    HW246290   2.545   6.829   2.725 -0.1081 -0.6932  2.4170
11691SOL     OW46291   1.193   9.161   0.955 -0.4535  0.4413 -0.9303
11691SOL    HW146292   1.111   9.131   1.003 -0.0506 -1.0501 -1.1626
11691SOL    HW246293   1.177   9.251   0.915 -2.4539 -0.4734 -2.1984
11692SOL     OW46294   3.989   1.831   5.354  0.1464  0.0874  0.2290
11692SOL    HW146295   4.029   1.739   5.352  0.9429  0.4621 -2.1834
11692SOL    HW246296   4.059   1.898   5.377  0.5435  0.5418 -2.2072
11693SOL     OW46297   4.210   3.684   1.487 -0.4441  0.0798 -0.8917
11693SOL    HW146298   4.137   3.671   1.554 -2.0595  1.7711 -2.2668
11693SOL    HW246299   4.236   3.781   1.484  0.5196 -0.1992 -1.7628
11694SOL     OW46300   7.884   7.959   2.940  0.3195  0.0709 -0.3918
11694SOL    HW146301   7.861   7.919   2.852 -4.2068  0.6611  0.4014
11694SOL    HW246302   7.873   7.890   3.012 -1.9764  1.1547  0.3412
11695SOL     OW46303   3.863   4.567   2.315  0.3867 -0.4730  0.0605
11695SOL    HW146304   3.848   4.496   2.384  3.4768 -0.8296  0.4538
11695SOL    HW246305   3.894   4.525   2.230  0.1386  0.2414 -0.3887
11696SOL     OW46306   5.178   4.207   1.276  0.3207 -0.3438  0.3972
11696SOL    HW146307   5.150   4.112   1.263 -2.3907  0.5489 -0.6575
11696SOL    HW246308   5.125   4.247   1.351 -0.8987  1.2568 -1.3012
11697SOL     OW46309   0.233   2.076   5.748  0.5372  0.5839  0.0518
11697SOL    HW146310   0.293   2.126   5.685 -0.5655  0.8991 -0.7641
11697SOL    HW246311   0.151   2.047   5.699  0.0696  0.0665  1.1366
11698SOL     OW46312   1.301   6.518   3.081  0.3160 -0.4455  0.2997
11698SOL    HW146313   1.292   6.468   3.167  1.3694  0.5503  0.9954
11698SOL    HW246314   1.245   6.601   3.084  0.1195 -0.5629 -0.0866
11699SOL     OW46315   6.966   0.727   1.113  0.1731  0.1548  0.0559
11699SOL    HW146316   6.952   0.798   1.044  0.9593  0.1960 -0.0590
11699SOL    HW246317   7.007   0.768   1.195 -2.0850  0.3906  1.1108
11700SOL     OW46318   8.047   0.327   6.584  0.1498  0.2990 -0.5731
11700SOL    HW146319   8.137   0.312   6.624 -0.4969 -0.1469  0.7257
11700SOL    HW246320   8.055   0.329   6.484  1.4064 -1.0035 -0.5107
11701SOL     OW46321   2.322   1.173   5.121  0.2625  0.2852 -0.0572
11701SOL    HW146322   2.322   1.272   5.107  1.1845  0.2748 -0.1566
11701SOL    HW246323   2.415   1.138   5.110  0.1181 -0.4490  0.9655
11702SOL     OW46324   9.573   0.904   3.786 -0.2727 -0.7851 -0.6236
11702SOL    HW146325   9.582   1.004   3.785 -1.0196 -0.7127 -1.3051
11702SOL    HW246326   9.601   0.868   3.875 -1.0107  0.1410 -0.0036
11703SOL     OW46327   2.512   9.812   5.565  0.6425  0.0890 -0.6952
11703SOL    HW146328   2.596   9.851   5.604 -0.0091  0.9640 -0.1590
11703SOL    HW246329   2.524   9.798   5.467  1.8528 -0.9435 -0.4091
11704SOL     OW46330   0.940   7.155   5.322  0.0272  0.3241  0.2789
11704SOL    HW146331   0.958   7.135   5.418 -0.5726  0.5016  0.4303
11704SOL    HW246332   1.020   7.201   5.282  1.1864 -1.8045  0.0766
11705SOL     OW46333   2.605   6.138   2.187 -0.4817 -0.1676 -0.6219
11705SOL    HW146334   2.506   6.128   2.200 -0.1183 -0.2076  2.4816
11705SOL    HW246335   2.638   6.214   2.241  1.3050 -0.5125 -1.1871
11706SOL     OW46336   1.475   1.740   4.792 -0.1345  0.3962 -0.0097
11706SOL    HW146337   1.484   1.838   4.809  1.7276  0.2624 -0.0865
11706SOL    HW246338   1.489   1.690   4.878  0.2000  0.1363 -0.2172
11707SOL     OW46339   3.728   2.624   0.941 -0.3919 -0.5302 -0.0764
11707SOL    HW146340   3.674   2.707   0.952  0.0851 -0.3677  1.0823
11707SOL    HW246341   3.666   2.545   0.939 -0.6655 -0.3599  1.4016
11708SOL     OW46342   7.398   8.660   4.896 -0.1640  0.1032  0.1241
11708SOL    HW146343   7.370   8.608   4.815  0.5824 -1.3086  0.7642
11708SOL    HW246344   7.388   8.758   4.877 -0.1993 -0.2125 -1.5999
11709SOL     OW46345   1.861   2.808   2.270 -0.1585  0.8227 -1.3844
11709SOL    HW146346   1.777   2.821   2.323 -0.8953  0.3064 -2.4144
11709SOL    HW246347   1.868   2.881   2.202  0.6018  1.2760 -0.8306
11710SOL     OW46348   7.312   2.667   2.261 -0.2878  0.1818  0.3335
11710SOL    HW146349   7.370   2.690   2.182 -0.0139  0.3953  0.5929
11710SOL    HW246350   7.345   2.717   2.342  0.7053 -1.6018  1.0498
11711SOL     OW46351   1.353   2.678   6.085 -0.0287  0.0082 -0.3506
11711SOL    HW146352   1.346   2.590   6.132 -1.5200  0.1851 -0.2259
11711SOL    HW246353   1.417   2.669   6.008  0.1558 -1.0734 -0.0885
11712SOL     OW46354   2.322   8.483   6.219 -0.3173 -0.1305  0.3203
11712SOL    HW146355   2.326   8.566   6.164  0.9453  0.0247  0.6439
11712SOL    HW246356   2.273   8.411   6.169  0.3468  0.1805 -0.7675
11713SOL     OW46357   7.391   5.650   7.777  0.4215 -0.7259  0.1213
11713SOL    HW146358   7.442   5.734   7.761 -1.9044  0.1594 -3.0917
11713SOL    HW246359   7.315   5.667   7.840  0.7106 -0.7346  0.4738
11714SOL     OW46360   2.494   7.133   4.355 -0.5594  0.7359 -0.3503
11714SOL    HW146361   2.473   7.043   4.316  0.7814  0.1504  0.2651
11714SOL    HW246362   2.408   7.179   4.378 -1.2582 -0.4137 -0.5813
11715SOL     OW46363   0.802   9.950   6.229  0.6055 -0.2716  0.2467
11715SOL    HW146364   0.706   9.976   6.236  0.7395  0.4684 -0.5191
11715SOL    HW246365   0.813   9.854   6.254 -0.4289 -0.5192 -0.2346
11716SOL     OW46366   2.310   0.086   2.720  0.5759  0.0009 -0.2333
11716SOL    HW146367   2.395   0.091   2.668  0.0643 -1.6665 -1.2654
11716SOL    HW246368   2.236   0.054   2.661 -0.0296 -1.9225  1.4900
11717SOL     OW46369   9.998   3.306   5.638 -0.7915 -0.0234  0.2041
11717SOL    HW146370  10.037   3.236   5.699 -3.7226 -0.6519  1.4231
11717SOL    HW246371  10.061   3.384   5.634  1.3773 -1.6768  0.7717
11718SOL     OW46372   6.135   4.993   0.864  0.0678 -0.0357  0.0393
11718SOL    HW146373   6.043   4.998   0.905  0.2163 -0.7659  0.4725
11718SOL    HW246374   6.199   5.044   0.922  0.2874 -1.1131  0.7507
11719SOL     OW46375   7.352   4.181   1.110  0.2202  0.4029  0.2339
11719SOL    HW146376   7.304   4.264   1.082  0.6132  0.7177  0.4847
11719SOL    HW246377   7.286   4.107   1.127 -0.0597  0.3723 -0.9652
11720SOL     OW46378   0.690   7.298   2.819  0.7680 -0.1202 -0.0362
11720SOL    HW146379   0.635   7.288   2.902 -0.9054 -0.6402 -1.1845
11720SOL    HW246380   0.787   7.304   2.844  0.2123  0.8185  2.0158
11721SOL     OW46381   3.609   4.890   4.512 -0.3358 -0.7587 -0.4013
11721SOL    HW146382   3.627   4.922   4.605 -0.2246  0.9516 -1.0072
11721SOL    HW246383   3.513   4.908   4.489 -0.6340 -2.0900 -0.2795
11722SOL     OW46384   4.122   3.839   0.235 -0.4318 -1.0692  0.0280
11722SOL    HW146385   4.171   3.912   0.187  0.1345 -1.4624  0.0009
11722SOL    HW246386   4.122   3.756   0.179 -1.9423 -0.8044 -0.3717
11723SOL     OW46387   3.622   9.881   1.491 -0.1888  0.3520  0.0728
11723SOL    HW146388   3.570   9.938   1.428 -0.5259 -0.1764 -0.1350
11723SOL    HW246389   3.571   9.796   1.509  0.6327 -0.2031 -0.1890
11724SOL     OW46390   4.357   1.818   5.069 -0.6423  0.0228  0.1139
11724SOL    HW146391   4.411   1.787   4.990  1.3938  0.0002  1.4692
11724SOL    HW246392   4.335   1.915   5.057  0.6060  0.3075  0.0100
11725SOL     OW46393   7.889   4.298   2.264 -0.3307 -0.0015  0.5814
11725SOL    HW146394   7.936   4.211   2.248  0.0208  0.4878 -1.0932
11725SOL    HW246395   7.802   4.280   2.310 -0.8432 -1.3630 -0.8878
11726SOL     OW46396   0.200   1.039   4.395  0.5222  0.0898  0.3424
11726SOL    HW146397   0.200   0.940   4.389  0.0102  0.1844 -1.5524
11726SOL    HW246398   0.288   1.071   4.429  0.7522 -0.9826  0.7657
11727SOL     OW46399   2.704   1.668   5.883  0.0824  0.0081 -0.1453
11727SOL    HW146400   2.707   1.601   5.957  2.0768 -0.5178 -0.6846
11727SOL    HW246401   2.715   1.621   5.795  1.9590  1.0661 -0.4972
11728SOL     OW46402   4.742   0.577   2.642  0.1304  0.1855 -0.6098
11728SOL    HW146403   4.801   0.590   2.721 -0.8003 -1.6116  0.4179
11728SOL    HW246404   4.762   0.488   2.600 -0.6528  0.3200 -1.2864
11729SOL     OW46405   0.725   0.042   5.818  0.0621 -0.1492  0.0378
11729SOL    HW146406   0.788   0.107   5.860  0.4124  0.2311 -1.0443
11729SOL    HW246407   0.757  -0.052   5.834  1.0387  0.0500 -0.7144
11730SOL     OW46408   2.845   7.983   3.429 -0.4836 -0.9237 -0.1136
11730SOL    HW146409   2.772   7.964   3.495 -1.6247 -3.3198 -1.9733
11730SOL    HW246410   2.892   7.897   3.406  2.9909  0.5622  1.0309
11731SOL     OW46411   7.433   6.801   4.395 -0.7129  0.7639 -0.4224
11731SOL    HW146412   7.511   6.832   4.340 -0.0085 -1.7370 -0.8791
11731SOL    HW246413   7.353   6.790   4.336 -0.1747 -1.1081 -0.8496
11732SOL     OW46414   3.272   5.776   4.898  0.2388  0.0722  0.2361
11732SOL    HW146415   3.184   5.776   4.945 -0.8459 -0.5550 -1.7238
11732SOL    HW246416   3.280   5.860   4.844  1.3016  0.6094  1.2187
11733SOL     OW46417   1.445   7.945   1.983  0.1997  0.4116 -0.4112
11733SOL    HW146418   1.439   7.854   2.024  0.0116  0.6367  0.0554
11733SOL    HW246419   1.462   8.013   2.054  0.2610  0.7526 -0.7510
11734SOL     OW46420   8.784   9.726   1.428 -0.0887  0.3664 -0.5348
11734SOL    HW146421   8.745   9.654   1.485  1.3972  0.6417  0.8558
11734SOL    HW246422   8.712   9.792   1.404 -1.0668 -0.6215 -0.3429
11735SOL     OW46423   2.775   5.591   5.188  0.7523 -0.5452  0.4723
11735SOL    HW146424   2.683   5.618   5.217  0.2976 -0.8413 -0.6756
11735SOL    HW246425   2.780   5.491   5.185  1.2615 -0.5398  0.9687
11736SOL     OW46426   0.612   8.616   2.544 -0.7529  0.1985 -0.3176
11736SOL    HW146427   0.665   8.608   2.628 -0.9999 -0.6183 -0.2421
11736SOL    HW246428   0.587   8.712   2.531 -0.2635  0.4146  0.2570
11737SOL     OW46429   1.717   5.227   4.280 -0.0550 -0.0698 -0.3682
11737SOL    HW146430   1.633   5.257   4.326  0.3852  0.3377  0.1787
11737SOL    HW246431   1.705   5.134   4.245 -0.5795 -0.1760  0.0893
11738SOL     OW46432   8.872   2.916   5.417  0.0008 -0.1459 -0.2318
11738SOL    HW146433   8.846   2.919   5.513  0.5017  2.7875 -0.1492
11738SOL    HW246434   8.949   2.852   5.405 -0.8786 -1.4788  1.0748
11739SOL     OW46435   4.351   4.615   4.553  0.0821  0.2769 -0.0829
11739SOL    HW146436   4.412   4.628   4.475  0.9406  0.2579  0.5834
11739SOL    HW246437   4.283   4.545   4.530  2.8446 -2.7771  0.6137
11740SOL     OW46438   8.576   5.297   0.688 -0.7584  0.2013  0.1362
11740SOL    HW146439   8.638   5.237   0.639  0.0561 -1.8542  3.4998
11740SOL    HW246440   8.627   5.376   0.725 -0.4568 -0.5409  1.3456
11741SOL     OW46441   7.619   9.531   3.088 -0.1356  0.3474 -0.1308
11741SOL    HW146442   7.577   9.586   3.160 -0.8272 -1.6306  0.9999
11741SOL    HW246443   7.584   9.561   2.999 -0.0972  2.0742  0.4036
11742SOL     OW46444   7.053   9.078   3.461 -0.3637  0.0491  0.2699
11742SOL    HW146445   7.102   9.018   3.398 -0.1186  0.6876 -0.1580
11742SOL    HW246446   7.015   9.155   3.410  0.8539  1.2104  1.0850
11743SOL     OW46447   8.474   7.167   2.924  0.1815  0.7673  0.3523
11743SOL    HW146448   8.549   7.201   2.867  0.8751 -1.8170 -0.3468
11743SOL    HW246449   8.431   7.089   2.879 -3.1323  2.3379  0.6377
11744SOL     OW46450   1.071   1.303   5.665  0.1347  0.0626  0.5122
11744SOL    HW146451   1.136   1.353   5.607  1.7750 -2.8405 -0.2439
11744SOL    HW246452   1.107   1.297   5.757  0.8779 -1.4291  0.1267
11745SOL     OW46453   4.827   8.347   3.933  0.1305 -0.3813 -0.5876
11745SOL    HW146454   4.738   8.380   3.965 -0.8779 -2.7437 -0.8179
11745SOL    HW246455   4.852   8.395   3.849 -0.2006  1.3636  0.2817
11746SOL     OW46456   3.112   4.650   0.719  0.2899  0.5568 -0.0223
11746SOL    HW146457   3.014   4.666   0.728  0.2344  0.9873 -1.2669
11746SOL    HW246458   3.158   4.673   0.805 -0.6551  0.6738  0.4539
11747SOL     OW46459   2.918   0.315   1.138  0.3524  0.7138 -0.0340
11747SOL    HW146460   3.014   0.315   1.164  0.7270  2.2207 -1.3355
11747SOL    HW246461   2.907   0.363   1.051 -1.2997 -1.2879 -0.9662
11748SOL     OW46462   2.992   1.731   3.213  0.0796 -0.2183  0.3337
11748SOL    HW146463   2.941   1.794   3.272  2.3696  2.3260 -0.2756
11748SOL    HW246464   2.945   1.720   3.126 -0.2168  0.8464  0.3566
11749SOL     OW46465   2.064   3.303   2.701 -0.7529  0.1963 -0.1746
11749SOL    HW146466   2.029   3.253   2.622  0.0502  1.4916 -1.3770
11749SOL    HW246467   2.016   3.274   2.783 -1.9734 -0.7796 -1.2206
11750SOL     OW46468   5.133   4.551   1.259  0.2476  0.1892 -0.2359
11750SOL    HW146469   5.201   4.622   1.282 -1.6711  1.6268  1.1745
11750SOL    HW246470   5.052   4.563   1.316 -1.7153 -0.7430 -2.7139
11751SOL     OW46471   9.503   2.256   4.153 -0.4145  0.1677  0.2833
11751SOL    HW146472   9.480   2.285   4.246 -0.8172  0.1684  0.1872
11751SOL    HW246473   9.491   2.157   4.146 -0.3324  0.1606  0.2483
11752SOL     OW46474   8.784   9.283   5.332  0.7250 -0.3240  0.2793
11752SOL    HW146475   8.881   9.305   5.326  0.8899 -0.7604  1.1731
11752SOL    HW246476   8.759   9.221   5.258  1.1591 -0.3002  0.1106
11753SOL     OW46477   2.418   9.664   1.141  0.2693  0.0758  0.2520
11753SOL    HW146478   2.339   9.722   1.160 -1.0676 -1.7446  0.3892
11753SOL    HW246479   2.438   9.666   1.043 -0.2767  0.1339  0.1406
11754SOL     OW46480   0.779   5.530   0.015 -0.6029  0.6081 -0.3551
11754SOL    HW146481   0.804   5.445   0.060  0.1997  0.5218 -0.9457
11754SOL    HW246482   0.767   5.513  -0.083 -0.1203  1.2306 -0.5280
11755SOL     OW46483   3.330   7.440   1.333 -0.3003 -0.2801  0.3861
11755SOL    HW146484   3.283   7.525   1.356  0.0102  0.0463 -0.2099
11755SOL    HW246485   3.269   7.381   1.280  0.1830  0.4092 -0.9371
11756SOL     OW46486   7.466   2.394   3.134 -0.5996  0.1629  0.0459
11756SOL    HW146487   7.370   2.384   3.108 -0.4500 -2.2319  0.2270
11756SOL    HW246488   7.522   2.340   3.070  0.4659  0.2624  0.8930
11757SOL     OW46489   4.050   4.208   3.346 -0.1879  0.3392 -0.1515
11757SOL    HW146490   4.056   4.308   3.345  1.6604  0.2418  0.3879
11757SOL    HW246491   4.062   4.173   3.253  0.0610  0.5764 -0.2099
11758SOL     OW46492   8.019   7.153   1.420 -0.2446 -0.3411 -0.2093
11758SOL    HW146493   7.985   7.246   1.401  0.1679 -0.0159  0.5852
11758SOL    HW246494   7.941   7.093   1.438 -0.4986 -0.0450 -0.3116
11759SOL     OW46495   9.350   0.301   2.633  0.1197  0.1546  0.2223
11759SOL    HW146496   9.415   0.344   2.696  1.2548  2.1847 -2.2549
11759SOL    HW246497   9.390   0.218   2.595  0.5451  0.4308  0.0672
11760SOL     OW46498   8.144   5.455   3.790 -0.0128  0.1845 -0.0719
11760SOL    HW146499   8.227   5.421   3.834 -1.1750 -0.3427  1.7352
11760SOL    HW246500   8.103   5.382   3.734 -0.3455 -0.1665  0.6297
11761SOL     OW46501   2.765   1.835   5.608  0.4492 -0.0034  0.4509
11761SOL    HW146502   2.843   1.889   5.637  0.7736 -1.0676  1.6092
11761SOL    HW246503   2.783   1.738   5.626 -1.1211 -0.2671  0.6898
11762SOL     OW46504   7.898   6.016   5.321 -0.0410 -0.9133  0.8209
11762SOL    HW146505   7.909   6.029   5.222  0.9546 -0.3495  0.9985
11762SOL    HW246506   7.842   5.935   5.338  0.2645 -1.3456 -0.1996
11763SOL     OW46507   4.736   8.427   1.097  0.2753 -0.1359  0.2358
11763SOL    HW146508   4.800   8.487   1.144  0.1729  0.7184 -0.6924
11763SOL    HW246509   4.703   8.473   1.014  0.8247 -1.7885 -0.9238
11764SOL     OW46510   6.469   8.962   5.932  0.6433  0.5030  0.0264
11764SOL    HW146511   6.498   8.873   5.966 -1.5689  0.3876  1.8148
11764SOL    HW246512   6.449   8.957   5.834  2.7101 -0.3708 -0.3496
11765SOL     OW46513   1.312   4.911   3.762  0.2385 -0.2618 -0.1385
11765SOL    HW146514   1.352   4.940   3.675  0.8716 -1.2981 -0.1999
11765SOL    HW246515   1.243   4.841   3.746  0.4020 -0.5018  0.1994
11766SOL     OW46516   4.989   0.254   6.116 -0.4154 -0.3619  0.0388
11766SOL    HW146517   5.064   0.217   6.061  0.7623  0.9043  0.7648
11766SOL    HW246518   4.901   0.226   6.076  0.4280 -1.7443 -0.8968
11767SOL     OW46519   5.464   0.138   4.102 -0.0841  0.8332  0.5934
11767SOL    HW146520   5.440   0.227   4.139 -1.2305  1.4167 -1.5277
11767SOL    HW246521   5.405   0.068   4.142  0.0040  1.1793  1.3349
11768SOL     OW46522   3.462   5.933   1.209  0.9341 -0.3907 -0.0993
11768SOL    HW146523   3.493   5.871   1.281  2.9203 -0.6808 -1.1611
11768SOL    HW246524   3.505   6.022   1.220  0.2289 -0.0284 -0.1922
11769SOL     OW46525   8.530   9.826   1.735 -0.0292  0.0995 -0.2094
11769SOL    HW146526   8.510   9.923   1.729  0.1689  0.1919  0.5507
11769SOL    HW246527   8.570   9.805   1.824  1.9604 -0.3144 -1.1555
11770SOL     OW46528   4.833   4.558   1.893 -0.9914  0.0341  0.5140
11770SOL    HW146529   4.769   4.513   1.955 -0.4279 -1.4890  0.0082
11770SOL    HW246530   4.796   4.558   1.800 -0.5874 -0.1817  0.3528
11771SOL     OW46531   7.767   2.037   1.329  0.1668 -0.3894 -0.2546
11771SOL    HW146532   7.779   2.135   1.348  1.4163 -0.7036  0.6854
11771SOL    HW246533   7.857   1.993   1.327 -0.3463 -1.4100 -1.3143
11772SOL     OW46534   0.766   4.843   4.988 -0.5924 -0.3983 -0.0739
11772SOL    HW146535   0.827   4.916   5.018  1.0878 -2.0228  0.6244
11772SOL    HW246536   0.681   4.882   4.953 -0.2731  1.8080  1.5098
11773SOL     OW46537   4.654   6.726   3.209 -0.0124 -0.5341  0.1320
11773SOL    HW146538   4.742   6.771   3.200 -0.4702  0.5204  0.7958
11773SOL    HW246539   4.595   6.750   3.132 -0.4752  0.5321  0.8026
11774SOL     OW46540   1.170   1.838   4.846  0.0141  0.1449  0.8278
11774SOL    HW146541   1.269   1.847   4.853  0.4197 -2.5107 -0.5843
11774SOL    HW246542   1.139   1.877   4.759  0.1557 -0.9851  0.2521
11775SOL     OW46543   1.934   6.211   1.508  0.6347 -0.0596 -0.1438
11775SOL    HW146544   1.897   6.245   1.422  0.1196 -0.8670 -0.2431
11775SOL    HW246545   1.865   6.155   1.554  0.8367  0.5146  0.8824
11776SOL     OW46546   6.302   7.871   3.938 -0.1055 -0.4999 -0.2780
11776SOL    HW146547   6.372   7.872   4.010  0.0824 -0.4742 -0.4616
11776SOL    HW246548   6.340   7.830   3.855 -0.0494  0.2810 -0.6434
11777SOL     OW46549   4.422   0.785   2.270 -0.7341 -0.2220 -0.2130
11777SOL    HW146550   4.471   0.773   2.356 -0.9883  0.9562  0.1065
11777SOL    HW246551   4.358   0.709   2.258 -1.8694  0.4321  1.4443
11778SOL     OW46552   7.333   0.180   2.105 -0.0377 -0.3265  0.4083
11778SOL    HW146553   7.282   0.125   2.170 -0.2553  2.2607  2.5238
11778SOL    HW246554   7.343   0.273   2.140  1.1055  0.7750 -2.6094
11779SOL     OW46555   8.550   7.235   2.650 -0.5577  0.4724 -0.4856
11779SOL    HW146556   8.463   7.251   2.603 -0.3601  0.8247 -0.7272
11779SOL    HW246557   8.585   7.145   2.625 -0.3186  0.7687 -1.2250
11780SOL     OW46558   2.166   7.179   2.091 -0.0923 -0.6684  0.4416
11780SOL    HW146559   2.168   7.087   2.131 -2.0641 -0.5362  0.8911
11780SOL    HW246560   2.160   7.247   2.163 -0.4705 -0.2775  0.0417
11781SOL     OW46561   8.455   4.251   3.319  0.8067 -0.0035  0.7322
11781SOL    HW146562   8.463   4.336   3.371  1.3363  0.9651 -0.9222
11781SOL    HW246563   8.476   4.174   3.379  0.4534  1.0270  2.2124
11782SOL     OW46564   7.624   2.963   5.544 -0.2795  0.1686  0.5541
11782SOL    HW146565   7.644   3.061   5.534 -1.1711  0.2531 -0.4334
11782SOL    HW246566   7.539   2.952   5.596 -0.0166 -0.0947  0.9300
11783SOL     OW46567   2.310   3.097   2.732 -0.3598  0.2386  0.1534
11783SOL    HW146568   2.380   3.096   2.804  1.0162 -0.8551 -1.1725
11783SOL    HW246569   2.283   3.191   2.712 -2.1767  0.4835  3.4330
11784SOL     OW46570   8.278   4.460   2.277 -0.5310 -0.2620  0.5570
11784SOL    HW146571   8.357   4.519   2.261 -0.4563 -0.6818 -0.6444
11784SOL    HW246572   8.309   4.364   2.281 -0.7277 -0.2819  1.9277
11785SOL     OW46573   6.417   4.859   0.223 -0.0465  0.3728  0.8824
11785SOL    HW146574   6.400   4.922   0.299  0.4368 -0.2657  1.5264
11785SOL    HW246575   6.473   4.904   0.154  0.8606  0.4442  1.6543
11786SOL     OW46576   1.962   2.294   5.500  0.3981 -0.1812 -0.7333
11786SOL    HW146577   1.867   2.307   5.473  0.5370 -2.5450 -2.5514
11786SOL    HW246578   1.997   2.377   5.543 -2.2959  0.9093 -0.5724
11787SOL     OW46579   0.182   4.067   0.202 -0.2699 -0.0354 -0.2094
11787SOL    HW146580   0.228   3.998   0.258  0.1121  1.1097  0.9140
11787SOL    HW246581   0.138   4.023   0.124  2.9061 -1.1609 -1.4706
11788SOL     OW46582   2.423   5.742   0.588  0.2566 -0.1134 -0.2871
11788SOL    HW146583   2.435   5.718   0.491  0.0768  1.2049 -0.6552
11788SOL    HW246584   2.378   5.831   0.594  0.8771  0.1213  1.0122
11789SOL     OW46585   5.979   8.966   3.814  0.0877  0.1506  0.3054
11789SOL    HW146586   5.909   8.984   3.883 -0.0048  1.5680 -0.1437
11789SOL    HW246587   6.067   9.003   3.846  0.0471  0.7961 -0.3167
11790SOL     OW46588   5.827   0.734   5.613  0.4170  0.3730  0.1835
11790SOL    HW146589   5.830   0.770   5.706 -1.1104 -1.0218  0.7879
11790SOL    HW246590   5.914   0.689   5.592 -0.3007 -1.9555  2.0422
11791SOL     OW46591   7.563   4.445   2.263  0.5069  0.0733 -0.0742
11791SOL    HW146592   7.612   4.527   2.237  0.3772  0.0490 -0.3982
11791SOL    HW246593   7.473   4.470   2.300  1.0657  0.1673  1.2649
11792SOL     OW46594   9.085   2.151   5.914  0.5531 -0.1324  0.2737
11792SOL    HW146595   9.075   2.052   5.900 -0.0298 -0.1658  0.9307
11792SOL    HW246596   8.997   2.191   5.937  0.7413  0.5891 -0.2429
11793SOL     OW46597   5.095   9.604   2.039 -0.4537 -0.3095  0.0363
11793SOL    HW146598   5.108   9.665   1.961  1.6782 -1.7341 -0.7538
11793SOL    HW246599   5.088   9.659   2.123 -2.7562  1.2245 -1.1199
11794SOL     OW46600   5.332   5.572   2.294 -0.2063  0.2244  0.7439
11794SOL    HW146601   5.265   5.499   2.301  0.6252 -0.7720 -1.4292
11794SOL    HW246602   5.288   5.655   2.260 -0.5329 -0.1355  0.2884
11795SOL     OW46603   2.790   0.495   6.101 -0.2268  0.4577  0.1486
11795SOL    HW146604   2.706   0.462   6.145  0.9315 -0.5062  1.7004
11795SOL    HW246605   2.768   0.535   6.012 -1.9050 -3.1497 -1.1310
11796SOL     OW46606   8.838   0.572   2.986  0.3567  0.3479  0.2188
11796SOL    HW146607   8.928   0.614   2.994  1.3296 -1.8705  1.2406
11796SOL    HW246608   8.834   0.514   2.905 -1.3181  3.0615 -1.7578
11797SOL     OW46609   6.093   4.719   1.549  0.0806  0.4030 -0.2287
11797SOL    HW146610   6.111   4.815   1.531 -0.7467  0.3046 -1.6469
11797SOL    HW246611   6.032   4.710   1.628 -0.3148  1.0587 -0.4622
11798SOL     OW46612   4.187   3.120   2.706 -0.3401 -0.3183  0.0425
11798SOL    HW146613   4.157   3.112   2.801 -0.9283  0.9182 -0.0350
11798SOL    HW246614   4.283   3.093   2.699  0.4526  2.0268  1.4271
11799SOL     OW46615   7.234   7.815   6.820  0.0635  0.4262 -0.3110
11799SOL    HW146616   7.180   7.796   6.901 -1.4989  4.1073 -0.4174
11799SOL    HW246617   7.200   7.760   6.743 -3.3604  2.3845 -0.2869
11800SOL     OW46618   1.983   3.902   4.393 -0.9775 -0.0858 -0.2052
11800SOL    HW146619   2.041   3.853   4.328 -0.1915 -0.0830  0.4943
11800SOL    HW246620   1.904   3.846   4.416 -1.5641  0.1406 -1.6049
11801SOL     OW46621   5.053   8.361   5.118  0.3684 -0.2188 -0.3551
11801SOL    HW146622   4.993   8.434   5.085  0.0270 -0.3219  0.0342
11801SOL    HW246623   5.130   8.402   5.167 -0.5774 -0.1605  1.1212
11802SOL     OW46624   2.438   4.112   4.161  0.1944 -0.6579  0.2239
11802SOL    HW146625   2.476   4.114   4.069  1.2596  0.9750  0.6875
11802SOL    HW246626   2.340   4.135   4.156  0.1984 -0.7714 -0.5103
11803SOL     OW46627   6.604   8.642   5.461  0.7294  0.2225 -0.0301
11803SOL    HW146628   6.626   8.695   5.380  0.6923 -0.1224 -0.2652
11803SOL    HW246629   6.618   8.544   5.442 -0.6751  0.0309 -0.0726
11804SOL     OW46630   4.162   6.113   1.260 -0.1984  0.4357  0.4879
11804SOL    HW146631   4.219   6.182   1.305  1.3537 -1.6418  1.7866
11804SOL    HW246632   4.083   6.092   1.317  0.1527  0.0116  0.8174
11805SOL     OW46633   8.345   6.650   1.142 -0.0129  0.0177 -0.4437
11805SOL    HW146634   8.414   6.580   1.160 -0.9339 -1.3100 -1.8592
11805SOL    HW246635   8.381   6.716   1.077  1.1313  1.3203  1.4881
11806SOL     OW46636   2.288   1.722   2.910 -0.5962  0.3449 -0.5148
11806SOL    HW146637   2.235   1.741   2.992  0.7458 -0.1377  0.4891
11806SOL    HW246638   2.359   1.792   2.899 -0.9704  0.5875 -1.4463
11807SOL     OW46639   9.216   7.401   2.458 -0.2092  0.1247 -0.6495
11807SOL    HW146640   9.181   7.468   2.393  0.6478 -0.5409 -1.8011
11807SOL    HW246641   9.215   7.310   2.417  0.9452 -0.2072  0.0277
11808SOL     OW46642   0.574   6.753   2.928  0.4260  0.5139 -0.1276
11808SOL    HW146643   0.583   6.839   2.877  2.4179 -0.2887 -1.1846
11808SOL    HW246644   0.483   6.715   2.913  0.2522  1.3891 -1.4045
11809SOL     OW46645   9.104   3.206   4.529 -0.0227  0.5951  0.5813
11809SOL    HW146646   9.039   3.229   4.601  0.3039 -0.1075  1.1128
11809SOL    HW246647   9.184   3.160   4.569  0.2486  0.3583 -0.2009
11810SOL     OW46648   6.977   0.741   3.375 -0.1071  0.5225 -0.0295
11810SOL    HW146649   7.003   0.647   3.397 -0.0261  0.6146  0.2673
11810SOL    HW246650   7.038   0.805   3.423 -0.3286  0.7289 -0.0222
11811SOL     OW46651   2.716   9.526   4.575 -0.5283 -0.1850 -0.3029
11811SOL    HW146652   2.734   9.487   4.665  1.8165 -1.3808 -1.2342
11811SOL    HW246653   2.650   9.600   4.583 -1.0319 -0.8627  2.2599
11812SOL     OW46654   7.436   1.080   1.542  0.3316 -0.4470 -0.0622
11812SOL    HW146655   7.526   1.070   1.499  0.6118 -0.8342  0.6047
11812SOL    HW246656   7.418   1.001   1.600 -1.1581 -1.1720 -1.4813
11813SOL     OW46657   3.994   6.348   1.908  0.6196 -0.7936 -0.2062
11813SOL    HW146658   4.093   6.343   1.921  0.5204 -0.1814  0.8239
11813SOL    HW246659   3.967   6.442   1.887  0.1189 -0.7109  0.7724
11814SOL     OW46660   5.446   2.574   4.268 -0.2580 -0.0341 -0.3117
11814SOL    HW146661   5.398   2.652   4.229  0.4200 -0.0069 -1.0995
11814SOL    HW246662   5.385   2.526   4.331 -0.8070  0.8898 -0.1304
11815SOL     OW46663   5.415   4.604   0.644  0.1022  0.0954  0.2058
11815SOL    HW146664   5.445   4.576   0.553  1.8884 -0.3684  0.9111
11815SOL    HW246665   5.384   4.524   0.695 -0.2091  0.2419  0.2429
11816SOL     OW46666   8.311   9.517   0.723  0.0826  0.6654 -0.2089
11816SOL    HW146667   8.410   9.521   0.713  0.1619  0.0594  0.2700
11816SOL    HW246668   8.267   9.574   0.653  0.7378  0.1690 -1.0270
11817SOL     OW46669   6.838   0.844   0.909 -0.1409  0.0676  0.7421
11817SOL    HW146670   6.774   0.799   0.972 -2.2324 -1.2268 -2.2038
11817SOL    HW246671   6.805   0.936   0.889 -0.0272  0.1039  0.7228
11818SOL     OW46672   8.706   8.667   3.282 -0.1696  0.0632 -0.0550
11818SOL    HW146673   8.780   8.626   3.335 -0.1461  0.6453  0.3668
11818SOL    HW246674   8.618   8.632   3.315 -0.1384  0.1780  0.1483
11819SOL     OW46675   3.838   6.514   2.556 -0.3368  0.2384 -0.1408
11819SOL    HW146676   3.808   6.597   2.510 -0.1548  0.5208  0.2516
11819SOL    HW246677   3.925   6.530   2.602 -0.0683 -0.3000 -0.4504
11820SOL     OW46678   3.553   2.954   2.550  0.1824  0.2313  0.5079
11820SOL    HW146679   3.515   2.891   2.482  2.0258  2.2610 -2.5413
11820SOL    HW246680   3.641   2.920   2.582 -0.1835 -0.1880  1.0719
11821SOL     OW46681   9.472   6.741   0.642  0.0253 -0.3174  0.9755
11821SOL    HW146682   9.517   6.727   0.730  0.4184 -1.1076  0.6477
11821SOL    HW246683   9.427   6.657   0.613 -0.7723  0.1668  0.7963
11822SOL     OW46684   4.269   9.569   6.012 -0.1809 -0.0619  0.5350
11822SOL    HW146685   4.315   9.492   5.968  0.2977  0.4029  0.2165
11822SOL    HW246686   4.192   9.535   6.067 -1.1742 -0.6336 -1.1423
11823SOL     OW46687   4.201   3.218   3.470 -0.2561  0.4278  0.8316
11823SOL    HW146688   4.241   3.185   3.555  0.1075  0.7454  0.7858
11823SOL    HW246689   4.272   3.224   3.400 -0.5758  0.0560  0.4760
11824SOL     OW46690   6.331   5.035   1.508 -0.1886  0.0883 -0.4899
11824SOL    HW146691   6.395   5.112   1.516 -0.1685 -0.0682  0.9329
11824SOL    HW246692   6.323   4.989   1.596 -0.2990 -1.4724 -1.3026
11825SOL     OW46693   8.469   4.476   5.587  0.4550 -0.3555  0.3055
11825SOL    HW146694   8.399   4.513   5.648  0.3040  0.3695 -0.2948
11825SOL    HW246695   8.425   4.446   5.501  0.9003  0.2639 -0.1405
11826SOL     OW46696   3.906   3.830   1.835  0.6238  0.5106  0.3781
11826SOL    HW146697   3.838   3.886   1.788  0.3018 -0.5966 -0.5071
11826SOL    HW246698   3.870   3.800   1.923  1.0103  2.1357  1.0915
11827SOL     OW46699   8.059   6.522   3.113  0.4151 -0.1314  0.0438
11827SOL    HW146700   8.084   6.438   3.160 -0.3453 -1.0509 -1.1726
11827SOL    HW246701   8.068   6.510   3.014  0.6150  1.3146 -0.1343
11828SOL     OW46702   2.769   8.260   3.634 -0.7234  0.2536  0.1031
11828SOL    HW146703   2.686   8.231   3.682  0.8756 -2.7952  1.1368
11828SOL    HW246704   2.821   8.322   3.693 -1.4903  0.9491  0.0600
11829SOL     OW46705   3.179   6.996   1.259 -0.8861  0.1049  0.3203
11829SOL    HW146706   3.109   6.982   1.329 -0.1006 -1.3818  0.8479
11829SOL    HW246707   3.244   7.065   1.290 -0.7521 -0.2815  0.9258
11830SOL     OW46708   6.251   0.163   6.352 -0.9270 -0.3713 -0.0317
11830SOL    HW146709   6.336   0.163   6.300 -1.0894 -1.7491 -0.3113
11830SOL    HW246710   6.219   0.257   6.363 -0.3337  0.0222 -1.5096
11831SOL     OW46711   2.610   2.714   1.711 -0.0943  0.8464 -0.1429
11831SOL    HW146712   2.634   2.798   1.662  0.6691 -1.0799 -3.2078
11831SOL    HW246713   2.556   2.654   1.652 -0.7864 -0.7712  2.0413
11832SOL     OW46714   1.380   7.926   0.424  0.0282 -0.5682 -0.4871
11832SOL    HW146715   1.338   7.835   0.427  1.2422 -1.1430 -0.7091
11832SOL    HW246716   1.476   7.919   0.451  0.5569  0.3882 -2.0358
11833SOL     OW46717   8.477   3.569   4.790 -0.2177  0.0772 -0.0468
11833SOL    HW146718   8.388   3.572   4.836 -0.8502 -0.1138 -1.2521
11833SOL    HW246719   8.471   3.512   4.708  1.2007 -0.5333  0.2429
11834SOL     OW46720   8.667   2.979   7.887  0.5353  0.2234 -0.2061
11834SOL    HW146721   8.680   3.073   7.918 -0.3163  0.6862 -1.2264
11834SOL    HW246722   8.721   2.917   7.945  0.3564  1.2336  1.0655
11835SOL     OW46723   7.524   6.694   5.432  0.3329  0.5389 -1.1594
11835SOL    HW146724   7.529   6.629   5.508  2.0394  2.2599  0.2543
11835SOL    HW246725   7.477   6.651   5.355 -0.3810 -1.6577  0.4334
11836SOL     OW46726   1.053   6.678   3.007 -0.4214  0.1544  0.3280
11836SOL    HW146727   1.096   6.761   3.042 -2.6231  1.3246  0.4012
11836SOL    HW246728   1.057   6.678   2.907 -0.5873  0.4462  0.3213
11837SOL     OW46729   2.748   1.662   4.665 -0.2396 -0.4178  0.2025
11837SOL    HW146730   2.709   1.753   4.683 -0.2582 -0.6617  1.3751
11837SOL    HW246731   2.815   1.639   4.735 -2.5137 -2.6333  1.7558
11838SOL     OW46732   8.694   4.394   3.189 -0.2939 -0.3875 -0.1881
11838SOL    HW146733   8.785   4.412   3.227  0.2904  0.7672 -2.1008
11838SOL    HW246734   8.667   4.300   3.209  0.5522 -0.2069  1.9222
11839SOL     OW46735   2.208   2.377   4.247  0.4082 -0.2646  0.1955
11839SOL    HW146736   2.243   2.311   4.180 -2.0375 -1.8617  0.4510
11839SOL    HW246737   2.256   2.464   4.236  1.7270 -1.2340 -2.0042
11840SOL     OW46738   4.309   5.512   2.908 -0.3634  0.1614 -0.4495
11840SOL    HW146739   4.331   5.469   2.996 -1.4256 -2.6268 -1.4664
11840SOL    HW246740   4.389   5.508   2.848 -0.0733  0.7777 -0.1109
11841SOL     OW46741   8.252   2.374   6.354 -0.4670  0.1887  0.4972
11841SOL    HW146742   8.318   2.438   6.393  1.5681 -2.9736  2.4636
11841SOL    HW246743   8.283   2.345   6.263 -0.7944  1.0957  0.0924
11842SOL     OW46744   0.965   8.885   1.527  0.1102 -0.2326  0.0815
11842SOL    HW146745   0.962   8.966   1.468  1.0514 -0.1906  0.0904
11842SOL    HW246746   0.905   8.814   1.488 -0.4480  0.3350 -0.1118
11843SOL     OW46747   2.415   7.355   8.134 -0.2880  0.4351 -0.4731
11843SOL    HW146748   2.478   7.288   8.173 -1.4103  0.2458  1.0368
11843SOL    HW246749   2.404   7.432   8.197 -1.1645  0.7105 -0.9535
11844SOL     OW46750   3.416   1.166   3.678  0.4731 -0.1702  0.2504
11844SOL    HW146751   3.348   1.105   3.719  1.5700 -0.7502  1.2494
11844SOL    HW246752   3.392   1.261   3.698  0.1269 -0.3840  0.8700
11845SOL     OW46753   7.428   7.232   1.423  0.0791  0.0125 -0.5503
11845SOL    HW146754   7.376   7.170   1.364  0.5083 -0.8808 -0.0016
11845SOL    HW246755   7.525   7.224   1.404  0.2472 -0.4938  0.4643
11846SOL     OW46756   3.373   4.614   2.575  0.7028 -0.6042  0.3633
11846SOL    HW146757   3.359   4.515   2.583  2.1352 -0.8756 -0.2802
11846SOL    HW246758   3.335   4.646   2.487 -0.2381 -0.4822  0.8088
11847SOL     OW46759   9.322   3.389   3.334 -0.0542  0.3666  0.2848
11847SOL    HW146760   9.266   3.420   3.258 -0.1384  0.9423  0.5781
11847SOL    HW246761   9.418   3.382   3.304 -0.4089 -1.4455 -0.4484
11848SOL     OW46762   4.126   9.025   1.382 -0.0573  0.2051 -0.3546
11848SOL    HW146763   4.138   8.943   1.438  2.6349  0.0368 -1.0856
11848SOL    HW246764   4.134   9.106   1.440  2.2790  0.0200 -0.3546
11849SOL     OW46765   7.553   9.059   4.402  0.1565 -0.8623 -0.0139
11849SOL    HW146766   7.635   9.110   4.376  0.2166  0.1349  2.1060
11849SOL    HW246767   7.474   9.097   4.354  0.2634  0.9712  1.2390
11850SOL     OW46768   7.194   0.395   6.506 -0.4794 -0.2141  0.4684
11850SOL    HW146769   7.159   0.464   6.442 -1.5531  0.6237  1.9077
11850SOL    HW246770   7.251   0.329   6.457 -2.2761 -0.3165 -1.5813
11851SOL     OW46771   8.454   2.711   3.198  0.4593 -0.1903 -0.1055
11851SOL    HW146772   8.416   2.699   3.290  0.6076  0.2905  0.0194
11851SOL    HW246773   8.386   2.757   3.141 -0.4590 -2.3804 -0.8336
11852SOL     OW46774   1.431   9.531   2.867 -0.5967  0.3844  0.1140
11852SOL    HW146775   1.413   9.444   2.822  0.2923 -0.8078  2.0405
11852SOL    HW246776   1.483   9.590   2.805 -0.3627 -0.8060 -0.8337
11853SOL     OW46777   7.829   2.064   6.377 -0.2035 -0.3339  0.0464
11853SOL    HW146778   7.922   2.089   6.404  0.1090  0.6082 -1.8066
11853SOL    HW246779   7.799   2.124   6.303 -3.2379  1.0052  2.2962
11854SOL     OW46780   2.655   6.880   1.077 -0.5003  0.0026 -0.4801
11854SOL    HW146781   2.702   6.961   1.042  1.2838 -1.7418 -2.3265
11854SOL    HW246782   2.699   6.851   1.162  1.9855 -1.6518 -2.2261
11855SOL     OW46783   9.707   2.628   3.917 -0.2094  0.4976 -0.4806
11855SOL    HW146784   9.664   2.688   3.849 -1.4066 -1.0410 -1.1096
11855SOL    HW246785   9.795   2.595   3.881 -0.2012  0.7658 -0.7136
11856SOL     OW46786   0.590   4.943   1.721 -0.4785  0.3284 -0.2296
11856SOL    HW146787   0.619   5.017   1.781  0.4517  0.6593 -1.0703
11856SOL    HW246788   0.634   4.857   1.749  2.5502  1.0953 -2.3650
11857SOL     OW46789   7.336   0.666   3.403 -0.2644  0.4231  0.2325
11857SOL    HW146790   7.424   0.708   3.421  0.0160 -0.3550  0.7052
11857SOL    HW246791   7.349   0.569   3.379 -1.0670 -0.0588  1.6374
11858SOL     OW46792   1.530   6.385   6.031  0.0576  0.0368 -0.3488
11858SOL    HW146793   1.583   6.455   6.078  0.7160 -0.5259 -0.2472
11858SOL    HW246794   1.488   6.324   6.099 -1.5094  1.0447 -0.3910
11859SOL     OW46795   2.452   3.077   0.432 -0.3599  0.3592  0.0844
11859SOL    HW146796   2.445   3.159   0.376 -0.4599 -0.0125 -0.4425
11859SOL    HW246797   2.503   3.098   0.516 -1.6779  1.3302  0.6554
11860SOL     OW46798   4.476   0.468   3.830 -0.2268  0.1547 -0.0130
11860SOL    HW146799   4.449   0.529   3.904  1.4116 -0.9388  1.5471
11860SOL    HW246800   4.399   0.409   3.806 -1.3962  1.8910 -0.6074
11861SOL     OW46801   7.536   3.829   5.062 -0.3538 -0.4326  0.3354
11861SOL    HW146802   7.492   3.748   5.100 -0.2747  0.3544  2.1381
11861SOL    HW246803   7.521   3.907   5.123 -1.6758  1.2750 -2.0755
11862SOL     OW46804   8.629   4.293   5.358  0.2226 -0.3023  0.2699
11862SOL    HW146805   8.643   4.196   5.375 -0.1249 -0.0535  2.0863
11862SOL    HW246806   8.532   4.310   5.341  0.0815 -0.1153  1.2088
11863SOL     OW46807   3.673   3.342   1.613  0.4526  0.7225  0.2941
11863SOL    HW146808   3.695   3.437   1.634  1.4315  0.4504  0.5287
11863SOL    HW246809   3.735   3.308   1.542 -0.8068  0.6839 -0.8002
11864SOL     OW46810   1.570   2.540   4.683  0.1084  0.4316  0.6152
11864SOL    HW146811   1.548   2.635   4.706  1.1246  0.8741 -0.2140
11864SOL    HW246812   1.537   2.480   4.756 -0.3286  1.4427  1.2630
11865SOL     OW46813   1.199   7.927   3.663 -0.1793 -0.3398  0.0781
11865SOL    HW146814   1.228   7.846   3.714  0.2846 -1.3847 -1.8032
11865SOL    HW246815   1.254   7.936   3.580 -0.9366  1.3206 -0.2614
11866SOL     OW46816   4.629   4.533   0.637  0.4484  0.2621  0.2341
11866SOL    HW146817   4.713   4.479   0.647 -0.1813 -0.4700  1.7244
11866SOL    HW246818   4.605   4.538   0.540  0.8510 -1.6797 -0.0037
11867SOL     OW46819   2.037   7.820   5.249  0.2998  0.0869  0.4674
11867SOL    HW146820   1.945   7.801   5.284  0.6128  0.5966  1.5744
11867SOL    HW246821   2.072   7.739   5.202  0.3298 -0.9836  2.3042
11868SOL     OW46822   4.157   2.010   4.167  0.2315  0.1089  0.8641
11868SOL    HW146823   4.132   2.041   4.075  1.4640 -1.3925  0.0072
11868SOL    HW246824   4.244   2.052   4.194  0.8682 -0.9911  0.5343
11869SOL     OW46825   3.692   3.353   3.309  0.2713  0.4081  0.1979
11869SOL    HW146826   3.683   3.412   3.389  0.3296  0.5898  0.0688
11869SOL    HW246827   3.784   3.363   3.270  0.3787  0.0192  0.3474
11870SOL     OW46828   3.746   3.825   4.853  0.0479 -0.2554  0.3021
11870SOL    HW146829   3.818   3.838   4.921 -1.5100  1.4846  1.7019
11870SOL    HW246830   3.723   3.913   4.811 -0.0134 -1.0825 -1.4329
11871SOL     OW46831   3.487   0.643   1.824  1.2215  0.5035  0.3550
11871SOL    HW146832   3.454   0.737   1.811  0.8621  0.4391  0.7859
11871SOL    HW246833   3.587   0.642   1.821  1.1865  0.4393 -2.8721
11872SOL     OW46834   0.659   5.764   3.490  0.5964  0.5698 -0.2082
11872SOL    HW146835   0.628   5.839   3.431  0.6345 -0.0721 -1.0503
11872SOL    HW246836   0.590   5.692   3.490  1.6178 -0.4307 -1.2954
11873SOL     OW46837   5.368   1.483   1.455  0.2854 -0.2662  0.4463
11873SOL    HW146838   5.281   1.438   1.472  0.5702 -0.3448  1.7826
11873SOL    HW246839   5.437   1.414   1.431 -0.4351 -0.0219 -2.4632
11874SOL     OW46840   8.901   2.522   3.788  0.4151  0.3181  0.1285
11874SOL    HW146841   8.814   2.550   3.827  0.5621  0.8124  0.1100
11874SOL    HW246842   8.894   2.429   3.753  0.1535  0.0310  0.9392
11875SOL     OW46843   9.840   4.811   2.803 -0.4380 -0.0444 -0.1038
11875SOL    HW146844   9.821   4.767   2.715  1.1441 -1.9544  0.4834
11875SOL    HW246845   9.908   4.883   2.791  1.6463 -1.9748 -0.0569
11876SOL     OW46846   9.972   0.143   5.350 -0.1020  0.0815  0.2018
11876SOL    HW146847  10.062   0.106   5.327 -1.0106 -1.6357 -0.7135
11876SOL    HW246848   9.976   0.187   5.440  1.6812  0.1553  0.1012
11877SOL     OW46849   7.332   1.363   3.474  0.0235  0.0868  0.8165
11877SOL    HW146850   7.380   1.424   3.536 -0.7618  0.2369  1.2848
11877SOL    HW246851   7.289   1.290   3.526 -2.0216  1.1318  0.6341
11878SOL     OW46852   2.373   9.597   5.666 -0.1361 -0.6921 -0.4125
11878SOL    HW146853   2.348   9.540   5.588  1.8421 -0.6740 -1.0852
11878SOL    HW246854   2.421   9.679   5.635  1.0354 -0.8797  0.8076
11879SOL     OW46855   6.939   2.827   2.139  0.2087 -0.2621  0.1747
11879SOL    HW146856   6.974   2.885   2.214  0.6158 -1.8477  1.2289
11879SOL    HW246857   7.016   2.794   2.084  0.1022 -0.9618  0.4424
11880SOL     OW46858   1.792   9.184   0.577 -0.0957  0.1446  0.1684
11880SOL    HW146859   1.824   9.269   0.619  0.8807  0.3153 -0.8858
11880SOL    HW246860   1.849   9.108   0.610 -1.0583 -0.1355  1.2206
11881SOL     OW46861   0.053   9.455   2.876  0.1602  0.1647 -0.5839
11881SOL    HW146862   0.090   9.372   2.833  1.4576  0.6129 -0.3449
11881SOL    HW246863  -0.023   9.490   2.821 -0.7416 -1.4630 -0.4212
11882SOL     OW46864   2.340   7.587   6.097 -0.2793 -0.4004 -0.4244
11882SOL    HW146865   2.431   7.627   6.108 -1.3214  2.0112 -0.2923
11882SOL    HW246866   2.292   7.632   6.022 -1.5903 -1.2671 -0.1346
11883SOL     OW46867   2.974   4.234   3.931  0.4735  0.7060  0.5490
11883SOL    HW146868   2.889   4.217   3.980  0.3394 -0.0931  0.0555
11883SOL    HW246869   3.051   4.198   3.983  0.4656  1.0240  0.7815
11884SOL     OW46870   9.138   5.584   2.664 -0.1251  0.3333  0.0223
11884SOL    HW146871   9.190   5.603   2.581  0.2994 -0.8374  0.0207
11884SOL    HW246872   9.044   5.559   2.639 -0.0471  0.1535 -0.0881
11885SOL     OW46873   9.059   8.147   2.830 -0.2340 -0.0724 -0.1543
11885SOL    HW146874   9.149   8.134   2.872 -0.3582  0.0855  0.1678
11885SOL    HW246875   9.067   8.142   2.731  0.0531 -0.5263 -0.1089
11886SOL     OW46876   0.884   6.315   4.297  0.0808  0.1638  0.1803
11886SOL    HW146877   0.905   6.252   4.372  0.1141 -1.8840 -1.4727
11886SOL    HW246878   0.800   6.284   4.251 -0.7426  2.2249  0.2667
11887SOL     OW46879   4.990   1.436   3.985 -0.1502 -0.2838  0.1269
11887SOL    HW146880   5.052   1.362   3.957  0.1526 -0.5944  1.5328
11887SOL    HW246881   4.972   1.496   3.908  1.7790 -0.2873 -0.3538
11888SOL     OW46882   6.889   1.907   4.518  0.3648 -0.7363 -0.1195
11888SOL    HW146883   6.834   1.988   4.538 -0.5139 -0.7205 -2.5031
11888SOL    HW246884   6.877   1.881   4.423  2.3970 -2.3599  0.0367
11889SOL     OW46885   4.921   2.529   0.376 -0.0803  0.3776  0.1166
11889SOL    HW146886   4.840   2.555   0.428 -0.0146 -0.4373  0.6219
11889SOL    HW246887   5.003   2.547   0.430  0.0437  0.5479 -0.1251
11890SOL     OW46888   1.634   1.618   5.729  0.0163 -0.3404  0.0725
11890SOL    HW146889   1.656   1.521   5.736 -0.3244 -0.4877 -0.8441
11890SOL    HW246890   1.654   1.651   5.637 -1.8390 -0.0597 -0.2623
11891SOL     OW46891   3.241   1.928   2.674  0.2972 -0.3827 -0.2453
11891SOL    HW146892   3.233   1.913   2.576  2.4626  1.9146 -0.8073
11891SOL    HW246893   3.314   1.871   2.711 -1.0186 -1.8235  0.2205
11892SOL     OW46894   0.873   2.201   0.670  0.1619 -0.0183 -0.6529
11892SOL    HW146895   0.792   2.257   0.689 -0.7333 -0.9595 -1.6412
11892SOL    HW246896   0.908   2.224   0.579 -0.3617 -1.2234 -1.1736
11893SOL     OW46897   7.191   3.020   2.760 -0.5216 -0.2771 -0.4494
11893SOL    HW146898   7.167   3.109   2.796 -1.2285 -0.1397 -1.2352
11893SOL    HW246899   7.250   3.031   2.680 -0.1139 -0.5348 -0.1893
11894SOL     OW46900   4.589   1.229   4.284  0.3029 -0.3190 -0.4958
11894SOL    HW146901   4.507   1.210   4.230  0.6594 -0.6904 -0.9116
11894SOL    HW246902   4.651   1.150   4.280  1.0243  0.2551 -0.8190
11895SOL     OW46903   8.213   2.166   0.472  0.4700 -0.5662 -0.2927
11895SOL    HW146904   8.206   2.141   0.376  0.6174 -1.7381 -0.0080
11895SOL    HW246905   8.129   2.212   0.502  0.8539  0.8012 -1.2528
11896SOL     OW46906   8.430   2.067   2.386  0.3807  0.1088  0.8588
11896SOL    HW146907   8.423   2.141   2.319 -0.7915  0.3599  1.2512
11896SOL    HW246908   8.526   2.040   2.395  0.5384 -0.1296 -1.1371
11897SOL     OW46909   9.787   5.132   5.527 -0.0138 -0.1260 -0.0544
11897SOL    HW146910   9.750   5.189   5.453 -2.4104 -0.2927  0.9651
11897SOL    HW246911   9.819   5.191   5.601 -0.4259 -0.0471  0.0603
11898SOL     OW46912   7.172   5.597   0.804  0.5815 -0.4988 -0.6078
11898SOL    HW146913   7.125   5.669   0.754  0.3404 -0.1487  0.1104
11898SOL    HW246914   7.255   5.571   0.755  0.4860  0.0223 -1.0503
11899SOL     OW46915   0.542   5.520   5.619  0.9690 -0.1706  0.5615
11899SOL    HW146916   0.548   5.536   5.717  3.4502 -1.0695  0.6020
11899SOL    HW246917   0.567   5.425   5.599  0.6904  0.0616 -0.9525
11900SOL     OW46918   1.384   2.829   3.760  0.0757 -0.2005  0.0035
11900SOL    HW146919   1.387   2.879   3.673  0.8441 -0.3028 -0.0269
11900SOL    HW246920   1.469   2.843   3.810 -0.3788 -0.1085  0.7680
11901SOL     OW46921   1.197   5.286   2.877  0.2370  0.0266  0.7943
11901SOL    HW146922   1.192   5.221   2.801 -1.1319 -0.7382  1.5358
11901SOL    HW246923   1.195   5.237   2.964 -0.4125  1.0373  1.3570
11902SOL     OW46924   9.474   7.637   3.680  0.0664  0.0787 -0.6640
11902SOL    HW146925   9.414   7.613   3.604 -0.2559  0.5255 -0.5600
11902SOL    HW246926   9.539   7.563   3.697 -0.1483 -0.2086 -1.0863
11903SOL     OW46927   2.986   5.261   5.407 -0.3655  0.0432  0.6136
11903SOL    HW146928   2.931   5.246   5.325 -0.7195 -1.0702  1.0392
11903SOL    HW246929   3.078   5.288   5.381 -0.7830  0.7690 -0.1247
11904SOL     OW46930   3.099   9.937   3.747 -0.3970  0.4175  0.0742
11904SOL    HW146931   3.008   9.897   3.758 -0.2769 -0.2030 -1.0899
11904SOL    HW246932   3.169   9.870   3.772 -0.2285  0.3546 -0.5493
11905SOL     OW46933   8.936   4.198   3.451  0.8482  0.1284 -0.0756
11905SOL    HW146934   8.896   4.150   3.374  2.3224 -1.6721  0.2671
11905SOL    HW246935   8.882   4.180   3.533  0.0191  1.0254 -0.4088
11906SOL     OW46936   1.233   3.544   5.757 -0.0147  0.0374  0.3848
11906SOL    HW146937   1.182   3.488   5.822  0.5412 -1.2879 -0.3073
11906SOL    HW246938   1.254   3.490   5.676  0.8531  1.1387 -0.1345
11907SOL     OW46939   2.122   9.293   0.556  0.0905 -0.2798  0.3504
11907SOL    HW146940   2.053   9.306   0.485  0.8966  0.8818 -0.2386
11907SOL    HW246941   2.087   9.229   0.624 -1.6198  0.3575  0.1214
11908SOL     OW46942   4.239   2.046   3.765 -0.3616  0.4330  0.0585
11908SOL    HW146943   4.277   2.132   3.729  1.5508  0.5062  2.1310
11908SOL    HW246944   4.302   2.008   3.832 -2.4936 -1.1966  1.1828
11909SOL     OW46945   1.979   4.665   3.084  0.6127 -0.2208 -0.3872
11909SOL    HW146946   1.940   4.617   3.005  0.7760 -0.8396 -0.0944
11909SOL    HW246947   2.077   4.679   3.071  0.5693  0.0127 -0.4621
11910SOL     OW46948   2.020   9.596   3.911 -0.4308 -0.6199 -0.0371
11910SOL    HW146949   1.976   9.686   3.911 -0.8407 -0.8166  0.3944
11910SOL    HW246950   2.084   9.590   3.987  1.2631  0.1040 -1.3894
11911SOL     OW46951   4.214   9.790   4.656 -0.1698 -0.2913  0.3789
11911SOL    HW146952   4.152   9.734   4.712 -0.1339 -0.9837 -0.2593
11911SOL    HW246953   4.295   9.736   4.634  0.4234  0.4344  0.7647
11912SOL     OW46954   3.475   9.257   0.753 -0.1753  0.1551  0.1115
11912SOL    HW146955   3.468   9.226   0.848 -1.3946 -0.3041 -0.1107
11912SOL    HW246956   3.502   9.181   0.694 -0.8073  0.0860 -0.0980
11913SOL     OW46957   5.019   8.914   6.670 -0.2107  0.1657 -0.2300
11913SOL    HW146958   5.029   8.816   6.687 -1.5363 -0.1376 -1.1760
11913SOL    HW246959   4.970   8.929   6.585 -0.0650  1.6661 -0.0691
11914SOL     OW46960   6.358   0.530   5.652  0.2165 -0.1613 -0.3520
11914SOL    HW146961   6.346   0.591   5.730 -0.0709  0.0818 -0.5850
11914SOL    HW246962   6.274   0.478   5.636  1.0635 -2.0107  1.0092
11915SOL     OW46963   2.905   6.155   3.362 -0.1133 -0.7073 -0.3462
11915SOL    HW146964   2.869   6.247   3.377 -0.4778 -1.1170  1.3971
11915SOL    HW246965   2.982   6.159   3.298  1.9166  1.2325  2.1493
11916SOL     OW46966   5.835   1.933   4.164 -0.3011  0.1628  0.1612
11916SOL    HW146967   5.893   1.999   4.212 -0.9698  0.2745  0.8298
11916SOL    HW246968   5.855   1.936   4.066  0.0334  0.9929  0.2499
11917SOL     OW46969   9.471   9.920   4.993  0.4730 -0.1666  0.4982
11917SOL    HW146970   9.513   9.959   4.911  1.4709 -0.5677  0.7995
11917SOL    HW246971   9.527   9.943   5.073  0.1768 -0.7958  0.8941
11918SOL     OW46972   3.131   5.723   2.693  0.5111 -0.4274  0.1725
11918SOL    HW146973   3.082   5.724   2.606  0.8390 -0.2914 -0.0108
11918SOL    HW246974   3.221   5.681   2.680  0.2896 -1.0416  0.5931
11919SOL     OW46975   1.619   6.679   3.993 -0.4756  0.3665  0.1562
11919SOL    HW146976   1.533   6.640   3.960 -0.9190  1.4288  0.0620
11919SOL    HW246977   1.633   6.651   4.088 -1.9520  1.8666  0.8339
11920SOL     OW46978   2.849   3.608   2.870  0.3911  0.0688  0.7045
11920SOL    HW146979   2.847   3.515   2.908  1.6188  0.3180  1.4228
11920SOL    HW246980   2.831   3.605   2.772 -0.3706 -0.8431  0.8639
11921SOL     OW46981   9.426   5.038   1.663 -0.2597 -0.3148  0.2341
11921SOL    HW146982   9.500   5.076   1.609 -0.3106  0.7054  0.8588
11921SOL    HW246983   9.390   4.956   1.619  1.8210 -1.3241  0.3872
11922SOL     OW46984   8.069   3.695   1.434 -0.0693  0.0881  0.2391
11922SOL    HW146985   8.081   3.621   1.500 -0.6613 -0.7199 -0.5409
11922SOL    HW246986   8.140   3.764   1.446  2.0263 -1.8737 -0.7315
11923SOL     OW46987   8.814   5.445   0.288  0.1091 -0.3472 -0.5204
11923SOL    HW146988   8.862   5.439   0.376  0.1511  0.1112 -0.5134
11923SOL    HW246989   8.870   5.403   0.217 -0.0604 -0.9958 -0.2733
11924SOL     OW46990   6.938   2.284   2.153 -0.1907 -0.6126 -0.2145
11924SOL    HW146991   6.843   2.298   2.180  0.7353  3.8232  1.1464
11924SOL    HW246992   6.988   2.242   2.229 -0.5964 -0.9510 -0.1331
11925SOL     OW46993   9.986   4.473   1.792  0.6001  0.3823 -0.1185
11925SOL    HW146994   9.963   4.433   1.704  0.6945 -0.0758  0.0644
11925SOL    HW246995  10.021   4.402   1.853 -1.4554  0.2778  0.9884
11926SOL     OW46996   7.540   2.605   4.766  0.3721  0.1323 -0.4657
11926SOL    HW146997   7.566   2.634   4.674  1.0502 -0.7448 -0.5672
11926SOL    HW246998   7.605   2.642   4.832 -0.7328  1.6594 -0.2012
11927SOL     OW46999   1.148   0.641   5.563 -0.3764 -0.2217 -0.2633
11927SOL    HW147000   1.094   0.707   5.615  0.6971  0.5286 -0.0809
11927SOL    HW247001   1.236   0.626   5.608  0.5530  0.4017 -1.7982
11928SOL     OW47002   4.481   2.707   1.891  0.0841  0.0819  0.0830
11928SOL    HW147003   4.405   2.724   1.953  0.3688 -0.3901  0.5692
11928SOL    HW247004   4.542   2.639   1.932  0.4404  0.0066 -0.5757
11929SOL     OW47005   4.856   0.987   4.098 -0.5524 -0.3572 -0.0227
11929SOL    HW147006   4.941   0.961   4.143  0.0522  2.5582  0.6204
11929SOL    HW247007   4.786   1.003   4.168 -1.4236 -1.9227 -0.5078
11930SOL     OW47008   4.804   9.001   3.289 -0.1855  0.8070  0.2160
11930SOL    HW147009   4.791   9.089   3.243  0.9295  0.9302  0.1237
11930SOL    HW247010   4.839   8.934   3.224 -0.3295  0.4894  0.4632
11931SOL     OW47011   7.144   4.021   1.155 -0.4763  0.0345 -0.4055
11931SOL    HW147012   7.171   3.926   1.169  0.1003 -0.1704 -2.7470
11931SOL    HW247013   7.046   4.025   1.132 -0.4744 -0.0142 -0.4232
11932SOL     OW47014   8.441   4.193   0.170  0.4517  0.0182  0.0472
11932SOL    HW147015   8.371   4.241   0.223 -0.2742  0.3966 -1.2305
11932SOL    HW247016   8.400   4.114   0.125  0.6857  0.6129 -1.2274
11933SOL     OW47017   4.484   4.364   3.753  0.1803 -0.5206 -0.5430
11933SOL    HW147018   4.565   4.307   3.771 -0.0399  0.1354  2.8602
11933SOL    HW247019   4.438   4.384   3.839 -2.7509  0.4492 -2.2734
11934SOL     OW47020   4.028   1.162   3.582 -0.1728  0.1503 -0.0690
11934SOL    HW147021   4.026   1.093   3.509 -0.6800  0.5102 -0.3958
11934SOL    HW247022   4.068   1.247   3.546 -1.9148  0.8504 -0.3799
11935SOL     OW47023   1.370   7.776   2.822  0.1118  0.0280 -0.4507
11935SOL    HW147024   1.379   7.677   2.825 -0.2677 -0.1245 -3.1743
11935SOL    HW247025   1.276   7.801   2.797  0.3385  1.0465 -0.3272
11936SOL     OW47026   3.051   5.008   0.692  0.3189  0.1085 -0.0098
11936SOL    HW147027   3.032   5.106   0.695 -0.6148 -0.0626 -0.0172
11936SOL    HW247028   3.135   4.988   0.741  1.9796  1.2603 -2.3370
11937SOL     OW47029   3.511   5.578   3.033 -0.5706 -0.3340  0.9623
11937SOL    HW147030   3.597   5.532   3.058 -1.4799 -1.2157  2.5675
11937SOL    HW247031   3.458   5.519   2.973  0.0448  0.3194 -0.2409
11938SOL     OW47032   7.856   4.386   6.139 -0.2145  0.4439  0.6275
11938SOL    HW147033   7.901   4.376   6.050 -1.7418 -1.6301  0.0512
11938SOL    HW247034   7.840   4.483   6.158  3.3998  1.1582  0.3303
11939SOL     OW47035   7.774   4.517   0.284 -0.1288 -0.2615  0.2683
11939SOL    HW147036   7.720   4.526   0.201 -0.9609 -0.2435  0.8124
11939SOL    HW247037   7.852   4.580   0.280 -1.1135  0.9723  0.2476
11940SOL     OW47038   4.231   2.662   5.232 -0.3892  0.3025  0.4371
11940SOL    HW147039   4.326   2.676   5.262  0.6855 -2.1641 -1.6278
11940SOL    HW247040   4.216   2.713   5.148 -0.4068 -0.5949 -0.1022
11941SOL     OW47041   4.874   9.377   5.121  0.0271  0.5658 -0.5101
11941SOL    HW147042   4.860   9.378   5.220  1.4893 -0.2428 -0.2863
11941SOL    HW247043   4.893   9.470   5.089  0.0869  0.7459  0.0450
11942SOL     OW47044   0.901   9.349   5.987  0.2267  0.0368  0.0055
11942SOL    HW147045   0.899   9.448   5.969 -0.4366 -0.2439 -1.4812
11942SOL    HW247046   0.996   9.317   5.984  0.1994  0.1155 -2.4431
11943SOL     OW47047   0.013   1.601   0.418 -0.4342 -0.0125  0.0076
11943SOL    HW147048  -0.028   1.544   0.347 -0.0767  1.8041 -1.7038
11943SOL    HW247049  -0.057   1.661   0.457 -0.7572 -1.4362  1.6215
11944SOL     OW47050   1.154   8.344   4.533  0.2094  0.0965 -0.8113
11944SOL    HW147051   1.119   8.263   4.580  0.8056 -0.2606 -0.9782
11944SOL    HW247052   1.112   8.426   4.571  1.4097 -0.1129  1.0146
11945SOL     OW47053   6.060   3.192   5.083 -0.3741  0.2218 -0.8466
11945SOL    HW147054   6.123   3.267   5.105  0.6919 -1.4392  2.0282
11945SOL    HW247055   6.107   3.124   5.028 -0.8108  0.7846 -1.9290
11946SOL     OW47056   9.948   6.671   6.361 -0.1965 -0.2609  0.5142
11946SOL    HW147057  10.015   6.742   6.344 -1.7615  1.3060  0.7713
11946SOL    HW247058   9.872   6.708   6.414 -0.1869 -2.5767  2.2426
11947SOL     OW47059   0.427   9.277   6.121  0.1826  0.2487 -0.4047
11947SOL    HW147060   0.481   9.197   6.146 -1.0927 -0.5476 -0.1520
11947SOL    HW247061   0.488   9.350   6.089  1.3819 -0.6669 -0.2366
11948SOL     OW47062   4.746   3.831   1.009 -0.2791  0.1472  0.1624
11948SOL    HW147063   4.713   3.827   0.915 -2.6521  0.7084  0.9104
11948SOL    HW247064   4.760   3.927   1.036  0.8103 -0.0322  0.2424
11949SOL     OW47065   8.186   3.980   1.829  0.5286  0.4280 -0.3959
11949SOL    HW147066   8.202   4.005   1.925  0.3541  0.2128 -0.3116
11949SOL    HW247067   8.138   3.893   1.825 -1.4828  1.5368 -0.6416
11950SOL     OW47068   7.410   5.539   2.057 -0.3839 -0.5041 -0.2699
11950SOL    HW147069   7.460   5.453   2.049 -0.8560 -0.6483 -1.7325
11950SOL    HW247070   7.312   5.522   2.045 -0.4053  0.3447 -1.3743
11951SOL     OW47071   9.174   8.886   4.348  0.2941 -0.2216  0.5780
11951SOL    HW147072   9.129   8.974   4.358  1.4686  0.3842  0.6630
11951SOL    HW247073   9.156   8.829   4.429 -1.3401 -0.4669  0.0413
11952SOL     OW47074   5.732   0.258   3.416  0.0630 -0.3444 -0.2534
11952SOL    HW147075   5.647   0.214   3.443  0.8930 -1.4946  0.4998
11952SOL    HW247076   5.777   0.203   3.345 -0.0078  0.4731 -0.9494
11953SOL     OW47077   8.612   6.935   6.566  0.4060 -0.2059 -0.1903
11953SOL    HW147078   8.677   6.877   6.516 -0.1403 -1.5566  0.6327
11953SOL    HW247079   8.662   7.010   6.609  1.5104 -1.4201  0.7147
11954SOL     OW47080   3.186   2.467   4.126 -0.3825 -0.0410  0.3536
11954SOL    HW147081   3.202   2.371   4.101 -0.7816  0.1457 -0.6582
11954SOL    HW247082   3.103   2.473   4.181 -1.3270 -0.0922 -1.0270
11955SOL     OW47083   2.537   1.017   1.528  0.4584 -0.4500  0.2310
11955SOL    HW147084   2.620   1.054   1.570  0.3016 -0.6525  0.7264
11955SOL    HW247085   2.530   1.049   1.434  0.4221  0.6209  0.5940
11956SOL     OW47086   3.423   0.909   4.419 -1.1810 -0.2187  0.2512
11956SOL    HW147087   3.511   0.945   4.450 -1.3223  0.1148  0.2713
11956SOL    HW247088   3.404   0.822   4.465 -2.6941  1.6273  3.3385
11957SOL     OW47089   4.650   6.571   1.133  0.1781  0.7247  0.4557
11957SOL    HW147090   4.633   6.564   1.231 -1.2899 -0.2881  0.1578
11957SOL    HW247091   4.623   6.661   1.101  1.1071  1.2242  1.0579
11958SOL     OW47092   9.635   0.661   2.500 -0.3209 -0.4657 -0.4038
11958SOL    HW147093   9.570   0.636   2.428 -1.6122 -1.0356  0.9436
11958SOL    HW247094   9.586   0.688   2.582  1.1594 -1.1073  0.7180
11959SOL     OW47095   1.534   8.597   5.492 -0.8188 -0.5855 -0.8038
11959SOL    HW147096   1.576   8.506   5.482 -0.7431 -0.6187 -0.1735
11959SOL    HW247097   1.508   8.611   5.587 -0.3829  0.2508 -0.8063
11960SOL     OW47098   7.992   5.050   2.727  0.5431 -0.3377  0.2663
11960SOL    HW147099   8.001   4.996   2.811  0.1681 -0.2049  0.3919
11960SOL    HW247100   7.896   5.076   2.714  0.8976  1.2789  0.8093
11961SOL     OW47101   4.538   9.826   5.766  0.3303 -0.4384 -0.4798
11961SOL    HW147102   4.627   9.828   5.810  0.0819 -0.0691  0.0095
11961SOL    HW247103   4.540   9.761   5.690  1.2364  0.1539 -0.9607
11962SOL     OW47104   2.571   3.633   3.808 -0.1589 -0.0363  0.0302
11962SOL    HW147105   2.540   3.546   3.845 -1.5135  0.5376  0.2591
11962SOL    HW247106   2.507   3.706   3.833  0.6064  0.9154 -0.7082
11963SOL     OW47107   2.313   1.483   5.890 -0.2992 -0.1017  0.0449
11963SOL    HW147108   2.249   1.555   5.918  0.8022 -0.0806  2.6003
11963SOL    HW247109   2.263   1.413   5.839 -1.9749  0.8878  0.2657
11964SOL     OW47110   3.676   1.236   2.692  0.1892  0.3699 -0.7448
11964SOL    HW147111   3.581   1.226   2.662 -0.1633  1.1152  0.0890
11964SOL    HW247112   3.732   1.164   2.651 -1.0647 -1.1392  0.1288
11965SOL     OW47113   3.472   2.275   6.364 -0.1043  0.4542 -0.0960
11965SOL    HW147114   3.546   2.253   6.428  0.2716  0.0835 -0.6551
11965SOL    HW247115   3.493   2.361   6.317  0.8055 -0.5168 -1.5004
11966SOL     OW47116   1.763   7.829   1.133  0.2566 -0.2217  0.2680
11966SOL    HW147117   1.848   7.872   1.102  1.1922 -1.7540  0.6703
11966SOL    HW247118   1.775   7.730   1.137 -1.2706 -0.3837  1.2102
11967SOL     OW47119   8.201   3.658   6.101 -0.0641 -0.0133  0.6305
11967SOL    HW147120   8.151   3.723   6.045 -0.4676  0.4939  1.5798
11967SOL    HW247121   8.146   3.632   6.180  0.3545 -1.0073  0.6035
11968SOL     OW47122   6.608   0.901   2.369  0.3070  0.2601 -0.2237
11968SOL    HW147123   6.628   0.803   2.364  1.3993  0.2792  3.0176
11968SOL    HW247124   6.692   0.954   2.356  0.1219  0.6969  0.3310
11969SOL     OW47125   6.297   0.268   5.260 -0.0805 -0.1646  0.1065
11969SOL    HW147126   6.389   0.283   5.295 -0.1961  0.1687  0.2761
11969SOL    HW247127   6.273   0.171   5.267  0.5797 -0.3955 -0.7354
11970SOL     OW47128   3.274   7.107   4.268  0.2717  0.5020 -0.2788
11970SOL    HW147129   3.176   7.088   4.281  0.4674 -0.0869  0.4433
11970SOL    HW247130   3.303   7.175   4.335  1.0270 -1.6506  1.6750
11971SOL     OW47131   9.921   9.784   2.541 -0.3541 -0.5212 -0.4502
11971SOL    HW147132   9.846   9.771   2.606 -0.4148 -1.2061 -0.6622
11971SOL    HW247133   9.998   9.828   2.588 -0.8022 -0.0116 -0.1814
11972SOL     OW47134   1.919   9.854   6.049  0.3653 -0.3518 -0.5850
11972SOL    HW147135   1.919   9.787   6.123  1.8765 -0.1015 -0.3432
11972SOL    HW247136   1.957   9.813   5.966  0.7002  0.0091 -0.6142
11973SOL     OW47137   2.591   4.259   5.168 -0.7394  0.6990 -0.2469
11973SOL    HW147138   2.633   4.178   5.208 -0.6891  0.6753 -0.3468
11973SOL    HW247139   2.559   4.239   5.075 -1.3113  0.6117 -0.0313
11974SOL     OW47140   8.969   8.501   5.682 -0.0229 -0.3300  0.4558
11974SOL    HW147141   8.908   8.458   5.748  0.2217  0.4130  1.1679
11974SOL    HW247142   9.020   8.575   5.726 -0.5381  0.7877 -0.7685
11975SOL     OW47143   3.242   7.550   2.946  0.5211  0.0917 -0.5006
11975SOL    HW147144   3.284   7.514   3.029 -0.2121  0.8877  0.2253
11975SOL    HW247145   3.148   7.576   2.965  0.5677  0.9472 -1.4010
11976SOL     OW47146   8.313   5.085   4.763 -0.3246  0.0260  0.3320
11976SOL    HW147147   8.213   5.088   4.767 -0.3422  0.3796 -0.2622
11976SOL    HW247148   8.349   5.069   4.855 -0.8616  2.1160  0.9570
11977SOL     OW47149   6.289   1.008   3.505  0.0027 -0.6869 -0.2356
11977SOL    HW147150   6.288   0.910   3.524 -0.3309 -0.3472  1.6072
11977SOL    HW247151   6.368   1.050   3.551  0.3578 -0.1453 -1.3217
11978SOL     OW47152   0.196   7.261   3.407  0.0829  0.0204  0.0673
11978SOL    HW147153   0.139   7.322   3.462  0.2878  0.3927 -0.1419
11978SOL    HW247154   0.210   7.175   3.458 -1.8918 -0.6618 -0.5005
11979SOL     OW47155   4.423   9.914   2.059  0.7825  0.0628  0.4605
11979SOL    HW147156   4.403   9.935   1.964  0.1461 -0.5125  0.4641
11979SOL    HW247157   4.481   9.986   2.098 -2.2764  2.4502  0.8093
11980SOL     OW47158   7.166   3.916   7.922  0.4035 -0.1351  0.1134
11980SOL    HW147159   7.260   3.937   7.947 -0.4882  1.9636  1.9133
11980SOL    HW247160   7.135   3.981   7.852  0.1933 -0.5990 -0.2235
11981SOL     OW47161   8.957   9.183   2.576 -0.3452 -0.3513 -0.0153
11981SOL    HW147162   8.888   9.139   2.634 -0.9508 -0.5406 -0.8731
11981SOL    HW247163   9.048   9.161   2.611 -0.6860 -1.0517  0.4554
11982SOL     OW47164   5.440   3.730   0.485  0.1620  0.4849  0.5162
11982SOL    HW147165   5.404   3.660   0.423  1.5995  1.0872 -1.0489
11982SOL    HW247166   5.471   3.686   0.570 -0.3240 -0.5701  0.1604
11983SOL     OW47167   7.446   4.926   0.459 -0.2299 -0.4870  0.3398
11983SOL    HW147168   7.449   5.026   0.460  0.8573 -0.5114  2.4273
11983SOL    HW247169   7.352   4.895   0.443 -0.8308  0.8971  1.0914
11984SOL     OW47170   3.803   6.977   4.687  0.1086 -0.1231  0.2636
11984SOL    HW147171   3.738   6.931   4.748 -2.1367  0.3845 -1.7033
11984SOL    HW247172   3.818   7.070   4.718 -2.7323  0.8537 -1.1315
11985SOL     OW47173   2.907   4.306   3.359  0.0452  0.8966 -0.2560
11985SOL    HW147174   2.994   4.290   3.406 -0.2568  0.6167  0.2119
11985SOL    HW247175   2.910   4.264   3.269  0.7615  1.7399 -0.6372
11986SOL     OW47176   8.796   4.973   2.467 -0.1317 -0.1279  0.5458
11986SOL    HW147177   8.893   4.986   2.489  0.1576 -0.1021 -0.6999
11986SOL    HW247178   8.759   4.900   2.525  0.2344  0.8744  2.0889
11987SOL     OW47179   0.920   3.763   0.521  0.2162  0.1379  0.0833
11987SOL    HW147180   0.912   3.664   0.505  1.6911 -0.1784  1.2365
11987SOL    HW247181   0.969   3.804   0.444 -0.0409 -0.0748 -0.2009
11988SOL     OW47182   1.963   0.894   2.035 -0.3464  0.1828  0.0480
11988SOL    HW147183   1.907   0.939   1.966 -0.5728 -0.9435 -0.5204
11988SOL    HW247184   2.035   0.957   2.067 -0.2796  0.7283 -1.1624
11989SOL     OW47185   0.739   2.075   6.513  0.1510  0.2921 -0.0152
11989SOL    HW147186   0.742   2.046   6.417  0.5064 -1.3131  0.4647
11989SOL    HW247187   0.789   2.009   6.569  0.3367  1.4612  1.2222
11990SOL     OW47188   9.956   8.501   1.947 -0.0223  0.0540  0.0568
11990SOL    HW147189   9.976   8.536   2.038  1.2127  0.0868 -0.2173
11990SOL    HW247190   9.864   8.460   1.947 -1.4248  3.0351  0.4246
11991SOL     OW47191   4.892   7.094   3.595 -0.0375 -0.4263  0.0064
11991SOL    HW147192   4.897   7.037   3.677 -1.3705 -1.2518 -0.4804
11991SOL    HW247193   4.845   7.180   3.616 -0.7217 -0.8012  0.0261
11992SOL     OW47194   9.450   0.070   3.179  0.4596  0.3773 -0.6059
11992SOL    HW147195   9.357   0.032   3.186 -0.2170  1.7317 -1.9107
11992SOL    HW247196   9.465   0.137   3.251  1.4665 -1.9105  1.3737
11993SOL     OW47197   2.487   9.110   6.080  0.1106  0.3012 -0.2969
11993SOL    HW147198   2.438   9.119   6.167 -0.8992 -1.8825 -0.6224
11993SOL    HW247199   2.550   9.187   6.070 -1.3696  1.7756  1.3249
11994SOL     OW47200   7.663   6.856   1.739  0.1518 -0.3343 -0.2383
11994SOL    HW147201   7.713   6.781   1.781  1.2362  0.6421  0.2588
11994SOL    HW247202   7.615   6.908   1.810  0.2794  0.0746 -0.4513
11995SOL     OW47203   4.871   2.336   3.521 -0.1716 -0.2329 -0.0255
11995SOL    HW147204   4.908   2.267   3.583  1.4482  2.5166  2.1916
11995SOL    HW247205   4.946   2.376   3.468 -1.1916 -0.6778 -1.8472
11996SOL     OW47206   8.568   3.549   2.744 -0.5140  0.1390  0.3350
11996SOL    HW147207   8.505   3.617   2.780 -1.1443  0.0406 -0.5758
11996SOL    HW247208   8.560   3.545   2.645 -1.2825 -2.0282  0.4482
11997SOL     OW47209   6.206   9.068   3.998  0.0471 -0.0362 -0.2684
11997SOL    HW147210   6.207   9.165   3.975  1.1058 -0.3083 -1.4448
11997SOL    HW247211   6.299   9.032   3.996 -0.3159 -1.0347  0.3604
11998SOL     OW47212   7.338   4.350   3.558  0.5567  0.2473  0.1281
11998SOL    HW147213   7.402   4.318   3.487 -0.4626  1.7069 -1.4732
11998SOL    HW247214   7.387   4.357   3.645  2.1079 -0.5144 -0.6515
11999SOL     OW47215   0.486   6.233   2.404  0.6396  0.0607  0.1234
11999SOL    HW147216   0.400   6.269   2.367  1.8789  0.9798 -1.9742
11999SOL    HW247217   0.477   6.219   2.502 -1.8215  0.3870 -0.0331
12000SOL     OW47218   6.438   8.905   6.659 -0.1993 -0.3596 -0.3579
12000SOL    HW147219   6.370   8.913   6.731 -0.3388 -0.5267 -0.4705
12000SOL    HW247220   6.467   8.996   6.629  1.0929 -0.2846  1.0703
12001SOL     OW47221   7.586   6.963   5.767 -0.4661 -0.3388  0.2454
12001SOL    HW147222   7.566   6.946   5.670 -0.2999  1.6424 -0.1674
12001SOL    HW247223   7.685   6.964   5.781 -0.4256  1.7094 -0.0441
12002SOL     OW47224   0.755   0.761   3.577 -0.0722 -0.1517 -0.3628
12002SOL    HW147225   0.683   0.735   3.641 -1.5930  2.0618 -1.1134
12002SOL    HW247226   0.762   0.693   3.505 -0.1981 -1.2748  0.6679
12003SOL     OW47227   4.347   8.605   6.954  0.6249  0.6736  0.6571
12003SOL    HW147228   4.337   8.705   6.955  2.0841  0.8269  0.3630
12003SOL    HW247229   4.414   8.578   7.024  1.5268  0.0443 -0.4449
12004SOL     OW47230   3.152   6.493   2.699  0.0332  1.1627  0.1990
12004SOL    HW147231   3.168   6.564   2.767 -0.6425  1.3030  0.2158
12004SOL    HW247232   3.056   6.465   2.702  0.4338 -0.2021  0.6292
12005SOL     OW47233   4.742   5.094   3.828 -0.4547  0.2978 -0.2725
12005SOL    HW147234   4.700   5.096   3.737 -0.9096 -0.2914 -0.0813
12005SOL    HW247235   4.783   5.005   3.844  1.1949  0.9822 -0.5898
12006SOL     OW47236   4.900   9.222   6.434 -0.1682 -0.2912 -0.3973
12006SOL    HW147237   4.855   9.296   6.485  0.6147 -0.4071  0.4828
12006SOL    HW247238   4.986   9.256   6.395 -0.6998 -0.2441 -1.5264
12007SOL     OW47239   7.503   2.909   5.270 -0.4868 -0.3853 -0.3085
12007SOL    HW147240   7.408   2.890   5.247 -0.0348 -1.8778 -0.9427
12007SOL    HW247241   7.506   2.957   5.358 -1.8872  0.8608 -0.9038
12008SOL     OW47242   1.190   2.230   1.679 -0.5669 -0.3099 -0.5618
12008SOL    HW147243   1.158   2.275   1.596  1.4967  1.2313 -0.5765
12008SOL    HW247244   1.247   2.151   1.655  2.4464  1.8240 -0.7571
12009SOL     OW47245   2.386   6.976   0.981 -0.2782  0.2620  0.6300
12009SOL    HW147246   2.475   6.941   1.010 -0.4447  0.5563  1.4927
12009SOL    HW247247   2.322   6.899   0.972  0.0204  0.0640  0.1159
12010SOL     OW47248   6.047   1.401   2.703  0.6907  0.0838 -0.2780
12010SOL    HW147249   6.102   1.377   2.623 -0.6512  1.4387 -1.6362
12010SOL    HW247250   5.970   1.337   2.710  0.5741  0.2219 -0.3053
12011SOL     OW47251   8.911   0.951   5.844  0.2540 -0.2280  0.1346
12011SOL    HW147252   8.881   0.880   5.907 -3.5234  1.2830  0.2020
12011SOL    HW247253   8.941   1.032   5.895 -0.1465 -0.0126  0.0318
12012SOL     OW47254   0.259   4.581   0.809  0.2558 -0.2394 -0.3717
12012SOL    HW147255   0.225   4.669   0.843  1.4495  0.4875 -1.0161
12012SOL    HW247256   0.186   4.513   0.816 -1.9070  1.6363 -3.1684
12013SOL     OW47257   5.550   6.160   1.231  0.0499  0.2402 -0.8776
12013SOL    HW147258   5.472   6.185   1.174  0.7080  1.8895 -1.0803
12013SOL    HW247259   5.545   6.210   1.318 -0.3366 -1.3925  0.0608
12014SOL     OW47260   2.444   3.474   5.941  0.3420  0.0275  0.9856
12014SOL    HW147261   2.348   3.466   5.970  0.6563  0.4201  2.1359
12014SOL    HW247262   2.459   3.562   5.897 -0.2919 -0.8273 -1.0164
12015SOL     OW47263   1.914   2.646   4.757  0.0653  0.0210 -0.0783
12015SOL    HW147264   1.995   2.592   4.780 -0.9286 -1.2855  0.3799
12015SOL    HW247265   1.933   2.743   4.777  1.4186 -0.2985  0.2649
12016SOL     OW47266   3.246   3.168   3.286 -0.0056 -0.2328  0.3200
12016SOL    HW147267   3.325   3.183   3.344  1.7502 -1.6981 -1.6019
12016SOL    HW247268   3.187   3.098   3.326 -0.5869  1.1873  1.9816
12017SOL     OW47269   9.602   8.830   1.166  0.0493  0.5269  0.2728
12017SOL    HW147270   9.598   8.930   1.168 -1.9320  0.5200 -1.3860
12017SOL    HW247271   9.583   8.798   1.074  0.0194 -1.4161  0.9325
12018SOL     OW47272   9.854   7.305   1.421  0.1913  0.8399 -0.2678
12018SOL    HW147273   9.928   7.250   1.383  0.6114  0.9539  0.3931
12018SOL    HW247274   9.800   7.344   1.345 -0.8425 -1.4452 -0.7289
12019SOL     OW47275   5.530   4.893   1.043 -0.3757 -0.4374  0.0193
12019SOL    HW147276   5.500   4.988   1.053 -1.3247 -0.7510  0.1952
12019SOL    HW247277   5.450   4.833   1.033  0.2046 -1.2420  0.1390
12020SOL     OW47278   8.827   8.321   2.119  0.1845  0.2699  0.2017
12020SOL    HW147279   8.790   8.299   2.209  3.4312  0.3598  1.6323
12020SOL    HW247280   8.846   8.237   2.069  0.1183  0.1830  0.3220
12021SOL     OW47281   0.031   7.357   0.925 -0.1027  0.0290  0.3440
12021SOL    HW147282   0.027   7.376   0.827  2.4836 -0.1214  0.1776
12021SOL    HW247283   0.071   7.267   0.940  2.2626  1.2246  1.5808
12022SOL     OW47284   4.026   2.625   4.911  0.0383  0.1161  0.3229
12022SOL    HW147285   4.126   2.621   4.904  0.1503 -2.6704  2.8537
12022SOL    HW247286   4.000   2.655   5.003 -1.4733  1.9463 -0.6763
12023SOL     OW47287   6.721   7.630   6.464  0.7346  0.0911 -0.3188
12023SOL    HW147288   6.633   7.614   6.509  1.8895 -2.3909  1.1891
12023SOL    HW247289   6.718   7.595   6.371 -0.7350  2.6059 -1.2793
12024SOL     OW47290   9.383   2.852   2.167 -0.4794  0.1420 -0.1283
12024SOL    HW147291   9.415   2.824   2.076 -1.9806  0.6075 -0.8291
12024SOL    HW247292   9.452   2.909   2.210  0.3314 -0.2311 -0.9208
12025SOL     OW47293   5.849   4.088   0.796 -0.7918 -0.3611  0.1021
12025SOL    HW147294   5.802   4.024   0.735  0.8741 -0.3767 -1.1818
12025SOL    HW247295   5.916   4.141   0.745  1.8052 -1.4988  2.2026
12026SOL     OW47296   7.222   9.594   6.656 -0.1978 -0.2561 -0.2967
12026SOL    HW147297   7.314   9.626   6.677  0.1285 -1.9476  0.9811
12026SOL    HW247298   7.159   9.671   6.649  0.7280  0.7109  1.8223
12027SOL     OW47299   8.136   0.822   0.856  0.2813  0.2845  0.5632
12027SOL    HW147300   8.207   0.846   0.790 -0.2580 -0.4898 -0.3029
12027SOL    HW247301   8.065   0.892   0.857  0.3030  0.3100  0.3365
12028SOL     OW47302   4.793   0.696   1.853  0.3231  0.3792  0.9106
12028SOL    HW147303   4.892   0.686   1.850  0.3239  0.7159 -0.1533
12028SOL    HW247304   4.769   0.793   1.858  0.0052  0.4055 -0.7946
12029SOL     OW47305   2.830   2.130   6.254 -0.2446  0.2310 -0.5812
12029SOL    HW147306   2.810   2.033   6.263 -0.8428  0.3397 -0.7619
12029SOL    HW247307   2.864   2.165   6.342  2.4891 -0.7215 -1.2090
12030SOL     OW47308   8.528   0.709   0.911 -0.2995  0.1058 -0.3173
12030SOL    HW147309   8.537   0.610   0.901  1.0282  0.0824  0.9062
12030SOL    HW247310   8.614   0.747   0.946 -1.2343  1.5064  0.5225
12031SOL     OW47311   4.491   0.836   5.643 -0.1113 -0.0599  0.2722
12031SOL    HW147312   4.522   0.889   5.722 -1.5811  0.3084  0.6256
12031SOL    HW247313   4.450   0.898   5.576 -0.9125 -0.6251  0.2358
12032SOL     OW47314   1.092   6.929   2.148  0.0784  0.1752 -0.7716
12032SOL    HW147315   1.019   6.864   2.173  0.1577  1.3032  2.4859
12032SOL    HW247316   1.051   7.016   2.121  0.1070 -0.2882 -2.3781
12033SOL     OW47317   9.822   4.385   2.678  0.5218 -0.0949  0.1172
12033SOL    HW147318   9.823   4.398   2.777 -0.4713  2.9123 -0.2248
12033SOL    HW247319   9.728   4.386   2.644  0.9889  2.7360 -1.2565
12034SOL     OW47320   0.055   5.622   3.198 -0.4077 -0.4514 -0.3333
12034SOL    HW147321   0.143   5.581   3.173  0.4910  0.0310  1.8773
12034SOL    HW247322   0.061   5.721   3.187 -0.5485 -0.3854  0.1972
12035SOL     OW47323   8.876   1.261   4.955  0.5477 -0.1954 -0.3506
12035SOL    HW147324   8.941   1.326   4.917 -1.6601  1.2743 -1.7064
12035SOL    HW247325   8.845   1.199   4.882 -1.6678  0.9143 -0.3907
12036SOL     OW47326   9.554   8.408   2.504 -0.3141  0.2298  0.2195
12036SOL    HW147327   9.494   8.485   2.527  0.8154  0.9501  0.8112
12036SOL    HW247328   9.649   8.439   2.501  0.1198 -1.0632  0.0796
12037SOL     OW47329   8.313   8.382   1.626 -0.4759 -0.6580  0.0113
12037SOL    HW147330   8.324   8.482   1.629 -0.2656 -0.6601 -0.6410
12037SOL    HW247331   8.221   8.358   1.657  0.0271 -0.3705  1.7723
12038SOL     OW47332   7.923   4.790   3.771  0.2358 -0.6623  0.3838
12038SOL    HW147333   7.956   4.855   3.702  0.1576  0.0740  1.0400
12038SOL    HW247334   7.986   4.787   3.848 -0.6640 -0.0306  1.1687
12039SOL     OW47335   1.514   4.186   2.771  0.0931  0.0773  0.6307
12039SOL    HW147336   1.421   4.155   2.749 -0.3595  0.0182  2.5555
12039SOL    HW247337   1.521   4.284   2.753 -1.0311  0.5450  2.5568
12040SOL     OW47338   4.714   1.941   0.356 -0.7879  0.1442 -0.6854
12040SOL    HW147339   4.706   1.895   0.267  1.2923 -0.0162 -0.8176
12040SOL    HW247340   4.671   2.031   0.350 -0.1323  0.3880 -2.0557
12041SOL     OW47341   4.432   5.262   3.634  0.3236  0.5047  0.2725
12041SOL    HW147342   4.483   5.182   3.604  0.0847 -0.5649  2.5831
12041SOL    HW247343   4.495   5.326   3.678  0.1782  0.6325  0.2920
12042SOL     OW47344   1.262   1.125   5.412 -0.5524 -0.1964  0.4817
12042SOL    HW147345   1.241   1.036   5.373 -2.3563 -0.5591  2.1678
12042SOL    HW247346   1.204   1.140   5.492 -1.7718  3.3502 -0.9670
12043SOL     OW47347   4.972   1.422   2.986 -0.0446  0.0048 -1.0324
12043SOL    HW147348   4.957   1.514   2.951 -0.3839 -0.4142 -2.0026
12043SOL    HW247349   4.932   1.355   2.923  0.3937 -0.8138 -0.4528
12044SOL     OW47350   1.568   0.685   2.779 -0.0136  0.0434 -0.7942
12044SOL    HW147351   1.496   0.620   2.805 -0.8043  0.2626 -2.3898
12044SOL    HW247352   1.539   0.777   2.803  0.1588  0.0401 -0.5662
12045SOL     OW47353   1.346   4.181   5.487 -0.6744  0.0396 -0.1035
12045SOL    HW147354   1.281   4.127   5.434 -0.6387 -1.1182  1.0247
12045SOL    HW247355   1.425   4.125   5.511  0.1523  1.0671 -0.3476
12046SOL     OW47356   6.148   0.416   6.426 -0.2213  0.0599  0.5536
12046SOL    HW147357   6.135   0.475   6.506 -0.5500 -0.4725  0.8924
12046SOL    HW247358   6.064   0.414   6.372 -0.3068 -0.3274  0.6982
12047SOL     OW47359   7.758   0.642   0.138  0.2593 -0.0163 -1.0306
12047SOL    HW147360   7.808   0.727   0.131  0.7142 -0.3788 -2.2079
12047SOL    HW247361   7.796   0.586   0.212 -0.8467  1.3307  0.5757
12048SOL     OW47362   2.389   2.942   5.447 -0.6340  0.3736  0.3991
12048SOL    HW147363   2.405   2.911   5.541 -0.7681  0.1569  0.3504
12048SOL    HW247364   2.331   3.023   5.447 -0.4053  0.5395  0.5183
12049SOL     OW47365   0.635   5.697   2.218  0.2072 -0.7602 -0.5313
12049SOL    HW147366   0.569   5.760   2.258  1.2014 -0.9084  1.3756
12049SOL    HW247367   0.677   5.740   2.138  1.1317  1.1336  0.9512
12050SOL     OW47368   4.761   0.506   1.616  0.0552  0.1885 -0.3585
12050SOL    HW147369   4.852   0.514   1.575 -0.1955 -1.5110 -1.2496
12050SOL    HW247370   4.759   0.557   1.702  2.2814 -0.9417  0.3827
12051SOL     OW47371   1.240   4.335   1.179 -0.2535  0.0401  0.0024
12051SOL    HW147372   1.165   4.301   1.122  0.0909 -0.9169  0.1110
12051SOL    HW247373   1.203   4.363   1.268 -0.6962  0.9360 -0.4661
12052SOL     OW47374   0.395   5.369   0.360  0.1675  0.2318  0.2247
12052SOL    HW147375   0.473   5.394   0.303  1.2313 -0.1890  1.4754
12052SOL    HW247376   0.315   5.423   0.332  1.3581  2.0145  0.1337
12053SOL     OW47377   3.632   2.031   4.449 -0.5756  0.4243 -0.6686
12053SOL    HW147378   3.601   2.125   4.466  0.3494  0.4973  0.7694
12053SOL    HW247379   3.718   2.016   4.497  1.0705 -0.1085 -3.6409
12054SOL     OW47380   6.074   8.823   5.127  0.0851  0.4642 -0.3188
12054SOL    HW147381   6.010   8.899   5.135  1.3273  1.6041 -1.1521
12054SOL    HW247382   6.139   8.825   5.202  0.5810  0.6517 -0.7549
12055SOL     OW47383   1.408   6.133   6.116 -0.5632 -0.3516 -0.4797
12055SOL    HW147384   1.363   6.068   6.055 -0.7592  1.1667 -1.9847
12055SOL    HW247385   1.507   6.120   6.111 -0.5403  0.2174 -1.6475
12056SOL     OW47386   2.143   3.801   4.645 -0.1341  0.0035 -0.4457
12056SOL    HW147387   2.043   3.800   4.652 -0.1889 -2.0009 -1.0519
12056SOL    HW247388   2.172   3.880   4.591 -1.2983  1.2540  0.7207
12057SOL     OW47389   2.775   6.183   0.972 -0.1464 -0.0867  0.6265
12057SOL    HW147390   2.773   6.268   1.024 -1.5821  0.6181 -0.5565
12057SOL    HW247391   2.754   6.106   1.032 -1.4152  0.6792  1.1764
12058SOL     OW47392   7.682   6.487   1.981 -0.3853  0.2981 -0.0415
12058SOL    HW147393   7.614   6.528   1.921  0.1856 -0.1208 -0.9703
12058SOL    HW247394   7.665   6.389   1.991  0.2370  0.1436 -0.4848
12059SOL     OW47395   9.953   4.880   2.306 -0.2402  0.2380 -0.4323
12059SOL    HW147396   9.928   4.954   2.243  1.4191  0.1488 -1.2196
12059SOL    HW247397   9.961   4.794   2.256 -0.5202 -0.1547  0.1901
12060SOL     OW47398   6.018   2.401   4.924  0.3286 -0.3787  0.6285
12060SOL    HW147399   6.082   2.465   4.964  0.5224 -0.4612  0.4510
12060SOL    HW247400   5.927   2.443   4.919 -0.1985 -1.1670  3.2297
12061SOL     OW47401   1.032   7.391   3.836 -0.0821 -0.7063 -0.4160
12061SOL    HW147402   1.004   7.404   3.931 -0.4191 -0.3760 -0.5575
12061SOL    HW247403   0.952   7.366   3.781 -0.3908  1.6390 -1.0956
12062SOL     OW47404   0.946   8.644   1.329 -0.2736  0.2246 -0.3144
12062SOL    HW147405   0.914   8.600   1.413  0.1689 -2.6987 -1.6080
12062SOL    HW247406   1.045   8.655   1.332 -0.5330  2.4827  0.5953
12063SOL     OW47407   4.169   8.414   2.035  0.4453  0.1673  0.2420
12063SOL    HW147408   4.228   8.493   2.018 -0.4815  0.8405  0.0499
12063SOL    HW247409   4.105   8.437   2.109 -0.0977 -0.2630 -0.0977
12064SOL     OW47410   1.222   1.526   6.055  0.2165  0.2325  0.3374
12064SOL    HW147411   1.155   1.592   6.022  0.4073  0.4231  0.3264
12064SOL    HW247412   1.238   1.540   6.153 -0.3217 -0.3083  0.5005
12065SOL     OW47413   8.267   9.821   2.100 -0.0146  0.8547  0.0920
12065SOL    HW147414   8.327   9.899   2.115  0.8574  0.1987  0.0518
12065SOL    HW247415   8.252   9.808   2.002  0.9748  0.1359  0.0241
12066SOL     OW47416   7.787   5.538   5.482  0.4178  0.1781 -0.5818
12066SOL    HW147417   7.737   5.616   5.446  0.3533 -0.9903 -3.1073
12066SOL    HW247418   7.723   5.462   5.499  0.4862  0.5996  1.7744
12067SOL     OW47419   2.636   8.228   0.413  0.5085  0.3574 -0.0664
12067SOL    HW147420   2.720   8.200   0.462 -0.1486  0.9691  1.4507
12067SOL    HW247421   2.562   8.166   0.439  0.3142  0.2762 -0.8269
12068SOL     OW47422   0.492   9.947   3.183  0.0122  0.5061 -0.2857
12068SOL    HW147423   0.561   9.893   3.135  0.8118  0.1160  1.2778
12068SOL    HW247424   0.402   9.907   3.169  0.7076 -1.8777  1.6705
12069SOL     OW47425   8.718   2.993   4.800 -0.3010  0.1185  0.1745
12069SOL    HW147426   8.757   3.082   4.825  1.4512 -0.2466 -1.0970
12069SOL    HW247427   8.765   2.920   4.850  0.3152 -0.2880 -0.9611
12070SOL     OW47428   0.642   5.244   5.631  0.0538 -0.0095 -0.2045
12070SOL    HW147429   0.667   5.240   5.534  0.0181 -1.3856 -0.1658
12070SOL    HW247430   0.724   5.236   5.687 -0.0825 -0.8016 -0.1126
12071SOL     OW47431   6.310   0.638   3.378  0.5713 -0.6597  0.2394
12071SOL    HW147432   6.316   0.623   3.476  2.3744  0.0036  0.2446
12071SOL    HW247433   6.270   0.558   3.334  1.4756 -1.7127  1.3158
12072SOL     OW47434   3.361   4.565   1.761 -0.3381  0.4354 -0.0461
12072SOL    HW147435   3.311   4.593   1.678 -1.9807 -0.3498  0.6455
12072SOL    HW247436   3.311   4.491   1.806  0.1466  1.3547  2.0622
12073SOL     OW47437   2.027   1.456   6.166 -0.3135  0.0852  0.4248
12073SOL    HW147438   2.074   1.502   6.090 -1.2235 -0.0624 -0.2281
12073SOL    HW247439   2.053   1.501   6.252  3.6373 -2.0566  0.4677
12074SOL     OW47440   1.556   0.041   2.101  0.2776  0.6295  0.2865
12074SOL    HW147441   1.630   0.070   2.041  0.9624  0.9976  1.2893
12074SOL    HW247442   1.546   0.107   2.176  0.9219 -0.9433  1.8129
12075SOL     OW47443   5.042   9.532   1.484  0.5358 -0.0882  0.2632
12075SOL    HW147444   4.976   9.491   1.421  1.9920  0.7143 -1.8660
12075SOL    HW247445   5.008   9.621   1.515  0.6702  0.3994 -0.9549
12076SOL     OW47446   0.161   7.325   1.938 -0.4118  0.0005  0.8787
12076SOL    HW147447   0.081   7.369   1.898 -0.3660 -0.2806  0.4731
12076SOL    HW247448   0.243   7.379   1.917 -0.8532  1.9304  3.8625
12077SOL     OW47449   8.953   8.198   3.529 -0.4365 -0.4001 -0.1685
12077SOL    HW147450   8.948   8.232   3.436  1.1440  0.0942 -0.0731
12077SOL    HW247451   9.028   8.242   3.578 -1.3605 -0.5021  1.4034
12078SOL     OW47452   0.504   2.634   1.450  0.0557  0.5886  0.6980
12078SOL    HW147453   0.602   2.651   1.438  0.0349  2.0460  2.4164
12078SOL    HW247454   0.490   2.550   1.502  0.4336  1.1750  1.7506
12079SOL     OW47455   5.340   1.164   2.029 -0.1561  0.7114  0.0684
12079SOL    HW147456   5.364   1.205   2.117 -0.9460 -0.8585  1.0420
12079SOL    HW247457   5.300   1.233   1.969 -0.6953  1.5318  1.3684
12080SOL     OW47458   9.348   1.779   3.285  0.0331 -0.7403  0.0084
12080SOL    HW147459   9.411   1.856   3.287 -0.4286 -0.3251 -0.9625
12080SOL    HW247460   9.290   1.780   3.366 -0.0384 -0.0076 -0.0474
12081SOL     OW47461   3.727   5.135   0.508 -0.0872  0.2548  0.2777
12081SOL    HW147462   3.737   5.141   0.409  0.9255  0.0086  0.3669
12081SOL    HW247463   3.695   5.043   0.532 -1.1060  0.5560  0.1278
12082SOL     OW47464   9.646   5.500   1.576  0.0206  0.6717  0.2217
12082SOL    HW147465   9.551   5.468   1.566 -0.1644  1.4386 -0.5965
12082SOL    HW247466   9.669   5.508   1.673  0.1161 -2.0361  0.4561
12083SOL     OW47467   1.382   0.495   5.980  0.2398  0.0081  0.5926
12083SOL    HW147468   1.479   0.505   6.005  0.3808 -0.6098  0.3069
12083SOL    HW247469   1.371   0.414   5.923 -0.4793 -0.0162  0.7663
12084SOL     OW47470   3.904   2.862   3.255  0.3311 -0.2055 -0.2790
12084SOL    HW147471   3.878   2.888   3.348  0.7485 -0.2785 -0.1393
12084SOL    HW247472   3.946   2.941   3.210  0.2716 -0.2161 -0.3529
12085SOL     OW47473   7.997   9.013   3.466 -0.6019  0.5076  0.1772
12085SOL    HW147474   8.003   8.998   3.367  0.7206 -1.3659  0.5158
12085SOL    HW247475   7.903   9.001   3.496 -0.9232  0.5847 -0.7660
12086SOL     OW47476   8.861   0.198   3.354  0.1693  0.2080  0.2023
12086SOL    HW147477   8.893   0.109   3.321 -0.5500 -0.0687  0.2246
12086SOL    HW247478   8.938   0.260   3.365  0.5463 -0.0606 -0.9100
12087SOL     OW47479   7.212   3.107   3.202 -0.6470 -0.3401  0.6506
12087SOL    HW147480   7.302   3.069   3.181  0.5869  1.7195  2.0803
12087SOL    HW247481   7.190   3.091   3.298 -1.8258 -0.8315  0.3139
12088SOL     OW47482   4.023   5.924   2.470  0.2117  0.8241  0.1155
12088SOL    HW147483   4.020   5.824   2.463  1.1174  0.8510 -0.9670
12088SOL    HW247484   4.014   5.951   2.565  1.7262 -0.3980  0.6455
12089SOL     OW47485   9.399   6.177   3.682  0.3848 -0.6112  0.5779
12089SOL    HW147486   9.351   6.252   3.728 -2.7585 -1.6160 -0.9259
12089SOL    HW247487   9.460   6.214   3.612 -0.2768  0.5609  0.6165
12090SOL     OW47488   9.655   9.826   2.202 -0.3408 -0.2626 -0.3528
12090SOL    HW147489   9.633   9.749   2.261  0.9310 -1.7790 -1.8070
12090SOL    HW247490   9.733   9.876   2.240 -0.7401 -0.0856  0.2401
12091SOL     OW47491   3.901   1.392   1.261  0.0158 -0.6447 -0.6192
12091SOL    HW147492   3.984   1.430   1.221 -0.8119 -1.1065 -2.8928
12091SOL    HW247493   3.864   1.455   1.329  1.6338  0.0396 -0.3539
12092SOL     OW47494   9.625   8.757   0.397  0.2064 -0.4837  0.3315
12092SOL    HW147495   9.705   8.796   0.443 -0.2109 -0.6545  1.2041
12092SOL    HW247496   9.548   8.821   0.405  0.9623  0.9629 -2.8689
12093SOL     OW47497   4.863   2.038   8.152 -0.1910 -0.3773 -0.3659
12093SOL    HW147498   4.763   2.048   8.153 -0.3206 -0.9694 -2.6744
12093SOL    HW247499   4.886   1.946   8.121  1.0757  0.0482 -0.7042
12094SOL     OW47500   2.494   3.365   0.305 -0.1842 -0.1045  0.0794
12094SOL    HW147501   2.452   3.440   0.356  0.5226  0.0070  0.5058
12094SOL    HW247502   2.525   3.398   0.216 -0.4598 -0.0444  0.0060
12095SOL     OW47503   4.341   9.019   1.823 -0.6292 -0.2556 -0.0175
12095SOL    HW147504   4.302   9.107   1.799 -0.4978  0.0990  1.0096
12095SOL    HW247505   4.373   9.022   1.918  1.4684 -0.6710 -0.6740
12096SOL     OW47506   6.154   7.921   5.685 -0.3116 -0.0391 -0.3248
12096SOL    HW147507   6.141   7.917   5.784  1.2855  1.7756 -0.0120
12096SOL    HW247508   6.092   7.988   5.645  1.9726  2.3988  0.0591
12097SOL     OW47509   7.400   7.170   3.470 -0.0307 -0.4460  0.3247
12097SOL    HW147510   7.348   7.210   3.394  0.9769 -2.0302 -1.2449
12097SOL    HW247511   7.498   7.183   3.453  0.2373 -1.7998  0.7963
12098SOL     OW47512   2.170   0.598   1.548 -0.0945 -0.0055  0.2076
12098SOL    HW147513   2.194   0.682   1.597 -1.9344 -0.3820  1.8413
12098SOL    HW247514   2.111   0.542   1.606  0.0942 -1.8594 -1.3473
12099SOL     OW47515   8.976   0.646   5.228 -0.5392  0.0904  0.5526
12099SOL    HW147516   9.003   0.558   5.189 -2.4350 -0.5643  0.6644
12099SOL    HW247517   9.013   0.720   5.171 -0.7454 -0.8040 -0.7716
12100SOL     OW47518   3.779   5.702   3.785  0.4507  0.0118 -0.2274
12100SOL    HW147519   3.776   5.740   3.693  1.4870 -0.9012 -0.6578
12100SOL    HW247520   3.751   5.606   3.783  0.5923 -0.0491  0.3893
12101SOL     OW47521   6.381   9.738   6.520  0.1121  0.5762 -0.4103
12101SOL    HW147522   6.349   9.674   6.451 -0.5125  0.0088  0.4019
12101SOL    HW247523   6.429   9.689   6.593 -0.3637  1.0171  0.2119
12102SOL     OW47524   2.186   8.660   5.755 -0.0363 -0.4659  0.6702
12102SOL    HW147525   2.116   8.630   5.690  1.0984  0.0076 -0.8012
12102SOL    HW247526   2.230   8.743   5.721 -0.0875  0.3507  2.5365
12103SOL     OW47527   0.792   8.681   6.005 -0.4772  0.0635 -0.0398
12103SOL    HW147528   0.746   8.608   5.953  0.9219 -0.9217  0.0882
12103SOL    HW247529   0.877   8.646   6.044 -0.4389  1.4157  1.1209
12104SOL     OW47530   8.207   1.982   2.455 -0.0644  0.0850  0.2573
12104SOL    HW147531   8.290   2.012   2.409  0.6129 -0.7015  0.9693
12104SOL    HW247532   8.163   1.910   2.401  1.2116 -1.4804  1.2692
12105SOL     OW47533   3.484   2.457   4.644  0.1450 -0.1960 -0.6966
12105SOL    HW147534   3.509   2.413   4.730  0.1851 -0.7878 -1.0022
12105SOL    HW247535   3.389   2.488   4.648  0.0126 -0.6046 -0.5884
12106SOL     OW47536   0.617   8.608   1.292 -0.5427  0.6523 -0.0371
12106SOL    HW147537   0.588   8.544   1.363  2.0192 -0.1382  0.3308
12106SOL    HW247538   0.598   8.569   1.202  1.3244 -0.7957  0.1840
12107SOL     OW47539   4.882   8.105   3.580  0.4974  0.0862  0.3828
12107SOL    HW147540   4.882   8.205   3.586  1.0828  0.3429 -2.7714
12107SOL    HW247541   4.934   8.076   3.500 -0.1176 -2.7495  0.9273
12108SOL     OW47542   0.190   1.165   6.535  0.2109 -0.2295  0.1270
12108SOL    HW147543   0.100   1.136   6.502  0.0317  0.3724  0.0746
12108SOL    HW247544   0.189   1.168   6.635  0.0955  0.0148  0.1195
12109SOL     OW47545   9.213   5.895   0.221 -0.4030  0.2617  0.0977
12109SOL    HW147546   9.149   5.943   0.161 -1.0613 -0.0932  0.5020
12109SOL    HW247547   9.186   5.910   0.317  0.3197  0.3823  0.2865
12110SOL     OW47548   1.035   1.517   2.028  0.0475  0.2911  0.3883
12110SOL    HW147549   1.094   1.590   2.063  2.5398 -1.2080 -0.5076
12110SOL    HW247550   1.016   1.533   1.931  0.7685 -0.3216  0.1377
12111SOL     OW47551   2.628   1.251   4.722 -0.6239  0.0054  0.3345
12111SOL    HW147552   2.699   1.267   4.653 -0.3644  1.1236  0.8424
12111SOL    HW247553   2.556   1.320   4.713 -1.8998 -1.4036 -0.4783
12112SOL     OW47554   8.241   3.067   8.016  0.2190 -0.1860  0.7913
12112SOL    HW147555   8.226   3.166   8.015 -0.7826 -0.3264 -1.8529
12112SOL    HW247556   8.318   3.044   7.956  0.8943 -0.9646  1.9310
12113SOL     OW47557   7.345   7.866   5.852  0.0128 -0.1195 -0.1068
12113SOL    HW147558   7.254   7.874   5.810  0.3664  0.5890 -0.7412
12113SOL    HW247559   7.360   7.771   5.879 -1.2038 -0.1110  0.6450
12114SOL     OW47560   8.322   2.758   4.578 -0.0013  0.2337  0.1404
12114SOL    HW147561   8.316   2.696   4.500 -2.0844  0.5120  0.0577
12114SOL    HW247562   8.352   2.708   4.659  0.9176 -0.3106 -0.5199
12115SOL     OW47563   6.213   0.385   3.317 -0.0976 -0.1847 -0.7211
12115SOL    HW147564   6.207   0.336   3.230  0.6299 -1.5835  0.0119
12115SOL    HW247565   6.122   0.402   3.353 -0.3792 -0.1625 -1.4392
12116SOL     OW47566   9.842   7.952   5.385 -0.0441 -0.3198 -0.1251
12116SOL    HW147567   9.868   7.877   5.324 -2.4939 -1.3386  0.0256
12116SOL    HW247568   9.833   7.918   5.478 -0.3751  0.3555  0.0924
12117SOL     OW47569   9.719   4.427   1.326 -0.3152  0.0304 -0.0321
12117SOL    HW147570   9.632   4.397   1.365 -0.1230 -1.2900 -0.6081
12117SOL    HW247571   9.712   4.524   1.302 -2.5881 -0.7533 -2.7363
12118SOL     OW47572   0.557   2.665   4.695 -0.1596 -0.0861  0.7590
12118SOL    HW147573   0.628   2.659   4.625 -0.7835  1.2650 -0.0246
12118SOL    HW247574   0.544   2.761   4.722 -0.3942 -0.5246  2.2417
12119SOL     OW47575   2.199   7.010   2.871  0.1359  0.0552 -0.0603
12119SOL    HW147576   2.166   6.943   2.805  0.1393  0.4287 -0.4456
12119SOL    HW247577   2.124   7.038   2.930  0.2896 -0.7897  0.5421
12120SOL     OW47578   1.002   5.130   4.013  0.0801 -0.8143 -0.1122
12120SOL    HW147579   0.919   5.185   4.005  0.4212 -0.5109 -1.6366
12120SOL    HW247580   1.060   5.167   4.086  0.2751  0.8047 -1.0788
12121SOL     OW47581   0.781   1.912   6.008 -0.4524  0.4998 -0.1351
12121SOL    HW147582   0.716   1.976   6.052  1.9756  3.2204 -0.3374
12121SOL    HW247583   0.790   1.830   6.064 -3.1212  0.6164  0.5258
12122SOL     OW47584   0.419   1.704   4.346  0.1480  0.0014  0.1538
12122SOL    HW147585   0.474   1.764   4.288 -0.4777 -0.6408 -1.1279
12122SOL    HW247586   0.426   1.610   4.313 -1.2914 -0.1686  0.2894
12123SOL     OW47587   7.284   9.558   4.100  0.7514 -0.3383 -0.4527
12123SOL    HW147588   7.331   9.559   4.012 -0.9469 -1.3283 -1.3849
12123SOL    HW247589   7.208   9.493   4.097 -0.7425  1.2798  0.9951
12124SOL     OW47590   9.095   3.941   0.934  0.5205  0.2543  0.3693
12124SOL    HW147591   9.078   3.905   1.026  0.6911 -1.2210 -0.1704
12124SOL    HW247592   9.148   4.025   0.941 -1.3561  1.3788  1.7330
12125SOL     OW47593   4.388   8.436   6.299  0.0913  0.5107 -0.1194
12125SOL    HW147594   4.336   8.351   6.291  0.5632 -0.0768  2.5193
12125SOL    HW247595   4.329   8.514   6.278 -0.8305 -0.3506 -0.7636
12126SOL     OW47596   1.897   6.373   0.457  0.0297  0.0627 -0.4672
12126SOL    HW147597   1.952   6.418   0.527  0.0375 -1.1943  0.3552
12126SOL    HW247598   1.957   6.323   0.394 -0.1430 -1.3724  0.4755
12127SOL     OW47599   3.819   2.328   0.641 -0.3026  0.1845  0.3207
12127SOL    HW147600   3.771   2.366   0.721 -1.2487  0.7178 -0.4886
12127SOL    HW247601   3.789   2.375   0.559 -0.5769 -1.5062 -0.5679
12128SOL     OW47602   7.312   8.540   4.269 -0.7474 -0.1625  0.8608
12128SOL    HW147603   7.304   8.623   4.324 -0.8849  1.2673 -1.2632
12128SOL    HW247604   7.222   8.515   4.234 -0.2259  0.6154 -1.0899
12129SOL     OW47605   2.720   7.690   8.090 -0.3746  0.2844 -0.3394
12129SOL    HW147606   2.802   7.637   8.111  0.0774  0.8127 -0.7493
12129SOL    HW247607   2.730   7.731   7.999 -0.9292  0.6610 -0.2311
12130SOL     OW47608   3.170   8.311   1.645  0.4455 -0.2491  0.2054
12130SOL    HW147609   3.128   8.391   1.602 -2.8879 -1.8243  0.3710
12130SOL    HW247610   3.224   8.340   1.723 -0.7800  1.8464  0.3106
12131SOL     OW47611   0.048   0.096   0.352 -0.2751  0.6495 -0.0875
12131SOL    HW147612   0.010   0.081   0.261 -1.1940  1.2699  0.1839
12131SOL    HW247613   0.145   0.122   0.344 -0.5117  1.3050 -0.9254
12132SOL     OW47614   1.427   1.052   2.363  0.4873 -0.0737  0.7654
12132SOL    HW147615   1.447   1.041   2.460  0.4835 -0.4003  0.7317
12132SOL    HW247616   1.498   1.005   2.310  0.4762  0.0845  0.6110
12133SOL     OW47617   8.306   5.198   0.965  0.0944  0.0620  0.0651
12133SOL    HW147618   8.257   5.163   0.886  1.3239 -1.6857  0.0604
12133SOL    HW247619   8.257   5.174   1.049  0.0144 -0.1105 -0.0315
12134SOL     OW47620   3.756   5.400   3.121  0.2545 -0.2453 -0.5294
12134SOL    HW147621   3.769   5.459   3.201 -1.5426 -0.2759 -0.1902
12134SOL    HW247622   3.698   5.323   3.147 -2.1443  0.8794 -2.3829
12135SOL     OW47623   5.163   0.570   6.336  0.2206  0.5141 -0.3838
12135SOL    HW147624   5.255   0.536   6.356 -0.2852 -1.1890 -0.8362
12135SOL    HW247625   5.148   0.570   6.238 -1.2330 -1.9428 -0.2037
12136SOL     OW47626   4.507   5.991   8.087 -0.1391 -0.4661 -0.0926
12136SOL    HW147627   4.489   6.084   8.057 -0.2640  0.7684  3.5650
12136SOL    HW247628   4.603   5.968   8.072 -0.0469  0.3269 -0.7375
12137SOL     OW47629   4.264   7.786   1.731  0.2468  0.0793  0.9362
12137SOL    HW147630   4.308   7.698   1.743 -1.4087 -0.7662  0.9662
12137SOL    HW247631   4.165   7.776   1.744  0.1348  2.1006  1.8745
12138SOL     OW47632   6.053   9.437   5.182  0.2692 -0.3576 -0.1573
12138SOL    HW147633   6.062   9.442   5.282  0.2666 -0.0592 -0.1694
12138SOL    HW247634   6.108   9.509   5.140 -0.4432  0.1045 -0.3265
12139SOL     OW47635   1.439   1.742   2.067 -0.0304 -0.7221 -0.4896
12139SOL    HW147636   1.434   1.758   1.969  0.5342  0.9220 -0.2593
12139SOL    HW247637   1.531   1.766   2.101 -0.5782 -0.1328  0.6253
12140SOL     OW47638   9.375   5.154   3.916  0.1043  0.8702 -0.0954
12140SOL    HW147639   9.379   5.244   3.872  1.5871  1.1451  0.5801
12140SOL    HW247640   9.437   5.152   3.994 -0.2542 -0.6007  0.1662
12141SOL     OW47641   2.785   1.744   1.941  0.0038 -0.5027 -0.1372
12141SOL    HW147642   2.768   1.645   1.933 -0.6245 -0.3525 -0.6578
12141SOL    HW247643   2.843   1.774   1.866 -0.3769 -0.3430 -0.3649
12142SOL     OW47644   6.759   0.092   6.445 -0.5643 -0.0144 -0.3826
12142SOL    HW147645   6.729   0.101   6.540  2.7468  2.7045  0.4784
12142SOL    HW247646   6.810   0.006   6.434  2.9786  1.7286  1.5118
12143SOL     OW47647   0.007   2.675   5.563 -0.4023 -0.3214 -0.0768
12143SOL    HW147648  -0.003   2.589   5.614 -0.1319 -1.1636 -1.4242
12143SOL    HW247649  -0.017   2.660   5.467  0.2008  0.9771 -0.4392
12144SOL     OW47650   9.481   2.556   1.962 -0.7773 -0.1938 -0.2367
12144SOL    HW147651   9.579   2.574   1.958 -0.2247 -2.3199  2.3911
12144SOL    HW247652   9.462   2.465   1.926 -1.4887 -0.6971  1.3824
12145SOL     OW47653   1.006   6.561   1.706  0.5975  0.2940 -0.5074
12145SOL    HW147654   1.034   6.475   1.664  2.9511  1.3100 -1.0736
12145SOL    HW247655   0.971   6.544   1.798 -0.6271 -1.4474 -1.2587
12146SOL     OW47656   7.727   3.585   3.302  0.0773  0.5886  0.1587
12146SOL    HW147657   7.684   3.533   3.375  0.2728 -0.5491 -0.5257
12146SOL    HW247658   7.717   3.536   3.216  1.4399  1.0253 -0.2640
12147SOL     OW47659   0.134   0.008   1.181  0.0075 -0.0013 -0.5965
12147SOL    HW147660   0.062  -0.060   1.183  0.4148 -0.4432 -0.8091
12147SOL    HW247661   0.099   0.093   1.140 -1.0664  0.5894  1.5026
12148SOL     OW47662   3.326   9.941   4.147  0.0067 -0.3417 -0.0152
12148SOL    HW147663   3.381   9.958   4.229 -1.0041 -0.8360  0.7781
12148SOL    HW247664   3.349  10.009   4.077  1.0485 -0.0588  0.5860
12149SOL     OW47665   3.485   0.874   1.451  0.4584  0.2794 -0.2054
12149SOL    HW147666   3.578   0.845   1.475  0.6745 -0.8881 -2.3091
12149SOL    HW247667   3.482   0.974   1.445  1.8496  0.2832 -1.0920
12150SOL     OW47668   4.370   9.233   5.989  0.1196 -0.0486 -0.3675
12150SOL    HW147669   4.395   9.186   6.074  1.4136  1.8802  0.3673
12150SOL    HW247670   4.276   9.209   5.964  0.1375 -1.6042  0.9300
12151SOL     OW47671   2.924   9.813   2.270 -0.1241  0.5142  0.3598
12151SOL    HW147672   3.016   9.840   2.240  0.0084 -0.8498 -0.4895
12151SOL    HW247673   2.932   9.750   2.348 -0.3439  0.6246  0.4704
12152SOL     OW47674   2.983   4.454   0.445 -0.0172 -0.2862 -0.0038
12152SOL    HW147675   3.062   4.515   0.453 -0.4979  0.3238  0.1497
12152SOL    HW247676   3.007   4.364   0.480  0.4445  0.0493  0.5556
12153SOL     OW47677   8.641   8.164   4.887 -0.3877 -0.1334 -0.0352
12153SOL    HW147678   8.692   8.176   4.802 -1.2883  1.5739 -0.3487
12153SOL    HW247679   8.700   8.184   4.965 -0.0044 -0.2052 -0.3032
12154SOL     OW47680   8.784   8.651   0.212 -0.0325  0.1809  0.2053
12154SOL    HW147681   8.874   8.610   0.196  0.1853 -0.0770  1.9587
12154SOL    HW247682   8.715   8.579   0.212 -0.3804  0.4775 -1.9793
12155SOL     OW47683   9.304   2.269   5.044  0.2918 -0.0594 -0.1065
12155SOL    HW147684   9.341   2.198   4.984  0.4737  0.4621 -0.6131
12155SOL    HW247685   9.349   2.265   5.133 -0.5349 -1.3517  0.2704
12156SOL     OW47686   6.232   0.220   2.937  0.4374  0.1445 -0.0186
12156SOL    HW147687   6.298   0.147   2.956  1.3776  1.0877  0.4528
12156SOL    HW247688   6.167   0.227   3.013 -1.3119 -1.9572 -1.3049
12157SOL     OW47689   2.139   3.441   5.048  0.2364 -0.0364  0.0827
12157SOL    HW147690   2.097   3.490   5.125 -1.6058 -0.9929 -0.2866
12157SOL    HW247691   2.122   3.492   4.964  1.7529  0.7115  0.2215
12158SOL     OW47692   4.339   0.013   0.492  0.0340  0.8745 -0.1821
12158SOL    HW147693   4.315   0.091   0.551 -0.0613  1.3111 -0.7884
12158SOL    HW247694   4.425   0.032   0.445  1.0135 -0.2231  1.1461
12159SOL     OW47695   2.106   3.277   1.805 -0.3776 -0.2134  0.1095
12159SOL    HW147696   2.172   3.206   1.831 -1.1501 -0.9929 -0.0417
12159SOL    HW247697   2.023   3.267   1.859 -0.5672  0.4565 -0.0516
12160SOL     OW47698   3.541   2.249   2.536 -0.1800 -0.0019 -0.6417
12160SOL    HW147699   3.595   2.247   2.452  1.8477 -0.7593  0.6400
12160SOL    HW247700   3.525   2.344   2.563  0.9712  0.2307 -0.7540
12161SOL     OW47701   8.707   6.599   0.685 -0.5555 -0.0125  0.1346
12161SOL    HW147702   8.771   6.644   0.622 -0.1467 -0.6186  0.1050
12161SOL    HW247703   8.640   6.547   0.633  0.1175 -0.9675  0.1905
12162SOL     OW47704   6.975   4.916   1.984 -0.1510  0.0456 -0.1601
12162SOL    HW147705   6.923   4.993   2.020  0.2616 -0.4155  1.4533
12162SOL    HW247706   7.018   4.866   2.059 -0.4001 -1.7603 -1.1835
12163SOL     OW47707   4.745   2.572   3.819  0.0253 -0.0344  0.1891
12163SOL    HW147708   4.669   2.627   3.784  0.2252  1.0436  1.4344
12163SOL    HW247709   4.734   2.477   3.787 -0.9738  0.4459 -0.9505
12164SOL     OW47710   1.792   3.496   4.642  0.4167 -0.0260 -0.5667
12164SOL    HW147711   1.879   3.460   4.611  0.6625  0.3352 -0.2982
12164SOL    HW247712   1.727   3.421   4.656  0.8351 -0.3342 -0.2877
12165SOL     OW47713   6.003   7.397   5.866 -0.2527 -0.0358 -0.7649
12165SOL    HW147714   5.953   7.311   5.851  3.2453 -2.3209 -0.0763
12165SOL    HW247715   6.098   7.386   5.835  1.6401  1.8968  3.8152
12166SOL     OW47716   1.952   3.737   3.092  0.7565  0.0900 -0.0916
12166SOL    HW147717   1.918   3.692   3.174  0.9808  1.8596  0.9926
12166SOL    HW247718   1.914   3.692   3.011 -1.4838 -0.0795  1.0277
12167SOL     OW47719   0.944   8.015   5.806 -0.6454  0.6417  0.1072
12167SOL    HW147720   0.942   8.111   5.779 -0.0469  0.1561 -1.8000
12167SOL    HW247721   0.883   7.963   5.746 -1.0562 -0.1603  1.2000
12168SOL     OW47722   2.141   1.824   8.162 -0.9067  0.1788  0.2589
12168SOL    HW147723   2.237   1.809   8.185 -1.1053 -0.8430  0.4414
12168SOL    HW247724   2.115   1.917   8.187  0.1778  0.6410 -0.2895
12169SOL     OW47725   3.050   1.032   4.341 -0.0631 -0.9601  0.0983
12169SOL    HW147726   3.070   0.944   4.297 -0.7449 -0.3675 -1.3959
12169SOL    HW247727   3.031   1.101   4.272  3.3760  1.1227  1.1324
12170SOL     OW47728   1.558   2.898   5.175  0.3640 -0.5505  0.5000
12170SOL    HW147729   1.619   2.859   5.244 -0.2251 -2.3943  0.0052
12170SOL    HW247730   1.569   2.847   5.090 -1.7334 -0.7796  0.3588
12171SOL     OW47731   9.457   1.051   1.657 -0.1656 -0.3224  0.2747
12171SOL    HW147732   9.381   1.085   1.713  2.2700  0.5799  3.0952
12171SOL    HW247733   9.441   1.077   1.561 -3.1236  0.3065  0.8745
12172SOL     OW47734   2.146   8.341   2.742 -0.1189  0.6171 -0.0049
12172SOL    HW147735   2.164   8.354   2.840  0.1948  0.3010 -0.0216
12172SOL    HW247736   2.215   8.390   2.689 -0.0988  0.5187 -0.0692
12173SOL     OW47737   7.969   1.026   4.907 -0.9356 -0.0151 -0.1571
12173SOL    HW147738   8.014   0.983   4.828  1.2561  0.0567  0.9966
12173SOL    HW247739   7.989   1.124   4.907  0.9319 -0.3478  1.6269
12174SOL     OW47740   2.671   2.085   2.016 -0.0538  0.1556 -0.6515
12174SOL    HW147741   2.764   2.115   2.035 -0.3911  0.4199  0.6370
12174SOL    HW247742   2.629   2.149   1.951 -0.4845  2.0680  1.4341
12175SOL     OW47743   0.306   8.280   5.791 -0.6421  0.6175  0.0398
12175SOL    HW147744   0.296   8.298   5.889 -0.3758 -1.4097  0.4691
12175SOL    HW247745   0.335   8.185   5.778  2.8621  1.8355 -1.8399
12176SOL     OW47746   8.688   4.396   4.750  0.4285 -0.6360  0.0519
12176SOL    HW147747   8.764   4.331   4.744  0.7978 -0.0493 -1.9981
12176SOL    HW247748   8.603   4.350   4.725  0.2670 -0.9870  1.1979
12177SOL     OW47749   3.988   7.688   1.840  0.0627  0.6244 -0.1454
12177SOL    HW147750   4.034   7.600   1.825 -0.0291  0.3142  1.2642
12177SOL    HW247751   3.910   7.696   1.779  0.8949  0.3414 -1.2612
12178SOL     OW47752   8.620   2.058   0.508 -0.2095 -0.4437 -0.3236
12178SOL    HW147753   8.584   2.010   0.429  0.4951 -0.2800 -0.7501
12178SOL    HW247754   8.682   2.130   0.478 -0.8200  0.3642  0.3324
12179SOL     OW47755   4.396   1.470   4.878 -0.5700 -0.3804 -0.4910
12179SOL    HW147756   4.379   1.388   4.824 -1.5153  0.8428 -2.1158
12179SOL    HW247757   4.487   1.505   4.856 -0.3883 -0.6895 -0.2235
12180SOL     OW47758   9.923   9.375   0.259 -0.4125 -0.1000 -0.2753
12180SOL    HW147759   9.990   9.332   0.198 -0.2318  1.6958 -1.3662
12180SOL    HW247760   9.968   9.443   0.316 -1.2310  0.9041 -0.8036
12181SOL     OW47761   2.546   2.466   4.386  0.3534 -0.5107 -0.0167
12181SOL    HW147762   2.559   2.474   4.287 -0.3134 -0.7784 -0.1315
12181SOL    HW247763   2.570   2.552   4.430  1.3732 -0.6256 -0.3318
12182SOL     OW47764   5.519   8.659   3.154 -0.2447  0.0375 -0.2410
12182SOL    HW147765   5.568   8.618   3.231 -0.7527  0.0247  0.0829
12182SOL    HW247766   5.581   8.714   3.100 -0.2965  1.6759  1.3195
12183SOL     OW47767   4.059   0.367   0.647 -0.1237 -0.1708  0.3067
12183SOL    HW147768   4.066   0.466   0.631 -0.1239  0.0072  1.3434
12183SOL    HW247769   4.016   0.323   0.568  0.1698  0.6158 -0.2964
12184SOL     OW47770   3.990   0.820   3.816  0.2293 -0.1802  0.2464
12184SOL    HW147771   3.973   0.776   3.904 -1.2964 -1.2160 -0.5552
12184SOL    HW247772   4.001   0.919   3.830  1.3897 -0.5050  1.7547
12185SOL     OW47773   7.575   1.008   2.739  0.4339  0.5774 -0.2997
12185SOL    HW147774   7.642   0.973   2.804  1.1491 -0.2045 -1.4282
12185SOL    HW247775   7.483   0.998   2.776  0.6987 -1.4984 -0.1504
12186SOL     OW47776   9.925   0.948   1.674 -0.4881 -0.1420 -0.4498
12186SOL    HW147777   9.961   0.861   1.641  0.5330  0.0272  0.1998
12186SOL    HW247778   9.920   0.947   1.774 -2.0753 -0.0726 -0.5115
12187SOL     OW47779   7.699   3.126   4.310 -0.0982 -0.1833 -0.3805
12187SOL    HW147780   7.625   3.063   4.332 -0.6942  0.1246 -1.4576
12187SOL    HW247781   7.778   3.074   4.277 -0.5931 -0.3599 -1.2830
12188SOL     OW47782   7.269   5.034   1.708 -0.4484 -0.1193 -0.1960
12188SOL    HW147783   7.225   5.120   1.735 -1.1130 -0.8427  1.0945
12188SOL    HW247784   7.206   4.981   1.651 -1.1313 -0.9466  1.2681
12189SOL     OW47785   0.088   2.394   1.047 -0.1826  0.4751 -0.0528
12189SOL    HW147786   0.082   2.296   1.025 -0.0735  0.0794  1.5560
12189SOL    HW247787  -0.003   2.428   1.069 -0.0374  0.3795  0.7367
12190SOL     OW47788   8.932   3.206   3.320 -0.0233  0.2043 -0.2485
12190SOL    HW147789   8.936   3.107   3.302  3.2897  0.5870 -1.9917
12190SOL    HW247790   8.910   3.255   3.236 -1.6890  0.9832  0.6206
12191SOL     OW47791   4.856   1.389   4.949 -0.0141  0.4090  0.3777
12191SOL    HW147792   4.785   1.377   5.018 -1.2719 -0.3132 -1.0129
12191SOL    HW247793   4.918   1.310   4.950 -0.9826 -0.3662 -0.3956
12192SOL     OW47794   1.801   3.518   2.353  0.0844 -0.6572 -0.2343
12192SOL    HW147795   1.865   3.501   2.277  1.1641 -1.4150  0.8179
12192SOL    HW247796   1.811   3.612   2.384  2.2903 -1.3609  1.3330
12193SOL     OW47797   5.735   5.999   1.403 -0.3612  0.2274  0.4080
12193SOL    HW147798   5.676   6.059   1.349  0.8602  1.7049  0.6729
12193SOL    HW247799   5.819   5.981   1.352 -0.9729 -1.7897  0.0714
12194SOL     OW47800   8.875   8.726   6.281 -0.0306  0.4783 -0.2276
12194SOL    HW147801   8.869   8.817   6.322 -0.9306  0.5470 -0.5012
12194SOL    HW247802   8.841   8.729   6.187 -1.5267 -0.4635  0.2781
12195SOL     OW47803   0.088   7.854   4.635  0.0817 -0.5024  0.5894
12195SOL    HW147804  -0.012   7.862   4.639  0.0291  0.6210 -1.6025
12195SOL    HW247805   0.113   7.766   4.594 -0.0173 -0.5939  0.7262
12196SOL     OW47806   9.956   7.169   3.772 -0.3188  0.4388 -0.0692
12196SOL    HW147807   9.946   7.265   3.747 -1.2206 -0.0647 -1.6653
12196SOL    HW247808   9.973   7.162   3.871  1.8440  2.3463 -0.2633
12197SOL     OW47809   1.233   1.044   2.892 -0.1010 -0.1246 -0.2200
12197SOL    HW147810   1.201   1.059   2.985  2.3421  0.8740  0.5168
12197SOL    HW247811   1.175   0.977   2.847 -0.1654 -2.1059  2.6870
12198SOL     OW47812   9.842   7.119   0.423 -0.2676 -0.2284  0.3571
12198SOL    HW147813   9.921   7.126   0.363 -1.3631  0.4738 -1.0081
12198SOL    HW247814   9.785   7.042   0.394 -1.4462  0.8761 -0.2735
12199SOL     OW47815   8.366   0.477   1.486 -0.2327 -0.4190 -0.0006
12199SOL    HW147816   8.339   0.546   1.553  0.8472  0.7557 -0.7538
12199SOL    HW247817   8.381   0.520   1.398  4.8402 -0.7633  0.5173
12200SOL     OW47818   9.657   9.400   2.134  0.0488  1.0561  0.1586
12200SOL    HW147819   9.625   9.375   2.043  0.9096 -1.4245  0.4993
12200SOL    HW247820   9.593   9.465   2.176 -0.9131  1.3780 -1.7682
12201SOL     OW47821   7.157   2.789   1.950  0.1225 -0.2050 -0.0949
12201SOL    HW147822   7.178   2.877   1.907  0.3595 -0.6497 -0.9015
12201SOL    HW247823   7.140   2.721   1.879 -1.8116 -0.3994  0.5473
12202SOL     OW47824   9.229   1.615   4.336 -0.4238 -0.0087 -0.5716
12202SOL    HW147825   9.305   1.550   4.340  0.2770  0.8297 -0.1093
12202SOL    HW247826   9.187   1.623   4.426 -0.2521  0.4799 -0.5324
12203SOL     OW47827   1.753   0.395   5.167 -0.7077 -0.0680  0.3361
12203SOL    HW147828   1.823   0.466   5.177  0.5104 -1.3840  1.4683
12203SOL    HW247829   1.681   0.410   5.235  1.1446 -1.6723  2.7814
12204SOL     OW47830   8.540   9.360   4.667  0.5921  0.7366 -0.5730
12204SOL    HW147831   8.616   9.420   4.644  0.4364  0.5450 -1.6496
12204SOL    HW247832   8.455   9.401   4.634  0.2857  0.7433  0.2327
12205SOL     OW47833   0.083   4.103   2.687  0.0998 -0.0631 -0.3035
12205SOL    HW147834   0.122   4.191   2.658  2.2636 -0.7645  0.3668
12205SOL    HW247835   0.039   4.115   2.776  2.0337 -0.0504  0.6679
12206SOL     OW47836   5.170   2.113   5.412 -0.4018 -0.2241  0.6015
12206SOL    HW147837   5.152   2.162   5.497  0.9316 -0.2261  0.8886
12206SOL    HW247838   5.215   2.173   5.346  1.5515 -1.1170  1.0762
12207SOL     OW47839   8.221   7.766   1.730  0.4716  0.0745 -0.2403
12207SOL    HW147840   8.192   7.714   1.649  0.2599  0.8743 -0.6820
12207SOL    HW247841   8.192   7.717   1.812 -1.2705  0.3484 -0.6652
12208SOL     OW47842   5.807   8.657   5.467  0.4301  0.8588  0.5194
12208SOL    HW147843   5.769   8.730   5.410 -1.6687  0.0192  0.8169
12208SOL    HW247844   5.895   8.687   5.505 -0.4144  3.2443  0.6769
12209SOL     OW47845   3.970   2.328   2.127  0.0720  0.0469 -0.1654
12209SOL    HW147846   4.036   2.332   2.051 -1.2507  0.9429 -1.2859
12209SOL    HW247847   3.883   2.292   2.094  0.1874 -1.8023  1.4699
12210SOL     OW47848   9.300   1.835   5.879 -0.8657 -0.0130  0.2327
12210SOL    HW147849   9.355   1.830   5.961 -1.1043 -0.7702  0.3522
12210SOL    HW247850   9.203   1.833   5.904 -0.9386 -0.1072 -0.0545
12211SOL     OW47851   9.035   6.315   3.726 -0.3328  0.0888 -0.4074
12211SOL    HW147852   8.954   6.326   3.784 -0.0539 -1.0559  0.2147
12211SOL    HW247853   9.008   6.275   3.639 -0.2511 -1.6222  0.3401
12212SOL     OW47854   9.249   1.412   2.027 -0.4004  0.0225 -0.0087
12212SOL    HW147855   9.158   1.439   1.994 -0.9761 -1.3227  0.4720
12212SOL    HW247856   9.263   1.315   2.010  1.1119  0.2998 -0.4238
12213SOL     OW47857   0.499   2.533   2.489 -0.1640  0.1942 -0.3417
12213SOL    HW147858   0.548   2.464   2.543 -1.4153 -0.1097  0.4506
12213SOL    HW247859   0.493   2.618   2.541  1.2674  0.8604 -1.2670
12214SOL     OW47860   1.291   1.936   0.300  0.3600  0.0536 -0.0193
12214SOL    HW147861   1.236   1.857   0.272  2.0136 -0.8569 -0.7565
12214SOL    HW247862   1.241   2.020   0.281  0.4413 -0.6226 -3.5266
12215SOL     OW47863   2.341   9.422   2.021  0.3708 -0.5356  0.0267
12215SOL    HW147864   2.314   9.478   2.100 -1.8154 -0.1717 -0.9523
12215SOL    HW247865   2.301   9.460   1.938  0.2161 -2.6010 -0.8661
12216SOL     OW47866   1.927   5.531   5.132  0.1974 -0.5010 -0.0019
12216SOL    HW147867   1.857   5.511   5.064  2.0219 -2.7161 -1.2926
12216SOL    HW247868   1.998   5.461   5.130  3.2046  2.3606  0.2722
12217SOL     OW47869   1.540   2.506   2.828  0.0066 -0.0557 -0.5017
12217SOL    HW147870   1.604   2.483   2.754 -1.5951 -1.6672 -1.4354
12217SOL    HW247871   1.460   2.446   2.822 -0.3087  0.0326  2.3549
12218SOL     OW47872   1.461   8.798   1.887 -0.0239  0.4268  0.4451
12218SOL    HW147873   1.528   8.784   1.959  0.6809  1.3982 -0.0108
12218SOL    HW247874   1.396   8.722   1.886 -0.4662  0.7459  2.5624
12219SOL     OW47875   6.880   1.714   5.734  0.5523 -0.5256  0.4903
12219SOL    HW147876   6.959   1.657   5.711 -0.0861 -0.9440 -0.7155
12219SOL    HW247877   6.908   1.810   5.740  1.0685 -0.6127 -0.4118
12220SOL     OW47878   1.702   3.643   1.412 -0.5170 -0.5336 -0.4638
12220SOL    HW147879   1.766   3.622   1.486  1.5090 -0.4916 -2.1583
12220SOL    HW247880   1.629   3.700   1.447 -0.2230 -1.4724  1.7715
12221SOL     OW47881   8.736   9.524   4.978  0.2397  0.1205  0.0912
12221SOL    HW147882   8.747   9.592   4.905 -0.8753 -1.0413 -1.1722
12221SOL    HW247883   8.646   9.482   4.972  0.0921  0.0585  2.2021
12222SOL     OW47884   7.398   4.417   0.415  0.0184  0.0107 -0.3673
12222SOL    HW147885   7.421   4.320   0.409  3.2462  0.7631 -1.2534
12222SOL    HW247886   7.388   4.454   0.322  2.0957  1.1880 -0.1679
12223SOL     OW47887   0.425   1.337   5.401 -0.3389 -0.2565 -0.0428
12223SOL    HW147888   0.333   1.360   5.431 -0.5853 -1.2485  0.0020
12223SOL    HW247889   0.492   1.370   5.467 -0.6298  0.9039 -0.3265
12224SOL     OW47890   8.875   7.086   5.099  0.3046 -0.3294  0.8476
12224SOL    HW147891   8.868   7.112   5.195 -0.8578 -1.5687  1.1203
12224SOL    HW247892   8.943   7.014   5.089  2.0084  1.2944  0.3987
12225SOL     OW47893   4.916   8.610   4.214  0.4359  0.3221  0.4464
12225SOL    HW147894   4.892   8.513   4.215 -0.0806  0.4486  1.2105
12225SOL    HW247895   4.904   8.648   4.306 -1.9531  1.7556 -0.4279
12226SOL     OW47896   6.602   2.995   3.915  0.8737  0.1091  0.5759
12226SOL    HW147897   6.578   2.909   3.961  1.9657 -0.5430 -0.0352
12226SOL    HW247898   6.567   2.994   3.821 -0.4120  0.9738  1.0447
12227SOL     OW47899   4.350   4.532   7.850  0.0587  0.5333  0.9608
12227SOL    HW147900   4.370   4.598   7.777  2.5941  0.1514  1.2475
12227SOL    HW247901   4.368   4.575   7.939 -0.4583  0.1627  1.2433
12228SOL     OW47902   3.747   0.139   3.707 -0.8986  0.2442 -0.7967
12228SOL    HW147903   3.702   0.050   3.718 -0.8399  0.2650 -0.3858
12228SOL    HW247904   3.706   0.205   3.770 -1.1340  0.5817 -1.3001
12229SOL     OW47905   4.668   9.767   1.473 -0.2406 -0.1485  0.2169
12229SOL    HW147906   4.617   9.681   1.466 -1.1380  0.4748 -1.2095
12229SOL    HW247907   4.605   9.842   1.494  0.1793  0.4991 -0.7572
12230SOL     OW47908   0.026   9.167   3.063  0.0306  0.3082  0.0154
12230SOL    HW147909  -0.037   9.202   2.992 -0.2792  2.4087  1.2741
12230SOL    HW247910  -0.022   9.100   3.119 -0.9893  1.6115  0.7256
12231SOL     OW47911   5.454   0.617   4.435 -0.2021 -0.1359 -1.0260
12231SOL    HW147912   5.517   0.542   4.415  0.0361 -0.2670  0.1450
12231SOL    HW247913   5.499   0.684   4.494 -0.5163  0.7792 -1.8179
12232SOL     OW47914   3.954   3.772   0.462  0.0680  0.6876 -0.0467
12232SOL    HW147915   3.953   3.672   0.460 -0.0484  0.6980 -0.9207
12232SOL    HW247916   4.005   3.806   0.383  1.5929  1.2922  1.1767
12233SOL     OW47917   1.214   5.299   0.333 -0.4349  0.2002  0.2553
12233SOL    HW147918   1.115   5.288   0.321 -0.3357  0.7885 -1.2455
12233SOL    HW247919   1.257   5.209   0.339 -1.0067 -0.0635  0.3933
12234SOL     OW47920   8.673   0.842   4.661  0.4175 -0.0204 -0.2565
12234SOL    HW147921   8.691   0.744   4.670 -0.5246 -0.2869 -1.0927
12234SOL    HW247922   8.621   0.858   4.577  2.3894  1.4587 -1.2263
12235SOL     OW47923   0.822   3.958   4.066  0.1192 -0.1410  0.0301
12235SOL    HW147924   0.794   4.034   4.008 -1.3002 -0.7006 -0.0566
12235SOL    HW247925   0.899   3.910   4.024  0.8235  1.0509 -0.0597
12236SOL     OW47926   4.114   5.074   2.177  0.7284  0.0172  0.3920
12236SOL    HW147927   4.039   5.106   2.119 -0.0953 -0.0475  1.4102
12236SOL    HW247928   4.125   5.137   2.254  1.0220 -0.5507  0.8145
12237SOL     OW47929   9.419   5.330   3.302  0.3968 -0.4582  0.4515
12237SOL    HW147930   9.427   5.309   3.204 -2.2469  0.1605  0.0748
12237SOL    HW247931   9.366   5.413   3.314 -0.9230 -1.5534  2.4974
12238SOL     OW47932   3.006   8.894   5.681 -0.0121  0.2719 -0.3035
12238SOL    HW147933   3.075   8.842   5.630  1.4641  0.6945  1.2354
12238SOL    HW247934   2.974   8.840   5.759 -2.4837 -0.4941 -1.7666
12239SOL     OW47935   7.127   3.505   2.318  0.0139 -0.1728 -0.1228
12239SOL    HW147936   7.071   3.550   2.387 -1.8993 -1.2362 -0.9237
12239SOL    HW247937   7.112   3.548   2.229 -0.8553 -1.5296 -0.6560
12240SOL     OW47938   1.638   3.765   1.964  0.6571  0.3735  0.5457
12240SOL    HW147939   1.621   3.798   1.871  0.5998  0.3451  0.5459
12240SOL    HW247940   1.571   3.805   2.026  0.7771  0.4945  0.5966
12241SOL     OW47941   7.250   7.671   3.449 -0.4375  0.7762 -0.0403
12241SOL    HW147942   7.285   7.705   3.536  0.2878 -0.6242  0.2405
12241SOL    HW247943   7.150   7.664   3.454 -0.4051  0.7306  0.6864
12242SOL     OW47944   4.680   3.013   3.223 -0.2456  0.3079 -0.0932
12242SOL    HW147945   4.631   3.065   3.294  0.5684  0.0018  0.7034
12242SOL    HW247946   4.652   3.046   3.133 -0.5462  1.3862  0.3842
12243SOL     OW47947   2.369   7.391   0.881  0.2180 -0.6496  0.4350
12243SOL    HW147948   2.434   7.347   0.820 -0.8516 -0.9149 -0.5307
12243SOL    HW247949   2.282   7.403   0.833 -0.0794  0.7765  1.3112
12244SOL     OW47950   1.340   4.168   2.056  0.0457 -0.2944 -0.1734
12244SOL    HW147951   1.398   4.247   2.079 -1.9326  0.5614  2.1159
12244SOL    HW247952   1.397   4.086   2.048  1.9675  1.1060 -1.2443
12245SOL     OW47953   5.479   8.166   2.858 -0.1857  0.2975 -0.5507
12245SOL    HW147954   5.495   8.092   2.793  2.4526 -0.8245  1.2690
12245SOL    HW247955   5.456   8.128   2.947 -0.9189  1.7193 -0.1189
12246SOL     OW47956   1.136   2.750   4.805  0.5709  0.5528  0.2858
12246SOL    HW147957   1.159   2.713   4.895  0.2029  0.4345  0.3318
12246SOL    HW247958   1.199   2.825   4.783  0.4043  0.8492  0.8125
12247SOL     OW47959   9.636   2.688   1.187  0.0626  0.1958 -0.4533
12247SOL    HW147960   9.682   2.646   1.265  0.4155  0.3050 -0.6001
12247SOL    HW247961   9.667   2.783   1.176  0.0219  0.1793 -0.7285
12248SOL     OW47962   6.092   1.730   4.153  0.1579  0.1741  0.0128
12248SOL    HW147963   6.043   1.815   4.132 -0.1810 -0.2280 -0.8325
12248SOL    HW247964   6.032   1.670   4.206  0.1100  0.1275 -0.0933
12249SOL     OW47965   7.858   0.469   2.617 -0.1635  0.2718 -0.4102
12249SOL    HW147966   7.900   0.488   2.528  0.1704 -1.0809 -0.5472
12249SOL    HW247967   7.921   0.414   2.673 -1.0177 -0.2425  0.0567
12250SOL     OW47968   4.460   8.244   7.085 -0.3790  0.3703 -0.8168
12250SOL    HW147969   4.501   8.331   7.111  1.6496 -1.0508  0.7756
12250SOL    HW247970   4.457   8.238   6.985  1.8242  1.1725 -0.9562
12251SOL     OW47971   9.480   2.881   5.872 -0.0768 -0.1167 -0.4079
12251SOL    HW147972   9.548   2.844   5.934  1.0152  1.0862 -0.8603
12251SOL    HW247973   9.390   2.841   5.892  0.3395 -0.0431  1.6417
12252SOL     OW47974   8.836   7.208   5.344 -0.0141  0.3514 -0.1187
12252SOL    HW147975   8.832   7.173   5.438 -1.2450  0.5039 -0.1025
12252SOL    HW247976   8.878   7.299   5.344 -0.0753  0.3828  0.3059
12253SOL     OW47977   1.282   6.707   5.777  0.0728 -0.2799  0.1479
12253SOL    HW147978   1.223   6.642   5.824  0.2173  1.0760  2.2666
12253SOL    HW247979   1.290   6.790   5.832  0.7957  1.0909 -1.9757
12254SOL     OW47980   8.757   2.261   6.665 -0.9811 -0.1350  0.4306
12254SOL    HW147981   8.722   2.254   6.758 -1.2596  0.2071  0.3525
12254SOL    HW247982   8.836   2.200   6.655 -1.2425 -0.5354  0.7498
12255SOL     OW47983   8.340   4.860   2.853  0.4998 -0.2840 -0.0821
12255SOL    HW147984   8.268   4.927   2.835  0.8287  1.1726  3.5867
12255SOL    HW247985   8.298   4.772   2.876 -0.0769  0.0862  0.3004
12256SOL     OW47986   0.211   1.465   1.050 -0.1946  0.6412  0.3374
12256SOL    HW147987   0.218   1.561   1.073  3.4585  0.5645 -0.0558
12256SOL    HW247988   0.229   1.409   1.131 -1.2991  0.3016  0.3489
12257SOL     OW47989   1.900   9.331   6.221 -0.0136 -0.5691 -0.3647
12257SOL    HW147990   1.992   9.362   6.243 -0.4728 -0.5167  1.6319
12257SOL    HW247991   1.905   9.242   6.175  0.9737 -1.3995  1.3023
12258SOL     OW47992   1.942   8.533   5.656 -0.2533  0.2504 -0.5916
12258SOL    HW147993   1.928   8.450   5.710 -2.4895  1.0660  0.1300
12258SOL    HW247994   1.920   8.613   5.711  2.1499  1.3801 -1.1902
12259SOL     OW47995   9.213   5.394   0.510 -0.3348  0.5806  0.2864
12259SOL    HW147996   9.216   5.433   0.418  0.1234 -0.1752 -0.0173
12259SOL    HW247997   9.286   5.433   0.565  0.7712 -0.5848 -0.3179
12260SOL     OW47998   0.420   4.393   3.576 -0.0040 -0.2015  0.2557
12260SOL    HW147999   0.480   4.316   3.598 -0.2613  0.0262  1.8143
12260SOL    HW248000   0.359   4.367   3.502  2.1347 -0.3706 -1.5275
12261SOL     OW48001   8.293   8.022   1.629 -0.1275 -0.5180  0.1305
12261SOL    HW148002   8.241   7.937   1.644 -0.0196 -0.5067  0.5713
12261SOL    HW248003   8.335   8.050   1.715 -0.4463  0.1745  0.0614
12262SOL     OW48004   4.670   2.392   4.892  0.6096  0.0190  0.7413
12262SOL    HW148005   4.685   2.345   4.806 -2.7805  0.8628 -0.3775
12262SOL    HW248006   4.624   2.330   4.957 -0.5691  0.6379  0.5091
12263SOL     OW48007   6.074   8.115   6.692 -0.0094  0.1343 -0.1842
12263SOL    HW148008   5.998   8.136   6.631 -0.7844  0.0321  0.7280
12263SOL    HW248009   6.145   8.186   6.683 -0.5572  0.6527 -0.4710
12264SOL     OW48010   8.308   9.878   4.831 -0.1253 -0.2225 -0.0529
12264SOL    HW148011   8.385   9.816   4.844  0.7221 -0.0623 -3.7980
12264SOL    HW248012   8.339   9.960   4.782 -2.4956  0.2601 -0.8059
12265SOL     OW48013   4.216   8.989   0.811 -0.4562  0.0890  0.3892
12265SOL    HW148014   4.308   8.994   0.850 -0.2090 -0.9493 -0.0475
12265SOL    HW248015   4.221   8.952   0.718 -1.0959  2.0195 -0.4508
12266SOL     OW48016   4.822   8.047   5.052 -0.4494 -0.5992  0.7180
12266SOL    HW148017   4.904   7.990   5.050  0.5445  0.8652 -0.5761
12266SOL    HW248018   4.813   8.089   5.143 -0.6409 -2.0037  1.3578
12267SOL     OW48019   3.293   7.709   4.215  0.4509  0.0265 -0.2893
12267SOL    HW148020   3.242   7.792   4.191 -1.2158 -1.2573 -1.3164
12267SOL    HW248021   3.231   7.643   4.257  1.7838 -0.6850  0.6022
12268SOL     OW48022   4.193   4.927   4.020  0.0592  0.1380 -0.1183
12268SOL    HW148023   4.235   4.904   4.107  1.5129  0.6380 -0.6828
12268SOL    HW248024   4.171   4.843   3.970  0.4425 -0.1144  0.1414
12269SOL     OW48025   2.410   5.623   2.665 -0.1820  0.2460 -0.4216
12269SOL    HW148026   2.343   5.621   2.591  0.7367  1.5718 -1.3093
12269SOL    HW248027   2.471   5.701   2.653  0.6737 -0.1541  1.1330
12270SOL     OW48028   0.572   2.266   3.714 -0.5218  0.4785 -0.0727
12270SOL    HW148029   0.532   2.185   3.754  1.9016 -0.3955  0.6954
12270SOL    HW248030   0.593   2.249   3.617  1.9715 -0.6009  0.6311
12271SOL     OW48031   1.656   8.683   4.818 -0.3845  0.0356  0.2357
12271SOL    HW148032   1.699   8.635   4.741 -1.0732  0.2787 -0.3009
12271SOL    HW248033   1.709   8.765   4.839 -0.0517 -0.1634  0.1875
12272SOL     OW48034   8.017   1.943   4.625 -0.0789 -0.7656 -0.0182
12272SOL    HW148035   8.031   1.946   4.724 -2.3278  3.2086  0.2925
12272SOL    HW248036   8.071   2.015   4.581  1.2190 -2.7510 -1.7673
12273SOL     OW48037   7.953   9.393   6.374 -0.3001  0.3553 -0.2788
12273SOL    HW148038   7.925   9.403   6.470 -1.2102  1.5699 -0.6527
12273SOL    HW248039   7.871   9.393   6.316 -0.0465 -4.1548 -0.7944
12274SOL     OW48040   8.874   5.385   4.265 -0.2789 -0.0107  0.5120
12274SOL    HW148041   8.952   5.357   4.321  0.2513  0.2704 -0.0822
12274SOL    HW248042   8.819   5.451   4.315  0.6730  0.9011  0.3738
12275SOL     OW48043   9.370   2.305   1.173 -0.2102  0.0354  0.3418
12275SOL    HW148044   9.419   2.335   1.255 -0.4244  0.8773  0.1602
12275SOL    HW248045   9.317   2.380   1.136  0.7174 -0.0424 -1.1873
12276SOL     OW48046   3.867   6.900   4.435  0.6416  0.5705  0.2959
12276SOL    HW148047   3.823   6.924   4.521  0.2883  0.3827  0.1655
12276SOL    HW248048   3.826   6.817   4.398 -0.7233  1.8660 -1.1645
12277SOL     OW48049   0.104   5.922   2.660  0.2775  0.0356 -0.7365
12277SOL    HW148050   0.067   5.829   2.655 -0.8633  0.5532 -2.6214
12277SOL    HW248051   0.032   5.985   2.688  1.0007  0.3802  0.3604
12278SOL     OW48052   6.081   8.258   3.542 -0.3031 -0.2212  0.0466
12278SOL    HW148053   6.025   8.211   3.610  0.0045 -0.4281  0.1558
12278SOL    HW248054   6.037   8.249   3.452 -2.5836  3.0706  0.7470
12279SOL     OW48055   0.396   0.909   1.422  0.5543  0.9230  0.0094
12279SOL    HW148056   0.304   0.925   1.459  2.0236  0.4594  4.1043
12279SOL    HW248057   0.399   0.820   1.376 -0.4468 -0.1803  2.0268
12280SOL     OW48058   2.556   2.610   4.896  0.3539 -0.0170 -0.2066
12280SOL    HW148059   2.592   2.635   4.986 -0.7549 -0.9710  0.5343
12280SOL    HW248060   2.522   2.691   4.849 -2.1447  0.1018  1.6640
12281SOL     OW48061   8.980   1.027   2.223  0.1416  0.2847 -0.5110
12281SOL    HW148062   8.958   0.930   2.213  1.5287 -0.4921  2.9499
12281SOL    HW248063   9.063   1.048   2.172 -0.1027 -0.3787 -1.1900
12282SOL     OW48064   5.426   1.557   0.114  0.3511 -0.0849  0.4021
12282SOL    HW148065   5.497   1.581   0.181 -0.8523  0.2654  1.5701
12282SOL    HW248066   5.432   1.459   0.093  2.0842  0.2121 -0.6020
12283SOL     OW48067   0.270   4.471   0.161  0.0526  0.5273 -0.5343
12283SOL    HW148068   0.278   4.383   0.115  0.5791  0.7675 -0.9078
12283SOL    HW248069   0.350   4.527   0.140  0.1184  0.7814  0.3711
12284SOL     OW48070   1.479   2.166   3.728  0.2674  0.1028  0.0412
12284SOL    HW148071   1.408   2.096   3.734 -0.2438  0.6487  0.4545
12284SOL    HW248072   1.482   2.203   3.635  0.1378 -0.0562 -0.0258
12285SOL     OW48073   3.393   9.528   4.307  0.1697 -0.2233 -0.1934
12285SOL    HW148074   3.456   9.450   4.310 -0.1647 -0.4736  0.2013
12285SOL    HW248075   3.328   9.522   4.382 -0.5951 -0.1788 -0.8508
12286SOL     OW48076   6.404   0.398   6.783  0.1328  0.0344 -0.3811
12286SOL    HW148077   6.440   0.484   6.746 -0.4664  0.8000  0.7995
12286SOL    HW248078   6.323   0.370   6.731 -0.6328  1.0389  0.2542
12287SOL     OW48079   3.282   7.710   4.996  0.3286 -0.0059  0.2458
12287SOL    HW148080   3.366   7.677   4.952 -0.6240 -1.2605 -0.6918
12287SOL    HW248081   3.303   7.743   5.088  1.6426 -1.5560  0.5269
12288SOL     OW48082   2.175   8.197   3.714  0.2369  0.0113 -0.0496
12288SOL    HW148083   2.208   8.210   3.808 -0.5070  0.5670  0.1355
12288SOL    HW248084   2.253   8.186   3.653  0.7250 -0.7158  0.6862
12289SOL     OW48085   8.403   3.176   0.456  0.3811  0.4569  0.2339
12289SOL    HW148086   8.319   3.132   0.488 -0.2826 -0.3123 -2.4640
12289SOL    HW248087   8.396   3.275   0.469 -1.3000  0.4753 -0.7389
12290SOL     OW48088   0.095   1.534   4.149  0.7289  0.1482 -0.3532
12290SOL    HW148089   0.174   1.477   4.128 -0.1250 -0.5133 -1.7980
12290SOL    HW248090   0.085   1.541   4.248  2.0493 -0.5128 -0.1557
12291SOL     OW48091   4.376   3.150   4.550  0.7341  0.1025 -0.2325
12291SOL    HW148092   4.320   3.068   4.548  1.7358 -0.6162  0.4365
12291SOL    HW248093   4.355   3.207   4.471 -2.6126  1.0185  1.2169
12292SOL     OW48094   5.368   8.012   3.050 -0.2754 -0.2995 -0.1812
12292SOL    HW148095   5.289   7.961   3.017 -0.4790  0.9682 -1.6833
12292SOL    HW248096   5.420   7.955   3.115 -1.0104 -2.0412 -1.0989
12293SOL     OW48097   1.115   5.698   0.557  0.9090 -0.0804  0.5442
12293SOL    HW148098   1.175   5.775   0.576  1.7595 -0.4312 -0.6956
12293SOL    HW248099   1.139   5.658   0.469 -1.7339  0.3244 -0.3800
12294SOL     OW48100   9.044   7.812   6.297  0.5672  0.0875 -0.2016
12294SOL    HW148101   9.010   7.788   6.206  0.5272 -0.2747 -0.0918
12294SOL    HW248102   9.071   7.908   6.298 -2.0932  0.8892  0.1741
12295SOL     OW48103   0.796   2.467   5.609  0.3872  0.2721  0.1837
12295SOL    HW148104   0.756   2.511   5.529 -1.2071 -0.3853  0.5983
12295SOL    HW248105   0.735   2.396   5.642  0.8978  0.7147  2.1557
12296SOL     OW48106   4.181   8.692   6.754  0.4012 -0.7325 -0.1026
12296SOL    HW148107   4.224   8.619   6.808 -0.4986 -1.6118 -0.5647
12296SOL    HW248108   4.208   8.781   6.791 -1.0319 -1.3222  2.4366
12297SOL     OW48109   6.645   2.666   5.641  0.5171 -0.4513  0.1963
12297SOL    HW148110   6.741   2.644   5.624  0.5951 -0.9537  1.2427
12297SOL    HW248111   6.627   2.760   5.614  0.9009 -0.8810 -1.5700
12298SOL     OW48112   6.774   8.764   3.771 -0.4153 -0.1953 -0.0623
12298SOL    HW148113   6.761   8.682   3.714  0.2133 -0.0595 -0.4123
12298SOL    HW248114   6.852   8.816   3.736 -0.6110  0.3818  0.3628
12299SOL     OW48115   4.186   9.346   3.521  0.7626  0.1953  0.0299
12299SOL    HW148116   4.123   9.345   3.598  0.2454  0.4709 -0.3860
12299SOL    HW248117   4.273   9.305   3.548  0.0117 -1.2452  0.2729
12300SOL     OW48118   9.747   3.630   0.454 -0.8348 -0.2377 -0.0087
12300SOL    HW148119   9.677   3.614   0.384  0.8671 -0.2973 -1.7466
12300SOL    HW248120   9.837   3.636   0.410  0.5516 -2.3849  2.4085
12301SOL     OW48121   0.242   5.540   0.748 -0.3250 -0.0156 -0.0478
12301SOL    HW148122   0.227   5.639   0.752  1.8911  0.4043 -0.8986
12301SOL    HW248123   0.186   5.494   0.817 -0.4245  1.9538  1.2205
12302SOL     OW48124   3.913   8.000   2.432  0.2302 -0.6579  0.5591
12302SOL    HW148125   3.904   7.914   2.481 -1.7849 -1.0734 -0.4956
12302SOL    HW248126   3.927   8.075   2.498 -2.5717 -1.1803  1.8352
12303SOL     OW48127   7.106   0.607   6.358 -0.5019  0.2675 -0.0785
12303SOL    HW148128   7.010   0.624   6.332 -1.0583 -0.0281  1.6846
12303SOL    HW248129   7.121   0.642   6.451  0.2026 -2.5876  0.9348
12304SOL     OW48130   6.731   8.616   5.079 -0.0222 -0.2503  0.3049
12304SOL    HW148131   6.634   8.632   5.094 -0.2108 -0.5966 -0.5283
12304SOL    HW248132   6.747   8.518   5.067  0.4402 -0.2006  0.5087
12305SOL     OW48133   2.816   9.176   3.008  0.4077  0.1057 -0.3519
12305SOL    HW148134   2.785   9.198   2.915 -0.0520  1.5141  0.1272
12305SOL    HW248135   2.737   9.153   3.064  0.4565  1.3860  0.2534
12306SOL     OW48136   7.910   2.963   0.955 -0.3402 -0.4581 -0.0081
12306SOL    HW148137   7.874   2.929   1.042 -1.5679 -0.2922 -0.4437
12306SOL    HW248138   7.905   3.063   0.954  1.2259 -0.3665  0.3933
12307SOL     OW48139   4.627   0.133   6.256  0.4840 -0.3082 -0.2312
12307SOL    HW148140   4.676   0.172   6.179 -0.8602  0.1171 -0.8952
12307SOL    HW248141   4.596   0.207   6.317 -1.1351 -0.3786 -0.9280
12308SOL     OW48142   9.677   0.784   4.030  0.5151 -0.0252  0.2456
12308SOL    HW148143   9.607   0.759   4.097  1.1431  1.3085  1.4218
12308SOL    HW248144   9.723   0.701   3.998  0.1613 -0.6873  1.4178
12309SOL     OW48145   6.571   9.038   5.200 -0.0889  0.2784  0.4112
12309SOL    HW148146   6.628   8.958   5.216 -1.1067 -0.5505 -0.0694
12309SOL    HW248147   6.570   9.095   5.283  0.8144 -0.0741  0.6713
12310SOL     OW48148   9.324   6.007   5.922  0.1668 -0.5758  0.2134
12310SOL    HW148149   9.270   5.943   5.867  0.2516 -1.4761  1.1760
12310SOL    HW248150   9.321   5.979   6.018 -1.3116  1.8846  0.9294
12311SOL     OW48151   8.005   3.283   5.185  0.1828 -0.3679  0.3525
12311SOL    HW148152   7.966   3.196   5.213 -1.5694  1.1466  2.8263
12311SOL    HW248153   8.030   3.336   5.267  0.6094  1.7073 -1.0837
12312SOL     OW48154   1.929   0.993   5.459  0.2096  0.6204  0.3131
12312SOL    HW148155   1.879   0.964   5.377 -1.3373  1.6079  0.8753
12312SOL    HW248156   2.000   0.925   5.481 -1.4151 -1.2575 -0.0623
12313SOL     OW48157   8.194   9.662   0.461 -0.5855 -0.0666 -0.2955
12313SOL    HW148158   8.106   9.643   0.504 -0.3846 -2.0014 -0.7080
12313SOL    HW248159   8.186   9.745   0.405 -1.5497  0.9800  1.3466
12314SOL     OW48160   6.144   8.548   4.069  0.2090  0.5854 -0.1193
12314SOL    HW148161   6.131   8.646   4.081  0.7387  0.6808 -0.3509
12314SOL    HW248162   6.203   8.513   4.142 -0.2697  0.3752  0.1716
12315SOL     OW48163   0.605   0.262   1.729 -0.3660 -0.6130  0.1805
12315SOL    HW148164   0.653   0.242   1.644 -0.4522 -1.3953  0.3155
12315SOL    HW248165   0.538   0.190   1.748 -2.4225  1.0494 -0.5999
12316SOL     OW48166   3.591   2.842   5.193  0.2217 -0.2604 -0.2363
12316SOL    HW148167   3.492   2.856   5.194  0.3617  1.4965 -3.0635
12316SOL    HW248168   3.617   2.799   5.107  2.3203  3.3731 -1.5650
12317SOL     OW48169   3.046   8.514   3.012  0.6253 -0.1586  0.2530
12317SOL    HW148170   3.016   8.500   2.918 -2.0647  0.5723  0.9632
12317SOL    HW248171   3.123   8.578   3.014  1.2184 -0.8083 -1.4945
12318SOL     OW48172   6.049   0.962   2.728  0.5162 -0.0385  0.1156
12318SOL    HW148173   6.014   0.989   2.638 -1.7525  0.6745  1.1763
12318SOL    HW248174   6.049   0.863   2.735  3.2245 -0.2063 -1.6140
12319SOL     OW48175   8.710   8.413   4.462 -0.3433 -0.3636 -0.0737
12319SOL    HW148176   8.646   8.412   4.385  0.0055  0.2403 -0.3745
12319SOL    HW248177   8.792   8.464   4.437 -0.1604 -0.2945  0.6466
12320SOL     OW48178   1.411   7.690   1.812 -0.2251 -0.6141  0.3868
12320SOL    HW148179   1.386   7.745   1.892 -0.3730 -0.9864  0.5968
12320SOL    HW248180   1.352   7.609   1.807 -0.5823 -0.3138 -0.4042
12321SOL     OW48181   1.654   5.015   5.214  0.0051  0.2780  0.6446
12321SOL    HW148182   1.688   5.017   5.120 -0.9946 -1.8274  0.2073
12321SOL    HW248183   1.731   5.013   5.277  0.6968  2.9380 -0.0704
12322SOL     OW48184   6.405   2.767   0.669  0.0204  0.0349  0.3709
12322SOL    HW148185   6.477   2.832   0.649  1.7317 -1.7066  0.7458
12322SOL    HW248186   6.316   2.807   0.646  0.9919  2.6089  0.9722
12323SOL     OW48187   6.838   9.657   4.243  0.3087  0.4661  0.0009
12323SOL    HW148188   6.928   9.666   4.286  0.1754  1.8426  0.0081
12323SOL    HW248189   6.848   9.660   4.144  0.4308 -0.9600 -0.0356
12324SOL     OW48190   4.015   6.772   3.654  0.0905  0.0415 -0.1344
12324SOL    HW148191   4.001   6.823   3.739  1.4837  1.0885 -0.5088
12324SOL    HW248192   4.113   6.758   3.640 -0.2871 -3.0272  0.1028
12325SOL     OW48193   0.779   6.082   0.987 -0.3632  0.4741  0.8365
12325SOL    HW148194   0.849   6.099   1.056 -2.3921  1.3669  2.7282
12325SOL    HW248195   0.735   5.994   1.006 -0.6022  0.5010  0.4112
12326SOL     OW48196   6.490   7.917   4.151  0.6195  0.0721  0.4132
12326SOL    HW148197   6.481   8.013   4.178 -0.1036 -0.3202  1.6029
12326SOL    HW248198   6.585   7.899   4.127  0.7202  1.1414 -0.0555
12327SOL     OW48199   1.407   9.448   3.140  0.1744 -0.2152 -0.5967
12327SOL    HW148200   1.424   9.437   3.042  2.2699  1.5946 -0.4751
12327SOL    HW248201   1.459   9.379   3.190  1.8842  1.0182 -0.6105
12328SOL     OW48202   1.239   2.801   0.618 -0.5286  0.0258  0.4852
12328SOL    HW148203   1.211   2.888   0.659 -0.4052  0.9867 -1.3814
12328SOL    HW248204   1.163   2.765   0.562  0.5375  0.6628 -1.4354
12329SOL     OW48205   6.692   9.722   4.643 -0.0458 -0.5283  0.2699
12329SOL    HW148206   6.646   9.664   4.575  0.6837 -1.2638  0.3908
12329SOL    HW248207   6.766   9.670   4.686  0.5033  0.4442  0.5111
12330SOL     OW48208   9.239   6.907   5.800 -0.0593  0.1681 -0.3785
12330SOL    HW148209   9.329   6.864   5.814 -0.1996 -0.3362 -0.9946
12330SOL    HW248210   9.204   6.940   5.887 -0.1267 -1.3303  0.1767
12331SOL     OW48211   1.318   1.970   5.102  0.2163 -0.0993 -0.0279
12331SOL    HW148212   1.348   1.875   5.095  1.1399  0.0486  1.7373
12331SOL    HW248213   1.226   1.974   5.140 -0.1779 -0.3204 -0.9459
12332SOL     OW48214   0.490   6.706   0.172  0.2244 -0.2650  0.1680
12332SOL    HW148215   0.551   6.635   0.136  0.5911  0.5358 -0.8047
12332SOL    HW248216   0.403   6.702   0.123  1.0656  1.4569 -1.5019
12333SOL     OW48217   9.006   0.091   2.262  0.5169 -0.1563 -0.1633
12333SOL    HW148218   8.967   0.098   2.170 -0.5463  0.8568  0.3473
12333SOL    HW248219   9.075   0.162   2.274 -0.6160  0.8682  0.4119
12334SOL     OW48220   7.202   8.506   6.357  0.3161 -0.1737  0.1048
12334SOL    HW148221   7.236   8.487   6.449 -0.0897  1.8962  0.7057
12334SOL    HW248222   7.244   8.591   6.324  0.3603 -0.8399 -1.5738
12335SOL     OW48223   1.825   2.385   1.911 -0.3766 -0.0485  0.3203
12335SOL    HW148224   1.895   2.412   1.977  0.0701 -0.4539  0.0122
12335SOL    HW248225   1.793   2.466   1.862  0.8214 -0.0307 -0.4633
12336SOL     OW48226   0.481   2.408   4.953  0.3118  0.0521 -0.0909
12336SOL    HW148227   0.401   2.428   5.008 -1.2830 -0.3112 -2.2267
12336SOL    HW248228   0.463   2.430   4.857  2.7215 -0.1316 -0.6265
12337SOL     OW48229   9.185   0.779   3.475 -0.1136 -0.2236 -0.4442
12337SOL    HW148230   9.242   0.702   3.447 -0.3701 -1.0211  1.1901
12337SOL    HW248231   9.240   0.841   3.532 -0.3378  0.0007 -0.4731
12338SOL     OW48232   8.754   5.439   3.848  0.2812  0.0068  0.1505
12338SOL    HW148233   8.698   5.396   3.919 -0.5237  0.6468 -0.0915
12338SOL    HW248234   8.744   5.538   3.853  0.9779  0.0982 -0.2379
12339SOL     OW48235   7.964   2.772   5.022 -0.4529  0.7955 -0.1031
12339SOL    HW148236   8.029   2.813   4.958 -1.8830  0.6280 -1.6779
12339SOL    HW248237   8.009   2.696   5.070  0.2058 -0.0482 -2.0007
12340SOL     OW48238   2.598   3.610   5.225  0.3522  0.0933  0.0909
12340SOL    HW148239   2.571   3.514   5.219 -1.4487  0.5775  0.4407
12340SOL    HW248240   2.552   3.663   5.153  1.0214  0.7727  0.1538
12341SOL     OW48241   2.386   5.554   4.712 -0.0435 -0.6049  0.1401
12341SOL    HW148242   2.286   5.548   4.707 -0.2326  0.6471  1.8840
12341SOL    HW248243   2.414   5.565   4.807  1.7175 -0.2569 -0.3989
12342SOL     OW48244   1.723   9.559   5.452  0.3595  0.1496  0.1908
12342SOL    HW148245   1.780   9.622   5.504 -2.0990  2.2641  0.4180
12342SOL    HW248246   1.675   9.497   5.515 -0.6956  1.0604  0.2965
12343SOL     OW48247   2.061   4.610   0.544  0.4441 -0.7869 -0.5493
12343SOL    HW148248   2.112   4.638   0.463  1.6770 -0.1113  0.4357
12343SOL    HW248249   2.088   4.517   0.570  2.9882  0.4097  1.3276
12344SOL     OW48250   8.536   5.370   0.201 -0.0412  0.1384 -0.1716
12344SOL    HW148251   8.557   5.274   0.179 -0.7410 -0.4225  1.5381
12344SOL    HW248252   8.620   5.418   0.226  0.0764 -0.4448  0.5452
12345SOL     OW48253   3.015   1.443   4.771 -0.4244 -0.1964 -0.0895
12345SOL    HW148254   3.096   1.392   4.742 -0.9062 -1.9779  1.6116
12345SOL    HW248255   3.043   1.526   4.819  0.3913 -0.6851  0.2826
12346SOL     OW48256   9.166   2.223   1.713 -0.4463 -0.1463  0.1857
12346SOL    HW148257   9.109   2.146   1.686  1.5937 -1.8751  0.6339
12346SOL    HW248258   9.155   2.242   1.810 -1.4900  0.6200 -0.0733
12347SOL     OW48259   7.650   0.629   4.763 -0.1437 -0.0180 -0.0294
12347SOL    HW148260   7.552   0.646   4.748 -0.2321 -1.1414 -0.7965
12347SOL    HW248261   7.688   0.703   4.817 -1.4005  0.4972  0.1811
12348SOL     OW48262   0.838   3.269   0.947  0.2110 -0.1734  0.1027
12348SOL    HW148263   0.865   3.256   1.042 -0.1121 -2.4630 -0.0931
12348SOL    HW248264   0.741   3.246   0.936  0.7238 -1.8651 -1.1335
12349SOL     OW48265   7.142   8.813   2.962 -0.2070 -0.1383 -0.2904
12349SOL    HW148266   7.198   8.794   2.881  0.7838 -0.9330  0.5677
12349SOL    HW248267   7.164   8.904   2.997  1.0783 -0.7126  0.4448
12350SOL     OW48268   4.502   5.935   1.704  0.5806 -0.2800  0.5698
12350SOL    HW148269   4.439   5.924   1.628  0.3178  1.4742  0.5207
12350SOL    HW248270   4.593   5.958   1.670  0.5626  0.0806  0.7585
12351SOL     OW48271   7.261   2.360   5.628  0.5883 -0.7311  0.2314
12351SOL    HW148272   7.234   2.413   5.707 -0.0829  0.7479 -0.9603
12351SOL    HW248273   7.347   2.397   5.591  0.4254 -0.8475 -0.2653
12352SOL     OW48274   9.634   3.818   2.427 -0.1542  0.2314  0.2935
12352SOL    HW148275   9.711   3.754   2.428 -1.3471 -1.2966 -1.2932
12352SOL    HW248276   9.587   3.815   2.515  0.8607  0.2460  0.8381
12353SOL     OW48277   7.958   9.204   2.858  0.0142  0.1672 -0.9154
12353SOL    HW148278   7.859   9.214   2.844 -0.4223 -0.0607  1.6670
12353SOL    HW248279   7.983   9.107   2.851 -0.0867  0.1346 -0.8198
12354SOL     OW48280   5.407   2.392   4.077 -0.0033  0.0298  0.1491
12354SOL    HW148281   5.430   2.298   4.103  1.0972 -0.3103 -1.9849
12354SOL    HW248282   5.417   2.452   4.157 -1.1164 -1.7004  1.6423
12355SOL     OW48283   2.659   5.597   5.892  0.8179 -0.3391 -0.4467
12355SOL    HW148284   2.606   5.512   5.892  0.9058 -0.3952 -0.6485
12355SOL    HW248285   2.722   5.597   5.814  0.7734 -0.0606 -0.4849
12356SOL     OW48286   7.208   0.583   4.946  0.3438  0.0648  0.3901
12356SOL    HW148287   7.163   0.534   4.871  1.6148  1.5200 -1.3611
12356SOL    HW248288   7.287   0.634   4.911 -0.8621  3.2952  2.1670
12357SOL     OW48289   1.328   8.994   3.793 -0.0051 -0.4241 -0.1041
12357SOL    HW148290   1.282   9.082   3.784 -0.0488 -0.2201  2.0367
12357SOL    HW248291   1.424   9.008   3.816 -0.1330 -0.9335  0.7636
12358SOL     OW48292   2.160   0.952   2.382 -0.6554 -0.1680 -0.6247
12358SOL    HW148293   2.162   1.020   2.455 -0.0992 -1.0197  0.1598
12358SOL    HW248294   2.148   0.861   2.422  0.8106 -0.7582 -1.5030
12359SOL     OW48295   7.310   9.310   4.493  0.1817  0.1170 -0.3089
12359SOL    HW148296   7.382   9.323   4.425 -1.4471  0.1204 -2.0661
12359SOL    HW248297   7.316   9.218   4.531  0.7244 -0.0904 -0.8967
12360SOL     OW48298   7.921   3.017   5.196  0.0469 -0.0218  0.2797
12360SOL    HW148299   7.983   2.970   5.134 -0.1187  1.0243 -0.6937
12360SOL    HW248300   7.827   3.007   5.163  0.2481  3.3536 -1.5599
12361SOL     OW48301   2.047   4.743   0.792 -0.2620 -0.3635 -0.5973
12361SOL    HW148302   1.999   4.665   0.832 -1.9334  0.5447 -0.7953
12361SOL    HW248303   2.056   4.730   0.693 -0.5935 -0.2642 -0.6387
12362SOL     OW48304   2.391   2.944   2.512 -0.0618 -0.2316 -0.2004
12362SOL    HW148305   2.375   3.004   2.591 -1.6656 -1.0145  0.0944
12362SOL    HW248306   2.451   2.869   2.538 -0.2146 -0.2317  0.1528
12363SOL     OW48307   2.609   9.473   2.079 -0.2966  0.0576 -0.2875
12363SOL    HW148308   2.529   9.446   2.026 -0.1317 -0.4079 -0.3029
12363SOL    HW248309   2.593   9.453   2.176 -0.6165  0.9486 -0.1529
12364SOL     OW48310   2.766   6.386   4.851  0.2096 -0.2852 -0.3631
12364SOL    HW148311   2.856   6.428   4.840 -1.2351  2.6468 -1.5678
12364SOL    HW248312   2.726   6.415   4.938  0.0602 -0.9069 -0.2199
12365SOL     OW48313   9.451   6.008   3.220 -0.3240  0.3541 -0.4645
12365SOL    HW148314   9.533   5.950   3.220 -1.4467 -1.3330  1.9916
12365SOL    HW248315   9.391   5.979   3.294 -1.2147  4.3115  0.4391
12366SOL     OW48316   6.855   6.752   5.551  0.1186 -0.4244  0.3276
12366SOL    HW148317   6.876   6.703   5.635  1.2058 -1.4221 -0.5252
12366SOL    HW248318   6.940   6.781   5.507 -0.4601  0.5160 -0.1824
12367SOL     OW48319   5.557   0.513   1.543  0.2909 -0.0018  0.6927
12367SOL    HW148320   5.472   0.530   1.591 -0.2329  1.9225 -0.8490
12367SOL    HW248321   5.542   0.446   1.471  0.3384 -0.4810  1.1276
12368SOL     OW48322   1.383   0.682   1.589  0.1093 -0.7890 -0.3920
12368SOL    HW148323   1.285   0.702   1.581 -0.5808 -2.5037  3.1549
12368SOL    HW248324   1.434   0.768   1.592 -1.6816  0.2413  1.9784
12369SOL     OW48325   8.308   3.974   0.779  0.2470  0.0864 -0.5367
12369SOL    HW148326   8.391   4.019   0.814  0.5166 -0.1939 -0.8144
12369SOL    HW248327   8.299   3.993   0.681  0.4087 -0.5394 -0.6749
12370SOL     OW48328   1.012   7.760   3.353 -0.1490  0.4746 -0.4762
12370SOL    HW148329   1.082   7.827   3.327 -1.0496  0.9608 -1.6919
12370SOL    HW248330   0.925   7.807   3.365 -0.6566 -0.4035 -0.7524
12371SOL     OW48331   2.607   2.816   3.783  0.1463  0.0951  0.0792
12371SOL    HW148332   2.691   2.762   3.788 -1.1965 -2.0805 -0.1820
12371SOL    HW248333   2.571   2.812   3.690 -0.1772  1.1509  0.1505
12372SOL     OW48334   8.211   8.831   1.273  0.7122 -0.3646 -0.6987
12372SOL    HW148335   8.182   8.793   1.361  0.7802  0.1049 -0.4744
12372SOL    HW248336   8.229   8.929   1.283  1.5332 -0.4718 -1.0355
12373SOL     OW48337   1.486   7.489   4.511  0.3712  0.0918 -0.1436
12373SOL    HW148338   1.585   7.477   4.502  0.3445 -0.8534  0.7739
12373SOL    HW248339   1.466   7.548   4.589  0.1685 -0.8069  0.4963
12374SOL     OW48340   2.663   4.638   5.377  0.0449  0.6090  0.1368
12374SOL    HW148341   2.744   4.675   5.424  0.8015 -1.5910  0.6006
12374SOL    HW248342   2.615   4.575   5.437  0.1805 -1.0918 -1.5165
12375SOL     OW48343   7.192   2.089   4.541  0.9566  0.1484  0.1447
12375SOL    HW148344   7.172   2.167   4.600  2.5819  1.5530 -1.0997
12375SOL    HW248345   7.107   2.053   4.503  0.3167  2.6374 -0.8882
12376SOL     OW48346   1.789   5.906   5.971 -0.1268 -0.2973 -0.4556
12376SOL    HW148347   1.753   5.984   6.023  1.4571 -0.7174  1.3168
12376SOL    HW248348   1.713   5.858   5.927 -1.3504  0.9030  0.3068
12377SOL     OW48349   0.825   2.436   5.201 -0.2009 -0.3028  0.0404
12377SOL    HW148350   0.814   2.463   5.105 -0.5885  0.2211  0.2286
12377SOL    HW248351   0.746   2.468   5.253 -0.3951 -1.3097  0.3793
12378SOL     OW48352   9.810   5.814   2.810  0.0697  0.4341 -0.0987
12378SOL    HW148353   9.723   5.771   2.835  0.7131 -1.0165 -0.2849
12378SOL    HW248354   9.840   5.779   2.721  0.8594  0.8859 -0.0159
12379SOL     OW48355   9.831   2.461   1.089 -0.4963 -0.2989  0.1938
12379SOL    HW148356   9.760   2.439   1.022 -1.2039 -0.2017  0.8959
12379SOL    HW248357   9.808   2.546   1.136  0.6450  0.3090 -0.3305
12380SOL     OW48358   2.504   4.404   3.747 -0.1831  0.6866  0.2512
12380SOL    HW148359   2.527   4.493   3.786  1.6667  0.1343  0.4328
12380SOL    HW248360   2.587   4.354   3.725 -1.2056 -0.9505  0.0031
12381SOL     OW48361   3.335   7.055   3.173  0.4856 -0.1616  0.4655
12381SOL    HW148362   3.283   6.987   3.123 -0.3562  1.3292 -0.7163
12381SOL    HW248363   3.406   7.010   3.227  1.3330 -1.8041 -1.9578
12382SOL     OW48364   8.288   0.141   0.618 -0.0735 -0.0513 -0.2140
12382SOL    HW148365   8.198   0.100   0.631  0.3674 -0.1909  2.9811
12382SOL    HW248366   8.285   0.236   0.647  0.2241  0.6703 -2.4960
12383SOL     OW48367   6.983   1.541   1.710 -0.5545  0.0223  0.3772
12383SOL    HW148368   6.975   1.442   1.713 -0.7396 -0.0068 -0.6306
12383SOL    HW248369   6.900   1.580   1.671 -0.0141  0.4835 -0.3411
12384SOL     OW48370   5.495   2.360   8.177 -0.3532 -0.2152  0.3659
12384SOL    HW148371   5.444   2.339   8.260  0.7875 -1.3400  0.8023
12384SOL    HW248372   5.431   2.384   8.104 -1.5195 -1.5795  0.9013
12385SOL     OW48373   7.664   2.370   3.955 -0.2453  0.7117 -0.9557
12385SOL    HW148374   7.581   2.344   4.003 -0.0433  0.7096 -0.6021
12385SOL    HW248375   7.701   2.454   3.995  0.4424  0.1916 -0.4750
12386SOL     OW48376   1.568   9.543   1.626  0.0145  0.5242 -0.3365
12386SOL    HW148377   1.596   9.544   1.530 -0.8759  1.7705 -0.5958
12386SOL    HW248378   1.637   9.495   1.680 -0.0305 -1.2231 -1.7546
12387SOL     OW48379   1.248   5.884   4.299  0.1479  0.3036 -0.2031
12387SOL    HW148380   1.318   5.898   4.370  0.3859  2.0777 -0.7685
12387SOL    HW248381   1.172   5.832   4.337  1.7169 -1.5567  0.4617
12388SOL     OW48382   3.869   8.287   5.751  0.0914 -0.3476  0.0288
12388SOL    HW148383   3.795   8.220   5.755  0.1547 -0.3435  1.2281
12388SOL    HW248384   3.948   8.246   5.705  0.3819 -1.3363  1.3901
12389SOL     OW48385   4.005   9.654   4.843 -0.1439  0.8606  0.0760
12389SOL    HW148386   4.045   9.653   4.935 -1.0660  0.4995  0.4813
12389SOL    HW248387   3.933   9.723   4.839  1.7173  2.7503 -1.1756
12390SOL     OW48388   1.877   0.417   0.977 -0.4317 -0.5474 -0.0268
12390SOL    HW148389   1.863   0.515   0.992  1.0827 -0.7301  2.7403
12390SOL    HW248390   1.888   0.401   0.879 -2.5042  1.7887 -0.7126
12391SOL     OW48391   4.785   1.899   4.612 -0.0195  0.0897  0.1062
12391SOL    HW148392   4.858   1.912   4.545  0.5738  0.3695  0.7976
12391SOL    HW248393   4.825   1.883   4.702 -0.8152  0.0446  0.4568
12392SOL     OW48394   1.856   5.997   5.296 -0.0439 -0.3155  0.1184
12392SOL    HW148395   1.829   6.069   5.232  0.0429 -0.1872  0.2255
12392SOL    HW248396   1.954   6.003   5.314  0.2328 -1.3316 -0.9627
12393SOL     OW48397   7.987   7.265   4.801 -0.0859 -0.1354  0.3032
12393SOL    HW148398   7.935   7.346   4.828  0.1760 -0.0455  0.5400
12393SOL    HW248399   7.969   7.245   4.705  0.7892  0.9412 -0.1100
12394SOL     OW48400   7.523   4.127   0.451 -0.0819 -0.2001 -0.0954
12394SOL    HW148401   7.453   4.094   0.387  0.0093  0.2813 -0.4507
12394SOL    HW248402   7.603   4.157   0.399 -0.8082  2.1616  0.0823
12395SOL     OW48403   2.213   1.795   5.633  0.2654 -0.6288  0.2716
12395SOL    HW148404   2.311   1.813   5.645  0.2783 -0.7166  0.2979
12395SOL    HW248405   2.161   1.879   5.649  0.3109 -0.6614  0.5905
12396SOL     OW48406   9.961   1.780   1.395 -0.0030 -0.7058 -0.0699
12396SOL    HW148407   9.905   1.700   1.415  0.7047 -1.7453 -2.1427
12396SOL    HW248408   9.999   1.815   1.481 -1.8642 -1.4150  1.0803
12397SOL     OW48409   0.770   4.616   4.252 -0.4642  0.5755 -0.1936
12397SOL    HW148410   0.774   4.644   4.156 -2.8741  0.6297 -0.3145
12397SOL    HW248411   0.768   4.697   4.311  1.2437  0.5400 -0.0830
12398SOL     OW48412   5.334   6.041   2.203 -0.4526 -0.4037  0.3974
12398SOL    HW148413   5.393   6.061   2.125  0.8709 -2.0963  0.9202
12398SOL    HW248414   5.265   6.112   2.212  0.2324  0.5329 -1.4792
12399SOL     OW48415   7.607   4.645   0.460  0.2696 -0.2785  0.2726
12399SOL    HW148416   7.529   4.591   0.491  0.7585 -0.2559  1.5644
12399SOL    HW248417   7.665   4.589   0.401  0.5369 -1.0301  1.2377
12400SOL     OW48418   7.649   2.614   0.874 -0.0248  0.4451 -0.4016
12400SOL    HW148419   7.614   2.586   0.785 -0.4110 -0.3054 -0.0195
12400SOL    HW248420   7.593   2.574   0.946  0.1905  1.1718  0.1811
12401SOL     OW48421   7.691   2.858   3.993  0.3042  0.4670 -0.4721
12401SOL    HW148422   7.654   2.928   3.931  0.3860  0.0216 -1.0307
12401SOL    HW248423   7.735   2.786   3.939  0.8108  0.3245  0.1352
12402SOL     OW48424   1.430   8.270   0.733 -0.0881 -0.5095 -0.0256
12402SOL    HW148425   1.459   8.365   0.736 -0.6183 -0.3484  0.0137
12402SOL    HW248426   1.434   8.237   0.638 -0.2123 -0.3570 -0.0827
12403SOL     OW48427   4.026   5.751   3.972 -0.0113  0.2043  0.1090
12403SOL    HW148428   4.079   5.783   3.893  0.9991 -1.9039 -0.0832
12403SOL    HW248429   3.953   5.691   3.942  1.4809 -2.0545  0.8904
12404SOL     OW48430   0.080   0.207   1.926 -0.0743 -0.1884  0.7427
12404SOL    HW148431   0.061   0.261   2.008  1.6852 -0.1494  1.1429
12404SOL    HW248432  -0.002   0.155   1.901 -0.8864  0.4412  2.0429
12405SOL     OW48433   9.192   6.806   0.339  0.0019 -0.1549 -0.1335
12405SOL    HW148434   9.171   6.892   0.293 -0.7452  0.8130  1.9646
12405SOL    HW248435   9.133   6.796   0.419  1.1836 -1.8622  0.5490
12406SOL     OW48436   6.701   0.618   5.335  0.5377  0.0845 -0.4488
12406SOL    HW148437   6.767   0.587   5.267 -0.5118  1.9232 -2.3753
12406SOL    HW248438   6.608   0.594   5.306  0.2846 -2.8274  2.4121
12407SOL     OW48439   0.414   1.293   5.707 -0.9115  0.5661 -0.3876
12407SOL    HW148440   0.451   1.287   5.799  2.1325  0.3131 -1.5671
12407SOL    HW248441   0.467   1.358   5.653  0.1360 -2.4417 -3.1894
12408SOL     OW48442   4.749   2.881   4.441  0.6347  0.2851  0.0864
12408SOL    HW148443   4.831   2.938   4.434  0.6734  0.2881  0.5206
12408SOL    HW248444   4.680   2.929   4.495  0.7139 -0.1236  0.5620
12409SOL     OW48445   8.962   5.749   5.936 -0.5723 -0.5139  0.2502
12409SOL    HW148446   8.973   5.839   5.895  0.6799 -1.0085 -0.5319
12409SOL    HW248447   8.889   5.752   6.005  1.0405  1.6898  1.9481
12410SOL     OW48448   6.858   2.489   4.377  0.0091 -0.4690  0.0501
12410SOL    HW148449   6.944   2.493   4.327  1.5492 -1.2969  2.5940
12410SOL    HW248450   6.818   2.398   4.367  0.1034 -0.5047  0.0009
12411SOL     OW48451   7.813   5.698   2.919 -0.6420 -0.6072 -0.4584
12411SOL    HW148452   7.772   5.607   2.922 -0.8505 -0.5016 -0.0632
12411SOL    HW248453   7.787   5.744   2.834  1.0337 -1.6402 -1.5625
12412SOL     OW48454   4.138   5.571   4.601  0.2674 -0.5140 -0.6621
12412SOL    HW148455   4.177   5.639   4.539 -1.1726  1.8468  0.9442
12412SOL    HW248456   4.207   5.501   4.620  2.2102  1.1026 -1.4821
12413SOL     OW48457   7.443   6.861   2.720  0.8522 -0.2337 -0.3726
12413SOL    HW148458   7.487   6.798   2.657  2.7030  0.3646  0.2824
12413SOL    HW248459   7.505   6.938   2.739  0.1624 -0.1744  1.7839
12414SOL     OW48460   8.827   7.587   0.233  0.0137 -0.2238 -0.3791
12414SOL    HW148461   8.794   7.561   0.324 -0.0509 -1.3895 -0.7274
12414SOL    HW248462   8.849   7.505   0.181 -0.7168  0.4193 -1.7175
12415SOL     OW48463   7.650   3.207   0.492  0.1539  0.5963  0.0629
12415SOL    HW148464   7.578   3.270   0.524  0.9776  1.8368 -0.5129
12415SOL    HW248465   7.738   3.236   0.530  0.2462 -1.3869  1.4088
12416SOL     OW48466   1.317   1.238   4.015 -0.2559  0.0767 -0.1719
12416SOL    HW148467   1.323   1.272   4.109 -4.6044  0.4797  0.0452
12416SOL    HW248468   1.331   1.314   3.951 -2.3277  0.8271  0.2380
12417SOL     OW48469   2.022   4.495   3.987 -0.4709  0.0276  0.2453
12417SOL    HW148470   1.938   4.526   3.944  0.0455  0.0501 -0.7708
12417SOL    HW248471   2.085   4.461   3.916  0.2162 -0.3410  1.0263
12418SOL     OW48472   7.032   3.275   0.207 -0.1642  0.5010  0.4178
12418SOL    HW148473   6.961   3.345   0.200 -0.3976  0.2855  0.6097
12418SOL    HW248474   6.995   3.195   0.254  0.5151  0.7938  1.4500
12419SOL     OW48475   7.602   8.494   6.730 -0.3941 -0.0424  0.1730
12419SOL    HW148476   7.594   8.394   6.725  0.8090 -0.1350 -0.0050
12419SOL    HW248477   7.666   8.526   6.660 -0.6458  0.8374  0.3381
12420SOL     OW48478   3.671   8.352   4.515 -0.1991 -0.1237  0.5638
12420SOL    HW148479   3.649   8.431   4.459  1.8072 -1.1809 -1.8361
12420SOL    HW248480   3.713   8.382   4.601  2.7155  1.4189 -1.3212
12421SOL     OW48481   2.552   8.146   5.397 -0.5355 -0.1567 -0.1646
12421SOL    HW148482   2.475   8.085   5.380 -0.5649 -0.2410  0.2559
12421SOL    HW248483   2.564   8.207   5.319 -1.4752  0.3322  0.0565
12422SOL     OW48484   4.620   5.666   2.457 -0.1110  0.0752  0.1570
12422SOL    HW148485   4.717   5.644   2.464 -0.1720  0.2994  1.9332
12422SOL    HW248486   4.574   5.644   2.543 -1.7060 -0.3191 -0.7681
12423SOL     OW48487   2.701   8.127   1.124 -0.0729  1.0560 -0.4710
12423SOL    HW148488   2.727   8.177   1.041 -0.2005 -0.5396 -1.5010
12423SOL    HW248489   2.758   8.045   1.132 -0.0109  1.2413  1.0740
12424SOL     OW48490   3.516   8.417   5.447 -0.2368 -0.1633  0.2608
12424SOL    HW148491   3.520   8.443   5.543 -1.1099 -2.5662  1.0010
12424SOL    HW248492   3.591   8.355   5.426 -0.5053 -0.2737 -0.3947
12425SOL     OW48493   2.552   8.584   6.408  0.2665  0.3192  0.3204
12425SOL    HW148494   2.475   8.612   6.465  0.7953  1.5220  0.4510
12425SOL    HW248495   2.564   8.649   6.333 -0.1550 -1.0236 -0.9265
12426SOL     OW48496   3.654   4.356   0.600  0.2389  0.2162 -0.1467
12426SOL    HW148497   3.690   4.411   0.524 -0.3039 -0.8407 -1.2003
12426SOL    HW248498   3.554   4.357   0.598  0.2264  0.1703  0.5400
12427SOL     OW48499   8.700   3.608   2.058 -0.1545 -0.0472  0.5840
12427SOL    HW148500   8.794   3.575   2.054  0.1806  0.9121  0.2237
12427SOL    HW248501   8.654   3.590   1.971 -0.7989 -1.9027  1.2898
12428SOL     OW48502   8.067   3.869   0.821 -0.3007  0.3421  0.3208
12428SOL    HW148503   8.034   3.892   0.913 -1.0995 -1.3422  0.4753
12428SOL    HW248504   8.160   3.904   0.810 -0.4838  1.2508  1.4915
12429SOL     OW48505   3.334   0.416   5.808 -0.6718  0.3750  0.9972
12429SOL    HW148506   3.298   0.323   5.800  0.2000  0.2012 -1.2959
12429SOL    HW248507   3.404   0.418   5.879 -1.8179 -0.3466  2.1707
12430SOL     OW48508   0.208   0.126   3.863 -0.1769  0.0785  0.2432
12430SOL    HW148509   0.294   0.086   3.892  1.9709  2.4262 -2.5586
12430SOL    HW248510   0.173   0.077   3.783  0.5669  1.4303 -0.9422
12431SOL     OW48511   4.339   9.880   1.735 -0.2799 -0.2200  0.3618
12431SOL    HW148512   4.354   9.812   1.807 -1.1231 -0.9650 -0.1646
12431SOL    HW248513   4.266   9.849   1.674 -1.2304  1.5113  0.5832
12432SOL     OW48514   2.507   5.784   3.297 -0.0269 -0.3992  0.3202
12432SOL    HW148515   2.448   5.720   3.249 -0.3437 -0.0826  0.2818
12432SOL    HW248516   2.509   5.762   3.395  0.5290 -0.9744  0.1805
12433SOL     OW48517   2.922   2.847   2.140 -0.1361  0.2992  0.2620
12433SOL    HW148518   2.853   2.839   2.067 -0.4754  0.5793  0.5493
12433SOL    HW248519   2.981   2.926   2.121  0.3788 -0.1963 -0.2110
12434SOL     OW48520   1.192   5.480   1.530 -0.6765 -0.2797 -0.3037
12434SOL    HW148521   1.105   5.431   1.539 -0.6530 -0.3226 -0.3088
12434SOL    HW248522   1.193   5.531   1.444  0.0920 -1.8423 -1.2439
12435SOL     OW48523   0.425   8.785   5.969  0.0311 -0.4857 -0.2325
12435SOL    HW148524   0.342   8.839   5.967 -0.4871 -1.2628  0.0092
12435SOL    HW248525   0.486   8.813   5.895  0.4400  1.4699  0.8024
12436SOL     OW48526   1.923   9.986   1.810 -0.3268 -0.2335 -0.3246
12436SOL    HW148527   1.918   9.930   1.893  0.3368 -0.1517 -0.2336
12436SOL    HW248528   1.866  10.068   1.823 -1.7575 -1.1466 -0.6742
12437SOL     OW48529   3.550   9.156   3.598 -0.4427 -0.1242  0.2039
12437SOL    HW148530   3.460   9.113   3.593 -0.1897 -0.8285  1.4959
12437SOL    HW248531   3.539   9.252   3.622 -0.8647 -0.1336  0.0617
12438SOL     OW48532   8.585   6.649   5.295 -0.0233 -0.2676 -0.0136
12438SOL    HW148533   8.663   6.712   5.296 -0.5102  0.3634 -1.2687
12438SOL    HW248534   8.555   6.633   5.389 -0.1158  1.6536  0.3037
12439SOL     OW48535   4.786   8.749   6.588 -0.2632  0.2096  0.1726
12439SOL    HW148536   4.871   8.715   6.548 -0.0798  0.5250  0.2947
12439SOL    HW248537   4.770   8.843   6.559  0.7583  1.0384  2.2073
12440SOL     OW48538   8.487   1.808   2.617  0.0351  0.4687 -0.3233
12440SOL    HW148539   8.411   1.867   2.640  0.6799  1.0444  0.3327
12440SOL    HW248540   8.476   1.775   2.523 -1.6219 -0.3973  0.1488
12441SOL     OW48541   7.536   9.521   5.735  0.4721 -0.5351 -0.5368
12441SOL    HW148542   7.630   9.541   5.705  0.9822 -1.1728  0.6160
12441SOL    HW248543   7.535   9.507   5.834 -0.8125 -0.7109 -0.5761
12442SOL     OW48544   1.122   6.928   1.201  0.4214 -0.4079  0.0780
12442SOL    HW148545   1.213   6.915   1.161  0.6489 -0.7768  0.7103
12442SOL    HW248546   1.091   6.843   1.242  0.7569  0.2948  1.8430
12443SOL     OW48547   2.616   6.453   4.634 -0.0068 -0.1969  0.2424
12443SOL    HW148548   2.671   6.411   4.706 -0.7186 -0.9844  0.3460
12443SOL    HW248549   2.529   6.403   4.626  0.6569 -1.0505 -2.1668
12444SOL     OW48550   9.007   1.245   3.975  0.2717 -0.4480  0.3881
12444SOL    HW148551   9.062   1.166   3.948 -1.4199 -1.8780  1.0252
12444SOL    HW248552   8.911   1.227   3.957 -0.1119  1.6026  0.2699
12445SOL     OW48553   1.292   4.490   4.221  0.1022  0.6063 -0.3250
12445SOL    HW148554   1.332   4.501   4.130 -0.5839  0.5702 -0.6376
12445SOL    HW248555   1.225   4.415   4.218  1.6849 -0.8704  0.7485
12446SOL     OW48556   7.645   1.761   5.007  0.0082 -0.5164  0.5821
12446SOL    HW148557   7.688   1.764   4.917  0.7148  0.6759  0.9525
12446SOL    HW248558   7.546   1.775   4.997  0.3570  1.7376  0.1743
12447SOL     OW48559   0.003   8.561   1.089 -0.0917 -0.1494 -0.0011
12447SOL    HW148560   0.024   8.578   1.186 -0.1061  0.6304 -0.1377
12447SOL    HW248561  -0.055   8.480   1.082 -0.7058  0.2295  0.6992
12448SOL     OW48562   5.387   1.144   1.520  0.4613  0.3865  0.0990
12448SOL    HW148563   5.351   1.209   1.587 -0.3037  1.0229 -0.9026
12448SOL    HW248564   5.452   1.191   1.460  0.0155  0.2044 -0.5358
12449SOL     OW48565   2.310   2.191   8.164  0.2246 -0.9172  0.0628
12449SOL    HW148566   2.247   2.131   8.215  0.2676 -0.5129  0.6008
12449SOL    HW248567   2.258   2.265   8.121 -0.1649 -2.7109 -2.6843
12450SOL     OW48568   2.299   5.574   1.487  0.6825  0.7783 -0.2314
12450SOL    HW148569   2.371   5.514   1.451 -1.9797 -1.6193 -1.8168
12450SOL    HW248570   2.264   5.536   1.573 -1.9758 -0.8795 -1.9450
12451SOL     OW48571   5.505   8.240   4.395  0.4374  0.2630  0.4836
12451SOL    HW148572   5.482   8.146   4.418  1.5179 -0.1917 -0.2493
12451SOL    HW248573   5.540   8.244   4.302 -0.8292  1.5976  0.0440
12452SOL     OW48574   5.978   8.120   4.678 -0.0807 -0.2655  0.1163
12452SOL    HW148575   5.987   8.025   4.708 -0.5887 -0.3175  0.1073
12452SOL    HW248576   5.890   8.157   4.708  0.4555  0.4605  0.8386
12453SOL     OW48577   4.751   4.849   0.576  0.1915  0.3714  0.8438
12453SOL    HW148578   4.734   4.798   0.660 -0.8272  0.4695  0.6966
12453SOL    HW248579   4.845   4.883   0.577 -0.1650  1.4076  2.5043
12454SOL     OW48580   0.442   9.123   3.768 -0.2829  0.0085  0.0897
12454SOL    HW148581   0.479   9.182   3.696 -1.2492  1.3590  0.6963
12454SOL    HW248582   0.382   9.055   3.726 -1.1654  1.0460 -0.3530
12455SOL     OW48583   3.122   2.368   0.230 -0.3998  0.7748  0.6700
12455SOL    HW148584   3.084   2.434   0.165 -0.5064  1.5038  1.4554
12455SOL    HW248585   3.200   2.321   0.189 -0.9557  0.6592 -0.2637
12456SOL     OW48586   0.282   8.308   1.141 -0.5056  0.1627 -0.6533
12456SOL    HW148587   0.259   8.378   1.208 -2.5755 -1.1163 -0.0173
12456SOL    HW248588   0.338   8.237   1.184 -1.2291 -0.2890 -0.4536
12457SOL     OW48589   2.357   9.010   4.631  0.0154 -0.4562 -0.5865
12457SOL    HW148590   2.445   8.973   4.601 -1.1478 -2.9259 -1.1558
12457SOL    HW248591   2.313   8.944   4.693 -0.3226  1.8817  1.7656
12458SOL     OW48592   2.457   7.061   2.420  0.5203 -0.0540 -0.5138
12458SOL    HW148593   2.551   7.089   2.397  0.6714  1.9848  2.3744
12458SOL    HW248594   2.394   7.135   2.399 -0.2574 -0.8406 -0.9783
12459SOL     OW48595   5.707   9.674   4.461 -0.1916  0.4534  0.3384
12459SOL    HW148596   5.784   9.637   4.409 -0.2920  0.0956  0.4409
12459SOL    HW248597   5.722   9.659   4.558  0.1590  1.4323  0.4382
12460SOL     OW48598   6.755   6.985   4.735 -0.2935  0.1992 -0.3357
12460SOL    HW148599   6.814   6.927   4.791 -0.0980  0.5394 -0.1890
12460SOL    HW248600   6.808   7.061   4.697 -0.6133  0.4491 -0.2886
12461SOL     OW48601   1.402   7.152   5.648  0.0246  0.2328  0.4635
12461SOL    HW148602   1.394   7.052   5.639 -0.2323  0.1712  1.3582
12461SOL    HW248603   1.486   7.182   5.604 -1.4272  0.0069 -2.5602
12462SOL     OW48604   7.972   3.310   0.946 -0.4438  0.4890  0.1434
12462SOL    HW148605   8.042   3.300   0.876  0.5280 -0.9816  1.2770
12462SOL    HW248606   7.948   3.406   0.957 -1.4255  0.6402 -2.9497
12463SOL     OW48607   8.365   1.916   6.024  0.6032  0.5941 -0.1678
12463SOL    HW148608   8.309   1.974   5.964 -0.7829 -1.0227 -0.4561
12463SOL    HW248609   8.461   1.924   5.998  0.1062  0.5692 -2.0403
12464SOL     OW48610   3.938   6.070   0.737  0.2227  0.0134  0.0598
12464SOL    HW148611   3.923   5.978   0.703 -0.1083  1.1433 -3.0419
12464SOL    HW248612   3.859   6.099   0.791 -0.1853 -1.0831  0.0649
12465SOL     OW48613   9.974   9.434   6.568  0.2726 -0.4053 -0.0650
12465SOL    HW148614   9.929   9.423   6.479 -1.0430 -0.0816  0.5592
12465SOL    HW248615  10.015   9.525   6.574  1.0888 -0.7261 -0.6578
12466SOL     OW48616   1.138   7.396   4.294  0.1259  0.0874 -0.0761
12466SOL    HW148617   1.166   7.491   4.281 -0.1560  0.5485  2.4273
12466SOL    HW248618   1.073   7.370   4.223 -1.8310  2.6140  0.7015
12467SOL     OW48619   0.517   9.927   6.583  0.5624  0.3430  0.0070
12467SOL    HW148620   0.563   9.848   6.623  1.1645  0.7100  0.0555
12467SOL    HW248621   0.556  10.011   6.622  0.7009  0.6878 -0.8523
12468SOL     OW48622   1.479   1.557   2.522 -0.2447  0.2800  0.3720
12468SOL    HW148623   1.422   1.491   2.473 -2.0443  1.9065  0.1722
12468SOL    HW248624   1.427   1.596   2.597 -0.1609  3.3079 -1.0500
12469SOL     OW48625   1.837   2.681   1.035 -0.1525 -0.1542  0.2447
12469SOL    HW148626   1.900   2.645   1.104 -0.2335 -0.2608  0.2622
12469SOL    HW248627   1.878   2.671   0.944  0.6129  1.3562  0.3969
12470SOL     OW48628   2.829   5.188   3.160  0.3777  0.9436  0.0120
12470SOL    HW148629   2.871   5.234   3.238 -0.0819  1.4858 -0.0575
12470SOL    HW248630   2.855   5.235   3.076 -1.2485  1.9658  0.0542
12471SOL     OW48631   2.820   9.966   3.273  0.0373  0.1412 -0.2032
12471SOL    HW148632   2.904   9.911   3.270 -0.0589 -0.0918  1.0649
12471SOL    HW248633   2.769   9.953   3.187  1.6778  0.9216 -1.3269
12472SOL     OW48634   4.787   6.307   2.366  0.1012  0.2606  0.5485
12472SOL    HW148635   4.822   6.218   2.396 -1.6304 -0.3698  0.7416
12472SOL    HW248636   4.784   6.369   2.445 -0.3620 -0.0697  0.7976
12473SOL     OW48637   0.103   5.407   0.994  0.2328  0.1259 -0.0448
12473SOL    HW148638   0.131   5.312   0.980  0.7107  0.2456  0.1008
12473SOL    HW248639   0.167   5.452   1.056 -0.4193  0.3266  0.4896
12474SOL     OW48640   4.913   8.623   5.174 -0.0189  0.5589 -0.1335
12474SOL    HW148641   4.878   8.599   5.265  0.6783  1.7262  0.4537
12474SOL    HW248642   4.845   8.600   5.105 -1.2959  1.3240  0.8426
12475SOL     OW48643   3.311   5.831   3.831  0.3936 -0.8525  0.4332
12475SOL    HW148644   3.397   5.875   3.857 -0.2492  0.6811  0.0357
12475SOL    HW248645   3.245   5.842   3.905 -0.5971  1.1784 -0.7173
12476SOL     OW48646   5.700   8.055   3.698 -0.0395 -0.4949  0.1903
12476SOL    HW148647   5.615   8.092   3.736  1.0082  2.0534  0.1475
12476SOL    HW248648   5.778   8.104   3.737  1.3588 -1.7947 -0.9042
12477SOL     OW48649   2.208   0.716   2.542  0.2412  0.2858 -0.5974
12477SOL    HW148650   2.154   0.736   2.624  0.7822 -1.1564  0.1265
12477SOL    HW248651   2.291   0.771   2.543  0.2234  0.3111 -0.2009
12478SOL     OW48652   7.586   7.357   3.818 -0.3639  0.3463  0.0291
12478SOL    HW148653   7.503   7.362   3.763 -0.7875 -0.9757  0.5486
12478SOL    HW248654   7.565   7.380   3.913  0.2002  1.7143 -0.1568
12479SOL     OW48655   3.804   2.794   8.056  0.9908 -0.0274 -0.3133
12479SOL    HW148656   3.743   2.872   8.066  0.9895  0.0154 -0.6407
12479SOL    HW248657   3.893   2.826   8.023  1.1968 -0.0849  0.1884
12480SOL     OW48658   8.316   9.810   3.603 -0.4233  0.6630 -0.5474
12480SOL    HW148659   8.357   9.901   3.609 -1.4446  1.3084 -2.8091
12480SOL    HW248660   8.252   9.797   3.679  0.8811  1.2023  0.6758
12481SOL     OW48661   5.826   9.903   4.776  0.1864 -0.1676  0.3148
12481SOL    HW148662   5.865   9.940   4.860 -0.5466 -0.1411  0.6475
12481SOL    HW248663   5.818   9.975   4.708  3.3592 -0.7370 -0.7664
12482SOL     OW48664   4.316   5.365   2.412  0.3152 -0.3752 -0.5801
12482SOL    HW148665   4.370   5.360   2.328 -1.3446 -1.9136 -1.6013
12482SOL    HW248666   4.370   5.332   2.489  0.9067 -1.6646 -1.5328
12483SOL     OW48667   1.188   0.134   2.313 -0.4919 -0.0889  0.2276
12483SOL    HW148668   1.172   0.080   2.395 -0.3567 -0.1635  0.2053
12483SOL    HW248669   1.161   0.081   2.232 -2.0727  0.5504  0.3075
12484SOL     OW48670   9.054   0.651   4.372  0.3398  0.0889 -0.4793
12484SOL    HW148671   9.092   0.742   4.391  2.9692 -0.6866 -1.6812
12484SOL    HW248672   8.976   0.660   4.310 -1.4935  1.7471  1.9896
12485SOL     OW48673   2.086   8.527   2.476 -0.1698  0.0822  0.1099
12485SOL    HW148674   2.100   8.555   2.571  2.5253  2.5739 -0.9736
12485SOL    HW248675   2.117   8.432   2.464  0.0180 -0.0439  1.5485
12486SOL     OW48676   2.815   2.805   3.014  0.3242 -0.4076  0.0594
12486SOL    HW148677   2.806   2.767   3.106 -1.0714  0.3884  0.2670
12486SOL    HW248678   2.856   2.736   2.954  0.7094 -1.1349  1.1335
12487SOL     OW48679   3.609   6.128   4.808 -0.1744 -0.1199  0.1647
12487SOL    HW148680   3.534   6.188   4.837  0.6957  0.3452  1.5105
12487SOL    HW248681   3.613   6.048   4.867  1.3598  0.6319  1.1299
12488SOL     OW48682   4.490   3.000   1.123  0.6604  0.4347 -0.1574
12488SOL    HW148683   4.496   3.086   1.174 -1.9473  0.4692  0.1321
12488SOL    HW248684   4.436   3.015   1.040  0.5599 -0.8354 -0.3204
12489SOL     OW48685   9.959   2.238   0.540  0.6864 -0.5022 -0.2778
12489SOL    HW148686   9.860   2.225   0.541  0.6781 -1.6825 -4.7907
12489SOL    HW248687  10.004   2.156   0.575  0.0994 -1.1313 -0.9865
12490SOL     OW48688   7.148   9.565   3.701  0.0477  0.5068  0.5497
12490SOL    HW148689   7.184   9.472   3.698 -2.6324 -0.6636  3.0818
12490SOL    HW248690   7.186   9.613   3.780 -0.8109  0.5928  0.9150
12491SOL     OW48691   8.604   4.263   1.945  0.0632 -0.3833  0.3457
12491SOL    HW148692   8.577   4.263   2.042 -0.4344  1.0151  0.2168
12491SOL    HW248693   8.524   4.280   1.888  0.5115 -0.3162 -0.2641
12492SOL     OW48694   7.145   8.490   3.585 -0.3719  0.1956  0.5415
12492SOL    HW148695   7.234   8.445   3.576 -1.2529 -1.5324  0.3792
12492SOL    HW248696   7.107   8.471   3.675 -1.7897 -1.3095 -0.3579
12493SOL     OW48697   9.407   9.551   6.129 -0.0916  0.0775  0.7735
12493SOL    HW148698   9.336   9.619   6.147  0.5011  1.5347 -2.1089
12493SOL    HW248699   9.381   9.495   6.050  0.5677 -1.4349  1.5944
12494SOL     OW48700   5.373   2.031   5.075 -0.0891 -0.9422  0.1590
12494SOL    HW148701   5.297   2.090   5.047  0.2672 -2.0966 -3.4970
12494SOL    HW248702   5.340   1.962   5.139 -1.3869  0.6495  1.2270
12495SOL     OW48703   1.128   8.839   2.830 -0.3618  0.4648 -0.3467
12495SOL    HW148704   1.062   8.764   2.828  0.6842 -0.5545  2.0472
12495SOL    HW248705   1.174   8.846   2.741 -0.9184 -1.2806 -0.7856
12496SOL     OW48706   7.357   0.174   5.917  0.1019 -0.1593 -0.3226
12496SOL    HW148707   7.304   0.102   5.872  0.7129 -0.6718 -0.2337
12496SOL    HW248708   7.444   0.137   5.948  0.4949  0.6664 -0.4223
12497SOL     OW48709   1.842   6.169   5.090 -0.0337 -0.3678  0.3760
12497SOL    HW148710   1.890   6.250   5.055 -0.9857  0.4505  0.9183
12497SOL    HW248711   1.763   6.149   5.031 -0.4952 -0.1634  0.9112
12498SOL     OW48712   0.179   8.035   1.617 -0.1209  0.7994 -0.0250
12498SOL    HW148713   0.154   8.077   1.530  0.3248 -0.6117 -0.8407
12498SOL    HW248714   0.096   8.021   1.671 -0.4175  1.5093 -0.2797
12499SOL     OW48715   1.272   4.915   0.208  0.6244  0.4453 -0.0076
12499SOL    HW148716   1.198   4.980   0.226 -0.0165 -0.0137 -0.9729
12499SOL    HW248717   1.350   4.963   0.168  0.0703  0.5883 -0.9264
12500SOL     OW48718   9.686   3.235   4.185 -0.3458 -0.3462  0.0858
12500SOL    HW148719   9.629   3.191   4.255 -0.4848 -0.3615 -0.0381
12500SOL    HW248720   9.727   3.318   4.223 -1.1936  0.1677 -0.1272
12501SOL     OW48721   4.923   8.182   3.165  0.7440 -0.0009 -0.4193
12501SOL    HW148722   5.003   8.198   3.107  0.6437 -0.1490 -0.6000
12501SOL    HW248723   4.840   8.181   3.108  0.7376 -1.0389 -0.3959
12502SOL     OW48724   5.247   2.331   8.028  0.3585  0.6599  0.2884
12502SOL    HW148725   5.166   2.389   8.036  0.2837  0.3420  1.9478
12502SOL    HW248726   5.224   2.250   7.974 -1.1690 -0.6652  2.7905
12503SOL     OW48727   7.902   6.228   0.514  0.2156 -0.3644 -0.1436
12503SOL    HW148728   7.900   6.134   0.479  1.2865 -0.6131  0.4235
12503SOL    HW248729   7.985   6.241   0.569  0.9416  1.4200 -1.6145
12504SOL     OW48730   1.062   4.381   2.629  0.6530 -0.3618 -0.2064
12504SOL    HW148731   1.045   4.448   2.556  2.0712  0.6406  0.3592
12504SOL    HW248732   1.051   4.289   2.593  1.1123  0.1278 -1.6299
12505SOL     OW48733   7.329   0.532   4.163  0.1025  0.3170  0.4396
12505SOL    HW148734   7.415   0.580   4.180 -0.0114  0.7653 -0.2591
12505SOL    HW248735   7.269   0.544   4.242 -0.5163  2.6109 -0.3581
12506SOL     OW48736   8.727   6.150   2.275 -0.3571  0.2499 -0.4198
12506SOL    HW148737   8.632   6.169   2.248 -0.3421  0.5604 -0.2587
12506SOL    HW248738   8.740   6.175   2.371  0.2547  1.5357 -0.8187
12507SOL     OW48739   0.651   1.361   5.067 -0.1019 -0.7804  0.2527
12507SOL    HW148740   0.726   1.426   5.075 -0.1883 -0.8313  1.6214
12507SOL    HW248741   0.661   1.308   4.982  0.6489  0.1445 -0.2416
12508SOL     OW48742   3.743   2.428   3.445 -0.4473  0.1036 -0.1552
12508SOL    HW148743   3.786   2.340   3.464 -1.9695 -0.6075  0.0117
12508SOL    HW248744   3.699   2.463   3.527  1.6308  1.8804  0.2522
12509SOL     OW48745   8.821   6.029   5.103  0.0954 -0.1083  0.1068
12509SOL    HW148746   8.870   5.961   5.048  0.0588 -0.2437  0.2395
12509SOL    HW248747   8.870   6.043   5.189  1.0862  1.3616 -0.6729
12510SOL     OW48748   8.776   6.048   2.778 -0.3580  0.1087  0.2439
12510SOL    HW148749   8.724   6.072   2.860 -1.6094 -1.7326  0.0237
12510SOL    HW248750   8.873   6.064   2.794 -0.6604  0.3790  1.8762
12511SOL     OW48751   4.256   2.676   3.260 -0.2465  0.0741  0.4709
12511SOL    HW148752   4.235   2.622   3.179 -3.1071 -0.3265  1.4289
12511SOL    HW248753   4.263   2.773   3.235  1.2159 -0.3058 -0.6253
12512SOL     OW48754   1.146   8.009   3.308 -0.1527 -0.6768 -0.3697
12512SOL    HW148755   1.181   8.020   3.215  0.0143 -0.9721 -0.3422
12512SOL    HW248756   1.210   7.954   3.362 -0.0013 -0.0940  0.0621
12513SOL     OW48757   0.817   7.962   3.562  0.3066 -0.4051  0.0233
12513SOL    HW148758   0.814   7.999   3.470 -0.7419  2.6177  1.2190
12513SOL    HW248759   0.875   8.019   3.620 -0.1133 -1.4876  1.5462
12514SOL     OW48760   1.263   7.765   1.150  0.0142  0.0707  0.2520
12514SOL    HW148761   1.205   7.703   1.097 -0.2880  0.1462  0.4881
12514SOL    HW248762   1.231   7.859   1.136  0.4186  0.1638 -0.0403
12515SOL     OW48763   1.792   3.330   3.399  0.4854  0.5079  0.6371
12515SOL    HW148764   1.791   3.236   3.363 -1.0375  0.7719 -0.0459
12515SOL    HW248765   1.862   3.337   3.470  0.7406 -1.1028  0.5754
12516SOL     OW48766   7.164   1.296   4.647 -0.0603  1.0941  0.3071
12516SOL    HW148767   7.142   1.383   4.603 -1.1269 -0.1402 -1.6528
12516SOL    HW248768   7.085   1.236   4.645  1.1380 -0.5233  0.1834
12517SOL     OW48769   7.586   3.067   3.809 -0.3906  0.2549 -0.4325
12517SOL    HW148770   7.639   3.101   3.732  0.3043  1.0527  0.3903
12517SOL    HW248771   7.526   3.140   3.843 -0.7515 -0.1180 -0.2562
12518SOL     OW48772   4.382   4.214   0.438  1.0454 -0.1635 -0.0481
12518SOL    HW148773   4.349   4.289   0.496  0.9361 -0.5800  0.4401
12518SOL    HW248774   4.345   4.224   0.346 -1.5819 -1.3454  0.8138
12519SOL     OW48775   7.086   3.741   2.139  0.5134 -0.6387  0.4532
12519SOL    HW148776   7.033   3.789   2.208 -1.5762 -2.9869  0.5582
12519SOL    HW248777   7.060   3.773   2.048  1.1191  0.3615  0.6318
12520SOL     OW48778   1.408   4.517   3.988  0.6452  0.7929 -0.1714
12520SOL    HW148779   1.460   4.588   3.940  2.3734 -0.0249  0.4410
12520SOL    HW248780   1.472   4.451   4.028 -0.9303 -1.0100 -0.5826
12521SOL     OW48781   2.082   2.577   5.363  0.2028  0.8721 -0.1401
12521SOL    HW148782   2.117   2.510   5.297 -0.2379 -0.7192  1.2067
12521SOL    HW248783   2.128   2.665   5.348  2.0976 -0.1895 -0.7850
12522SOL     OW48784   2.404   4.926   3.191 -0.0338  0.4044  0.5142
12522SOL    HW148785   2.492   4.970   3.210  0.9075 -2.0405  2.1956
12522SOL    HW248786   2.353   4.916   3.277 -0.0881 -1.9089  0.2567
12523SOL     OW48787   1.760   4.524   1.688  0.1166 -0.5606 -0.3853
12523SOL    HW148788   1.679   4.571   1.652 -0.5065 -0.6441  0.8698
12523SOL    HW248789   1.836   4.589   1.693  0.3735 -0.6906 -2.3504
12524SOL     OW48790   6.791   4.100   8.038 -0.3317 -0.1290  0.3736
12524SOL    HW148791   6.827   4.181   7.992  1.2885 -2.1156 -1.9817
12524SOL    HW248792   6.703   4.076   7.997  0.4384 -1.0666 -0.7701
12525SOL     OW48793   2.121   8.137   6.621 -0.1994  0.0854 -0.3447
12525SOL    HW148794   2.196   8.127   6.686 -1.1444 -1.6870  0.5133
12525SOL    HW248795   2.120   8.231   6.584  2.0091  0.3057  0.1108
12526SOL     OW48796   8.849   2.027   3.874  0.2978  0.7184 -0.4675
12526SOL    HW148797   8.800   2.073   3.799  0.4162 -1.0674 -1.6571
12526SOL    HW248798   8.943   2.061   3.877  0.4507  0.4084 -1.4890
12527SOL     OW48799   4.792   6.448   1.747 -0.0724  0.1254 -0.4540
12527SOL    HW148800   4.888   6.450   1.719 -0.6468 -0.7558 -2.5421
12527SOL    HW248801   4.750   6.537   1.730  0.0619  0.1597 -0.6045
12528SOL     OW48802   4.103   4.423   7.891 -0.3427 -0.4859 -0.1786
12528SOL    HW148803   4.190   4.454   7.853 -0.5367  0.8619  0.4219
12528SOL    HW248804   4.056   4.365   7.825  1.0406 -1.2870 -0.4799
12529SOL     OW48805   7.619   2.122   6.561  0.4652  0.0003  0.4161
12529SOL    HW148806   7.635   2.221   6.555 -0.3541  0.0456 -1.2288
12529SOL    HW248807   7.673   2.075   6.492  2.2511 -0.8995  2.3775
12530SOL     OW48808   7.737   3.590   4.840 -0.2856  0.2680 -0.2973
12530SOL    HW148809   7.729   3.689   4.830 -2.3354  0.0962 -0.6782
12530SOL    HW248810   7.722   3.546   4.752  2.4512 -0.3265 -0.5124
12531SOL     OW48811   0.150   4.371   2.704 -0.5697 -0.4318  0.1924
12531SOL    HW148812   0.168   4.354   2.801  0.3441 -0.3606  0.0390
12531SOL    HW248813   0.101   4.457   2.694  0.6314  0.2901  0.4851
12532SOL     OW48814   2.379   0.859   4.531  0.2764 -0.3404 -0.0834
12532SOL    HW148815   2.445   0.906   4.472 -0.4400 -1.1538 -1.5837
12532SOL    HW248816   2.408   0.866   4.626  0.4241  2.7282 -0.3015
12533SOL     OW48817   5.699   4.549   0.785 -0.1868 -0.2581  0.8320
12533SOL    HW148818   5.602   4.543   0.763 -0.5347  0.3922  2.1264
12533SOL    HW248819   5.745   4.463   0.761 -0.5986  0.2993 -2.0307
12534SOL     OW48820   5.374   4.101   1.639 -0.2541  0.2293 -0.2501
12534SOL    HW148821   5.443   4.168   1.664  0.4005 -0.4642 -0.1864
12534SOL    HW248822   5.285   4.128   1.678  0.6309 -0.5646  2.4042
12535SOL     OW48823   5.944   1.117   1.263 -0.1236 -0.2054  0.4838
12535SOL    HW148824   5.912   1.058   1.189 -0.7687  0.2718  0.3801
12535SOL    HW248825   6.025   1.076   1.306  1.3803  0.3802 -1.6661
12536SOL     OW48826   9.631   3.603   4.906 -0.3464  0.2960 -0.1109
12536SOL    HW148827   9.707   3.663   4.931 -0.4941  0.2900  0.3412
12536SOL    HW248828   9.651   3.509   4.936  0.1146  0.0125 -1.2639
12537SOL     OW48829   2.039   4.310   5.767 -0.2787 -0.4889 -0.1336
12537SOL    HW148830   2.125   4.360   5.753  1.0194 -2.9371 -1.1166
12537SOL    HW248831   1.984   4.315   5.684 -0.6229  0.1709  0.1295
12538SOL     OW48832   8.012   2.362   4.843 -0.1167  0.1022 -0.0252
12538SOL    HW148833   8.005   2.447   4.895  1.1353  1.8513 -2.6331
12538SOL    HW248834   8.094   2.313   4.870  0.4944  0.9688 -0.2813
12539SOL     OW48835   9.347   5.893   6.179 -0.2715  0.5264 -0.4375
12539SOL    HW148836   9.352   5.793   6.168 -0.4588  0.6683 -2.0364
12539SOL    HW248837   9.439   5.930   6.193 -0.3816 -0.0362  1.8625
12540SOL     OW48838   6.336   5.056   7.247  0.3575  0.7259  0.8034
12540SOL    HW148839   6.340   4.956   7.252 -0.4591  0.6162 -0.5331
12540SOL    HW248840   6.418   5.090   7.202 -1.0411  0.3759 -2.1114
12541SOL     OW48841   0.297   5.131   1.489  0.2904 -0.4945 -0.1564
12541SOL    HW148842   0.288   5.176   1.578 -0.6901  0.3845 -0.6930
12541SOL    HW248843   0.265   5.037   1.495 -0.3220 -0.2600  0.2835
12542SOL     OW48844   8.548   1.369   1.173 -0.0181 -0.1326 -0.2162
12542SOL    HW148845   8.590   1.446   1.221 -0.7537  0.9119 -1.2306
12542SOL    HW248846   8.477   1.328   1.232 -1.9382  2.0561 -0.9156
12543SOL     OW48847   7.890   4.890   4.978 -0.1983  0.2622  0.2388
12543SOL    HW148848   7.922   4.947   4.903 -0.1022  0.3018  0.3104
12543SOL    HW248849   7.806   4.842   4.950 -1.1184  1.5864  0.6809
12544SOL     OW48850   0.339   0.090   0.331 -0.2312 -0.3438 -1.0477
12544SOL    HW148851   0.424   0.059   0.374  0.4762  0.5466 -1.7794
12544SOL    HW248852   0.349   0.185   0.302 -2.4054  0.6097  1.2089
12545SOL     OW48853   2.407   8.328   6.413 -0.0618 -0.5079  0.4292
12545SOL    HW148854   2.381   8.392   6.341 -0.4913  0.7537  1.6901
12545SOL    HW248855   2.507   8.320   6.416  0.0648  1.1632  1.1558
12546SOL     OW48856   7.409   7.364   6.394  0.6375  0.3132  0.0069
12546SOL    HW148857   7.331   7.303   6.408  0.4292  0.5793 -0.0022
12546SOL    HW248858   7.413   7.431   6.468  0.1080  1.1103 -0.6873
12547SOL     OW48859   2.327   6.119   5.723 -0.7284 -0.5166 -0.5232
12547SOL    HW148860   2.279   6.038   5.757 -0.4819 -0.2140  0.5553
12547SOL    HW248861   2.379   6.161   5.797 -2.3283  1.7053 -0.5877
12548SOL     OW48862   8.021   8.590   1.945  0.1197  0.3363 -0.3102
12548SOL    HW148863   8.037   8.688   1.930  1.2415  0.2682  0.3643
12548SOL    HW248864   8.095   8.553   2.002 -0.6280 -0.7744 -0.0567
12549SOL     OW48865   9.060   5.106   2.827  0.3125  0.0454  0.1000
12549SOL    HW148866   9.002   5.186   2.841 -0.8304 -0.1392 -3.2209
12549SOL    HW248867   9.013   5.025   2.862  0.4905  0.4978  1.4052
12550SOL     OW48868   3.947   2.132   4.277 -0.1555  0.1101  0.3657
12550SOL    HW148869   4.028   2.079   4.252 -0.4120 -0.3235  0.4353
12550SOL    HW248870   3.973   2.225   4.300  0.3905 -0.1716  0.8928
12551SOL     OW48871   9.542   4.486   5.825 -0.1118 -0.4785  0.2466
12551SOL    HW148872   9.610   4.417   5.852 -0.3968 -0.2130  1.6766
12551SOL    HW248873   9.453   4.442   5.812  0.2236 -0.7567 -1.2093
12552SOL     OW48874   0.784   9.158   1.713  0.0028 -0.3268  0.2621
12552SOL    HW148875   0.838   9.096   1.769 -0.2828  1.4042  2.4919
12552SOL    HW248876   0.841   9.234   1.683 -0.0352 -0.8700 -1.2432
12553SOL     OW48877   7.909   2.398   5.843  0.0515 -0.3210 -0.6046
12553SOL    HW148878   7.979   2.441   5.786 -0.2084  1.6624  0.5468
12553SOL    HW248879   7.820   2.439   5.822 -0.0792  0.2547  1.0549
12554SOL     OW48880   0.716   9.596   0.657  0.3361 -0.7474 -0.4307
12554SOL    HW148881   0.676   9.508   0.682  1.4242 -0.7711  1.3693
12554SOL    HW248882   0.813   9.583   0.633  0.0620 -0.2783 -1.8528
12555SOL     OW48883   5.385   1.413   3.180  0.2152 -0.2362  0.0786
12555SOL    HW148884   5.438   1.441   3.260 -1.0915  1.4102  0.3971
12555SOL    HW248885   5.445   1.366   3.115  2.3979  2.7411 -0.1814
12556SOL     OW48886   4.116   4.482   4.105 -0.5481 -0.2159  0.1308
12556SOL    HW148887   4.118   4.466   4.204  2.1396 -0.5707  0.0474
12556SOL    HW248888   4.047   4.424   4.063  0.6628 -2.6128  1.3831
12557SOL     OW48889   8.652   0.357   3.405  0.1988  0.1155 -0.2301
12557SOL    HW148890   8.718   0.284   3.386 -2.0515 -2.3055  0.9994
12557SOL    HW248891   8.684   0.411   3.483  0.8281 -0.9030  0.2297
12558SOL     OW48892   5.032   3.509   5.806  0.4752 -0.3172 -0.5887
12558SOL    HW148893   4.967   3.585   5.795  1.7706  0.7139 -1.4012
12558SOL    HW248894   4.992   3.438   5.863 -0.2145  1.6551  1.4415
12559SOL     OW48895   2.966   9.463   5.361 -0.3928 -0.1077 -0.1183
12559SOL    HW148896   2.909   9.508   5.430 -0.6903 -0.1047 -0.3643
12559SOL    HW248897   3.032   9.529   5.324  0.6108 -0.4408  1.0652
12560SOL     OW48898   7.843   0.542   5.429 -0.2043 -0.0250  0.3539
12560SOL    HW148899   7.757   0.495   5.451 -0.0713  0.0656  1.0761
12560SOL    HW248900   7.824   0.617   5.365 -0.6700  0.0172  0.5364
12561SOL     OW48901   6.402   9.675   3.140 -0.4763  0.0935  0.0416
12561SOL    HW148902   6.471   9.624   3.190  1.3122  0.5627 -1.8746
12561SOL    HW248903   6.377   9.626   3.057  0.3467  1.7157 -1.1835
12562SOL     OW48904   7.739   4.601   2.399  0.2264  0.6652 -0.0616
12562SOL    HW148905   7.736   4.530   2.469 -0.3731 -0.4758 -1.2086
12562SOL    HW248906   7.833   4.615   2.370  0.3887  0.6024  0.4342
12563SOL     OW48907   9.242   0.971   3.925 -0.3810 -0.8251 -0.2952
12563SOL    HW148908   9.251   1.007   4.018  1.6557 -0.3609 -0.6355
12563SOL    HW248909   9.246   0.871   3.927  0.8633 -0.7764  0.0131
12564SOL     OW48910   7.526   7.193   3.160 -0.4393 -0.1528 -0.1632
12564SOL    HW148911   7.491   7.284   3.182 -1.4596 -0.8341  1.1066
12564SOL    HW248912   7.595   7.167   3.227 -0.2723 -0.3861 -0.4254
12565SOL     OW48913   4.089   0.305   3.516 -0.3013  0.3646 -0.2401
12565SOL    HW148914   3.995   0.305   3.548 -0.6392  0.1916 -1.2002
12565SOL    HW248915   4.108   0.217   3.471  0.0482  0.7186 -0.7931
12566SOL     OW48916   2.412   9.426   4.869 -0.3090 -0.4658  0.1548
12566SOL    HW148917   2.353   9.498   4.904  0.6666  0.6627 -0.4954
12566SOL    HW248918   2.410   9.427   4.769 -0.6735 -1.6720  0.1363
12567SOL     OW48919   6.667   9.067   4.604 -0.6844  0.3043  0.0520
12567SOL    HW148920   6.656   8.988   4.664  1.4001 -0.3579 -0.3992
12567SOL    HW248921   6.633   9.044   4.512 -0.8107  0.2094  0.1224
12568SOL     OW48922   3.722   1.246   5.196  0.2028 -0.2697  0.1607
12568SOL    HW148923   3.690   1.161   5.155 -2.1416  0.3509  0.6278
12568SOL    HW248924   3.736   1.315   5.125 -0.3652 -0.2859  0.0315
12569SOL     OW48925   3.504   8.835   4.860  0.0124 -0.1614  0.1088
12569SOL    HW148926   3.543   8.916   4.904  0.7768 -1.0358  1.0611
12569SOL    HW248927   3.409   8.853   4.834  0.3500  1.2264 -0.1868
12570SOL     OW48928   6.987   7.599   4.614  0.0308 -0.0455 -0.0289
12570SOL    HW148929   6.895   7.576   4.582  0.4439 -0.3627 -0.9924
12570SOL    HW248930   7.054   7.576   4.543  0.9100 -0.3523  0.8872
12571SOL     OW48931   3.712   1.815   5.499 -0.3799  0.0012 -0.3261
12571SOL    HW148932   3.618   1.835   5.473 -0.4632 -0.6213 -0.4983
12571SOL    HW248933   3.775   1.866   5.439 -0.6065  0.5426 -0.1038
12572SOL     OW48934   1.860   1.564   0.818  0.0493  0.8060  0.0648
12572SOL    HW148935   1.811   1.486   0.857 -1.1920  1.1531 -0.7679
12572SOL    HW248936   1.805   1.647   0.827  0.6624  1.2815 -0.4929
12573SOL     OW48937   3.005   8.062   1.240  0.1115  0.4602  0.2702
12573SOL    HW148938   3.003   8.156   1.206 -0.3445  0.0257 -0.9422
12573SOL    HW248939   3.100   8.028   1.239  0.3059  0.9772  0.9236
12574SOL     OW48940   3.548   0.990   3.508 -0.6382  0.1970 -0.1933
12574SOL    HW148941   3.494   1.064   3.549 -3.8995 -2.4705  0.4825
12574SOL    HW248942   3.594   0.938   3.580 -0.3146  0.0736 -0.4878
12575SOL     OW48943   9.509   5.030   5.695  0.3357  0.3340  0.1356
12575SOL    HW148944   9.546   5.107   5.747 -1.0697  1.5609 -0.6402
12575SOL    HW248945   9.584   4.981   5.650  1.3409  0.5957  1.4927
12576SOL     OW48946   1.061   4.225   3.223 -0.6190  0.8569 -0.9226
12576SOL    HW148947   0.968   4.259   3.232  0.3952  3.5113 -0.2148
12576SOL    HW248948   1.092   4.237   3.128 -0.7454  0.6058 -0.9968
12577SOL     OW48949   7.721   3.748   0.848 -0.1842 -0.3445  0.2319
12577SOL    HW148950   7.792   3.680   0.866 -0.0868 -0.3310 -0.0939
12577SOL    HW248951   7.726   3.820   0.917 -1.3958 -1.5367  1.6051
12578SOL     OW48952   7.410   4.711   1.099  0.9045  0.2732  0.0458
12578SOL    HW148953   7.495   4.753   1.132  0.4209  1.5683 -0.3050
12578SOL    HW248954   7.356   4.780   1.051  1.3719 -1.4532 -3.0568
12579SOL     OW48955   7.931   8.666   5.020  0.4359 -0.1858 -0.1542
12579SOL    HW148956   7.928   8.592   5.086 -0.0898  0.1516  0.2042
12579SOL    HW248957   7.844   8.670   4.970  0.8059 -0.4059 -0.8346
12580SOL     OW48958   4.020   3.913   2.733  0.1650 -0.1933 -0.0168
12580SOL    HW148959   3.959   3.990   2.753  1.7484  0.9480  0.5577
12580SOL    HW248960   4.077   3.895   2.813  1.2790 -0.5854 -0.8946
12581SOL     OW48961   0.822   9.986   3.045 -0.1833 -0.2166  0.1035
12581SOL    HW148962   0.784   9.922   2.978  0.1545 -1.0537  0.7097
12581SOL    HW248963   0.921   9.991   3.034 -0.2468  0.5467 -0.2272
12582SOL     OW48964   9.138   5.287   4.325  0.6536 -0.3090 -0.2750
12582SOL    HW148965   9.165   5.212   4.264 -1.0618 -0.4355 -0.9245
12582SOL    HW248966   9.120   5.251   4.417  1.6437 -0.3894 -0.1133
12583SOL     OW48967   8.322   8.855   1.763  0.6073  0.0213  0.5001
12583SOL    HW148968   8.247   8.808   1.811 -0.6196  1.2357 -0.2204
12583SOL    HW248969   8.405   8.799   1.769 -0.5491 -1.7196  0.6186
12584SOL     OW48970   2.041   0.120   0.364  0.3106 -0.2325 -0.1477
12584SOL    HW148971   2.041   0.020   0.355  3.6181 -0.2080 -1.3512
12584SOL    HW248972   2.123   0.149   0.414 -1.0466  1.8410  0.9425
12585SOL     OW48973   9.717   9.769   2.693  0.2939  0.3265 -0.0684
12585SOL    HW148974   9.675   9.707   2.759  1.0365  0.0292  0.1294
12585SOL    HW248975   9.703   9.864   2.722 -1.6078  0.2927 -0.8281
12586SOL     OW48976   6.291   8.469   4.274  0.0404 -0.3559  0.1653
12586SOL    HW148977   6.384   8.455   4.306  0.1346 -0.4000 -0.1380
12586SOL    HW248978   6.242   8.525   4.341  1.1689  2.2467 -1.0845
12587SOL     OW48979   9.040   8.513   0.231 -0.6474 -0.8010 -0.0162
12587SOL    HW148980   9.037   8.440   0.298 -1.1505  0.0035  0.8489
12587SOL    HW248981   9.117   8.499   0.169 -0.0047 -1.3793  0.9179
12588SOL     OW48982   0.012   3.977   3.502  1.0449  0.1142 -0.7559
12588SOL    HW148983  -0.021   4.045   3.568  0.9657 -1.0566  0.4244
12588SOL    HW248984   0.063   3.905   3.550 -1.1379 -2.0823 -1.6302
12589SOL     OW48985   0.236   9.768   1.701 -0.0449  0.8236 -0.4101
12589SOL    HW148986   0.140   9.788   1.717 -0.2077  0.8422 -1.3910
12589SOL    HW248987   0.278   9.736   1.786 -2.2933 -4.7801 -1.2283
12590SOL     OW48988   3.273   3.715   1.312 -0.4287  0.0650  0.1985
12590SOL    HW148989   3.285   3.801   1.262 -0.9794  0.0588  0.0580
12590SOL    HW248990   3.212   3.655   1.261 -1.8698  0.4899  1.3948
12591SOL     OW48991   0.571   2.629   2.220 -0.4590 -0.4322 -0.1567
12591SOL    HW148992   0.567   2.586   2.311  1.1458  0.4985  0.3701
12591SOL    HW248993   0.662   2.619   2.182 -0.5831  0.8489 -0.8343
12592SOL     OW48994   2.178   6.669   6.120  0.5085  0.0481 -0.1418
12592SOL    HW148995   2.272   6.702   6.133 -0.5874  2.8749  0.7694
12592SOL    HW248996   2.134   6.720   6.046 -0.6511 -0.5541  0.1192
12593SOL     OW48997   5.106   7.614   4.681  0.2935 -0.0825  0.0734
12593SOL    HW148998   5.027   7.630   4.740  1.5394 -1.4874  2.1991
12593SOL    HW248999   5.187   7.658   4.722  1.0311 -0.4704 -0.9603
12594SOL     OW49000   2.254   7.845   3.866  0.0014  0.2516 -0.0492
12594SOL    HW149001   2.272   7.774   3.934  1.4571 -0.0755 -0.7647
12594SOL    HW249002   2.163   7.831   3.827  0.4110 -1.4053 -0.4154
12595SOL     OW49003   4.117   7.396   1.388 -0.1630  0.1344  0.4334
12595SOL    HW149004   4.197   7.386   1.447  0.4741 -2.0046 -0.7621
12595SOL    HW249005   4.120   7.485   1.342  2.2385 -0.4407 -0.5893
12596SOL     OW49006   5.917   1.599   2.837  0.7623 -0.2195 -0.4648
12596SOL    HW149007   5.985   1.547   2.786 -0.1576 -1.7318 -0.1931
12596SOL    HW249008   5.836   1.542   2.853 -0.2638  1.2879 -0.1209
12597SOL     OW49009   8.723   1.881   5.297  0.4077  0.4653  0.3907
12597SOL    HW149010   8.695   1.823   5.373  2.1632  0.8946  1.3833
12597SOL    HW249011   8.788   1.831   5.239  1.4334  1.1819  0.8980
12598SOL     OW49012   9.181   1.638   5.561  0.4117  0.2881 -0.1351
12598SOL    HW149013   9.217   1.577   5.491  2.2304 -0.5734  1.5173
12598SOL    HW249014   9.112   1.699   5.520  0.9288 -0.6671 -2.4882
12599SOL     OW49015   5.057   4.459   2.735 -0.0292  0.1501  0.5561
12599SOL    HW149016   4.979   4.397   2.723  1.2373 -1.4461  0.5025
12599SOL    HW249017   5.113   4.458   2.652  0.1414  1.1969  0.6465
12600SOL     OW49018   0.460   6.395   0.548 -0.0535  0.2769  0.4560
12600SOL    HW149019   0.415   6.411   0.460  0.3471  0.2286  0.2397
12600SOL    HW249020   0.485   6.298   0.555  1.0039  0.5219  0.1050
12601SOL     OW49021   8.879   7.748   3.144 -0.1629 -0.0169  0.0701
12601SOL    HW149022   8.925   7.837   3.145 -1.2816  0.5692  0.7263
12601SOL    HW249023   8.895   7.703   3.056  4.4617 -1.3564  1.4227
12602SOL     OW49024   7.367   9.000   6.936 -0.5014  0.3150 -0.2907
12602SOL    HW149025   7.428   8.937   6.983 -1.8064  0.1758  1.2556
12602SOL    HW249026   7.414   9.087   6.920  0.1933  0.1140  0.6141
12603SOL     OW49027   9.980   4.446   2.411  0.9332 -0.5135 -0.2974
12603SOL    HW149028   9.918   4.370   2.393  0.5522 -0.3249  0.2213
12603SOL    HW249029   9.955   4.490   2.497  1.0288  0.3307 -0.7008
12604SOL     OW49030   8.355   8.980   0.920 -0.1894 -0.1496 -0.2460
12604SOL    HW149031   8.437   9.012   0.966  1.6159 -1.3013 -2.5245
12604SOL    HW249032   8.292   9.056   0.906  0.0837  0.5798  2.3113
12605SOL     OW49033   8.951   3.339   5.483 -0.4224  0.5513  0.3306
12605SOL    HW149034   9.006   3.373   5.406  0.0042 -0.0201  0.3794
12605SOL    HW249035   8.990   3.373   5.569  1.0716 -1.4825  0.4926
12606SOL     OW49036   6.526   1.180   3.380 -0.2532  0.6810 -0.6629
12606SOL    HW149037   6.533   1.085   3.350 -1.0511  1.0199 -1.9698
12606SOL    HW249038   6.605   1.232   3.345 -0.2867  0.6946 -0.7176
12607SOL     OW49039   4.326   6.898   2.812 -0.5012 -0.2349 -0.3731
12607SOL    HW149040   4.355   6.959   2.738 -1.1196  1.0899  0.4587
12607SOL    HW249041   4.252   6.942   2.864  0.2092 -0.9751  1.2791
12608SOL     OW49042   0.598   1.303   3.360 -0.2480 -0.1438  0.8642
12608SOL    HW149043   0.611   1.400   3.337 -3.3323 -0.4226 -2.5843
12608SOL    HW249044   0.505   1.289   3.394 -0.6589 -2.2206 -0.9935
12609SOL     OW49045   2.212   2.744   5.676  0.1915 -0.1917  0.0972
12609SOL    HW149046   2.255   2.816   5.730  0.0599  0.2526 -0.3880
12609SOL    HW249047   2.282   2.684   5.639  0.3620  0.2540 -0.2987
12610SOL     OW49048   4.498   0.302   6.805 -0.1316  0.5643 -0.0489
12610SOL    HW149049   4.418   0.348   6.766  1.1248  2.8991  0.0185
12610SOL    HW249050   4.565   0.285   6.733 -0.0086  0.1048  0.1770
12611SOL     OW49051   0.061   3.404   5.216 -0.0916  0.3189 -0.3477
12611SOL    HW149052   0.039   3.469   5.144  0.3953  1.4639  0.5298
12611SOL    HW249053  -0.011   3.404   5.285  0.1247  0.2522 -0.1200
12612SOL     OW49054   2.268   5.973   0.631  0.1990 -0.2741 -0.4166
12612SOL    HW149055   2.189   5.913   0.636 -0.8178  1.0123 -0.6581
12612SOL    HW249056   2.273   6.028   0.714  0.8114 -0.3242 -0.4192
12613SOL     OW49057   3.885   1.890   4.386 -0.4206 -0.4353 -0.0586
12613SOL    HW149058   3.919   1.909   4.478  0.1920 -0.9882 -0.1681
12613SOL    HW249059   3.892   1.973   4.330  4.3080 -1.4461 -1.1799
12614SOL     OW49060   5.089   0.988   1.136  0.3687 -0.4070  0.4105
12614SOL    HW149061   5.018   0.936   1.184  0.4120  0.2824  1.2374
12614SOL    HW249062   5.179   0.957   1.167  0.3940  0.2173  0.9847
12615SOL     OW49063   2.160   5.236   4.091  0.6603 -0.4568 -0.1602
12615SOL    HW149064   2.189   5.200   4.002 -0.3755 -0.3444 -0.5509
12615SOL    HW249065   2.222   5.309   4.120  0.8073 -0.2723 -0.9394
12616SOL     OW49066   2.085   0.174   1.275 -0.0329 -0.2517  0.5104
12616SOL    HW149067   2.028   0.109   1.326 -0.2159  0.4295  1.1962
12616SOL    HW249068   2.053   0.267   1.294 -1.0613 -0.0562 -2.0404
12617SOL     OW49069   2.155   3.754   0.395  0.5031 -0.4987 -0.1260
12617SOL    HW149070   2.089   3.788   0.328  1.4793 -0.0798 -0.8918
12617SOL    HW249071   2.172   3.657   0.380  1.0062 -0.3228 -0.7495
12618SOL     OW49072   8.764   7.432   0.661 -0.7753 -0.2764  0.3917
12618SOL    HW149073   8.810   7.414   0.575 -1.5997 -1.4965  0.2100
12618SOL    HW249074   8.724   7.524   0.659  2.1876  1.0872  0.8033
12619SOL     OW49075   9.768   1.669   0.905 -0.5183 -0.2971  0.3997
12619SOL    HW149076   9.743   1.575   0.882  0.9181 -1.0545  1.8138
12619SOL    HW249077   9.864   1.684   0.880 -1.3034  1.4384 -1.6777
12620SOL     OW49078   3.506   8.109   3.808 -0.7228 -0.3036  0.1675
12620SOL    HW149079   3.442   8.035   3.787  1.0503 -1.3955 -1.5178
12620SOL    HW249080   3.584   8.104   3.745  1.0301  0.9827  2.2009
12621SOL     OW49081   1.059   1.663   4.031  0.3597 -0.1446  0.1395
12621SOL    HW149082   1.077   1.612   3.947  0.4626 -0.1809  0.1848
12621SOL    HW249083   1.095   1.756   4.023 -2.2960  0.8566 -1.0556
12622SOL     OW49084   1.833   9.649   2.272  0.0511  0.0731 -0.4868
12622SOL    HW149085   1.768   9.724   2.284  2.1237  2.3506 -2.8947
12622SOL    HW249086   1.916   9.667   2.325  0.2817 -0.8374 -0.5279
12623SOL     OW49087   8.843   0.431   5.594 -0.1524  0.1395  0.2158
12623SOL    HW149088   8.843   0.387   5.504  2.8025 -0.6835  0.5831
12623SOL    HW249089   8.857   0.529   5.584 -0.8674  0.1993 -0.2534
12624SOL     OW49090   1.145   5.505   1.064 -0.7930 -0.0615  1.1848
12624SOL    HW149091   1.168   5.407   1.058 -1.8291 -0.2893  0.8590
12624SOL    HW249092   1.183   5.553   0.985 -0.6278 -0.2709  1.1347
12625SOL     OW49093   3.438   3.806   4.681 -0.1253  0.0056 -0.0991
12625SOL    HW149094   3.388   3.889   4.705 -0.6581 -0.3866  0.1686
12625SOL    HW249095   3.486   3.771   4.762 -0.8639 -0.5954  0.0920
12626SOL     OW49096   4.787   0.696   6.426 -0.2739 -0.0416 -0.0569
12626SOL    HW149097   4.693   0.670   6.450 -0.3129 -1.5208 -1.7152
12626SOL    HW249098   4.850   0.624   6.453 -0.0633 -0.7232 -2.2234
12627SOL     OW49099   4.315   1.280   4.272 -0.0535  0.5599 -0.2138
12627SOL    HW149100   4.234   1.222   4.273  0.2930  0.0399 -1.1851
12627SOL    HW249101   4.294   1.365   4.223  0.0466  0.3169 -0.6887
12628SOL     OW49102   9.893   9.959   2.335  0.0667 -0.0816 -0.2728
12628SOL    HW149103   9.928  10.048   2.366 -0.8379  0.3490 -0.4727
12628SOL    HW249104   9.891   9.896   2.413 -2.0341  0.9498  0.5607
12629SOL     OW49105   1.628   1.711   2.735  0.0541 -0.0413 -0.1866
12629SOL    HW149106   1.658   1.622   2.770  1.8216 -0.0535 -1.6699
12629SOL    HW249107   1.636   1.712   2.635 -0.5393  1.5800 -0.2294
12630SOL     OW49108   7.706   7.105   2.532  0.0080 -0.6026 -0.1855
12630SOL    HW149109   7.614   7.129   2.499 -0.2497 -3.1360 -1.4079
12630SOL    HW249110   7.775   7.142   2.470 -0.2575 -0.4597 -0.3947
12631SOL     OW49111   8.149   4.601   0.145 -0.1258 -0.5868  0.0163
12631SOL    HW149112   8.171   4.698   0.150  0.1151 -0.6314 -0.1975
12631SOL    HW249113   8.066   4.583   0.198 -0.1533 -0.2700  0.0807
12632SOL     OW49114   9.065   9.450   2.569 -0.1410 -0.0157 -0.3039
12632SOL    HW149115   8.986   9.510   2.556 -1.3129 -1.5642 -0.5771
12632SOL    HW249116   9.036   9.355   2.560  1.6486 -0.6427  0.2609
12633SOL     OW49117   1.553   4.757   1.388  0.4442 -0.0215 -0.2364
12633SOL    HW149118   1.634   4.813   1.370 -0.2841  0.5629 -1.8488
12633SOL    HW249119   1.485   4.812   1.437  1.1071 -0.5815  1.3208
12634SOL     OW49120   4.935   0.079   2.688 -0.2889  0.3388  0.5095
12634SOL    HW149121   4.891   0.138   2.620 -0.6836  1.4902  1.7666
12634SOL    HW249122   5.011   0.128   2.730 -0.3825 -0.1755  1.2821
12635SOL     OW49123   8.929   5.502   5.109 -0.2590 -0.3651  0.4143
12635SOL    HW149124   8.899   5.526   5.201  0.7326  0.6360  0.4826
12635SOL    HW249125   9.007   5.558   5.083 -0.7843 -0.3358 -1.1961
12636SOL     OW49126   8.335   7.428   0.517  0.1774  0.5522  0.6431
12636SOL    HW149127   8.281   7.482   0.453  1.9887  2.1851  0.4298
12636SOL    HW249128   8.360   7.340   0.475  0.5122  1.1970 -0.5147
12637SOL     OW49129   3.417   3.622   4.254  0.7514  0.0127  0.4132
12637SOL    HW149130   3.378   3.675   4.329 -3.0722  0.0815 -1.4938
12637SOL    HW249131   3.433   3.683   4.176 -2.6386 -1.3023 -1.4109
12638SOL     OW49132   9.177   8.376   3.295  0.0607 -0.0011 -0.2010
12638SOL    HW149133   9.185   8.442   3.370  2.1046  0.6955 -0.9991
12638SOL    HW249134   9.139   8.421   3.214  1.7952  0.3153 -0.8582
12639SOL     OW49135   9.442   3.236   1.672 -0.8176 -0.4275 -0.6897
12639SOL    HW149136   9.484   3.152   1.637  0.2475 -0.0027 -0.4532
12639SOL    HW249137   9.405   3.219   1.763  0.6625 -0.2900 -0.0379
12640SOL     OW49138   9.516   9.867   6.299 -0.2784 -0.0873 -0.6010
12640SOL    HW149139   9.459   9.799   6.346  0.2154 -1.2354 -1.6478
12640SOL    HW249140   9.466   9.954   6.294 -1.8900 -1.0329 -1.3546
12641SOL     OW49141   7.920   5.998   2.664  0.1832  0.7677  0.7804
12641SOL    HW149142   7.887   5.906   2.684  2.1149 -0.0707  0.1867
12641SOL    HW249143   7.842   6.059   2.650 -1.1559 -1.4914 -2.0812
12642SOL     OW49144   9.935   4.399   1.528  0.1960 -0.7736 -0.0691
12642SOL    HW149145   9.857   4.418   1.468  0.8829  1.5263 -0.2991
12642SOL    HW249146  10.000   4.340   1.480  0.5725  0.7549 -1.5175
12643SOL     OW49147   6.442   0.675   6.623 -0.1005  0.4839 -0.1245
12643SOL    HW149148   6.503   0.653   6.546  0.7117  1.1361  0.3313
12643SOL    HW249149   6.445   0.773   6.641 -1.0553  0.4752  0.1115
12644SOL     OW49150   8.306   6.175   4.454 -0.1637  0.2176  0.0230
12644SOL    HW149151   8.208   6.157   4.467  0.1216 -0.6082  1.0586
12644SOL    HW249152   8.355   6.157   4.539  0.9357  0.3484 -0.5752
12645SOL     OW49153   6.075   9.568   7.351  0.7246 -0.4137 -0.1965
12645SOL    HW149154   6.161   9.614   7.370  0.4256 -0.0049  0.1575
12645SOL    HW249155   6.004   9.635   7.333  0.6115 -0.7577 -1.0765
12646SOL     OW49156   9.251   0.878   4.925 -0.0770  0.5548 -0.0324
12646SOL    HW149157   9.189   0.895   5.002 -0.5565  0.4752 -0.3957
12646SOL    HW249158   9.265   0.779   4.915  0.6400  0.6082  0.4656
12647SOL     OW49159   2.748   1.242   3.496  0.6285  0.3496  0.1470
12647SOL    HW149160   2.764   1.171   3.565 -0.9363  1.2861  1.5183
12647SOL    HW249161   2.788   1.328   3.527  2.0981  0.1926 -1.2828
12648SOL     OW49162   8.448   3.170   5.388  0.3248  0.2759  0.4981
12648SOL    HW149163   8.545   3.190   5.401  0.8779 -1.8042 -0.0961
12648SOL    HW249164   8.406   3.240   5.331  1.4433  1.2809  0.9023
12649SOL     OW49165   0.960   0.702   2.201 -0.4811 -0.5833 -0.5740
12649SOL    HW149166   1.025   0.634   2.167 -0.0234  0.6385 -2.1953
12649SOL    HW249167   0.996   0.794   2.186 -1.6133  0.0556  0.5169
12650SOL     OW49168   9.830   3.969   1.585  0.2714 -0.1556 -0.4966
12650SOL    HW149169   9.920   4.009   1.567  0.7122 -1.0503 -0.3200
12650SOL    HW249170   9.841   3.872   1.607 -0.6096  0.0157  0.7422
12651SOL     OW49171   2.262   7.343   3.058 -0.4679 -0.0725  0.2613
12651SOL    HW149172   2.187   7.315   3.119  0.8849 -0.9339  1.5620
12651SOL    HW249173   2.296   7.432   3.087 -0.9714  0.3095 -0.3178
12652SOL     OW49174   2.414   3.278   1.991  0.2638  0.1805 -0.0839
12652SOL    HW149175   2.371   3.208   1.934  0.1060  1.1271 -1.1375
12652SOL    HW249176   2.479   3.234   2.054 -0.1011 -0.9433 -0.4752
12653SOL     OW49177   2.667   5.415   0.796 -0.0280  0.1954  0.1757
12653SOL    HW149178   2.655   5.461   0.708 -1.1912 -0.2983  0.0696
12653SOL    HW249179   2.759   5.434   0.830  0.0624  1.2897 -0.6177
12654SOL     OW49180   2.361   4.111   0.116 -0.3090  0.2258  0.2764
12654SOL    HW149181   2.383   4.193   0.063  0.6846  0.3662  0.8966
12654SOL    HW249182   2.262   4.104   0.128 -0.3428  1.7384  0.8836
12655SOL     OW49183   0.551   7.634   5.903 -0.3919 -0.1278  0.1389
12655SOL    HW149184   0.473   7.667   5.955 -0.2144  1.8515 -0.8282
12655SOL    HW249185   0.536   7.650   5.806 -0.0251 -2.3549 -0.3177
12656SOL     OW49186   1.881   4.963   3.311 -0.8376 -0.2784  0.0791
12656SOL    HW149187   1.817   5.007   3.374  0.6860  1.8349  0.2160
12656SOL    HW249188   1.950   4.913   3.363 -0.9236 -0.4488  0.0274
12657SOL     OW49189   1.854   7.875   5.597  0.1950  0.1989 -0.2525
12657SOL    HW149190   1.851   7.812   5.675 -0.1872  0.3242 -0.1661
12657SOL    HW249191   1.762   7.885   5.558  0.3038  0.4868 -0.4391
12658SOL     OW49192   0.044   7.544   2.259 -0.1494 -0.4089 -0.3942
12658SOL    HW149193   0.007   7.621   2.310 -0.4072 -0.5379 -0.3857
12658SOL    HW249194  -0.023   7.470   2.256  0.9125 -1.4720  1.4493
12659SOL     OW49195   4.824   8.992   1.868  0.5675 -0.2162 -0.3826
12659SOL    HW149196   4.882   9.071   1.848  0.0549  0.3560  0.3764
12659SOL    HW249197   4.746   8.992   1.806  1.3268 -0.9422 -1.3519
12660SOL     OW49198   3.001   0.606   4.160  0.0465  0.4250 -0.0849
12660SOL    HW149199   2.928   0.633   4.222 -0.4888  1.0141 -0.9683
12660SOL    HW249200   2.963   0.556   4.083  0.5302  1.0587 -0.7385
12661SOL     OW49201   3.652   6.340   1.897 -0.1261 -0.3051  0.2593
12661SOL    HW149202   3.712   6.292   1.962  0.1638 -0.6291 -0.2510
12661SOL    HW249203   3.560   6.345   1.936 -0.3765 -2.0744 -0.0719
12662SOL     OW49204   7.468   3.873   2.315 -0.0930  0.1554  0.7353
12662SOL    HW149205   7.465   3.833   2.224 -0.6955  1.2157  0.2834
12662SOL    HW249206   7.380   3.860   2.360  0.4980 -1.2219  1.5603
12663SOL     OW49207   5.757   5.526   0.772 -0.2846 -0.1569 -0.5012
12663SOL    HW149208   5.792   5.598   0.832 -0.5786  0.1655 -0.7113
12663SOL    HW249209   5.766   5.555   0.677 -1.9750  0.3411 -0.5252
12664SOL     OW49210   2.599   0.254   6.643 -0.7305 -0.1322  0.3437
12664SOL    HW149211   2.654   0.193   6.586 -1.6740 -1.4483  0.8101
12664SOL    HW249212   2.657   0.298   6.711  0.0757  0.0191 -0.4298
12665SOL     OW49213   2.635   8.556   5.971 -0.0299 -0.2532 -0.3503
12665SOL    HW149214   2.555   8.615   5.966  0.2915  0.1555 -0.6284
12665SOL    HW249215   2.624   8.480   5.907 -1.2170 -1.4485  1.2091
12666SOL     OW49216   9.279   7.698   0.845 -0.4363 -0.2513 -0.1027
12666SOL    HW149217   9.316   7.666   0.757  1.4878  2.2695 -0.2857
12666SOL    HW249218   9.268   7.621   0.907  0.1139 -1.7897 -1.8754
12667SOL     OW49219   7.918   4.636   4.868 -0.1225 -0.6602  0.0871
12667SOL    HW149220   7.882   4.594   4.785 -1.7355 -0.5107  0.6887
12667SOL    HW249221   8.003   4.684   4.847 -2.0726  1.9911 -2.1484
12668SOL     OW49222   0.789   3.269   2.424  0.0932  0.4259 -0.1296
12668SOL    HW149223   0.761   3.363   2.445  0.5462  0.6921 -0.7144
12668SOL    HW249224   0.865   3.271   2.360  1.7650 -0.2798  1.7816
12669SOL     OW49225   0.634   7.306   1.531  0.1662  0.1485  0.0316
12669SOL    HW149226   0.543   7.342   1.509  0.5550  1.2255  0.1580
12669SOL    HW249227   0.632   7.206   1.526 -1.0366  0.1594  0.0929
12670SOL     OW49228   1.865   5.735   2.950 -0.6953 -0.5839  0.0651
12670SOL    HW149229   1.961   5.744   2.976 -0.9972  0.9610  0.7118
12670SOL    HW249230   1.825   5.657   2.998 -0.3115  0.0782  1.5024
12671SOL     OW49231   8.574   2.060   5.638 -0.7034 -0.0617  0.3917
12671SOL    HW149232   8.567   1.984   5.573 -0.8774 -0.2853  0.6672
12671SOL    HW249233   8.525   2.035   5.722 -1.5108  0.7045  0.1491
12672SOL     OW49234   9.223   5.029   5.736 -0.1398  0.4432  0.3590
12672SOL    HW149235   9.220   5.102   5.804  1.1820  2.0811 -1.3293
12672SOL    HW249236   9.316   4.994   5.728 -0.5173 -0.5526  0.2196
12673SOL     OW49237   3.586   9.002   5.663  0.3507 -0.2004  0.7733
12673SOL    HW149238   3.535   8.932   5.614  0.2131  0.4942 -0.1002
12673SOL    HW249239   3.643   8.960   5.733  0.1015 -1.1539  0.4064
12674SOL     OW49240   4.901   0.656   2.284  0.1232  0.4242  0.4044
12674SOL    HW149241   4.831   0.587   2.268  0.2756  0.0358  1.4224
12674SOL    HW249242   4.985   0.629   2.237  0.1781 -0.0712  0.7913
12675SOL     OW49243   4.295   6.815   4.023 -0.0368  0.4157 -0.4391
12675SOL    HW149244   4.353   6.851   4.095  0.4995 -0.6806 -0.3116
12675SOL    HW249245   4.219   6.878   4.007  0.4881  1.2410  0.2588
12676SOL     OW49246   4.743   7.501   2.119  0.4494  0.5498 -0.2503
12676SOL    HW149247   4.732   7.466   2.026  0.5628  2.4347 -1.0000
12676SOL    HW249248   4.691   7.586   2.129  0.1243  0.1601  1.5318
12677SOL     OW49249   7.791   9.999   6.923 -0.3217  0.0451  0.1962
12677SOL    HW149250   7.754  10.081   6.879  0.0929  0.7725  1.1876
12677SOL    HW249251   7.889   9.993   6.904 -0.2108  0.1750  0.7378
12678SOL     OW49252   4.245   1.779   0.236  0.2910 -0.2702  0.1845
12678SOL    HW149253   4.172   1.836   0.197  1.2746  0.3726 -0.7203
12678SOL    HW249254   4.272   1.815   0.325 -0.6126 -0.6156  0.6086
12679SOL     OW49255   7.628   2.600   5.312 -0.6560 -0.3596  0.3357
12679SOL    HW149256   7.682   2.566   5.236  1.3785  1.4792  0.9353
12679SOL    HW249257   7.597   2.693   5.294 -0.6278 -0.1083  1.5129
12680SOL     OW49258   8.115   1.829   3.883  0.6216 -0.2788 -0.3272
12680SOL    HW149259   8.174   1.800   3.958 -0.4842 -0.9943  0.2891
12680SOL    HW249260   8.036   1.878   3.921 -0.3035 -1.2579 -0.9604
12681SOL     OW49261   6.681   5.087   0.522 -1.0300 -0.0930  0.6776
12681SOL    HW149262   6.716   5.059   0.611 -0.6526  0.8543  0.8391
12681SOL    HW249263   6.656   5.184   0.526  0.3726  0.3478 -0.6483
12682SOL     OW49264   6.018   5.380   0.167  0.2062  0.6099  0.1025
12682SOL    HW149265   5.972   5.297   0.199 -1.2900  0.9584 -1.0985
12682SOL    HW249266   6.106   5.388   0.212 -0.6623 -0.3762  2.0475
12683SOL     OW49267   1.812   7.442   6.128  0.6135  0.2542 -0.6146
12683SOL    HW149268   1.780   7.433   6.034  0.9884 -0.5219 -0.6658
12683SOL    HW249269   1.758   7.513   6.174 -0.1558  0.0337 -1.1537
12684SOL     OW49270   9.069   9.829   2.303  0.1941 -0.0918  0.0611
12684SOL    HW149271   9.010   9.897   2.259  0.9748  0.4499 -0.1696
12684SOL    HW249272   9.152   9.874   2.336 -0.5639 -0.3912  2.4993
12685SOL     OW49273   6.371   5.510   0.015 -0.3509 -0.0138  0.1910
12685SOL    HW149274   6.413   5.423   0.038 -0.4506 -0.3171 -0.7585
12685SOL    HW249275   6.301   5.533   0.083  0.1268 -0.3599  0.7936
12686SOL     OW49276   2.833   5.476   5.566  0.4510  0.6837  0.0710
12686SOL    HW149277   2.897   5.429   5.506  0.2007  0.3851  0.0369
12686SOL    HW249278   2.790   5.410   5.628 -0.0163  0.8406 -0.0819
12687SOL     OW49279   4.625   4.596   3.815  0.0635  0.2090 -0.2709
12687SOL    HW149280   4.598   4.500   3.801  1.1335 -0.1795  0.2450
12687SOL    HW249281   4.546   4.655   3.801 -0.6472 -0.7654 -0.4528
12688SOL     OW49282   2.942   6.558   0.155  0.0998  0.0558  0.5625
12688SOL    HW149283   2.881   6.527   0.228 -0.9516 -0.6362 -0.5921
12688SOL    HW249284   2.889   6.576   0.072  1.7122 -2.7730 -1.1794
12689SOL     OW49285   9.016   5.557   1.012  0.3017 -0.4929 -0.1249
12689SOL    HW149286   9.086   5.548   0.942 -0.1242  0.9369 -0.7691
12689SOL    HW249287   8.983   5.652   1.014 -1.3232 -1.0473  0.4352
12690SOL     OW49288   1.959   6.529   2.148 -0.3968  0.0681 -0.2978
12690SOL    HW149289   1.949   6.618   2.192  1.3997 -0.6292  1.5697
12690SOL    HW249290   1.983   6.543   2.052  0.8628  1.6075  0.2124
12691SOL     OW49291   8.090   5.546   0.100  0.2891 -0.3948  0.1016
12691SOL    HW149292   8.134   5.465   0.138  0.2758 -1.1567 -1.4354
12691SOL    HW249293   8.142   5.578   0.021  0.1049  0.9033  0.5032
12692SOL     OW49294   1.836   2.368   6.080  0.3328 -0.5963  0.0736
12692SOL    HW149295   1.808   2.425   6.003  1.2975  0.1513  0.2649
12692SOL    HW249296   1.936   2.363   6.084  0.2747 -1.7898  0.4369
12693SOL     OW49297   7.477   9.213   6.798  0.3091  0.2575  0.1501
12693SOL    HW149298   7.426   9.157   6.733 -0.6115  0.8316  0.3834
12693SOL    HW249299   7.418   9.283   6.836  1.6454  1.9163 -0.7249
12694SOL     OW49300   7.261   1.566   1.296 -0.2772  0.3046  0.2281
12694SOL    HW149301   7.212   1.642   1.339  1.3491  0.2237  2.3108
12694SOL    HW249302   7.204   1.484   1.299 -0.0698  0.2068  2.6529
12695SOL     OW49303   5.725   0.385   7.026 -0.1574 -0.7942 -0.5205
12695SOL    HW149304   5.684   0.469   6.991  0.2046 -0.9818 -1.3899
12695SOL    HW249305   5.730   0.317   6.953  0.8157 -1.1050 -0.1677
12696SOL     OW49306   7.751   7.758   1.802 -0.1726 -0.1382 -0.4211
12696SOL    HW149307   7.734   7.732   1.897  1.0468  1.0962  0.1564
12696SOL    HW249308   7.808   7.689   1.758 -0.3406 -0.4730 -0.1086
12697SOL     OW49309   7.497   0.599   3.107 -0.3855  0.6244 -0.0986
12697SOL    HW149310   7.412   0.650   3.122 -0.4870  0.6937 -0.9007
12697SOL    HW249311   7.475   0.506   3.079 -0.2050  0.8587 -1.0454
12698SOL     OW49312   2.950   6.964   0.610 -0.0543  0.1058 -0.1810
12698SOL    HW149313   2.978   6.955   0.705 -1.6215 -2.3600  0.0748
12698SOL    HW249314   2.984   6.887   0.557 -0.3535  0.7564 -1.3494
12699SOL     OW49315   4.470   0.935   2.033  0.3666 -0.2402  0.5461
12699SOL    HW149316   4.485   0.853   2.089 -0.2380  0.1555  1.2923
12699SOL    HW249317   4.509   1.014   2.080  1.8159 -0.2425 -0.6327
12700SOL     OW49318   1.622   1.769   2.425 -0.2862 -0.1609 -0.5827
12700SOL    HW149319   1.561   1.690   2.435 -0.0930 -0.3946 -1.2262
12700SOL    HW249320   1.666   1.766   2.335  0.3606  0.2282 -0.2801
12701SOL     OW49321   2.262   3.849   5.919 -0.0476  0.2178  0.4840
12701SOL    HW149322   2.219   3.803   5.996  0.8594 -1.5975 -0.0617
12701SOL    HW249323   2.345   3.799   5.892  0.0367  1.2207 -1.2055
12702SOL     OW49324   3.182   1.886   6.101  0.2191  0.4855  0.1021
12702SOL    HW149325   3.247   1.961   6.111  1.2544 -0.4129  0.1680
12702SOL    HW249326   3.117   1.888   6.177  0.3781  1.1807  0.2194
12703SOL     OW49327   6.612   5.204   1.541 -0.6127 -0.0820  0.2554
12703SOL    HW149328   6.593   5.222   1.444 -0.0327  2.1206  0.5264
12703SOL    HW249329   6.564   5.271   1.597  0.6924 -0.1040  1.4044
12704SOL     OW49330   5.602   8.868   4.087  0.4413 -0.1741 -0.1432
12704SOL    HW149331   5.683   8.809   4.094  0.5518 -0.0865 -0.6204
12704SOL    HW249332   5.610   8.944   4.152  0.0461 -0.9762  0.8427
12705SOL     OW49333   9.987   0.868   0.771 -0.0246  0.3089 -0.0660
12705SOL    HW149334   9.920   0.848   0.843  0.5947  1.5140  0.8701
12705SOL    HW249335  10.017   0.963   0.779  2.1261 -0.3195 -0.1853
12706SOL     OW49336   3.253   0.241   1.663  0.0944 -0.0505  0.1812
12706SOL    HW149337   3.201   0.304   1.606  1.5211  1.2081  0.2213
12706SOL    HW249338   3.280   0.288   1.748 -2.5428 -2.0703  2.2216
12707SOL     OW49339   0.855   7.562   4.962  0.0049  0.5012 -0.0577
12707SOL    HW149340   0.790   7.507   5.015 -0.9717  0.4147 -1.3234
12707SOL    HW249341   0.810   7.646   4.932  0.6452  0.6821 -0.5201
12708SOL     OW49342   7.328   0.768   5.933  0.0126  0.4018  0.2050
12708SOL    HW149343   7.250   0.736   5.879  0.4508  1.3997 -1.0459
12708SOL    HW249344   7.330   0.868   5.932  0.9856  0.3919  0.7048
12709SOL     OW49345   8.855   7.027   3.374 -0.1551  0.2451 -0.4530
12709SOL    HW149346   8.884   7.017   3.469 -2.2815  0.2353  0.2201
12709SOL    HW249347   8.917   6.975   3.314  0.9507 -0.0765  0.9592
12710SOL     OW49348   4.560   2.165   1.486 -0.0334  0.1440  0.3024
12710SOL    HW149349   4.643   2.206   1.447  0.0639 -1.0445 -0.7798
12710SOL    HW249350   4.486   2.171   1.419 -0.2745 -0.5715  0.5017
12711SOL     OW49351   3.793   2.978   5.593  0.5675  0.0410  0.0839
12711SOL    HW149352   3.719   2.999   5.529 -1.2158 -4.7579  0.3679
12711SOL    HW249353   3.876   2.955   5.542  0.2971  0.1957 -0.4232
12712SOL     OW49354   9.295   8.838   6.530  0.0344 -0.5847 -0.3358
12712SOL    HW149355   9.271   8.898   6.454  0.6436 -1.1392 -0.9626
12712SOL    HW249356   9.394   8.832   6.539 -0.0355  0.3428  1.1925
12713SOL     OW49357   2.968   8.177   2.227 -0.2558 -0.7244 -0.3189
12713SOL    HW149358   3.060   8.150   2.199 -0.0531  0.1574 -0.5200
12713SOL    HW249359   2.912   8.195   2.146  0.4543  2.2327 -0.2119
12714SOL     OW49360   7.749   6.242   1.204  0.8169 -0.1597 -0.3550
12714SOL    HW149361   7.707   6.298   1.132  1.4142 -2.3942 -2.5220
12714SOL    HW249362   7.823   6.294   1.247  0.1907  1.3712 -1.0567
12715SOL     OW49363   6.449   7.792   4.806  0.1908 -0.2608  0.4489
12715SOL    HW149364   6.536   7.746   4.823 -0.5645 -0.7903  3.1204
12715SOL    HW249365   6.376   7.744   4.855 -1.7323 -0.1674 -2.2035
12716SOL     OW49366   0.984   1.847   3.716 -1.0564  0.3637 -0.3225
12716SOL    HW149367   1.044   1.923   3.742  0.0181  0.2940 -2.5272
12716SOL    HW249368   0.889   1.879   3.712 -0.8569  1.1062  0.6344
12717SOL     OW49369   4.659   0.028   4.424  0.0616 -0.1371  0.0298
12717SOL    HW149370   4.664   0.125   4.448 -0.5197  0.0576 -0.6263
12717SOL    HW249371   4.722   0.009   4.349  0.4341 -0.3395  0.3935
12718SOL     OW49372   1.801   8.588   5.906  0.4444  0.3116  0.1220
12718SOL    HW149373   1.806   8.492   5.878  0.8673  0.5517 -0.6454
12718SOL    HW249374   1.750   8.595   5.991  0.6156 -0.6246  0.3093
12719SOL     OW49375   0.514   9.322   4.695  0.1737 -0.2816 -0.3258
12719SOL    HW149376   0.495   9.417   4.669  4.2752  0.8612  0.5083
12719SOL    HW249377   0.504   9.263   4.615 -1.0981  1.0155 -1.1655
12720SOL     OW49378   4.062   5.587   3.202  0.1397  0.5331 -0.5486
12720SOL    HW149379   4.084   5.536   3.285 -1.0277 -1.3020 -1.3431
12720SOL    HW249380   4.032   5.524   3.130 -1.5309  2.3419 -1.5079
12721SOL     OW49381   5.546   1.990   4.882  0.1050  1.1180 -0.1600
12721SOL    HW149382   5.478   1.995   4.956 -0.2172  0.6973 -0.4273
12721SOL    HW249383   5.601   2.073   4.883  0.2022  1.0498  0.6527
12722SOL     OW49384   4.329   0.123   1.845  0.1916 -0.5168 -0.2048
12722SOL    HW149385   4.347   0.048   1.781 -2.2949  0.0094 -1.5715
12722SOL    HW249386   4.280   0.196   1.798 -0.4259  0.5074  1.9636
12723SOL     OW49387   5.991   9.985   3.542 -0.2699 -0.2126  0.2186
12723SOL    HW149388   5.954   9.939   3.623  0.3196 -2.1419 -0.5685
12723SOL    HW249389   5.916  10.005   3.478 -0.7167  1.1930  1.1664
12724SOL     OW49390   1.230   7.023   5.391  0.0661  0.0806  0.2885
12724SOL    HW149391   1.171   7.080   5.448  0.0007  0.2559  0.0473
12724SOL    HW249392   1.248   6.936   5.438  0.5149  0.4720  0.8412
12725SOL     OW49393   8.618   9.178   2.939 -0.1802  0.1062  0.3962
12725SOL    HW149394   8.619   9.126   3.024 -1.6706 -1.1359 -0.3172
12725SOL    HW249395   8.524   9.207   2.919  0.1204  0.1991 -0.9250
12726SOL     OW49396   5.216   2.544   2.454  0.1053 -0.7301  0.0535
12726SOL    HW149397   5.126   2.566   2.490 -0.0450  0.3746 -0.9729
12726SOL    HW249398   5.245   2.616   2.390  0.2853 -2.7162 -2.1738
12727SOL     OW49399   4.135   5.515   2.665  0.3214  0.0645 -0.5626
12727SOL    HW149400   4.208   5.507   2.732  0.4420  1.5625 -0.4940
12727SOL    HW249401   4.078   5.433   2.667 -0.2446  0.4922  2.0216
12728SOL     OW49402   1.773   6.389   6.288 -0.6423 -0.4420 -0.0469
12728SOL    HW149403   1.826   6.474   6.279 -2.8924  0.9429 -0.7781
12728SOL    HW249404   1.727   6.389   6.377 -0.0217 -1.2796  0.2759
12729SOL     OW49405   0.093   4.791   1.227  0.0053  0.5169 -0.5107
12729SOL    HW149406   0.104   4.823   1.321  0.6889 -1.9239  0.2664
12729SOL    HW249407   0.154   4.714   1.210  1.1870  2.0001 -3.5281
12730SOL     OW49408   7.381   4.727   2.197  0.0111 -0.4553 -0.1023
12730SOL    HW149409   7.439   4.741   2.277 -0.3200 -1.4324  0.3150
12730SOL    HW249410   7.437   4.721   2.115  0.5568 -2.0685  0.3757
12731SOL     OW49411   8.840   5.735   2.984 -1.1078  0.3155 -0.3769
12731SOL    HW149412   8.815   5.771   2.894  0.0320  0.7556 -0.5270
12731SOL    HW249413   8.848   5.811   3.049 -2.9844 -0.0936  0.3779
12732SOL     OW49414   9.805   3.059   5.957  0.5380  0.1435  0.2650
12732SOL    HW149415   9.819   3.089   5.863  0.4180  0.0820  0.2270
12732SOL    HW249416   9.879   3.093   6.015 -0.2340  1.5445  0.4552
12733SOL     OW49417   0.524   5.660   2.504 -0.1514  0.2797 -0.4711
12733SOL    HW149418   0.463   5.714   2.446 -0.3386  0.4651 -0.1050
12733SOL    HW249419   0.616   5.700   2.502 -0.3379  0.7385 -0.0357
12734SOL     OW49420   0.642   1.040   6.409 -0.6607  0.5285  0.4846
12734SOL    HW149421   0.683   1.067   6.497  0.2530  0.2597  0.1467
12734SOL    HW249422   0.714   1.008   6.347 -1.6983 -3.1165  1.0158
12735SOL     OW49423   9.175   7.469   4.426 -0.0023  0.4556  0.4215
12735SOL    HW149424   9.186   7.498   4.521 -1.1208  1.6722  0.1857
12735SOL    HW249425   9.254   7.500   4.373  1.0676 -1.0033  1.1186
12736SOL     OW49426   0.676   9.797   0.448 -0.4338  0.3530 -0.1753
12736SOL    HW149427   0.704   9.728   0.516  3.2931  2.0750  0.1721
12736SOL    HW249428   0.701   9.765   0.357 -0.1655  0.5593 -0.1731
12737SOL     OW49429   1.939   1.351   1.173  0.0611 -0.1478  0.1274
12737SOL    HW149430   1.924   1.414   1.249  2.0467  1.1358 -0.4963
12737SOL    HW249431   1.996   1.395   1.104 -0.0184 -2.0115 -1.1714
12738SOL     OW49432   4.931   2.257   1.107  0.7404  0.1915  0.0616
12738SOL    HW149433   5.029   2.275   1.115  0.7233  0.0330  0.6944
12738SOL    HW249434   4.893   2.310   1.031  0.7893  2.5465  1.5952
12739SOL     OW49435   7.204   3.025   4.531  0.3856 -0.2807  0.5868
12739SOL    HW149436   7.239   2.935   4.556  1.0385 -0.0387  0.5606
12739SOL    HW249437   7.113   3.016   4.490  0.0642 -0.8398  1.4182
12740SOL     OW49438   1.867   6.279   2.463  0.2747 -0.0602 -0.2336
12740SOL    HW149439   1.936   6.234   2.519  1.0108  0.8122 -0.4279
12740SOL    HW249440   1.889   6.264   2.366 -0.8468 -1.3464 -0.3039
12741SOL     OW49441   1.783   3.238   1.319  0.2884  0.0027 -0.3905
12741SOL    HW149442   1.715   3.311   1.324  1.3895  1.0648 -0.7930
12741SOL    HW249443   1.872   3.273   1.349  1.2690 -0.6219 -2.4839
12742SOL     OW49444   9.958   1.961   3.456 -0.3126 -0.0308  0.4461
12742SOL    HW149445   9.867   1.998   3.473  0.1116  1.6126 -0.7569
12742SOL    HW249446  10.011   2.027   3.403  0.7535 -2.0162 -0.9815
12743SOL     OW49447   5.220   4.978   0.930 -0.3691  0.0973 -0.4973
12743SOL    HW149448   5.294   5.029   0.975 -1.0680  1.2897 -0.6878
12743SOL    HW249449   5.239   4.972   0.832 -0.0874 -0.3757 -0.4189
12744SOL     OW49450   7.707   4.556   2.983 -0.1729 -0.0335  0.2525
12744SOL    HW149451   7.755   4.481   2.937 -0.0891  0.0913  0.1351
12744SOL    HW249452   7.689   4.531   3.078 -1.8713 -0.9937 -0.3087
12745SOL     OW49453   3.493   1.835   2.755 -0.2189  0.1250  0.4311
12745SOL    HW149454   3.503   1.928   2.791  0.0198 -0.1793  1.1673
12745SOL    HW249455   3.567   1.815   2.690  0.9859 -0.2986  1.9084
12746SOL     OW49456   8.553   3.600   4.443  0.4028 -0.6311  0.1168
12746SOL    HW149457   8.484   3.531   4.422 -0.3353  0.0597  0.2603
12746SOL    HW249458   8.631   3.588   4.382 -0.2156 -0.8707 -0.6389
12747SOL     OW49459   3.697   0.985   6.174  0.0079  0.6928 -0.1713
12747SOL    HW149460   3.758   0.907   6.187 -1.0294 -0.5009 -2.1511
12747SOL    HW249461   3.726   1.036   6.093  0.8076  2.5235  1.2304
12748SOL     OW49462   8.156   5.457   4.893 -0.1421  0.3212  0.3388
12748SOL    HW149463   8.097   5.414   4.825 -1.1851  1.8395  0.2583
12748SOL    HW249464   8.214   5.388   4.936 -1.7165 -1.1342  0.1519
12749SOL     OW49465   1.455   2.279   2.341  0.2460  0.4657 -0.3224
12749SOL    HW149466   1.519   2.278   2.264 -0.0369 -1.0579 -0.5494
12749SOL    HW249467   1.470   2.198   2.397 -1.1026  0.3876 -0.0647
12750SOL     OW49468   5.070   0.255   3.917  0.2574 -0.1669 -0.6145
12750SOL    HW149469   5.030   0.346   3.927  1.3111  0.1301  1.1688
12750SOL    HW249470   5.090   0.237   3.821 -0.4845  1.2639 -1.0368
12751SOL     OW49471   3.451   9.877   2.567  0.0257 -0.2712 -0.0055
12751SOL    HW149472   3.363   9.868   2.614  0.0777 -0.3468  0.0770
12751SOL    HW249473   3.439   9.932   2.484 -0.5255 -2.0792 -1.1525
12752SOL     OW49474   9.111   2.819   4.373 -0.2906 -0.0778 -0.5338
12752SOL    HW149475   9.045   2.843   4.301 -1.0494  1.6022  0.6697
12752SOL    HW249476   9.199   2.797   4.331 -0.5550  1.4241 -1.9668
12753SOL     OW49477   8.304   0.838   5.579  0.5032  1.0987 -0.1342
12753SOL    HW149478   8.288   0.914   5.641  0.0187  0.3453  0.6803
12753SOL    HW249479   8.392   0.796   5.599 -0.8004 -0.8048  1.8506
12754SOL     OW49480   6.877   9.835   2.490 -0.1915  0.4926  0.9822
12754SOL    HW149481   6.915   9.744   2.471 -0.8335 -0.2345  2.9815
12754SOL    HW249482   6.914   9.869   2.577 -0.3595  1.9204  0.5058
12755SOL     OW49483   0.537   6.852   2.184 -0.0236  0.3701  0.2079
12755SOL    HW149484   0.486   6.820   2.263  2.7723  0.2957  2.0601
12755SOL    HW249485   0.498   6.813   2.101 -0.3796 -3.1275  1.9059
12756SOL     OW49486   5.239   1.090   5.934  0.2610  1.0093 -0.1122
12756SOL    HW149487   5.312   1.034   5.894  0.8547  2.3583 -0.9515
12756SOL    HW249488   5.271   1.129   6.020  0.3223  1.1013 -0.1762
12757SOL     OW49489   8.243   0.733   4.950  0.9035 -0.0399  0.4946
12757SOL    HW149490   8.154   0.741   4.905  1.4638 -1.4925 -0.9146
12757SOL    HW249491   8.250   0.643   4.993  1.6633  0.1024  0.6708
12758SOL     OW49492   2.428   7.152   4.024 -0.8222  0.2081 -0.6168
12758SOL    HW149493   2.454   7.215   4.096 -1.6948  0.0327 -0.1500
12758SOL    HW249494   2.494   7.077   4.019 -1.1637 -0.1658  0.4818
12759SOL     OW49495   1.155   1.341   0.643 -0.5711  0.5916  0.3327
12759SOL    HW149496   1.123   1.327   0.737 -3.3442  2.2567 -0.2815
12759SOL    HW249497   1.213   1.422   0.639 -0.1354  0.2993  0.6594
12760SOL     OW49498   2.727   9.854   1.505 -0.0629 -0.5185 -0.4948
12760SOL    HW149499   2.770   9.778   1.554  0.4265 -0.7771 -1.3322
12760SOL    HW249500   2.692   9.822   1.417 -0.8831 -0.0302 -0.3542
12761SOL     OW49501   8.339   8.086   3.939 -0.7536 -0.1301 -0.2961
12761SOL    HW149502   8.346   8.025   3.860 -0.1545  0.5096 -0.7358
12761SOL    HW249503   8.422   8.140   3.948  0.3675 -2.1764  2.4192
12762SOL     OW49504   7.188   7.494   4.804  0.1432 -0.1924  0.2532
12762SOL    HW149505   7.212   7.575   4.858  0.6528  0.6456 -1.1869
12762SOL    HW249506   7.105   7.513   4.752  1.1386 -0.0148 -1.2939
12763SOL     OW49507   8.348   1.325   0.656 -0.2301  0.0543  0.2193
12763SOL    HW149508   8.413   1.372   0.597  0.2828  1.4300  1.8657
12763SOL    HW249509   8.285   1.271   0.599  0.0572  1.5928 -1.6091
12764SOL     OW49510   8.710   7.059   1.198 -0.4733  0.4677 -0.6093
12764SOL    HW149511   8.765   7.098   1.272  1.0291 -3.8158  0.6233
12764SOL    HW249512   8.763   7.057   1.114 -0.7400  1.4288 -0.8170
12765SOL     OW49513   2.928   4.662   1.652 -0.4433  0.5397  0.2451
12765SOL    HW149514   2.904   4.565   1.656 -1.3068  0.8022  4.5008
12765SOL    HW249515   2.844   4.717   1.648 -0.0795  1.1626  1.0883
12766SOL     OW49516   0.612   1.295   4.006 -0.2198 -0.2046  0.1194
12766SOL    HW149517   0.651   1.384   4.026 -1.0160 -0.0313  0.8862
12766SOL    HW249518   0.655   1.258   3.923  0.9408  0.3648  0.4612
12767SOL     OW49519   8.578   8.657   0.527  0.3652  0.3448 -0.3307
12767SOL    HW149520   8.628   8.711   0.460  1.6238 -0.5606 -0.1440
12767SOL    HW249521   8.502   8.711   0.563 -0.1274  0.9441 -2.2246
12768SOL     OW49522   7.190   2.470   0.249 -0.2228 -0.1238  0.5082
12768SOL    HW149523   7.181   2.556   0.198  1.2886 -1.0686 -1.4055
12768SOL    HW249524   7.206   2.395   0.185 -0.9949 -1.7689  2.2011
12769SOL     OW49525   2.006   5.071   4.206  0.0562  0.5222 -0.2949
12769SOL    HW149526   1.950   5.110   4.279  1.2175  1.1004  0.3085
12769SOL    HW249527   2.052   5.145   4.156  0.2576  0.0673 -0.7928
12770SOL     OW49528   9.440   0.905   2.897 -0.6496  0.1430 -0.1876
12770SOL    HW149529   9.350   0.901   2.941 -0.4578  1.3164  0.3111
12770SOL    HW249530   9.503   0.958   2.953  0.0360  0.3331 -1.1192
12771SOL     OW49531   0.128   7.955   4.966 -0.0568  0.3672 -0.0701
12771SOL    HW149532   0.164   7.932   4.876  0.2933  0.0602  0.1454
12771SOL    HW249533   0.196   8.009   5.016  0.3371 -0.6911  0.5495
12772SOL     OW49534   7.826   1.742   3.622 -0.1081  0.4511  0.8139
12772SOL    HW149535   7.845   1.681   3.699  2.9846  0.6916  0.3384
12772SOL    HW249536   7.833   1.837   3.653 -2.2836  0.5686  0.9727
12773SOL     OW49537   4.488   5.716   1.877 -0.0856 -0.0565  0.1770
12773SOL    HW149538   4.573   5.712   1.929 -1.2231 -1.9474  1.9876
12773SOL    HW249539   4.484   5.801   1.824  2.0868  0.8874  1.4958
12774SOL     OW49540   0.131   8.730   0.913  0.0377  0.4877 -0.5886
12774SOL    HW149541   0.072   8.682   0.977  0.8241 -2.4664 -1.9835
12774SOL    HW249542   0.208   8.771   0.962 -0.5328  0.1201  0.6119
12775SOL     OW49543   8.916   5.200   1.281 -0.0852  0.3081 -0.1376
12775SOL    HW149544   8.899   5.251   1.365 -0.7755 -0.7883  0.3988
12775SOL    HW249545   8.830   5.163   1.247  0.1534  0.9727 -1.4812
12776SOL     OW49546   1.378   4.007   3.468 -0.5705 -0.5307  0.4155
12776SOL    HW149547   1.472   3.980   3.447  0.2328  0.4370  2.6277
12776SOL    HW249548   1.374   4.106   3.481 -1.5064 -0.7821  2.2076
12777SOL     OW49549   9.331   9.004   2.532 -0.1997  0.2260 -0.3514
12777SOL    HW149550   9.278   9.035   2.611  1.3885 -0.9447  1.2189
12777SOL    HW249551   9.299   8.913   2.504 -1.8046  1.2885 -2.0752
12778SOL     OW49552   5.545   7.977   3.475  0.0209  0.1448 -0.1395
12778SOL    HW149553   5.462   8.031   3.491 -0.4806 -0.9386  1.0908
12778SOL    HW249554   5.605   7.986   3.554  0.0649 -0.8416 -0.0544
12779SOL     OW49555   1.689   2.683   4.964  0.6938 -0.0043  0.1909
12779SOL    HW149556   1.773   2.735   4.981  0.8220 -0.0983 -0.1702
12779SOL    HW249557   1.643   2.719   4.883  0.1318  0.3665  0.6689
12780SOL     OW49558   4.763   4.741   2.167  0.5270 -0.5740  0.1754
12780SOL    HW149559   4.757   4.653   2.120 -1.2412 -0.3734 -0.0096
12780SOL    HW249560   4.700   4.742   2.245  0.6052  0.4838  0.2405
12781SOL     OW49561   9.126   6.971   6.041  0.1044 -0.0327 -0.0968
12781SOL    HW149562   9.063   6.917   5.986 -0.4036  0.9998 -0.5440
12781SOL    HW249563   9.081   7.055   6.072  0.7269 -0.0790  0.9833
12782SOL     OW49564   2.916   0.432   5.421  0.2470  0.1353 -0.5736
12782SOL    HW149565   2.977   0.353   5.431 -0.4347 -0.4532 -1.0306
12782SOL    HW249566   2.969   0.516   5.433  1.2595 -0.3485 -1.4731
12783SOL     OW49567   4.302   2.538   4.674 -0.5737 -0.0802  0.0158
12783SOL    HW149568   4.383   2.596   4.685 -0.3533 -0.2280 -0.7981
12783SOL    HW249569   4.238   2.557   4.748 -0.4864  1.1779 -0.2126
12784SOL     OW49570   0.430   7.038   6.094  0.4927 -0.5000  0.4116
12784SOL    HW149571   0.502   6.994   6.039  0.1310 -0.9341  0.2822
12784SOL    HW249572   0.382   6.968   6.147 -1.3416 -0.5166 -1.2405
12785SOL     OW49573   9.711   2.810   6.026 -0.0897 -0.4286  0.0718
12785SOL    HW149574   9.756   2.799   6.115 -1.8686 -0.1028  1.0419
12785SOL    HW249575   9.728   2.902   5.992 -0.8253  0.0294  0.9126
12786SOL     OW49576   5.751   0.099   5.992 -0.1719  0.4123 -0.4286
12786SOL    HW149577   5.843   0.133   5.976  0.1846  0.5308  1.8123
12786SOL    HW249578   5.747   0.001   5.969  0.6718  0.2614  0.0729
12787SOL     OW49579   7.233   1.089   6.777  0.1830  0.4816  0.3461
12787SOL    HW149580   7.262   1.151   6.850  1.3485  0.0433  0.2657
12787SOL    HW249581   7.266   1.124   6.689  0.0207  0.2470  0.1925
12788SOL     OW49582   3.731   3.785   2.770  0.8730  0.0453  0.4996
12788SOL    HW149583   3.761   3.759   2.862  1.7130 -0.0174  0.2080
12788SOL    HW249584   3.764   3.876   2.748  1.8621 -0.4963 -0.2828
12789SOL     OW49585   7.943   3.012   3.162  0.2174  0.2251  0.7465
12789SOL    HW149586   8.000   3.008   3.244 -0.1575 -1.0605  0.9534
12789SOL    HW249587   7.857   2.964   3.179  0.3367 -0.4771 -0.5620
12790SOL     OW49588   6.539   5.002   0.053  0.4096  0.6952  0.2244
12790SOL    HW149589   6.636   4.980   0.039  0.3192 -0.0874  0.8008
12790SOL    HW249590   6.490   4.992  -0.034  0.7076  0.3514  0.0939
12791SOL     OW49591   2.478   8.470   4.975 -0.0041  0.3535  0.7322
12791SOL    HW149592   2.389   8.443   5.013 -0.1815 -0.1344 -0.0047
12791SOL    HW249593   2.487   8.569   4.979  1.7880  0.1071  5.9850
12792SOL     OW49594   4.933   1.761   0.334 -0.0102  0.6818 -0.3196
12792SOL    HW149595   4.877   1.712   0.267  0.2359 -0.3694  0.2360
12792SOL    HW249596   4.876   1.823   0.387 -0.1342  1.8612 -1.8036
12793SOL     OW49597   4.981   6.254   0.331 -0.9208 -0.0298 -0.0642
12793SOL    HW149598   5.080   6.235   0.330 -0.8447  0.3487 -1.2962
12793SOL    HW249599   4.931   6.169   0.314 -0.7049  0.2011 -1.9843
12794SOL     OW49600   5.924   4.818   2.062 -0.2193 -0.7090  0.2489
12794SOL    HW149601   6.005   4.869   2.091 -0.0140 -2.3828  2.8204
12794SOL    HW249602   5.952   4.731   2.023 -0.7592 -1.6556  1.9118
12795SOL     OW49603   6.474   0.603   5.189  0.1944  0.0699  0.0871
12795SOL    HW149604   6.499   0.700   5.187  2.9430 -0.5898  1.6970
12795SOL    HW249605   6.513   0.557   5.109 -0.0339  0.0091  0.0093
12796SOL     OW49606   8.574   2.379   6.088 -0.0958  0.2821  0.4516
12796SOL    HW149607   8.606   2.437   6.164  0.4851 -0.6862  0.9517
12796SOL    HW249608   8.495   2.326   6.118 -0.4132  0.5493  0.0960
12797SOL     OW49609   5.217   0.968   4.413  0.3292  0.0640  0.1644
12797SOL    HW149610   5.246   1.032   4.483 -1.2592  0.5724  0.3845
12797SOL    HW249611   5.235   0.874   4.444  0.5290  0.3191  0.8246
12798SOL     OW49612   9.889   5.050   3.215 -0.6381 -0.6853 -0.1271
12798SOL    HW149613   9.971   5.011   3.256  0.3970  2.3293  0.7304
12798SOL    HW249614   9.820   5.066   3.286  0.4502  2.7499  0.2411
12799SOL     OW49615   7.571   1.256   4.432  0.2878 -0.3583 -0.2930
12799SOL    HW149616   7.567   1.171   4.379  1.1547  0.4832 -1.7462
12799SOL    HW249617   7.523   1.243   4.519 -1.0526 -1.8290 -1.2069
12800SOL     OW49618   9.087   6.113   2.725  0.1413 -0.0098 -0.3819
12800SOL    HW149619   9.150   6.065   2.664  0.6899 -0.3176  0.4083
12800SOL    HW249620   9.131   6.125   2.814 -0.8047  0.0505  0.0813
12801SOL     OW49621   8.481   8.539   3.370  0.1686 -0.1368 -0.8362
12801SOL    HW149622   8.508   8.469   3.436 -1.6417 -0.1670 -0.1136
12801SOL    HW249623   8.386   8.566   3.385  0.1631  0.9094 -2.5031
12802SOL     OW49624   9.440   4.187   3.151 -0.0891  0.2030  0.2740
12802SOL    HW149625   9.493   4.103   3.159  1.7260  1.2849 -0.1162
12802SOL    HW249626   9.409   4.198   3.056 -0.4085 -0.0747  0.3461
12803SOL     OW49627   1.567   0.619   0.831  0.2392 -0.0421 -0.0397
12803SOL    HW149628   1.596   0.601   0.737  1.0955  1.2234 -0.0197
12803SOL    HW249629   1.561   0.532   0.881 -0.1645 -0.7133 -1.2374
12804SOL     OW49630   5.054   1.426   0.598 -0.0536 -0.0425 -0.0952
12804SOL    HW149631   5.035   1.334   0.562  0.3103  0.1513 -0.7904
12804SOL    HW249632   5.075   1.420   0.695  2.1302 -0.9730 -0.6001
12805SOL     OW49633   9.875   5.800   4.262  0.4765  0.2954  0.3634
12805SOL    HW149634   9.863   5.825   4.166  0.6790 -2.2941 -0.3628
12805SOL    HW249635   9.861   5.702   4.273  0.9477  0.4818  2.9135
12806SOL     OW49636   8.898   6.865   2.621 -0.3684 -0.4239 -0.2449
12806SOL    HW149637   8.995   6.849   2.636 -0.5367 -0.2110  1.1853
12806SOL    HW249638   8.845   6.813   2.689 -1.0985  2.2429  1.2991
12807SOL     OW49639   3.486   4.978   3.999  0.6366 -0.1815  0.0504
12807SOL    HW149640   3.557   5.017   4.057  0.9207 -0.0822 -0.3623
12807SOL    HW249641   3.397   5.014   4.026  0.8976  0.7557 -0.3416
12808SOL     OW49642   2.277   7.281   4.727 -0.2301  0.0958 -0.2404
12808SOL    HW149643   2.223   7.201   4.753  0.8626 -0.9672 -1.1472
12808SOL    HW249644   2.328   7.314   4.807 -0.9914  0.1311  0.2298
12809SOL     OW49645   9.689   9.313   0.415 -0.5967  0.0140 -0.0152
12809SOL    HW149646   9.724   9.249   0.484 -1.1318 -1.6940 -1.2851
12809SOL    HW249647   9.765   9.357   0.368 -0.2232  1.9054  2.2702
12810SOL     OW49648   6.975   0.213   2.730  0.2745  0.1871 -0.1318
12810SOL    HW149649   6.887   0.251   2.701  0.3453 -0.7438 -1.6124
12810SOL    HW249650   6.985   0.225   2.829 -2.5591 -1.7715  0.4875
12811SOL     OW49651   7.524   9.442   2.788 -0.2093 -0.8582 -0.3783
12811SOL    HW149652   7.563   9.350   2.778  1.2621 -0.5674  2.3054
12811SOL    HW249653   7.546   9.496   2.707  0.4337 -2.3104 -1.2106
12812SOL     OW49654   8.635   7.225   0.762  0.0108 -0.3375 -0.6189
12812SOL    HW149655   8.695   7.304   0.746  1.6634 -1.7283 -1.4561
12812SOL    HW249656   8.659   7.182   0.849  0.1889 -0.8704 -0.9323
12813SOL     OW49657   8.767   5.669   1.795 -0.7364 -0.4064 -1.0339
12813SOL    HW149658   8.786   5.711   1.884 -1.4122 -0.1419 -1.0187
12813SOL    HW249659   8.851   5.626   1.761 -0.3328 -0.0291 -0.5270
12814SOL     OW49660   0.140   8.449   3.419 -0.4626 -0.7888  0.0962
12814SOL    HW149661   0.150   8.426   3.323  1.5711 -1.9300  0.5410
12814SOL    HW249662   0.187   8.535   3.438  0.3610 -1.2861  0.3351
12815SOL     OW49663   5.343   1.825   1.973  0.4302 -0.5244 -0.1844
12815SOL    HW149664   5.326   1.885   1.894  1.6107 -1.4844 -1.1806
12815SOL    HW249665   5.272   1.841   2.042  0.0588  1.1860 -0.9164
12816SOL     OW49666   8.398   9.190   2.065  0.3869  0.2514 -0.0414
12816SOL    HW149667   8.368   9.184   1.969 -0.1113  0.9039  0.0707
12816SOL    HW249668   8.444   9.278   2.080  1.1181 -0.1639  0.1331
12817SOL     OW49669   1.419   5.995   5.317  0.3710 -0.3397 -0.0795
12817SOL    HW149670   1.424   5.901   5.283 -1.0642 -0.0697 -1.0748
12817SOL    HW249671   1.436   5.996   5.416  1.5136 -1.5019 -0.2528
12818SOL     OW49672   4.299   1.575   6.481 -0.3774  0.4312 -0.6938
12818SOL    HW149673   4.284   1.477   6.469 -0.6932  0.5795 -1.5946
12818SOL    HW249674   4.388   1.591   6.522  0.4380 -0.1741 -2.1776
12819SOL     OW49675   4.951   2.538   3.192 -0.4044 -0.2655  0.0361
12819SOL    HW149676   5.015   2.612   3.211  0.0116 -0.1545 -1.7835
12819SOL    HW249677   4.859   2.566   3.220 -0.2112  0.8544 -0.4432
12820SOL     OW49678   8.983   2.771   0.504 -0.1459 -0.1529  0.1197
12820SOL    HW149679   9.003   2.841   0.435  1.4058 -0.9302 -0.2489
12820SOL    HW249680   8.889   2.781   0.536  0.1447  2.2999  0.2984
12821SOL     OW49681   8.590   5.984   4.041 -0.0697 -0.6429 -0.6207
12821SOL    HW149682   8.620   5.901   4.088 -1.7398 -1.2480 -0.5923
12821SOL    HW249683   8.490   5.992   4.048 -0.0353  0.7786 -1.5860
12822SOL     OW49684   1.041   1.701   2.413 -0.0781 -0.0024 -0.5083
12822SOL    HW149685   1.108   1.629   2.395  0.2267 -0.0939  0.9618
12822SOL    HW249686   1.036   1.719   2.511  1.8140  3.8764 -1.0324
12823SOL     OW49687   0.181   0.537   1.155  0.2647  0.2135  0.2991
12823SOL    HW149688   0.207   0.518   1.061  0.0138  0.5689  0.1570
12823SOL    HW249689   0.085   0.511   1.169  0.1298  0.7074  0.2964
12824SOL     OW49690   0.939   7.731   3.768 -0.0718  0.1065  0.6219
12824SOL    HW149691   0.879   7.676   3.710  0.8654 -2.3529  1.9239
12824SOL    HW249692   0.886   7.805   3.810 -1.0033  1.2289 -2.3933
12825SOL     OW49693   8.394   6.907   5.405 -0.4888  0.0729 -0.3629
12825SOL    HW149694   8.398   6.859   5.317  0.6498  1.9576 -1.4042
12825SOL    HW249695   8.476   6.965   5.414 -1.9768  2.0907  0.6214
12826SOL     OW49696   9.383   8.660   1.242  0.4050 -0.4288  0.1425
12826SOL    HW149697   9.456   8.729   1.239  0.0358  0.0369  1.3673
12826SOL    HW249698   9.354   8.638   1.149 -0.9933  2.6954 -0.2320
12827SOL     OW49699   0.791   1.560   4.179  0.1729  0.3733  0.0996
12827SOL    HW149700   0.870   1.582   4.123  1.0372  0.3061  1.2695
12827SOL    HW249701   0.721   1.631   4.168  0.3872  0.4168 -0.9565
12828SOL     OW49702   9.781   6.325   1.680  0.0221  0.0331  0.2892
12828SOL    HW149703   9.704   6.266   1.703  0.2714 -0.6178 -0.5430
12828SOL    HW249704   9.843   6.331   1.759 -0.8608  0.5438  0.9520
12829SOL     OW49705   1.364   9.366   6.045  0.5627  0.5886 -0.0375
12829SOL    HW149706   1.296   9.418   6.096  0.4707 -0.3826  0.8554
12829SOL    HW249707   1.426   9.428   5.998 -0.3444  1.4856 -0.0683
12830SOL     OW49708   4.202   3.598   5.827  0.1601  0.4319 -0.4742
12830SOL    HW149709   4.236   3.552   5.744  0.3646  1.2460 -0.8501
12830SOL    HW249710   4.250   3.685   5.838 -1.7710  1.6006 -0.9979
12831SOL     OW49711   6.703   1.085   0.821  0.1025 -0.3408  0.6507
12831SOL    HW149712   6.713   1.151   0.896  1.8737  0.6262 -0.4012
12831SOL    HW249713   6.736   1.127   0.736 -0.2547 -2.0384 -0.3377
12832SOL     OW49714   3.117   5.917   0.429 -0.1203 -0.4123 -0.2362
12832SOL    HW149715   3.152   5.993   0.483  0.1293 -0.8230  0.1874
12832SOL    HW249716   3.154   5.922   0.336  0.1867 -0.2273 -0.1043
12833SOL     OW49717   2.585   1.115   4.373  0.3457  0.7326  0.5094
12833SOL    HW149718   2.538   1.167   4.302  0.3420  1.7030  1.1992
12833SOL    HW249719   2.662   1.169   4.408 -0.3308  0.7662  2.0128
12834SOL     OW49720   4.675   3.332   5.343 -0.2605  0.0901  0.4049
12834SOL    HW149721   4.726   3.305   5.261 -1.5776 -1.0551 -0.0427
12834SOL    HW249722   4.740   3.351   5.417  0.8147 -1.6874 -0.0517
12835SOL     OW49723   1.242   2.924   1.452  0.7627 -0.5932  0.3064
12835SOL    HW149724   1.268   3.010   1.496 -1.8378  0.7724 -0.7164
12835SOL    HW249725   1.188   2.870   1.516 -1.0228  0.3568 -0.3554
12836SOL     OW49726   6.334   4.185   0.824 -0.0205  0.0517 -0.4017
12836SOL    HW149727   6.306   4.104   0.876  1.0437 -0.4061 -0.5351
12836SOL    HW249728   6.254   4.224   0.777 -0.3803 -1.4215 -1.0413
12837SOL     OW49729   5.662   9.039   2.922 -0.6347  0.0313  0.0894
12837SOL    HW149730   5.654   9.128   2.877  0.5187  0.0389 -0.1295
12837SOL    HW249731   5.601   9.035   3.000 -1.9547  0.3786 -0.9087
12838SOL     OW49732   8.414   7.274   5.302 -0.0976 -0.3005  0.1055
12838SOL    HW149733   8.318   7.302   5.297 -0.4153 -1.2914  0.5835
12838SOL    HW249734   8.448   7.285   5.396 -0.1261 -1.1801  0.2231
12839SOL     OW49735   8.682   6.051   5.665  0.0427  0.8659  0.0851
12839SOL    HW149736   8.691   5.955   5.637  2.5713  0.9622  0.4785
12839SOL    HW249737   8.658   6.056   5.762 -2.1703  0.6459 -0.4053
12840SOL     OW49738   9.410   4.138   4.709 -0.3488 -0.4483  0.0891
12840SOL    HW149739   9.504   4.152   4.740 -0.2812 -1.1450  0.1987
12840SOL    HW249740   9.366   4.069   4.766 -0.6472 -0.7623 -0.5152
12841SOL     OW49741   1.154   7.113   2.981  0.6149 -0.0972 -0.3471
12841SOL    HW149742   1.194   7.133   2.892  1.6471 -0.1475  0.0927
12841SOL    HW249743   1.058   7.141   2.982  1.2616  2.2128 -0.6660
12842SOL     OW49744   9.396   3.884   2.257  0.4170 -0.2162 -0.5496
12842SOL    HW149745   9.327   3.811   2.249  1.3270 -1.3306  1.3616
12842SOL    HW249746   9.483   3.844   2.285  1.2725  1.4721 -0.7473
12843SOL     OW49747   8.657   1.220   4.590 -0.0639 -0.2910  0.5454
12843SOL    HW149748   8.601   1.270   4.655 -0.0333 -1.3850  1.4284
12843SOL    HW249749   8.725   1.166   4.639 -0.5691 -1.7671 -0.3357
12844SOL     OW49750   9.013   4.552   5.075  0.0658  0.7104 -0.5425
12844SOL    HW149751   8.975   4.567   4.984 -0.8521 -0.1689 -0.3161
12844SOL    HW249752   8.940   4.526   5.138  0.9998 -0.7279 -0.0345
12845SOL     OW49753   6.306   0.496   2.506 -0.3566 -0.1794  0.5027
12845SOL    HW149754   6.271   0.418   2.558 -0.0281  0.3296  1.4994
12845SOL    HW249755   6.311   0.472   2.409  1.6103 -2.0879  1.0289
12846SOL     OW49756   0.498   7.444   0.729  0.5719  0.0093  0.1312
12846SOL    HW149757   0.504   7.480   0.636  1.0576 -0.2867  0.0448
12846SOL    HW249758   0.468   7.348   0.725 -0.7315  0.3987  0.3584
12847SOL     OW49759   9.693   1.455   4.851 -0.2968  1.0636 -0.1705
12847SOL    HW149760   9.748   1.460   4.767 -0.3130  0.5090 -0.2164
12847SOL    HW249761   9.692   1.360   4.884  2.0068  1.7480  1.9955
12848SOL     OW49762   6.966   2.471   4.073  0.2936 -0.0470  0.4563
12848SOL    HW149763   7.038   2.497   4.009  1.6040 -0.4089  1.7568
12848SOL    HW249764   6.906   2.550   4.089 -1.0181 -0.3906 -2.4058
12849SOL     OW49765   1.517   7.546   2.534 -0.0807 -0.6729  0.4953
12849SOL    HW149766   1.465   7.574   2.452  1.0170 -1.4396 -0.4731
12849SOL    HW249767   1.465   7.476   2.583 -0.8506 -0.0513  0.5875
12850SOL     OW49768   2.269   5.422   0.648 -0.3558  0.2230 -0.1906
12850SOL    HW149769   2.360   5.461   0.635 -0.5598  0.3225 -1.3320
12850SOL    HW249770   2.200   5.487   0.618 -0.7943  0.0195  0.3783
12851SOL     OW49771   1.027   1.023   0.952  0.6939 -0.0941  0.1776
12851SOL    HW149772   1.094   0.961   0.911 -1.4291 -2.1397 -0.3355
12851SOL    HW249773   0.938   0.977   0.956 -0.9465  2.9759 -0.2034
12852SOL     OW49774   1.076   6.307   1.601  0.5101 -0.2095  0.0288
12852SOL    HW149775   1.099   6.248   1.524 -0.3293 -1.1085  0.4515
12852SOL    HW249776   1.155   6.314   1.662  1.2568  0.6997 -1.0151
12853SOL     OW49777   3.418   7.448   3.416  0.3486 -0.1463 -0.1053
12853SOL    HW149778   3.517   7.431   3.420  0.3168 -0.1765  0.4744
12853SOL    HW249779   3.384   7.423   3.325  0.7679 -0.7047 -0.1085
12854SOL     OW49780   9.280   5.300   1.402  0.0176 -0.5205 -0.4166
12854SOL    HW149781   9.196   5.352   1.388  0.9675  0.8667 -1.1515
12854SOL    HW249782   9.312   5.264   1.314  1.7057  1.4061 -0.6445
12855SOL     OW49783   9.108   3.188   5.801  0.4689 -0.3035  0.3738
12855SOL    HW149784   9.076   3.170   5.894 -0.4307 -1.1331 -0.0882
12855SOL    HW249785   9.108   3.103   5.749  3.0323 -0.2294  0.2285
12856SOL     OW49786   8.301   9.205   2.592  0.0054  0.3357 -0.0021
12856SOL    HW149787   8.327   9.128   2.650  1.8969  0.4521 -0.6377
12856SOL    HW249788   8.227   9.256   2.634 -0.4599 -1.1428  0.9975
12857SOL     OW49789   3.381   7.339   0.068 -0.1411 -0.6610  0.2041
12857SOL    HW149790   3.326   7.277   0.013  0.6653 -2.0475  0.9468
12857SOL    HW249791   3.449   7.287   0.119  0.9651  0.9051  0.3415
12858SOL     OW49792   1.556   9.989   5.080 -0.2968 -0.8511 -0.1589
12858SOL    HW149793   1.537   9.919   5.148  0.0167 -0.2242  0.5841
12858SOL    HW249794   1.471  10.016   5.035 -0.5404 -1.0785  0.1666
12859SOL     OW49795   4.174   6.182   0.545  0.2847 -0.0567  0.3398
12859SOL    HW149796   4.152   6.187   0.642 -3.9095 -1.8078 -0.3753
12859SOL    HW249797   4.106   6.235   0.493  1.0974 -1.0248 -1.7750
12860SOL     OW49798   0.908   5.156   4.811 -0.1759 -0.4020 -0.2100
12860SOL    HW149799   0.941   5.104   4.733 -0.6676 -2.1062  0.7039
12860SOL    HW249800   0.957   5.128   4.893 -1.0773 -0.0657  0.4502
12861SOL     OW49801   7.233   9.924   1.802  0.0259 -0.4169 -0.3708
12861SOL    HW149802   7.289   9.878   1.871  2.4216  1.7654 -0.8138
12861SOL    HW249803   7.268   9.903   1.711 -0.0684  0.7196 -0.6706
12862SOL     OW49804   7.235   1.286   5.904  0.9080  0.0286 -0.1324
12862SOL    HW149805   7.254   1.192   5.875  1.9186  0.2290 -0.1366
12862SOL    HW249806   7.221   1.288   6.003  2.5470  0.1171  0.1097
12863SOL     OW49807   7.346   8.848   5.473  0.4457 -0.7552  0.0512
12863SOL    HW149808   7.295   8.903   5.407 -0.5876 -1.7295  0.0302
12863SOL    HW249809   7.413   8.906   5.520  0.4480  0.1762 -1.0761
12864SOL     OW49810   1.687   2.592   1.506 -0.0611 -0.1321 -0.1433
12864SOL    HW149811   1.621   2.665   1.489 -1.7376 -1.5524  0.0715
12864SOL    HW249812   1.641   2.503   1.497  1.8570 -1.1549 -0.0832
12865SOL     OW49813   0.396   3.543   1.975 -0.1428  0.0628  0.5016
12865SOL    HW149814   0.373   3.450   2.005 -1.1954  0.0465 -0.3440
12865SOL    HW249815   0.344   3.609   2.028  1.3681  0.2328  1.8167
12866SOL     OW49816   0.890   5.582   0.944  0.1865  0.0779  0.4883
12866SOL    HW149817   0.944   5.514   0.993  0.3610 -1.1019 -1.3073
12866SOL    HW249818   0.926   5.594   0.852 -1.2855  0.8445 -0.0123
12867SOL     OW49819   5.102   9.265   3.095  0.6482 -0.1359  0.3397
12867SOL    HW149820   5.158   9.182   3.089 -0.2366 -0.6923 -0.3543
12867SOL    HW249821   5.020   9.246   3.149 -0.5797 -0.3017 -1.5345
12868SOL     OW49822   9.119   8.201   0.905  0.5253  0.1660 -0.4685
12868SOL    HW149823   9.115   8.260   0.986  1.1745 -1.3323  0.6608
12868SOL    HW249824   9.185   8.239   0.840  0.3567  1.1125 -0.1071
12869SOL     OW49825   4.171   8.557   3.754 -0.5433  0.1472 -0.0204
12869SOL    HW149826   4.082   8.573   3.797 -0.8140 -1.3976 -0.0055
12869SOL    HW249827   4.170   8.594   3.661 -0.6894  1.4917  0.5040
12870SOL     OW49828   5.074   5.830   0.652 -0.6500 -0.0366 -0.2772
12870SOL    HW149829   4.979   5.816   0.623 -0.8477  0.2195  0.2348
12870SOL    HW249830   5.103   5.754   0.709 -0.5443 -0.1194 -0.4415
12871SOL     OW49831   3.156   5.966   4.035 -0.2584 -0.3433 -0.5491
12871SOL    HW149832   3.133   5.926   4.124  0.2954 -0.2592 -0.3616
12871SOL    HW249833   3.083   6.026   4.005 -0.0583  0.3169  0.2677
12872SOL     OW49834   3.823   7.991   5.618 -0.3819  0.2098  0.2999
12872SOL    HW149835   3.824   7.903   5.666  0.3323 -0.1818 -0.4148
12872SOL    HW249836   3.732   8.007   5.580 -0.7636  0.2039  1.1925
12873SOL     OW49837   3.526   2.977   2.157  0.0100 -0.2942  0.0791
12873SOL    HW149838   3.532   3.062   2.210 -1.5512  0.0399 -0.2626
12873SOL    HW249839   3.482   2.907   2.213 -0.9570 -0.1590 -0.5113
12874SOL     OW49840   3.409   8.010   3.354  0.0831  0.4915  0.1523
12874SOL    HW149841   3.331   7.952   3.375  0.6402 -0.0624  0.7040
12874SOL    HW249842   3.401   8.096   3.404  0.1626  0.1695  0.7141
12875SOL     OW49843   2.867   8.372   0.232  0.2187 -0.5249  0.2493
12875SOL    HW149844   2.929   8.400   0.158  0.8524  0.2459  1.0571
12875SOL    HW249845   2.779   8.346   0.193  0.8044 -0.8956 -0.8497
12876SOL     OW49846   2.327   5.470   0.282  0.3351 -0.5047  0.5215
12876SOL    HW149847   2.307   5.407   0.358  1.6859 -2.4901 -0.7321
12876SOL    HW249848   2.264   5.453   0.207 -0.9960  1.4593  1.1645
12877SOL     OW49849   9.528   0.794   0.378 -0.1159 -0.4048  0.2588
12877SOL    HW149850   9.609   0.771   0.431 -0.5371  1.0477  1.5461
12877SOL    HW249851   9.552   0.863   0.309 -0.4161  0.6279  1.1745
12878SOL     OW49852   2.178   3.013   3.443 -0.4139 -0.0628 -0.1028
12878SOL    HW149853   2.101   2.963   3.484 -0.1206 -0.2617  0.2073
12878SOL    HW249854   2.189   2.985   3.348 -2.7161  2.2599 -1.1124
12879SOL     OW49855   8.421   9.380   2.437  0.5114 -0.1178  0.1460
12879SOL    HW149856   8.507   9.351   2.394  0.0386 -0.5634 -0.5136
12879SOL    HW249857   8.403   9.323   2.517  0.2929 -0.7402 -0.3394
12880SOL     OW49858   1.726   7.912   3.252 -0.0880 -0.0170 -0.2952
12880SOL    HW149859   1.735   7.876   3.159  0.6230 -3.0566  0.9053
12880SOL    HW249860   1.815   7.942   3.285  0.2675 -1.9109  0.5336
12881SOL     OW49861   0.340   3.052   3.432  0.0163 -0.1519  0.4015
12881SOL    HW149862   0.247   3.027   3.458 -0.5800 -0.5878 -2.0068
12881SOL    HW249863   0.343   3.068   3.333  2.8846 -1.8223  0.1888
12882SOL     OW49864   1.031   8.823   5.156  0.4013 -0.4413 -0.1106
12882SOL    HW149865   0.963   8.864   5.095 -0.1212 -0.4761  0.4453
12882SOL    HW249866   1.117   8.812   5.107 -0.1297 -0.8333 -0.9695
12883SOL     OW49867   0.645   5.886   5.804 -0.1973 -0.0507  0.4897
12883SOL    HW149868   0.632   5.935   5.718  2.4613 -1.1661 -0.5767
12883SOL    HW249869   0.662   5.953   5.877 -0.3028  0.7818 -0.2320
12884SOL     OW49870   5.142   6.253   1.650  0.3958 -0.1438 -0.3344
12884SOL    HW149871   5.116   6.344   1.681 -0.3361  0.0279 -1.4307
12884SOL    HW249872   5.147   6.191   1.729 -1.7582  0.2077  0.1044
12885SOL     OW49873   6.453   4.922   1.988 -0.2341 -0.3326 -0.0619
12885SOL    HW149874   6.504   4.933   1.902  0.8407 -0.8298  0.4984
12885SOL    HW249875   6.512   4.948   2.065 -1.0040 -0.4241  0.5632
12886SOL     OW49876   1.734   2.847   0.659 -0.7391  0.1712 -0.8776
12886SOL    HW149877   1.677   2.830   0.578 -1.3901 -1.1190 -0.1562
12886SOL    HW249878   1.694   2.920   0.714 -1.1499 -0.0367 -0.9005
12887SOL     OW49879   0.140   9.234   2.451  0.0324  0.6543  0.1845
12887SOL    HW149880   0.128   9.328   2.419 -1.4057 -0.2327 -2.0533
12887SOL    HW249881   0.227   9.198   2.418  0.4001  1.0645  0.7043
12888SOL     OW49882   4.737   8.608   1.764 -0.9987 -0.0580  0.7940
12888SOL    HW149883   4.813   8.671   1.779  0.4295 -1.6421  0.4105
12888SOL    HW249884   4.684   8.600   1.848  0.5387 -0.5771  1.7490
12889SOL     OW49885   5.098   5.745   0.921  0.0405  0.1114 -0.4409
12889SOL    HW149886   5.032   5.819   0.907  0.6459  1.3439  2.7476
12889SOL    HW249887   5.049   5.660   0.940 -0.6530  0.4622 -0.6344
12890SOL     OW49888   4.548   8.625   6.549 -0.0802  0.6237  0.0355
12890SOL    HW149889   4.563   8.557   6.477  1.8149 -1.4480  2.3063
12890SOL    HW249890   4.636   8.667   6.574 -0.6743  1.1167  1.3486
12891SOL     OW49891   0.081   2.257   4.619 -0.0140  0.3110 -0.4656
12891SOL    HW149892   0.044   2.241   4.711  1.2189  0.2359  0.0418
12891SOL    HW249893   0.075   2.354   4.596 -1.2513  0.1723 -0.7186
12892SOL     OW49894   6.126   1.297   0.045  0.1453  0.3075 -0.0163
12892SOL    HW149895   6.067   1.354  -0.011  0.7994  1.4473  0.4257
12892SOL    HW249896   6.078   1.213   0.071 -1.7484  1.7760  1.3955
12893SOL     OW49897   8.108   1.904   4.166  0.0419  0.1488 -0.0033
12893SOL    HW149898   8.138   1.998   4.153 -0.2101  0.3205  0.6385
12893SOL    HW249899   8.187   1.845   4.182  0.0743  0.5396  1.3110
12894SOL     OW49900   3.249   9.751   0.709  0.0944  0.1852  0.6581
12894SOL    HW149901   3.323   9.818   0.707  0.7141 -0.4977  0.0722
12894SOL    HW249902   3.287   9.659   0.701 -0.8190 -0.1790  0.3878
12895SOL     OW49903   1.529   4.395   5.192 -0.0454  0.6224  0.3951
12895SOL    HW149904   1.543   4.489   5.162 -0.1418  0.2463 -0.8345
12895SOL    HW249905   1.431   4.374   5.192  0.0129  0.3509  0.1582
12896SOL     OW49906   7.246   4.256   2.708 -0.4920 -0.5921 -0.1950
12896SOL    HW149907   7.268   4.327   2.641  0.2580 -0.9242 -0.3120
12896SOL    HW249908   7.147   4.243   2.712 -0.6499  0.6030 -0.0178
12897SOL     OW49909   8.035   5.064   0.500 -0.2109  0.0743  0.5089
12897SOL    HW149910   7.950   5.103   0.464 -0.6430 -0.9091  0.4418
12897SOL    HW249911   8.071   5.123   0.572 -2.0506 -0.5191  1.9522
12898SOL     OW49912   2.658   9.322   6.094  0.0673  0.1815 -0.5656
12898SOL    HW149913   2.701   9.394   6.148  0.1402 -0.8312  0.7595
12898SOL    HW249914   2.674   9.339   5.997 -0.6163  2.3827 -0.3107
12899SOL     OW49915   5.359   9.789   2.581  0.1141  0.1339 -0.3122
12899SOL    HW149916   5.369   9.694   2.550 -0.8506  0.4070 -1.5117
12899SOL    HW249917   5.315   9.791   2.670  2.4069 -0.6506  0.8663
12900SOL     OW49918   7.782   0.940   4.152  0.2379 -0.4050  0.3625
12900SOL    HW149919   7.773   0.908   4.058  1.7754  0.0300  0.0490
12900SOL    HW249920   7.823   1.031   4.152  0.1145 -0.3406  1.4548
12901SOL     OW49921   3.732   9.470   3.796 -0.1988  0.4368 -0.0338
12901SOL    HW149922   3.699   9.542   3.858 -0.6969  0.0834  0.1116
12901SOL    HW249923   3.657   9.438   3.739 -0.2453 -0.7604  0.6838
12902SOL     OW49924   2.890   1.209   3.902  0.0576 -0.2740 -0.3335
12902SOL    HW149925   2.931   1.283   3.849  1.1967 -1.2638 -0.8506
12902SOL    HW249926   2.833   1.153   3.842  1.0643 -1.1842 -0.4523
12903SOL     OW49927   8.081   7.655   2.486 -0.1740  0.0050  0.6975
12903SOL    HW149928   8.059   7.557   2.489  1.3269 -0.3589  0.0807
12903SOL    HW249929   8.151   7.675   2.555  0.9532  0.2654 -0.5133
12904SOL     OW49930   3.459   2.551   6.285 -0.1912 -0.2381  0.3010
12904SOL    HW149931   3.435   2.599   6.201  0.7588  0.4767  0.4281
12904SOL    HW249932   3.394   2.575   6.357 -1.1444 -1.0403 -0.2971
12905SOL     OW49933   7.965   5.160   8.142 -0.2853  0.0902 -0.1444
12905SOL    HW149934   8.051   5.138   8.190 -1.1847 -0.4058  1.2746
12905SOL    HW249935   7.921   5.238   8.187 -1.4594 -0.7878  0.2593
12906SOL     OW49936   1.020   1.388   5.001  0.7021  0.1451 -0.1418
12906SOL    HW149937   0.971   1.454   5.057  0.9383 -0.1258  0.3867
12906SOL    HW249938   1.000   1.295   5.033  1.1876  0.0105 -0.2127
12907SOL     OW49939   3.561   9.596   3.400  0.3369  0.5081 -0.3529
12907SOL    HW149940   3.631   9.524   3.400  0.0463  0.2218 -0.6897
12907SOL    HW249941   3.491   9.574   3.332 -1.5035 -0.5694  1.8445
12908SOL     OW49942   9.330   9.095   3.479 -0.0634 -0.3514 -0.1461
12908SOL    HW149943   9.336   9.011   3.425  0.6209 -0.3748 -0.0368
12908SOL    HW249944   9.381   9.168   3.433  1.8261 -0.7741  1.2193
12909SOL     OW49945   1.871   9.375   4.022  0.2199 -0.3741 -0.8212
12909SOL    HW149946   1.814   9.349   3.944 -0.7281  0.7071 -0.4954
12909SOL    HW249947   1.907   9.467   4.008 -0.9389  0.2984  0.5625
12910SOL     OW49948   4.263   4.382   4.863 -0.5035 -0.4640  0.1448
12910SOL    HW149949   4.340   4.320   4.848 -0.8469 -0.8885  0.1262
12910SOL    HW249950   4.202   4.344   4.932 -0.7566 -0.1808  0.0807
12911SOL     OW49951   8.604   1.805   3.813  0.0815 -0.5158 -0.3909
12911SOL    HW149952   8.619   1.780   3.717  1.7545  0.0035 -0.2846
12911SOL    HW249953   8.665   1.881   3.837 -1.1927  0.1646  0.7521
12912SOL     OW49954   3.750   2.168   2.039 -0.0219 -0.7710  0.3011
12912SOL    HW149955   3.784   2.195   1.948  1.1577  1.9078  1.4784
12912SOL    HW249956   3.697   2.084   2.031 -0.4902 -0.2332 -2.9734
12913SOL     OW49957   6.053   9.926   7.041  0.5428 -0.3831 -0.4390
12913SOL    HW149958   5.957   9.932   7.069  1.0826  1.1136  1.1636
12913SOL    HW249959   6.069   9.982   6.961  0.5277  1.1030  0.5834
12914SOL     OW49960   8.884   6.371   6.130  0.6108  0.0260  0.3263
12914SOL    HW149961   8.922   6.280   6.112 -2.2850 -0.7614 -2.2299
12914SOL    HW249962   8.903   6.431   6.053 -0.8988  0.4211  0.2461
12915SOL     OW49963   1.855   3.985   4.075 -0.4550  0.5311  0.1918
12915SOL    HW149964   1.790   3.975   4.150 -1.3745  0.1123 -0.6469
12915SOL    HW249965   1.947   3.999   4.112 -1.1268  1.8898  1.3997
12916SOL     OW49966   1.984   1.299   2.046  0.3054 -0.2677 -0.1205
12916SOL    HW149967   2.031   1.215   2.072  0.8298 -0.2568 -1.0023
12916SOL    HW249968   2.029   1.338   1.965 -0.9499 -0.0074 -0.6989
12917SOL     OW49969   4.073   1.907   5.694  0.2499  0.1374 -0.6674
12917SOL    HW149970   4.061   1.997   5.736 -2.3894  0.3307 -1.7565
12917SOL    HW249971   4.131   1.916   5.612  2.0498  0.3992  0.5938
12918SOL     OW49972   9.360   2.654   3.441  0.1101 -0.4528  0.3735
12918SOL    HW149973   9.382   2.626   3.348  1.8707  0.7175  0.4133
12918SOL    HW249974   9.347   2.753   3.443  1.0185 -0.3479  1.5387
12919SOL     OW49975   2.405   2.675   0.388  0.1313  0.1889 -0.3865
12919SOL    HW149976   2.309   2.694   0.366 -0.0548  1.1135  1.1453
12919SOL    HW249977   2.463   2.747   0.350 -0.4170  3.1618  3.9911
12920SOL     OW49978   7.931   6.079   4.986  0.1966 -0.1108 -0.1883
12920SOL    HW149979   7.981   6.162   4.962  1.0506 -0.3454  0.7212
12920SOL    HW249980   7.928   6.018   4.906 -0.2773  0.7063 -0.7995
12921SOL     OW49981   0.579   8.612   6.237  0.1519  0.4723 -0.1071
12921SOL    HW149982   0.537   8.645   6.153 -0.3343 -1.1191 -0.4987
12921SOL    HW249983   0.533   8.530   6.268  1.2950  0.1860  0.8974
12922SOL     OW49984   4.614   1.414   5.822 -0.0054  0.1546  0.2865
12922SOL    HW149985   4.638   1.317   5.828 -0.5946  0.0525  1.0721
12922SOL    HW249986   4.677   1.467   5.879 -0.9736 -0.0041  1.5363
12923SOL     OW49987   9.634   0.247   1.906 -0.2374 -0.3828 -0.3811
12923SOL    HW149988   9.573   0.268   1.829 -0.1493 -0.3601 -0.4452
12923SOL    HW249989   9.618   0.313   1.980 -0.5600 -0.6110 -0.2472
12924SOL     OW49990   6.858   7.609   6.230 -0.7382  0.7398  0.1568
12924SOL    HW149991   6.924   7.536   6.245 -2.0549 -0.7883 -1.3246
12924SOL    HW249992   6.872   7.649   6.139 -1.7285  0.5413 -0.0848
12925SOL     OW49993   5.158   5.616   0.111 -0.1792 -0.0216 -0.4837
12925SOL    HW149994   5.130   5.680   0.182  0.2131  0.7557 -1.0199
12925SOL    HW249995   5.157   5.662   0.022  0.9091 -0.5323 -0.7646
12926SOL     OW49996   6.719   1.614   2.250  0.3527 -0.4761  0.5473
12926SOL    HW149997   6.677   1.525   2.231  0.5758  0.0923 -2.7328
12926SOL    HW249998   6.811   1.617   2.213  0.6628  0.8316  1.3888
12927SOL     OW49999   4.997   7.946   1.738 -0.5384  0.7399 -0.3554
12927SOL    HW150000   5.047   7.955   1.824 -1.5085  0.2229  0.2643
12927SOL    HW250001   4.979   8.037   1.700 -0.0791  0.9664 -0.0301
12928SOL     OW50002   3.385   2.198   1.300  0.2613 -0.8858  0.8655
12928SOL    HW150003   3.299   2.148   1.297  0.6280 -1.6043  2.0488
12928SOL    HW250004   3.410   2.216   1.395  1.9342 -1.5767  0.5711
12929SOL     OW50005   9.446   5.209   1.140 -0.4804 -0.1406 -0.4115
12929SOL    HW150006   9.526   5.233   1.195 -0.5918  0.0435 -0.3275
12929SOL    HW250007   9.421   5.114   1.157 -0.8595  0.0806  0.2859
12930SOL     OW50008   1.160   0.530   0.051  0.2419  0.4615 -0.1339
12930SOL    HW150009   1.109   0.453   0.014  0.3046  0.3846 -0.0579
12930SOL    HW250010   1.235   0.497   0.109 -0.7166  0.5979  1.2138
12931SOL     OW50011   2.945   4.228   3.092  0.4332 -0.1009 -0.5523
12931SOL    HW150012   2.994   4.276   3.019 -1.7613  1.0954 -1.2858
12931SOL    HW250013   2.858   4.192   3.057  1.5738 -3.8620  0.2292
12932SOL     OW50014   8.682   9.046   5.468  0.0379 -0.5420  0.1922
12932SOL    HW150015   8.726   8.971   5.421 -2.7545 -0.7920 -2.1778
12932SOL    HW250016   8.732   9.131   5.451 -0.7964 -0.6512 -3.2269
12933SOL     OW50017   7.079   9.559   3.140 -0.4838 -0.1148  0.2009
12933SOL    HW150018   6.981   9.569   3.124 -0.3302  0.7192 -0.2286
12933SOL    HW250019   7.095   9.538   3.236 -0.9029  2.4484  0.8552
12934SOL     OW50020   0.770   3.692   0.092 -0.2559  0.6980  0.0646
12934SOL    HW150021   0.867   3.670   0.083 -0.1940  1.4584 -1.3551
12934SOL    HW250022   0.722   3.617   0.137  0.7151 -0.3655 -0.6592
12935SOL     OW50023   9.627   0.137   3.608 -0.3482 -0.3024 -0.0551
12935SOL    HW150024   9.723   0.109   3.609  0.3340  1.8782 -0.3061
12935SOL    HW250025   9.606   0.182   3.521 -0.1207  3.9133  1.9346
12936SOL     OW50026   0.380   0.697   1.273 -0.0562  0.0841  0.3040
12936SOL    HW150027   0.297   0.646   1.249 -0.2016  0.3603  0.2164
12936SOL    HW250028   0.458   0.660   1.223  0.0690 -0.8671  1.1877
12937SOL     OW50029   1.392   4.424   2.490  0.1241  0.0336  0.2670
12937SOL    HW150030   1.459   4.403   2.562  0.9677  0.3959 -0.4047
12937SOL    HW250031   1.338   4.504   2.518 -0.9092 -1.0467  1.3866
12938SOL     OW50032   6.640   0.750   4.589 -0.2613  0.2452 -0.2011
12938SOL    HW150033   6.574   0.742   4.515 -0.5160  2.1998 -0.2065
12938SOL    HW250034   6.619   0.681   4.660 -0.3310 -1.2663 -1.6571
12939SOL     OW50035   3.274   6.546   3.736 -0.3969  0.2051  0.1261
12939SOL    HW150036   3.299   6.541   3.833  2.1877 -1.7912 -0.5860
12939SOL    HW250037   3.263   6.453   3.700 -1.3633  0.9299 -1.4887
12940SOL     OW50038   2.493   1.194   1.019 -0.5504 -0.3658 -0.2558
12940SOL    HW150039   2.422   1.255   0.985  0.0500  0.7110  0.4086
12940SOL    HW250040   2.474   1.168   1.113 -0.5598 -0.8385 -0.3849
12941SOL     OW50041   0.742   0.458   4.252  0.1832 -0.4697  1.2227
12941SOL    HW150042   0.695   0.372   4.270  2.3882 -1.6378  1.6485
12941SOL    HW250043   0.788   0.453   4.163 -0.3026  0.5667  0.9013
12942SOL     OW50044   6.452   1.632   7.678 -0.0229  0.4800  0.1817
12942SOL    HW150045   6.365   1.600   7.716  0.8573 -0.0483  1.8177
12942SOL    HW250046   6.468   1.589   7.590 -1.9796  1.4923 -0.7075
12943SOL     OW50047   4.418   4.875   0.637  0.0104  0.8232 -0.2777
12943SOL    HW150048   4.362   4.821   0.700  0.8325 -0.0816 -0.3085
12943SOL    HW250049   4.492   4.818   0.601  0.2562  1.6768 -1.1397
12944SOL     OW50050   2.135   0.877   4.612  0.5708  0.1276 -0.0698
12944SOL    HW150051   2.154   0.821   4.692  1.1711  1.3565  0.6629
12944SOL    HW250052   2.216   0.882   4.554  0.5384  0.2815 -0.1027
12945SOL     OW50053   1.641   9.297   0.874 -0.3119 -0.2567  0.2021
12945SOL    HW150054   1.623   9.260   0.783  1.0920 -1.0555  0.2356
12945SOL    HW250055   1.554   9.315   0.921 -1.0329 -0.4867 -1.0302
12946SOL     OW50056   7.003   9.917   2.745  0.1003  0.0741  0.1824
12946SOL    HW150057   7.009  10.016   2.737 -0.2366  0.2081  1.4870
12946SOL    HW250058   6.930   9.893   2.809  1.4182 -0.9620  1.3241
12947SOL     OW50059   4.528   7.600   1.464 -0.1790 -0.2195  0.5200
12947SOL    HW150060   4.493   7.692   1.485 -1.4684 -0.0028 -2.2918
12947SOL    HW250061   4.627   7.599   1.474 -0.0535  1.7519 -0.2789
12948SOL     OW50062   5.827   2.452   3.950  0.1141 -0.0356  0.2278
12948SOL    HW150063   5.917   2.430   3.913 -0.4364 -2.3005  0.1677
12948SOL    HW250064   5.770   2.369   3.952 -1.2182  0.8712  2.3604
12949SOL     OW50065   7.703   4.224   3.582 -0.0917  0.4578 -0.0671
12949SOL    HW150066   7.685   4.165   3.503  1.9727  0.1533 -0.3286
12949SOL    HW250067   7.789   4.197   3.625  0.2139  2.4458  0.6030
12950SOL     OW50068   2.131   8.363   6.431 -0.1088 -0.1560  0.0787
12950SOL    HW150069   2.151   8.377   6.334  1.8997  3.0940  0.8734
12950SOL    HW250070   2.217   8.359   6.482 -1.1955  1.4412  2.1022
12951SOL     OW50071   7.363   7.724   3.217  0.0531 -0.3058  0.0607
12951SOL    HW150072   7.292   7.725   3.147  1.6240 -0.7743 -1.5771
12951SOL    HW250073   7.321   7.711   3.307 -1.9831  0.2485 -0.7799
12952SOL     OW50074   6.692   8.143   5.113 -0.0790 -0.3461 -0.4027
12952SOL    HW150075   6.722   8.083   5.039  1.0628 -1.5673  1.0242
12952SOL    HW250076   6.592   8.148   5.114 -0.0745  0.3893 -2.5634
12953SOL     OW50077   6.242   1.479   3.734 -0.4136  0.7282 -0.1229
12953SOL    HW150078   6.291   1.559   3.701 -0.9690  1.2668  0.3527
12953SOL    HW250079   6.195   1.501   3.819  0.8527 -0.6051  0.9257
12954SOL     OW50080   8.413   4.531   3.892  0.1048  0.1129  0.2224
12954SOL    HW150081   8.314   4.521   3.887  0.0744  1.0767 -1.1369
12954SOL    HW250082   8.438   4.627   3.884  1.1473 -0.1008  0.7514
12955SOL     OW50083   4.263   0.311   3.781  0.0763  0.3729 -0.1766
12955SOL    HW150084   4.281   0.218   3.749 -0.3919  0.3391 -0.3520
12955SOL    HW250085   4.193   0.353   3.723  0.3696  0.8758 -0.1689
12956SOL     OW50086   1.964   8.693   1.253  0.5961 -0.7395 -0.1351
12956SOL    HW150087   1.976   8.593   1.249  2.9212 -0.5288  0.7726
12956SOL    HW250088   2.011   8.735   1.177 -0.2552 -0.3010 -0.4261
12957SOL     OW50089   7.369   9.358   2.479 -0.1507 -0.2369 -0.0800
12957SOL    HW150090   7.414   9.445   2.501  0.3924 -0.5202 -0.0524
12957SOL    HW250091   7.326   9.321   2.562  0.0776 -0.2566  0.0310
12958SOL     OW50092   0.290   3.266   5.163  0.7879  0.6494  0.2363
12958SOL    HW150093   0.261   3.181   5.205  2.0994 -0.0671 -0.2758
12958SOL    HW250094   0.219   3.336   5.175  0.3779 -0.0626  2.0087
12959SOL     OW50095   9.662   5.845   3.337 -1.0370  0.5015  0.1006
12959SOL    HW150096   9.725   5.830   3.413  1.1111  0.6724 -1.5989
12959SOL    HW250097   9.638   5.757   3.296 -0.1594  0.5782 -0.6010
12960SOL     OW50098   7.961   3.049   3.843 -0.8115 -0.0013 -0.3350
12960SOL    HW150099   7.990   3.032   3.937  0.4233  0.1343 -0.6811
12960SOL    HW250100   7.972   2.966   3.789 -0.9162  0.0956 -0.5073
12961SOL     OW50101   3.740   3.617   5.916 -0.0860  0.9553 -0.3892
12961SOL    HW150102   3.811   3.619   5.846  0.4088  1.2298  0.1190
12961SOL    HW250103   3.781   3.631   6.006 -0.5479 -0.6605  0.0958
12962SOL     OW50104   5.667   0.259   3.990 -0.1320  0.2857  0.0029
12962SOL    HW150105   5.588   0.213   4.030 -0.3451  2.0843  1.7730
12962SOL    HW250106   5.745   0.197   3.988 -0.3016 -0.0743  2.6928
12963SOL     OW50107   9.481   6.388   2.525  0.4152  0.0583 -0.8427
12963SOL    HW150108   9.505   6.484   2.537  0.3763 -0.3215  2.5786
12963SOL    HW250109   9.417   6.380   2.448  2.3858  2.4136 -2.8074
12964SOL     OW50110   7.289   9.780   3.866 -0.5473  0.2730 -0.1382
12964SOL    HW150111   7.389   9.770   3.871 -0.4778  0.9452 -0.1146
12964SOL    HW250112   7.264   9.875   3.887 -1.2955 -0.2034  1.1752
12965SOL     OW50113   1.424   2.012   4.807  0.2073  0.8821  0.1591
12965SOL    HW150114   1.405   2.088   4.868 -0.4910  0.0476  0.9984
12965SOL    HW250115   1.363   2.017   4.727  0.6848  1.6182 -0.1595
12966SOL     OW50116   2.506   3.837   1.932  0.0045 -0.0070 -0.3807
12966SOL    HW150117   2.497   3.884   2.020  1.0096 -2.0479  0.8356
12966SOL    HW250118   2.598   3.854   1.895 -0.3045  0.5730 -0.9043
12967SOL     OW50119   1.994   9.097   6.153  0.3535  0.2713  0.1009
12967SOL    HW150120   2.025   9.053   6.237  2.0263  0.2256 -0.5090
12967SOL    HW250121   2.060   9.080   6.080 -0.9327  0.5481 -1.1564
12968SOL     OW50122   9.941   7.631   0.107 -0.1178  0.1126  0.4467
12968SOL    HW150123  10.036   7.600   0.109  0.0563  0.6716  1.1951
12968SOL    HW250124   9.936   7.719   0.060 -0.4311 -0.4169 -0.5491
12969SOL     OW50125   2.129   5.358   3.788  0.1208 -0.0990  0.1332
12969SOL    HW150126   2.143   5.414   3.707  0.0238 -1.3696 -0.7744
12969SOL    HW250127   2.216   5.316   3.815  0.0195 -0.1957  0.3111
12970SOL     OW50128   3.852   4.915   4.044 -0.0609 -0.3707  0.3061
12970SOL    HW150129   3.941   4.870   4.046  0.6932  1.0648 -0.1281
12970SOL    HW250130   3.782   4.851   4.012  0.8974 -1.3543  0.1700
12971SOL     OW50131   5.727   9.822   5.947 -0.3189  0.1266  0.7270
12971SOL    HW150132   5.720   9.767   5.863  0.5361  0.7112  0.2684
12971SOL    HW250133   5.806   9.792   5.999  0.7231  1.5685 -0.0045
12972SOL     OW50134   3.478   8.232   1.216  0.4968  0.0806  0.1260
12972SOL    HW150135   3.555   8.195   1.165 -0.6436  0.2195 -1.7583
12972SOL    HW250136   3.433   8.304   1.161 -0.6168  0.3987  1.4195
12973SOL     OW50137   4.477   3.728   2.438  0.2966  0.0325 -0.2936
12973SOL    HW150138   4.506   3.684   2.353  0.4650 -0.9262  0.2547
12973SOL    HW250139   4.500   3.825   2.434  0.4279 -0.0248 -1.2871
12974SOL     OW50140   5.454   8.382   6.240  0.0114  0.2545  0.0687
12974SOL    HW150141   5.432   8.313   6.172 -1.1777 -0.3018  0.9955
12974SOL    HW250142   5.470   8.338   6.328 -0.6597  1.1455  0.6447
12975SOL     OW50143   3.752   3.464   4.218  0.5965 -0.1141 -0.5426
12975SOL    HW150144   3.811   3.392   4.254  1.5753  0.3013 -1.3027
12975SOL    HW250145   3.680   3.485   4.285  1.9032  0.0889  0.8095
12976SOL     OW50146   7.954   8.211   6.091  0.2830  0.2509  0.0672
12976SOL    HW150147   7.918   8.156   6.166 -0.8698 -1.0167 -1.3684
12976SOL    HW250148   8.054   8.204   6.089  0.1081 -2.4022 -0.5356
12977SOL     OW50149   0.975   7.708   4.440 -0.0561 -0.4748 -0.1061
12977SOL    HW150150   1.061   7.700   4.390 -0.3333 -0.4040 -0.5899
12977SOL    HW250151   0.932   7.796   4.418 -1.0410 -1.2008 -1.0950
12978SOL     OW50152   7.331   6.531   5.277 -0.7841 -0.2785 -0.1544
12978SOL    HW150153   7.395   6.480   5.221  0.2297  0.7052  0.0887
12978SOL    HW250154   7.280   6.468   5.336  0.6749 -0.9687  0.3821
12979SOL     OW50155   4.785   9.698   6.366  0.4604 -0.1408 -0.4392
12979SOL    HW150156   4.811   9.785   6.325  0.3273 -0.3650 -1.0015
12979SOL    HW250157   4.694   9.671   6.335  1.4208 -1.5909 -2.0772
12980SOL     OW50158   3.770   2.109   5.843 -0.3950 -0.3900 -0.2459
12980SOL    HW150159   3.685   2.110   5.896 -0.5584  0.5921 -0.5277
12980SOL    HW250160   3.799   2.014   5.830 -0.9075 -0.6859  0.7117
12981SOL     OW50161   9.724   4.889   4.009  0.3140 -0.7514 -0.0481
12981SOL    HW150162   9.648   4.907   3.946  0.9050  0.1760 -0.4968
12981SOL    HW250163   9.765   4.976   4.038 -0.6473 -1.0871  2.4751
12982SOL     OW50164   3.519   3.381   1.890 -0.2723  0.4222 -0.1598
12982SOL    HW150165   3.457   3.442   1.939 -0.6705  0.6876 -0.9999
12982SOL    HW250166   3.495   3.378   1.793 -0.4571 -1.2880 -0.0891
12983SOL     OW50167   8.686   9.998   2.185 -0.0220  0.2185  0.0421
12983SOL    HW150168   8.715   9.929   2.251 -1.0188 -0.4542 -0.2109
12983SOL    HW250169   8.750  10.075   2.187  0.9103 -0.5612  0.5601
12984SOL     OW50170   0.572   0.396   0.462 -0.2500 -0.1140  0.9385
12984SOL    HW150171   0.536   0.334   0.391 -0.1484  1.1834 -0.2824
12984SOL    HW250172   0.659   0.361   0.496  1.6012  1.1177 -2.2843
12985SOL     OW50173   9.690   4.492   4.624 -0.0016 -0.1472  0.0165
12985SOL    HW150174   9.740   4.567   4.580 -1.5717  2.0378  1.7754
12985SOL    HW250175   9.611   4.467   4.568 -1.6530  2.2073  1.2130
12986SOL     OW50176   5.521   8.374   4.784  0.3424 -0.1137  0.3943
12986SOL    HW150177   5.472   8.416   4.860 -0.0561 -0.8786  0.5673
12986SOL    HW250178   5.526   8.275   4.798  0.6885 -0.2037 -0.3326
12987SOL     OW50179   4.211   9.666   6.337  0.8080 -0.0710  0.5424
12987SOL    HW150180   4.163   9.601   6.279  1.1314 -2.1915  2.5377
12987SOL    HW250181   4.307   9.673   6.308  0.7345 -0.4151  0.2167
12988SOL     OW50182   5.296   9.687   2.279  0.4562  0.3299  0.4393
12988SOL    HW150183   5.211   9.663   2.326 -0.7578  0.2903 -1.7073
12988SOL    HW250184   5.354   9.607   2.271  0.2078  0.1005  0.9199
12989SOL     OW50185   8.641   1.434   2.467 -0.2365  0.0643  0.0627
12989SOL    HW150186   8.661   1.522   2.509  1.5446 -0.4820  0.3960
12989SOL    HW250187   8.705   1.365   2.501 -1.8664 -1.4669  0.1352
12990SOL     OW50188   7.290   3.521   6.048  0.7042 -0.5271  0.1588
12990SOL    HW150189   7.237   3.569   6.117  1.1467 -0.0475  0.1661
12990SOL    HW250190   7.231   3.457   5.999 -0.0213  0.4459 -0.2461
12991SOL     OW50191   6.775   4.836   0.957  0.1634  0.6463 -0.1758
12991SOL    HW150192   6.792   4.739   0.940  1.4243  0.8313  0.0061
12991SOL    HW250193   6.676   4.852   0.961 -0.1422 -0.1693 -2.9338
12992SOL     OW50194   9.397   0.244   0.546 -0.3152 -1.0188  0.5405
12992SOL    HW150195   9.402   0.145   0.537 -0.1355 -0.8311 -1.5731
12992SOL    HW250196   9.397   0.287   0.456  2.1212  1.0350  1.4519
12993SOL     OW50197   3.025   7.681   7.843  0.5560  0.0924 -0.3169
12993SOL    HW150198   3.115   7.648   7.873  0.6385 -1.0769 -1.7913
12993SOL    HW250199   3.036   7.769   7.797  0.6244  1.1156  1.5800
12994SOL     OW50200   8.702   7.819   3.435 -0.2359 -0.0367 -0.1471
12994SOL    HW150201   8.795   7.815   3.472 -0.5481  0.9395  0.7670
12994SOL    HW250202   8.696   7.760   3.355  1.0111 -0.5826  0.1421
12995SOL     OW50203   1.213   5.574   0.342  0.1803 -0.1151  0.3540
12995SOL    HW150204   1.211   5.474   0.348 -0.9647 -0.3619 -3.1958
12995SOL    HW250205   1.286   5.602   0.279 -0.7794  1.1642 -0.2089
12996SOL     OW50206   6.666   2.387   1.975  0.1262  0.6098 -0.2842
12996SOL    HW150207   6.686   2.349   2.065 -2.1169  0.2078  0.0736
12996SOL    HW250208   6.675   2.486   1.977 -1.6386  0.7579  0.8698
12997SOL     OW50209   4.070   3.723   0.845  0.4270 -0.2612  0.3771
12997SOL    HW150210   3.997   3.689   0.904  1.3597  0.0573  1.7732
12997SOL    HW250211   4.040   3.807   0.799 -0.6196 -0.9923 -0.2890
12998SOL     OW50212   9.751   6.020   1.737  0.2709  0.3844  0.1639
12998SOL    HW150213   9.780   5.995   1.829  0.0985 -0.5108 -0.0201
12998SOL    HW250214   9.832   6.028   1.678  0.4947  2.1741  0.6658
12999SOL     OW50215   8.362   0.561   6.603 -0.1029  0.0920  0.3695
12999SOL    HW150216   8.447   0.561   6.655  1.1361 -2.2221 -1.5172
12999SOL    HW250217   8.348   0.650   6.561  1.7566  0.2928  0.1551
13000SOL     OW50218   3.434   5.226   4.488 -0.5439  0.5302 -0.3822
13000SOL    HW150219   3.494   5.298   4.455 -0.0164  0.6480  0.8145
13000SOL    HW250220   3.373   5.262   4.558 -0.2996 -0.1808  0.1982
13001SOL     OW50221   7.985   7.280   4.327  0.0998 -0.5783 -0.5392
13001SOL    HW150222   7.972   7.200   4.268  0.9806 -0.3929 -0.9925
13001SOL    HW250223   8.046   7.345   4.282 -1.7008  1.0043 -0.8111
13002SOL     OW50224   3.155   7.155   5.516 -0.2991  0.7657  0.2457
13002SOL    HW150225   3.243   7.190   5.484 -0.4836  0.6715 -0.3777
13002SOL    HW250226   3.084   7.223   5.500 -0.5183  0.4329 -0.2134
13003SOL     OW50227   4.232   3.168   7.913  0.0655  0.3033  0.0148
13003SOL    HW150228   4.313   3.218   7.882  1.1913  0.1032  2.4918
13003SOL    HW250229   4.153   3.230   7.914  0.3221  0.6899 -1.7219
13004SOL     OW50230   5.284   8.000   2.508 -0.2696 -0.0176  0.1619
13004SOL    HW150231   5.280   7.937   2.430 -1.5203  0.0435  0.1684
13004SOL    HW250232   5.371   8.049   2.506 -0.1329 -0.2846 -0.9968
13005SOL     OW50233   9.541   7.548   1.839  0.3128  0.1737  0.1449
13005SOL    HW150234   9.542   7.628   1.779  1.5412  0.9918  1.2420
13005SOL    HW250235   9.564   7.466   1.786  2.5718  1.0569 -0.2613
13006SOL     OW50236   3.522   4.645   4.553  0.0824  0.3577 -0.2511
13006SOL    HW150237   3.580   4.725   4.539  0.9072 -0.4547 -1.5454
13006SOL    HW250238   3.460   4.662   4.630  1.8521  1.3334  0.9913
13007SOL     OW50239   0.275   9.152   1.188 -0.1000  0.0443 -0.4872
13007SOL    HW150240   0.236   9.213   1.119  1.0212  1.4767  0.1130
13007SOL    HW250241   0.366   9.122   1.160  0.0097 -0.0600 -0.0373
13008SOL     OW50242   3.188   1.987   5.153  0.3193  0.0249 -0.0596
13008SOL    HW150243   3.131   2.045   5.094 -1.0655 -0.8662  0.3755
13008SOL    HW250244   3.222   2.041   5.230  0.0222  0.5593 -0.3007
13009SOL     OW50245   2.668   9.890   1.033 -0.0426 -0.7993 -0.0344
13009SOL    HW150246   2.741   9.835   1.075  0.7051 -0.0701 -0.3446
13009SOL    HW250247   2.637   9.959   1.098  0.0048 -0.6921 -0.1243
13010SOL     OW50248   0.558   2.363   1.605 -0.5974 -0.2420 -0.5277
13010SOL    HW150249   0.584   2.324   1.517  0.2550 -2.1896  0.5799
13010SOL    HW250250   0.506   2.296   1.658 -1.2399  0.9653  0.4108
13011SOL     OW50251   0.075   7.689   0.414 -0.2206 -0.3792 -0.6308
13011SOL    HW150252  -0.007   7.698   0.470  0.8488  4.5843  0.3657
13011SOL    HW250253   0.149   7.650   0.470  0.2238  2.5007  0.8929
13012SOL     OW50254   6.941   3.881   8.098  0.2668 -0.6316  0.0561
13012SOL    HW150255   7.027   3.901   8.050  0.0265 -0.5491 -0.3405
13012SOL    HW250256   6.874   3.951   8.077 -0.1160 -1.0629 -0.1799
13013SOL     OW50257   8.001   8.092   4.897  0.0336 -0.2468  0.1609
13013SOL    HW150258   8.021   8.185   4.866  1.3534  0.0314  1.7391
13013SOL    HW250259   8.030   8.027   4.828  0.2800  0.4672 -0.4139
13014SOL     OW50260   9.041   0.553   6.049  0.0754 -0.0283  0.1734
13014SOL    HW150261   9.134   0.536   6.083  0.9650  1.2823 -1.5447
13014SOL    HW250262   9.034   0.526   5.953 -0.7892  1.5815 -0.2389
13015SOL     OW50263   5.865   2.944   3.887  0.3216 -0.2625 -0.0867
13015SOL    HW150264   5.953   2.984   3.913 -0.0594 -0.1518  1.1057
13015SOL    HW250265   5.793   3.013   3.897 -0.0555 -0.6678  0.0544
13016SOL     OW50266   9.373   1.063   1.379  0.7167  0.2749  0.6174
13016SOL    HW150267   9.366   1.154   1.338  0.3330  0.2183  0.5542
13016SOL    HW250268   9.466   1.029   1.370  0.8259  0.6034  0.5127
13017SOL     OW50269   8.608   3.605   0.492 -0.4954 -0.2105 -0.2718
13017SOL    HW150270   8.644   3.669   0.560  1.6269 -0.1307 -1.4154
13017SOL    HW250271   8.676   3.533   0.474 -2.0169 -1.6241 -0.5103
13018SOL     OW50272   5.427   5.795   0.517  0.2957 -0.1244  0.6111
13018SOL    HW150273   5.347   5.800   0.456  1.8419 -1.9136 -1.6642
13018SOL    HW250274   5.411   5.723   0.585  0.3632 -1.2522 -0.5284
13019SOL     OW50275   8.371   0.101   3.649 -0.2588 -0.0326 -0.2523
13019SOL    HW150276   8.375   0.159   3.568  0.6747  1.1485  0.6054
13019SOL    HW250277   8.281   0.110   3.692  0.0849  1.2781  0.2144
13020SOL     OW50278   6.547   0.366   2.908  0.8382 -0.1626  0.1003
13020SOL    HW150279   6.472   0.300   2.913  0.5128  0.2125  0.1949
13020SOL    HW250280   6.625   0.332   2.960 -0.2331  0.7004  2.3097
13021SOL     OW50281   2.985   8.233   1.938  0.3602 -0.1717  0.0212
13021SOL    HW150282   2.906   8.283   1.904 -0.6927 -1.4005  0.6464
13021SOL    HW250283   3.017   8.169   1.868  0.2539 -0.3018  0.0912
13022SOL     OW50284   6.882   2.040   4.200 -0.4945 -0.1565  0.1313
13022SOL    HW150285   6.830   1.997   4.126  2.4795 -2.9311 -0.4838
13022SOL    HW250286   6.976   2.005   4.199 -0.0206  0.7120  4.4536
13023SOL     OW50287   6.613   0.225   6.766  0.0385  0.0552 -0.3559
13023SOL    HW150288   6.531   0.277   6.789 -1.2141 -0.4626 -3.3672
13023SOL    HW250289   6.683   0.287   6.731  0.3662  0.3119  0.7526
13024SOL     OW50290   1.828   3.329   1.894 -0.6690  0.1575  0.1985
13024SOL    HW150291   1.753   3.307   1.956 -0.2613 -1.6992  0.0577
13024SOL    HW250292   1.794   3.333   1.801 -1.0969  1.9870  0.4226
13025SOL     OW50293   3.239   5.338   3.813 -0.2781  0.2646  0.6217
13025SOL    HW150294   3.283   5.335   3.723 -1.7610 -0.5875 -0.0896
13025SOL    HW250295   3.155   5.393   3.807  0.7482  2.0108  1.9987
13026SOL     OW50296   2.718   3.587   4.081  0.5763 -0.2675 -0.3191
13026SOL    HW150297   2.803   3.535   4.082  0.6292 -0.1660  0.3376
13026SOL    HW250298   2.705   3.628   3.991  1.3777 -0.0301 -0.3264
13027SOL     OW50299   9.265   3.321   5.265  0.6831  0.4639  0.4139
13027SOL    HW150300   9.203   3.247   5.239  0.1364  0.1304  2.5696
13027SOL    HW250301   9.223   3.409   5.245 -0.1960  0.2284  1.1998
13028SOL     OW50302   2.956   2.653   4.293 -0.3507 -0.0600  0.3869
13028SOL    HW150303   3.032   2.713   4.265  0.5287 -0.5213  1.7472
13028SOL    HW250304   2.890   2.647   4.218  0.9573  0.3362 -0.8422
13029SOL     OW50305   3.754   8.451   2.480  0.5904 -0.1972  0.3049
13029SOL    HW150306   3.704   8.367   2.502  0.5418 -0.3124 -0.2347
13029SOL    HW250307   3.712   8.495   2.401  2.2462 -1.1067 -1.1314
13030SOL     OW50308   8.408   1.607   1.369  0.0928  0.3721 -0.3942
13030SOL    HW150309   8.442   1.695   1.336 -1.1477  1.0489  0.1016
13030SOL    HW250310   8.467   1.574   1.443  1.4415  0.0366 -1.5877
13031SOL     OW50311   2.689   3.582   1.611  0.4900 -0.3452 -0.2393
13031SOL    HW150312   2.650   3.518   1.676  0.9883  0.1566  0.5599
13031SOL    HW250313   2.641   3.574   1.523 -1.8475  0.6917  0.8846
13032SOL     OW50314   0.436   7.872   6.588 -0.4342  0.7129 -0.3176
13032SOL    HW150315   0.449   7.937   6.662 -1.0017  0.6668 -0.1781
13032SOL    HW250316   0.386   7.916   6.513  1.0388  1.0836 -1.1237
13033SOL     OW50317   9.563   2.124   1.143 -0.1608 -0.2788 -0.2043
13033SOL    HW150318   9.536   2.049   1.203 -0.1186  0.6947  1.0588
13033SOL    HW250319   9.488   2.190   1.135  0.3290  0.3055 -0.0811
13034SOL     OW50320   1.815   4.537   3.809  0.0664 -0.2573 -0.0774
13034SOL    HW150321   1.812   4.634   3.835  0.7183 -0.0617 -0.7095
13034SOL    HW250322   1.722   4.501   3.804 -0.1402  0.0721  1.1223
13035SOL     OW50323   8.693   2.035   4.848 -0.5207 -0.3946  0.5380
13035SOL    HW150324   8.746   1.953   4.868  0.7405  0.3754  0.4400
13035SOL    HW250325   8.755   2.113   4.838 -1.6979  0.5744  0.6487
13036SOL     OW50326   6.628   0.437   6.167 -0.7601  0.0892  0.5299
13036SOL    HW150327   6.550   0.423   6.228 -1.2337 -2.9164 -0.6699
13036SOL    HW250328   6.698   0.368   6.186  1.8505  2.9868  1.8622
13037SOL     OW50329   6.535   0.441   4.947  0.2294 -0.2587  0.5144
13037SOL    HW150330   6.603   0.368   4.953  0.8773  0.0247 -2.7879
13037SOL    HW250331   6.444   0.400   4.942  0.5671 -0.8592 -0.9731
13038SOL     OW50332   5.029   0.711   1.288  0.0481  0.0478  0.3937
13038SOL    HW150333   5.038   0.734   1.385 -0.1481  0.5521  0.2946
13038SOL    HW250334   4.961   0.640   1.276  0.8024 -0.7367  0.7277
13039SOL     OW50335   4.342   3.760   0.847 -0.1067  0.2815  0.3369
13039SOL    HW150336   4.242   3.757   0.855 -0.1585 -0.2771 -0.4284
13039SOL    HW250337   4.369   3.842   0.797 -0.2566 -0.1304 -0.4296
13040SOL     OW50338   2.999   8.483   3.287 -0.1461  0.2700 -0.1872
13040SOL    HW150339   2.980   8.386   3.305 -0.1416  0.2857 -0.0949
13040SOL    HW250340   3.002   8.498   3.189 -3.4035  0.7955 -0.2499
13041SOL     OW50341   0.283   6.250   4.321  0.2758  0.1364  0.5681
13041SOL    HW150342   0.263   6.269   4.225 -0.4486  1.2377  0.9338
13041SOL    HW250343   0.347   6.173   4.327 -0.8578 -0.9325 -0.7377
13042SOL     OW50344   9.600   4.461   0.002  0.0889  0.4289 -0.4002
13042SOL    HW150345   9.573   4.557   0.008 -1.6255 -0.0556 -0.0656
13042SOL    HW250346   9.631   4.429   0.091  3.4654  1.4339 -1.1376
13043SOL     OW50347   6.289   2.647   0.106 -0.1102  0.9658 -0.4339
13043SOL    HW150348   6.288   2.695   0.194 -0.0059 -0.2853  0.2612
13043SOL    HW250349   6.303   2.713   0.032 -1.3547  2.1921  0.3859
13044SOL     OW50350   4.392   9.006   5.071  0.1752  0.2831 -0.4547
13044SOL    HW150351   4.364   9.043   4.983  0.3773  0.1704 -0.5677
13044SOL    HW250352   4.456   8.930   5.056  0.8665  0.8118 -0.1856
13045SOL     OW50353   9.681   7.489   4.216  0.2661  0.0829 -0.1011
13045SOL    HW150354   9.708   7.406   4.265  0.5226  0.2685  0.0788
13045SOL    HW250355   9.621   7.465   4.141 -1.8146 -0.0272  1.5551
13046SOL     OW50356   4.064   8.656   1.426 -0.0757 -0.6931 -0.2846
13046SOL    HW150357   4.131   8.653   1.500 -1.0426 -1.5270  0.5652
13046SOL    HW250358   4.043   8.563   1.396 -1.7176 -0.5108  0.2553
13047SOL     OW50359   3.247   2.781   1.853  0.0608 -0.2400  0.4593
13047SOL    HW150360   3.303   2.719   1.908  0.4074  1.6703  2.3358
13047SOL    HW250361   3.261   2.875   1.885 -1.4989  0.6631 -1.4176
13048SOL     OW50362   2.950   3.244   3.446  0.2504  0.1544  0.1367
13048SOL    HW150363   3.038   3.293   3.442 -0.1161  0.7498 -0.7901
13048SOL    HW250364   2.943   3.182   3.368  0.4309 -0.9262  0.9587
13049SOL     OW50365   3.691   5.006   4.994  0.7063  0.3605  0.2293
13049SOL    HW150366   3.709   4.942   5.069  1.8832 -1.6862 -1.7581
13049SOL    HW250367   3.695   4.958   4.907 -4.2903  1.9168 -1.0284
13050SOL     OW50368   5.480   0.439   5.688  0.6420  0.4023 -0.2436
13050SOL    HW150369   5.433   0.442   5.776  0.3430 -0.0062 -0.3895
13050SOL    HW250370   5.421   0.476   5.617  0.1497 -1.0379 -0.6020
13051SOL     OW50371   6.028   0.083   6.216 -0.2897 -0.4386  0.9256
13051SOL    HW150372   5.957   0.103   6.283 -0.8417 -0.3521  0.3175
13051SOL    HW250373   6.114   0.124   6.246 -0.7900  0.5464  1.0433
13052SOL     OW50374   2.138   1.070   4.942 -0.3729  0.3104 -0.2199
13052SOL    HW150375   2.167   1.100   4.852  1.4049 -1.2593 -0.1941
13052SOL    HW250376   2.213   1.080   5.007 -1.2461  0.2627  0.8226
13053SOL     OW50377   0.562   6.214   3.984 -0.0390  0.0633 -0.2273
13053SOL    HW150378   0.529   6.120   3.996  0.6766 -0.1666 -0.0396
13053SOL    HW250379   0.641   6.214   3.922  0.8483  0.3685  0.8749
13054SOL     OW50380   8.338   2.569   0.737 -0.2673  0.5018  0.0175
13054SOL    HW150381   8.334   2.649   0.798  1.5679 -0.5625  1.5798
13054SOL    HW250382   8.428   2.525   0.746 -1.6489 -2.4016  0.0311
13055SOL     OW50383   9.424   3.038   4.050 -0.0412 -0.5050 -0.2816
13055SOL    HW150384   9.413   2.977   4.128  2.7372  1.2504  1.5964
13055SOL    HW250385   9.470   3.122   4.080 -1.7087  1.5287 -3.2337
13056SOL     OW50386   4.813   4.742   4.531  0.3164 -0.1464 -0.0706
13056SOL    HW150387   4.855   4.728   4.441  1.8765  0.8567  0.4951
13056SOL    HW250388   4.772   4.833   4.535 -0.6041 -0.5521 -0.0861
13057SOL     OW50389   9.546   9.587   2.302  0.5906 -0.0629  0.1551
13057SOL    HW150390   9.574   9.573   2.397  0.3126  0.2639  0.2859
13057SOL    HW250391   9.447   9.588   2.296  0.6100  0.6597 -0.0318
13058SOL     OW50392   4.920   9.027   5.433  0.0678  0.0028 -0.4761
13058SOL    HW150393   4.838   9.079   5.453  0.6716  0.9198 -0.3655
13058SOL    HW250394   4.919   8.998   5.337 -0.4828 -0.1748 -0.4175
13059SOL     OW50395   6.536   5.512   0.908 -0.2124  0.5481  0.8509
13059SOL    HW150396   6.600   5.463   0.967 -0.7234  1.3523  2.0788
13059SOL    HW250397   6.446   5.516   0.952 -0.0264  3.1185  1.0527
13060SOL     OW50398   3.027   7.289   1.424  0.3018 -0.4043  0.0186
13060SOL    HW150399   3.077   7.339   1.353 -1.6748  0.0866 -1.0608
13060SOL    HW250400   2.951   7.345   1.458  0.5705 -1.0667  1.7598
13061SOL     OW50401   9.736   8.202   5.346 -0.1161  0.2451 -0.4687
13061SOL    HW150402   9.693   8.193   5.256  2.8885  1.6659 -2.1605
13061SOL    HW250403   9.757   8.111   5.383  1.0621 -0.3471 -2.5011
13062SOL     OW50404   0.095   5.363   5.590 -0.0382 -0.6162 -0.0641
13062SOL    HW150405   0.165   5.369   5.661  0.8278 -0.8257 -0.8972
13062SOL    HW250406   0.103   5.276   5.542 -2.1636 -1.5386  1.1637
13063SOL     OW50407   6.307   4.777   0.615  0.3525  0.5141  0.6630
13063SOL    HW150408   6.303   4.774   0.714 -0.5404 -1.2516  0.5928
13063SOL    HW250409   6.400   4.795   0.585  0.2046  3.4782  1.8428
13064SOL     OW50410   3.793   2.600   3.202 -0.6136  0.0787  0.0993
13064SOL    HW150411   3.777   2.550   3.288  1.9555  0.5091  0.8697
13064SOL    HW250412   3.837   2.687   3.223 -0.0263  0.2126 -1.6505
13065SOL     OW50413   8.665   5.021   4.456 -0.0309  1.3097  0.0143
13065SOL    HW150414   8.725   5.077   4.514  3.2765 -1.0431 -1.0128
13065SOL    HW250415   8.601   4.970   4.514  2.3732 -0.0323  1.5765
13066SOL     OW50416   0.672   6.556   1.456 -0.0102 -0.2106  0.5034
13066SOL    HW150417   0.671   6.540   1.357 -1.3339 -0.3514  0.5383
13066SOL    HW250418   0.710   6.476   1.502  0.0061 -0.4059  0.1519
13067SOL     OW50419   8.786   7.608   1.042  0.0192  0.1103  0.5768
13067SOL    HW150420   8.795   7.576   1.137 -1.3858  0.1662  0.7317
13067SOL    HW250421   8.690   7.613   1.017  0.1957  3.3795  0.2833
13068SOL     OW50422   1.474   2.591   5.118 -0.1077  0.2046 -0.3530
13068SOL    HW150423   1.559   2.610   5.070 -0.4646 -4.2267 -3.0679
13068SOL    HW250424   1.494   2.549   5.207  0.5214  1.6314  0.1860
13069SOL     OW50425   5.417   0.400   3.923 -0.0061 -0.7231  0.3874
13069SOL    HW150426   5.515   0.413   3.938 -0.5367  0.9564  2.6674
13069SOL    HW250427   5.382   0.331   3.986 -0.6990  0.3653  1.2289
13070SOL     OW50428   8.071   8.310   1.658  0.2709  0.0264  0.5566
13070SOL    HW150429   8.092   8.255   1.577 -0.3964 -0.1476  0.5043
13070SOL    HW250430   8.021   8.392   1.631 -0.2559 -0.2039  0.8340
13071SOL     OW50431   1.016   4.954   1.641 -0.3223  0.7025  0.4368
13071SOL    HW150432   0.980   4.940   1.733  0.6963  1.2320  0.9326
13071SOL    HW250433   0.945   4.994   1.583 -0.7187  1.1757  1.2371
13072SOL     OW50434   9.087   4.487   0.060 -0.1217  0.2986 -0.5201
13072SOL    HW150435   9.164   4.451   0.008  0.5656  0.7858  0.1472
13072SOL    HW250436   9.017   4.416   0.069  0.6804 -0.4754 -0.2913
13073SOL     OW50437   7.098   7.791   2.566  0.3151  0.2219 -0.2878
13073SOL    HW150438   7.168   7.803   2.495  0.1624 -1.0588 -0.6647
13073SOL    HW250439   7.041   7.712   2.543 -0.2924  0.3364  0.8100
13074SOL     OW50440   6.633   0.790   1.663  0.6584  0.2117 -0.1207
13074SOL    HW150441   6.542   0.831   1.667  0.9322  0.7384  1.0214
13074SOL    HW250442   6.660   0.778   1.568 -0.6734 -0.1115 -0.4737
13075SOL     OW50443   2.884   1.535   3.590 -0.0263  0.0306  0.0327
13075SOL    HW150444   2.885   1.633   3.609  2.5315 -0.1353  1.0713
13075SOL    HW250445   2.921   1.518   3.499  1.3522 -0.0453  0.5832
13076SOL     OW50446   5.326   8.471   3.103  0.6090  0.4373 -0.1872
13076SOL    HW150447   5.261   8.485   3.029  0.0232  2.7395  0.7011
13076SOL    HW250448   5.396   8.543   3.100  2.9181 -1.7630 -0.8891
13077SOL     OW50449   4.851   0.818   6.662 -0.1759 -0.2206 -0.2754
13077SOL    HW150450   4.916   0.892   6.678  0.7287 -1.2479  0.8660
13077SOL    HW250451   4.840   0.803   6.563  1.5983 -0.2902 -0.4658
13078SOL     OW50452   9.207   5.988   3.393  0.1716  0.0591 -0.3666
13078SOL    HW150453   9.161   6.067   3.435 -2.0745 -0.9603 -0.8196
13078SOL    HW250454   9.158   5.962   3.310 -0.5642 -3.2596  1.0322
13079SOL     OW50455   6.882   9.315   7.130  0.2315 -0.4640 -0.1053
13079SOL    HW150456   6.809   9.264   7.175 -0.2963  1.3313  1.0878
13079SOL    HW250457   6.959   9.326   7.192  0.2209  0.4540 -0.2428
13080SOL     OW50458   7.627   9.184   2.785 -0.0484 -0.4291  0.5691
13080SOL    HW150459   7.637   9.106   2.846  1.2369 -0.2900  0.5583
13080SOL    HW250460   7.617   9.152   2.691 -2.7360 -0.6673  0.8976
13081SOL     OW50461   9.755   2.596   4.340  0.4267  0.1140 -0.6087
13081SOL    HW150462   9.710   2.676   4.300  2.2326  2.4356  1.8092
13081SOL    HW250463   9.816   2.555   4.272  1.8033  2.6704 -0.9750
13082SOL     OW50464   3.644   8.004   4.918 -0.2651  0.1547  0.0974
13082SOL    HW150465   3.741   7.988   4.902 -0.0455  2.5095 -1.0915
13082SOL    HW250466   3.590   7.953   4.850  0.1638 -0.2917  0.0862
13083SOL     OW50467   3.184   8.697   5.540 -0.0405 -0.0199 -0.0329
13083SOL    HW150468   3.208   8.629   5.610 -1.7212 -1.0814 -0.4666
13083SOL    HW250469   3.266   8.720   5.487  0.7418 -1.0139  0.7194
13084SOL     OW50470   9.515   0.525   0.781 -0.2003  0.5661 -0.0805
13084SOL    HW150471   9.525   0.615   0.822  0.5798  0.6847 -0.5261
13084SOL    HW250472   9.442   0.527   0.713 -0.7872  0.6332  0.5503
13085SOL     OW50473   6.897   8.415   5.533  1.0839  0.0001 -0.3064
13085SOL    HW150474   6.913   8.341   5.468 -0.2593  0.9570 -1.7737
13085SOL    HW250475   6.846   8.380   5.612  1.1701 -0.8042 -0.6016
13086SOL     OW50476   1.063   1.968   0.737 -0.0689  0.1017  0.4907
13086SOL    HW150477   0.973   1.949   0.697  0.2699 -1.0291  0.2603
13086SOL    HW250478   1.090   2.061   0.713 -0.9069  0.2398  0.0481
13087SOL     OW50479   7.431   3.786   3.869 -0.4497  0.3481 -0.4678
13087SOL    HW150480   7.442   3.792   3.770  1.2580 -0.0405 -0.3243
13087SOL    HW250481   7.493   3.851   3.913 -1.4729  0.7859  0.3490
13088SOL     OW50482   2.055   3.958   2.937  0.5988  0.0379 -0.6675
13088SOL    HW150483   2.015   4.047   2.913  0.5790 -0.0370 -0.9051
13088SOL    HW250484   1.994   3.910   3.000  1.3781  0.9158  0.8018
13089SOL     OW50485   6.655   9.100   3.358 -0.0371  0.0174 -0.4453
13089SOL    HW150486   6.651   9.190   3.401  0.8338  0.1606 -0.6484
13089SOL    HW250487   6.688   9.032   3.424  1.4623  0.2690 -0.9044
13090SOL     OW50488   9.691   7.241   3.061  0.1626  0.5821  0.2091
13090SOL    HW150489   9.637   7.249   3.144  0.4460  0.7804  0.3768
13090SOL    HW250490   9.637   7.196   2.989  0.3363 -0.7526  0.8865
13091SOL     OW50491   0.058   1.913   0.546  0.0752 -0.3098 -0.1597
13091SOL    HW150492   0.112   1.860   0.481  0.2300 -0.2725 -0.0621
13091SOL    HW250493  -0.035   1.876   0.550  0.3828 -1.0349  0.4477
13092SOL     OW50494   1.719   5.052   3.741  0.3060  0.0541  0.7415
13092SOL    HW150495   1.662   5.041   3.823  0.1600 -1.8097  0.3933
13092SOL    HW250496   1.682   5.127   3.686 -0.3816  0.4496  1.7083
13093SOL     OW50497   1.747   2.004   4.517  0.0642  0.0421  0.1426
13093SOL    HW150498   1.685   2.069   4.561 -0.9588 -0.4797 -0.4917
13093SOL    HW250499   1.694   1.927   4.482  1.2661 -1.1295  0.8671
13094SOL     OW50500   2.438   2.549   1.581  0.3413 -0.0147 -0.4396
13094SOL    HW150501   2.350   2.501   1.587  0.1571  0.3556 -0.1598
13094SOL    HW250502   2.510   2.490   1.617  0.2172 -0.3401 -0.7168
13095SOL     OW50503   9.441   5.998   5.618  0.5343  0.0464  0.3660
13095SOL    HW150504   9.383   5.934   5.669  2.4205 -1.0985  1.1513
13095SOL    HW250505   9.385   6.051   5.555 -1.8003  1.0678  3.1646
13096SOL     OW50506   2.210   6.017   0.267 -0.0033 -0.4714  0.0495
13096SOL    HW150507   2.288   6.002   0.207  0.9402 -0.7265  1.3187
13096SOL    HW250508   2.175   5.929   0.299 -0.1316 -0.3179  0.3344
13097SOL     OW50509   0.346   1.604   4.588  0.1250 -0.4195 -0.0771
13097SOL    HW150510   0.383   1.648   4.506  1.0719 -2.4287 -0.7464
13097SOL    HW250511   0.313   1.675   4.651  0.9203  1.2201 -1.4470
13098SOL     OW50512   8.765   9.100   6.614  0.3603  0.0746  0.4320
13098SOL    HW150513   8.852   9.051   6.607  0.4408  0.2350  0.3025
13098SOL    HW250514   8.752   9.156   6.532  0.5372  0.7115  0.8376
13099SOL     OW50515   3.256   9.533   1.038  0.0043 -0.1000 -0.0760
13099SOL    HW150516   3.186   9.472   1.075 -0.5516  0.5469 -0.0353
13099SOL    HW250517   3.270   9.515   0.941  1.8228 -2.1413  0.5355
13100SOL     OW50518   0.441   6.784   3.986 -0.1039  0.1873  0.0181
13100SOL    HW150519   0.388   6.706   4.021  2.6874 -1.4416  0.7879
13100SOL    HW250520   0.527   6.791   4.037  0.1433  3.1819 -0.7426
13101SOL     OW50521   3.583   4.642   1.483  0.1097 -0.4870  0.1229
13101SOL    HW150522   3.666   4.696   1.466 -0.2942  0.0794 -0.0724
13101SOL    HW250523   3.581   4.564   1.421 -1.3505  1.5627 -2.4855
13102SOL     OW50524   7.863   6.206   3.417 -0.1003 -0.0140 -0.2711
13102SOL    HW150525   7.832   6.279   3.356 -0.9489 -0.4362 -0.3545
13102SOL    HW250526   7.808   6.124   3.401 -1.3897  0.3343  2.1323
13103SOL     OW50527   4.571   0.779   1.670 -0.0428  0.0261 -0.3289
13103SOL    HW150528   4.514   0.714   1.721  3.2793 -1.8696  1.1403
13103SOL    HW250529   4.606   0.734   1.588  2.0065  0.0557  0.5173
13104SOL     OW50530   3.908   1.132   2.000  0.7102  0.7769 -0.5296
13104SOL    HW150531   3.994   1.163   1.958  2.1419 -2.6235 -0.3400
13104SOL    HW250532   3.907   1.157   2.096  2.1370 -0.2680 -0.2154
13105SOL     OW50533   4.303   6.758   0.234 -0.0130 -0.2284 -0.0465
13105SOL    HW150534   4.339   6.776   0.143 -0.9314 -0.0571 -0.3842
13105SOL    HW250535   4.306   6.659   0.252 -1.4461 -0.4620 -0.9695
13106SOL     OW50536   4.803   8.743   4.445  0.3695  0.3199 -0.3460
13106SOL    HW150537   4.723   8.785   4.402  0.1352  0.9181  0.6545
13106SOL    HW250538   4.884   8.798   4.424 -0.1657  2.1985  2.2145
13107SOL     OW50539   4.920   1.317   2.117 -0.5270 -0.1640 -0.4366
13107SOL    HW150540   4.860   1.244   2.085  0.6313 -1.2676 -0.1680
13107SOL    HW250541   4.900   1.337   2.213 -1.1376  0.1661 -0.6357
13108SOL     OW50542   7.142   7.647   6.600  0.4118 -0.1321 -0.0262
13108SOL    HW150543   7.114   7.558   6.563  0.4291 -0.0687 -0.1948
13108SOL    HW250544   7.066   7.711   6.594  0.2637 -0.2560  0.4987
13109SOL     OW50545   4.106   5.994   0.129  0.1287  0.3721 -0.1037
13109SOL    HW150546   4.079   5.919   0.069  1.9100 -1.7348  1.6736
13109SOL    HW250547   4.032   6.012   0.195 -0.1912  0.0408 -0.3717
13110SOL     OW50548   7.576   2.553   0.628 -0.1981  0.1751  0.2919
13110SOL    HW150549   7.529   2.613   0.563  1.7012 -0.2136 -1.4688
13110SOL    HW250550   7.601   2.468   0.582 -1.4736 -1.3523  2.3542
13111SOL     OW50551   2.338   5.959   5.976 -0.6006  0.3766 -0.4598
13111SOL    HW150552   2.373   6.045   6.012  0.7210  0.0487 -0.9529
13111SOL    HW250553   2.372   5.883   6.031  0.3302 -0.0175 -1.5531
13112SOL     OW50554   4.867   1.664   4.216 -0.3708  0.7732 -0.1020
13112SOL    HW150555   4.845   1.570   4.190  1.5220  0.2860 -0.0053
13112SOL    HW250556   4.948   1.694   4.167  0.2012  1.6543  1.3638
13113SOL     OW50557   2.441   5.738   3.000  0.3197 -0.2398  0.1260
13113SOL    HW150558   2.527   5.692   2.981  0.7134  0.1643  0.9108
13113SOL    HW250559   2.447   5.834   2.972  0.8635  0.3301  2.1170
13114SOL     OW50560   0.679   9.685   4.836 -0.0639  0.0193  0.4747
13114SOL    HW150561   0.614   9.669   4.910 -0.7870 -0.1100 -0.1828
13114SOL    HW250562   0.658   9.625   4.759  0.6328  0.2074  0.1302
13115SOL     OW50563   5.003   2.039   1.724 -0.5550  0.4725 -0.0839
13115SOL    HW150564   5.101   2.021   1.710 -0.4279  0.7159  0.4755
13115SOL    HW250565   4.988   2.071   1.817 -1.4970 -1.9797  0.6535
13116SOL     OW50566   5.889   5.119   1.832 -0.1567 -0.0507  0.1677
13116SOL    HW150567   5.985   5.107   1.858 -0.1376  0.4072  0.3141
13116SOL    HW250568   5.874   5.085   1.740  0.4883  1.2927 -0.4435
13117SOL     OW50569   2.614   2.732   2.605  1.2215  0.1993  0.1158
13117SOL    HW150570   2.544   2.662   2.610 -0.6604  2.0589  0.2587
13117SOL    HW250571   2.685   2.703   2.540  1.0518 -2.2953  0.9932
13118SOL     OW50572   8.913   3.070   0.763 -0.2995 -0.0542  0.0734
13118SOL    HW150573   8.969   3.124   0.700 -2.8971  0.2827 -2.0168
13118SOL    HW250574   8.871   3.131   0.831  2.2208 -0.3751  1.9902
13119SOL     OW50575   2.497   0.212   3.746  0.7586 -0.1947  0.2905
13119SOL    HW150576   2.589   0.230   3.711  0.7700 -0.8246 -0.0117
13119SOL    HW250577   2.452   0.298   3.767  1.3342  0.1256  0.2152
13120SOL     OW50578   5.838   0.756   2.368  0.2692  0.2071 -0.0803
13120SOL    HW150579   5.820   0.789   2.461  2.1726 -2.2289  1.2367
13120SOL    HW250580   5.935   0.770   2.347  0.0307 -0.0702 -1.3617
13121SOL     OW50581   6.139   9.703   5.636  0.0573 -0.0916  0.8529
13121SOL    HW150582   6.194   9.623   5.659  0.6168 -0.2424 -0.9420
13121SOL    HW250583   6.199   9.777   5.606 -0.6538  0.0120 -0.3295
13122SOL     OW50584   6.364   7.493   4.874 -0.2186 -0.2334 -0.1653
13122SOL    HW150585   6.282   7.462   4.921 -0.2187  1.5591  1.0701
13122SOL    HW250586   6.444   7.446   4.912 -0.2652  0.9166  1.3849
13123SOL     OW50587   8.565   5.304   2.048 -0.2840  0.0927 -0.6065
13123SOL    HW150588   8.593   5.235   2.114  1.2676  1.4304  0.1650
13123SOL    HW250589   8.489   5.269   1.993 -0.0005 -1.9277  0.2581
13124SOL     OW50590   3.454   9.560   4.660 -0.3221 -0.3346  0.5468
13124SOL    HW150591   3.374   9.601   4.617  0.8473  0.3364 -1.0382
13124SOL    HW250592   3.490   9.622   4.730 -0.2712  0.0487  0.1811
13125SOL     OW50593   1.242   8.792   6.151 -0.2863 -0.1277 -0.0429
13125SOL    HW150594   1.234   8.828   6.244  0.4799 -1.4434  0.5480
13125SOL    HW250595   1.166   8.729   6.133  1.0080 -1.9491  0.6719
13126SOL     OW50596   3.597   1.919   4.197 -0.2248 -0.1447  0.1440
13126SOL    HW150597   3.614   1.971   4.280  0.7439 -0.9195  0.4350
13126SOL    HW250598   3.602   1.821   4.217 -1.5744 -0.3550 -0.4908
13127SOL     OW50599   1.608   4.430   2.673  0.3828  0.4800  0.3844
13127SOL    HW150600   1.704   4.437   2.646 -0.2536  1.5978 -1.7431
13127SOL    HW250601   1.580   4.515   2.717 -0.0182  0.7759 -0.4177
13128SOL     OW50602   0.387   4.798   0.569 -0.0769  0.1118  0.4298
13128SOL    HW150603   0.439   4.721   0.607 -0.5379 -0.3432  0.1420
13128SOL    HW250604   0.391   4.795   0.469  1.3431  1.4509  0.4213
13129SOL     OW50605   7.681   3.336   2.130  0.8918 -0.2915 -0.4687
13129SOL    HW150606   7.643   3.299   2.215  0.4614  0.8302 -0.1761
13129SOL    HW250607   7.621   3.406   2.093  1.7427  0.1702 -1.0074
13130SOL     OW50608   0.294   6.026   2.484 -0.3808  0.4450  0.3115
13130SOL    HW150609   0.360   6.038   2.558  0.1407  0.2005 -0.1121
13130SOL    HW250610   0.209   5.988   2.521  0.7550 -2.0931  0.4100
13131SOL     OW50611   4.503   4.432   2.559  0.8180 -0.2443  0.0156
13131SOL    HW150612   4.590   4.479   2.570  1.4572 -1.6211  0.9891
13131SOL    HW250613   4.477   4.431   2.462  1.7852  0.3349 -0.2479
13132SOL     OW50614   7.141   2.557   1.809  0.5336  0.1224  0.7207
13132SOL    HW150615   7.085   2.478   1.783  1.4144 -0.4164  0.4369
13132SOL    HW250616   7.160   2.553   1.907  2.4131 -1.2232  0.3232
13133SOL     OW50617   4.722   8.130   1.472  0.3258 -0.2930  0.1319
13133SOL    HW150618   4.722   8.032   1.450  0.4811 -0.0575 -0.9244
13133SOL    HW250619   4.709   8.183   1.388 -0.4462  0.5758  0.7933
13134SOL     OW50620   4.778   1.184   5.788 -0.1729 -0.5101  0.3732
13134SOL    HW150621   4.833   1.145   5.862  1.7643  0.0015 -0.7578
13134SOL    HW250622   4.837   1.235   5.725 -2.1253  1.0892 -0.2347
13135SOL     OW50623   5.427   2.824   3.844 -0.6328 -0.5520  0.5373
13135SOL    HW150624   5.503   2.809   3.781  0.0042 -1.7210  1.5748
13135SOL    HW250625   5.385   2.737   3.868 -2.7149  0.1146 -0.5004
13136SOL     OW50626   1.831   1.054   1.855  0.0162  0.1319 -0.8071
13136SOL    HW150627   1.894   1.122   1.815 -0.4524  1.4110  0.5950
13136SOL    HW250628   1.751   1.101   1.892  0.6177 -0.9818  2.0155
13137SOL     OW50629   2.178   0.622   0.104 -0.3083  0.0044  0.6692
13137SOL    HW150630   2.124   0.651   0.183 -2.4271  0.9511 -1.0678
13137SOL    HW250631   2.116   0.593   0.030  1.6349 -2.2434 -0.1527
13138SOL     OW50632   9.202   6.649   2.544 -0.0590  0.0743  0.6314
13138SOL    HW150633   9.132   6.664   2.475 -0.8396 -0.4212  1.2976
13138SOL    HW250634   9.175   6.572   2.603 -0.2486  1.5253  2.5151
13139SOL     OW50635   0.508   9.250   5.683 -0.5967 -0.6827  0.1731
13139SOL    HW150636   0.535   9.179   5.617  0.3281  0.6870 -0.9428
13139SOL    HW250637   0.568   9.247   5.762 -0.3170 -0.9022 -0.0469
13140SOL     OW50638   1.209   7.745   6.238  0.4210 -0.4825  0.0228
13140SOL    HW150639   1.139   7.779   6.175  0.5644 -0.7672 -0.2940
13140SOL    HW250640   1.297   7.738   6.190  0.8187  0.5181  0.6069
13141SOL     OW50641   1.782   8.951   4.056 -0.2919 -0.0469 -0.2584
13141SOL    HW150642   1.770   8.854   4.036  0.1309 -0.6577  2.3814
13141SOL    HW250643   1.879   8.976   4.049 -0.0954 -0.3418  1.3284
13142SOL     OW50644   7.377   9.787   5.746 -0.7169 -0.2612  0.1561
13142SOL    HW150645   7.444   9.861   5.741 -1.5257  0.5391  0.9414
13142SOL    HW250646   7.424   9.700   5.735  0.4762  0.2764  0.8411
13143SOL     OW50647   6.877   4.185   0.967 -0.7541  0.3051 -0.2239
13143SOL    HW150648   6.785   4.225   0.960 -0.8372  0.6372  2.3364
13143SOL    HW250649   6.877   4.114   1.037  0.8273 -0.0942 -0.6105
13144SOL     OW50650   9.995   1.812   4.120 -0.1692  0.1129  0.4186
13144SOL    HW150651  10.029   1.719   4.135 -1.5615 -0.4392  0.1446
13144SOL    HW250652  10.067   1.866   4.076  1.2209 -0.3717  2.0200
13145SOL     OW50653   9.881   7.351   6.146  0.2012  0.1329 -0.2279
13145SOL    HW150654   9.943   7.276   6.120 -0.5051 -0.6063  0.1777
13145SOL    HW250655   9.931   7.417   6.202  0.1754 -1.4260  1.6961
13146SOL     OW50656   9.807   2.214   2.639  0.3903 -0.6177  0.0312
13146SOL    HW150657   9.879   2.230   2.570 -0.7707 -1.1577 -1.3226
13146SOL    HW250658   9.849   2.176   2.721  1.6190 -1.2602 -0.8676
13147SOL     OW50659   3.644   5.860   3.978 -0.1271  0.0784 -0.2126
13147SOL    HW150660   3.656   5.958   3.962  0.4877  0.0299 -0.0461
13147SOL    HW250661   3.703   5.809   3.915 -0.8941 -0.1973 -0.7126
13148SOL     OW50662   8.817   4.071   2.251  0.0446 -0.0962  0.1770
13148SOL    HW150663   8.914   4.047   2.237  0.0071  0.6849 -1.6646
13148SOL    HW250664   8.762   3.988   2.253  0.5930 -0.4764 -0.2045
13149SOL     OW50665   6.980   0.857   5.545 -0.1170 -0.2259  0.3509
13149SOL    HW150666   6.943   0.765   5.553  0.1755 -0.3386  0.4080
13149SOL    HW250667   7.051   0.859   5.475  0.9388 -0.3862  1.3883
13150SOL     OW50668   3.326   8.157   1.450  0.3014  0.5738  0.2757
13150SOL    HW150669   3.284   8.221   1.515  0.9644  1.3641 -0.0577
13150SOL    HW250670   3.384   8.208   1.386  0.1466 -0.2711 -0.5449
13151SOL     OW50671   1.206   2.658   1.854  0.4625  0.3196 -0.2103
13151SOL    HW150672   1.195   2.561   1.875 -1.2778  0.4377 -0.4851
13151SOL    HW250673   1.200   2.712   1.938 -0.0664  0.3033 -0.2380
13152SOL     OW50674   4.494   0.949   1.283 -0.1203 -0.8907  0.0915
13152SOL    HW150675   4.400   0.965   1.313  0.2315 -0.2384  0.8475
13152SOL    HW250676   4.503   0.974   1.187 -0.4671  0.0261  0.2977
13153SOL     OW50677   0.053   1.121   5.944 -0.4578  0.1804 -0.0752
13153SOL    HW150678   0.096   1.154   5.860 -1.4069 -0.5289 -0.8546
13153SOL    HW250679  -0.022   1.183   5.969 -1.6522 -0.8453 -1.0341
13154SOL     OW50680   2.418   1.889   5.383  0.3250  0.0969  0.1072
13154SOL    HW150681   2.453   1.922   5.296  0.3974  0.5554  0.3094
13154SOL    HW250682   2.321   1.865   5.374  0.4275 -0.2032 -0.1913
13155SOL     OW50683   1.981   4.219   2.424  0.1776 -0.3795 -0.0112
13155SOL    HW150684   1.963   4.269   2.340  3.7818 -1.2100 -1.3856
13155SOL    HW250685   1.973   4.121   2.407  1.6339 -0.5829  0.3948
13156SOL     OW50686   6.863   2.031   0.285  0.2126  0.0572 -0.0786
13156SOL    HW150687   6.819   2.120   0.271 -0.2146 -0.1967 -0.3661
13156SOL    HW250688   6.831   1.967   0.216  1.0957 -0.1150 -0.3251
13157SOL     OW50689   5.241   9.061   6.492 -0.2800 -0.5335  0.1451
13157SOL    HW150690   5.170   8.992   6.480 -0.2019 -0.6389  0.2880
13157SOL    HW250691   5.242   9.091   6.587 -1.0127  0.4270 -0.1368
13158SOL     OW50692   2.170   6.443   5.338  0.1960  0.2293 -0.0711
13158SOL    HW150693   2.099   6.397   5.391  0.1032  0.2658 -0.1658
13158SOL    HW250694   2.143   6.537   5.319  0.2526  0.2313 -0.1407
13159SOL     OW50695   5.644   7.660   5.351  0.2532  0.5065 -0.2236
13159SOL    HW150696   5.583   7.690   5.424  2.2012  1.6851  0.9878
13159SOL    HW250697   5.594   7.656   5.265 -1.8105  0.2330  0.9475
13160SOL     OW50698   8.058   8.535   6.414  0.4748  0.1869 -0.2466
13160SOL    HW150699   7.981   8.553   6.475  1.9805  0.1568  1.7158
13160SOL    HW250700   8.105   8.452   6.444  1.7980  0.6927 -0.8765
13161SOL     OW50701   1.702   6.602   1.406 -0.5810  0.1898  0.1737
13161SOL    HW150702   1.768   6.663   1.449 -1.2299  0.9187  0.1489
13161SOL    HW250703   1.616   6.604   1.458 -0.4925 -0.9673  0.3699
13162SOL     OW50704   0.294   6.892   5.748 -0.5028  0.8170  0.3339
13162SOL    HW150705   0.373   6.905   5.807 -0.8322 -1.6103  1.3910
13162SOL    HW250706   0.268   6.795   5.748 -3.2943  1.5008 -0.2067
13163SOL     OW50707   1.744   1.213   0.706  0.2694 -0.3794 -0.1351
13163SOL    HW150708   1.839   1.244   0.693  1.6486 -3.3890  2.0448
13163SOL    HW250709   1.701   1.269   0.777  1.9967 -1.8265  2.1605
13164SOL     OW50710   8.825   7.359   5.738 -0.1999  0.1071 -0.2663
13164SOL    HW150711   8.828   7.384   5.835 -1.1590  1.1780 -0.5085
13164SOL    HW250712   8.736   7.383   5.700  0.3842  0.2436 -1.5669
13165SOL     OW50713   1.212   8.906   2.322 -0.0521 -0.5436  0.1998
13165SOL    HW150714   1.224   8.930   2.418 -1.2379 -1.2688  0.5405
13165SOL    HW250715   1.243   8.812   2.306  2.2400  0.3097 -0.6143
13166SOL     OW50716   9.776   3.104   2.672 -0.1582 -0.4678  0.5280
13166SOL    HW150717   9.726   3.052   2.741  0.0087 -1.2076  0.1025
13166SOL    HW250718   9.713   3.162   2.621 -0.3798 -0.4102  0.8674
13167SOL     OW50719   2.718   7.776   1.850  0.3652 -0.2411  0.0576
13167SOL    HW150720   2.739   7.836   1.927  0.7208 -2.5354  1.8330
13167SOL    HW250721   2.677   7.691   1.885 -0.8310 -0.7321 -2.4265
13168SOL     OW50722   4.608   6.838   1.157 -0.0730  0.0973  0.0379
13168SOL    HW150723   4.535   6.903   1.137  0.3109  0.4618 -0.1790
13168SOL    HW250724   4.595   6.799   1.249  0.8121  1.9718  0.9804
13169SOL     OW50725   2.897   2.515   1.552 -0.1455  0.1639 -0.5895
13169SOL    HW150726   2.989   2.550   1.570  0.1485 -0.1488 -1.4847
13169SOL    HW250727   2.833   2.592   1.550 -0.2278  0.2166  1.9113
13170SOL     OW50728   8.573   1.741   2.155  0.3829  0.8851 -0.7233
13170SOL    HW150729   8.498   1.789   2.109 -0.1555 -1.0975 -2.0048
13170SOL    HW250730   8.637   1.707   2.086  1.1391  0.4161  0.2041
13171SOL     OW50731   9.577   8.644   1.662 -0.3214  0.2150  0.1523
13171SOL    HW150732   9.638   8.717   1.694 -1.4562  1.2776 -0.0876
13171SOL    HW250733   9.544   8.591   1.740 -0.6008  0.8279  0.4496
13172SOL     OW50734   8.571   0.574   4.279 -0.3207 -0.1365 -0.4830
13172SOL    HW150735   8.662   0.617   4.282 -1.3591  2.0817  0.1087
13172SOL    HW250736   8.573   0.498   4.213  2.0736 -0.4185 -0.1387
13173SOL     OW50737   0.318   5.427   1.438 -0.5660 -0.0681  0.1303
13173SOL    HW150738   0.356   5.464   1.523  1.2203  0.5686 -0.9064
13173SOL    HW250739   0.341   5.330   1.431  0.9999  0.3353 -0.5348
13174SOL     OW50740   3.750   7.161   1.816  0.2130 -0.1497 -0.0961
13174SOL    HW150741   3.811   7.239   1.804 -0.8712  0.3597 -2.8966
13174SOL    HW250742   3.681   7.182   1.885  2.2240 -0.1591  1.9825
13175SOL     OW50743   9.968   6.697   2.372 -0.0230 -0.4697  0.1962
13175SOL    HW150744  10.066   6.694   2.350 -0.5571 -0.1363 -2.4015
13175SOL    HW250745   9.956   6.688   2.471  2.7328  1.3783  0.7626
13176SOL     OW50746   5.935   5.848   1.735  0.3796  0.1236  0.0113
13176SOL    HW150747   6.027   5.887   1.739 -0.8180  3.1639 -1.0828
13176SOL    HW250748   5.919   5.807   1.645  0.2721  0.5867 -0.1799
13177SOL     OW50749   5.151   1.308   2.337  0.3738 -0.0869  0.3884
13177SOL    HW150750   5.094   1.242   2.289  0.9988 -0.7601  0.5505
13177SOL    HW250751   5.247   1.283   2.326  0.4701 -1.0526  3.0911
13178SOL     OW50752   0.176   7.821   4.086  0.5164 -0.6763  0.6698
13178SOL    HW150753   0.179   7.738   4.141 -2.1637 -1.1458  0.1595
13178SOL    HW250754   0.085   7.832   4.046  1.8242  0.6744 -2.1087
13179SOL     OW50755   1.953   5.300   0.305 -0.2376 -0.1044 -0.0475
13179SOL    HW150756   2.006   5.237   0.249 -0.5367 -0.3440 -0.0629
13179SOL    HW250757   1.998   5.310   0.394 -0.2166 -0.3794 -0.0254
13180SOL     OW50758   5.330   3.945   0.335  0.3353 -0.2883 -0.0746
13180SOL    HW150759   5.230   3.938   0.334  0.3334 -0.4401  0.6408
13180SOL    HW250760   5.368   3.861   0.374  0.6956  0.2275  0.6815
13181SOL     OW50761   4.267   7.890   5.624  0.1700  0.1502  0.1175
13181SOL    HW150762   4.224   7.969   5.665 -0.4928  0.4523 -1.1370
13181SOL    HW250763   4.208   7.810   5.634  1.0207 -0.2893  1.7450
13182SOL     OW50764   1.346   6.094   1.158 -0.1406 -0.8572 -0.2977
13182SOL    HW150765   1.303   6.013   1.198 -1.0230 -0.4245 -0.3429
13182SOL    HW250766   1.379   6.072   1.066 -1.0832 -0.9660 -0.6227
13183SOL     OW50767   1.183   1.293   1.288  0.1482  0.0137  0.3629
13183SOL    HW150768   1.229   1.355   1.224  0.0500  0.4344  0.6975
13183SOL    HW250769   1.092   1.329   1.310 -0.8862 -1.4734 -1.3151
13184SOL     OW50770   2.663   0.296   4.321 -0.3891 -0.0005 -0.0136
13184SOL    HW150771   2.711   0.363   4.377  0.3377 -1.9632  1.7487
13184SOL    HW250772   2.659   0.329   4.227  2.5972  1.1539  0.2090
13185SOL     OW50773   2.946   6.114   3.975 -0.7453  0.0416 -0.0358
13185SOL    HW150774   2.910   6.202   3.943 -1.7734  0.4829  2.2466
13185SOL    HW250775   2.884   6.075   4.043  1.7592 -0.4895  2.0133
13186SOL     OW50776   8.451   0.024   5.692  0.4294  0.2867  0.0109
13186SOL    HW150777   8.477   0.083   5.768  0.3931 -0.1473  0.3625
13186SOL    HW250778   8.465  -0.072   5.717  1.8403  0.1958 -1.0721
13187SOL     OW50779   6.294   1.627   0.120  0.9707 -0.0310  0.2212
13187SOL    HW150780   6.201   1.663   0.133  0.7682 -0.2422 -0.5705
13187SOL    HW250781   6.297   1.532   0.150  0.3537 -0.7004 -1.7265
13188SOL     OW50782   7.946   3.286   4.398  0.5836  0.0125 -0.0176
13188SOL    HW150783   8.000   3.227   4.457 -0.7733 -1.6804 -0.4210
13188SOL    HW250784   7.849   3.272   4.417  0.2000  1.1109 -1.0704
13189SOL     OW50785   4.914   3.307   0.662  0.0935  0.0198 -0.0050
13189SOL    HW150786   4.986   3.354   0.613 -0.3281  0.3029 -0.3568
13189SOL    HW250787   4.947   3.281   0.753  1.0182 -0.9136 -0.6009
13190SOL     OW50788   6.860   4.806   2.560  0.1144 -0.1334 -0.2249
13190SOL    HW150789   6.851   4.796   2.659  1.5821  1.0387  0.0462
13190SOL    HW250790   6.783   4.860   2.525 -0.8059 -1.1794  0.1548
13191SOL     OW50791   1.505   1.013   5.496 -0.1739 -0.4193 -0.8189
13191SOL    HW150792   1.431   1.055   5.444 -0.4687  0.5037  0.3330
13191SOL    HW250793   1.569   1.084   5.527  0.8962 -1.1437 -1.3301
13192SOL     OW50794   7.272   4.266   2.324  0.3039  0.5404 -0.6037
13192SOL    HW150795   7.343   4.207   2.287 -1.3596 -1.5950 -0.5151
13192SOL    HW250796   7.208   4.292   2.252 -0.2945  0.2641 -0.1798
13193SOL     OW50797   7.556   9.378   4.349 -0.3135 -0.1780  0.1984
13193SOL    HW150798   7.619   9.396   4.425  0.2360 -0.4019 -0.2028
13193SOL    HW250799   7.542   9.462   4.297  2.3373 -0.8644 -1.7378
13194SOL     OW50800   1.311   1.550   0.637  0.0467 -0.5771  1.2894
13194SOL    HW150801   1.397   1.556   0.587 -1.4131 -0.9274 -1.3700
13194SOL    HW250802   1.276   1.642   0.655  0.2434 -0.4549  1.0449
13195SOL     OW50803   4.321   3.199   1.456 -0.6238  0.2477 -0.1754
13195SOL    HW150804   4.274   3.236   1.536  1.0018  2.5230 -0.2339
13195SOL    HW250805   4.389   3.131   1.485  0.9924  2.1295  0.5525
13196SOL     OW50806   5.403   7.735   4.085 -0.3569  0.3244 -0.2367
13196SOL    HW150807   5.397   7.823   4.040  0.3136 -0.5075 -1.9956
13196SOL    HW250808   5.499   7.715   4.107 -0.4533 -0.1516 -0.2433
13197SOL     OW50809   2.702   8.646   5.645 -0.8139  0.0878 -0.0495
13197SOL    HW150810   2.772   8.650   5.715 -1.4930  1.7578  0.5748
13197SOL    HW250811   2.744   8.653   5.555 -0.1692  1.2893  0.3267
13198SOL     OW50812   8.052   3.120   4.598 -0.3985  0.8003  0.6364
13198SOL    HW150813   8.151   3.113   4.583 -0.4672  1.5847 -0.2610
13198SOL    HW250814   8.011   3.029   4.590 -0.3411  1.0458 -3.5767
13199SOL     OW50815   8.195   7.322   5.615  0.5966  0.6083 -0.5295
13199SOL    HW150816   8.101   7.316   5.651  0.9051 -0.3950  0.1220
13199SOL    HW250817   8.193   7.360   5.522 -0.4952  0.1878 -0.6842
13200SOL     OW50818   8.278   2.024   2.740 -0.0108 -0.2483 -0.5761
13200SOL    HW150819   8.238   2.031   2.649 -1.3642 -0.0528  0.0253
13200SOL    HW250820   8.214   1.977   2.801  0.4647  0.5090  0.5276
13201SOL     OW50821   9.918   0.304   2.161  0.0925  0.7659  0.1845
13201SOL    HW150822   9.853   0.373   2.128 -0.8890 -0.9555 -1.6153
13201SOL    HW250823   9.886   0.266   2.248 -0.9422  0.4626 -0.3183
13202SOL     OW50824   8.645   1.798   6.349  0.0388 -0.4375  0.5555
13202SOL    HW150825   8.559   1.849   6.358 -1.6761 -3.0477 -0.3573
13202SOL    HW250826   8.673   1.765   6.440  0.5181  1.0731  0.9699
13203SOL     OW50827   1.337   2.618   3.174 -0.0076 -0.3318 -0.2447
13203SOL    HW150828   1.294   2.529   3.191 -1.0880  0.2918  0.3448
13203SOL    HW250829   1.436   2.607   3.171 -0.2112 -1.8552 -1.9745
13204SOL     OW50830   3.535   2.004   3.846 -0.7110 -0.6568 -0.3985
13204SOL    HW150831   3.518   2.102   3.836  2.2436 -0.1351 -0.9521
13204SOL    HW250832   3.555   1.964   3.757 -1.0757 -1.5969 -0.0690
13205SOL     OW50833   8.375   3.192   0.128 -0.2911  0.1154 -0.4645
13205SOL    HW150834   8.370   3.204   0.227  0.3062  0.3277 -0.4540
13205SOL    HW250835   8.431   3.112   0.106 -0.0619  0.3230 -0.6400
13206SOL     OW50836   4.386   1.456   3.620  0.1849 -0.2165 -0.0658
13206SOL    HW150837   4.439   1.526   3.572 -1.8997  1.1257 -0.4522
13206SOL    HW250838   4.336   1.498   3.696  1.1045 -1.8034  1.4535
13207SOL     OW50839   9.726   7.070   1.064  0.2249  0.2622 -0.5493
13207SOL    HW150840   9.761   7.021   0.984 -1.6383  0.3257 -1.4329
13207SOL    HW250841   9.752   7.021   1.147  1.7205 -0.0971 -1.2114
13208SOL     OW50842   0.395   5.083   3.098  0.6580  0.3653 -0.0033
13208SOL    HW150843   0.327   5.012   3.077  0.8102  0.1658  0.1661
13208SOL    HW250844   0.442   5.111   3.015 -0.0033  0.8880 -0.2064
13209SOL     OW50845   5.919   7.913   4.442  0.3673  0.6407  0.4768
13209SOL    HW150846   5.872   7.999   4.420  2.6943  1.8793  0.1923
13209SOL    HW250847   6.015   7.932   4.465  0.9470 -1.8915  0.3224
13210SOL     OW50848   8.298   2.060   1.838  0.0998 -0.1011 -0.2183
13210SOL    HW150849   8.255   2.003   1.768  0.9645 -0.7792 -0.2017
13210SOL    HW250850   8.256   2.151   1.837 -1.3008 -0.7275 -0.2370
13211SOL     OW50851   8.577   8.909   1.540  0.3027 -0.0480  0.7367
13211SOL    HW150852   8.638   8.937   1.467 -0.8983  0.7234  0.0141
13211SOL    HW250853   8.524   8.987   1.572 -3.9276 -1.5380 -2.0896
13212SOL     OW50854   1.959   9.030   5.669  0.2568 -0.0660 -0.4933
13212SOL    HW150855   1.947   8.975   5.752  3.1412  0.5775  0.3866
13212SOL    HW250856   2.036   8.994   5.617 -0.6087  0.4654 -2.1608
13213SOL     OW50857   6.287   8.195   6.888 -0.4048 -0.0092  0.1579
13213SOL    HW150858   6.221   8.126   6.857 -0.5201  0.1311  0.0850
13213SOL    HW250859   6.237   8.278   6.913 -0.4265 -0.5516  1.9477
13214SOL     OW50860   0.885   4.460   5.378  0.2567 -0.1408  0.4708
13214SOL    HW150861   0.895   4.380   5.437  3.6022  0.6102  1.0025
13214SOL    HW250862   0.973   4.481   5.335 -1.3184  1.3958 -2.1051
13215SOL     OW50863   5.002   4.843   2.144 -0.5195  0.0106  0.2717
13215SOL    HW150864   4.912   4.802   2.159  0.2947 -2.1902 -0.6993
13215SOL    HW250865   5.072   4.786   2.186  0.6378  0.4849 -0.9725
13216SOL     OW50866   0.893   6.789   6.232 -0.0998 -0.5592 -0.2371
13216SOL    HW150867   0.854   6.879   6.213 -0.3991 -0.9925 -1.7530
13216SOL    HW250868   0.824   6.732   6.278  0.2926  0.1735  1.2766
13217SOL     OW50869   9.744   8.976   6.195 -0.2699  0.2189 -0.0215
13217SOL    HW150870   9.805   8.897   6.187 -1.2397 -0.5005 -0.2956
13217SOL    HW250871   9.776   9.035   6.270 -0.0194 -0.8431  0.7176
13218SOL     OW50872   5.867   8.917   3.290 -0.3278  0.7556 -0.3751
13218SOL    HW150873   5.921   8.904   3.373  0.1620 -0.1782 -0.8357
13218SOL    HW250874   5.783   8.967   3.312 -2.2264 -3.0769  1.4240
13219SOL     OW50875   2.699   4.780   1.697 -0.1161 -0.3122  0.5582
13219SOL    HW150876   2.654   4.787   1.786  1.8579 -0.0002  1.5631
13219SOL    HW250877   2.677   4.860   1.642 -1.5614 -0.6322  0.6526
13220SOL     OW50878   5.546   8.404   5.294 -0.0501  0.4462  0.1306
13220SOL    HW150879   5.581   8.421   5.387  1.9967 -0.7332 -0.4061
13220SOL    HW250880   5.519   8.309   5.285  0.0141  0.4916 -0.5764
13221SOL     OW50881   0.417   8.820   3.946  0.7842  0.2185 -0.2691
13221SOL    HW150882   0.437   8.908   3.990 -1.2683  0.9178 -0.6857
13221SOL    HW250883   0.430   8.746   4.012  0.1200  1.0571  0.8191
13222SOL     OW50884   9.267   1.269   3.585 -0.0499  0.3467  0.4883
13222SOL    HW150885   9.280   1.348   3.646 -1.1198  0.1661  0.9608
13222SOL    HW250886   9.226   1.300   3.500  1.8324  0.6625 -0.3294
13223SOL     OW50887   4.609   0.293   4.185  0.0062 -0.3104  0.2338
13223SOL    HW150888   4.549   0.335   4.253  0.2030 -2.0204  1.5115
13223SOL    HW250889   4.561   0.218   4.140  0.3334 -0.0468 -0.5597
13224SOL     OW50890   9.586   9.227   1.881 -0.9561  0.1869  0.0751
13224SOL    HW150891   9.664   9.244   1.821  1.4334 -1.8875  2.4794
13224SOL    HW250892   9.546   9.138   1.860 -0.6371 -0.1760  0.9646
13225SOL     OW50893   7.358   1.873   4.940 -0.0216  0.5454 -0.0796
13225SOL    HW150894   7.308   1.931   5.004 -0.4508  0.8118 -0.6546
13225SOL    HW250895   7.295   1.840   4.869  0.6517  1.0166 -0.9003
13226SOL     OW50896   9.805   2.838   0.149  0.2682  0.2982 -0.1445
13226SOL    HW150897   9.857   2.776   0.091 -0.0869  0.7411 -0.9482
13226SOL    HW250898   9.712   2.801   0.162  1.2851 -1.4181  2.7789
13227SOL     OW50899   7.691   4.490   3.534 -0.0981 -0.2100 -1.5388
13227SOL    HW150900   7.693   4.391   3.553 -2.8968 -0.0901 -0.4326
13227SOL    HW250901   7.743   4.538   3.604 -1.8947 -0.6272  0.1222
13228SOL     OW50902   3.217   8.283   2.384  0.0016  0.3916  0.1030
13228SOL    HW150903   3.228   8.377   2.418  0.3706  0.9462 -1.4731
13228SOL    HW250904   3.254   8.219   2.450  1.9356  1.5199  0.1630
13229SOL     OW50905   9.609   3.717   3.754  0.3595 -0.4639  0.0600
13229SOL    HW150906   9.628   3.619   3.744 -0.3485 -0.4568 -1.3996
13229SOL    HW250907   9.560   3.732   3.840 -1.6316 -1.7103 -0.8173
13230SOL     OW50908   3.492   8.113   0.223  0.1711  0.1951 -0.0307
13230SOL    HW150909   3.553   8.191   0.209  0.2554  0.3214  1.0020
13230SOL    HW250910   3.449   8.089   0.136  0.2292  1.3189 -0.3857
13231SOL     OW50911   2.864   3.987   1.641  0.0130  0.0421  0.2308
13231SOL    HW150912   2.916   4.044   1.705 -0.2055  1.6438 -0.9759
13231SOL    HW250913   2.800   4.045   1.590 -0.7282 -1.4185 -0.5233
13232SOL     OW50914   6.416   0.171   5.887 -0.2491 -0.1401  0.4886
13232SOL    HW150915   6.338   0.213   5.841 -0.5862 -2.1286 -0.8524
13232SOL    HW250916   6.495   0.233   5.882 -0.5165  0.0584 -2.0851
13233SOL     OW50917   1.026   9.342   6.274  0.1370 -0.6625 -0.0343
13233SOL    HW150918   0.940   9.295   6.254  0.8489 -0.9453 -2.4701
13233SOL    HW250919   1.086   9.280   6.325 -1.8905  0.2692  3.7104
13234SOL     OW50920   3.746   7.744   4.938  0.3924  0.6631  0.1489
13234SOL    HW150921   3.771   7.763   4.843  0.9651  0.6337  0.2899
13234SOL    HW250922   3.808   7.793   4.999 -0.7241  1.6393  0.5129
13235SOL     OW50923   6.024   1.322   6.571 -0.7606  0.4581 -0.0417
13235SOL    HW150924   5.969   1.259   6.625  0.0470 -0.7936 -0.6457
13235SOL    HW250925   6.029   1.411   6.617 -1.3139 -0.1375  1.1820
13236SOL     OW50926   8.690   9.776   5.517  0.1304 -0.5662  0.2340
13236SOL    HW150927   8.646   9.691   5.488 -0.1718 -0.1638 -0.5054
13236SOL    HW250928   8.672   9.847   5.449  1.7741 -0.3534  0.0190
13237SOL     OW50929   2.993   1.455   3.303  0.6627 -0.2135  0.3118
13237SOL    HW150930   2.995   1.545   3.259 -0.9375 -0.4478 -0.2558
13237SOL    HW250931   2.959   1.388   3.238  0.5413 -0.9925  1.1821
13238SOL     OW50932   9.380   0.884   2.242 -0.5449 -0.0250  0.0698
13238SOL    HW150933   9.335   0.881   2.152 -1.3214  0.4149  0.4353
13238SOL    HW250934   9.421   0.975   2.255 -0.1347 -0.2030  0.0168
13239SOL     OW50935   4.236   0.763   5.148  0.1685 -0.3895 -0.1043
13239SOL    HW150936   4.181   0.780   5.066 -1.2087 -1.1442  0.6536
13239SOL    HW250937   4.246   0.848   5.199  0.5196 -0.0449 -0.7365
13240SOL     OW50938   2.083   8.235   4.863 -0.6572  0.2177  0.0742
13240SOL    HW150939   2.053   8.320   4.820  0.6914  0.1884 -0.9819
13240SOL    HW250940   2.126   8.177   4.794  1.2610  0.0233  1.3793
13241SOL     OW50941   0.135   5.368   4.740  0.0926  0.0126  0.1979
13241SOL    HW150942   0.125   5.278   4.782 -2.4200  0.4417  0.6051
13241SOL    HW250943   0.134   5.438   4.811  1.2608  0.4178 -0.1805
13242SOL     OW50944   3.966   9.815   5.866 -0.6494  0.2736 -0.0045
13242SOL    HW150945   4.056   9.835   5.826 -0.2521 -0.7763  0.3465
13242SOL    HW250946   3.941   9.887   5.930 -0.5102  1.0852 -0.8434
13243SOL     OW50947   7.463   3.490   2.085  0.5148 -0.2417 -0.0459
13243SOL    HW150948   7.423   3.569   2.132  0.0910 -1.9772  2.5711
13243SOL    HW250949   7.394   3.420   2.070  0.8903 -0.1758 -2.3605
13244SOL     OW50950   2.177   7.572   4.502  0.1693  0.0487 -0.1500
13244SOL    HW150951   2.184   7.472   4.509 -2.5432 -0.1085  0.8124
13244SOL    HW250952   2.119   7.596   4.425 -0.4998  0.8179  0.5801
13245SOL     OW50953   1.407   0.808   4.386  0.7207  0.1803  0.3636
13245SOL    HW150954   1.450   0.748   4.318  2.2077  0.7416  0.7930
13245SOL    HW250955   1.338   0.757   4.437  1.3166 -0.9187  0.0863
13246SOL     OW50956   4.673   1.203   0.443  0.1075 -0.3582 -0.5778
13246SOL    HW150957   4.631   1.246   0.363  0.2286  1.6198  0.3731
13246SOL    HW250958   4.602   1.157   0.497 -0.0226 -1.4170 -1.6406
13247SOL     OW50959   2.194   2.552   1.864  0.0162  0.4333 -0.0010
13247SOL    HW150960   2.182   2.488   1.788 -0.9102 -0.1741  0.6375
13247SOL    HW250961   2.291   2.568   1.880  0.2265 -0.0412 -0.8197
13248SOL     OW50962   5.938   2.017   5.335 -0.2303  0.2202 -0.3397
13248SOL    HW150963   5.939   2.026   5.236  0.7901 -1.5524 -0.5106
13248SOL    HW250964   5.903   1.927   5.360  0.2354  0.3729  0.8985
13249SOL     OW50965   8.035   6.657   1.177 -0.0168 -0.1375 -0.1867
13249SOL    HW150966   8.115   6.704   1.213  0.1940 -1.2028  0.7649
13249SOL    HW250967   7.969   6.724   1.144 -0.0946  0.8883  1.9377
13250SOL     OW50968   0.764   1.691   2.480 -0.2387  0.0078 -0.5910
13250SOL    HW150969   0.752   1.788   2.504 -0.4794  0.2777 -1.8014
13250SOL    HW250970   0.843   1.681   2.419  1.3370 -0.8811  1.5323
13251SOL     OW50971   1.936   3.726   2.031  0.4066  0.0247  0.7891
13251SOL    HW150972   1.841   3.737   2.003  0.6994 -0.4326 -0.3948
13251SOL    HW250973   1.943   3.649   2.095  0.2100 -0.9190 -0.3203
13252SOL     OW50974   1.009   4.577   3.961 -0.5199  0.6630  0.1130
13252SOL    HW150975   1.049   4.630   4.036  0.2628 -0.6938  0.6573
13252SOL    HW250976   1.028   4.480   3.974 -3.8191 -0.0450  0.2930
13253SOL     OW50977   9.215   2.856   3.172 -0.2267  0.1592  0.0594
13253SOL    HW150978   9.145   2.864   3.100  0.2834  0.2530 -0.4243
13253SOL    HW250979   9.245   2.761   3.179 -1.7114 -0.2344  1.5105
13254SOL     OW50980   1.336   1.277   2.770 -0.2548 -0.6369  0.0168
13254SOL    HW150981   1.409   1.303   2.833 -0.4666 -1.9109  0.8132
13254SOL    HW250982   1.266   1.225   2.819 -1.5158  0.2382 -0.8177
13255SOL     OW50983   1.655   7.844   4.229  0.2936 -0.3479  0.0458
13255SOL    HW150984   1.743   7.824   4.185 -0.3900  0.1050 -1.5482
13255SOL    HW250985   1.646   7.942   4.243 -0.2722 -0.3252 -0.4652
13256SOL     OW50986   4.738   1.339   4.508 -0.0533  0.5079  0.3422
13256SOL    HW150987   4.716   1.304   4.417  1.1657 -0.4863  0.4143
13256SOL    HW250988   4.774   1.432   4.501 -2.2624  1.3653  0.0470
13257SOL     OW50989   2.009   4.578   4.816  0.4016 -0.3001  0.6437
13257SOL    HW150990   1.938   4.606   4.880  0.4629  0.3764  0.4175
13257SOL    HW250991   2.017   4.646   4.743  1.4617 -0.2378  0.8079
13258SOL     OW50992   6.937   2.509   5.579  0.2218 -1.0785  0.3728
13258SOL    HW150993   7.021   2.563   5.573 -0.5389  0.3418  2.1016
13258SOL    HW250994   6.954   2.417   5.542  2.0343 -0.2644 -0.9082
13259SOL     OW50995   2.444   7.569   4.578  0.8094  0.2206 -0.2849
13259SOL    HW150996   2.446   7.571   4.678  1.4972  1.3941 -0.3042
13259SOL    HW250997   2.350   7.575   4.546  0.6746  1.1506  0.2814
13260SOL     OW50998   6.665   1.997   4.848 -0.3146  0.6434  0.6540
13260SOL    HW150999   6.676   2.079   4.904 -2.9329  0.3018  1.7176
13260SOL    HW251000   6.713   1.920   4.890  1.1177  1.3330  0.2908
13261SOL     OW51001   7.402   4.548   0.650  0.6065  0.5346  0.4872
13261SOL    HW151002   7.360   4.486   0.584 -0.8909 -1.3739  3.1682
13261SOL    HW251003   7.481   4.504   0.692  1.3960  1.6483  0.2143
13262SOL     OW51004   4.868   2.726   0.041 -0.1466  0.0102  0.3804
13262SOL    HW151005   4.909   2.774  -0.036 -0.0689 -2.0461 -0.8891
13262SOL    HW251006   4.768   2.739   0.039 -0.0349  1.0066  0.6978
13263SOL     OW51007   9.966   5.284   2.498  0.4739  0.3135  0.1410
13263SOL    HW151008  10.027   5.206   2.485  0.2456 -0.0491  1.1659
13263SOL    HW251009  10.005   5.346   2.566  0.4877  0.9088 -0.4181
13264SOL     OW51010   1.432   4.176   3.149 -0.0859 -0.4369  0.6228
13264SOL    HW151011   1.458   4.102   3.087  0.6555  1.0133 -0.8357
13264SOL    HW251012   1.332   4.180   3.155 -0.1235 -1.7041  0.9024
13265SOL     OW51013   9.958   6.463   4.646 -0.2551  0.0920  0.5216
13265SOL    HW151014  10.010   6.390   4.690  0.0653  1.1862  1.9930
13265SOL    HW251015   9.861   6.441   4.647  0.0205 -1.3923 -1.1548
13266SOL     OW51016   0.638   3.132   5.061 -0.5346  0.1674 -0.2132
13266SOL    HW151017   0.731   3.094   5.060 -0.7727 -0.4252 -0.6477
13266SOL    HW251018   0.582   3.084   4.993 -1.0862  0.7068 -0.1464
13267SOL     OW51019   8.551   0.535   5.352 -0.6028 -0.5311  0.8002
13267SOL    HW151020   8.602   0.519   5.268 -2.6197 -0.5895 -0.4426
13267SOL    HW251021   8.511   0.449   5.384 -1.1969 -0.2165  0.9106
13268SOL     OW51022   8.052   5.834   0.262 -0.1059 -0.3300  0.2831
13268SOL    HW151023   7.992   5.780   0.203 -0.2540  0.3537 -0.2059
13268SOL    HW251024   8.084   5.778   0.338 -1.6034 -0.6233  0.7144
13269SOL     OW51025   3.402   0.150   0.472  0.8690 -0.1380  0.1760
13269SOL    HW151026   3.345   0.192   0.543 -0.2293  0.0802 -0.8288
13269SOL    HW251027   3.382   0.192   0.384  2.5770 -0.0740 -0.1992
13270SOL     OW51028   8.107   9.285   6.146  0.1849  0.3389 -0.1999
13270SOL    HW151029   8.062   9.321   6.228  1.4113  0.1586  0.5587
13270SOL    HW251030   8.063   9.200   6.119 -1.0109  1.0193 -0.4486
13271SOL     OW51031   2.675   3.783   4.446 -0.3581 -0.0512 -0.6024
13271SOL    HW151032   2.667   3.782   4.347  2.1190 -0.3224 -0.8499
13271SOL    HW251033   2.635   3.868   4.482 -0.7484  0.3238 -1.8768
13272SOL     OW51034   4.057   0.957   1.678 -0.7096 -0.1110  0.0660
13272SOL    HW151035   4.053   0.891   1.603  0.2881 -0.3266  0.1860
13272SOL    HW251036   4.150   0.994   1.684 -0.8365  0.0640  1.0555
13273SOL     OW51037   6.946   1.519   7.693  0.1358 -0.9135  0.0225
13273SOL    HW151038   6.980   1.426   7.687  0.4179 -1.0174  2.4613
13273SOL    HW251039   7.019   1.583   7.672  0.5637 -1.2273  0.5374
13274SOL     OW51040   4.760   9.762   2.288 -0.3347 -0.4786  0.3906
13274SOL    HW151041   4.802   9.824   2.223 -0.5002 -0.0692  0.6745
13274SOL    HW251042   4.715   9.687   2.239  0.3942 -0.7122  0.0743
13275SOL     OW51043   9.108   8.060   2.170  0.1376  0.2062  0.4703
13275SOL    HW151044   9.095   8.123   2.247  1.6557  0.2361  0.7256
13275SOL    HW251045   9.183   8.093   2.112 -0.7355 -0.0205 -0.8204
13276SOL     OW51046   1.079   1.797   2.153  0.1957 -0.4841 -0.4044
13276SOL    HW151047   0.979   1.787   2.147  0.1002 -1.0232  1.7383
13276SOL    HW251048   1.112   1.752   2.235  2.1297  0.3939 -0.6731
13277SOL     OW51049   7.746   5.012   8.099 -0.3743  0.2807 -0.2439
13277SOL    HW151050   7.700   5.051   8.179  1.9329  1.2242  0.6609
13277SOL    HW251051   7.820   5.073   8.071  0.2021 -1.1162 -1.7997
13278SOL     OW51052   1.643   5.142   5.590  0.0797 -0.0507  0.0840
13278SOL    HW151053   1.683   5.163   5.501  0.9358  1.3590  0.8001
13278SOL    HW251054   1.554   5.187   5.598 -1.2003 -2.2562 -1.0471
13279SOL     OW51055   3.943   6.885   0.097 -0.2037 -0.0020 -0.3914
13279SOL    HW151056   3.911   6.795   0.126 -1.3411  1.0027  1.5655
13279SOL    HW251057   4.018   6.874   0.031 -0.9690 -2.3602 -0.9193
13280SOL     OW51058   4.094   5.935   4.378  0.3373 -0.4912  0.1089
13280SOL    HW151059   4.015   5.951   4.437 -0.2928  0.9126 -1.0971
13280SOL    HW251060   4.075   5.968   4.286  2.2793 -0.2321 -0.2355
13281SOL     OW51061   3.949   1.580   3.570  0.6132  0.1059  0.2794
13281SOL    HW151062   4.020   1.531   3.520  2.1131  3.4706 -1.0555
13281SOL    HW251063   3.991   1.637   3.640 -1.0041  0.1732  1.2183
13282SOL     OW51064   3.293   1.900   5.682 -0.0682 -0.1729 -0.4954
13282SOL    HW151065   3.382   1.904   5.727  0.0371  0.1221 -0.7242
13282SOL    HW251066   3.227   1.856   5.742  0.2267 -0.3706 -0.3147
13283SOL     OW51067   8.515   5.851   5.340 -0.6911 -0.0248 -0.0931
13283SOL    HW151068   8.580   5.829   5.267 -1.3918  1.3365 -1.1435
13283SOL    HW251069   8.549   5.815   5.427  0.5286 -0.9871 -0.9504
13284SOL     OW51070   1.573   8.268   1.146 -0.4343 -0.0565  0.0174
13284SOL    HW151071   1.543   8.354   1.187 -2.1721 -0.3703 -0.5573
13284SOL    HW251072   1.506   8.238   1.078  0.6738 -1.3329 -0.5373
13285SOL     OW51073   9.370   0.960   3.551 -0.4396  0.3307 -0.1449
13285SOL    HW151074   9.428   0.917   3.621 -0.0827  0.6470 -0.2419
13285SOL    HW251075   9.367   1.059   3.567 -0.6213  0.3626 -0.3843
13286SOL     OW51076   1.942   2.588   0.436 -0.2972 -0.6214  0.4039
13286SOL    HW151077   2.029   2.636   0.424 -0.9932  0.7177  0.6587
13286SOL    HW251078   1.944   2.537   0.522 -0.0896  0.1253  0.8463
13287SOL     OW51079   7.421   1.165   5.201  0.2640  0.3236  0.0939
13287SOL    HW151080   7.325   1.174   5.227 -0.1896 -0.0997 -1.3907
13287SOL    HW251081   7.452   1.249   5.157 -0.2855 -0.5573 -2.0676
13288SOL     OW51082   5.989   8.972   4.704 -0.2223  0.9710  0.3122
13288SOL    HW151083   5.997   9.062   4.748 -1.6495  0.0131  2.6174
13288SOL    HW251084   6.021   8.902   4.767 -2.0649 -0.4246 -0.2897
13289SOL     OW51085   9.722   5.989   5.281  0.2789  0.2299 -0.2455
13289SOL    HW151086   9.695   5.907   5.230  0.5942 -0.2079  0.2813
13289SOL    HW251087   9.659   6.063   5.260 -0.2406 -0.2585 -0.4421
13290SOL     OW51088   0.999   2.431   4.247  0.0753  0.7325 -0.3167
13290SOL    HW151089   1.013   2.448   4.150  2.0191  1.9356  0.1469
13290SOL    HW251090   0.914   2.474   4.277  0.4882  2.0835 -1.0645
13291SOL     OW51091   4.175   7.604   1.224  0.2024  0.4110  0.3289
13291SOL    HW151092   4.266   7.567   1.208  0.1442  0.0164  0.8680
13291SOL    HW251093   4.118   7.590   1.143  0.2574 -0.4612  0.4367
13292SOL     OW51094   2.080   1.647   0.408 -0.4965  0.3307  0.3595
13292SOL    HW151095   2.108   1.723   0.350 -1.6488 -0.0876 -0.7540
13292SOL    HW251096   2.061   1.566   0.352 -2.5811  0.2127  1.2003
13293SOL     OW51097   8.340   2.957   5.959 -0.0154  0.2588 -0.6360
13293SOL    HW151098   8.244   2.928   5.951  0.3342 -1.1710  0.1909
13293SOL    HW251099   8.400   2.883   5.929  0.8741  0.5598  0.3648
13294SOL     OW51100   8.729   5.502   0.775 -0.4032  0.4556  0.1094
13294SOL    HW151101   8.800   5.558   0.732 -0.1570  0.9939  1.1928
13294SOL    HW251102   8.767   5.455   0.855 -1.0373  0.0430  0.1729
13295SOL     OW51103   0.564   9.035   6.201  0.0518  0.3184 -0.1128
13295SOL    HW151104   0.601   8.996   6.285 -1.4852 -0.9678 -0.0144
13295SOL    HW251105   0.522   8.964   6.146 -1.2897  1.5483 -0.7297
13296SOL     OW51106   3.383   4.032   3.871  0.3682  0.1302 -0.3961
13296SOL    HW151107   3.442   4.109   3.849  2.6134 -1.1094  1.0406
13296SOL    HW251108   3.354   4.040   3.967 -1.4234  0.4595 -0.9473
13297SOL     OW51109   4.570   4.646   1.125  0.4210 -0.3617  0.1587
13297SOL    HW151110   4.597   4.692   1.210 -0.2538  0.3749 -0.0277
13297SOL    HW251111   4.481   4.603   1.137 -0.4992  1.2784 -0.7472
13298SOL     OW51112   8.070   1.641   2.947 -0.4377  0.1409  0.2340
13298SOL    HW151113   7.995   1.627   3.011 -0.6414  2.1805  0.4913
13298SOL    HW251114   8.043   1.610   2.856 -0.7218 -1.2946  0.7933
13299SOL     OW51115   8.589   9.481   1.244  0.2141 -0.5766  0.2936
13299SOL    HW151116   8.570   9.485   1.342 -0.6827 -0.6591  0.1338
13299SOL    HW251117   8.653   9.407   1.225 -0.8452 -1.6070  0.6423
13300SOL     OW51118   4.255   1.176   3.241  0.0857  0.1109  0.2546
13300SOL    HW151119   4.335   1.116   3.251  1.3938  1.7459 -0.0912
13300SOL    HW251120   4.208   1.155   3.156  1.7056  0.8962 -0.8613
13301SOL     OW51121   9.903   6.203   4.126 -0.4919  0.3367 -0.1356
13301SOL    HW151122   9.871   6.232   4.036 -0.3755  1.2819  0.1134
13301SOL    HW251123   9.984   6.145   4.116 -1.3044 -0.6950 -0.6913
13302SOL     OW51124   8.864   0.745   6.033 -0.2278  0.6650 -0.0936
13302SOL    HW151125   8.782   0.698   6.064  0.1565  0.7360  1.0424
13302SOL    HW251126   8.942   0.682   6.035  0.4477  1.5304  2.1822
13303SOL     OW51127   8.571   9.787   6.745 -0.0430 -0.7661 -0.0842
13303SOL    HW151128   8.556   9.845   6.825 -0.5268 -0.1623 -0.5994
13303SOL    HW251129   8.644   9.827   6.689  0.5369 -1.3764  0.2341
13304SOL     OW51130   2.940   5.750   0.820  0.3989  0.1813 -0.0638
13304SOL    HW151131   2.997   5.829   0.799  0.0150  0.2853 -0.7441
13304SOL    HW251132   2.867   5.777   0.884 -1.1490  0.9573 -2.0970
13305SOL     OW51133   6.694   0.643   2.103  0.4753 -0.0022 -0.0223
13305SOL    HW151134   6.666   0.639   2.199 -1.1377 -1.5708 -0.5513
13305SOL    HW251135   6.736   0.556   2.077  0.2734  0.1758 -0.9432
13306SOL     OW51136   7.606   5.705   2.199  0.0215  0.0444  0.2793
13306SOL    HW151137   7.556   5.626   2.163  2.3645 -1.4081  0.1198
13306SOL    HW251138   7.642   5.758   2.122  0.4074 -0.0203  0.4161
13307SOL     OW51139   2.935   1.293   5.712  0.0378 -0.4569 -0.0147
13307SOL    HW151140   2.914   1.227   5.639 -1.8996  2.3674 -2.1377
13307SOL    HW251141   2.888   1.265   5.796  0.5480 -2.6097 -0.4025
13308SOL     OW51142   1.001   5.035   0.229 -0.6163 -0.1112 -0.3813
13308SOL    HW151143   0.938   4.962   0.251 -0.1822 -0.3969 -0.0804
13308SOL    HW251144   0.975   5.119   0.277 -0.8469 -0.1875 -0.3757
13309SOL     OW51145   4.657   1.998   4.875 -0.0372 -0.0259  0.1753
13309SOL    HW151146   4.642   2.058   4.954 -0.5853  0.6367 -0.4247
13309SOL    HW251147   4.734   1.937   4.893 -0.9407 -0.7402  1.7198
13310SOL     OW51148   8.078   7.867   4.693 -0.7138 -0.7037 -0.0754
13310SOL    HW151149   8.084   7.768   4.676  0.8865 -0.2530 -2.1718
13310SOL    HW251150   8.169   7.907   4.692 -1.4245  0.9573 -0.0497
13311SOL     OW51151   6.201   9.523   2.522  0.1933  0.0855 -0.3404
13311SOL    HW151152   6.213   9.612   2.566 -1.0233  0.2709 -0.3848
13311SOL    HW251153   6.178   9.454   2.591 -0.2732  0.0890 -0.4912
13312SOL     OW51154   4.506   2.484   2.991  0.4461 -0.1785 -0.0257
13312SOL    HW151155   4.600   2.518   2.993  0.8974 -1.4296  0.2529
13312SOL    HW251156   4.507   2.384   2.985 -0.8601 -0.2814  1.4079
13313SOL     OW51157   6.514   9.249   4.719 -0.5997  0.5813  0.0522
13313SOL    HW151158   6.503   9.225   4.815 -0.3059  0.9665  0.1847
13313SOL    HW251159   6.576   9.183   4.675 -1.2118  0.0535 -0.0213
13314SOL     OW51160   2.435   8.326   1.099 -0.2185  0.6686 -0.3526
13314SOL    HW151161   2.425   8.410   1.153  0.5923  0.4115  0.1991
13314SOL    HW251162   2.520   8.280   1.124 -1.0957 -0.7947  0.0016
13315SOL     OW51163   9.294   7.848   2.355 -0.8630  0.1040  0.2627
13315SOL    HW151164   9.331   7.905   2.282 -1.8438  0.3447 -0.0434
13315SOL    HW251165   9.296   7.899   2.441 -1.5205  0.5212  0.0334
13316SOL     OW51166   3.384   8.587   5.245 -0.0987 -0.0171  0.0512
13316SOL    HW151167   3.365   8.517   5.176 -3.0816  1.0052 -0.2313
13316SOL    HW251168   3.422   8.544   5.327 -0.0826 -1.7184 -0.8325
13317SOL     OW51169   9.822   7.335   1.097 -0.0814  0.0315  0.0512
13317SOL    HW151170   9.890   7.351   1.025  0.6983  0.6072  0.9029
13317SOL    HW251171   9.801   7.237   1.102  0.4758 -0.1137 -0.3990
13318SOL     OW51172   0.428   4.881   2.399 -0.3622 -0.2453  0.3411
13318SOL    HW151173   0.386   4.862   2.310 -1.7728 -0.1627  0.9653
13318SOL    HW251174   0.390   4.818   2.467 -1.3487  1.4621  1.4171
13319SOL     OW51175   8.766   9.858   6.574 -0.7698 -0.5266  0.4831
13319SOL    HW151176   8.788   9.827   6.481 -0.4827  1.0485  0.0131
13319SOL    HW251177   8.815   9.801   6.640  2.2192  0.8653 -0.4594
13320SOL     OW51178   3.364   5.880   2.093 -0.1058  0.3490  0.0356
13320SOL    HW151179   3.320   5.823   2.161 -0.2753  0.0223 -0.3441
13320SOL    HW251180   3.368   5.831   2.005  0.0561  0.7827 -0.2037
13321SOL     OW51181   0.656   4.145   4.682  0.3757  0.3499 -0.0566
13321SOL    HW151182   0.639   4.130   4.780 -2.2479 -0.0131 -0.5445
13321SOL    HW251183   0.712   4.070   4.647 -0.6531 -0.7815  0.6730
13322SOL     OW51184   0.009   6.710   4.253  0.2050 -0.1460  0.4607
13322SOL    HW151185   0.062   6.630   4.224 -0.2918 -0.4315  0.3446
13322SOL    HW251186   0.012   6.779   4.181  1.4730  0.3517  0.9698
13323SOL     OW51187   9.340   9.302   2.833 -0.1661  0.4947 -0.1208
13323SOL    HW151188   9.371   9.351   2.914 -0.2633  0.6561 -0.1822
13323SOL    HW251189   9.344   9.362   2.753  1.0818 -0.0162 -0.4597
13324SOL     OW51190   3.815   5.689   0.878 -0.2142  0.3660  0.6348
13324SOL    HW151191   3.849   5.702   0.785 -0.9987 -0.6692  0.1892
13324SOL    HW251192   3.887   5.710   0.944  2.2578 -4.4892 -0.3118
13325SOL     OW51193   5.996   5.382   0.872 -0.1560 -0.0601  0.0878
13325SOL    HW151194   5.961   5.347   0.785 -1.4839  1.2803  0.0635
13325SOL    HW251195   5.930   5.446   0.911  0.7843 -0.0523  1.7089
13326SOL     OW51196   2.002   6.672   5.314  0.7833 -0.2902  0.4128
13326SOL    HW151197   1.923   6.664   5.253  1.0615 -0.2827  0.0483
13326SOL    HW251198   1.978   6.638   5.405  0.1955  0.2086  0.4483
13327SOL     OW51199   2.729   6.937   6.056 -0.2414  0.1694  0.3833
13327SOL    HW151200   2.810   6.994   6.038 -0.2529 -0.1125 -0.6249
13327SOL    HW251201   2.701   6.948   6.151  1.0712  0.1555  0.7825
13328SOL     OW51202   9.644   6.049   2.221 -0.1354 -0.2471 -0.5856
13328SOL    HW151203   9.708   6.027   2.148  0.0377  0.3114 -0.6059
13328SOL    HW251204   9.555   6.073   2.181  0.8349  3.1997 -0.8208
13329SOL     OW51205   5.123   0.936   6.310  0.0554 -0.4400  0.7590
13329SOL    HW151206   5.034   0.925   6.264  1.2338 -0.1650 -1.6959
13329SOL    HW251207   5.127   1.028   6.350 -0.5036 -0.1860  0.2586
13330SOL     OW51208   4.994   7.974   5.966  0.0158 -0.5319 -0.2467
13330SOL    HW151209   5.044   7.978   5.879  1.4097  1.7663  0.5970
13330SOL    HW251210   4.896   7.977   5.948  0.2674 -0.9408 -1.7829
13331SOL     OW51211   9.591   5.793   1.131 -0.4264 -0.4016  0.5849
13331SOL    HW151212   9.627   5.869   1.184 -0.8018  0.4370 -0.3456
13331SOL    HW251213   9.497   5.774   1.158 -0.6650  0.1177  0.1378
13332SOL     OW51214   4.520   0.300   1.954 -0.4506 -0.0290 -0.3136
13332SOL    HW151215   4.458   0.224   1.939 -0.0878 -0.4065  0.0945
13332SOL    HW251216   4.471   0.386   1.941 -1.1680 -0.3185  0.4404
13333SOL     OW51217   6.329   3.007   0.010 -0.1864 -0.8466  0.1340
13333SOL    HW151218   6.328   2.944  -0.067  1.0305 -1.1752  0.3756
13333SOL    HW251219   6.403   3.073  -0.003 -1.7994  0.8963 -0.4003
13334SOL     OW51220   0.810   2.181   4.150  0.3664 -0.2242  0.5686
13334SOL    HW151221   0.821   2.242   4.072  0.7723  1.1874  1.7174
13334SOL    HW251222   0.712   2.163   4.164  0.2744 -0.2374 -0.0609
13335SOL     OW51223   6.810   7.576   5.757 -0.2326 -0.0808 -0.3672
13335SOL    HW151224   6.808   7.484   5.795 -1.6682 -0.2014 -0.7188
13335SOL    HW251225   6.894   7.588   5.703 -0.8740 -1.7811 -1.7784
13336SOL     OW51226   8.326   0.104   5.462  0.5107 -0.3326  0.1975
13336SOL    HW151227   8.252   0.045   5.430 -0.6916  0.3207  1.7235
13336SOL    HW251228   8.368   0.063   5.544 -1.4029  1.6774  2.2428
13337SOL     OW51229   3.204   3.838   3.342  0.3198  0.3539  0.2632
13337SOL    HW151230   3.294   3.796   3.329 -0.0725 -1.2341  2.2827
13337SOL    HW251231   3.145   3.773   3.391 -1.5679  1.8042 -0.0705
13338SOL     OW51232   1.244   0.951   4.213 -0.0602  0.3011 -0.5836
13338SOL    HW151233   1.228   0.879   4.146  1.9166  0.0115 -0.7485
13338SOL    HW251234   1.283   0.912   4.296 -0.6667  0.9383  0.0074
13339SOL     OW51235   1.779   4.338   1.923 -0.3422  0.7023 -0.4392
13339SOL    HW151236   1.755   4.413   1.862 -1.1138  0.2679 -0.6790
13339SOL    HW251237   1.802   4.257   1.869 -0.9219  0.3449 -0.1607
13340SOL     OW51238   7.427   3.048   6.056 -0.3084 -0.1553 -0.1262
13340SOL    HW151239   7.384   2.997   5.981  1.0505 -1.2768 -0.1595
13340SOL    HW251240   7.459   3.136   6.021 -2.3416  0.6132 -0.1525
13341SOL     OW51241   8.375   9.410   4.327 -0.3090 -0.0286 -0.4656
13341SOL    HW151242   8.446   9.344   4.302  1.5489  1.3424  1.1051
13341SOL    HW251243   8.357   9.405   4.425 -0.4019  1.5312 -0.3860
13342SOL     OW51244   4.095   9.328   5.915 -0.5095  0.3476  0.1187
13342SOL    HW151245   4.037   9.263   5.966 -0.1363  0.7387  1.0544
13342SOL    HW251246   4.061   9.421   5.930  1.4733  0.7750  2.2452
13343SOL     OW51247   0.055   3.142   8.087  0.4374 -0.1638 -0.1558
13343SOL    HW151248  -0.040   3.161   8.112  0.4766  1.8361 -1.3774
13343SOL    HW251249   0.063   3.049   8.052 -0.9866 -0.4837  0.3537
13344SOL     OW51250   4.935   2.270   2.382 -0.0491 -0.1477  0.0396
13344SOL    HW151251   5.027   2.238   2.361  0.3301 -0.2199  1.7565
13344SOL    HW251252   4.888   2.204   2.440 -0.7350  0.4905  0.2310
13345SOL     OW51253   1.153   4.909   4.174  0.1142 -0.1796 -0.3489
13345SOL    HW151254   1.078   4.968   4.144 -1.1371 -0.5221  2.0289
13345SOL    HW251255   1.120   4.816   4.188  0.7401 -0.1502  1.5350
13346SOL     OW51256   8.283   1.877   5.640 -0.1830 -0.1349 -0.1549
13346SOL    HW151257   8.268   1.786   5.599 -0.1409 -0.3885  0.3875
13346SOL    HW251258   8.206   1.900   5.698 -0.2326  0.2163 -0.3624
13347SOL     OW51259   0.524   7.867   0.666 -0.2895  0.0919  0.1567
13347SOL    HW151260   0.496   7.897   0.575 -1.0532  0.7983  0.6145
13347SOL    HW251261   0.462   7.907   0.734  0.8779  0.3665  1.0636
13348SOL     OW51262   0.357   8.980   5.502  0.0702 -0.0950  0.3180
13348SOL    HW151263   0.436   8.970   5.563 -1.2251 -1.2567  1.8164
13348SOL    HW251264   0.369   8.921   5.422  1.6997  1.3140 -0.5173
13349SOL     OW51265   9.322   7.625   1.606 -0.1383 -0.0967 -0.3851
13349SOL    HW151266   9.411   7.610   1.565 -0.3371  0.5304 -1.0593
13349SOL    HW251267   9.309   7.723   1.624 -0.5132 -0.2333  0.0981
13350SOL     OW51268   7.694   6.101   2.298  0.2868 -0.1922  0.3125
13350SOL    HW151269   7.717   6.171   2.365  0.3693  1.2634 -1.2018
13350SOL    HW251270   7.667   6.017   2.345 -2.5649  1.6882  2.2088
13351SOL     OW51271   7.042   3.650   2.541 -0.1460 -0.3642  0.1402
13351SOL    HW151272   7.061   3.640   2.639 -0.4870 -0.1187  0.2335
13351SOL    HW251273   6.957   3.701   2.529  0.8680  1.2594 -0.3003
13352SOL     OW51274   9.264   1.604   1.459 -0.1221 -0.4656  0.7090
13352SOL    HW151275   9.364   1.604   1.464 -0.1251  0.3919  0.8314
13352SOL    HW251276   9.235   1.669   1.389 -0.5759 -1.2588  0.1503
13353SOL     OW51277   4.152   3.165   4.147  0.9597 -0.0189 -0.1889
13353SOL    HW151278   4.095   3.198   4.071  0.9560 -0.9090 -0.5683
13353SOL    HW251279   4.108   3.087   4.190  1.5694 -0.2861 -0.0504
13354SOL     OW51280   1.617   6.932   2.757  0.2927  0.0617 -0.0718
13354SOL    HW151281   1.657   6.885   2.679  1.3567  0.3421  0.2957
13354SOL    HW251282   1.534   6.885   2.785  1.4919 -1.7667  0.4767
13355SOL     OW51283   0.154   0.300   2.999  0.1042  0.3416  0.0480
13355SOL    HW151284   0.057   0.321   2.982  0.0135  0.8334  1.1324
13355SOL    HW251285   0.163   0.260   3.090  1.0275  1.0484  0.2672
13356SOL     OW51286   4.977   2.849   0.287 -0.4182  0.5029  0.6885
13356SOL    HW151287   4.934   2.812   0.205  0.7585  0.1649  0.2043
13356SOL    HW251288   4.962   2.786   0.364 -2.5135  1.3878  1.0288
13357SOL     OW51289   3.903   1.958   5.143 -0.2374 -0.2004 -0.2171
13357SOL    HW151290   3.925   2.045   5.189  0.9681  0.2791 -1.6435
13357SOL    HW251291   3.932   1.882   5.201 -0.8919  0.3483  0.8541
13358SOL     OW51292   4.948   4.079   8.031 -0.0149  0.2466  0.1210
13358SOL    HW151293   5.002   4.045   8.108 -0.5972  1.0302  0.8859
13358SOL    HW251294   4.928   4.176   8.045 -0.7970  0.1998 -0.6349
13359SOL     OW51295   4.617   9.603   4.151  0.1871  0.5296  0.0528
13359SOL    HW151296   4.645   9.627   4.059  0.7481  0.3774  0.1798
13359SOL    HW251297   4.523   9.632   4.167 -0.1492 -0.0860 -0.8070
13360SOL     OW51298   8.331   4.901   6.350  0.1186  0.2384 -0.4081
13360SOL    HW151299   8.258   4.939   6.294 -0.9287 -3.1911 -1.5039
13360SOL    HW251300   8.293   4.862   6.433  1.0882  1.0555  0.4364
13361SOL     OW51301   4.611   8.526   2.016 -0.7386  0.0610  0.1687
13361SOL    HW151302   4.562   8.530   2.103  0.4274  0.1872  0.8206
13361SOL    HW251303   4.595   8.437   1.973  1.0403 -1.1410  1.9169
13362SOL     OW51304   1.922   5.480   3.601  0.1130  0.4872  0.0883
13362SOL    HW151305   1.965   5.441   3.519 -1.7816 -0.6319 -0.4026
13362SOL    HW251306   1.888   5.406   3.658 -0.0241  1.3301  1.1072
13363SOL     OW51307   4.442   3.546   0.989 -0.1024  0.2149 -0.2484
13363SOL    HW151308   4.396   3.546   1.078 -3.1362 -0.3545 -1.7387
13363SOL    HW251309   4.420   3.629   0.939  0.2467 -0.2046 -1.1211
13364SOL     OW51310   1.521   4.657   5.402  0.1370  0.0991 -0.1131
13364SOL    HW151311   1.551   4.717   5.476 -0.4029 -0.6041  0.6686
13364SOL    HW251312   1.491   4.570   5.439  2.4142 -1.2636 -1.3715
13365SOL     OW51313   8.651   4.816   1.650  0.8295  0.0863  0.2474
13365SOL    HW151314   8.665   4.911   1.621 -0.1896 -0.2734 -1.4902
13365SOL    HW251315   8.554   4.795   1.651  0.9911 -0.6581  1.6285
13366SOL     OW51316   7.698   7.188   1.535 -0.6315 -0.0391  0.0352
13366SOL    HW151317   7.736   7.101   1.567  1.3597  0.7584 -0.0711
13366SOL    HW251318   7.646   7.231   1.608 -0.6001 -0.7627  0.4810
13367SOL     OW51319   7.841   1.008   6.550 -0.3111 -0.1310 -0.9537
13367SOL    HW151320   7.754   1.057   6.557 -0.2968 -0.1676 -0.5636
13367SOL    HW251321   7.915   1.074   6.538 -0.2733 -0.0479 -0.2760
13368SOL     OW51322   9.917   1.379   5.415 -0.4339  0.6879 -0.0360
13368SOL    HW151323  10.011   1.391   5.447 -1.1856  1.6420  1.9149
13368SOL    HW251324   9.898   1.444   5.342  1.0065 -0.8402 -1.8048
13369SOL     OW51325   4.706   0.209   6.007 -0.3644  1.0413  0.7818
13369SOL    HW151326   4.671   0.143   5.941 -0.3991 -1.5621  3.3567
13369SOL    HW251327   4.659   0.297   5.994 -4.3163 -0.9725  0.9247
13370SOL     OW51328   9.473   2.783   0.504  0.6430  0.3456 -0.2233
13370SOL    HW151329   9.419   2.853   0.551 -0.1698  0.1209 -0.8137
13370SOL    HW251330   9.569   2.792   0.531  0.3812  1.0016  0.5294
13371SOL     OW51331   3.080   1.546   2.535 -0.0308 -0.2944 -0.1143
13371SOL    HW151332   3.156   1.540   2.600 -0.0811  1.7410  0.1671
13371SOL    HW251333   2.994   1.535   2.585 -0.0916  1.7326  0.2873
13372SOL     OW51334   2.810   7.055   0.255 -0.2864  0.2479 -0.6313
13372SOL    HW151335   2.766   7.135   0.296 -1.0790  0.1768 -1.3497
13372SOL    HW251336   2.768   7.034   0.167  0.3852 -0.5427 -0.7750
13373SOL     OW51337   7.293   1.416   5.380 -0.0003  0.1670 -0.4041
13373SOL    HW151338   7.347   1.459   5.308 -1.0044  2.3095  0.0790
13373SOL    HW251339   7.351   1.402   5.461  0.4685  0.0985 -0.7454
13374SOL     OW51340   9.293   5.341   2.202 -0.0080  0.3224  0.5676
13374SOL    HW151341   9.271   5.344   2.300  1.6756  0.3882  0.9600
13374SOL    HW251342   9.238   5.271   2.158 -0.7133  0.2234  1.5831
13375SOL     OW51343   7.922   5.957   0.478 -0.4253 -0.4763 -0.0449
13375SOL    HW151344   7.965   5.951   0.388  0.6144  1.8139  0.2673
13375SOL    HW251345   7.974   5.901   0.543  0.0174 -0.5435 -0.4524
13376SOL     OW51346   7.468   5.500   5.854 -0.0374  0.4103 -0.1401
13376SOL    HW151347   7.400   5.476   5.924 -0.0932 -0.9200 -0.6330
13376SOL    HW251348   7.463   5.598   5.835 -2.4885  0.1740 -0.8621
13377SOL     OW51349   5.480   9.440   3.894  0.0957  0.2475  0.5640
13377SOL    HW151350   5.567   9.465   3.853  0.4884 -1.6295  0.1844
13377SOL    HW251351   5.445   9.357   3.850 -1.4083  0.4342  1.3607
13378SOL     OW51352   1.328   7.418   1.182  0.1577 -0.0076  0.0527
13378SOL    HW151353   1.259   7.348   1.197 -0.1479  0.4618  0.8551
13378SOL    HW251354   1.318   7.491   1.249  1.3292  0.1442  0.0867
13379SOL     OW51355   6.607   4.909   2.486  0.6301 -0.3784  0.2773
13379SOL    HW151356   6.557   4.833   2.444  0.3342  0.5795 -1.1260
13379SOL    HW251357   6.568   4.930   2.576 -0.7790 -0.3638 -0.3341
13380SOL     OW51358   2.883   1.957   2.876 -0.9670  0.3884  0.5430
13380SOL    HW151359   2.898   1.980   2.779 -0.3827  0.1527  0.5783
13380SOL    HW251360   2.820   2.024   2.916 -1.6879  0.1371 -0.1571
13381SOL     OW51361   4.751   9.797   1.831 -0.1511 -0.5978  0.4558
13381SOL    HW151362   4.706   9.709   1.845  2.7922 -2.5447 -1.9692
13381SOL    HW251363   4.707   9.845   1.755  0.3631 -1.4326 -0.3682
13382SOL     OW51364   0.969   1.862   6.364  0.0212 -0.1730  0.0264
13382SOL    HW151365   1.067   1.842   6.354  0.1781  0.3686  0.4106
13382SOL    HW251366   0.915   1.791   6.320  0.6078  0.2178 -1.3421
13383SOL     OW51367   8.824   4.043   0.898  0.6871  0.0457 -0.2292
13383SOL    HW151368   8.924   4.036   0.899  0.7808  0.8582 -1.6850
13383SOL    HW251369   8.796   4.117   0.960  1.1175  0.9517 -1.0957
13384SOL     OW51370   4.010   0.450   3.005  0.1371 -0.3908 -0.1809
13384SOL    HW151371   4.010   0.394   3.088 -1.4796  0.0005  0.0915
13384SOL    HW251372   3.928   0.431   2.951 -0.0614  1.1456 -0.4632
13385SOL     OW51373   7.351   5.862   0.633  0.1311 -0.3200 -0.9974
13385SOL    HW151374   7.387   5.781   0.679 -0.6334 -0.7206 -1.0839
13385SOL    HW251375   7.271   5.896   0.684  1.2862  1.2120 -0.1804
13386SOL     OW51376   6.213   9.666   5.147 -0.8462  0.2958  0.5694
13386SOL    HW151377   6.275   9.633   5.217 -1.0800 -0.1603  0.5605
13386SOL    HW251378   6.167   9.749   5.179 -0.4102  0.4999  0.6651
13387SOL     OW51379   4.399   6.565   2.538 -0.0944 -0.4822 -0.2881
13387SOL    HW151380   4.426   6.661   2.529 -1.4345 -0.2227 -1.6325
13387SOL    HW251381   4.422   6.516   2.454 -3.6827 -0.2548 -1.4880
13388SOL     OW51382   1.713   4.754   2.060  0.0160 -0.4537 -0.1588
13388SOL    HW151383   1.639   4.716   2.116 -0.0719 -0.0187  0.0261
13388SOL    HW251384   1.799   4.707   2.082 -0.1764 -0.8666 -0.2767
13389SOL     OW51385   3.715   8.655   3.644  0.3044  0.6451  0.0392
13389SOL    HW151386   3.646   8.608   3.700 -0.3345  0.2862 -1.0365
13389SOL    HW251387   3.802   8.659   3.694  0.1567 -1.0025  0.4580
13390SOL     OW51388   6.542   0.250   1.236 -0.1547 -0.2593 -0.4716
13390SOL    HW151389   6.561   0.286   1.145 -2.0367  0.4646 -0.6066
13390SOL    HW251390   6.628   0.230   1.283  0.9596  3.5810 -0.7156
13391SOL     OW51391   7.274   4.132   1.403 -0.3436 -0.8483 -0.1469
13391SOL    HW151392   7.359   4.090   1.434  0.6034 -0.2609 -1.9044
13391SOL    HW251393   7.267   4.125   1.304 -0.9712  1.6220 -0.3140
13392SOL     OW51394   2.709   0.653   3.023 -0.0877 -0.7761  0.2488
13392SOL    HW151395   2.669   0.585   3.082 -0.3182 -0.7267  0.1489
13392SOL    HW251396   2.809   0.648   3.028 -0.1074 -0.0177  1.5030
13393SOL     OW51397   6.609   9.012   4.338  0.0343 -0.4051  0.1265
13393SOL    HW151398   6.515   8.979   4.335  0.0208 -0.5137  1.2905
13393SOL    HW251399   6.659   8.981   4.258 -1.3435  0.9427 -1.2822
13394SOL     OW51400   0.021   6.819   0.443 -0.5154 -0.4908 -0.3862
13394SOL    HW151401  -0.059   6.768   0.475 -0.2157 -0.7421 -0.0389
13394SOL    HW251402  -0.006   6.877   0.366 -0.8945 -1.0480 -0.6831
13395SOL     OW51403   4.297   0.059   3.426 -0.0362 -0.2370 -0.4288
13395SOL    HW151404   4.378   0.042   3.370  0.1058 -0.5980 -0.1207
13395SOL    HW251405   4.325   0.095   3.515 -0.1866 -0.6878 -0.1958
13396SOL     OW51406   0.085   8.231   8.147  0.7813 -0.2855  0.1210
13396SOL    HW151407   0.163   8.278   8.106 -0.1586  0.3695 -0.9305
13396SOL    HW251408   0.113   8.140   8.178  2.0914  0.1531  0.2605
13397SOL     OW51409   0.376   2.845   1.286 -0.1170  0.1102 -0.0726
13397SOL    HW151410   0.411   2.768   1.339  0.2329  0.2013 -0.1701
13397SOL    HW251411   0.289   2.820   1.244 -0.7880  0.2924  1.1753
13398SOL     OW51412   4.176   3.988   2.279  0.0766  0.1399 -0.1401
13398SOL    HW151413   4.163   3.995   2.180  0.1235  1.7838 -0.0401
13398SOL    HW251414   4.130   3.906   2.312  0.4866 -0.7045 -1.5939
13399SOL     OW51415   1.733   4.107   2.152  0.1468  0.2706  0.0090
13399SOL    HW151416   1.821   4.097   2.104  0.0482 -0.2571 -0.0712
13399SOL    HW251417   1.717   4.203   2.173 -0.0246  0.5671 -1.4305
13400SOL     OW51418   7.754   4.496   1.281  0.5476 -0.4389  0.2543
13400SOL    HW151419   7.822   4.484   1.208 -0.4450  0.4012 -0.8137
13400SOL    HW251420   7.665   4.515   1.241 -0.3550 -1.5871  1.6546
13401SOL     OW51421   3.247   7.780   5.832 -0.1287 -0.4808 -0.1650
13401SOL    HW151422   3.229   7.688   5.797  1.4149 -1.3991  1.3793
13401SOL    HW251423   3.202   7.793   5.920  1.4422 -0.5511  0.6672
13402SOL     OW51424   1.495   6.232   0.035  0.6950  0.4901 -0.2988
13402SOL    HW151425   1.413   6.199   0.082  0.8982  1.2823  0.6260
13402SOL    HW251426   1.470   6.270  -0.054  0.3788 -1.5458 -1.0913
13403SOL     OW51427   7.702   9.930   3.258 -0.1656  0.2071 -0.0806
13403SOL    HW151428   7.762   9.908   3.335  0.6957  0.7594 -0.5820
13403SOL    HW251429   7.655   9.848   3.227  0.5624 -0.2894  0.1361
13404SOL     OW51430   8.090   1.566   6.154 -0.2031 -0.4694 -0.2612
13404SOL    HW151431   8.162   1.629   6.181 -0.3135 -1.2056  1.7948
13404SOL    HW251432   8.102   1.541   6.058 -0.4594  3.0607 -1.2756
13405SOL     OW51433   1.283   5.259   1.067 -0.3615  0.0325  0.0858
13405SOL    HW151434   1.312   5.163   1.066  0.8108  0.3800  0.7298
13405SOL    HW251435   1.297   5.297   1.158  0.5274  1.2219 -0.5346
13406SOL     OW51436   4.249   0.016   5.116  0.1794  0.5878 -0.4098
13406SOL    HW151437   4.261   0.080   5.192  3.8812 -2.3788  1.7129
13406SOL    HW251438   4.167  -0.039   5.131  0.7635  0.1694  1.3943
13407SOL     OW51439   3.823   9.696   1.526 -0.6034  0.0835 -0.5820
13407SOL    HW151440   3.806   9.634   1.603 -2.8657 -1.5774 -2.3208
13407SOL    HW251441   3.751   9.766   1.524 -1.7536 -1.0861 -2.2822
13408SOL     OW51442   0.424   3.383   1.517 -0.0768 -0.1772 -0.3804
13408SOL    HW151443   0.342   3.411   1.566 -0.7973 -2.0364 -0.4775
13408SOL    HW251444   0.504   3.428   1.558 -0.7625 -1.0036  1.9501
13409SOL     OW51445   3.301   9.747   3.808 -0.2872  0.1098  0.0140
13409SOL    HW151446   3.352   9.757   3.893 -1.7124  0.2965  0.8729
13409SOL    HW251447   3.307   9.653   3.775 -1.2422 -0.4277  1.3279
13410SOL     OW51448   4.758   1.609   4.502  0.3960  0.0928  0.9953
13410SOL    HW151449   4.805   1.614   4.414  0.6679  1.0341  1.1849
13410SOL    HW251450   4.748   1.701   4.540 -0.8673 -0.1808  1.3518
13411SOL     OW51451   7.927   1.467   4.039 -0.1960 -0.2069 -0.4911
13411SOL    HW151452   8.013   1.497   4.082 -2.2345 -1.4798  4.9423
13411SOL    HW251453   7.852   1.525   4.070 -1.8695 -1.3931 -2.1821
13412SOL     OW51454   9.734   8.915   3.136  0.1974  0.0998  0.5012
13412SOL    HW151455   9.807   8.848   3.125  0.8726  0.8486  0.3304
13412SOL    HW251456   9.648   8.869   3.153  0.8541 -0.7848  1.5020
13413SOL     OW51457   4.546   0.197   2.707 -0.4631  0.3070  0.5730
13413SOL    HW151458   4.514   0.291   2.707  1.7989  1.1249 -1.1957
13413SOL    HW251459   4.605   0.182   2.787 -0.2531  0.5875  0.4700
13414SOL     OW51460   3.846   4.733   1.423  0.3604  0.1277  0.2333
13414SOL    HW151461   3.899   4.817   1.409  0.6391  0.1074  1.1179
13414SOL    HW251462   3.906   4.662   1.460 -0.5040  0.4498  2.3362
13415SOL     OW51463   8.390   6.569   2.763  0.1178  0.1819  0.3362
13415SOL    HW151464   8.441   6.507   2.822  1.3923  0.0268 -0.8973
13415SOL    HW251465   8.297   6.578   2.797  0.6516 -0.3784  2.0119
13416SOL     OW51466   0.175   2.784   4.989 -0.9883 -0.0840 -0.4415
13416SOL    HW151467   0.175   2.773   5.088 -2.6808  1.0972 -0.2853
13416SOL    HW251468   0.150   2.878   4.966  1.5649  0.2654 -1.9512
13417SOL     OW51469   2.886   6.113   0.547  0.1850 -0.3595  0.3531
13417SOL    HW151470   2.948   6.114   0.468 -3.5402  2.0831 -2.7139
13417SOL    HW251471   2.809   6.052   0.528 -1.1558  0.8717  1.7473
13418SOL     OW51472   5.405   8.559   4.968 -0.0573 -0.3712  0.2684
13418SOL    HW151473   5.378   8.505   5.048  1.6222 -0.4198  0.8383
13418SOL    HW251474   5.346   8.640   4.961 -2.0492 -1.8488 -0.1210
13419SOL     OW51475   8.695   6.724   2.759 -0.1333  0.1644  0.0920
13419SOL    HW151476   8.600   6.741   2.785 -0.1386  0.9176 -0.3825
13419SOL    HW251477   8.731   6.648   2.811 -1.0252 -0.1730  0.2241
13420SOL     OW51478   1.967   2.087   4.339 -0.0943  0.0234  0.1908
13420SOL    HW151479   1.902   2.037   4.396  0.3720  0.2299  0.9140
13420SOL    HW251480   2.005   2.164   4.391  1.4504 -0.6606  0.1212
13421SOL     OW51481   2.262   4.196   5.102  0.6561 -0.4561 -0.5410
13421SOL    HW151482   2.279   4.252   5.183  0.8340 -0.8060 -0.3353
13421SOL    HW251483   2.319   4.228   5.026  0.6327 -0.2532 -0.4741
13422SOL     OW51484   8.201   9.503   3.877 -0.1366  0.0155 -0.1254
13422SOL    HW151485   8.173   9.409   3.855 -2.1182  0.0770  1.9756
13422SOL    HW251486   8.300   9.512   3.864 -0.2043 -1.7846 -2.2969
13423SOL     OW51487   6.903   0.011   2.024  0.3816 -0.1056  0.4144
13423SOL    HW151488   6.816   0.015   2.073 -0.8839 -1.5992 -1.6485
13423SOL    HW251489   6.922  -0.083   1.997  2.0934  0.3800 -0.1281
13424SOL     OW51490   3.158   9.610   5.246 -0.3749 -0.1101 -0.4124
13424SOL    HW151491   3.136   9.658   5.161  0.2260 -3.8331 -2.8135
13424SOL    HW251492   3.257   9.610   5.260 -0.1827 -2.2187 -1.5076
13425SOL     OW51493   9.819   3.450   1.160 -0.0620  0.4807  0.0609
13425SOL    HW151494   9.899   3.391   1.153  0.3720  0.8530  1.7131
13425SOL    HW251495   9.767   3.427   1.242 -0.5000  1.6424  0.1240
13426SOL     OW51496   9.092   0.340   3.369  0.0695 -0.1799 -0.1234
13426SOL    HW151497   9.060   0.415   3.426  1.8024 -0.0585  0.7212
13426SOL    HW251498   9.119   0.376   3.279 -0.5751 -0.0429 -0.2669
13427SOL     OW51499   8.092   3.013   5.413 -0.1439 -0.0614  0.7019
13427SOL    HW151500   8.044   3.031   5.328 -0.0765  2.0148  1.0667
13427SOL    HW251501   8.032   2.965   5.476 -0.4867 -0.8108 -0.1979
13428SOL     OW51502   0.382   8.421   6.374  0.9987 -0.6504  0.5414
13428SOL    HW151503   0.389   8.375   6.463 -1.1929 -0.8493  0.6406
13428SOL    HW251504   0.342   8.358   6.308  1.3094 -0.0325 -0.2416
13429SOL     OW51505   6.971   2.737   3.300 -0.0856  0.2063  0.0329
13429SOL    HW151506   7.043   2.700   3.241  0.2190  0.3686  0.2989
13429SOL    HW251507   6.986   2.706   3.394  0.1689  0.9941  0.2578
13430SOL     OW51508   2.300   1.277   2.429  0.2294 -0.2263  0.1250
13430SOL    HW151509   2.214   1.317   2.396  0.3824 -0.8858 -1.1100
13430SOL    HW251510   2.334   1.330   2.506 -0.2936  1.1870 -0.6027
13431SOL     OW51511   6.232   9.852   3.460  0.1114 -0.0817 -0.1069
13431SOL    HW151512   6.310   9.892   3.507 -0.5828  1.6541 -0.3713
13431SOL    HW251513   6.148   9.895   3.493 -0.9704 -3.5910  1.9050
13432SOL     OW51514   2.452   5.233   1.275 -0.3534  0.4803 -0.0204
13432SOL    HW151515   2.364   5.265   1.242 -0.4805  0.5576  0.3925
13432SOL    HW251516   2.525   5.285   1.231 -0.5102  0.3696 -0.4117
13433SOL     OW51517   7.657   6.304   1.619 -0.1059  0.0256 -0.2402
13433SOL    HW151518   7.601   6.267   1.545  1.1060 -2.6642  0.1305
13433SOL    HW251519   7.753   6.280   1.603  0.1281 -0.9310  2.3776
13434SOL     OW51520   7.905   8.489   6.165  0.1763 -0.2133  0.0950
13434SOL    HW151521   7.938   8.498   6.259  0.3408 -1.7727  0.1963
13434SOL    HW251522   7.940   8.404   6.126 -1.5229 -0.5615 -0.7040
13435SOL     OW51523   2.655   9.874   4.436 -0.7564  0.6055 -0.0025
13435SOL    HW151524   2.648   9.967   4.471  0.3862  1.3684 -1.7197
13435SOL    HW251525   2.607   9.812   4.497 -0.6037  2.1607  1.7487
13436SOL     OW51526   6.715   0.243   4.983 -0.5848 -0.5626 -0.2159
13436SOL    HW151527   6.805   0.267   5.019 -0.9121  0.3113  0.0241
13436SOL    HW251528   6.723   0.160   4.927  0.5407  0.0238 -0.9668
13437SOL     OW51529   0.766   5.805   1.085 -0.0173  0.0496  0.4133
13437SOL    HW151530   0.681   5.823   1.034  0.9943 -0.1051 -1.3672
13437SOL    HW251531   0.810   5.723   1.048  1.6654  0.9674  0.3447
13438SOL     OW51532   1.467   2.003   2.428  0.3648  0.1499 -0.8921
13438SOL    HW151533   1.517   1.919   2.448  1.2481  0.8984  0.0954
13438SOL    HW251534   1.395   1.984   2.361  0.1917 -1.5022 -0.2560
13439SOL     OW51535   4.846   3.627   7.857 -0.3015 -0.2831  0.5755
13439SOL    HW151536   4.826   3.718   7.824 -2.2957  0.3559  3.3430
13439SOL    HW251537   4.908   3.633   7.936 -0.2718 -1.3423  0.6427
13440SOL     OW51538   7.650   8.506   3.211  0.2594  0.5144  0.2081
13440SOL    HW151539   7.552   8.492   3.197  0.1082  2.9829 -1.4196
13440SOL    HW251540   7.689   8.556   3.133  3.1092 -1.6348  0.1643
13441SOL     OW51541   8.303   0.540   5.759  0.5436 -0.5449 -0.2115
13441SOL    HW151542   8.316   0.541   5.858  0.4113 -1.5169 -0.1858
13441SOL    HW251543   8.378   0.590   5.716  0.9309 -0.6376  0.3394
13442SOL     OW51544   5.942   0.279   2.817  0.8621  0.1270 -0.1114
13442SOL    HW151545   6.020   0.272   2.879  0.8027 -1.9777 -0.2512
13442SOL    HW251546   5.874   0.341   2.856  1.4867 -0.0097  1.2062
13443SOL     OW51547   7.812   8.851   4.692 -0.6896 -0.0010  0.1178
13443SOL    HW151548   7.768   8.940   4.686 -1.9111 -0.7264 -2.2781
13443SOL    HW251549   7.900   8.854   4.644  0.9660  0.8757  3.1261
13444SOL     OW51550   3.547   3.239   2.247 -0.1014 -0.3834  0.0962
13444SOL    HW151551   3.623   3.213   2.187  0.2198 -0.8822  0.6954
13444SOL    HW251552   3.584   3.284   2.328 -0.4141 -0.8902  0.5274
13445SOL     OW51553   1.859   7.040   4.324 -0.1263  0.6565  0.2249
13445SOL    HW151554   1.767   7.068   4.294 -0.1799 -0.6320 -0.8547
13445SOL    HW251555   1.896   6.973   4.260  0.9921  0.0810  1.4479
13446SOL     OW51556   2.631   5.451   3.845 -0.1387 -0.2903  0.1882
13446SOL    HW151557   2.621   5.550   3.831 -0.9705 -0.4726 -0.5704
13446SOL    HW251558   2.723   5.423   3.818  1.0802  0.7108  3.0564
13447SOL     OW51559   1.341   2.320   1.326 -0.0933 -0.2049  0.3736
13447SOL    HW151560   1.355   2.225   1.298  0.3486 -0.4814  1.5226
13447SOL    HW251561   1.292   2.369   1.253  1.3135 -0.8291 -1.0226
13448SOL     OW51562   9.529   8.049   5.976 -0.8277 -0.0592 -0.3036
13448SOL    HW151563   9.518   8.105   5.894  0.3619  1.0480  0.2749
13448SOL    HW251564   9.460   8.075   6.043 -0.2929  0.7140 -0.0445
13449SOL     OW51565   4.671   0.968   1.821 -0.5245 -0.4166 -0.0389
13449SOL    HW151566   4.614   0.962   1.903 -1.5314 -1.4930 -0.8096
13449SOL    HW251567   4.638   0.904   1.752  1.3445 -0.7226 -0.6783
13450SOL     OW51568   4.535   0.098   0.795  0.5642  0.2824  0.0549
13450SOL    HW151569   4.509   0.180   0.744  0.8644 -0.4103 -1.2449
13450SOL    HW251570   4.516   0.017   0.740 -0.9185 -0.6129  1.8332
13451SOL     OW51571   3.150   4.256   2.288  0.5691  0.0127  0.6503
13451SOL    HW151572   3.226   4.300   2.241 -0.0077 -1.0601 -1.3499
13451SOL    HW251573   3.127   4.171   2.241 -1.6448  0.1444  1.4402
13452SOL     OW51574   9.063   3.937   2.791  1.1872 -0.2354  0.3747
13452SOL    HW151575   9.013   3.861   2.834  1.3962  0.2765  1.5403
13452SOL    HW251576   9.160   3.916   2.790  1.1059 -0.5750 -0.5342
13453SOL     OW51577   0.028   7.137   2.907  0.6434  0.1606  0.0575
13453SOL    HW151578  -0.035   7.208   2.939  3.3394  2.9039 -0.4926
13453SOL    HW251579   0.055   7.079   2.985 -1.9567 -0.6474  0.4191
13454SOL     OW51580   1.756   6.380   3.766  0.1477  0.0488  0.5407
13454SOL    HW151581   1.678   6.425   3.811  1.8043  1.3895  2.1358
13454SOL    HW251582   1.760   6.409   3.671 -0.6307  0.8783  0.7513
13455SOL     OW51583   6.144   3.029   4.443  0.3272  0.3829 -0.3110
13455SOL    HW151584   6.096   2.947   4.412  0.5938  0.6799 -1.5186
13455SOL    HW251585   6.086   3.077   4.509 -0.2346 -0.2687 -0.3158
13456SOL     OW51586   7.026   0.283   4.002  0.0819  0.0558  0.2864
13456SOL    HW151587   7.125   0.271   4.005 -0.0920 -2.1263 -1.3922
13456SOL    HW251588   6.982   0.211   4.056 -0.6161  0.6724  0.5480
13457SOL     OW51589   9.737   1.384   4.201 -0.4004 -0.0195 -0.1555
13457SOL    HW151590   9.670   1.315   4.171 -2.0018  0.8932  1.2227
13457SOL    HW251591   9.800   1.404   4.127 -2.0553 -0.4405 -1.7106
13458SOL     OW51592   9.809   9.234   1.710 -0.1988 -0.2739  0.1325
13458SOL    HW151593   9.838   9.330   1.718 -0.2938  0.1020 -3.2948
13458SOL    HW251594   9.887   9.174   1.726  0.7861  0.5230 -1.5013
13459SOL     OW51595   8.896   9.003   6.035  0.4375  0.1106 -0.0662
13459SOL    HW151596   8.942   9.028   5.949 -0.7447  0.8676 -0.4869
13459SOL    HW251597   8.832   8.929   6.019  0.3149  0.1593  0.1902
13460SOL     OW51598   7.955   8.052   5.854 -0.0514  0.4965 -0.3081
13460SOL    HW151599   7.939   7.964   5.899 -0.5806  0.5447 -0.3978
13460SOL    HW251600   7.905   8.124   5.901  0.9593  0.8784  0.1987
13461SOL     OW51601   1.340   2.364   6.108  0.2409  0.0511  0.6846
13461SOL    HW151602   1.423   2.354   6.162  1.0961 -1.6701 -0.8909
13461SOL    HW251603   1.285   2.280   6.116 -1.7721  1.4582  2.3467
13462SOL     OW51604   9.319   3.073   4.651 -0.1724 -0.0328  0.7219
13462SOL    HW151605   9.338   2.988   4.602 -1.3612 -0.0712  0.3088
13462SOL    HW251606   9.398   3.134   4.644 -0.1399 -0.2355 -0.8142
13463SOL     OW51607   2.545   5.710   0.838 -0.2702  0.5701  1.1383
13463SOL    HW151608   2.487   5.721   0.757 -2.0381  2.6500  2.6202
13463SOL    HW251609   2.523   5.623   0.882 -0.5221  0.2179  0.3437
13464SOL     OW51610   6.035   8.398   5.579  0.2530  0.2610  0.6674
13464SOL    HW151611   6.075   8.324   5.524 -1.0181 -0.8776  1.2654
13464SOL    HW251612   6.107   8.439   5.636  0.9897 -0.4351  0.2571
13465SOL     OW51613   5.217   8.360   1.929  0.7887 -0.5054  0.3280
13465SOL    HW151614   5.169   8.346   1.843  2.0470  0.9431 -0.6262
13465SOL    HW251615   5.185   8.294   1.997 -0.4872 -1.3890 -1.1326
13466SOL     OW51616   3.046   6.365   4.594 -0.1151  0.1429  0.3053
13466SOL    HW151617   3.055   6.420   4.677  0.9336 -0.4028  0.5754
13466SOL    HW251618   2.997   6.280   4.616 -0.7175  0.4548  0.1485
13467SOL     OW51619   2.725   1.410   6.061 -0.3263  0.1470 -0.7346
13467SOL    HW151620   2.640   1.398   6.112 -0.8484  2.0529 -1.1048
13467SOL    HW251621   2.750   1.324   6.017 -0.6603 -1.1358  1.4839
13468SOL     OW51622   4.018   0.760   1.407  0.1390 -1.1438 -0.1134
13468SOL    HW151623   4.020   0.687   1.476  0.8564 -2.1055 -1.1419
13468SOL    HW251624   4.019   0.720   1.316 -0.5399  0.1391 -0.6960
13469SOL     OW51625   0.340   8.156   1.799 -0.2783  0.6948  0.0894
13469SOL    HW151626   0.309   8.095   1.726 -0.3835  1.6613 -0.6753
13469SOL    HW251627   0.286   8.240   1.798  0.4580  1.1804  0.5757
13470SOL     OW51628   6.399   0.005   4.022 -0.1628 -0.4202  0.3603
13470SOL    HW151629   6.496  -0.001   3.999 -0.0871 -1.3997  0.9254
13470SOL    HW251630   6.344  -0.006   3.939  0.1681 -1.4129  0.2739
13471SOL     OW51631   3.122   5.119   3.296  0.0795 -0.0444 -0.3812
13471SOL    HW151632   3.106   5.022   3.282 -0.1164  0.0241 -0.6384
13471SOL    HW251633   3.219   5.139   3.284  0.0935 -0.1811 -0.4884
13472SOL     OW51634   6.806   9.222   5.478 -0.0890  0.1833  0.4223
13472SOL    HW151635   6.859   9.233   5.563 -1.8353  0.8867  1.4478
13472SOL    HW251636   6.711   9.201   5.501 -0.4679 -0.1390 -1.3853
13473SOL     OW51637   9.861   0.511   1.120 -0.6354  0.6258 -0.7952
13473SOL    HW151638   9.796   0.437   1.136  0.1631  0.3765  1.4427
13473SOL    HW251639   9.827   0.596   1.160  0.8968  0.2347  1.4493
13474SOL     OW51640   9.376   9.299   3.727 -0.0845  0.2183  0.2741
13474SOL    HW151641   9.379   9.325   3.823  1.2010  0.5831  0.1498
13474SOL    HW251642   9.468   9.305   3.688 -0.4098 -0.9134 -0.7167
13475SOL     OW51643   3.587   2.514   3.641 -0.0799 -0.2513 -0.2486
13475SOL    HW151644   3.614   2.539   3.734  0.8606 -1.5091 -0.1726
13475SOL    HW251645   3.600   2.593   3.580  0.6469  0.1416  0.4080
13476SOL     OW51646   0.413   7.995   4.077  0.0606 -0.7594 -0.0239
13476SOL    HW151647   0.404   7.896   4.084  2.6453 -1.1502 -1.4404
13476SOL    HW251648   0.383   8.024   3.986  1.8064 -0.6241 -0.5816
13477SOL     OW51649   2.976   2.951   0.510 -0.4156 -0.2476  0.0446
13477SOL    HW151650   3.050   2.954   0.444 -0.8115 -0.7171 -0.4360
13477SOL    HW251651   3.005   2.900   0.591 -0.9946 -2.6448 -1.1903
13478SOL     OW51652   2.712   5.683   2.589  0.2563 -0.1230 -0.2154
13478SOL    HW151653   2.755   5.617   2.650 -2.6591 -1.1816  0.8131
13478SOL    HW251654   2.690   5.638   2.502  0.9790  0.3301 -0.6329
13479SOL     OW51655   3.497   8.257   6.150 -0.1259 -0.9921 -0.8307
13479SOL    HW151656   3.463   8.349   6.168 -1.0662 -1.1830 -1.5435
13479SOL    HW251657   3.596   8.254   6.162 -0.3880 -0.4981  1.6640
13480SOL     OW51658   8.797   8.897   1.713  0.1783  0.1181  0.4624
13480SOL    HW151659   8.842   8.980   1.682  0.0845  0.2946  0.7941
13480SOL    HW251660   8.734   8.865   1.643 -0.5601  0.9080  0.7700
13481SOL     OW51661   2.063   4.159   3.871  0.2422 -0.3978  0.0138
13481SOL    HW151662   1.964   4.151   3.857  0.3714 -0.4498 -0.9037
13481SOL    HW251663   2.106   4.189   3.786  1.4965 -4.2723 -0.8107
13482SOL     OW51664   2.246   5.425   5.641  0.6539  0.1779 -0.5065
13482SOL    HW151665   2.164   5.394   5.690  0.6723  0.8416 -0.0504
13482SOL    HW251666   2.246   5.525   5.636  0.8050  0.1266 -1.6080
13483SOL     OW51667   9.821   1.243   6.047 -0.5188  0.0407  0.2892
13483SOL    HW151668   9.729   1.220   6.077 -0.3618  0.2092  0.8986
13483SOL    HW251669   9.883   1.240   6.125 -0.0017 -0.1009 -0.1262
13484SOL     OW51670   2.299   6.443   3.657 -0.1132  0.1880  0.2026
13484SOL    HW151671   2.364   6.475   3.588  0.8442  0.9607  1.4424
13484SOL    HW251672   2.348   6.392   3.728 -0.7612  1.2734  1.4562
13485SOL     OW51673   3.033   4.979   0.105  0.1719  0.2143  0.1163
13485SOL    HW151674   3.051   4.952   0.200 -0.4889  2.0112  0.7793
13485SOL    HW251675   2.957   4.924   0.069 -1.8603  1.8238  1.7905
13486SOL     OW51676   4.128   6.954   0.308  0.1695 -0.2907 -0.1361
13486SOL    HW151677   4.048   6.965   0.249  1.9224  0.8245 -2.3747
13486SOL    HW251678   4.183   6.876   0.277 -0.1959 -1.2936  1.6251
13487SOL     OW51679   7.380   0.490   3.700  0.6108  0.0883 -0.1263
13487SOL    HW151680   7.464   0.456   3.742 -1.0761 -1.5512  2.0385
13487SOL    HW251681   7.323   0.533   3.770 -0.8008  0.2724 -1.3647
13488SOL     OW51682   6.319   0.689   2.700  0.4619  0.1899 -0.1046
13488SOL    HW151683   6.334   0.615   2.635  2.6750  0.9227 -0.4914
13488SOL    HW251684   6.310   0.652   2.793  0.5602 -0.6380 -0.4258
13489SOL     OW51685   6.952   6.006   6.334  0.1064 -0.0396  0.1576
13489SOL    HW151686   6.873   6.024   6.276 -0.4645 -1.1019  0.5776
13489SOL    HW251687   6.976   6.089   6.385 -0.0160  0.6074 -0.8260
13490SOL     OW51688   6.737   0.123   4.518  0.0172  0.2547  0.8060
13490SOL    HW151689   6.654   0.072   4.541  1.1143 -0.6159  3.0530
13490SOL    HW251690   6.714   0.218   4.499 -1.6658 -0.3222 -0.1286
13491SOL     OW51691   1.599   5.214   3.511  0.4159 -0.2085 -0.1089
13491SOL    HW151692   1.660   5.221   3.433 -0.0284  1.1474 -0.3510
13491SOL    HW251693   1.572   5.306   3.541 -2.8122 -0.7813 -1.0680
13492SOL     OW51694   9.251   3.560   6.080 -0.4745  0.0318 -0.1551
13492SOL    HW151695   9.260   3.588   6.176  0.3192  0.2575 -0.2865
13492SOL    HW251696   9.234   3.461   6.076  2.8181 -0.6246  0.1577
13493SOL     OW51697   6.772   0.923   1.866  0.3178 -0.6032 -0.2483
13493SOL    HW151698   6.733   0.941   1.956  0.0368  1.0860 -0.6945
13493SOL    HW251699   6.708   0.869   1.812 -0.2379 -0.1790 -0.0157
13494SOL     OW51700   4.279   0.062   5.910  0.7610 -0.4785 -0.5315
13494SOL    HW151701   4.261   0.128   5.983 -0.8895  0.5600 -1.8308
13494SOL    HW251702   4.372   0.077   5.874  0.5256  0.9523 -0.6000
13495SOL     OW51703   1.081   0.378   2.302  0.1027 -0.3053  0.6093
13495SOL    HW151704   1.117   0.285   2.292 -0.9918 -0.5254 -1.5042
13495SOL    HW251705   1.122   0.437   2.232 -1.1373  0.2005  0.2978
13496SOL     OW51706   1.767   8.353   1.488 -0.3026 -0.3093  0.2997
13496SOL    HW151707   1.852   8.352   1.540 -1.0052 -0.7670  1.4716
13496SOL    HW251708   1.754   8.266   1.441 -1.6784 -1.4937  2.7591
13497SOL     OW51709   6.660   1.901   1.053  0.5260  0.0275  0.1262
13497SOL    HW151710   6.580   1.960   1.045  0.1818 -0.6096 -1.1728
13497SOL    HW251711   6.702   1.914   1.143 -0.3001  1.2859  0.3375
13498SOL     OW51712   3.523   7.888   4.022 -0.2367  0.5300  0.2751
13498SOL    HW151713   3.428   7.903   3.996 -0.2429  0.0182  0.0024
13498SOL    HW251714   3.574   7.853   3.943 -0.8081 -3.5338  1.6005
13499SOL     OW51715   6.726   1.991   1.304 -0.2845 -0.5430  0.0620
13499SOL    HW151716   6.687   1.962   1.392  0.8939  1.0409  1.1478
13499SOL    HW251717   6.821   1.960   1.299  0.1790  0.8288  0.1047
13500SOL     OW51718   6.613   2.239   4.962 -0.1660  0.1012 -0.1591
13500SOL    HW151719   6.525   2.241   4.917 -0.2117  1.7373 -0.0126
13500SOL    HW251720   6.612   2.301   5.041  0.9803 -0.1524  0.0697
13501SOL     OW51721   9.565   1.494   1.786 -0.2757  0.2868  0.1359
13501SOL    HW151722   9.491   1.475   1.722 -0.6139  0.5028  0.4608
13501SOL    HW251723   9.528   1.541   1.866  0.2463  0.5735  0.2075
13502SOL     OW51724   6.091   1.199   4.531 -0.1626  0.3009  0.1108
13502SOL    HW151725   5.993   1.186   4.547 -0.0521 -1.1274 -0.3121
13502SOL    HW251726   6.106   1.223   4.435  0.0082 -0.6159 -0.0872
13503SOL     OW51727   3.081   7.014   5.993  0.3747  0.0495 -0.3298
13503SOL    HW151728   3.083   6.935   5.931 -0.8552 -0.2372 -0.0056
13503SOL    HW251729   3.019   7.083   5.956 -0.5299 -0.2128  0.6886
13504SOL     OW51730   4.530   7.506   2.471  0.0756  0.5811 -0.0450
13504SOL    HW151731   4.498   7.519   2.565  1.4803 -1.7369  0.7838
13504SOL    HW251732   4.569   7.592   2.437  0.0869  1.2826  1.6891
13505SOL     OW51733   2.849   8.125   0.567 -0.2941  0.1225  0.1662
13505SOL    HW151734   2.917   8.168   0.627  0.2187  0.3100 -0.5393
13505SOL    HW251735   2.797   8.058   0.619 -1.5108  1.9974  1.4294
13506SOL     OW51736   9.238   4.742   5.175 -0.0213  0.7930  0.1332
13506SOL    HW151737   9.331   4.708   5.191 -0.6711  0.1663  2.7344
13506SOL    HW251738   9.182   4.668   5.136 -0.1688  0.2915  1.2709
13507SOL     OW51739   1.920   0.976   4.222 -0.1188  0.3220  0.1129
13507SOL    HW151740   1.916   0.895   4.279  0.9205  0.8822  0.9872
13507SOL    HW251741   2.004   1.027   4.241  0.2597  0.5003 -1.9266
13508SOL     OW51742   3.196   9.110   1.888 -0.4896 -0.6778 -0.1504
13508SOL    HW151743   3.125   9.177   1.910  0.1738 -0.5503  1.7118
13508SOL    HW251744   3.280   9.133   1.937  0.2058 -1.9944 -0.7081
13509SOL     OW51745   0.807   0.340   2.347  0.5368  0.0545  0.4888
13509SOL    HW151746   0.790   0.268   2.279 -1.7464  1.1675 -0.1605
13509SOL    HW251747   0.905   0.356   2.354  0.9995 -2.1284 -0.3900
13510SOL     OW51748   8.275   2.508   0.446 -0.3505 -0.2051 -0.1735
13510SOL    HW151749   8.287   2.523   0.544 -2.0354 -0.9341  0.1551
13510SOL    HW251750   8.250   2.412   0.429  0.7984 -0.3094 -1.3987
13511SOL     OW51751   1.895   8.636   0.210 -0.0341  0.2928 -0.2990
13511SOL    HW151752   1.910   8.546   0.252  0.5603  1.3387  1.7757
13511SOL    HW251753   1.981   8.669   0.171  0.5263  1.3651  1.7862
13512SOL     OW51754   0.030   5.761   2.377 -0.1489 -0.6595 -0.3172
13512SOL    HW151755   0.111   5.762   2.318 -0.1612  0.2247 -0.3294
13512SOL    HW251756  -0.022   5.845   2.363  0.2368 -0.1109  1.4742
13513SOL     OW51757   7.710   8.870   6.497  0.2975  0.0158  0.5009
13513SOL    HW151758   7.614   8.870   6.468  0.9802  0.7670 -1.8488
13513SOL    HW251759   7.765   8.918   6.430  2.1225  0.9620  2.6080
13514SOL     OW51760   2.440   7.507   0.160 -0.1818  0.5098  0.4334
13514SOL    HW151761   2.393   7.441   0.219 -2.0340  0.5589 -0.9011
13514SOL    HW251762   2.496   7.568   0.215 -0.6905 -0.3887  1.9779
13515SOL     OW51763   8.642   0.340   1.155 -0.2352  0.0628 -0.1658
13515SOL    HW151764   8.732   0.333   1.110  0.4068  0.3948  1.0320
13515SOL    HW251765   8.645   0.412   1.223 -1.4676  0.1521 -0.1966
13516SOL     OW51766   3.819   3.949   7.773  0.1417 -0.2271  0.3727
13516SOL    HW151767   3.802   3.857   7.809 -0.0087 -0.4590 -0.2906
13516SOL    HW251768   3.797   4.016   7.844 -0.7682 -0.6549  0.5101
13517SOL     OW51769   5.495   8.144   5.289 -0.4571  0.2835 -0.1181
13517SOL    HW151770   5.531   8.089   5.365 -1.7140  0.6366  0.7413
13517SOL    HW251771   5.452   8.084   5.222 -0.4526  0.0829  0.0586
13518SOL     OW51772   1.034   7.975   2.475 -0.3241 -0.2056  0.7944
13518SOL    HW151773   0.939   7.943   2.472 -0.4190  0.0128  1.4360
13518SOL    HW251774   1.095   7.902   2.444 -0.5707 -0.9074  1.9204
13519SOL     OW51775   4.454   9.853   3.996  0.3111 -0.3118  0.2848
13519SOL    HW151776   4.377   9.818   3.942  1.0524  0.1420 -1.0821
13519SOL    HW251777   4.435   9.839   4.094 -1.6107  0.0255 -0.0234
13520SOL     OW51778   3.152   3.409   4.760  0.4902  0.0672  0.2507
13520SOL    HW151779   3.075   3.467   4.785  0.1569 -0.7159  1.0783
13520SOL    HW251780   3.202   3.450   4.683 -0.1456  1.0842  0.3768
13521SOL     OW51781   1.682   5.477   2.324  0.6810 -0.5521  0.1124
13521SOL    HW151782   1.755   5.505   2.262  1.8688 -2.9910  0.3562
13521SOL    HW251783   1.628   5.405   2.282 -0.4169 -0.0755  0.6911
13522SOL     OW51784   8.323   2.536   5.441  0.9224 -0.7085  0.0216
13522SOL    HW151785   8.381   2.458   5.465  1.1035 -0.4340  0.4906
13522SOL    HW251786   8.338   2.609   5.507  0.8531 -0.2259 -0.4970
13523SOL     OW51787   2.483   7.705   5.748 -0.8119  0.1414 -0.1230
13523SOL    HW151788   2.392   7.703   5.790 -1.7185 -0.9437 -2.0526
13523SOL    HW251789   2.488   7.783   5.684  0.3237  1.3905  1.4493
13524SOL     OW51790   9.246   2.155   1.446  0.3737  0.2788 -0.1696
13524SOL    HW151791   9.186   2.212   1.503  0.7020  0.6704 -0.2211
13524SOL    HW251792   9.192   2.081   1.406  0.3782 -0.7549  1.6692
13525SOL     OW51793   4.461   9.487   5.436  0.1072  0.2267 -0.4072
13525SOL    HW151794   4.366   9.468   5.459  0.7370 -1.2224  1.1777
13525SOL    HW251795   4.494   9.420   5.370  0.1510  0.4222 -0.5832
13526SOL     OW51796   7.450   8.293   6.048 -0.9924 -0.4415  0.1440
13526SOL    HW151797   7.358   8.330   6.053 -0.9813 -0.3264 -0.4554
13526SOL    HW251798   7.447   8.194   6.063 -1.3742 -0.6396 -1.2124
13527SOL     OW51799   3.833   1.250   6.252  0.1027 -0.0997 -0.2308
13527SOL    HW151800   3.812   1.281   6.345  1.6965  0.8216 -0.1550
13527SOL    HW251801   3.768   1.180   6.224 -1.6155  1.0274  0.8348
13528SOL     OW51802   7.465   2.415   3.674 -0.1961  0.2885 -0.0678
13528SOL    HW151803   7.521   2.343   3.715  1.0903  1.8342  0.9449
13528SOL    HW251804   7.504   2.442   3.586  1.7732  2.6270  1.4575
13529SOL     OW51805   4.588   5.110   4.023 -0.7921 -0.3033 -0.3950
13529SOL    HW151806   4.493   5.102   3.994 -0.9387 -0.6901  0.1874
13529SOL    HW251807   4.648   5.106   3.943 -1.3073  0.8096 -0.8522
13530SOL     OW51808   2.780   4.693   2.500  0.3327 -0.0139  0.8432
13530SOL    HW151809   2.802   4.596   2.482 -3.0780 -0.6319 -0.2367
13530SOL    HW251810   2.795   4.712   2.597  2.8474 -1.0996  0.7196
13531SOL     OW51811   9.433   0.968   3.273 -0.4355  0.3161 -0.5326
13531SOL    HW151812   9.479   0.883   3.247  0.1162  0.2005  0.7433
13531SOL    HW251813   9.408   0.963   3.370 -0.8000  1.4304 -0.5684
13532SOL     OW51814   8.109   0.901   5.104  0.4187  0.4189 -0.0564
13532SOL    HW151815   8.066   0.958   5.034  0.7910  0.3314 -0.3552
13532SOL    HW251816   8.184   0.848   5.064  1.0574  0.8614  0.5465
13533SOL     OW51817   4.540   8.891   0.503  0.2385  0.2299 -0.1200
13533SOL    HW151818   4.546   8.896   0.602  0.7268  1.4117 -0.2010
13533SOL    HW251819   4.589   8.968   0.462  1.8452 -1.3773 -1.3354
13534SOL     OW51820   8.007   3.736   0.108 -0.2023  0.0712 -0.0960
13534SOL    HW151821   8.001   3.772   0.201 -0.4338 -0.9833  0.3039
13534SOL    HW251822   8.077   3.665   0.105 -0.4217 -0.1186 -0.6595
13535SOL     OW51823   8.356   4.673   6.119 -0.2961 -0.9865 -0.2305
13535SOL    HW151824   8.261   4.687   6.149  0.1151  0.3627  0.4524
13535SOL    HW251825   8.414   4.745   6.156  1.1904 -2.3853  0.2134
13536SOL     OW51826   5.055   2.480   4.122 -0.5672  0.1600  0.0441
13536SOL    HW151827   5.049   2.385   4.154 -0.1883 -0.2465 -1.0859
13536SOL    HW251828   5.148   2.514   4.135 -0.0614 -0.4405 -1.7898
13537SOL     OW51829   3.220   7.101   1.518 -0.1340  0.2650 -0.2501
13537SOL    HW151830   3.137   7.156   1.505 -0.1986  0.2826  0.2373
13537SOL    HW251831   3.204   7.034   1.591  0.0543 -0.1851 -0.6179
13538SOL     OW51832   3.915   4.454   0.836  0.4379 -0.3600 -0.3644
13538SOL    HW151833   3.941   4.550   0.829 -0.5635 -0.0561 -0.0633
13538SOL    HW251834   3.847   4.443   0.908  1.7057 -1.5488  0.6710
13539SOL     OW51835   4.788   2.360   0.196 -0.0014  0.1601 -0.3007
13539SOL    HW151836   4.851   2.304   0.142 -1.0570 -0.7196 -0.6154
13539SOL    HW251837   4.841   2.414   0.262  0.9993 -1.5022  0.2990
13540SOL     OW51838   9.009   0.168   4.869  0.1473 -0.3185  0.2416
13540SOL    HW151839   8.966   0.119   4.793  1.1095  0.7611 -1.0057
13540SOL    HW251840   9.066   0.104   4.921 -0.4093 -1.0303 -0.0179
13541SOL     OW51841   9.131   4.645   2.733  0.2149 -0.9168 -0.6216
13541SOL    HW151842   9.041   4.603   2.724 -0.4491  0.2922  0.1887
13541SOL    HW251843   9.148   4.665   2.830  0.4312  0.8374 -1.0092
13542SOL     OW51844   6.262   5.887   0.289 -0.3944 -0.0160 -0.6641
13542SOL    HW151845   6.362   5.886   0.299 -0.4947  0.9809  0.5088
13542SOL    HW251846   6.225   5.799   0.319  0.0402  0.0496  0.0958
13543SOL     OW51847   5.484   1.782   5.891  0.5460 -0.1330  0.2995
13543SOL    HW151848   5.484   1.881   5.904  1.0810 -0.3331  1.9038
13543SOL    HW251849   5.411   1.741   5.947  1.2134 -0.7687  0.7128
13544SOL     OW51850   5.993   3.109   4.671 -0.5650 -0.1274  0.2689
13544SOL    HW151851   5.893   3.101   4.677 -0.5125 -0.2937  0.9846
13544SOL    HW251852   6.033   3.093   4.761  0.0088  1.5965  0.3333
13545SOL     OW51853   4.883   4.452   7.426 -0.4378  0.1664  0.3343
13545SOL    HW151854   4.904   4.515   7.351 -1.1865  2.3708  1.9150
13545SOL    HW251855   4.788   4.421   7.419 -0.4830  0.3081  0.3136
13546SOL     OW51856   7.330   0.669   1.195 -0.0638 -0.6317  0.0983
13546SOL    HW151857   7.363   0.616   1.274 -1.7755 -0.8041  0.7433
13546SOL    HW251858   7.317   0.608   1.117 -0.7529 -0.9405  0.4441
13547SOL     OW51859   3.590   4.708   5.404  0.2384  0.5541 -0.1938
13547SOL    HW151860   3.635   4.711   5.493 -0.9150  0.0467  0.4146
13547SOL    HW251861   3.517   4.777   5.401 -0.2698  0.0113 -0.4420
13548SOL     OW51862   5.709   9.236   4.857 -0.2056 -0.4670  0.0854
13548SOL    HW151863   5.618   9.270   4.836  0.9552  1.2460 -2.3728
13548SOL    HW251864   5.767   9.242   4.776  2.3750 -0.6577  1.8400
13549SOL     OW51865   7.738   1.740   1.019 -0.3833  0.0402  0.1434
13549SOL    HW151866   7.718   1.738   1.117 -1.3332  0.1219 -0.0480
13549SOL    HW251867   7.837   1.740   1.006 -0.2397 -1.4702  1.0722
13550SOL     OW51868   0.454   0.047   3.896  0.1331  0.4346  0.1616
13550SOL    HW151869   0.452   0.120   3.964  1.1437  0.3340  0.3065
13550SOL    HW251870   0.495  -0.035   3.936  2.0637  0.8208 -0.9849
13551SOL     OW51871   3.854   4.987   1.684  0.0338 -0.0052  0.1931
13551SOL    HW151872   3.780   4.921   1.669  0.2360 -0.0193 -0.7896
13551SOL    HW251873   3.826   5.076   1.649  0.5236 -0.0395 -0.3020
13552SOL     OW51874   4.900   7.787   2.571  0.3361  0.5943  0.0825
13552SOL    HW151875   4.858   7.779   2.661  0.6138  1.8920  0.3456
13552SOL    HW251876   4.903   7.697   2.527 -0.8478  0.1432  0.8866
13553SOL     OW51877   9.096   6.721   4.916  1.0551  0.2036 -0.5902
13553SOL    HW151878   9.043   6.758   4.840 -2.0156 -2.8045 -0.0493
13553SOL    HW251879   9.156   6.648   4.884  0.7913 -0.1143 -0.3722
13554SOL     OW51880   3.132   6.280   5.284  0.7857 -0.0394 -0.1517
13554SOL    HW151881   3.133   6.375   5.255  1.4854 -0.1948 -0.6661
13554SOL    HW251882   3.203   6.229   5.234 -0.8835 -1.2617 -1.3145
13555SOL     OW51883   0.841   7.802   0.691  0.4208 -0.6543 -0.4456
13555SOL    HW151884   0.742   7.792   0.675  0.3794 -0.2991 -0.4181
13555SOL    HW251885   0.856   7.846   0.780  0.5688  0.5371 -1.0452
13556SOL     OW51886   8.737   0.875   4.948 -0.5639 -0.0647 -0.1516
13556SOL    HW151887   8.679   0.849   5.025 -0.3823  0.1739  0.0647
13556SOL    HW251888   8.686   0.862   4.862  0.3663 -3.7002 -0.2678
13557SOL     OW51889   1.387   6.556   0.140 -0.4956  0.0489 -0.1933
13557SOL    HW151890   1.386   6.654   0.159  1.8616  0.0858 -0.1053
13557SOL    HW251891   1.447   6.510   0.205 -0.1180 -1.2045 -1.4109
13558SOL     OW51892   1.583   0.258   3.259  0.1598 -0.1743 -0.5582
13558SOL    HW151893   1.654   0.237   3.192  0.6962  0.2285 -0.1153
13558SOL    HW251894   1.586   0.355   3.281 -1.0377 -0.0011 -1.1246
13559SOL     OW51895   7.577   2.591   1.493 -0.4257 -0.5305 -0.4690
13559SOL    HW151896   7.483   2.572   1.521 -0.1982 -1.2454 -0.1783
13559SOL    HW251897   7.578   2.612   1.395 -0.8213 -1.0240 -0.5845
13560SOL     OW51898   0.110   8.674   6.357 -0.4853  0.2019 -0.6024
13560SOL    HW151899   0.189   8.669   6.418 -0.5317  0.3816 -0.5277
13560SOL    HW251900   0.050   8.595   6.373 -1.7676  1.5218  1.3336
13561SOL     OW51901   9.892   7.746   1.359 -0.4407  0.7917 -0.0814
13561SOL    HW151902   9.945   7.695   1.428 -2.0671  2.9649  2.8701
13561SOL    HW251903   9.934   7.733   1.269  3.4610  0.1902  1.7274
13562SOL     OW51904   7.452   2.974   4.373 -0.3251  0.0012  0.2521
13562SOL    HW151905   7.448   3.036   4.451  0.2424 -1.5860  1.5652
13562SOL    HW251906   7.363   2.927   4.363 -0.0717 -0.5615  0.5978
13563SOL     OW51907   6.066   1.439   5.779 -0.6083 -0.5499  0.0182
13563SOL    HW151908   6.000   1.409   5.710  1.1674 -2.4160 -0.9494
13563SOL    HW251909   6.145   1.481   5.734 -0.5912  0.5890  1.0828
13564SOL     OW51910   0.700   8.526   4.257 -0.0698 -0.6888 -0.1994
13564SOL    HW151911   0.774   8.592   4.258  0.9626 -1.8118 -1.0929
13564SOL    HW251912   0.737   8.434   4.246 -1.5794 -1.2772 -0.5629
13565SOL     OW51913   1.127   0.260   1.026 -0.3472 -0.9751  0.1741
13565SOL    HW151914   1.164   0.301   1.109 -0.3587 -1.0206  0.2017
13565SOL    HW251915   1.121   0.329   0.954  1.7946 -1.4299 -0.4946
13566SOL     OW51916   8.969   7.808   0.374  0.0899  0.2028  0.2988
13566SOL    HW151917   8.901   7.735   0.362 -1.3257  0.9602  3.2711
13566SOL    HW251918   9.051   7.786   0.320 -0.4750 -3.3641  0.7458
13567SOL     OW51919   1.446   5.434   2.083  0.0335 -0.4015 -0.1370
13567SOL    HW151920   1.418   5.346   2.045 -1.8388  0.2303 -0.2863
13567SOL    HW251921   1.365   5.485   2.111  1.1613  0.8630  0.8823
13568SOL     OW51922   9.505   8.740   3.175  0.6851 -0.4752 -0.2832
13568SOL    HW151923   9.472   8.749   3.081  0.6950 -0.9270 -0.3320
13568SOL    HW251924   9.512   8.643   3.198  1.8240 -0.3863 -0.2291
13569SOL     OW51925   8.524   8.920   4.993  0.4967  0.0785 -0.1934
13569SOL    HW151926   8.429   8.940   4.969  0.6368 -1.5936 -2.2154
13569SOL    HW251927   8.565   9.001   5.035 -1.4462  1.2146 -0.4281
13570SOL     OW51928   9.173   5.753   4.854  0.6634  0.0869  0.1704
13570SOL    HW151929   9.202   5.775   4.760  0.6126 -0.6733 -0.0245
13570SOL    HW251930   9.170   5.654   4.865 -0.9859  0.1592  0.4689
13571SOL     OW51931   7.711   2.848   6.397  0.1067 -0.1227 -0.2095
13571SOL    HW151932   7.712   2.762   6.345  0.9178  1.2941 -2.6363
13571SOL    HW251933   7.668   2.919   6.341  2.4222  1.8408  0.4424
13572SOL     OW51934   0.839   6.071   4.735  0.1205 -0.7322  0.3365
13572SOL    HW151935   0.832   6.010   4.814  0.4385  0.1499  1.0473
13572SOL    HW251936   0.797   6.159   4.757  1.4175 -0.0237 -0.0049
13573SOL     OW51937   2.680   5.082   0.297  0.0751  0.4060 -0.7205
13573SOL    HW151938   2.706   5.096   0.201 -1.6503  2.4902 -0.9195
13573SOL    HW251939   2.637   4.992   0.307 -0.0209  0.3000 -1.9654
13574SOL     OW51940   9.331   6.123   0.499  0.4669  0.0220  0.2976
13574SOL    HW151941   9.389   6.050   0.463  2.0631  0.7263  1.3806
13574SOL    HW251942   9.373   6.212   0.480 -1.0154  0.6241 -0.2266
13575SOL     OW51943   5.737   5.233   1.081 -0.1037 -0.6595  0.7047
13575SOL    HW151944   5.674   5.194   1.148 -0.8810 -0.8896 -0.1548
13575SOL    HW251945   5.795   5.301   1.126 -2.0706  0.7662  1.1762
13576SOL     OW51946   0.267   2.552   5.625 -0.0711 -0.2426  0.5054
13576SOL    HW151947   0.290   2.543   5.528 -0.1920  3.2620  0.1209
13576SOL    HW251948   0.170   2.570   5.635 -0.3635 -2.1690  1.4227
13577SOL     OW51949   8.043   7.291   2.678 -0.0998 -0.2881  0.4167
13577SOL    HW151950   8.092   7.209   2.707 -2.3145 -2.1210 -0.7758
13577SOL    HW251951   7.968   7.310   2.742 -1.2894 -0.8414 -0.7749
13578SOL     OW51952   5.361   9.459   5.647  1.0360 -0.3501 -0.3492
13578SOL    HW151953   5.396   9.486   5.736  0.9646 -0.5428 -0.2614
13578SOL    HW251954   5.315   9.537   5.604  2.4481  0.1793 -0.9049
13579SOL     OW51955   8.339   6.976   3.621  0.0789 -1.0452  0.3100
13579SOL    HW151956   8.365   6.987   3.525 -0.4852 -0.5421  0.2144
13579SOL    HW251957   8.418   6.946   3.673  0.7435  0.0196 -0.0617
13580SOL     OW51958   1.043   6.670   2.739  0.0211 -0.3287 -0.2040
13580SOL    HW151959   1.019   6.744   2.676  0.6228 -0.2896 -0.3944
13580SOL    HW251960   0.962   6.614   2.757 -0.1562 -0.3329 -1.0019
13581SOL     OW51961   0.541   4.198   3.229 -0.4832  0.5298  0.5559
13581SOL    HW151962   0.505   4.112   3.266  1.3923 -0.4174  0.2494
13581SOL    HW251963   0.476   4.272   3.246 -1.9570 -0.8793  1.1543
13582SOL     OW51964   8.181   0.350   3.355 -0.6428  0.2793 -0.7224
13582SOL    HW151965   8.131   0.364   3.440  0.4320  1.1576 -0.2193
13582SOL    HW251966   8.185   0.435   3.303 -0.9728 -0.1572 -1.4799
13583SOL     OW51967   0.646   7.079   0.528  0.2142 -0.3526  0.1278
13583SOL    HW151968   0.600   7.007   0.476  0.7851 -0.8715  0.3394
13583SOL    HW251969   0.744   7.059   0.534  0.8128  1.6991 -1.9237
13584SOL     OW51970   9.851   6.923   0.866  0.3557 -0.7844 -0.3929
13584SOL    HW151971   9.908   6.847   0.897  1.4755 -0.3265 -1.2551
13584SOL    HW251972   9.901   6.975   0.797 -0.1724  1.0571  0.5839
13585SOL     OW51973   4.641   3.646   0.255 -0.3402  0.2301 -0.3279
13585SOL    HW151974   4.599   3.561   0.286 -0.8388 -0.1446 -2.0078
13585SOL    HW251975   4.573   3.719   0.257 -0.1766  0.3761  0.1354
13586SOL     OW51976   8.357   4.189   2.244 -0.0768 -0.2713 -0.0830
13586SOL    HW151977   8.448   4.230   2.235  0.6078 -1.8682 -0.6777
13586SOL    HW251978   8.356   4.128   2.323 -0.0039 -1.7951 -1.2241
13587SOL     OW51979   8.255   5.837   4.568 -0.9264 -0.4876 -0.3719
13587SOL    HW151980   8.232   5.904   4.639 -1.0786  0.8586 -1.6681
13587SOL    HW251981   8.263   5.746   4.610 -0.1361  0.4090  1.5135
13588SOL     OW51982   4.124   9.795   1.603  0.3702  0.2764  0.0847
13588SOL    HW151983   4.042   9.739   1.592 -0.3970  0.9657  2.0122
13588SOL    HW251984   4.149   9.836   1.516 -1.3780  0.1169 -0.5069
13589SOL     OW51985   3.359   2.215   4.131  0.0824 -0.3620  0.5947
13589SOL    HW151986   3.376   2.117   4.124  1.9192  0.0441 -1.3731
13589SOL    HW251987   3.446   2.263   4.142 -0.4594  1.2441 -1.5918
13590SOL     OW51988   3.580   5.437   5.032 -0.2831 -0.2178 -0.1217
13590SOL    HW151989   3.585   5.447   5.131  0.9773  0.7998 -0.2774
13590SOL    HW251990   3.548   5.345   5.010  2.0011 -1.4031  1.2422
13591SOL     OW51991   4.640   7.899   2.712 -0.2024 -0.0879  0.3086
13591SOL    HW151992   4.653   7.977   2.651  0.9285 -1.1055 -0.7684
13591SOL    HW251993   4.627   7.932   2.806 -1.1132  1.4471 -0.3410
13592SOL     OW51994   6.034   8.009   4.053 -0.4428 -0.4212  0.2701
13592SOL    HW151995   6.042   8.105   4.081 -0.2435 -0.6946  1.1706
13592SOL    HW251996   6.123   7.976   4.023 -0.3269 -0.5615  0.7566
13593SOL     OW51997   9.980   1.068   6.401  0.9797 -0.1151 -0.0966
13593SOL    HW151998   9.882   1.063   6.424  1.0301  0.8395  0.3488
13593SOL    HW251999   9.997   1.015   6.319  0.5029 -2.2914  1.1644
13594SOL     OW52000   2.608   7.527   5.380  0.3886 -0.0291 -0.2151
13594SOL    HW152001   2.649   7.454   5.326 -0.4484 -0.4255 -0.3240
13594SOL    HW252002   2.613   7.504   5.477  0.2884 -0.1422 -0.2375
13595SOL     OW52003   2.776   6.632   8.157 -0.1069  0.0448 -0.2809
13595SOL    HW152004   2.700   6.593   8.106  0.7460  1.1874 -2.5191
13595SOL    HW252005   2.765   6.731   8.162  0.1067 -0.0043  1.3189
13596SOL     OW52006   5.592   4.290   0.227  0.1694  0.3555  0.3894
13596SOL    HW152007   5.511   4.266   0.175  0.6801  1.5277 -0.9935
13596SOL    HW252008   5.668   4.231   0.200 -0.1091 -0.4509  1.3636
13597SOL     OW52009   3.529   6.450   2.880 -0.1152  0.3389 -0.2621
13597SOL    HW152010   3.624   6.440   2.851 -0.2887  1.4706 -1.2311
13597SOL    HW252011   3.522   6.525   2.946  0.0934 -1.4902  1.8959
13598SOL     OW52012   9.796   7.587   3.546  0.0176  0.1382 -0.1196
13598SOL    HW152013   9.799   7.683   3.574 -0.3268  0.1174 -0.0045
13598SOL    HW252014   9.772   7.582   3.449  0.0599  0.1677 -0.1319
13599SOL     OW52015   5.004   9.261   4.882  0.0183 -0.5154  0.1649
13599SOL    HW152016   5.095   9.299   4.867 -1.0750  1.6453 -1.0889
13599SOL    HW252017   4.969   9.291   4.971  0.2334 -0.7799  0.3405
13600SOL     OW52018   3.302   8.546   2.820 -0.4169 -0.1683 -0.2265
13600SOL    HW152019   3.291   8.618   2.888  0.1266  0.5183 -0.8493
13600SOL    HW252020   3.214   8.503   2.802 -1.1437  1.7069 -1.3153
13601SOL     OW52021   1.286   8.231   6.236 -0.3736 -0.1605 -0.1741
13601SOL    HW152022   1.198   8.187   6.223 -0.0353 -0.6435 -0.8900
13601SOL    HW252023   1.328   8.197   6.320 -1.3741  0.9355  0.7829
13602SOL     OW52024   1.382   7.993   4.931  0.1967 -0.0720 -0.3656
13602SOL    HW152025   1.343   7.902   4.947 -2.1155  0.4096 -3.0043
13602SOL    HW252026   1.468   7.984   4.881  0.3702 -0.8372  0.0622
13603SOL     OW52027   7.435   1.910   0.328 -0.5889  0.3810 -0.0279
13603SOL    HW152028   7.444   1.997   0.376  0.5588  0.8970 -1.1481
13603SOL    HW252029   7.524   1.863   0.326 -1.1056 -0.6285  0.2059
13604SOL     OW52030   8.145   6.436   0.994  0.3076 -0.1018 -0.1863
13604SOL    HW152031   8.218   6.495   0.961  0.4896 -0.4227 -0.3580
13604SOL    HW252032   8.108   6.472   1.080  0.9743 -0.1874  0.1375
13605SOL     OW52033   9.336   1.212   2.845  0.6744  0.2723 -0.2538
13605SOL    HW152034   9.352   1.253   2.755  0.8771 -0.5222 -0.5831
13605SOL    HW252035   9.401   1.249   2.911  0.4062  0.9941 -0.3870
13606SOL     OW52036   0.448   3.443   3.001  0.7884  0.4885 -0.6748
13606SOL    HW152037   0.471   3.349   2.976 -1.1239 -0.1781 -0.0301
13606SOL    HW252038   0.527   3.488   3.042  1.8119 -0.7279 -1.3040
13607SOL     OW52039   2.535   4.319   0.491 -0.0450  0.0029 -0.8032
13607SOL    HW152040   2.562   4.260   0.415  0.8076  0.1889 -0.6462
13607SOL    HW252041   2.549   4.270   0.578  0.5741  0.4030 -0.6789
13608SOL     OW52042   8.993   9.424   6.794  0.3330 -0.4883 -0.5488
13608SOL    HW152043   9.050   9.362   6.740  0.0905 -0.4901 -0.8037
13608SOL    HW252044   8.910   9.375   6.823 -0.0665 -0.1453 -1.1208
13609SOL     OW52045   5.698   9.310   3.276  0.3074 -0.2568  0.2395
13609SOL    HW152046   5.684   9.216   3.308  0.2269  0.1298  1.3804
13609SOL    HW252047   5.775   9.313   3.213 -0.8951 -1.4053 -1.3286
13610SOL     OW52048   5.210   0.774   2.163 -0.0617 -0.3867  0.5286
13610SOL    HW152049   5.307   0.798   2.169 -0.2270 -0.0535  2.2614
13610SOL    HW252050   5.199   0.676   2.178 -0.0030 -0.3801  0.6217
13611SOL     OW52051   4.463   4.600   7.441  0.1834 -0.5539 -0.9246
13611SOL    HW152052   4.525   4.666   7.484  0.1812  0.1144 -1.9426
13611SOL    HW252053   4.512   4.515   7.422  0.1624 -0.9002  0.4857
13612SOL     OW52054   0.231   0.499   6.228 -0.2078  0.0508  0.8262
13612SOL    HW152055   0.314   0.554   6.221 -0.9669  0.9116 -1.8903
13612SOL    HW252056   0.169   0.541   6.295  0.7765  0.4161  1.5173
13613SOL     OW52057   4.483   5.363   2.657  0.3578  0.2967  0.3208
13613SOL    HW152058   4.562   5.306   2.680 -0.8493 -0.9873  1.4373
13613SOL    HW252059   4.509   5.459   2.658  2.2171 -0.1690 -0.6584
13614SOL     OW52060   5.457   7.986   4.464 -0.2942 -0.0541  0.5329
13614SOL    HW152061   5.403   8.005   4.547 -0.3201 -1.2478  0.8051
13614SOL    HW252062   5.540   7.937   4.489 -0.7919 -1.3120 -0.2566
13615SOL     OW52063   4.869   7.004   3.346  1.2009  0.1489 -0.2559
13615SOL    HW152064   4.909   7.053   3.424  0.0806 -0.2819  0.5963
13615SOL    HW252065   4.804   6.936   3.380  0.0085  0.6041 -1.6340
13616SOL     OW52066   0.790   4.317   1.022  0.1029  0.0921 -0.1728
13616SOL    HW152067   0.779   4.342   0.926 -0.1115  1.0834  0.1044
13616SOL    HW252068   0.745   4.229   1.039 -1.2477  0.6733 -0.6303
13617SOL     OW52069   3.762   2.455   2.760 -0.0887 -0.9281  0.1823
13617SOL    HW152070   3.840   2.486   2.815 -0.0026 -0.7786 -0.0224
13617SOL    HW252071   3.691   2.418   2.820  0.0049 -0.7665  0.3921
13618SOL     OW52072   2.556   1.427   3.651  0.0532  0.4920 -0.1171
13618SOL    HW152073   2.513   1.406   3.738  0.9450 -0.8680  0.0192
13618SOL    HW252074   2.638   1.482   3.666  0.5481 -0.2648 -0.0459
13619SOL     OW52075   3.963   5.453   2.978 -0.7970  0.2674 -0.1147
13619SOL    HW152076   3.874   5.439   3.022 -0.8967 -0.8789 -0.6538
13619SOL    HW252077   3.982   5.376   2.916 -0.3674  1.5271 -1.5763
13620SOL     OW52078   2.961   4.502   3.852 -0.2928  0.1027  0.2519
13620SOL    HW152079   3.004   4.502   3.761  1.0972  1.0939  0.8963
13620SOL    HW252080   2.958   4.408   3.887  1.8312  0.0696  0.4069
13621SOL     OW52081   0.447   0.856   4.942  0.5205 -0.4590  0.2435
13621SOL    HW152082   0.357   0.841   4.903 -0.5469 -0.3001  2.5630
13621SOL    HW252083   0.497   0.923   4.887 -1.3454  0.5988 -0.1908
13622SOL     OW52084   0.470   4.594   1.042 -0.1910  0.5034 -0.1674
13622SOL    HW152085   0.528   4.616   1.120  0.5426 -0.6724 -0.3609
13622SOL    HW252086   0.379   4.566   1.074 -0.4536  1.7115  0.1680
13623SOL     OW52087   1.411   8.097   4.039 -0.0823  0.1604  0.2324
13623SOL    HW152088   1.400   8.146   3.953 -1.2639 -2.1322 -0.9556
13623SOL    HW252089   1.401   7.999   4.023 -0.8824 -0.2573  3.0860
13624SOL     OW52090   2.669   0.486   0.933  0.1394  0.2150  0.2226
13624SOL    HW152091   2.704   0.570   0.974 -0.7263  0.8357 -0.3083
13624SOL    HW252092   2.683   0.488   0.834  0.8319 -0.6187  0.2921
13625SOL     OW52093   4.871   1.810   2.363  0.2607  0.2921  0.5361
13625SOL    HW152094   4.949   1.766   2.319  1.1810  1.4301  1.0174
13625SOL    HW252095   4.786   1.764   2.334  0.9378  0.2782 -1.5017
13626SOL     OW52096   2.023   1.455   0.225 -0.1376  0.3367  0.2975
13626SOL    HW152097   2.032   1.356   0.231 -0.2423  0.4169  1.8230
13626SOL    HW252098   2.060   1.486   0.138 -0.2432 -1.0568 -0.2620
13627SOL     OW52099   6.432   0.779   4.436  0.0890 -0.0876  0.0396
13627SOL    HW152100   6.360   0.842   4.465  2.4291  2.3862  0.6719
13627SOL    HW252101   6.437   0.778   4.336  0.5405  1.3966  0.0263
13628SOL     OW52102   8.987   4.914   3.039  0.3758  0.1701  0.1960
13628SOL    HW152103   9.061   4.970   3.078  0.9603 -1.1859  1.0720
13628SOL    HW252104   8.902   4.932   3.088  0.0029  2.0065 -1.0484
13629SOL     OW52105   8.468   4.729   4.843 -0.6121 -0.7945  0.1896
13629SOL    HW152106   8.556   4.758   4.806 -0.9910 -1.2863 -1.1068
13629SOL    HW252107   8.444   4.788   4.920  0.7517 -0.5271  0.4268
13630SOL     OW52108   8.280   1.026   4.551  0.1582  0.0593  0.4610
13630SOL    HW152109   8.226   1.001   4.471  0.0519 -0.3373  0.6573
13630SOL    HW252110   8.333   1.109   4.531  1.3449 -0.9283 -0.5626
13631SOL     OW52111   4.143   4.714   1.114 -0.0930  0.0761 -0.1347
13631SOL    HW152112   4.053   4.670   1.110 -0.4207  0.8714 -2.8539
13631SOL    HW252113   4.158   4.752   1.205 -2.3777 -0.3189  0.4285
13632SOL     OW52114   4.570   1.199   5.011 -0.3436  0.3544  0.4202
13632SOL    HW152115   4.610   1.108   5.022  1.2314  0.5675 -3.1080
13632SOL    HW252116   4.600   1.257   5.086 -1.9916 -2.1638  3.1698
13633SOL     OW52117   9.332   8.909   5.534  0.2263  0.2780 -0.2906
13633SOL    HW152118   9.366   8.998   5.504 -1.5324  1.8436  2.1841
13633SOL    HW252119   9.388   8.876   5.610 -0.3593  0.2533  0.1347
13634SOL     OW52120   8.147   9.628   1.661 -0.4300  0.1988 -0.0013
13634SOL    HW152121   8.222   9.573   1.699 -0.3676  1.0031  1.0564
13634SOL    HW252122   8.130   9.599   1.567  0.1441 -1.0805  0.2662
13635SOL     OW52123   8.032   7.960   3.353 -0.0912  0.2358 -0.0246
13635SOL    HW152124   7.995   7.943   3.444 -1.8141 -1.4093 -0.9620
13635SOL    HW252125   8.131   7.948   3.354 -0.1994 -0.6937  1.4432
13636SOL     OW52126   1.237   5.927   5.602 -0.4481  0.3013  0.5705
13636SOL    HW152127   1.327   5.882   5.601 -0.5034  0.1063  2.4909
13636SOL    HW252128   1.247   6.021   5.570  0.5114  0.3750  1.0410
13637SOL     OW52129   7.946   0.804   0.462 -0.3859  0.1955  0.0727
13637SOL    HW152130   7.871   0.831   0.403  0.0103  0.2020 -0.4333
13637SOL    HW252131   8.011   0.747   0.410 -0.9050 -1.2382  0.9516
13638SOL     OW52132   1.374   3.271   4.626 -0.1350 -0.0966 -0.3278
13638SOL    HW152133   1.375   3.346   4.560  0.6757 -0.8184 -1.1648
13638SOL    HW252134   1.288   3.272   4.676 -0.0983  1.4281 -0.2767
13639SOL     OW52135   9.140   4.887   2.403  0.3424  0.2109  0.1649
13639SOL    HW152136   9.072   4.887   2.330 -0.4314  2.1580  0.8415
13639SOL    HW252137   9.122   4.964   2.465  1.3904 -0.9885  2.0154
13640SOL     OW52138   2.520   5.239   4.827  0.0436  0.0471 -0.7117
13640SOL    HW152139   2.605   5.217   4.876  0.0278 -0.7429 -1.0193
13640SOL    HW252140   2.507   5.172   4.753 -0.4828  0.5867 -1.1099
13641SOL     OW52141   3.265   6.265   4.422 -0.3700  0.4728  0.5788
13641SOL    HW152142   3.253   6.174   4.383  0.7321  1.3391 -1.8213
13641SOL    HW252143   3.175   6.303   4.447 -0.9985 -0.4894 -0.2079
13642SOL     OW52144   5.324   3.285   5.488  0.1709 -0.3582  0.3500
13642SOL    HW152145   5.306   3.242   5.399 -1.3432  0.4649  0.2531
13642SOL    HW252146   5.336   3.383   5.475  1.4174 -0.4229  0.8840
13643SOL     OW52147   1.926   6.035   2.026 -0.2616 -0.0588  0.1277
13643SOL    HW152148   1.934   6.124   2.069  0.1376 -0.1553  0.2500
13643SOL    HW252149   2.003   5.977   2.053 -0.7168 -0.5682  0.3524
13644SOL     OW52150   8.077   3.938   6.395  0.6262 -0.6293  0.4279
13644SOL    HW152151   8.080   4.015   6.459 -0.1509  0.6078 -1.0102
13644SOL    HW252152   8.118   3.964   6.308  0.3435 -1.8365 -0.0843
13645SOL     OW52153   4.702   3.267   1.172  0.1699  0.1964 -0.0141
13645SOL    HW152154   4.778   3.318   1.132  0.1973 -0.4443 -0.8006
13645SOL    HW252155   4.724   3.169   1.172 -1.1594 -0.1227 -1.3896
13646SOL     OW52156   3.402   8.779   7.843  0.5921 -0.1863 -0.2647
13646SOL    HW152157   3.336   8.740   7.779  2.5842 -1.3858 -1.6456
13646SOL    HW252158   3.383   8.743   7.935 -0.5992 -0.5894 -0.6493
13647SOL     OW52159   3.091   8.896   5.272 -0.1358  0.0843 -0.1900
13647SOL    HW152160   3.087   8.995   5.259  1.5510 -0.0044 -1.5295
13647SOL    HW252161   3.178   8.872   5.316 -1.4089 -0.6162  2.0142
13648SOL     OW52162   1.299   3.754   1.952  0.2888  0.3251  0.3475
13648SOL    HW152163   1.361   3.825   1.918  1.2285 -0.5695  0.1550
13648SOL    HW252164   1.301   3.676   1.889 -0.3769 -0.0632  0.8090
13649SOL     OW52165   8.065   8.608   4.216 -0.6713  0.2550  0.2884
13649SOL    HW152166   8.121   8.604   4.299  0.9221  0.2645 -0.7509
13649SOL    HW252167   8.097   8.538   4.151 -0.8876  1.2589 -0.9171
13650SOL     OW52168   3.554   3.609   0.564 -0.0603  0.2562 -0.0924
13650SOL    HW152169   3.471   3.580   0.518  0.3356 -0.0422 -0.6293
13650SOL    HW252170   3.553   3.578   0.660 -0.3214 -0.2146 -0.2481
13651SOL     OW52171   2.333   9.854   6.003  0.4199 -0.2500 -0.0662
13651SOL    HW152172   2.311   9.864   5.906 -0.6236 -0.0570  0.1831
13651SOL    HW252173   2.294   9.931   6.054  1.5398  0.0042  0.4115
13652SOL     OW52174   0.848   2.335   3.250  0.4922  0.5735  0.7494
13652SOL    HW152175   0.783   2.263   3.273 -0.5394  1.1021 -0.4633
13652SOL    HW252176   0.938   2.294   3.235 -0.0593 -0.4546  0.1486
13653SOL     OW52177   1.156   6.922   4.876 -0.2076  0.5208  0.0314
13653SOL    HW152178   1.140   6.905   4.973 -1.2495  0.1575 -0.1902
13653SOL    HW252179   1.091   6.991   4.843  0.3715  0.9000 -0.3336
13654SOL     OW52180   0.101   4.366   3.032 -0.0878 -0.1734 -0.0284
13654SOL    HW152181   0.066   4.306   3.103  1.1232 -0.4649  0.3263
13654SOL    HW252182   0.190   4.333   3.000  1.0413  1.9458  0.8386
13655SOL     OW52183   3.379   9.747   0.214 -0.5733  0.4443  0.7608
13655SOL    HW152184   3.384   9.842   0.184  0.5039 -0.4261 -1.9163
13655SOL    HW252185   3.427   9.737   0.302  1.9793  1.7929 -0.4425
13656SOL     OW52186   1.664   8.927   6.205  0.3454  0.1331  0.1476
13656SOL    HW152187   1.568   8.944   6.184  0.0687  1.0573  2.0347
13656SOL    HW252188   1.699   9.002   6.261  1.8912 -0.6968  0.3209
13657SOL     OW52189   4.157   2.011   5.006 -0.2407 -0.3129 -0.3629
13657SOL    HW152190   4.163   2.081   4.935 -0.7609 -0.9030 -0.9919
13657SOL    HW252191   4.062   2.000   5.034 -0.0075  0.1137  0.6353
13658SOL     OW52192   7.711   4.656   6.501 -0.0513  0.5166  0.1764
13658SOL    HW152193   7.734   4.562   6.526  0.5384 -0.0207 -2.2863
13658SOL    HW252194   7.629   4.656   6.445 -1.3345  1.7032  1.9796
13659SOL     OW52195   0.698   2.587   0.749  0.5871  0.4167 -0.5204
13659SOL    HW152196   0.635   2.637   0.690 -0.1812  0.3917  0.2725
13659SOL    HW252197   0.680   2.489   0.742 -1.5128  0.5850  2.0071
13660SOL     OW52198   2.894   8.316   5.253  0.2445 -0.0011  0.4236
13660SOL    HW152199   2.977   8.326   5.198  0.2826  1.4308  0.7259
13660SOL    HW252200   2.917   8.281   5.343  0.3368 -1.0156  0.0228
13661SOL     OW52201   6.041   0.107   5.944 -0.7167 -0.2631  0.3576
13661SOL    HW152202   6.097   0.036   5.902  2.0040  2.8314 -1.5055
13661SOL    HW252203   6.058   0.109   6.042  2.3835  0.4776 -0.1438
13662SOL     OW52204   2.296   2.667   5.151  0.3241  0.0449 -0.1365
13662SOL    HW152205   2.265   2.688   5.058 -0.5082  0.7870  0.2884
13662SOL    HW252206   2.258   2.735   5.214 -0.9456 -1.7170  1.0507
13663SOL     OW52207   2.045   4.606   2.670 -0.3801 -0.2461 -0.5690
13663SOL    HW152208   2.136   4.564   2.675 -0.0356  0.6666  1.4740
13663SOL    HW252209   2.054   4.701   2.638 -0.4329  0.3045  0.9996
13664SOL     OW52210   7.698   8.975   3.190  0.3307  0.5849 -0.0135
13664SOL    HW152211   7.654   9.017   3.111  2.1912  0.9990 -0.8506
13664SOL    HW252212   7.670   9.022   3.274 -2.5095 -0.5331 -0.2516
13665SOL     OW52213   7.739   1.384   0.518  0.2450  0.2190 -0.5964
13665SOL    HW152214   7.708   1.385   0.613 -0.5481  1.0640 -0.8634
13665SOL    HW252215   7.661   1.399   0.457  0.2677 -2.9343 -1.5349
13666SOL     OW52216   9.098   9.154   0.864 -0.0209  0.3351 -0.0927
13666SOL    HW152217   9.146   9.118   0.944 -0.7052  1.1068  0.6785
13666SOL    HW252218   9.152   9.137   0.782  1.2327  0.5511  0.6718
13667SOL     OW52219   9.702   2.380   3.382 -0.1421  0.0955 -0.3670
13667SOL    HW152220   9.776   2.403   3.445 -0.8033 -0.1557  0.5148
13667SOL    HW252221   9.631   2.331   3.432 -0.2920 -0.8380 -1.5010
13668SOL     OW52222   7.483   2.564   5.536  0.4500  0.1182  0.3526
13668SOL    HW152223   7.466   2.662   5.524  1.2249  0.4082  1.5172
13668SOL    HW252224   7.540   2.531   5.461 -0.9436  0.2472 -0.7870
13669SOL     OW52225   3.482   1.450   4.428  0.0516  0.3379 -0.7248
13669SOL    HW152226   3.397   1.434   4.377  0.8952 -1.3026 -1.6843
13669SOL    HW252227   3.494   1.548   4.443 -2.0975  0.5858 -0.4102
13670SOL     OW52228   4.913   2.799   5.237 -0.3833  0.7216  0.4307
13670SOL    HW152229   4.844   2.842   5.295  0.5747 -0.3509  2.4331
13670SOL    HW252230   4.913   2.700   5.253 -0.4995  0.3301 -1.8502
13671SOL     OW52231   7.308   7.443   3.686  0.2565 -0.7153 -0.1840
13671SOL    HW152232   7.265   7.463   3.598 -0.3066 -0.7761  0.0748
13671SOL    HW252233   7.275   7.355   3.720  1.9132 -1.6034 -0.8061
13672SOL     OW52234   9.364   0.205   5.426  0.0820  0.1163 -0.4765
13672SOL    HW152235   9.286   0.259   5.457  1.7881  1.7208  1.1309
13672SOL    HW252236   9.384   0.133   5.492  0.1617 -0.0800 -0.7126
13673SOL     OW52237   5.840   9.382   4.269 -0.2466  0.0074  0.4608
13673SOL    HW152238   5.816   9.458   4.209  1.6379  1.4003  1.4262
13673SOL    HW252239   5.859   9.417   4.361  1.0985 -1.5772  0.8018
13674SOL     OW52240   3.165   9.601   0.274 -0.0245  0.4152  0.0981
13674SOL    HW152241   3.149   9.538   0.198  0.6943  0.6050 -0.2161
13674SOL    HW252242   3.239   9.664   0.250  0.1008  0.5776  0.8968
13675SOL     OW52243   9.522   8.071   3.140  0.0888  0.0238  0.0795
13675SOL    HW152244   9.621   8.073   3.153 -0.0196  1.1291  0.8704
13675SOL    HW252245   9.479   8.026   3.218  0.0722 -1.9043 -1.0335
13676SOL     OW52246   9.943   3.957   0.681 -0.2305 -0.6862  0.6457
13676SOL    HW152247   9.975   3.864   0.698  0.4011 -0.5706  0.1168
13676SOL    HW252248   9.879   3.984   0.753  1.4855 -0.6240  2.1849
13677SOL     OW52249   3.611   1.677   3.949  0.3043  0.4920 -0.2263
13677SOL    HW152250   3.705   1.658   3.923 -0.0703 -0.5070 -0.8811
13677SOL    HW252251   3.606   1.693   4.048  1.0579 -0.1241 -0.0861
13678SOL     OW52252   3.822   5.410   0.920 -0.1791  0.1963 -0.3303
13678SOL    HW152253   3.820   5.510   0.911 -1.5312  0.2563  0.3805
13678SOL    HW252254   3.872   5.385   1.002  0.3422  0.2769 -0.6212
13679SOL     OW52255   1.698   4.341   5.408  0.2030 -0.1304  0.0123
13679SOL    HW152256   1.662   4.392   5.486  2.4986  2.0709 -0.3096
13679SOL    HW252257   1.630   4.341   5.334 -1.0482 -0.2588  1.1278
13680SOL     OW52258   9.078   7.240   6.405  0.4500 -0.1108  0.3482
13680SOL    HW152259   9.140   7.316   6.420 -1.2143  0.9860  1.8187
13680SOL    HW252260   9.087   7.208   6.310  2.8073  0.3867  0.3714
13681SOL     OW52261   1.006   1.926   0.997  0.3379  0.2365  0.4031
13681SOL    HW152262   0.950   2.003   1.027  0.7060  0.2781  0.9930
13681SOL    HW252263   1.025   1.935   0.899 -0.4097  0.3889  0.2682
13682SOL     OW52264   5.554   0.624   3.703  0.2992 -0.3973 -0.2215
13682SOL    HW152265   5.613   0.704   3.697 -0.3643  0.1382  0.1873
13682SOL    HW252266   5.607   0.541   3.689  1.2157  0.0556  0.5078
13683SOL     OW52267   5.277   0.271   6.993  0.0365 -0.7037  0.7384
13683SOL    HW152268   5.186   0.311   6.988  0.7206  0.8925  0.5970
13683SOL    HW252269   5.279   0.186   6.940 -1.8071 -1.6698  2.1557
13684SOL     OW52270   2.077   7.624   2.047 -0.4455  0.0698 -0.6254
13684SOL    HW152271   2.105   7.548   1.987  0.2255 -0.5768  0.4976
13684SOL    HW252272   1.993   7.665   2.011 -0.6821 -1.0505 -1.3782
13685SOL     OW52273   9.375   6.675   5.914 -0.1051  0.0300  0.5581
13685SOL    HW152274   9.376   6.736   5.993 -0.1967 -0.6888  1.1196
13685SOL    HW252275   9.467   6.667   5.876 -0.2982  1.4074 -0.2099
13686SOL     OW52276   4.129   0.349   1.272 -0.0715 -0.1143 -0.0925
13686SOL    HW152277   4.113   0.267   1.327 -0.6492 -1.4164 -2.1772
13686SOL    HW252278   4.172   0.323   1.185 -1.9983  1.5766 -1.5720
13687SOL     OW52279   8.172   0.982   2.272 -0.3637 -0.9099  0.5208
13687SOL    HW152280   8.219   0.972   2.360 -0.3374 -1.2348  0.4715
13687SOL    HW252281   8.173   1.078   2.244 -0.2503 -0.8262  0.8081
13688SOL     OW52282   6.215   3.950   8.030  0.3817  0.3884  0.4198
13688SOL    HW152283   6.244   4.030   8.083 -0.2809  0.4561  0.6938
13688SOL    HW252284   6.145   3.900   8.082 -0.2266  0.4215 -0.3708
13689SOL     OW52285   3.144   2.388   2.043 -0.3013  0.3426 -0.0011
13689SOL    HW152286   3.084   2.465   2.061 -0.7133 -0.2115  1.0737
13689SOL    HW252287   3.151   2.373   1.945  0.0938  1.9831 -0.2384
13690SOL     OW52288   4.036   5.005   1.034  0.7523  0.4916 -0.0758
13690SOL    HW152289   4.039   4.942   1.111 -0.6555  0.9697  0.3786
13690SOL    HW252290   4.117   5.064   1.036  1.2764 -0.2384  0.3909
13691SOL     OW52291   1.000   3.104   2.753  0.7644 -0.0880 -0.3201
13691SOL    HW152292   0.998   3.203   2.766  1.2107  0.0329 -1.1088
13691SOL    HW252293   1.046   3.061   2.831 -0.0876  0.2525  0.3812
13692SOL     OW52294   1.115   2.945   2.950 -0.5625  0.1760 -0.1585
13692SOL    HW152295   1.161   2.859   2.926  2.6603  1.1659  2.0780
13692SOL    HW252296   1.096   2.946   3.049 -1.6833  1.5410 -0.3729
13693SOL     OW52297   7.742   3.207   3.575  0.0847  0.3222 -0.4736
13693SOL    HW152298   7.667   3.180   3.514 -0.4995  0.5718  0.1266
13693SOL    HW252299   7.823   3.229   3.520 -0.3917  0.4084 -1.1538
13694SOL     OW52300   8.876   4.265   0.042 -0.2486  0.5983  0.1718
13694SOL    HW152301   8.807   4.310   0.099  1.7910  1.9296  1.6755
13694SOL    HW252302   8.873   4.166   0.057  0.0814  0.9096  2.4198
13695SOL     OW52303   1.553   6.899   3.806 -0.2615  0.1224  0.0559
13695SOL    HW152304   1.594   6.845   3.879  1.1424  0.8255 -0.2034
13695SOL    HW252305   1.471   6.945   3.842  0.6338  0.7852  1.3103
13696SOL     OW52306   4.422   3.612   5.220  0.5658 -0.4237 -0.3342
13696SOL    HW152307   4.421   3.619   5.120 -1.7683 -2.3882 -0.5113
13696SOL    HW252308   4.333   3.640   5.256  0.6693 -1.7353  1.0059
13697SOL     OW52309   1.888   1.440   5.505 -0.0079  0.0706  0.1407
13697SOL    HW152310   1.866   1.451   5.408 -0.8768  0.5896  0.3918
13697SOL    HW252311   1.947   1.516   5.534 -0.7976  0.6170  0.3274
13698SOL     OW52312   3.332   8.643   3.978  0.4792 -0.0743  0.4081
13698SOL    HW152313   3.389   8.724   3.990  0.6163 -0.3091  1.3684
13698SOL    HW252314   3.391   8.562   3.969  0.3142 -0.2450  0.8431
13699SOL     OW52315   7.847   0.983   3.605  0.0526  0.2624  0.0201
13699SOL    HW152316   7.836   0.885   3.618  2.5775 -0.2163 -1.0958
13699SOL    HW252317   7.867   1.027   3.693  1.0580 -0.5659  0.2137
13700SOL     OW52318   3.536   0.298   3.803  0.1631 -0.1592  0.3646
13700SOL    HW152319   3.589   0.374   3.842  2.3939 -1.5836  0.1799
13700SOL    HW252320   3.490   0.249   3.877  0.5431  0.0096  0.7184
13701SOL     OW52321   5.590   4.126   0.503 -0.3010 -0.1994 -0.1374
13701SOL    HW152322   5.584   4.170   0.414 -0.7781  0.5948  0.2763
13701SOL    HW252323   5.498   4.117   0.542 -0.2109 -1.6042 -0.2263
13702SOL     OW52324   8.600   3.367   0.008  1.1386 -0.1004 -0.0486
13702SOL    HW152325   8.504   3.343  -0.002  0.7952  1.7819 -1.5892
13702SOL    HW252326   8.622   3.379   0.104 -0.0239 -1.0426  0.3498
13703SOL     OW52327   9.354   4.969   1.290 -0.1466 -0.1975 -0.2794
13703SOL    HW152328   9.343   4.912   1.371 -0.1841 -0.1157 -0.2262
13703SOL    HW252329   9.266   4.976   1.243 -1.0203  2.6704  1.6274
13704SOL     OW52330   2.487   6.052   2.652 -0.0587 -0.5697 -0.3544
13704SOL    HW152331   2.393   6.026   2.630 -0.9521  2.1465 -0.0062
13704SOL    HW252332   2.546   6.032   2.574 -1.5342  0.6200 -1.8221
13705SOL     OW52333   7.548   1.476   3.891 -0.3368  0.1866  0.2450
13705SOL    HW152334   7.513   1.394   3.936  0.4461 -1.8016 -2.6176
13705SOL    HW252335   7.608   1.526   3.953  0.7005 -2.4263  1.3956
13706SOL     OW52336   7.354   6.280   3.575  0.2526  0.4617 -0.3741
13706SOL    HW152337   7.298   6.296   3.657 -0.6100  0.5909 -0.9793
13706SOL    HW252338   7.407   6.196   3.587 -1.4148 -0.6358 -0.4971
13707SOL     OW52339   6.551   1.402   5.942 -0.5581  0.2253  0.1025
13707SOL    HW152340   6.573   1.458   5.862  3.0256 -0.9150  0.2302
13707SOL    HW252341   6.558   1.458   6.024 -2.1520  0.8465 -0.1508
13708SOL     OW52342   4.175   9.522   1.793  0.0518  0.5299  0.4589
13708SOL    HW152343   4.251   9.567   1.840  1.0290  0.5166 -1.0998
13708SOL    HW252344   4.093   9.580   1.800  0.6120  1.2906  0.7622
13709SOL     OW52345   7.688   0.753   3.907 -0.5625  0.0621 -0.1873
13709SOL    HW152346   7.600   0.796   3.891 -0.7578 -0.4007 -0.3872
13709SOL    HW252347   7.737   0.744   3.820  1.0139  3.1164  0.3227
13710SOL     OW52348   0.184   1.830   2.810  0.5508 -0.9429  0.8381
13710SOL    HW152349   0.098   1.845   2.761  0.0626 -1.3421  1.5605
13710SOL    HW252350   0.194   1.901   2.880  0.1141 -1.7260  1.6986
13711SOL     OW52351   8.239   4.056   4.700  0.0120  0.5954  0.2487
13711SOL    HW152352   8.198   3.995   4.768 -0.7861  0.7202 -0.1191
13711SOL    HW252353   8.175   4.130   4.679  0.2967  0.6118 -0.5725
13712SOL     OW52354   5.542   0.493   6.077 -0.0090 -0.3502 -0.2762
13712SOL    HW152355   5.484   0.428   6.028 -0.5695  0.3381 -0.5338
13712SOL    HW252356   5.638   0.472   6.060 -0.1956 -0.7814 -0.7835
13713SOL     OW52357   0.908   8.742   3.485  0.1476  0.3341 -0.9773
13713SOL    HW152358   0.856   8.762   3.403  1.7740  0.6362 -1.9481
13713SOL    HW252359   0.988   8.801   3.489 -1.4094  2.3716  2.3016
13714SOL     OW52360   1.975   6.377   5.511  0.2323 -0.5137 -0.0235
13714SOL    HW152361   1.988   6.280   5.490  0.3907 -0.5159  0.0864
13714SOL    HW252362   1.881   6.392   5.542  0.1022 -0.5716 -0.3899
13715SOL     OW52363   3.794   3.498   2.203 -0.2713  0.1456  0.1980
13715SOL    HW152364   3.761   3.434   2.133 -0.2896  0.0468  0.2956
13715SOL    HW252365   3.795   3.591   2.166  0.4165 -0.0041 -0.1698
13716SOL     OW52366   1.253   7.396   3.684  0.2786 -0.3405  0.2330
13716SOL    HW152367   1.163   7.412   3.725 -0.9056 -0.5208 -2.2456
13716SOL    HW252368   1.315   7.469   3.711 -2.0379  2.6299 -2.1945
13717SOL     OW52369   6.544   7.285   3.573  0.4369 -0.2984 -0.2676
13717SOL    HW152370   6.550   7.384   3.562  1.1722 -0.4335 -1.1710
13717SOL    HW252371   6.617   7.254   3.635  0.8677 -0.3906 -0.8140
13718SOL     OW52372   6.917   5.760   7.866 -0.0692  0.0600 -0.1120
13718SOL    HW152373   6.822   5.791   7.877 -0.3440 -0.8029 -0.0344
13718SOL    HW252374   6.978   5.839   7.866 -0.9446  0.7727 -1.8350
13719SOL     OW52375   4.544   3.667   2.150 -0.4987 -0.6685 -0.4028
13719SOL    HW152376   4.540   3.754   2.103 -1.0228  0.1505  1.1316
13719SOL    HW252377   4.473   3.606   2.115 -1.8782  0.4692  0.4097
13720SOL     OW52378   7.708   0.622   1.860  0.2610  0.0737 -0.4418
13720SOL    HW152379   7.707   0.556   1.784  1.5811  1.3200 -1.5828
13720SOL    HW252380   7.624   0.613   1.914  1.0477 -3.5282  0.3001
13721SOL     OW52381   6.282   5.068   8.102 -0.0144  0.3197 -0.0840
13721SOL    HW152382   6.233   5.063   8.188 -0.9515  0.5882 -0.5956
13721SOL    HW252383   6.238   5.136   8.042  0.6439  0.1635 -0.7546
13722SOL     OW52384   9.139   5.102   1.521  0.5491 -0.0215 -0.1124
13722SOL    HW152385   9.139   5.024   1.458  1.0574  0.0146 -0.1649
13722SOL    HW252386   9.215   5.163   1.497  2.1996 -1.1747  1.9773
13723SOL     OW52387   0.356   5.807   4.752  0.6486 -0.0306  0.1917
13723SOL    HW152388   0.349   5.713   4.721 -0.1178  0.3518 -0.8058
13723SOL    HW252389   0.296   5.821   4.830 -1.6330  0.4209 -1.5943
13724SOL     OW52390   3.326   5.803   2.953 -0.3974  0.2975  0.1601
13724SOL    HW152391   3.288   5.868   2.888 -1.0155  0.6803  0.8981
13724SOL    HW252392   3.424   5.791   2.934 -0.3406  1.2130 -0.1664
13725SOL     OW52393   3.069   2.709   1.664  0.6797  0.0535 -0.1844
13725SOL    HW152394   3.139   2.745   1.726 -0.4645  0.2187  1.0255
13725SOL    HW252395   2.992   2.674   1.717 -0.3901  0.3434 -1.5218
13726SOL     OW52396   3.060   2.121   4.964 -0.0107  0.1417 -0.1574
13726SOL    HW152397   3.016   2.208   4.989 -0.0523 -0.0271  0.3597
13726SOL    HW252398   3.112   2.134   4.880  1.2970  1.0996  0.7848
13727SOL     OW52399   1.293   4.342   2.760  0.4973  0.7663  0.0647
13727SOL    HW152400   1.321   4.427   2.805 -1.3653  1.6824 -0.4149
13727SOL    HW252401   1.208   4.359   2.709 -0.4545 -1.6365  0.7939
13728SOL     OW52402   7.827   6.470   4.348 -0.6074  0.5517 -0.1786
13728SOL    HW152403   7.787   6.403   4.286  1.2945  1.2138 -2.1536
13728SOL    HW252404   7.861   6.424   4.430  0.0193 -0.8023 -1.1843
13729SOL     OW52405   1.681   3.984   2.414  0.0339  0.4910  0.7521
13729SOL    HW152406   1.666   4.045   2.336  0.1404 -0.5274 -0.0786
13729SOL    HW252407   1.706   4.038   2.495  0.8440  1.4731 -0.1490
13730SOL     OW52408   8.237   2.622   6.104 -0.0605  0.2760 -0.5910
13730SOL    HW152409   8.187   2.536   6.097  0.4187 -0.0001 -0.6706
13730SOL    HW252410   8.176   2.698   6.083 -0.4292 -0.0578 -0.7396
13731SOL     OW52411   1.280   8.484   1.009 -0.0555  0.2755 -0.1484
13731SOL    HW152412   1.358   8.512   0.954 -0.1240 -0.2227 -0.5043
13731SOL    HW252413   1.246   8.562   1.062 -1.2086  1.2853 -2.2963
13732SOL     OW52414   0.843   4.583   1.524  0.2283 -0.5503 -0.8414
13732SOL    HW152415   0.800   4.511   1.470 -0.4562 -1.0516  0.3663
13732SOL    HW252416   0.932   4.553   1.556 -1.1024 -1.8401  1.7624
13733SOL     OW52417   4.409   5.607   0.654 -0.5025 -0.3314  0.4146
13733SOL    HW152418   4.401   5.700   0.690 -1.6434 -0.2607  0.0274
13733SOL    HW252419   4.458   5.609   0.567 -3.4258  0.4075 -1.3099
13734SOL     OW52420   8.678   5.897   2.341 -0.3661  0.4620 -0.3336
13734SOL    HW152421   8.629   5.916   2.426  0.4296  0.4253  0.1308
13734SOL    HW252422   8.688   5.982   2.289 -1.2791  0.4007 -0.6299
13735SOL     OW52423   8.181   9.692   4.638  0.2744  0.1350  0.7789
13735SOL    HW152424   8.088   9.693   4.602  0.2827 -0.3472  0.7430
13735SOL    HW252425   8.193   9.768   4.703  0.4059  1.3002 -0.5700
13736SOL     OW52426   9.727   4.030   3.766  0.2276 -0.2782 -0.6536
13736SOL    HW152427   9.735   4.104   3.833 -0.0661  1.5090 -2.5321
13736SOL    HW252428   9.668   3.958   3.802  2.0041 -0.4926  1.9569
13737SOL     OW52429   0.212   7.566   0.162  0.6679  0.2495 -0.0918
13737SOL    HW152430   0.304   7.605   0.160  0.3018  1.0344 -2.2481
13737SOL    HW252431   0.168   7.588   0.249  2.7393 -0.6747  1.2258
13738SOL     OW52432   3.585   9.306   4.838  0.2004  0.3117  0.6302
13738SOL    HW152433   3.612   9.386   4.892  1.9024 -0.7289  1.3824
13738SOL    HW252434   3.597   9.325   4.741  0.3266  1.0750  0.7914
13739SOL     OW52435   6.901   2.517   5.843  0.3868 -0.0647  0.4786
13739SOL    HW152436   6.802   2.519   5.862  0.2377  1.1636 -0.3863
13739SOL    HW252437   6.916   2.513   5.745  1.2117 -0.9268  0.6302
13740SOL     OW52438   3.875   9.082   2.190 -0.6311 -0.3064 -0.1218
13740SOL    HW152439   3.854   8.988   2.164  0.4989 -1.0628  1.5351
13740SOL    HW252440   3.793   9.126   2.225 -1.2200 -0.5991 -1.1087
13741SOL     OW52441   7.933   9.116   5.498  0.2583  0.1417 -0.0738
13741SOL    HW152442   8.002   9.096   5.427 -0.1587 -1.6793  0.0177
13741SOL    HW252443   7.974   9.102   5.588 -0.0970 -0.4699 -0.0100
13742SOL     OW52444   4.367   7.813   4.723 -0.1845  0.0702 -0.3328
13742SOL    HW152445   4.376   7.841   4.628 -1.4036 -0.8683 -0.7367
13742SOL    HW252446   4.336   7.891   4.778  0.7520  0.6748 -0.6502
13743SOL     OW52447   2.595   4.074   2.488 -0.0070 -0.0868 -0.0713
13743SOL    HW152448   2.662   4.000   2.490  0.1429  0.0495 -0.0110
13743SOL    HW252449   2.505   4.039   2.514  0.2996 -0.0106  1.1268
13744SOL     OW52450   1.800   1.761   4.942 -0.2007  0.9920 -0.1530
13744SOL    HW152451   1.790   1.859   4.960  0.2389  0.8069  1.1956
13744SOL    HW252452   1.867   1.722   5.006 -1.3433 -0.4420  0.2039
13745SOL     OW52453   1.849   7.177   0.364 -0.3814 -0.8826 -0.4649
13745SOL    HW152454   1.752   7.154   0.353 -0.9199  1.1977 -0.2004
13745SOL    HW252455   1.863   7.229   0.448  0.9068 -0.8009 -0.7090
13746SOL     OW52456   4.393   7.609   3.103 -0.3600  0.3827 -0.5444
13746SOL    HW152457   4.333   7.685   3.080 -2.4879 -0.4568  2.0268
13746SOL    HW252458   4.474   7.643   3.151  0.6227  1.3742 -2.8329
13747SOL     OW52459   5.292   8.358   5.893  0.3336 -0.1884  0.6801
13747SOL    HW152460   5.279   8.323   5.801  1.5535 -0.6457  0.6705
13747SOL    HW252461   5.329   8.451   5.889 -3.1252  1.2523  0.7038
13748SOL     OW52462   1.428   4.092   3.924  0.2655 -0.5201  0.2718
13748SOL    HW152463   1.421   4.010   3.981  2.5273 -1.6110 -0.9266
13748SOL    HW252464   1.374   4.079   3.841 -0.4301 -0.2464  0.6757
13749SOL     OW52465   1.739   9.927   4.445  0.6061 -0.7433  0.4172
13749SOL    HW152466   1.748  10.013   4.395 -1.8066 -1.0967 -0.6893
13749SOL    HW252467   1.799   9.928   4.525  0.7430  1.8836  0.3017
13750SOL     OW52468   7.541   1.541   6.527 -0.0394 -0.2464  0.0262
13750SOL    HW152469   7.517   1.592   6.609 -1.5788  1.4294 -1.4151
13750SOL    HW252470   7.457   1.506   6.484  0.8214 -1.9137 -0.3215
13751SOL     OW52471   5.058   0.363   3.092  0.3218  0.1576  0.7529
13751SOL    HW152472   4.986   0.432   3.079  0.9479  1.0894  2.1456
13751SOL    HW252473   5.129   0.400   3.152  2.0960 -0.6582 -0.8058
13752SOL     OW52474   5.749   2.382   0.346 -0.3777  0.3366  0.2925
13752SOL    HW152475   5.830   2.374   0.288 -1.2029  2.7236 -1.2748
13752SOL    HW252476   5.712   2.475   0.340 -2.1453 -0.1567  2.4707
13753SOL     OW52477   2.619   1.373   5.408 -0.2505  0.1494 -0.3220
13753SOL    HW152478   2.711   1.338   5.392  0.3486  0.9379  1.2632
13753SOL    HW252479   2.625   1.469   5.435 -1.6983  0.8246 -2.2897
13754SOL     OW52480   8.608   5.243   4.753 -0.5624  0.0472  0.1518
13754SOL    HW152481   8.534   5.186   4.790 -0.7820  0.0131 -0.3361
13754SOL    HW252482   8.602   5.334   4.793 -0.7869  0.0059  0.2123
13755SOL     OW52483   0.244   2.897   4.603 -0.0720 -0.4345 -0.1532
13755SOL    HW152484   0.344   2.897   4.607 -0.0485  0.2519 -0.5292
13755SOL    HW252485   0.213   2.983   4.561 -0.8305 -0.4822  0.3043
13756SOL     OW52486   2.728   9.895   5.689 -0.1090  0.0882  0.3837
13756SOL    HW152487   2.698   9.983   5.725  1.6102  0.3824  1.1229
13756SOL    HW252488   2.818   9.872   5.726 -1.2925 -2.8290  1.6855
13757SOL     OW52489   3.618   2.186   1.505  0.6598  0.2667 -0.6706
13757SOL    HW152490   3.663   2.156   1.421  1.8996  1.4062 -0.4292
13757SOL    HW252491   3.667   2.264   1.544 -0.8369  0.7790  0.2531
13758SOL     OW52492   7.213   2.812   4.245 -0.2342 -0.2094  0.2347
13758SOL    HW152493   7.151   2.885   4.273 -1.0210  0.1101 -2.1950
13758SOL    HW252494   7.225   2.746   4.319 -3.1953 -0.0930  0.8405
13759SOL     OW52495   9.227   2.043   2.916  0.5523  0.2835  0.5252
13759SOL    HW152496   9.162   1.997   2.855  0.2209  2.0330 -0.4925
13759SOL    HW252497   9.217   2.007   3.009 -0.5003 -0.8524 -0.0126
13760SOL     OW52498   3.699   5.135   1.019  0.0415  0.0470 -0.0316
13760SOL    HW152499   3.636   5.145   1.096  0.1534  1.1227 -0.0665
13760SOL    HW252500   3.722   5.226   0.983 -1.6287 -0.4936 -2.6263
13761SOL     OW52501   2.767   7.475   4.696  0.2472  0.5959 -0.2114
13761SOL    HW152502   2.781   7.431   4.785  0.8171  1.0400 -0.0750
13761SOL    HW252503   2.688   7.435   4.650  0.3386 -0.0758  0.2212
13762SOL     OW52504   0.438   8.126   1.290 -0.0882  0.3603 -0.7822
13762SOL    HW152505   0.455   8.089   1.382 -0.9304  1.0819 -0.3301
13762SOL    HW252506   0.522   8.165   1.254  0.2545  0.0499 -0.3283
13763SOL     OW52507   0.413   6.165   4.744 -0.0732  0.1164 -0.2987
13763SOL    HW152508   0.379   6.179   4.651  2.3796 -0.7126 -1.3514
13763SOL    HW252509   0.421   6.067   4.762  1.1373  0.2855  0.1311
13764SOL     OW52510   5.296   4.997   0.072 -0.7113  0.0285  0.1151
13764SOL    HW152511   5.234   5.073   0.055  1.6429  2.0783  0.3272
13764SOL    HW252512   5.312   4.989   0.171 -1.6059 -1.2824  0.1549
13765SOL     OW52513   2.046   7.577   1.648 -0.0805 -0.1047 -0.3107
13765SOL    HW152514   1.990   7.503   1.685 -1.2372  1.3170  0.8458
13765SOL    HW252515   2.109   7.541   1.579  0.1113 -2.3258  0.9987
13766SOL     OW52516   2.993   6.799   5.813  0.1359 -0.3957 -0.6052
13766SOL    HW152517   2.948   6.711   5.828  0.2798 -0.2362  0.7824
13766SOL    HW252518   3.091   6.785   5.802 -0.0125 -0.5484 -1.7613
13767SOL     OW52519   1.369   2.211   4.424  0.0862 -0.4298  0.3195
13767SOL    HW152520   1.304   2.285   4.435  0.4250 -0.3664  1.9548
13767SOL    HW252521   1.452   2.246   4.381 -1.4832 -0.8155 -3.2211
13768SOL     OW52522   0.911   6.114   5.196  0.0974  0.2993  0.1171
13768SOL    HW152523   0.980   6.098   5.126 -1.3071 -1.5362 -0.8879
13768SOL    HW252524   0.939   6.070   5.281  0.5514  0.2998 -0.0308
13769SOL     OW52525   4.159   1.478   3.898  0.5706  0.0852  0.0281
13769SOL    HW152526   4.175   1.498   3.995 -1.5691 -1.4960  0.7505
13769SOL    HW252527   4.129   1.383   3.888 -1.0960  0.7832 -1.9664
13770SOL     OW52528   3.952   7.653   4.463  0.7576 -0.6372  0.6592
13770SOL    HW152529   4.051   7.653   4.450  0.6334  0.8388 -0.3269
13770SOL    HW252530   3.930   7.602   4.546  2.1044 -3.7460 -0.8031
13771SOL     OW52531   0.824   9.623   4.172  0.4382  0.0521  0.0520
13771SOL    HW152532   0.752   9.682   4.206  0.8856  1.0079 -0.6500
13771SOL    HW252533   0.878   9.589   4.249  0.6328  1.1467  0.4003
13772SOL     OW52534   4.456   5.937   3.731 -0.4353 -0.2169 -0.1173
13772SOL    HW152535   4.532   5.925   3.795  1.2316 -0.4898 -2.0638
13772SOL    HW252536   4.481   6.005   3.662 -2.0001 -0.2387 -0.7269
13773SOL     OW52537   7.765   3.153   1.962  0.0722 -0.2417 -0.0898
13773SOL    HW152538   7.732   3.205   2.042  1.8547 -1.8190  1.7218
13773SOL    HW252539   7.808   3.216   1.898 -1.7618  1.1180 -0.0503
13774SOL     OW52540   6.098   8.795   6.378  0.5280  0.1899 -0.0767
13774SOL    HW152541   6.173   8.775   6.440 -0.3179  0.8010  1.1590
13774SOL    HW252542   6.133   8.846   6.299  1.4286  0.3991  0.4471
13775SOL     OW52543   8.185   4.661   2.930 -0.7494 -0.1141 -0.3083
13775SOL    HW152544   8.165   4.634   3.024 -0.3256  0.8355  0.0677
13775SOL    HW252545   8.132   4.604   2.867 -0.0944 -1.5861  0.4530
13776SOL     OW52546   0.445   3.984   0.862 -0.3279  0.0996 -0.2256
13776SOL    HW152547   0.356   3.941   0.876 -0.4682  0.9686  1.7326
13776SOL    HW252548   0.501   3.926   0.803 -1.0156 -2.0619  1.1916
13777SOL     OW52549   8.631   0.452   3.839  0.1275 -0.0387  0.2523
13777SOL    HW152550   8.575   0.377   3.874  0.1035 -0.6814 -1.1199
13777SOL    HW252551   8.726   0.422   3.830 -0.0016 -0.1097 -0.8970
13778SOL     OW52552   4.091   7.069   4.052 -0.1340  0.4723 -0.1922
13778SOL    HW152553   4.006   7.121   4.051 -1.9632 -2.3262  2.0400
13778SOL    HW252554   4.116   7.048   4.147  1.3458 -1.3571 -0.9605
13779SOL     OW52555   0.952   0.734   4.242 -0.1718  0.0460 -0.2357
13779SOL    HW152556   0.969   0.703   4.336 -0.4921 -1.7742 -0.7659
13779SOL    HW252557   0.853   0.732   4.224 -0.0685 -0.0731 -0.7733
13780SOL     OW52558   5.331   2.554   0.373 -0.3998 -0.6051 -0.0587
13780SOL    HW152559   5.374   2.643   0.383 -1.0781 -0.3082  0.2553
13780SOL    HW252560   5.234   2.560   0.400  0.0542 -1.8975  2.0577
13781SOL     OW52561   4.430   8.062   5.111  0.0859 -0.1429 -0.4282
13781SOL    HW152562   4.441   8.157   5.083 -0.5510 -0.2653 -1.0816
13781SOL    HW252563   4.521   8.022   5.127  0.3089  1.0901  1.6430
13782SOL     OW52564   0.927   9.516   0.445 -0.4926 -0.0676 -0.6176
13782SOL    HW152565   0.919   9.451   0.370  0.4284 -0.4022 -0.4395
13782SOL    HW252566   0.975   9.598   0.414 -0.3209 -0.1061 -0.4592
13783SOL     OW52567   3.141   1.514   6.092 -0.2439 -0.3634 -0.6445
13783SOL    HW152568   3.115   1.525   5.996 -1.9715  1.1187 -0.0447
13783SOL    HW252569   3.212   1.580   6.115 -0.4844 -0.0933 -0.6743
13784SOL     OW52570   9.533   7.636   4.822 -0.2002  0.1679 -0.1006
13784SOL    HW152571   9.501   7.562   4.763  0.8526 -1.8316  1.7647
13784SOL    HW252572   9.621   7.669   4.787 -0.5375  0.3543 -0.7816
13785SOL     OW52573   4.200   7.392   1.762 -0.2525 -0.5184  0.8907
13785SOL    HW152574   4.270   7.372   1.693 -0.2053  0.3596  0.6852
13785SOL    HW252575   4.244   7.428   1.845 -0.5834  1.5099  0.2023
13786SOL     OW52576   3.408   6.623   2.564 -0.5558 -0.2055 -0.1023
13786SOL    HW152577   3.437   6.690   2.632 -1.3502 -0.4157  0.4509
13786SOL    HW252578   3.353   6.552   2.608  2.0459 -2.4259 -0.2525
13787SOL     OW52579   1.480   0.779   3.786  0.4209  0.3401  0.1414
13787SOL    HW152580   1.516   0.869   3.762 -1.3492  0.0471 -3.9946
13787SOL    HW252581   1.381   0.784   3.797  0.3540 -1.0252  0.3241
13788SOL     OW52582   9.679   3.921   4.595  0.4213  0.6477 -0.4467
13788SOL    HW152583   9.677   4.018   4.621 -0.1592  0.4745  0.1522
13788SOL    HW252584   9.612   3.871   4.648  1.5486 -0.3018  0.1002
13789SOL     OW52585   0.016   0.747   5.556  0.2842  0.3661  0.0314
13789SOL    HW152586  -0.051   0.794   5.498  0.1984 -0.7761 -0.8030
13789SOL    HW252587   0.098   0.804   5.563 -0.7862  1.8206  1.1494
13790SOL     OW52588   8.284   5.002   3.617  0.3083  0.0597 -0.1353
13790SOL    HW152589   8.277   4.909   3.582  0.4859 -0.1899  0.4824
13790SOL    HW252590   8.221   5.061   3.567  0.5437 -0.2941 -0.8536
13791SOL     OW52591   8.120   3.527   2.709 -0.4615 -0.8460 -0.1383
13791SOL    HW152592   8.043   3.586   2.686  0.0279  0.8246  2.3379
13791SOL    HW252593   8.182   3.521   2.630 -0.9582  1.2582 -0.7200
13792SOL     OW52594   7.998   6.361   5.234 -0.4978 -0.3149 -0.2775
13792SOL    HW152595   8.081   6.404   5.269 -0.2267 -0.2324 -1.0008
13792SOL    HW252596   7.950   6.315   5.308 -0.4256  0.6428  0.3847
13793SOL     OW52597   2.440   0.236   5.905 -0.3299  0.0580 -0.2431
13793SOL    HW152598   2.403   0.213   5.815 -1.3161 -0.9915  0.4087
13793SOL    HW252599   2.401   0.322   5.936  0.1728  0.5308 -0.8998
13794SOL     OW52600   6.064   1.876   3.046 -0.0620  0.4554 -0.0073
13794SOL    HW152601   6.042   1.971   3.068  0.4858  0.6680 -0.3723
13794SOL    HW252602   6.144   1.847   3.098 -0.9619 -0.2016  1.0353
13795SOL     OW52603   3.733   0.001   1.155  0.4935  0.4705  0.0954
13795SOL    HW152604   3.830   0.014   1.173  0.8568 -2.7975  0.8732
13795SOL    HW252605   3.678   0.041   1.229  1.3110  0.8006  0.5207
13796SOL     OW52606   4.019   7.090   2.628 -0.1148  0.4438 -0.3162
13796SOL    HW152607   4.085   7.155   2.589  0.1304 -0.5551 -1.6160
13796SOL    HW252608   4.040   7.076   2.724  1.8626 -0.1612 -0.7979
13797SOL     OW52609   4.952   3.862   4.183  0.2606  0.5349  0.1459
13797SOL    HW152610   4.876   3.866   4.248  1.0504  0.3861  1.0814
13797SOL    HW252611   5.027   3.920   4.215  0.3795  1.0455 -1.0004
13798SOL     OW52612   3.992   2.624   0.551 -0.1977 -0.2777  0.4762
13798SOL    HW152613   3.930   2.557   0.510  1.8601 -1.2951 -1.0476
13798SOL    HW252614   4.047   2.579   0.621  0.1093  0.1907  0.5358
13799SOL     OW52615   9.272   8.233   6.013 -0.4974 -0.0079 -0.7759
13799SOL    HW152616   9.204   8.303   6.033 -0.2550  0.4229 -1.4463
13799SOL    HW252617   9.341   8.270   5.950 -0.0841 -0.6866 -0.7295
13800SOL     OW52618   3.502   8.469   2.660  0.1104  0.0716  0.1752
13800SOL    HW152619   3.585   8.519   2.684 -0.8087  1.1704  1.1324
13800SOL    HW252620   3.427   8.498   2.719 -0.8252 -1.3368 -0.2835
13801SOL     OW52621   6.938   9.840   6.452  0.1854 -0.3444  0.3254
13801SOL    HW152622   6.881   9.777   6.505 -0.4812  0.8758  1.0822
13801SOL    HW252623   7.022   9.860   6.503  1.2203 -1.9766 -0.6956
13802SOL     OW52624   0.870   5.940   3.617  0.4551  0.3712  0.9642
13802SOL    HW152625   0.956   5.897   3.589  1.6605  1.4696  2.8718
13802SOL    HW252626   0.801   5.925   3.546  2.1238 -0.7714 -0.4725
13803SOL     OW52627   6.318   9.520   6.370 -0.4458  0.4272 -0.0594
13803SOL    HW152628   6.301   9.550   6.276  0.6633 -0.5823 -0.5921
13803SOL    HW252629   6.244   9.459   6.399 -0.1747 -0.1938 -0.6840
13804SOL     OW52630   3.260   5.979   4.335  0.4793  0.5239  0.0931
13804SOL    HW152631   3.327   5.915   4.372 -1.2058  0.2694  2.8115
13804SOL    HW252632   3.187   5.928   4.290 -0.5772  0.5048  1.7755
13805SOL     OW52633   6.888   8.532   4.546 -0.5949  0.2504  0.2204
13805SOL    HW152634   6.902   8.541   4.645  0.0844  0.3758  0.1181
13805SOL    HW252635   6.876   8.623   4.506 -0.3224  0.2400  0.1133
13806SOL     OW52636   7.883   6.683   2.803  0.3252  0.0075 -0.3405
13806SOL    HW152637   7.857   6.730   2.888  2.8980 -0.3946  0.7234
13806SOL    HW252638   7.921   6.750   2.739  1.0861 -0.1185 -0.0299
13807SOL     OW52639   7.260   3.265   2.973  0.0922 -0.6329  0.1093
13807SOL    HW152640   7.213   3.349   3.001  0.3057 -0.3721 -0.3228
13807SOL    HW252641   7.231   3.190   3.033 -0.3475 -0.3239  0.2868
13808SOL     OW52642   8.633   8.651   1.181  0.4220  0.0008  0.4235
13808SOL    HW152643   8.700   8.623   1.112 -0.4691  1.0430 -0.8662
13808SOL    HW252644   8.644   8.593   1.262  1.9483 -0.7649 -0.2993
13809SOL     OW52645   7.744   2.167   0.958  0.4608  0.2645 -0.0923
13809SOL    HW152646   7.826   2.111   0.970  0.1222 -0.0333  0.9620
13809SOL    HW252647   7.663   2.108   0.963  0.1860  0.5276 -1.3260
13810SOL     OW52648   1.069   1.982   5.253 -0.2636  0.4358 -1.5018
13810SOL    HW152649   1.005   2.047   5.294 -1.3390 -1.4309 -0.1261
13810SOL    HW252650   1.034   1.889   5.264  2.8831 -0.6928 -0.3001
13811SOL     OW52651   4.501   8.655   1.447  0.0708  0.8204 -0.0339
13811SOL    HW152652   4.570   8.601   1.495  0.8705  1.7697 -0.0729
13811SOL    HW252653   4.468   8.605   1.367  1.0600  0.5425 -0.2707
13812SOL     OW52654   2.555   0.257   4.045 -0.0466 -0.2444  0.2138
13812SOL    HW152655   2.581   0.171   4.000 -0.6794 -0.9409  1.1424
13812SOL    HW252656   2.514   0.236   4.134 -1.6423  0.9342 -0.2252
13813SOL     OW52657   9.420   4.356   5.188 -0.3695  0.1433 -0.5031
13813SOL    HW152658   9.400   4.409   5.270 -1.9164 -0.9740 -0.1515
13813SOL    HW252659   9.412   4.416   5.107 -2.5398  0.3719 -0.1513
13814SOL     OW52660   8.743   4.122   3.236  0.2896 -0.1800  0.0051
13814SOL    HW152661   8.781   4.036   3.203  0.2964 -0.1867  0.0300
13814SOL    HW252662   8.674   4.102   3.306 -0.3579 -0.2022 -0.6388
13815SOL     OW52663   7.776   9.370   5.359  0.0128 -0.9615  0.4520
13815SOL    HW152664   7.752   9.344   5.453 -1.5822 -0.9860  0.0532
13815SOL    HW252665   7.752   9.295   5.297 -3.4475  0.8491 -0.5597
13816SOL     OW52666   3.946   3.622   5.054 -0.3409 -0.4136 -0.1361
13816SOL    HW152667   3.857   3.584   5.027 -0.3477  0.2445 -1.1014
13816SOL    HW252668   4.015   3.551   5.050 -0.7422 -0.8231  0.1534
13817SOL     OW52669   4.198   3.630   4.716  0.3370  0.1627  0.0418
13817SOL    HW152670   4.246   3.631   4.629 -1.2658  0.3960 -0.8695
13817SOL    HW252671   4.154   3.541   4.728 -0.2048  0.4468  0.1833
13818SOL     OW52672   2.433   5.011   2.560 -0.3287  0.6248 -0.0676
13818SOL    HW152673   2.388   5.002   2.649  0.3247  0.8877  0.2975
13818SOL    HW252674   2.504   5.082   2.566 -0.0648  0.4210 -0.7113
13819SOL     OW52675   1.807   9.936   3.227  0.3028  0.3491 -0.3778
13819SOL    HW152676   1.715   9.931   3.265  0.6614  0.3596  0.5191
13819SOL    HW252677   1.816  10.018   3.171 -0.4032  0.0440 -0.9495
13820SOL     OW52678   4.480   4.867   4.579 -0.8858  1.2580  0.8437
13820SOL    HW152679   4.434   4.891   4.494  2.1216 -0.6314 -1.4216
13820SOL    HW252680   4.440   4.784   4.617  0.9614 -0.7979 -1.5094
13821SOL     OW52681   4.302   4.829   1.685  0.1125  0.1176  0.7105
13821SOL    HW152682   4.336   4.843   1.778 -0.4583  2.3672  0.6068
13821SOL    HW252683   4.298   4.917   1.637 -2.9629 -0.4952 -0.2684
13822SOL     OW52684   6.861   2.273   1.098 -0.1783 -0.0101 -0.3805
13822SOL    HW152685   6.771   2.248   1.063 -0.3567  0.7130 -0.4395
13822SOL    HW252686   6.908   2.331   1.031 -0.8790  2.1242  0.9264
13823SOL     OW52687   5.717   0.175   3.138  0.0680 -0.1422 -0.0548
13823SOL    HW152688   5.657   0.184   3.217  0.6151  1.2006  0.2096
13823SOL    HW252689   5.675   0.113   3.071 -0.9492 -0.3208  0.7455
13824SOL     OW52690   1.917   2.053   2.503 -0.2421 -0.0400  0.6951
13824SOL    HW152691   1.967   1.966   2.502 -1.3162 -0.6676  1.2779
13824SOL    HW252692   1.861   2.058   2.585 -1.9185  0.2275 -0.4518
13825SOL     OW52693   5.834   8.226   5.698 -0.6257  0.3283  0.5516
13825SOL    HW152694   5.834   8.264   5.790  0.0694  2.0012 -0.1190
13825SOL    HW252695   5.909   8.265   5.645 -3.0674  2.1053 -1.7940
13826SOL     OW52696   4.213   4.067   2.545 -0.3829  0.1014 -0.0294
13826SOL    HW152697   4.199   4.047   2.448  0.6547 -0.6812 -0.0303
13826SOL    HW252698   4.174   3.994   2.600 -2.4321  1.3537  0.2172
13827SOL     OW52699   0.015   2.846   2.678  0.1822 -0.5128 -0.4977
13827SOL    HW152700  -0.019   2.786   2.606 -0.8234 -0.8672  0.2451
13827SOL    HW252701   0.063   2.924   2.638 -3.2844  1.1143 -1.7099
13828SOL     OW52702   0.115   7.469   0.685  0.7075  0.2043  0.3222
13828SOL    HW152703   0.028   7.496   0.641  0.4261  0.4422  1.0204
13828SOL    HW252704   0.186   7.535   0.661  0.8388 -0.3096 -0.7237
13829SOL     OW52705   1.247   1.450   5.538 -0.4032 -0.6860  0.8227
13829SOL    HW152706   1.284   1.492   5.621  0.5599  2.4363 -1.1377
13829SOL    HW252707   1.323   1.425   5.477 -1.2284  0.0738 -0.5291
13830SOL     OW52708   6.611   2.987   5.973  0.3174 -0.4602 -0.3778
13830SOL    HW152709   6.554   2.952   6.047 -1.2944  1.2860 -0.7769
13830SOL    HW252710   6.677   2.917   5.946 -0.6112 -1.9435  1.1310
13831SOL     OW52711   5.068   4.032   0.292 -0.3212 -0.2317 -0.0492
13831SOL    HW152712   5.058   4.021   0.391 -3.2842 -0.4044 -0.3195
13831SOL    HW252713   5.051   4.128   0.268  0.8427 -0.0938 -0.3750
13832SOL     OW52714   9.997   8.617   2.913  0.1745 -0.3108  0.1388
13832SOL    HW152715   9.978   8.686   2.844  2.3282  0.5714  0.3839
13832SOL    HW252716   9.963   8.648   3.002  0.8176  0.3031  0.1803
13833SOL     OW52717   5.104   4.007   1.900 -0.0605  0.1614  0.1162
13833SOL    HW152718   5.134   3.929   1.845 -0.2434  0.8117 -0.9139
13833SOL    HW252719   5.098   4.088   1.842 -2.0533  0.4477  0.6980
13834SOL     OW52720   9.578   0.326   5.985 -0.0898  0.0832  0.2729
13834SOL    HW152721   9.664   0.297   6.027  1.1277  1.4429 -1.2040
13834SOL    HW252722   9.550   0.414   6.024 -1.0443 -0.5583  1.0511
13835SOL     OW52723   9.614   8.295   3.439  0.6226  0.1840 -0.4549
13835SOL    HW152724   9.705   8.331   3.421  0.6574  0.0421 -0.5627
13835SOL    HW252725   9.609   8.199   3.412  0.4538  0.1785 -0.4079
13836SOL     OW52726   8.590   2.452   3.650 -0.4653 -0.0808 -0.2678
13836SOL    HW152727   8.630   2.494   3.569 -0.7251 -0.1700 -0.4448
13836SOL    HW252728   8.505   2.405   3.625 -0.3412 -0.4444 -0.0141
13837SOL     OW52729   9.168   1.478   3.845  0.0616 -0.0473  0.1892
13837SOL    HW152730   9.121   1.412   3.903 -1.4089  0.1688 -0.7545
13837SOL    HW252731   9.118   1.491   3.760  1.1080  1.1973 -0.2623
13838SOL     OW52732   3.221   9.152   5.128  0.0382 -0.1220  0.0310
13838SOL    HW152733   3.231   9.162   5.029  0.2543  0.9203  0.1471
13838SOL    HW252734   3.312   9.147   5.170  0.0082  1.8889  0.3952
13839SOL     OW52735   6.883   1.806   1.991 -0.7602 -0.4868 -0.3272
13839SOL    HW152736   6.970   1.844   1.959 -1.3316 -0.7294 -2.2387
13839SOL    HW252737   6.900   1.726   2.048  0.3155  0.4191  0.6512
13840SOL     OW52738   7.834   8.210   4.057 -0.2895  0.1569  0.1914
13840SOL    HW152739   7.924   8.206   4.012  0.5082  2.0090  1.5278
13840SOL    HW252740   7.762   8.198   3.989  0.9764 -2.1624 -0.7876
13841SOL     OW52741   5.717   8.968   6.474 -0.0468 -0.2533  0.0632
13841SOL    HW152742   5.697   8.889   6.531  0.0750  1.5393  2.6795
13841SOL    HW252743   5.636   8.992   6.420 -0.9160 -0.6125  1.1966
13842SOL     OW52744   2.181   6.747   5.118 -0.1674  0.1975  0.4614
13842SOL    HW152745   2.162   6.731   5.021 -1.9387  2.1277  0.4536
13842SOL    HW252746   2.104   6.714   5.173  0.5025 -0.2151  1.1530
13843SOL     OW52747   1.994   0.988   0.617  0.0317  0.0477 -0.1479
13843SOL    HW152748   1.991   1.080   0.579  0.2632 -0.2923 -0.9961
13843SOL    HW252749   2.009   0.993   0.716  1.3982  0.8812 -0.3922
13844SOL     OW52750   1.904   1.292   2.761 -0.4208 -0.0343 -0.2959
13844SOL    HW152751   2.002   1.291   2.740  0.0937  0.2081  1.9208
13844SOL    HW252752   1.863   1.205   2.732  1.0706 -1.3607  1.4122
13845SOL     OW52753   2.773   5.146   4.922  0.5690  0.2628 -0.1295
13845SOL    HW152754   2.743   5.053   4.905  0.2056  0.3512  0.0108
13845SOL    HW252755   2.808   5.186   4.837 -0.0183  0.2662 -0.3738
13846SOL     OW52756   0.993   9.799   2.290  0.0257  0.4475 -0.5985
13846SOL    HW152757   0.944   9.815   2.204  0.0512  0.4689 -0.6089
13846SOL    HW252758   0.982   9.879   2.350 -1.8689 -0.4361  0.3138
13847SOL     OW52759   0.505   7.100   2.074 -0.0113  0.2241 -0.3545
13847SOL    HW152760   0.571   7.171   2.099 -0.5543  0.7229 -0.3256
13847SOL    HW252761   0.528   7.014   2.120 -0.9318  1.1021  1.7828
13848SOL     OW52762   3.578   5.370   1.986  0.0691  0.7997  0.5287
13848SOL    HW152763   3.564   5.273   1.963  1.6736  0.5984  0.3239
13848SOL    HW252764   3.549   5.386   2.080  1.3466 -0.2810  1.1344
13849SOL     OW52765   1.938   9.895   0.579  0.0315 -0.2705 -0.3993
13849SOL    HW152766   2.029   9.861   0.555  0.3119 -0.5628  1.0428
13849SOL    HW252767   1.945   9.956   0.658 -0.9319  0.2985 -0.7462
13850SOL     OW52768   3.557   5.792   4.950 -0.1685 -0.0601  0.4583
13850SOL    HW152769   3.460   5.781   4.928 -0.1556 -1.2509  0.9622
13850SOL    HW252770   3.600   5.702   4.956  0.3701  0.3022  2.8120
13851SOL     OW52771   8.611   3.837   2.656 -0.3443 -0.4774 -0.4229
13851SOL    HW152772   8.699   3.797   2.680  0.2316  0.8215 -0.3602
13851SOL    HW252773   8.621   3.935   2.639 -2.0476  0.0461  1.2499
13852SOL     OW52774   2.828   2.749   2.415  0.1547 -0.2094  0.3667
13852SOL    HW152775   2.892   2.673   2.422 -0.7276 -0.8938  1.2222
13852SOL    HW252776   2.755   2.726   2.350  0.5864  0.4324 -0.3537
13853SOL     OW52777   9.963   9.110   1.037 -0.5143  0.1861 -0.1633
13853SOL    HW152778   9.961   9.051   1.118 -3.5812  0.6296  0.1471
13853SOL    HW252779  10.017   9.191   1.056 -1.3394  0.3515  1.4912
13854SOL     OW52780   3.040   2.965   1.561  0.3320  0.4137 -0.4903
13854SOL    HW152781   3.030   2.871   1.593 -1.1757  0.9444  0.6748
13854SOL    HW252782   2.958   2.991   1.510  0.7021  1.1294 -0.7274
13855SOL     OW52783   1.904   6.586   3.992  0.7267  0.5466  0.4647
13855SOL    HW152784   1.964   6.577   3.913 -0.0824  1.7820 -0.3081
13855SOL    HW252785   1.818   6.629   3.964 -1.5351 -3.3128  1.0511
13856SOL     OW52786   3.109   7.931   3.089  0.7114 -0.3874  0.2968
13856SOL    HW152787   3.065   7.878   3.161  1.4753  0.9805  1.8173
13856SOL    HW252788   3.199   7.891   3.068  0.6366 -0.5817  0.3487
13857SOL     OW52789   1.506   8.529   0.547 -0.2720  0.2978 -0.0730
13857SOL    HW152790   1.558   8.607   0.511  0.7901 -0.7029 -0.7530
13857SOL    HW252791   1.519   8.450   0.487 -2.7423  0.0627 -0.3469
13858SOL     OW52792   0.198   3.595   0.514  0.5280 -0.0042 -0.0955
13858SOL    HW152793   0.270   3.642   0.565 -2.3960  4.1922  0.4897
13858SOL    HW252794   0.142   3.542   0.577  0.2253  0.6962  0.2335
13859SOL     OW52795   4.516   7.036   1.901 -0.4337 -0.2648  0.4379
13859SOL    HW152796   4.463   7.062   1.983 -0.3795 -2.6265  1.2599
13859SOL    HW252797   4.582   6.965   1.925  0.7484  0.2012 -1.3344
13860SOL     OW52798   1.472   1.216   4.727 -0.0248  0.7608  0.5542
13860SOL    HW152799   1.375   1.237   4.716  0.1867  2.0865  1.1871
13860SOL    HW252800   1.486   1.118   4.713 -1.3740  0.6373 -0.0410
13861SOL     OW52801   2.217   4.961   5.137 -0.2882  0.2223  0.2869
13861SOL    HW152802   2.309   4.998   5.125  0.6294 -1.9226  0.3694
13861SOL    HW252803   2.221   4.882   5.199 -1.6281 -1.9763 -2.2953
13862SOL     OW52804   2.040   7.793   1.321  0.6986 -0.1507  0.0164
13862SOL    HW152805   2.114   7.847   1.283  1.3799 -0.5862  0.6974
13862SOL    HW252806   2.021   7.715   1.261  0.8712 -0.1082 -0.0919
13863SOL     OW52807   0.883   3.030   5.043  0.6296  1.0188 -0.2710
13863SOL    HW152808   0.891   2.951   4.982 -0.2765 -0.0415  0.9637
13863SOL    HW252809   0.971   3.047   5.087  0.5273  0.0036  0.3180
13864SOL     OW52810   1.679   9.034   5.900  0.3030 -0.4706  0.1250
13864SOL    HW152811   1.734   8.953   5.924 -0.5017 -0.9546  0.3614
13864SOL    HW252812   1.619   9.056   5.976 -0.0581 -0.1292 -0.2604
13865SOL     OW52813   3.080   2.919   3.066  0.6517  0.1529 -0.0508
13865SOL    HW152814   3.107   3.007   3.025  1.3250 -0.5969 -1.2292
13865SOL    HW252815   3.028   2.866   3.000 -2.7187  1.0195  1.7565
13866SOL     OW52816   5.774   2.767   4.813  0.5070  0.4429  0.2816
13866SOL    HW152817   5.680   2.738   4.829 -0.3408  2.9277 -0.0069
13866SOL    HW252818   5.829   2.747   4.894 -0.3520 -0.6809  0.5940
13867SOL     OW52819   1.365   3.103   2.865  0.2435 -0.2079  0.1034
13867SOL    HW152820   1.354   3.186   2.810  0.1337  0.4597  1.1224
13867SOL    HW252821   1.275   3.068   2.890  0.2914  0.8424  1.8519
13868SOL     OW52822   6.700   8.238   6.060  0.3549 -0.0141 -0.1495
13868SOL    HW152823   6.661   8.150   6.086 -1.5004  0.8309 -0.0329
13868SOL    HW252824   6.654   8.311   6.109  1.0006  1.1295 -1.2181
13869SOL     OW52825   3.409   4.009   4.423  0.3866  0.5703  0.2835
13869SOL    HW152826   3.391   4.104   4.449  0.3614  0.8520 -0.7207
13869SOL    HW252827   3.341   3.949   4.466  0.3328  1.0189  0.8283
13870SOL     OW52828   4.087   6.205   2.376  0.1425 -0.6739 -0.2746
13870SOL    HW152829   3.999   6.220   2.423  0.7954 -1.7018  1.3313
13870SOL    HW252830   4.101   6.107   2.363  0.6779 -0.4682 -1.2740
13871SOL     OW52831   6.972   1.806   6.120 -0.5210  0.3140  0.2521
13871SOL    HW152832   7.035   1.806   6.042 -0.1053  1.8730  0.5632
13871SOL    HW252833   6.953   1.712   6.148 -1.1014 -0.2844 -2.0628
13872SOL     OW52834   8.786   3.622   1.424 -0.3701  0.0042  0.1957
13872SOL    HW152835   8.802   3.613   1.523  2.3119  0.1926 -0.1796
13872SOL    HW252836   8.702   3.673   1.408 -0.0796  1.2159  2.3854
13873SOL     OW52837   9.513   9.785   3.420  0.4783 -0.0181  0.1571
13873SOL    HW152838   9.605   9.824   3.413  0.9088 -0.3960  2.9762
13873SOL    HW252839   9.512   9.695   3.378  0.4553  1.3810 -2.9968
13874SOL     OW52840   5.240   0.555   5.621  0.0868  0.0143 -0.0680
13874SOL    HW152841   5.221   0.652   5.607 -0.1002  0.0999  0.7198
13874SOL    HW252842   5.200   0.502   5.547 -0.2610  0.4988 -0.2273
13875SOL     OW52843   4.238   3.034   5.303 -0.2441 -0.0933  0.2268
13875SOL    HW152844   4.261   2.998   5.393 -1.4595  1.8791  1.3606
13875SOL    HW252845   4.319   3.071   5.258  0.3779 -1.1775  0.4584
13876SOL     OW52846   6.371   5.495   7.616 -0.3980  0.2775 -0.1504
13876SOL    HW152847   6.403   5.469   7.525 -2.2332  0.6212 -0.9159
13876SOL    HW252848   6.445   5.484   7.682  0.5181 -1.3832 -1.4294
13877SOL     OW52849   6.458   0.158   6.138  0.1265  0.0984 -0.3329
13877SOL    HW152850   6.431   0.141   6.043  0.6196  1.2792 -0.6898
13877SOL    HW252851   6.519   0.085   6.169 -1.6854 -1.3957 -0.2433
13878SOL     OW52852   8.574   3.548   5.660  0.2111  0.1405 -0.1541
13878SOL    HW152853   8.585   3.587   5.569 -1.5495  1.2429  0.0985
13878SOL    HW252854   8.611   3.455   5.660  0.3561  0.1714 -1.9524
13879SOL     OW52855   8.195   7.133   2.048 -0.3544  0.2151  0.1850
13879SOL    HW152856   8.221   7.227   2.069  0.5595  0.9232 -3.6475
13879SOL    HW252857   8.278   7.079   2.033 -0.8547  0.2862 -3.3107
13880SOL     OW52858   8.917   3.986   1.926 -0.2341  0.9816  0.0060
13880SOL    HW152859   8.949   3.960   2.017 -0.0030  0.2392 -0.2861
13880SOL    HW252860   8.903   4.086   1.922  2.5354  1.3977 -0.0113
13881SOL     OW52861   6.539   1.677   3.018 -0.2043  0.0616  0.2048
13881SOL    HW152862   6.529   1.581   2.994  1.0427  0.1960 -0.9756
13881SOL    HW252863   6.603   1.686   3.095 -0.2107 -0.0421  0.2227
13882SOL     OW52864   6.178   0.233   4.344 -0.2616  0.0951 -0.8823
13882SOL    HW152865   6.162   0.165   4.272  0.6079  0.4964 -1.4554
13882SOL    HW252866   6.104   0.300   4.344 -0.6810 -0.3639 -0.8750
13883SOL     OW52867   1.475   1.861   1.336 -0.2266 -0.2889  1.1742
13883SOL    HW152868   1.466   1.950   1.293 -0.2224 -1.4787 -1.3548
13883SOL    HW252869   1.558   1.859   1.393 -1.1615  1.8439  2.6463
13884SOL     OW52870   1.945   4.559   3.357  0.9646  0.7814  0.5359
13884SOL    HW152871   1.964   4.606   3.271  1.0720  2.2533  1.3462
13884SOL    HW252872   1.850   4.527   3.358  0.4225  2.3479  0.5884
13885SOL     OW52873   0.147   3.031   5.215 -0.5589  0.9583  0.4414
13885SOL    HW152874   0.157   2.933   5.231  0.5929  1.0057  0.0312
13885SOL    HW252875   0.106   3.047   5.125  0.3174  0.8811  0.0288
13886SOL     OW52876   4.834   9.611   3.470 -0.1447  0.0579  0.0259
13886SOL    HW152877   4.748   9.643   3.511 -0.1883 -0.2335  0.1600
13886SOL    HW252878   4.898   9.688   3.463 -0.2566  0.1778  0.3303
13887SOL     OW52879   3.076   8.421   6.048 -0.0923  0.1477  0.0454
13887SOL    HW152880   2.977   8.428   6.063 -0.7900 -2.1812 -2.8499
13887SOL    HW252881   3.112   8.510   6.020 -1.8392  0.4997 -1.1857
13888SOL     OW52882   1.909   5.644   5.905  0.0966 -0.4472 -0.0435
13888SOL    HW152883   1.883   5.737   5.930  2.3188  0.5013 -1.1788
13888SOL    HW252884   1.887   5.582   5.980 -1.0670  1.0285  0.8634
13889SOL     OW52885   7.904   6.719   3.502 -0.6636 -0.0831 -0.2015
13889SOL    HW152886   7.985   6.662   3.511 -0.2822  0.6650  1.2213
13889SOL    HW252887   7.907   6.792   3.570 -0.6101  2.2971 -2.6865
13890SOL     OW52888   3.210   1.739   1.509  0.0262  0.0327  0.3104
13890SOL    HW152889   3.210   1.730   1.409  3.9482 -0.4598  0.2770
13890SOL    HW252890   3.233   1.833   1.534  1.5038 -0.4272  0.7236
13891SOL     OW52891   9.181   9.873   0.814 -0.3906 -0.0740 -0.3652
13891SOL    HW152892   9.140   9.964   0.819 -1.3445 -0.4100 -1.9881
13891SOL    HW252893   9.109   9.803   0.822  0.4495 -0.7328  2.0539
13892SOL     OW52894   2.683   8.349   6.372  0.5515 -0.3229 -0.5846
13892SOL    HW152895   2.657   8.444   6.390  0.7859  0.0233 -1.9817
13892SOL    HW252896   2.774   8.331   6.408  0.8504  0.2391 -1.0481
13893SOL     OW52897   3.179   1.350   5.366  0.5835  0.0236 -0.8992
13893SOL    HW152898   3.234   1.344   5.449  0.0260  1.9736 -0.3680
13893SOL    HW252899   3.129   1.436   5.365 -1.5767 -1.1840 -1.9150
13894SOL     OW52900   6.304   8.920   5.699  0.1845  0.3380 -0.3962
13894SOL    HW152901   6.375   8.852   5.686 -0.3636 -0.1160 -1.0426
13894SOL    HW252902   6.244   8.892   5.774  0.8802  0.8863  0.3682
13895SOL     OW52903   8.562   5.737   2.167  0.1547  0.0132  0.1313
13895SOL    HW152904   8.596   5.811   2.225 -0.1416 -0.0739  0.4152
13895SOL    HW252905   8.596   5.650   2.202  1.1756  0.0798 -0.6822
13896SOL     OW52906   8.295   9.839   4.185 -0.2871  0.7569 -0.3159
13896SOL    HW152907   8.329   9.782   4.260 -0.0696  1.0933 -0.1557
13896SOL    HW252908   8.229   9.788   4.131 -0.1483  0.3775 -0.1292
13897SOL     OW52909   3.045   7.697   1.784  0.5384 -0.0067 -0.8828
13897SOL    HW152910   2.956   7.737   1.802  0.3755 -0.9985  0.6316
13897SOL    HW252911   3.117   7.763   1.806  0.2291 -0.0281  0.2405
13898SOL     OW52912   3.223   9.024   4.003 -0.3610  0.1408 -0.4468
13898SOL    HW152913   3.148   9.036   3.938 -0.5621  0.5200 -0.1437
13898SOL    HW252914   3.287   8.956   3.967 -0.6584  0.0833 -0.8737
13899SOL     OW52915   0.837   3.013   2.540  0.5486 -0.6432 -0.9570
13899SOL    HW152916   0.815   3.106   2.512  1.1296 -0.7875 -1.9408
13899SOL    HW252917   0.903   3.015   2.615  0.8592 -0.2573 -1.2359
13900SOL     OW52918   1.998   0.096   6.113  0.9901 -0.1136  0.2515
13900SOL    HW152919   1.956   0.006   6.097  2.0958 -0.3592 -1.4017
13900SOL    HW252920   2.091   0.083   6.149  1.8581  0.2989 -1.7486
13901SOL     OW52921   2.086   9.994   5.374 -0.1279  0.0237  0.1821
13901SOL    HW152922   1.998  10.019   5.414  0.9440  1.6928  1.5806
13901SOL    HW252923   2.076   9.984   5.275 -1.5646  1.8203  0.1158
13902SOL     OW52924   2.913   2.064   4.568 -0.3549  0.5963  0.3462
13902SOL    HW152925   2.943   2.013   4.649 -0.9904  0.1877  0.3207
13902SOL    HW252926   2.906   2.003   4.490  0.6607  1.0693 -0.1283
13903SOL     OW52927   3.350   2.048   1.916  0.1271  0.3894  0.2823
13903SOL    HW152928   3.375   2.044   2.013  0.3714 -0.4916  0.1844
13903SOL    HW252929   3.431   2.073   1.862 -0.2256  1.8346  0.3868
13904SOL     OW52930   3.108   1.634   0.465  0.1179 -0.5540  0.0718
13904SOL    HW152931   3.095   1.617   0.367  1.4018 -1.6973  0.0868
13904SOL    HW252932   3.191   1.689   0.478 -1.4036  1.7148  0.3593
13905SOL     OW52933   4.671   6.836   1.980 -0.2821 -0.2105  0.3432
13905SOL    HW152934   4.648   6.758   1.922  2.6893 -1.4693  0.7215
13905SOL    HW252935   4.670   6.807   2.076 -0.5493  0.6024  0.5908
13906SOL     OW52936   4.253   8.602   1.622  0.0670 -0.3057 -0.7563
13906SOL    HW152937   4.255   8.505   1.643 -0.3856  0.2964  2.2320
13906SOL    HW252938   4.345   8.633   1.597  0.7887 -0.9199  1.1073
13907SOL     OW52939   2.392   7.253   3.361  0.3733 -0.5953  0.5752
13907SOL    HW152940   2.481   7.207   3.362 -0.8061 -2.9351  0.1943
13907SOL    HW252941   2.320   7.187   3.379 -1.3914  1.1026 -0.0974
13908SOL     OW52942   6.810   5.361   0.734  0.2807 -0.2147 -0.1513
13908SOL    HW152943   6.875   5.324   0.800  1.3196  1.8757  0.0249
13908SOL    HW252944   6.859   5.391   0.652 -0.7796 -0.9925 -1.0946
13909SOL     OW52945   8.091   0.823   2.926  0.4027 -0.4606  0.5082
13909SOL    HW152946   8.160   0.772   2.977 -1.7483 -2.4600  1.5329
13909SOL    HW252947   8.104   0.807   2.828  0.2811 -2.2986  0.7818
13910SOL     OW52948   1.662   2.898   1.048  0.1972 -0.4731 -0.5080
13910SOL    HW152949   1.699   2.933   1.134 -0.2988  0.7183 -0.7639
13910SOL    HW252950   1.699   2.807   1.030 -0.2288 -1.0175  1.3017
13911SOL     OW52951   7.116   0.538   3.130 -0.0018  0.1855  0.3340
13911SOL    HW152952   7.040   0.530   3.066  0.1857  1.5414 -0.0825
13911SOL    HW252953   7.114   0.628   3.174  2.3342  0.9189 -0.9589
13912SOL     OW52954   1.405   6.263   5.216  1.0515 -0.1707  0.3697
13912SOL    HW152955   1.312   6.294   5.197  1.3574 -1.3491 -3.5867
13912SOL    HW252956   1.403   6.167   5.246  1.0949 -0.8563 -1.7582
13913SOL     OW52957   7.182   6.958   2.635  0.3037  0.2155 -0.4725
13913SOL    HW152958   7.206   7.055   2.647 -1.5600  0.6452 -0.1198
13913SOL    HW252959   7.253   6.901   2.677  1.4957  1.4250 -0.8312
13914SOL     OW52960   0.742   2.072   0.356 -0.2619  0.0621 -0.5666
13914SOL    HW152961   0.744   2.170   0.375 -0.9470  0.0454 -0.3849
13914SOL    HW252962   0.653   2.034   0.384  1.2554 -1.2599  2.6884
13915SOL     OW52963   8.620   8.782   4.757  0.5241  0.0091 -0.5969
13915SOL    HW152964   8.581   8.820   4.841  2.0340  2.4981 -0.9746
13915SOL    HW252965   8.591   8.838   4.679 -0.4437 -1.9847 -1.6983
13916SOL     OW52966   3.795   6.069   2.815  0.0478  0.1614  0.1044
13916SOL    HW152967   3.892   6.052   2.833  0.4317  2.5793  0.5174
13916SOL    HW252968   3.739   6.007   2.869  1.3572 -2.0913 -1.0591
13917SOL     OW52969   7.341   2.390   5.258  0.1237 -0.0641  0.2047
13917SOL    HW152970   7.430   2.398   5.214  1.4842  0.1063  2.8993
13917SOL    HW252971   7.272   2.362   5.190  2.3953 -1.1846 -1.7028
13918SOL     OW52972   8.807   4.626   2.371 -0.3452 -0.1840  0.0119
13918SOL    HW152973   8.881   4.692   2.358 -0.8806  0.1016 -1.6720
13918SOL    HW252974   8.753   4.651   2.452  0.4380  0.4997  0.3230
13919SOL     OW52975   7.990   7.436   1.797 -0.1430 -0.0769  0.0967
13919SOL    HW152976   7.967   7.338   1.798  1.6811 -0.5205  0.0185
13919SOL    HW252977   7.958   7.477   1.712 -0.9960 -0.5845  0.1683
13920SOL     OW52978   3.807   0.391   2.345 -0.4145 -0.1081  0.2729
13920SOL    HW152979   3.795   0.378   2.247  0.6645 -0.7687  0.2309
13920SOL    HW252980   3.744   0.331   2.395 -1.0826  0.3520 -0.0134
13921SOL     OW52981   0.494   8.682   4.628 -0.4434  0.1035 -0.6652
13921SOL    HW152982   0.531   8.602   4.581  2.2186  0.7092  0.2760
13921SOL    HW252983   0.552   8.761   4.607 -2.4083  1.5516 -0.7075
13922SOL     OW52984   9.258   7.493   3.549 -0.0787  0.7460  0.0879
13922SOL    HW152985   9.213   7.571   3.507 -0.8606  0.6864  0.8099
13922SOL    HW252986   9.190   7.423   3.571  0.6852 -0.3898 -1.0845
13923SOL     OW52987   6.700   0.623   3.500  0.2933  0.4848  0.1906
13923SOL    HW152988   6.634   0.601   3.572 -1.9467 -0.2682 -2.0508
13923SOL    HW252989   6.712   0.722   3.495 -1.9008  0.7345 -0.4368
13924SOL     OW52990   8.845   4.354   1.876 -0.0827  0.1078  0.4492
13924SOL    HW152991   8.759   4.312   1.904 -0.2868  0.9438  1.0578
13924SOL    HW252992   8.835   4.392   1.784 -0.4181  0.3830  0.6011
13925SOL     OW52993   0.311   3.196   1.376  0.0219  0.3937 -0.2553
13925SOL    HW152994   0.382   3.133   1.406  0.0516  0.6138  0.1517
13925SOL    HW252995   0.319   3.282   1.428 -0.1147  0.6700 -0.6874
13926SOL     OW52996   1.842   2.764   0.279 -0.8316 -0.4623 -0.1545
13926SOL    HW152997   1.882   2.692   0.335 -0.8795 -0.9989 -0.8028
13926SOL    HW252998   1.743   2.769   0.296 -0.7271 -0.1186  0.3619
13927SOL     OW52999   7.242   1.794   4.724 -0.2786 -1.0405 -0.1480
13927SOL    HW153000   7.144   1.775   4.720 -0.5550  0.4848 -0.6895
13927SOL    HW253001   7.282   1.784   4.633 -0.2997  0.2462 -0.3075
13928SOL     OW53002   0.880   6.260   1.885  0.5157  0.4255  0.4729
13928SOL    HW153003   0.863   6.356   1.908  0.4455  0.5756 -0.1846
13928SOL    HW253004   0.979   6.243   1.885  0.6112  0.8858 -0.8855
13929SOL     OW53005   1.775   9.518   2.641 -0.5449  0.1870 -0.1513
13929SOL    HW153006   1.853   9.554   2.591 -0.5441 -0.5743 -0.7036
13929SOL    HW253007   1.713   9.593   2.665 -0.0194  0.6917 -0.3622
13930SOL     OW53008   0.764   9.447   2.415 -0.2917 -0.2932 -0.2971
13930SOL    HW153009   0.835   9.441   2.346  1.1382  0.6035  1.0691
13930SOL    HW253010   0.777   9.375   2.484 -0.5413  0.0319  0.0957
13931SOL     OW53011   6.454   1.646   3.378 -0.0812  0.0110 -0.2978
13931SOL    HW153012   6.379   1.637   3.311 -0.4439  0.4036  0.0500
13931SOL    HW253013   6.537   1.674   3.331  0.0930 -1.3988 -0.8289
13932SOL     OW53014   4.056   5.220   2.424  0.1339 -0.0180  0.2352
13932SOL    HW153015   4.121   5.296   2.427  1.7289 -1.2252 -1.9810
13932SOL    HW253016   4.091   5.144   2.478 -0.0730 -0.1833  0.1395
13933SOL     OW53017   1.429   0.160   3.504  0.2148 -0.1640 -0.3770
13933SOL    HW153018   1.451   0.249   3.544  0.2849 -0.4670  0.2680
13933SOL    HW253019   1.483   0.147   3.421 -0.3810  0.7292 -0.9051
13934SOL     OW53020   8.055   1.528   6.554  0.3312  0.4036 -0.3549
13934SOL    HW153021   8.051   1.554   6.650 -1.0956  0.4145 -0.4113
13934SOL    HW253022   7.998   1.590   6.500  0.3726 -0.1775 -1.0814
13935SOL     OW53023   0.109   5.529   4.253  0.5663  0.3432  0.4976
13935SOL    HW153024   0.022   5.540   4.204  0.8694  0.8457  0.0668
13935SOL    HW253025   0.120   5.433   4.279  1.6325 -0.4776 -2.7286
13936SOL     OW53026   0.752   9.694   0.208  0.3712  0.7007 -0.6276
13936SOL    HW153027   0.782   9.607   0.169  0.5148  0.4174  0.0931
13936SOL    HW253028   0.822   9.764   0.191  2.3990 -0.3867  2.6116
13937SOL     OW53029   1.514   6.064   5.594  0.0601  0.2737 -0.2193
13937SOL    HW153030   1.609   6.073   5.566  0.4357 -0.6348  0.7060
13937SOL    HW253031   1.484   6.147   5.640 -0.0965  1.1793 -1.9181
13938SOL     OW53032   7.777   3.509   5.615  0.0123  0.0355 -0.1890
13938SOL    HW153033   7.751   3.578   5.547 -0.4115  0.3773  0.3183
13938SOL    HW253034   7.695   3.475   5.661  0.3538  0.2858  0.6147
13939SOL     OW53035   6.087   3.558   0.063  0.3273  0.4576 -0.1987
13939SOL    HW153036   6.058   3.464   0.082 -0.6974  0.6183 -0.8815
13939SOL    HW253037   6.178   3.573   0.100  0.6263 -0.9056 -0.3419
13940SOL     OW53038   1.547   7.647   3.483 -0.1191  0.2396  0.0240
13940SOL    HW153039   1.637   7.613   3.456  0.5308  2.6940 -0.9681
13940SOL    HW253040   1.480   7.622   3.413 -0.1110 -1.0748  0.4756
13941SOL     OW53041   1.130   6.646   3.601 -0.6074  0.2037  0.4880
13941SOL    HW153042   1.098   6.554   3.626  1.6064 -0.5802  0.5619
13941SOL    HW253043   1.114   6.708   3.677 -0.2411 -0.5899  1.2266
13942SOL     OW53044   0.978   9.961   1.701 -0.2045  0.7087 -0.1157
13942SOL    HW153045   1.060   9.909   1.725 -1.1935 -0.2077  1.3538
13942SOL    HW253046   0.973  10.044   1.757 -0.7837  0.2577  0.5118
13943SOL     OW53047   9.948   0.123   0.607 -0.1435 -0.3884 -0.0200
13943SOL    HW153048   9.998   0.115   0.521 -0.9561 -2.0390 -0.3651
13943SOL    HW253049   9.969   0.210   0.650  1.3118 -0.1204 -1.2346
13944SOL     OW53050   3.928   3.637   5.722 -0.2366  0.0205 -0.1942
13944SOL    HW153051   3.923   3.732   5.691 -0.1300  0.2477  0.4838
13944SOL    HW253052   4.015   3.622   5.769  0.4458 -0.8318 -1.6868
13945SOL     OW53053   4.438   7.273   1.200 -0.0032 -0.4858 -0.1787
13945SOL    HW153054   4.401   7.270   1.107  0.6588  0.3817 -0.4814
13945SOL    HW253055   4.424   7.185   1.245 -2.0048 -0.3100 -0.4419
13946SOL     OW53056   1.489   8.474   3.992  0.0611  0.1662 -0.3777
13946SOL    HW153057   1.450   8.446   4.080  2.4292  1.8757  1.2812
13946SOL    HW253058   1.555   8.405   3.963 -1.8257 -1.1689 -1.6360
13947SOL     OW53059   4.182   0.777   5.621 -0.0710 -0.0175 -0.7045
13947SOL    HW153060   4.180   0.690   5.571 -0.1582  0.1393 -0.9772
13947SOL    HW253061   4.145   0.763   5.712  0.8958 -0.4982 -0.3768
13948SOL     OW53062   1.511   6.728   5.149 -0.7289  0.6803  0.1703
13948SOL    HW153063   1.420   6.688   5.136 -0.5511  0.2427  0.2452
13948SOL    HW253064   1.525   6.747   5.246  0.5158 -2.3684  0.6684
13949SOL     OW53065   4.995   9.142   4.425 -0.7016 -0.2072 -0.3982
13949SOL    HW153066   4.966   9.072   4.360 -0.5128 -0.3796 -0.2944
13949SOL    HW253067   4.915   9.191   4.459 -0.8205 -0.2775 -0.5790
13950SOL     OW53068   3.429   2.865   3.954  0.5377  0.3252  0.2466
13950SOL    HW153069   3.438   2.926   3.876  2.2461 -0.9933 -0.6126
13950SOL    HW253070   3.408   2.918   4.036 -2.3323  1.6438 -1.2487
13951SOL     OW53071   8.874   7.263   2.630  0.8409  0.5841 -0.8736
13951SOL    HW153072   8.834   7.176   2.659  2.3117  0.8803  2.2800
13951SOL    HW253073   8.808   7.314   2.576 -0.5661 -1.8480 -1.5315
13952SOL     OW53074   8.171   6.837   2.316 -0.0562 -0.7189  0.0000
13952SOL    HW153075   8.151   6.773   2.390 -1.5122 -0.4842 -0.1799
13952SOL    HW253076   8.100   6.831   2.246  1.1907 -0.7756 -1.2785
13953SOL     OW53077   2.896   2.397   5.608  0.8180  0.5094  0.2655
13953SOL    HW153078   2.945   2.310   5.595  0.1016  0.2099 -0.5325
13953SOL    HW253079   2.822   2.403   5.540  0.8815  1.7563  0.3084
13954SOL     OW53080   8.825   8.819   5.368 -0.4354 -0.4231 -0.2394
13954SOL    HW153081   8.917   8.804   5.404 -0.7631 -1.2794  0.2655
13954SOL    HW253082   8.828   8.817   5.268  0.1711  0.0707 -0.2347
13955SOL     OW53083   5.529   4.478   1.521 -0.1677  0.7815 -0.8280
13955SOL    HW153084   5.497   4.545   1.454 -2.1422  0.9683  0.2780
13955SOL    HW253085   5.563   4.397   1.473 -0.6624  1.3058 -2.0857
13956SOL     OW53086   9.115   9.488   1.073 -0.8063 -0.2837 -0.1618
13956SOL    HW153087   9.044   9.535   1.125 -0.1954  0.1537  0.2691
13956SOL    HW253088   9.190   9.550   1.053 -0.2090 -0.9467  0.0041
13957SOL     OW53089   0.595   0.915   2.605  0.0218  0.4127 -0.6612
13957SOL    HW153090   0.564   0.885   2.515 -2.4129 -0.7126  0.4941
13957SOL    HW253091   0.640   1.004   2.597 -1.1525  0.8565 -2.8256
13958SOL     OW53092   8.854   5.344   1.013 -0.2252  0.0098  0.1067
13958SOL    HW153093   8.915   5.422   1.021  1.1543 -0.7933 -1.9797
13958SOL    HW253094   8.867   5.283   1.091  1.4031  0.0184 -0.1493
13959SOL     OW53095   2.512   2.088   2.245 -0.1154  0.3478  0.1485
13959SOL    HW153096   2.418   2.055   2.258  0.4051 -1.0144  0.4615
13959SOL    HW253097   2.521   2.122   2.151  0.0587 -2.8791 -1.0668
13960SOL     OW53098   3.356   8.086   6.603  0.0702  0.5024 -0.0631
13960SOL    HW153099   3.392   8.076   6.511  2.5491  0.2716  0.8782
13960SOL    HW253100   3.359   8.182   6.630  0.1355  0.4569  0.0928
13961SOL     OW53101   9.062   8.773   0.927  0.3439  0.0916 -0.1797
13961SOL    HW153102   8.992   8.844   0.928  0.4498  0.1913  0.1130
13961SOL    HW253103   9.023   8.687   0.959  0.4456  0.2292  0.3071
13962SOL     OW53104   1.291   5.139   3.946 -0.0591 -0.1638 -0.4817
13962SOL    HW153105   1.277   5.061   3.886 -0.3831 -0.2981 -0.2343
13962SOL    HW253106   1.212   5.149   4.007  0.5051 -0.3646  0.2930
13963SOL     OW53107   3.300   4.462   1.426  0.4209 -0.2106 -0.1538
13963SOL    HW153108   3.380   4.474   1.367  0.3483 -0.5367 -0.3192
13963SOL    HW253109   3.274   4.550   1.465 -0.3311  0.2366 -1.6439
13964SOL     OW53110   3.093   1.632   4.003  0.6741  0.2358 -0.1403
13964SOL    HW153111   3.011   1.639   4.061  1.4533 -0.2720  1.0374
13964SOL    HW253112   3.170   1.676   4.050  0.8689  1.5212 -1.6474
13965SOL     OW53113   0.916   0.646   3.240 -0.2290  0.4432  0.5504
13965SOL    HW153114   0.899   0.550   3.216  1.4079  0.5496 -1.1443
13965SOL    HW253115   0.945   0.652   3.335 -0.9088 -0.6668  0.8439
13966SOL     OW53116   8.307   6.640   0.757 -0.3563  0.4179 -0.3521
13966SOL    HW153117   8.300   6.638   0.657 -0.5397  1.5469 -0.3638
13966SOL    HW253118   8.295   6.734   0.790 -0.8662 -0.0326  0.7728
13967SOL     OW53119   4.493   0.941   6.625  0.0049  0.3920 -0.2416
13967SOL    HW153120   4.395   0.923   6.637  0.4731 -1.4172  1.1002
13967SOL    HW253121   4.543   0.907   6.704  1.9325 -0.4723 -1.7854
13968SOL     OW53122   9.144   3.350   1.088  0.2921 -0.3600 -0.5418
13968SOL    HW153123   9.203   3.423   1.125 -0.8364  0.6664 -0.7487
13968SOL    HW253124   9.065   3.338   1.147 -0.3733 -0.2759 -1.4099
13969SOL     OW53125   7.041   3.167   1.997  0.0565 -0.1375  0.3477
13969SOL    HW153126   7.017   3.119   2.081 -0.2104  0.7842  0.7926
13969SOL    HW253127   7.010   3.262   2.002  0.2178 -0.0240 -0.7040
13970SOL     OW53128   7.951   1.256   1.993  0.1657  0.3222 -0.1167
13970SOL    HW153129   7.890   1.288   2.065  1.4264 -0.2455  1.2201
13970SOL    HW253130   7.897   1.210   1.922 -0.9211 -0.5571  1.2524
13971SOL     OW53131   8.855   0.294   1.783 -0.3699  0.0368 -0.4374
13971SOL    HW153132   8.757   0.309   1.781 -0.4020 -0.2563 -1.3217
13971SOL    HW253133   8.874   0.196   1.789 -0.1277  0.0531 -0.9117
13972SOL     OW53134   7.255   0.838   4.592  0.1091 -0.1955  0.0213
13972SOL    HW153135   7.181   0.896   4.625 -1.0096 -0.8362 -1.3381
13972SOL    HW253136   7.275   0.860   4.497 -0.2955 -1.9802 -0.4934
13973SOL     OW53137   7.488   9.863   6.459  0.4301 -0.1626  0.1475
13973SOL    HW153138   7.587   9.876   6.457  0.4211 -0.0608  0.4121
13973SOL    HW253139   7.443   9.943   6.497  0.1881  0.0954 -0.6576
13974SOL     OW53140   2.126   6.733   4.832  0.3033  0.6975  0.1180
13974SOL    HW153141   2.041   6.774   4.802  0.5982  0.2435 -1.3963
13974SOL    HW253142   2.189   6.724   4.754  1.1005 -0.4932  0.8614
13975SOL     OW53143   1.976   3.923   0.238 -0.0488 -0.4458  0.0811
13975SOL    HW153144   1.947   3.857   0.169 -0.0439 -0.4033  0.0384
13975SOL    HW253145   1.896   3.966   0.279 -0.0409 -0.1275 -0.2321
13976SOL     OW53146   5.292   8.598   3.562  0.3752  0.0099  0.3017
13976SOL    HW153147   5.268   8.593   3.659  1.8143  1.6532  0.7711
13976SOL    HW253148   5.382   8.641   3.553 -0.1069  0.5982 -1.8107
13977SOL     OW53149   0.215   9.343   5.183 -0.4171 -0.1549 -0.2389
13977SOL    HW153150   0.122   9.373   5.162  0.0903  0.4380 -1.7088
13977SOL    HW253151   0.278   9.379   5.114  0.7951 -1.1579  0.3263
13978SOL     OW53152   9.057   2.440   4.203 -0.5399 -0.5058  0.9185
13978SOL    HW153153   9.070   2.346   4.233 -0.5542 -1.2864 -1.3800
13978SOL    HW253154   8.963   2.452   4.171 -0.5109  0.2540  1.1186
13979SOL     OW53155   5.918   1.524   4.667 -0.2753  0.2916  0.4640
13979SOL    HW153156   5.849   1.459   4.700  1.4381 -1.1307  1.3403
13979SOL    HW253157   5.978   1.548   4.743  1.1529  0.2860 -0.6552
13980SOL     OW53158   5.881   1.174   6.722  0.2571 -0.2010  0.2776
13980SOL    HW153159   5.786   1.177   6.691 -0.0329 -0.0951  1.1569
13980SOL    HW253160   5.883   1.178   6.822  1.1387 -1.4368  0.3160
13981SOL     OW53161   0.535   2.925   2.323 -0.3446  0.2187 -0.0905
13981SOL    HW153162   0.498   2.889   2.237  0.7578  1.7722 -1.2592
13981SOL    HW253163   0.587   2.854   2.370  0.9926 -0.0054 -1.8755
13982SOL     OW53164   2.509   9.482   0.645 -0.0254 -0.4110  0.2262
13982SOL    HW153165   2.582   9.530   0.597 -0.5224 -1.9144 -2.1153
13982SOL    HW253166   2.421   9.500   0.600 -0.5109 -1.7894  0.6010
13983SOL     OW53167   0.226   6.396   5.618 -0.1535  0.4302 -0.7267
13983SOL    HW153168   0.267   6.311   5.585 -0.2159 -0.2084  0.7795
13983SOL    HW253169   0.153   6.424   5.557  1.9243  1.1214 -2.9961
13984SOL     OW53170   8.795   0.577   0.445 -0.4187 -0.2438 -0.3579
13984SOL    HW153171   8.745   0.663   0.450 -2.9377 -1.6135 -0.9653
13984SOL    HW253172   8.763   0.516   0.517 -0.3424 -1.5099 -1.3764
13985SOL     OW53173   7.299   1.526   3.231 -0.5266  0.1431  0.0738
13985SOL    HW153174   7.334   1.502   3.322  0.1067  0.7261 -0.0052
13985SOL    HW253175   7.338   1.465   3.163 -1.8076 -0.9547  0.3123
13986SOL     OW53176   1.850   0.152   1.434 -0.8075  0.0552 -0.6231
13986SOL    HW153177   1.797   0.179   1.354 -2.4742 -1.0085  0.0996
13986SOL    HW253178   1.805   0.185   1.517 -0.2687 -0.7477 -0.0059
13987SOL     OW53179   0.251   2.244   1.403  0.8947 -0.4397 -0.3359
13987SOL    HW153180   0.330   2.206   1.451  0.4607 -1.3130 -0.2956
13987SOL    HW253181   0.240   2.198   1.315  0.0937 -0.7409 -0.0891
13988SOL     OW53182   3.195   9.356   1.311 -0.3605  0.3983  0.4214
13988SOL    HW153183   3.145   9.340   1.396  0.1026  3.1444  1.2855
13988SOL    HW253184   3.287   9.390   1.333  0.7441 -1.5308 -1.1713
13989SOL     OW53185   9.695   9.769   1.379 -0.1363  0.0942  0.4603
13989SOL    HW153186   9.670   9.686   1.330  0.1146  0.8023 -0.8878
13989SOL    HW253187   9.617   9.832   1.381 -0.4720 -0.3264  1.8674
13990SOL     OW53188   8.530   8.471   2.102  0.1820  0.1749 -0.0978
13990SOL    HW153189   8.578   8.389   2.070  0.8548  0.5499 -0.0623
13990SOL    HW253190   8.452   8.489   2.042  0.0587 -0.4592 -0.1365
13991SOL     OW53191   7.411   2.560   6.097 -0.0964 -0.6067 -0.0990
13991SOL    HW153192   7.405   2.487   6.165 -2.1076 -0.0028  0.3899
13991SOL    HW253193   7.319   2.587   6.068  0.6432  1.1473 -0.8935
13992SOL     OW53194   9.332   1.528   0.495  0.6835 -0.2491 -0.4731
13992SOL    HW153195   9.329   1.624   0.521 -1.3459  0.1198 -2.0074
13992SOL    HW253196   9.244   1.485   0.513  1.5256 -1.8228  0.0802
13993SOL     OW53197   0.007   6.422   0.103  0.7447 -0.3125  0.0101
13993SOL    HW153198  -0.040   6.383   0.182  1.0348 -0.8627 -0.0855
13993SOL    HW253199  -0.059   6.469   0.045  0.4632 -0.2839  0.3514
13994SOL     OW53200   1.964   1.805   4.476  0.1151 -0.1602  0.5942
13994SOL    HW153201   1.883   1.863   4.489 -0.9613 -1.4344 -0.3375
13994SOL    HW253202   1.971   1.740   4.552 -1.5983 -2.2128 -0.9578
13995SOL     OW53203   0.062   6.973   2.682  0.2320  0.4019 -0.4964
13995SOL    HW153204  -0.013   6.961   2.617 -0.0046  1.2277 -0.3880
13995SOL    HW253205   0.037   7.045   2.748  0.6064 -0.1864  0.2971
13996SOL     OW53206   2.446   4.287   4.924  0.3920  0.4189  0.2202
13996SOL    HW153207   2.400   4.371   4.894  1.5532  1.2024  0.5704
13996SOL    HW253208   2.492   4.245   4.846  2.1394  1.6343  0.5565
13997SOL     OW53209   9.968   9.086   3.340 -0.2340 -0.3368 -0.5911
13997SOL    HW153210   9.947   9.169   3.392  0.7899  0.2297 -1.0795
13997SOL    HW253211   9.901   9.016   3.362 -0.7410  0.4172  0.3024
13998SOL     OW53212   1.086   7.420   1.478 -0.2851 -0.0927  0.7873
13998SOL    HW153213   1.160   7.367   1.521  0.8327  0.6542 -0.1635
13998SOL    HW253214   1.125   7.476   1.405 -1.8795  0.0053  0.0058
13999SOL     OW53215   6.234   9.968   5.333  0.0365 -0.6963  0.3850
13999SOL    HW153216   6.290   9.941   5.255  0.6075 -0.6676  0.7815
13999SOL    HW253217   6.149   9.915   5.334  0.4591 -1.3694  0.2859
14000SOL     OW53218   6.115   1.450   1.851 -0.1270  0.4161  0.4327
14000SOL    HW153219   6.127   1.536   1.901  0.0172 -0.0587  1.2277
14000SOL    HW253220   6.037   1.458   1.788  1.2320  1.8531 -1.1086
14001SOL     OW53221   6.441   2.160   3.687 -0.1441  0.2515 -0.0853
14001SOL    HW153222   6.506   2.216   3.636 -0.2642 -0.5925 -1.1754
14001SOL    HW253223   6.491   2.089   3.736 -0.3144 -1.0413 -1.7499
14002SOL     OW53224   0.982   1.068   5.838 -0.8792  0.4616 -0.3549
14002SOL    HW153225   1.071   1.107   5.862 -0.5763 -0.2241 -0.3422
14002SOL    HW253226   0.986   1.030   5.745 -0.8287 -0.5310  0.0440
14003SOL     OW53227   5.647   4.704   2.020  0.1861 -0.2457  0.0032
14003SOL    HW153228   5.608   4.768   2.086  0.6191 -0.5504  0.5592
14003SOL    HW253229   5.739   4.734   1.994  0.1930 -0.3666 -0.1142
14004SOL     OW53230   7.677   8.398   4.854  0.1655 -0.1677 -0.2517
14004SOL    HW153231   7.754   8.337   4.875  0.3015  0.4351  1.0492
14004SOL    HW253232   7.706   8.493   4.861 -1.2158  0.1089  2.4415
14005SOL     OW53233   9.256   6.013   2.535 -0.3245 -0.0760 -0.7522
14005SOL    HW153234   9.218   6.025   2.443  1.7655  2.1056 -1.3773
14005SOL    HW253235   9.306   5.927   2.540 -1.5751 -0.8443 -1.2387
14006SOL     OW53236   4.342   3.478   1.781 -0.4639  0.0046 -0.3405
14006SOL    HW153237   4.418   3.511   1.725  0.1585  0.9864  1.0393
14006SOL    HW253238   4.263   3.539   1.770  0.2692  1.2543  1.2460
14007SOL     OW53239   1.642   0.372   5.849  0.3209 -0.0666  0.3672
14007SOL    HW153240   1.704   0.447   5.871 -0.6012  0.9072 -0.2956
14007SOL    HW253241   1.635   0.362   5.750  0.2831 -0.9056  0.4506
14008SOL     OW53242   8.286   3.851   5.626 -0.3249  0.4598  0.4199
14008SOL    HW153243   8.220   3.781   5.600 -1.6822  1.8302  0.1040
14008SOL    HW253244   8.336   3.821   5.708  0.2333 -1.5369 -0.6109
14009SOL     OW53245   1.957   2.432   0.675 -0.1038 -0.3128  0.3695
14009SOL    HW153246   2.021   2.360   0.703 -0.9397 -1.3184 -0.2655
14009SOL    HW253247   1.864   2.397   0.682 -0.4875  0.5304 -0.4907
14010SOL     OW53248   7.793   2.322   3.704  0.2817  0.2498 -0.3367
14010SOL    HW153249   7.779   2.402   3.646  1.0906  0.2594 -0.5287
14010SOL    HW253250   7.734   2.328   3.785 -1.1916 -0.0027 -1.3825
14011SOL     OW53251   5.822   0.747   2.866 -0.1957 -0.3377 -0.0272
14011SOL    HW153252   5.884   0.672   2.846 -0.0830 -0.7169  1.6537
14011SOL    HW253253   5.868   0.814   2.924 -0.6065  0.5510 -0.7191
14012SOL     OW53254   1.366   8.453   4.231 -0.3604  0.3383 -0.2498
14012SOL    HW153255   1.351   8.525   4.299  0.3164  0.9533 -0.7393
14012SOL    HW253256   1.331   8.366   4.265 -0.0702  0.6575  0.8663
14013SOL     OW53257   2.452   8.136   4.501 -0.2524  0.6627 -0.4483
14013SOL    HW153258   2.515   8.164   4.573 -1.8631 -0.9634  1.6645
14013SOL    HW253259   2.482   8.048   4.464 -0.5181  0.5454 -0.3824
14014SOL     OW53260   4.377   2.369   0.268  0.0794  0.4497 -0.2221
14014SOL    HW153261   4.447   2.429   0.228 -0.1149  0.9647  0.2045
14014SOL    HW253262   4.302   2.425   0.303 -0.2714 -0.0688 -0.1496
14015SOL     OW53263   2.802   7.992   4.789 -0.0088 -0.7005  0.2070
14015SOL    HW153264   2.751   7.918   4.744 -0.8338 -0.1812  0.2772
14015SOL    HW253265   2.754   8.019   4.873  1.2798 -1.3446  1.1643
14016SOL     OW53266   3.079   2.604   2.462 -0.1361  0.8055  0.2300
14016SOL    HW153267   3.080   2.504   2.463 -0.4871  0.8011  0.3516
14016SOL    HW253268   3.126   2.637   2.380  0.5304  0.5537  0.5074
14017SOL     OW53269   9.554   2.416   6.794 -0.4556  0.0192 -0.0258
14017SOL    HW153270   9.523   2.475   6.869  2.0245 -1.1062  1.9359
14017SOL    HW253271   9.511   2.326   6.803 -0.8434  0.1512 -0.5025
14018SOL     OW53272   9.822   1.579   1.495 -0.4924  0.1662 -0.0337
14018SOL    HW153273   9.845   1.541   1.585  1.4121  0.4470 -0.3702
14018SOL    HW253274   9.829   1.507   1.426 -1.1459  0.1378 -0.0677
14019SOL     OW53275   2.856   8.776   5.337  0.0363  1.0511  0.4235
14019SOL    HW153276   2.779   8.833   5.364  0.8500  2.1039  0.5506
14019SOL    HW253277   2.937   8.833   5.325  0.9788 -0.1366  1.0155
14020SOL     OW53278   9.058   3.734   8.059  0.0885  0.2732 -0.0357
14020SOL    HW153279   9.117   3.798   8.108 -0.2619  0.2867  0.3654
14020SOL    HW253280   8.980   3.710   8.116 -0.2446  0.1764 -0.5328
14021SOL     OW53281   5.123   1.432   0.012 -0.2500 -0.7097 -0.4708
14021SOL    HW153282   5.047   1.371   0.034  1.7880 -3.2391 -0.2383
14021SOL    HW253283   5.205   1.378  -0.007  1.7917  1.9981  0.3362
14022SOL     OW53284   0.621   3.606   2.141  0.2014 -0.7146  0.1243
14022SOL    HW153285   0.557   3.626   2.214 -1.2100  1.5243 -1.6922
14022SOL    HW253286   0.571   3.581   2.058  1.7751 -2.7694 -0.2642
14023SOL     OW53287   1.617   6.576   2.047 -0.3858 -0.1638 -0.0018
14023SOL    HW153288   1.634   6.673   2.065 -1.4453 -0.0194  0.2169
14023SOL    HW253289   1.571   6.535   2.125 -2.1760 -0.2620 -1.0841
14024SOL     OW53290   1.478   7.360   3.364 -0.1639  0.1774 -0.1435
14024SOL    HW153291   1.422   7.442   3.371  0.4749  0.5976  0.1220
14024SOL    HW253292   1.456   7.298   3.439 -1.4054 -0.3747 -0.9544
14025SOL     OW53293   4.194   9.347   5.434  0.4197 -0.5133 -0.0189
14025SOL    HW153294   4.157   9.319   5.523  2.6543  0.2305  1.1658
14025SOL    HW253295   4.223   9.266   5.383  1.3008 -0.7827  0.9014
14026SOL     OW53296   2.520   4.573   3.401 -0.3606  0.1826  0.4668
14026SOL    HW153297   2.591   4.633   3.363  0.7348 -1.6886 -0.4862
14026SOL    HW253298   2.508   4.595   3.498  1.1596  0.8820  0.5254
14027SOL     OW53299   2.396   1.584   4.464 -0.2510 -0.1221  0.2060
14027SOL    HW153300   2.438   1.623   4.383 -2.0819  0.3646 -0.5430
14027SOL    HW253301   2.331   1.512   4.436  0.1581 -0.9371  1.3233
14028SOL     OW53302   4.964   8.202   4.530  0.2516 -0.0589  0.1073
14028SOL    HW153303   4.912   8.278   4.490 -1.2129 -0.3053  1.4684
14028SOL    HW253304   5.003   8.147   4.457 -0.7517  0.5921 -0.9452
14029SOL     OW53305   7.535   8.708   3.600  0.0079 -0.1594 -0.0031
14029SOL    HW153306   7.439   8.726   3.578 -0.5499 -4.2187 -1.3198
14029SOL    HW253307   7.541   8.652   3.682  1.1211 -1.6695 -1.0783
14030SOL     OW53308   7.179   1.158   1.741 -0.0538 -0.4066 -0.2764
14030SOL    HW153309   7.185   1.178   1.643  0.0464 -1.0898 -0.4139
14030SOL    HW253310   7.123   1.077   1.755 -0.1557 -0.2486  0.2425
14031SOL     OW53311   0.633   0.527   1.778  0.2421 -0.1997  0.4970
14031SOL    HW153312   0.724   0.533   1.820  0.3709  0.7400  0.0883
14031SOL    HW253313   0.612   0.431   1.758  1.2569 -0.3945  0.3457
14032SOL     OW53314   9.491   9.951   1.347  0.5714 -0.4157 -0.0260
14032SOL    HW153315   9.407   9.945   1.293  1.5366 -3.7572 -1.2938
14032SOL    HW253316   9.562   9.998   1.294  0.8274 -1.6243 -0.7676
14033SOL     OW53317   9.361   6.821   5.019  0.3096 -0.1349 -0.2894
14033SOL    HW153318   9.417   6.870   4.952 -0.2296  1.5551  0.4788
14033SOL    HW253319   9.271   6.802   4.980 -0.2096  1.3749  0.1357
14034SOL     OW53320   1.660   6.714   4.783 -0.4196 -0.5148  0.1831
14034SOL    HW153321   1.615   6.777   4.846  0.2034 -0.7948  0.9284
14034SOL    HW253322   1.592   6.651   4.744 -1.1267  0.9811 -1.0140
14035SOL     OW53323   4.318   9.445   3.827  0.3915 -0.2466  0.2798
14035SOL    HW153324   4.256   9.367   3.830 -1.0255  0.7340 -2.2428
14035SOL    HW253325   4.410   9.414   3.801  0.3925 -1.3361  1.4886
14036SOL     OW53326   9.156   7.500   6.047 -0.3463 -0.1750 -0.2540
14036SOL    HW153327   9.064   7.485   6.010  0.0501  0.3706 -1.4679
14036SOL    HW253328   9.224   7.471   5.981  0.3743  1.2491 -0.1459
14037SOL     OW53329   6.325   2.416   3.314 -0.3748 -0.1703 -0.6012
14037SOL    HW153330   6.341   2.428   3.216 -2.3757  0.3528 -0.8827
14037SOL    HW253331   6.342   2.502   3.362 -1.3433  0.1011 -0.7526
14038SOL     OW53332   3.401   5.736   0.807  0.4933  0.1289  0.3637
14038SOL    HW153333   3.474   5.691   0.755 -0.0111 -0.0692 -0.1719
14038SOL    HW253334   3.315   5.729   0.758 -0.0777 -0.4008  1.4144
14039SOL     OW53335   2.837   2.765   1.141  0.6168  0.0674 -0.4734
14039SOL    HW153336   2.892   2.685   1.114 -1.6438 -1.5792 -0.3722
14039SOL    HW253337   2.740   2.740   1.139 -0.2818  3.4397 -2.4842
14040SOL     OW53338   8.041   2.173   2.937  0.1417 -1.0532  0.4248
14040SOL    HW153339   8.123   2.181   2.993  0.9189 -2.5368 -0.4626
14040SOL    HW253340   8.064   2.190   2.841 -0.5530 -1.6112  0.1540
14041SOL     OW53341   6.411   6.128   0.128  0.0658 -0.1953  0.1809
14041SOL    HW153342   6.315   6.117   0.105  0.2073  0.4477 -0.7063
14041SOL    HW253343   6.461   6.046   0.100 -0.2735 -0.6769  0.9591
14042SOL     OW53344   6.352   1.675   4.178 -0.4538  0.3765 -0.2354
14042SOL    HW153345   6.358   1.580   4.210  0.9657  0.4238 -0.3578
14042SOL    HW253346   6.256   1.705   4.182 -0.9770 -1.1944 -0.5877
14043SOL     OW53347   3.402   6.326   2.669 -0.4167 -0.1312 -0.0408
14043SOL    HW153348   3.442   6.368   2.751 -0.1595 -0.8824  0.2267
14043SOL    HW253349   3.303   6.322   2.679 -0.4737  0.7715 -0.2401
14044SOL     OW53350   0.783   7.477   1.311 -0.2111  0.7788 -0.6180
14044SOL    HW153351   0.725   7.464   1.391 -0.9343  0.9475 -1.1143
14044SOL    HW253352   0.795   7.575   1.294 -0.0042  0.7426 -0.6823
14045SOL     OW53353   9.543   5.215   3.525  0.3122 -0.9316  0.2652
14045SOL    HW153354   9.599   5.268   3.587  0.7025 -1.8732  0.7335
14045SOL    HW253355   9.508   5.273   3.452 -1.4821  0.5602  2.2486
14046SOL     OW53356   4.424   5.416   0.325 -0.6001 -0.0910 -0.6039
14046SOL    HW153357   4.500   5.438   0.387 -1.4498  1.0693  0.0387
14046SOL    HW253358   4.424   5.318   0.307  1.0191 -0.1241 -0.5604
14047SOL     OW53359   2.911   5.121   1.042  0.6111  0.2383  0.1715
14047SOL    HW153360   2.843   5.100   1.112  2.1201 -2.1959  0.9792
14047SOL    HW253361   2.871   5.105   0.951 -0.3744  0.3514  0.5761
14048SOL     OW53362   6.338   9.934   3.011  0.4221  0.0319 -0.3240
14048SOL    HW153363   6.337   9.845   3.057  0.2754 -0.0334 -0.4525
14048SOL    HW253364   6.424   9.944   2.960  0.2218 -0.2496 -0.7231
14049SOL     OW53365   2.081   0.936   1.317  0.3574 -0.4550  0.2271
14049SOL    HW153366   2.115   0.853   1.360 -1.4215 -1.3672 -0.0655
14049SOL    HW253367   2.075   1.009   1.386  1.7579 -0.6028  0.5169
14050SOL     OW53368   9.144   9.030   2.248 -0.4237 -0.3105  0.5846
14050SOL    HW153369   9.221   9.093   2.253  0.1367 -1.0786  1.7622
14050SOL    HW253370   9.163   8.949   2.304 -2.0414 -0.5296  0.8490
14051SOL     OW53371   0.840   1.341   3.502  0.2182  0.3738 -0.1344
14051SOL    HW153372   0.750   1.336   3.460 -0.8879  1.1523  2.0372
14051SOL    HW253373   0.857   1.435   3.534  1.9034  0.2956 -0.7514
14052SOL     OW53374   0.912   7.356   0.301  0.7029 -0.4468 -0.0290
14052SOL    HW153375   0.971   7.423   0.257  0.5979 -0.6753 -0.5229
14052SOL    HW253376   0.961   7.269   0.308  0.3756 -0.6763 -0.5683
14053SOL     OW53377   4.410   5.885   0.393  0.2375 -0.2679 -0.2136
14053SOL    HW153378   4.394   5.908   0.297 -2.4751  1.8446  0.6978
14053SOL    HW253379   4.325   5.857   0.436  1.0964  0.4005  2.0062
14054SOL     OW53380   2.717   0.627   2.587  0.0562 -0.4844  0.4478
14054SOL    HW153381   2.816   0.635   2.595  0.2748 -0.5702 -1.9070
14054SOL    HW253382   2.688   0.659   2.497 -1.7155 -3.3162 -0.0271
14055SOL     OW53383   9.072   5.457   1.295 -0.1793  0.2878  0.0345
14055SOL    HW153384   9.073   5.489   1.200 -1.1098 -1.1615 -0.4736
14055SOL    HW253385   8.979   5.463   1.331 -0.0486 -0.2661  0.4655
14056SOL     OW53386   4.629   0.789   6.801  0.3994  0.8277 -0.1035
14056SOL    HW153387   4.637   0.712   6.865  0.0060  2.2422  1.6797
14056SOL    HW253388   4.718   0.805   6.758  1.1652  1.0511  1.5080
14057SOL     OW53389   0.536   5.652   3.164  0.5785  0.2588  0.0479
14057SOL    HW153390   0.624   5.665   3.119  1.2744  0.1198  1.3510
14057SOL    HW253391   0.512   5.735   3.215  0.7679 -0.3155  1.0758
14058SOL     OW53392   2.554   8.469   0.364 -0.6484  0.0053  0.6108
14058SOL    HW153393   2.463   8.469   0.407 -0.5415  0.4132  0.8375
14058SOL    HW253394   2.594   8.378   0.373 -0.7848 -0.0159  1.0500
14059SOL     OW53395   6.144   0.656   4.321  0.3085  0.6114 -0.2967
14059SOL    HW153396   6.241   0.637   4.303  0.0521 -0.8316 -0.2116
14059SOL    HW253397   6.097   0.674   4.235  0.2145 -0.8088 -0.5447
14060SOL     OW53398   0.343   2.497   5.368  0.0787  0.3339  0.3367
14060SOL    HW153399   0.385   2.409   5.347  0.7542  0.4140  1.3243
14060SOL    HW253400   0.306   2.538   5.284 -0.7976 -1.1743 -0.0164
14061SOL     OW53401   3.560   5.092   1.889 -0.3773  0.1711  0.0077
14061SOL    HW153402   3.589   4.999   1.914  0.0557  0.2822 -0.0702
14061SOL    HW253403   3.461   5.095   1.879 -0.3117 -0.5362 -0.9738
14062SOL     OW53404   1.171   1.213   4.446  0.1385 -0.2647  0.1368
14062SOL    HW153405   1.078   1.251   4.452  0.2272  0.4492 -2.5896
14062SOL    HW253406   1.166   1.114   4.441 -0.3041 -0.4301  3.0341
14063SOL     OW53407   5.302   8.905   3.721  0.2488 -0.0121 -0.5029
14063SOL    HW153408   5.257   8.855   3.796 -0.1303 -0.0268 -0.7416
14063SOL    HW253409   5.242   8.906   3.641  0.0535  1.2381 -0.3452
14064SOL     OW53410   1.264   6.793   1.988  0.0834 -0.0009 -0.2081
14064SOL    HW153411   1.351   6.780   2.036 -0.0230  2.0054  0.5993
14064SOL    HW253412   1.198   6.835   2.050  0.3056  3.7331 -2.3599
14065SOL     OW53413   3.789   4.849   5.181  0.8362  0.1864 -0.6797
14065SOL    HW153414   3.720   4.814   5.244 -0.0788 -0.0640 -1.8000
14065SOL    HW253415   3.872   4.794   5.187  0.2967 -0.6167 -0.6357
14066SOL     OW53416   9.986   6.059   4.874  0.0638  0.3344 -0.1242
14066SOL    HW153417  10.018   6.053   4.969 -1.5938  4.1209  0.7605
14066SOL    HW253418  10.042   6.125   4.824  1.4631 -2.2564 -2.1051
14067SOL     OW53419   4.584   0.535   3.080  0.2254  0.2240 -0.2285
14067SOL    HW153420   4.602   0.466   3.150  0.2391  1.1118  0.6621
14067SOL    HW253421   4.624   0.622   3.109  0.3151  0.5760 -1.3958
14068SOL     OW53422   4.375   4.791   7.708  0.6117 -0.1554  0.8511
14068SOL    HW153423   4.470   4.820   7.700  0.8792 -1.2755 -0.1813
14068SOL    HW253424   4.346   4.748   7.623 -0.3035 -1.2662  1.7041
14069SOL     OW53425   3.287   0.634   2.645 -0.2426 -0.2596 -0.5208
14069SOL    HW153426   3.233   0.638   2.561 -1.3530  0.5458  0.2131
14069SOL    HW253427   3.256   0.557   2.701  1.3710 -1.5984 -1.4055
14070SOL     OW53428   7.922   6.764   6.068  0.3427 -0.2660  0.1277
14070SOL    HW153429   7.861   6.812   6.005  0.0873  1.2993  1.5412
14070SOL    HW253430   8.004   6.734   6.018 -1.0492 -1.3843 -1.5120
14071SOL     OW53431   1.836   4.607   5.058  0.8120 -0.4894 -0.2264
14071SOL    HW153432   1.742   4.616   5.091  0.0438 -1.5144 -2.0546
14071SOL    HW253433   1.889   4.687   5.085 -0.5472  0.0349  0.9388
14072SOL     OW53434   0.584   8.788   0.326 -0.4274 -0.2950 -0.0548
14072SOL    HW153435   0.657   8.721   0.341  0.8045  1.0003 -0.1400
14072SOL    HW253436   0.536   8.804   0.412 -0.1957 -0.6749  0.1501
14073SOL     OW53437   3.532   8.501   4.349  0.1691 -0.5464  0.0133
14073SOL    HW153438   3.465   8.523   4.419 -0.3996 -1.2714 -0.2894
14073SOL    HW253439   3.510   8.412   4.308  0.3436 -0.0288 -1.2570
14074SOL     OW53440   7.443   5.666   0.812  0.2152  0.2159  0.2578
14074SOL    HW153441   7.425   5.673   0.910  1.4379  3.1415  0.3446
14074SOL    HW253442   7.525   5.612   0.796 -0.9476 -1.7117  0.7192
14075SOL     OW53443   6.972   7.146   3.792  0.0958  0.1986 -0.5212
14075SOL    HW153444   7.058   7.153   3.844 -0.6522  2.5498  0.4753
14075SOL    HW253445   6.970   7.059   3.743  2.1290 -0.8033  1.0800
14076SOL     OW53446   9.561   4.775   4.187 -0.4623 -0.1679 -0.1510
14076SOL    HW153447   9.629   4.808   4.122 -0.2717  0.3170  0.2951
14076SOL    HW253448   9.473   4.818   4.166 -0.0126  1.3376  0.9937
14077SOL     OW53449   1.977   5.431   5.739  0.2878 -0.1495  0.7619
14077SOL    HW153450   1.956   5.517   5.786  1.1401  1.0130 -0.8882
14077SOL    HW253451   1.959   5.442   5.641  3.3594 -0.8188  0.0727
14078SOL     OW53452   1.933   1.905   1.770 -0.0553 -0.5457 -0.2234
14078SOL    HW153453   1.968   1.913   1.677  0.1961 -0.8328 -0.1527
14078SOL    HW253454   1.922   1.996   1.809 -2.0139 -0.3310 -1.2238
14079SOL     OW53455   2.718   1.795   5.128 -0.0872  0.2343 -0.1289
14079SOL    HW153456   2.620   1.774   5.126 -0.8758  3.2415  2.0689
14079SOL    HW253457   2.744   1.823   5.221  2.8362 -0.4097 -0.7119
14080SOL     OW53458   4.062   3.109   3.194  0.2180  0.3683 -0.6901
14080SOL    HW153459   4.058   3.209   3.201 -2.7485  0.1544  1.9135
14080SOL    HW253460   4.051   3.082   3.098  1.4933  2.5152 -1.4823
14081SOL     OW53461   7.536   8.927   2.361  0.4146 -0.2921 -0.4931
14081SOL    HW153462   7.498   8.840   2.393 -3.1449  0.9316 -1.0831
14081SOL    HW253463   7.565   8.918   2.266 -1.9560 -0.3288 -1.2508
14082SOL     OW53464   3.422   0.167   4.697  0.2821  0.4773  0.4355
14082SOL    HW153465   3.479   0.121   4.765 -0.1029 -2.5664 -1.2002
14082SOL    HW253466   3.334   0.120   4.690 -0.5177  2.0842 -0.5928
14083SOL     OW53467   3.574   8.384   0.237 -0.4875  0.4142  0.1055
14083SOL    HW153468   3.592   8.396   0.139 -2.5681 -1.5059 -0.5587
14083SOL    HW253469   3.476   8.388   0.254 -0.5077 -3.6078  1.4480
14084SOL     OW53470   9.409   7.902   0.451  0.1469  0.1388 -0.4139
14084SOL    HW153471   9.344   7.925   0.524  1.6931  1.3779  0.6049
14084SOL    HW253472   9.495   7.950   0.467  1.7183 -2.3263 -1.1240
14085SOL     OW53473   4.822   5.151   8.166  0.3802  0.1891  0.0978
14085SOL    HW153474   4.806   5.239   8.121  1.5512  0.0795 -0.5507
14085SOL    HW253475   4.757   5.084   8.132 -0.1391  0.6596  0.1578
14086SOL     OW53476   2.620   9.344   4.371  0.0784  0.4617 -0.4463
14086SOL    HW153477   2.638   9.417   4.436  1.6229  0.0828 -0.4519
14086SOL    HW253478   2.641   9.376   4.279  0.9155 -0.0551 -0.4300
14087SOL     OW53479   4.299   6.777   0.870 -0.0293  0.4800 -0.2537
14087SOL    HW153480   4.246   6.714   0.814  0.1336  0.5345 -0.4719
14087SOL    HW253481   4.392   6.742   0.881  0.4254  1.2828 -1.4127
14088SOL     OW53482   4.274   6.221   2.184  0.1393  0.3701 -0.3139
14088SOL    HW153483   4.192   6.220   2.241  1.4583 -0.1614  1.5965
14088SOL    HW253484   4.258   6.280   2.105 -3.6479 -3.0457 -2.3485
14089SOL     OW53485   8.500   0.665   6.347 -0.1922 -0.3210  0.2602
14089SOL    HW153486   8.423   0.714   6.388  0.5330  0.9889  0.0836
14089SOL    HW253487   8.547   0.725   6.283 -0.4612 -1.8731 -1.4645
14090SOL     OW53488   1.241   5.057   2.328 -0.0507 -0.2736  0.1231
14090SOL    HW153489   1.327   5.026   2.368  0.6247 -0.4992 -1.4758
14090SOL    HW253490   1.239   5.156   2.324  0.8785 -0.3071 -1.4183
14091SOL     OW53491   9.158   9.286   4.243 -0.3490 -0.0592 -0.9537
14091SOL    HW153492   9.119   9.212   4.299  0.3916 -1.0600 -1.7509
14091SOL    HW253493   9.190   9.249   4.156 -1.1006  1.4305 -1.8703
14092SOL     OW53494   1.499   0.021   2.857 -0.1700 -0.0444  0.0479
14092SOL    HW153495   1.472  -0.008   2.949  0.3751 -0.6885  0.0083
14092SOL    HW253496   1.418   0.047   2.805 -0.6981 -1.6522  0.0352
14093SOL     OW53497   4.308   8.044   4.834 -0.0959 -0.2507  0.4976
14093SOL    HW153498   4.342   8.040   4.928  2.2836 -0.5130 -0.3474
14093SOL    HW253499   4.297   8.140   4.807 -3.0180 -0.1483  1.7606
14094SOL     OW53500   0.207   1.477   2.514 -0.0719  0.0858  0.4129
14094SOL    HW153501   0.137   1.445   2.451  0.8478 -0.2396 -0.4484
14094SOL    HW253502   0.259   1.551   2.472 -1.4536  1.9914  1.9723
14095SOL     OW53503   9.698   3.289   0.636 -0.1198 -0.3113  1.1758
14095SOL    HW153504   9.690   3.344   0.719  0.7846  0.6684  0.6360
14095SOL    HW253505   9.636   3.326   0.566  2.0086  1.3846  0.1139
14096SOL     OW53506   9.891   5.867   5.811 -0.2866 -0.3551 -0.0490
14096SOL    HW153507   9.812   5.926   5.831 -1.3546 -1.4781 -0.8304
14096SOL    HW253508   9.964   5.884   5.877 -1.2843  0.5380  0.8345
14097SOL     OW53509   4.911   8.454   5.463  0.2408  0.0752  0.0561
14097SOL    HW153510   4.980   8.525   5.449 -0.2847  0.2423 -1.8281
14097SOL    HW253511   4.887   8.414   5.375 -1.7774 -0.2520  0.7343
14098SOL     OW53512   3.520   3.683   5.765  0.2841 -0.3724 -0.4978
14098SOL    HW153513   3.601   3.662   5.820 -0.4881 -0.9083  0.4437
14098SOL    HW253514   3.548   3.700   5.670  1.7730  1.8328  0.2926
14099SOL     OW53515   8.837   0.534   6.358 -0.2677 -0.6163 -0.4759
14099SOL    HW153516   8.840   0.623   6.403 -0.0715 -0.4890 -0.7392
14099SOL    HW253517   8.917   0.480   6.386  0.9953  0.2539 -2.2949
14100SOL     OW53518   2.582   5.040   2.938 -0.5338  0.1684  0.6517
14100SOL    HW153519   2.591   5.033   3.037 -0.4415 -2.8863  0.4762
14100SOL    HW253520   2.486   5.031   2.912 -0.4001 -0.5137  0.3781
14101SOL     OW53521   8.499   8.276   0.828  0.2127 -0.2980 -0.4357
14101SOL    HW153522   8.477   8.373   0.818  0.1637 -0.3942 -1.3340
14101SOL    HW253523   8.482   8.247   0.922 -1.3433  0.1781 -0.5641
14102SOL     OW53524   6.379   4.805   7.374  0.0635  0.4354  0.2160
14102SOL    HW153525   6.353   4.730   7.435  0.4120  0.6889  0.6820
14102SOL    HW253526   6.475   4.795   7.348 -0.0191  0.4597 -0.1047
14103SOL     OW53527   9.894   7.365   4.418 -0.4906 -0.5602  0.1001
14103SOL    HW153528   9.880   7.459   4.449 -1.1514 -0.1911 -1.2694
14103SOL    HW253529   9.990   7.351   4.396 -0.2412 -0.4572  1.1022
14104SOL     OW53530   7.342   8.997   2.763 -0.1861 -0.2357  0.6819
14104SOL    HW153531   7.272   8.947   2.712  0.5992 -1.1063  0.4592
14104SOL    HW253532   7.424   9.008   2.706 -0.2242  1.0169  0.8430
14105SOL     OW53533   3.435   2.963   3.055 -0.6758 -0.0860 -0.0614
14105SOL    HW153534   3.477   2.873   3.062 -0.2381  0.1119 -0.1267
14105SOL    HW253535   3.431   2.991   2.959 -0.3016  0.1989  0.0013
14106SOL     OW53536   5.887   9.298   3.922  0.3182 -0.1012  0.1045
14106SOL    HW153537   5.851   9.219   3.971  0.8169 -0.7491 -0.5589
14106SOL    HW253538   5.877   9.284   3.823 -3.2273  2.3727 -0.0030
14107SOL     OW53539   5.554   1.289   5.946  0.7773  0.0057  0.2502
14107SOL    HW153540   5.484   1.286   6.017  0.9398 -0.7123  0.3876
14107SOL    HW253541   5.572   1.384   5.919 -1.4431  0.1136 -0.9529
14108SOL     OW53542   3.939   5.642   1.731 -0.4697  0.7769  0.3921
14108SOL    HW153543   3.988   5.625   1.645 -2.4102 -0.2992 -0.5279
14108SOL    HW253544   3.998   5.619   1.808  0.9348  0.7791 -0.6556
14109SOL     OW53545   0.205   2.134   1.916  0.1443  0.2613  0.2023
14109SOL    HW153546   0.248   2.140   2.006 -0.5399 -0.9041  0.6276
14109SOL    HW253547   0.113   2.095   1.926  0.1527 -0.0930 -1.0147
14110SOL     OW53548   7.728   2.867   3.185 -0.6296  0.5510  0.0454
14110SOL    HW153549   7.689   2.822   3.265 -1.4025  0.2282 -0.5056
14110SOL    HW253550   7.688   2.828   3.102  3.3085 -2.2321 -0.7145
14111SOL     OW53551   6.571   0.825   5.821  0.0226  0.2143  0.4705
14111SOL    HW153552   6.499   0.777   5.771  0.2765 -0.8154  1.1007
14111SOL    HW253553   6.617   0.889   5.758 -0.4103 -0.2441 -0.3204
14112SOL     OW53554   6.360   1.199   8.102  0.0425  0.2965  0.1118
14112SOL    HW153555   6.280   1.234   8.150  0.2417 -1.6580  1.9395
14112SOL    HW253556   6.423   1.274   8.083 -1.3013  1.5307  0.4369
14113SOL     OW53557   2.087   8.421   2.041 -0.1411 -0.6797 -0.0403
14113SOL    HW153558   2.025   8.354   2.001 -1.9997  0.0901  1.5023
14113SOL    HW253559   2.047   8.458   2.125  2.0941  0.3370  0.6148
14114SOL     OW53560   3.372   7.044   3.971  0.2962 -0.1133  0.3498
14114SOL    HW153561   3.382   6.947   3.950  1.3541 -0.1445  0.9304
14114SOL    HW253562   3.343   7.055   4.066  0.2662  0.1315  0.3132
14115SOL     OW53563   1.767   0.201   1.987  0.5727  0.2212 -0.2598
14115SOL    HW153564   1.860   0.186   2.021 -0.0436 -0.6996  1.0405
14115SOL    HW253565   1.730   0.284   2.028  1.7308  2.0284 -2.7441
14116SOL     OW53566   6.745   0.306   5.457 -0.1762  0.2347 -0.0105
14116SOL    HW153567   6.725   0.399   5.487  0.4211  0.3772 -0.0475
14116SOL    HW253568   6.836   0.303   5.417 -0.7734 -0.0660 -1.3618
14117SOL     OW53569   9.857   5.802   4.984  0.8664 -1.2203  0.0847
14117SOL    HW153570   9.866   5.808   4.884 -3.5473 -1.6803 -0.4210
14117SOL    HW253571   9.881   5.890   5.024  1.2326 -0.5766 -1.4831
14118SOL     OW53572   2.503   1.293   4.151 -0.1036  0.3307 -0.1085
14118SOL    HW153573   2.440   1.216   4.142  0.2392  0.1807 -1.2561
14118SOL    HW253574   2.453   1.378   4.140 -0.1638  0.2214 -0.6822
14119SOL     OW53575   4.223   5.129   8.112  0.0858  0.2774 -0.5479
14119SOL    HW153576   4.145   5.127   8.050  0.3896 -0.8286 -0.9052
14119SOL    HW253577   4.305   5.101   8.064  0.4240 -0.0868  0.2273
14120SOL     OW53578   0.540   0.627   4.403 -0.4766  0.0244  0.1417
14120SOL    HW153579   0.497   0.554   4.456  0.5345 -1.3080 -0.8067
14120SOL    HW253580   0.613   0.588   4.347  0.1625  1.8022 -0.3018
14121SOL     OW53581   8.660   9.793   1.967  0.3244 -0.0608 -0.2103
14121SOL    HW153582   8.698   9.872   2.015  1.7308 -0.0411 -1.3309
14121SOL    HW253583   8.673   9.711   2.022  1.2938  0.0735 -0.2290
14122SOL     OW53584   2.734   3.782   1.801 -0.3855  0.3195 -0.4802
14122SOL    HW153585   2.706   3.720   1.728  0.2999 -0.8784  0.2411
14122SOL    HW253586   2.781   3.861   1.763  0.0361 -0.3352 -1.3265
14123SOL     OW53587   7.036   8.104   3.711 -0.0140 -0.1414  0.2009
14123SOL    HW153588   6.955   8.132   3.762 -0.2742  0.3986 -0.5021
14123SOL    HW253589   7.094   8.183   3.693 -0.0643 -0.2766 -0.5810
14124SOL     OW53590   0.074   9.355   4.581  0.3446  0.3724  0.5738
14124SOL    HW153591  -0.012   9.307   4.598  0.5348  0.5501  2.0764
14124SOL    HW253592   0.069   9.447   4.619  0.2453  1.3244 -1.6478
14125SOL     OW53593   2.413   5.104   2.293  0.1415  0.2323  0.1093
14125SOL    HW153594   2.408   5.061   2.203 -1.8894  1.5067 -0.4221
14125SOL    HW253595   2.423   5.034   2.363 -0.4391 -0.9199 -0.9336
14126SOL     OW53596   1.313   2.965   4.770  0.0250  0.1058 -0.1196
14126SOL    HW153597   1.337   3.013   4.685 -0.0804 -0.3383 -0.4051
14126SOL    HW253598   1.350   3.015   4.848 -0.8735  1.1392 -0.3527
14127SOL     OW53599   3.332   3.782   0.798  0.2785  0.4290 -0.1184
14127SOL    HW153600   3.264   3.855   0.810 -0.8588 -0.7611  0.8556
14127SOL    HW253601   3.421   3.822   0.780 -0.4381  2.0556 -0.1332
14128SOL     OW53602   4.844   3.044   3.581 -0.3722 -0.3842 -0.5418
14128SOL    HW153603   4.929   3.075   3.624 -0.7326  0.8494 -0.7264
14128SOL    HW253604   4.766   3.078   3.632 -0.7699 -1.7257 -0.2345
14129SOL     OW53605   4.060   8.615   6.043  0.1341  0.1769 -0.2907
14129SOL    HW153606   4.104   8.599   6.131  0.4125 -1.7216 -0.7538
14129SOL    HW253607   3.984   8.550   6.031 -0.7876  1.3393 -0.8501
14130SOL     OW53608   9.813   1.870   6.362  0.0414 -0.2838  0.6063
14130SOL    HW153609   9.725   1.901   6.398  0.7974  0.2843  2.0197
14130SOL    HW253610   9.801   1.782   6.316 -1.4306  0.2430 -0.0385
14131SOL     OW53611   9.081   8.941   4.796  0.3845  0.0166 -0.5488
14131SOL    HW153612   9.025   8.878   4.742 -1.5889 -0.3015  1.7781
14131SOL    HW253613   9.135   8.889   4.862  1.7921  0.5057 -1.2795
14132SOL     OW53614   9.879   4.627   5.453 -0.5748  0.2396 -0.0980
14132SOL    HW153615   9.876   4.601   5.357 -0.3454 -0.2451  0.0234
14132SOL    HW253616   9.788   4.618   5.493 -0.5573 -0.0883 -0.1315
14133SOL     OW53617   0.116   1.103   0.769  0.1948  0.0589 -0.2034
14133SOL    HW153618   0.139   1.089   0.865  2.2013 -0.7390 -0.7735
14133SOL    HW253619   0.081   1.195   0.756 -1.7134 -0.3992  1.5793
14134SOL     OW53620   1.172   7.617   3.507  0.0690  0.3294  0.4198
14134SOL    HW153621   1.114   7.691   3.472 -1.5651 -1.1432 -0.0018
14134SOL    HW253622   1.174   7.621   3.607 -1.0226  0.1732  0.4445
14135SOL     OW53623   8.398   7.273   1.717 -0.6213 -0.6596  0.3513
14135SOL    HW153624   8.444   7.329   1.647  0.1903 -2.8504 -0.9106
14135SOL    HW253625   8.441   7.288   1.806  1.5326 -1.4765 -0.5188
14136SOL     OW53626   0.227   6.985   0.583  0.6108  0.0900  0.3306
14136SOL    HW153627   0.170   6.918   0.537 -0.2257  0.5404  0.7074
14136SOL    HW253628   0.209   7.076   0.546  1.1281  0.2285  0.4065
14137SOL     OW53629   0.967   4.523   0.707  0.0604  0.0840 -0.4293
14137SOL    HW153630   0.997   4.434   0.674 -0.5912  0.5467 -2.3020
14137SOL    HW253631   1.046   4.581   0.724  0.3480  0.8576 -4.1029
14138SOL     OW53632   2.782   1.112   2.530  0.1947  0.1015 -0.3782
14138SOL    HW153633   2.870   1.147   2.498  0.4409 -0.1783 -0.0203
14138SOL    HW253634   2.771   1.137   2.627  1.0308 -2.0561  0.2907
14139SOL     OW53635   3.074   4.342   2.850 -0.5294  0.1487 -0.7025
14139SOL    HW153636   3.059   4.345   2.751 -0.6978  1.0880 -0.6587
14139SOL    HW253637   3.136   4.267   2.873 -1.3790 -0.7755 -1.4045
14140SOL     OW53638   0.136   7.305   4.372 -0.0684  0.7613 -0.0274
14140SOL    HW153639   0.141   7.212   4.336  0.3969  2.0919 -3.6670
14140SOL    HW253640   0.220   7.327   4.420  1.0162  0.2344 -1.6465
14141SOL     OW53641   0.058   3.099   5.784  0.0591 -0.4146  0.3117
14141SOL    HW153642   0.052   3.000   5.776 -0.2996 -0.5258  1.7940
14141SOL    HW253643   0.150   3.125   5.812 -0.2737 -0.4583  1.4881
14142SOL     OW53644   4.368   6.618   0.594 -0.0688 -0.1973  0.5285
14142SOL    HW153645   4.465   6.598   0.609 -0.3933 -1.1409  1.3551
14142SOL    HW253646   4.358   6.714   0.566  1.1384 -0.2166  0.0159
14143SOL     OW53647   0.229   4.613   3.030  0.8113 -0.2026  0.4192
14143SOL    HW153648   0.182   4.529   3.004 -0.8655  0.4438  1.2828
14143SOL    HW253649   0.245   4.614   3.129 -0.5718  1.1536  0.6498
14144SOL     OW53650   9.369   4.814   2.714  0.1104  0.2043  0.2419
14144SOL    HW153651   9.282   4.764   2.717  0.7254 -1.1578 -3.1746
14144SOL    HW253652   9.444   4.751   2.734  0.5596  0.7293  0.2165
14145SOL     OW53653   8.958   9.311   4.682  0.5838 -0.1548  0.4907
14145SOL    HW153654   8.971   9.374   4.759  0.9273 -0.7676  0.9350
14145SOL    HW253655   9.040   9.256   4.669 -0.0569 -1.1713  0.7007
14146SOL     OW53656   9.046   4.447   2.052  0.4586 -0.3926 -0.1561
14146SOL    HW153657   8.980   4.405   1.990  0.5591  0.2952 -0.7274
14146SOL    HW253658   9.013   4.437   2.146 -1.0984  1.0776 -0.5307
14147SOL     OW53659   1.444   8.566   1.481  0.2413  0.9324 -0.2468
14147SOL    HW153660   1.431   8.502   1.556 -0.9510 -0.4788 -1.6438
14147SOL    HW253661   1.440   8.660   1.517  1.9359  0.2748  1.7887
14148SOL     OW53662   6.810   3.487   1.732  0.3950  0.1957 -0.1626
14148SOL    HW153663   6.855   3.398   1.725  0.7570  0.2437  1.3015
14148SOL    HW253664   6.855   3.552   1.671 -0.0738 -0.6905 -1.4819
14149SOL     OW53665   8.781   3.975   1.325  0.0552 -0.4651 -0.1357
14149SOL    HW153666   8.726   3.911   1.379  1.5556 -0.8715  0.9639
14149SOL    HW253667   8.810   3.930   1.241 -0.6290 -0.5176 -0.3471
14150SOL     OW53668   4.704   5.688   2.053 -0.8152  0.2422 -0.2799
14150SOL    HW153669   4.788   5.656   2.008 -1.6595 -0.4304 -1.3938
14150SOL    HW253670   4.726   5.766   2.112  0.8097 -0.7325  0.4253
14151SOL     OW53671   4.039   7.022   1.730  0.9561  0.2328  0.2625
14151SOL    HW153672   4.071   6.937   1.689  0.0197 -0.6664  1.3719
14151SOL    HW253673   3.992   7.077   1.661 -1.3970 -1.6608  0.3011
14152SOL     OW53674   4.268   4.650   5.031 -0.1514  0.2851 -0.5381
14152SOL    HW153675   4.259   4.588   4.953 -0.7155 -0.7509  0.3402
14152SOL    HW253676   4.324   4.728   5.005  0.8014 -0.7309 -1.5817
14153SOL     OW53677   1.556   1.572   0.460  0.0623 -0.0460 -0.1219
14153SOL    HW153678   1.648   1.611   0.474 -0.1372  0.1915  0.5525
14153SOL    HW253679   1.516   1.610   0.376 -0.2375  1.4239  0.6612
14154SOL     OW53680   7.121   1.541   4.539  0.0169  0.2282 -0.0058
14154SOL    HW153681   7.205   1.595   4.531 -0.4187  0.5545 -2.8898
14154SOL    HW253682   7.048   1.599   4.574  0.2274  0.8196 -0.5274
14155SOL     OW53683   2.895   3.937   3.368 -0.1670  0.1576  0.1188
14155SOL    HW153684   2.830   3.939   3.292 -0.3484  0.9135  0.2921
14155SOL    HW253685   2.982   3.898   3.337 -0.2903  0.3161 -0.4332
14156SOL     OW53686   3.978   0.095   3.875  0.5593  0.0610  0.3305
14156SOL    HW153687   4.036   0.036   3.818  1.8671  0.2196  1.4898
14156SOL    HW253688   3.911   0.142   3.817  0.2893 -1.6294 -0.7679
14157SOL     OW53689   0.437   2.355   1.198  0.3466  0.4759 -0.0144
14157SOL    HW153690   0.376   2.422   1.242 -1.2082 -0.9763  0.0785
14157SOL    HW253691   0.443   2.273   1.254  0.9698 -0.1010 -0.9120
14158SOL     OW53692   0.110   1.622   5.298  0.0795 -0.1806  0.1210
14158SOL    HW153693   0.121   1.543   5.237 -0.1483 -1.9268  2.2743
14158SOL    HW253694   0.029   1.674   5.270 -0.1312 -1.0585 -0.9445
14159SOL     OW53695   5.151   8.186   2.136  0.3679  0.5369  0.2186
14159SOL    HW153696   5.207   8.228   2.207  0.7496 -0.3527  0.4441
14159SOL    HW253697   5.061   8.163   2.173  0.4399  0.4099  0.3140
14160SOL     OW53698   7.136   2.988   3.446 -0.1247  0.1611  0.5732
14160SOL    HW153699   7.110   2.893   3.460  2.0394 -0.8319 -1.8062
14160SOL    HW253700   7.119   3.040   3.530  1.3586 -2.9612  2.8962
14161SOL     OW53701   1.392   6.066   3.850  0.1091 -0.3258 -0.6936
14161SOL    HW153702   1.490   6.065   3.830  0.6037  2.7752  1.3071
14161SOL    HW253703   1.376   6.027   3.941 -0.4330  0.0723 -0.6158
14162SOL     OW53704   3.038   0.682   5.555 -0.5790 -0.2295 -0.1855
14162SOL    HW153705   3.055   0.681   5.654 -0.3712  0.1199 -0.2167
14162SOL    HW253706   3.101   0.747   5.511 -0.1015 -1.0019 -0.6547
14163SOL     OW53707   6.509   9.900   3.526 -0.3373 -0.3361  0.1789
14163SOL    HW153708   6.544   9.826   3.583 -0.4775 -0.4259  0.1476
14163SOL    HW253709   6.514   9.986   3.576  0.7548 -0.2027 -0.1437
14164SOL     OW53710   3.494   1.455   3.906  0.3268  0.6156 -0.3258
14164SOL    HW153711   3.537   1.541   3.933 -0.7265  1.2845 -0.7420
14164SOL    HW253712   3.536   1.421   3.822  2.1832 -0.3856  0.9807
14165SOL     OW53713   3.052   9.886   5.314 -0.0749  0.3532  0.3066
14165SOL    HW153714   3.149   9.874   5.331  0.0008 -1.8272 -1.4184
14165SOL    HW253715   3.004   9.800   5.327 -1.3468  0.7468 -1.4343
14166SOL     OW53716   2.779   1.190   5.917 -0.3287 -0.4847 -0.5239
14166SOL    HW153717   2.823   1.100   5.915  1.8554  0.5138  0.6283
14166SOL    HW253718   2.688   1.183   5.876  0.3365 -2.9121 -1.7248
14167SOL     OW53719   1.260   2.008   3.773  0.7014  0.0290 -0.3016
14167SOL    HW153720   1.284   1.954   3.854  2.0390  0.5242 -0.3568
14167SOL    HW253721   1.201   2.085   3.800 -0.2277 -0.7629 -0.0522
14168SOL     OW53722   8.016   0.351   3.597  0.4855  0.1003  0.0635
14168SOL    HW153723   7.980   0.261   3.573  0.0831 -0.2225  1.7607
14168SOL    HW253724   8.083   0.341   3.671  0.0162  1.2406  0.6544
14169SOL     OW53725   9.266   5.428   6.304  0.3404 -0.3673 -0.8901
14169SOL    HW153726   9.182   5.417   6.251  0.2755 -0.5083 -0.7601
14169SOL    HW253727   9.301   5.337   6.329 -0.4771 -0.2672  0.6388
14170SOL     OW53728   2.505   0.853   0.834 -0.9240  0.3739  0.0944
14170SOL    HW153729   2.463   0.821   0.749 -0.3775 -3.9416  1.3109
14170SOL    HW253730   2.603   0.864   0.821 -1.0605  1.2441 -0.2290
14171SOL     OW53731   7.644   2.334   4.731  0.0968 -0.1854 -0.1259
14171SOL    HW153732   7.656   2.235   4.739  2.0287 -0.0283 -0.7697
14171SOL    HW253733   7.610   2.371   4.817 -0.1533 -1.3449  0.2822
14172SOL     OW53734   0.042   7.666   5.749  0.0368  0.0003 -0.5491
14172SOL    HW153735  -0.058   7.667   5.747  0.0536  0.2487 -1.3250
14172SOL    HW253736   0.074   7.577   5.782 -0.4350 -0.4255 -1.2322
14173SOL     OW53737   7.801   2.328   3.035 -0.0001 -0.4640  0.4753
14173SOL    HW153738   7.890   2.290   3.012 -0.5966 -0.5357 -1.8308
14173SOL    HW253739   7.731   2.288   2.975 -1.3734  0.6335  1.3066
14174SOL     OW53740   1.324   7.647   0.435 -0.2832 -0.1595 -0.4234
14174SOL    HW153741   1.252   7.607   0.492 -1.0403 -0.2490 -1.4278
14174SOL    HW253742   1.404   7.588   0.435 -0.5631 -0.5392 -0.0718
14175SOL     OW53743   2.233   1.971   1.194  0.5482 -0.1587  0.3689
14175SOL    HW153744   2.305   2.040   1.187  2.0807 -1.5539  2.0292
14175SOL    HW253745   2.265   1.885   1.156 -0.8171 -0.3693 -0.3208
14176SOL     OW53746   3.117   1.055   3.405  0.0647 -0.2133  0.0849
14176SOL    HW153747   3.104   1.058   3.306  2.8398 -1.9748 -0.3707
14176SOL    HW253748   3.138   1.147   3.439  1.4752 -0.0148 -1.3121
14177SOL     OW53749   0.072   5.407   2.744  0.5501 -0.3772  0.6576
14177SOL    HW153750   0.072   5.343   2.821  1.5864 -0.9849  0.1639
14177SOL    HW253751   0.153   5.464   2.748  0.5673 -0.3564  0.0601
14178SOL     OW53752   8.374   3.436   5.206  0.1673  0.0219 -0.0590
14178SOL    HW153753   8.463   3.463   5.241 -0.3099  1.3130  0.2130
14178SOL    HW253754   8.302   3.474   5.266 -0.5730 -0.4010 -0.6718
14179SOL     OW53755   4.502   3.008   2.360  0.2623 -0.3042 -0.1161
14179SOL    HW153756   4.420   2.955   2.379 -0.0820 -0.2369 -1.3921
14179SOL    HW253757   4.477   3.104   2.346  0.4741 -0.3921 -1.1301
14180SOL     OW53758   3.973   9.386   3.684  0.0620 -0.1080 -0.2271
14180SOL    HW153759   3.905   9.443   3.731 -0.0618 -0.0886 -0.4282
14180SOL    HW253760   3.928   9.303   3.648  0.2760 -0.4170  0.2181
14181SOL     OW53761   6.860   4.844   0.535 -0.1962 -0.0958 -0.0692
14181SOL    HW153762   6.869   4.873   0.630  1.6591 -1.3714  0.1775
14181SOL    HW253763   6.884   4.919   0.474  1.0208 -0.0014  0.5120
14182SOL     OW53764   4.003   3.333   7.964  0.2574  0.4300 -0.1740
14182SOL    HW153765   3.989   3.411   8.024 -0.4798  1.3352 -1.4931
14182SOL    HW253766   3.920   3.276   7.964  0.2610  0.4248 -0.3243
14183SOL     OW53767   2.259   0.108   4.731  0.0827  0.2122 -0.4238
14183SOL    HW153768   2.249   0.065   4.641  1.3765 -0.8313 -0.0754
14183SOL    HW253769   2.310   0.194   4.722  0.2501  0.0853 -0.6690
14184SOL     OW53770   5.643   0.239   5.576 -0.1559  0.4301 -0.2893
14184SOL    HW153771   5.595   0.156   5.603  0.8639  0.3862  1.4797
14184SOL    HW253772   5.587   0.319   5.600  1.1547  0.4294  2.9836
14185SOL     OW53773   5.573   7.973   5.509 -0.0379  0.1151 -0.1339
14185SOL    HW153774   5.521   7.895   5.476  0.3187 -0.3000  0.2646
14185SOL    HW253775   5.624   7.946   5.591 -1.0172  1.1544  0.8395
14186SOL     OW53776   0.286   3.930   1.800 -0.5568  0.3444 -0.5242
14186SOL    HW153777   0.279   3.859   1.870  0.2317 -0.4105 -1.2043
14186SOL    HW253778   0.197   3.975   1.789 -0.5895  0.7386  1.2283
14187SOL     OW53779   6.812   9.802   3.229 -0.0540  0.0091  0.4525
14187SOL    HW153780   6.719   9.832   3.250 -0.4830  0.6946 -2.1865
14187SOL    HW253781   6.868   9.804   3.312 -2.1919  0.2897  1.9184
14188SOL     OW53782   0.299   1.245   1.261  0.3780  0.4072 -0.6104
14188SOL    HW153783   0.376   1.207   1.312 -0.5631 -1.7504 -0.7589
14188SOL    HW253784   0.252   1.313   1.318 -0.2745 -1.4934  1.1905
14189SOL     OW53785   3.848   8.490   6.392 -1.1480 -0.2119  0.1435
14189SOL    HW153786   3.813   8.418   6.331 -1.0605 -1.1266  1.1552
14189SOL    HW253787   3.920   8.452   6.450  0.3012  1.2236 -0.6988
14190SOL     OW53788   6.333   0.551   3.656 -0.1070 -0.3648 -0.3875
14190SOL    HW153789   6.238   0.530   3.680  0.2863  0.6110  2.2387
14190SOL    HW253790   6.359   0.637   3.699  1.8229 -0.3774 -1.5017
14191SOL     OW53791   8.740   9.983   2.875 -0.0830  0.5059  0.1047
14191SOL    HW153792   8.744   9.925   2.956  2.2766 -0.6977 -0.8394
14191SOL    HW253793   8.672   9.946   2.811  1.8655 -1.6389 -0.7804
14192SOL     OW53794   2.070   8.323   0.714  0.4813 -0.3714 -0.0797
14192SOL    HW153795   2.070   8.386   0.637 -1.0815 -1.9272 -1.3690
14192SOL    HW253796   2.154   8.336   0.768  1.1605  1.3201 -1.5278
14193SOL     OW53797   3.757   1.052   4.168  0.5753 -0.2318 -0.7998
14193SOL    HW153798   3.752   1.031   4.071 -0.0507 -3.8646 -0.0460
14193SOL    HW253799   3.706   1.137   4.187 -0.4882 -0.2599 -3.3969
14194SOL     OW53800   7.858   3.245   3.054 -0.6278 -0.1034 -0.2663
14194SOL    HW153801   7.885   3.160   3.100 -1.2153 -0.0696  0.1516
14194SOL    HW253802   7.937   3.284   3.007  0.3830  0.6717  1.9959
14195SOL     OW53803   4.130   5.814   1.367  0.0323  0.2112 -0.2849
14195SOL    HW153804   4.032   5.819   1.347 -0.3880 -2.8635  0.7311
14195SOL    HW253805   4.175   5.760   1.296  0.6687  0.0706  0.2206
14196SOL     OW53806   9.692   4.166   4.305 -0.0771  0.7679 -0.0611
14196SOL    HW153807   9.704   4.233   4.233 -1.0166  0.4231 -0.5520
14196SOL    HW253808   9.609   4.188   4.357  0.6436  1.0701  0.9743
14197SOL     OW53809   7.593   7.156   4.255  0.5387  0.1165  0.0864
14197SOL    HW153810   7.615   7.201   4.341  1.5808 -0.3150  0.0575
14197SOL    HW253811   7.676   7.113   4.218 -0.5430 -2.4077  0.4742
14198SOL     OW53812   1.997   2.634   3.366 -0.3781  0.3684 -0.0759
14198SOL    HW153813   1.940   2.658   3.287  1.4182  0.0666 -1.4874
14198SOL    HW253814   1.966   2.686   3.445 -3.6803 -1.0114 -0.3734
14199SOL     OW53815   0.929   5.357   1.520  0.2220 -0.2406  0.6093
14199SOL    HW153816   0.836   5.344   1.486 -0.0455  2.4936  0.2266
14199SOL    HW253817   0.927   5.381   1.617  0.5524 -0.6107  0.7098
14200SOL     OW53818   7.648   7.185   6.430 -0.2359 -0.1664 -0.7635
14200SOL    HW153819   7.572   7.249   6.445 -0.1360  0.2963 -2.1515
14200SOL    HW253820   7.616   7.091   6.448 -1.0675  0.0546 -1.0357
14201SOL     OW53821   8.304   1.377   5.221  0.3562  0.0474 -0.1529
14201SOL    HW153822   8.376   1.445   5.236 -0.0773  0.3040  0.8087
14201SOL    HW253823   8.323   1.296   5.276 -0.1866  0.1901  0.2448
14202SOL     OW53824   9.434   8.665   2.222  0.1956  0.3231  0.0634
14202SOL    HW153825   9.440   8.567   2.206  0.2340  0.2283  0.6490
14202SOL    HW253826   9.409   8.712   2.137 -0.6400 -0.2739 -0.0200
14203SOL     OW53827   3.609   2.915   1.348  0.1046  0.0125 -0.2246
14203SOL    HW153828   3.596   3.001   1.399 -1.6284 -0.0628 -0.5194
14203SOL    HW253829   3.681   2.862   1.392  0.5084  1.1770  0.5575
14204SOL     OW53830   5.322   9.284   5.157  0.2704 -0.3811 -0.0844
14204SOL    HW153831   5.374   9.200   5.144  1.9782  0.4836  0.8960
14204SOL    HW253832   5.261   9.274   5.236  0.3698 -0.7676 -0.0575
14205SOL     OW53833   9.416   1.250   3.141  0.4850 -0.1089  0.2663
14205SOL    HW153834   9.344   1.309   3.104 -1.0088 -1.6038  0.7004
14205SOL    HW253835   9.377   1.192   3.213  2.0106 -1.3071  0.1485
14206SOL     OW53836   1.636   1.415   4.171 -0.3533 -0.3781 -0.3209
14206SOL    HW153837   1.640   1.486   4.241 -1.3883 -0.1607 -0.4682
14206SOL    HW253838   1.703   1.344   4.192  1.8806  1.4419 -1.0939
14207SOL     OW53839   3.238   3.286   3.967 -0.2364  0.4253 -0.2846
14207SOL    HW153840   3.322   3.232   3.978  0.5546  1.8714  1.0897
14207SOL    HW253841   3.162   3.226   3.945  1.0544 -0.9839 -0.9490
14208SOL     OW53842   7.290   7.266   5.502 -0.4183  0.0618  0.3797
14208SOL    HW153843   7.383   7.301   5.515 -0.0317 -1.4185  1.6834
14208SOL    HW253844   7.232   7.296   5.577 -1.0850  1.2451 -0.5959
14209SOL     OW53845   7.708   2.902   4.662 -0.3235 -0.1836 -0.0139
14209SOL    HW153846   7.686   2.999   4.669  0.2036 -0.0625  0.0160
14209SOL    HW253847   7.726   2.865   4.753 -0.0149 -0.1849 -0.0744
14210SOL     OW53848   8.740   4.612   0.897 -0.0260 -0.3311 -0.0035
14210SOL    HW153849   8.672   4.682   0.875  0.4880 -0.4216 -1.9687
14210SOL    HW253850   8.816   4.617   0.832  1.7768 -0.3690  2.0059
14211SOL     OW53851   0.805   8.953   6.031 -0.4509 -0.2229  0.5671
14211SOL    HW153852   0.798   8.856   6.006  1.6443 -0.5102  0.9436
14211SOL    HW253853   0.861   8.961   6.113  1.8058  1.4954 -1.0647
14212SOL     OW53854   4.351   2.124   5.150 -0.0920 -0.0774  0.3168
14212SOL    HW153855   4.270   2.066   5.140 -1.0680  1.6179 -1.8311
14212SOL    HW253856   4.324   2.219   5.161  1.6087  0.6312 -1.3028
14213SOL     OW53857   0.864   9.507   5.000  0.0585  0.0537 -0.4470
14213SOL    HW153858   0.923   9.532   4.924  0.0786 -0.9040 -0.7584
14213SOL    HW253859   0.771   9.539   4.982  0.1243  0.0713 -0.7547
14214SOL     OW53860   9.285   3.295   5.526 -0.3745  0.2170 -0.4697
14214SOL    HW153861   9.262   3.198   5.530 -1.9261  0.5653 -0.3914
14214SOL    HW253862   9.263   3.331   5.435  0.0840  0.5260 -0.4612
14215SOL     OW53863   3.430   7.994   5.100  0.1467 -0.5813  0.0469
14215SOL    HW153864   3.509   7.968   5.045  0.6138  1.9232 -0.5281
14215SOL    HW253865   3.388   8.076   5.061 -1.8677 -1.0376  1.1900
14216SOL     OW53866   2.759   9.986   6.220  0.2149 -0.1643 -0.3538
14216SOL    HW153867   2.708  10.069   6.199  0.3784 -0.1727 -0.7842
14216SOL    HW253868   2.710   9.907   6.183 -0.5384 -0.3739  1.0625
14217SOL     OW53869   1.737   8.480   2.243 -0.2949  0.1798  0.0264
14217SOL    HW153870   1.817   8.539   2.227  0.6216 -0.9635  0.3543
14217SOL    HW253871   1.745   8.436   2.332 -0.6055 -1.0280 -0.5351
14218SOL     OW53872   3.518   6.306   0.587  0.0298  0.0384 -0.7617
14218SOL    HW153873   3.459   6.230   0.614 -1.0901  1.1310 -0.0918
14218SOL    HW253874   3.528   6.369   0.664  0.0912  1.1021 -1.6362
14219SOL     OW53875   8.368   2.919   3.400  0.7775 -0.1925 -0.4418
14219SOL    HW153876   8.420   2.960   3.475 -0.0165 -0.0562  0.0341
14219SOL    HW253877   8.406   2.951   3.313 -0.1428  2.0124 -0.0894
14220SOL     OW53878   0.082   5.671   0.113  0.3183 -0.6318  0.1624
14220SOL    HW153879   0.125   5.631   0.032 -0.0271  0.4241 -0.5625
14220SOL    HW253880   0.073   5.770   0.100 -1.4351 -0.6963  0.6857
14221SOL     OW53881   7.894   4.163   3.787  0.0320  0.4785  0.3039
14221SOL    HW153882   7.978   4.110   3.771 -0.4691 -0.3070  0.2311
14221SOL    HW253883   7.895   4.200   3.880 -0.6624 -1.6383  1.1969
14222SOL     OW53884   1.048   4.727   2.853  0.1497  0.1078 -0.5929
14222SOL    HW153885   0.994   4.653   2.812  0.2772  0.2628 -1.0389
14222SOL    HW253886   0.995   4.770   2.926 -0.7330  0.9149 -1.6834
14223SOL     OW53887   7.301   2.491   4.694  0.3116  0.4904  0.6795
14223SOL    HW153888   7.252   2.528   4.773 -1.4147  0.2213 -0.2439
14223SOL    HW253889   7.398   2.481   4.717  0.1285  1.9598  2.2148
14224SOL     OW53890   7.045   9.678   4.450 -0.1442  0.2964 -0.1827
14224SOL    HW153891   7.137   9.714   4.469  0.0210  0.0760 -0.5494
14224SOL    HW253892   6.977   9.747   4.472  0.1772  0.8716 -0.9560
14225SOL     OW53893   3.604   8.085   4.434  0.0405  0.5541 -0.4208
14225SOL    HW153894   3.616   8.184   4.445  0.4664  0.6427 -1.6514
14225SOL    HW253895   3.649   8.055   4.350  2.1480 -1.1170  1.2716
14226SOL     OW53896   3.831   4.098   2.781 -0.3075 -0.0372 -0.1270
14226SOL    HW153897   3.788   4.171   2.729 -2.0339 -0.4744  0.6549
14226SOL    HW253898   3.811   4.110   2.879  0.4702 -0.8394  0.1386
14227SOL     OW53899   8.903   9.711   5.937  0.0533  0.1895  0.2755
14227SOL    HW153900   8.874   9.805   5.917 -1.2152 -0.2391  0.0421
14227SOL    HW253901   8.889   9.654   5.856 -1.9272 -0.8164  1.2795
14228SOL     OW53902   5.121   8.583   3.331 -0.4033  0.2276  0.3738
14228SOL    HW153903   5.056   8.507   3.334 -1.1814  0.8304 -0.5532
14228SOL    HW253904   5.173   8.587   3.416 -0.2347 -1.4359  0.3647
14229SOL     OW53905   2.078   7.827   4.940  0.1953  0.1790 -0.1774
14229SOL    HW153906   2.122   7.738   4.927  0.2002  0.2665 -0.7766
14229SOL    HW253907   2.137   7.886   4.995 -0.4673 -0.6915  1.4995
14230SOL     OW53908   0.441   1.834   3.641 -0.2616 -0.1204  0.5334
14230SOL    HW153909   0.430   1.930   3.615 -2.5419 -0.4278  0.1873
14230SOL    HW253910   0.433   1.777   3.559 -1.7074 -0.7510  1.0873
14231SOL     OW53911   8.787   3.643   1.703 -0.1929  0.2290  0.6558
14231SOL    HW153912   8.761   3.738   1.686 -0.0099 -0.0350 -1.2339
14231SOL    HW253913   8.710   3.595   1.744 -0.4485  1.0739  1.1834
14232SOL     OW53914   8.983   7.337   4.760 -0.2480  0.8810  0.8953
14232SOL    HW153915   9.066   7.391   4.745 -0.5569  0.8596 -1.1021
14232SOL    HW253916   8.970   7.275   4.682 -1.1137 -0.4790  2.1044
14233SOL     OW53917   4.637   9.282   6.773 -0.0695  0.5590  0.8023
14233SOL    HW153918   4.731   9.314   6.767  0.0272  0.1586  0.2201
14233SOL    HW253919   4.582   9.351   6.821  0.7067  0.3900  1.9547
14234SOL     OW53920   1.626   5.420   4.699 -0.6178 -0.1312 -0.2217
14234SOL    HW153921   1.592   5.326   4.706 -0.2936 -0.2334  0.0253
14234SOL    HW253922   1.556   5.484   4.731  0.0899 -0.4625  2.0572
14235SOL     OW53923   1.972   8.282   5.803 -0.3004 -0.1941 -0.4846
14235SOL    HW153924   1.907   8.245   5.869 -0.6931 -0.4370 -1.0060
14235SOL    HW253925   2.031   8.208   5.769 -0.6305 -0.2177 -1.0085
14236SOL     OW53926   9.526   5.642   2.035 -0.5122  0.4466  0.0102
14236SOL    HW153927   9.559   5.652   2.129 -2.6474 -0.9953  0.9549
14236SOL    HW253928   9.463   5.564   2.030  1.2316 -0.8244 -3.0924
14237SOL     OW53929   5.399   8.957   6.136  0.3100  0.1930 -0.5988
14237SOL    HW153930   5.498   8.954   6.122  0.1845 -1.1929 -1.2154
14237SOL    HW253931   5.379   9.006   6.221  1.5109  0.6002 -0.5469
14238SOL     OW53932   3.063   3.086   2.116  0.1043  0.2909  0.0611
14238SOL    HW153933   3.106   3.041   2.194 -1.1793  0.3849  0.8434
14238SOL    HW253934   3.005   3.161   2.149 -1.8834 -0.8134 -0.8301
14239SOL     OW53935   2.721   1.181   0.211  0.0116 -0.4661  0.3443
14239SOL    HW153936   2.719   1.120   0.132  1.1532 -2.3825  1.7257
14239SOL    HW253937   2.689   1.131   0.292 -0.0218  1.1010  1.3270
14240SOL     OW53938   6.896   9.703   6.010  0.1040 -0.4304 -0.0336
14240SOL    HW153939   6.934   9.770   6.074  0.4649 -2.3470  1.8114
14240SOL    HW253940   6.956   9.697   5.930  2.3050 -1.4911  1.6359
14241SOL     OW53941   0.805   6.036   2.703 -0.0133 -0.4172 -0.6311
14241SOL    HW153942   0.806   6.020   2.802  1.2524 -0.9211 -0.7132
14241SOL    HW253943   0.717   6.075   2.676 -0.9779 -1.7878  0.4620
14242SOL     OW53944   6.317   1.152   5.362  0.1503 -0.0544  0.2737
14242SOL    HW153945   6.303   1.241   5.320  0.8800 -0.3114 -0.5331
14242SOL    HW253946   6.374   1.162   5.444 -0.4064  0.3109  0.6197
14243SOL     OW53947   9.985   8.353   2.996 -0.4123 -0.2026  0.0543
14243SOL    HW153948  10.002   8.281   2.930 -0.4788 -0.9262  0.8249
14243SOL    HW253949   9.979   8.441   2.949  0.7442 -0.5568 -0.7502
14244SOL     OW53950   3.041   0.116   1.809 -0.1462  0.1775  0.4417
14244SOL    HW153951   3.114   0.173   1.772  0.1877  0.1150  1.0006
14244SOL    HW253952   2.975   0.096   1.737  1.8639 -2.1618 -0.7956
14245SOL     OW53953   9.812   7.991   1.217 -0.1990  0.3372  0.3473
14245SOL    HW153954   9.827   8.068   1.279  1.6696  1.4913 -1.4973
14245SOL    HW253955   9.894   7.934   1.214 -1.0086 -0.8653  0.4686
14246SOL     OW53956   1.224   9.289   4.092 -0.6176 -0.2449  0.1120
14246SOL    HW153957   1.212   9.379   4.136 -0.7170 -0.7638  1.1784
14246SOL    HW253958   1.321   9.272   4.077 -0.5749 -0.1087  0.2291
14247SOL     OW53959   3.566   1.457   0.444 -0.0036  0.4015 -0.0633
14247SOL    HW153960   3.469   1.466   0.418 -0.4741  0.2921  1.5918
14247SOL    HW253961   3.575   1.389   0.516  1.4625 -0.3249 -0.8974
14248SOL     OW53962   3.721   3.252   7.827  0.2400  0.1266 -0.4974
14248SOL    HW153963   3.787   3.263   7.753 -0.1399 -0.9809 -1.0026
14248SOL    HW253964   3.635   3.298   7.802  0.3093  0.2598 -0.4909
14249SOL     OW53965   1.365   5.178   1.927 -0.1702  0.2237 -0.1286
14249SOL    HW153966   1.457   5.139   1.934 -0.6414 -1.0098 -0.5847
14249SOL    HW253967   1.338   5.183   1.831  0.7430  3.7936 -0.2592
14250SOL     OW53968   0.990   0.186   1.403  0.4592 -0.0431 -0.1855
14250SOL    HW153969   0.970   0.158   1.309  0.3319 -1.6221  0.2856
14250SOL    HW253970   1.088   0.197   1.414  0.6589 -1.7891 -0.0190
14251SOL     OW53971   3.691   1.157   5.940  0.3996  0.3311  0.2257
14251SOL    HW153972   3.693   1.254   5.964 -0.9394  0.4705 -0.1581
14251SOL    HW253973   3.773   1.134   5.888  1.0329  1.1079  0.8589
14252SOL     OW53974   9.095   2.865   0.729  0.4288 -0.2389 -0.0859
14252SOL    HW153975   9.022   2.917   0.774 -0.1154 -0.3781 -0.7943
14252SOL    HW253976   9.055   2.803   0.662  1.1553 -0.8188  0.0150
14253SOL     OW53977   6.086   8.564   6.663  0.1324  0.4599 -0.2301
14253SOL    HW153978   6.006   8.556   6.604  0.4207 -1.8730 -0.3152
14253SOL    HW253979   6.080   8.499   6.738  1.7937  0.4709 -0.0549
14254SOL     OW53980   9.980   6.461   0.671  0.0577  0.0978 -0.2890
14254SOL    HW153981   9.987   6.361   0.662 -0.8299 -0.3029  2.7042
14254SOL    HW253982  10.071   6.500   0.681  0.2829 -0.7222  1.0339
14255SOL     OW53983   7.391   4.229   0.139  0.4708 -0.2718  0.2535
14255SOL    HW153984   7.453   4.233   0.060 -1.1325 -1.9609 -1.1349
14255SOL    HW253985   7.378   4.134   0.167 -0.1751  0.1969  1.6099
14256SOL     OW53986   7.908   1.518   3.772  0.0453  0.4357 -0.2632
14256SOL    HW153987   7.844   1.453   3.729  0.5988 -0.5773  0.4384
14256SOL    HW253988   7.928   1.489   3.865  1.0586  1.0960 -0.2686
14257SOL     OW53989   7.619   4.540   0.067 -0.1050 -0.4682 -0.3733
14257SOL    HW153990   7.640   4.597  -0.013 -0.8461 -1.1220 -1.0410
14257SOL    HW253991   7.529   4.565   0.103  1.6637  2.2455  2.4102
14258SOL     OW53992   7.564   7.210   2.187 -0.0144  0.5924 -0.3949
14258SOL    HW153993   7.535   7.303   2.164 -0.2630  0.5958 -0.0505
14258SOL    HW253994   7.534   7.186   2.279  1.5099  0.7930  0.1755
14259SOL     OW53995   8.929   5.847   1.002  0.5138 -0.1858 -0.8237
14259SOL    HW153996   8.842   5.843   0.954  0.8466  1.2987 -1.5843
14259SOL    HW253997   9.003   5.863   0.937  0.9481  2.0029  0.1525
14260SOL     OW53998   9.496   7.060   4.613  0.7754 -0.0842 -0.0917
14260SOL    HW153999   9.499   7.116   4.696  0.9195  0.3910 -0.4109
14260SOL    HW254000   9.491   7.120   4.533  2.0513 -0.4965 -0.5020
14261SOL     OW54001   7.845   8.300   2.412  0.3784 -0.4747 -0.0121
14261SOL    HW154002   7.791   8.226   2.372  2.9081 -1.4867 -1.6482
14261SOL    HW254003   7.785   8.379   2.428 -1.5634 -1.5142 -1.8868
14262SOL     OW54004   1.314   5.443   4.777  0.2205 -0.2507  0.2793
14262SOL    HW154005   1.217   5.435   4.800  0.0655  0.1683 -0.2166
14262SOL    HW254006   1.332   5.536   4.744  0.7345 -0.4075  0.1232
14263SOL     OW54007   3.727   7.471   0.494  0.3940  0.2670 -0.6480
14263SOL    HW154008   3.765   7.423   0.415  0.7562  0.5833 -0.6715
14263SOL    HW254009   3.677   7.406   0.551 -1.1047  0.3235 -1.8799
14264SOL     OW54010   1.003   0.394   5.776  0.2769 -0.1235 -0.4939
14264SOL    HW154011   1.009   0.406   5.677 -0.8701 -0.3702 -0.6017
14264SOL    HW254012   0.970   0.478   5.818 -0.3118 -0.3726 -0.4468
14265SOL     OW54013   1.936   4.941   5.736  0.1824 -0.3125  0.5900
14265SOL    HW154014   1.908   5.023   5.786  0.8606  0.0471  0.4015
14265SOL    HW254015   2.035   4.943   5.723  0.0177 -0.4096 -0.7493
14266SOL     OW54016   3.326   4.756   2.806  0.8466 -0.3781  0.0872
14266SOL    HW154017   3.360   4.714   2.722  0.7136 -0.6759  0.1833
14266SOL    HW254018   3.239   4.715   2.831  1.1799 -0.7115  0.7008
14267SOL     OW54019   2.868   5.299   1.558 -0.8625  0.6108 -0.1652
14267SOL    HW154020   2.849   5.282   1.461  0.3300  0.0617 -0.3090
14267SOL    HW254021   2.954   5.349   1.567  1.2135 -2.9232  0.7591
14268SOL     OW54022   3.115   9.246   5.804 -0.1800 -0.3133  0.0187
14268SOL    HW154023   3.025   9.284   5.782  0.1152  0.4369  0.1094
14268SOL    HW254024   3.142   9.182   5.731 -1.6408 -2.0555  0.9420
14269SOL     OW54025   8.615   7.495   2.771  0.1370 -0.3747  0.0596
14269SOL    HW154026   8.532   7.529   2.816  0.1079  0.8664 -0.9172
14269SOL    HW254027   8.590   7.418   2.711  0.0213 -1.3562  1.3439
14270SOL     OW54028   0.065   1.286   3.517  0.1754  0.4089  0.4630
14270SOL    HW154029  -0.017   1.342   3.501  0.0380  0.5227  1.5016
14270SOL    HW254030   0.037   1.197   3.552  0.5046  0.4983  0.9509
14271SOL     OW54031   0.481   8.661   1.598 -0.5974  0.6052 -0.1052
14271SOL    HW154032   0.454   8.568   1.572 -0.4765  0.6446 -0.3674
14271SOL    HW254033   0.561   8.656   1.658  1.1950  0.6761 -2.4141
14272SOL     OW54034   5.101   9.928   2.018  0.6359 -0.6253  0.0724
14272SOL    HW154035   5.109   9.943   1.920 -1.7686  1.3793  0.1303
14272SOL    HW254036   5.153   9.998   2.068 -0.0767 -0.2178  0.2460
14273SOL     OW54037   7.802   7.026   2.243  0.5151 -0.2925  0.0648
14273SOL    HW154038   7.862   7.006   2.166  1.6849  1.7098  0.4151
14273SOL    HW254039   7.730   7.089   2.214 -0.0957 -0.9164  0.2013
14274SOL     OW54040   8.908   1.272   6.514 -0.3009  0.0693  0.4783
14274SOL    HW154041   8.812   1.283   6.491  0.4492  2.1915 -1.8203
14274SOL    HW254042   8.921   1.187   6.566 -2.9702 -1.6744 -1.6252
14275SOL     OW54043   6.672   0.242   1.970  0.0983 -0.2919 -0.1628
14275SOL    HW154044   6.715   0.326   1.940 -0.9113  0.5403  0.6760
14275SOL    HW254045   6.702   0.166   1.912  0.5191  0.7505 -1.3246
14276SOL     OW54046   5.080   5.208   0.930 -0.5455 -0.3006  0.0286
14276SOL    HW154047   5.127   5.122   0.953 -0.6788 -0.4543 -0.2774
14276SOL    HW254048   4.988   5.206   0.969  0.2947  0.7360  2.1546
14277SOL     OW54049   3.981   2.934   5.377  0.0154 -0.0490 -0.3540
14277SOL    HW154050   4.065   2.965   5.334  0.4216 -1.4606 -0.6160
14277SOL    HW254051   3.904   2.989   5.343  0.6637  0.4675 -1.0072
14278SOL     OW54052   4.767   7.850   5.693  0.6433 -0.2533  0.0890
14278SOL    HW154053   4.722   7.935   5.721  1.0033 -0.0900  0.1634
14278SOL    HW254054   4.866   7.864   5.689  0.6371 -0.4252 -0.7372
14279SOL     OW54055   6.525   1.385   0.220 -0.4853  0.1219  0.2005
14279SOL    HW154056   6.559   1.301   0.263 -0.5733 -0.0114  0.0129
14279SOL    HW254057   6.574   1.400   0.134 -2.2682 -1.1687 -1.0894
14280SOL     OW54058   6.605   8.200   3.250  0.0078 -0.4513  0.1718
14280SOL    HW154059   6.631   8.161   3.337  0.7633  2.4838  1.3311
14280SOL    HW254060   6.507   8.221   3.250  0.3065  1.0268  0.9634
14281SOL     OW54061   7.266   2.339   0.483 -0.0273 -0.2266 -0.0330
14281SOL    HW154062   7.191   2.352   0.548 -1.1488  0.4297 -1.4500
14281SOL    HW254063   7.242   2.380   0.396  2.5018  1.0983 -0.1325
14282SOL     OW54064   4.411   9.963   6.215 -0.1723 -0.0111 -0.1433
14282SOL    HW154065   4.431   9.872   6.178 -0.5383  0.8302 -2.5500
14282SOL    HW254066   4.488  10.024   6.195 -0.7103  0.6497 -0.1964
14283SOL     OW54067   0.267   3.546   2.521 -0.6705  0.4783 -0.1462
14283SOL    HW154068   0.211   3.593   2.589  0.7794  0.2284  1.2379
14283SOL    HW254069   0.338   3.492   2.566 -0.3009 -0.4984 -1.8201
14284SOL     OW54070   8.224   9.249   0.849  0.2119  0.4125  0.1347
14284SOL    HW154071   8.278   9.298   0.781 -0.7388  1.0404 -0.1709
14284SOL    HW254072   8.161   9.186   0.802  0.5844 -0.2261  0.4846
14285SOL     OW54073   7.875   7.211   3.586 -0.2978  0.1632  0.5552
14285SOL    HW154074   7.844   7.287   3.644  0.9884 -0.1429  1.6641
14285SOL    HW254075   7.973   7.200   3.595 -0.0718  0.0605 -1.6700
14286SOL     OW54076   7.356   7.773   4.333 -0.4129  0.2946  0.5123
14286SOL    HW154077   7.423   7.831   4.381  0.0099 -0.4496  0.8346
14286SOL    HW254078   7.275   7.827   4.312  0.4794  1.3356 -0.3027
14287SOL     OW54079   9.643   7.488   5.123  0.6829 -0.3175 -0.2840
14287SOL    HW154080   9.653   7.520   5.217  0.6057  0.1342 -0.4254
14287SOL    HW254081   9.722   7.518   5.069  1.2315 -1.4545 -0.1262
14288SOL     OW54082   8.696   4.443   3.734  0.2341  0.0226 -0.2406
14288SOL    HW154083   8.746   4.464   3.650 -0.1701 -1.9477 -0.9819
14288SOL    HW254084   8.623   4.511   3.747 -0.5409 -0.4074 -2.1893
14289SOL     OW54085   3.962   0.065   3.101  0.0517 -0.0420  0.1844
14289SOL    HW154086   3.955  -0.012   3.165  1.5679 -0.4885 -0.1610
14289SOL    HW254087   4.055   0.069   3.065 -0.0382  1.9194  0.1474
14290SOL     OW54088   6.480   3.609   0.790  0.0967  0.4225 -0.2506
14290SOL    HW154089   6.408   3.547   0.761 -1.2127  1.8137 -0.0389
14290SOL    HW254090   6.528   3.645   0.710  1.8152 -1.9427 -0.3189
14291SOL     OW54091   0.288   7.616   0.545 -0.5569  0.2644  0.3561
14291SOL    HW154092   0.308   7.679   0.620 -2.6959  0.1747  1.0119
14291SOL    HW254093   0.374   7.589   0.501  0.4972  2.4968  0.9793
14292SOL     OW54094   6.568   8.226   3.908  0.5857 -0.1738 -0.1037
14292SOL    HW154095   6.491   8.234   3.972  0.6204 -0.2705 -0.0484
14292SOL    HW254096   6.557   8.143   3.853  0.2015  0.2755 -0.7062
14293SOL     OW54097   8.889   7.859   4.699 -0.0552 -0.0546  0.3081
14293SOL    HW154098   8.927   7.874   4.790  1.4300 -0.3503 -0.2535
14293SOL    HW254099   8.955   7.888   4.629 -1.4215  0.7538 -0.6835
14294SOL     OW54100   9.281   3.461   0.482 -0.1752 -0.1442 -0.0104
14294SOL    HW154101   9.349   3.400   0.443 -1.0885 -1.0939 -0.1397
14294SOL    HW254102   9.215   3.408   0.536 -0.9017  0.7367 -0.0129
14295SOL     OW54103   6.299   8.693   6.523 -0.5286  0.3245  0.6276
14295SOL    HW154104   6.375   8.742   6.567 -0.5549 -0.2840  1.3637
14295SOL    HW254105   6.249   8.642   6.593 -1.2020  0.1765  0.0330
14296SOL     OW54106   9.831   3.479   6.229  0.0678  0.1649 -0.2547
14296SOL    HW154107   9.877   3.449   6.146 -0.1438  0.4978 -0.4982
14296SOL    HW254108   9.805   3.576   6.219 -0.8916 -0.0814 -0.2289
14297SOL     OW54109   8.599   8.220   3.907  0.5564 -0.0158 -0.0581
14297SOL    HW154110   8.651   8.186   3.828 -0.4487  0.4575 -0.9472
14297SOL    HW254111   8.634   8.310   3.933 -1.3955  1.4553 -2.2660
14298SOL     OW54112   0.654   9.418   4.231 -0.3876  0.5272  0.3006
14298SOL    HW154113   0.604   9.376   4.156 -1.8301  0.8214  1.0700
14298SOL    HW254114   0.726   9.478   4.195 -0.0730 -0.5126 -0.8098
14299SOL     OW54115   0.339   7.427   6.160 -0.1513  0.1492 -0.3377
14299SOL    HW154116   0.325   7.379   6.074 -0.8918  2.0965 -1.3330
14299SOL    HW254117   0.251   7.451   6.201  0.1916 -0.6860  0.9324
14300SOL     OW54118   0.560   0.052   0.480 -0.1793  0.0018 -0.3169
14300SOL    HW154119   0.613  -0.032   0.471  0.5080  0.2013  1.6026
14300SOL    HW254120   0.621   0.131   0.469 -0.2560  0.2336  0.8606
14301SOL     OW54121   0.963   1.124   2.501 -1.2171  0.1061  0.4392
14301SOL    HW154122   1.044   1.071   2.526 -1.2791  0.9453  2.5650
14301SOL    HW254123   0.990   1.213   2.465 -1.1398  1.1398  2.8920
14302SOL     OW54124   1.021   9.092   4.331  0.0384 -0.8853 -0.4540
14302SOL    HW154125   1.118   9.088   4.309  0.1310 -1.7534  0.0996
14302SOL    HW254126   0.974   9.147   4.262  0.9213 -0.4377 -0.7086
14303SOL     OW54127   0.105   8.543   2.604 -0.2176 -0.2937 -0.7661
14303SOL    HW154128   0.124   8.515   2.699  1.6061  0.6044 -0.8414
14303SOL    HW254129   0.061   8.468   2.556 -1.4542 -0.6593  0.8776
14304SOL     OW54130   1.387   1.399   0.207 -0.1573 -0.1581 -0.1799
14304SOL    HW154131   1.399   1.498   0.212  0.1791 -0.1959 -0.2475
14304SOL    HW254132   1.405   1.359   0.297  1.6356 -0.3686 -0.6187
14305SOL     OW54133   4.551   4.554   2.871  0.4293  0.4046  0.2047
14305SOL    HW154134   4.582   4.519   2.782 -0.4277 -0.2152  0.1443
14305SOL    HW254135   4.527   4.650   2.862  0.6117  0.4180 -0.1740
14306SOL     OW54136   9.137   4.892   3.829  0.0610 -0.9192 -0.9942
14306SOL    HW154137   9.053   4.933   3.864  0.9154  1.5320 -1.6723
14306SOL    HW254138   9.172   4.825   3.895 -1.8396 -1.1886 -0.2309
14307SOL     OW54139   5.633   1.546   5.938 -0.2362  0.5820 -0.3201
14307SOL    HW154140   5.571   1.557   6.015 -0.9435 -1.1451 -0.6240
14307SOL    HW254141   5.619   1.620   5.872 -1.9511  0.2263 -0.3635
14308SOL     OW54142   2.221   5.291   2.009  0.0390 -0.1777 -0.3899
14308SOL    HW154143   2.195   5.323   2.101  1.5507  0.3097 -0.1115
14308SOL    HW254144   2.179   5.202   1.991  0.6548 -0.8204  1.2438
14309SOL     OW54145   5.239   8.284   6.407  0.4538  0.6503  0.2107
14309SOL    HW154146   5.239   8.350   6.332  0.8788  0.5263  0.1041
14309SOL    HW254147   5.152   8.235   6.408  0.6082  0.3626 -0.4502
14310SOL     OW54148   1.308   3.821   5.134  0.4476  1.0581 -0.0651
14310SOL    HW154149   1.270   3.753   5.071  2.4832  0.8426 -1.1174
14310SOL    HW254150   1.256   3.906   5.126 -0.9957  0.1940 -0.0588
14311SOL     OW54151   8.658   2.707   2.327 -0.0335  0.3097  0.0495
14311SOL    HW154152   8.658   2.681   2.423 -0.4700 -0.6371 -0.2039
14311SOL    HW254153   8.644   2.806   2.320  2.4213  0.7726  1.0342
14312SOL     OW54154   9.095   4.994   1.252  0.1613  0.3788 -0.0413
14312SOL    HW154155   9.032   4.925   1.288  2.3702 -0.8361  1.5867
14312SOL    HW254156   9.057   5.085   1.269 -1.9878 -0.3516 -0.7047
14313SOL     OW54157   9.185   1.318   4.613  0.2359 -1.0365 -0.0082
14313SOL    HW154158   9.275   1.288   4.646  0.3769 -2.3991 -1.5646
14313SOL    HW254159   9.119   1.244   4.625 -0.2143 -0.7507 -0.7279
14314SOL     OW54160   7.611   7.566   5.648  0.2844 -0.0732  0.1205
14314SOL    HW154161   7.651   7.655   5.628  1.2138 -0.8293 -1.5376
14314SOL    HW254162   7.547   7.574   5.725  1.9759  1.5872  1.3961
14315SOL     OW54163   8.690   3.926   1.694 -0.5148  0.3889 -0.6919
14315SOL    HW154164   8.727   3.960   1.780  0.1818  0.8429 -1.1637
14315SOL    HW254165   8.605   3.974   1.672 -0.5802  0.4218 -0.3597
14316SOL     OW54166   3.112   1.537   2.857 -0.1399 -0.0555  0.9513
14316SOL    HW154167   3.145   1.561   2.948  0.8176 -1.8900  1.1179
14316SOL    HW254168   3.180   1.563   2.789 -0.3815  0.3404  0.8603
14317SOL     OW54169   4.783   1.518   6.199 -0.0366  0.6783 -0.3674
14317SOL    HW154170   4.798   1.419   6.205  0.0518  0.6594 -0.8915
14317SOL    HW254171   4.822   1.553   6.114  0.9747  1.3625  0.3671
14318SOL     OW54172   8.097   4.749   5.153  0.2474  0.0384  0.1060
14318SOL    HW154173   8.036   4.788   5.084  1.2234  0.4163 -0.5601
14318SOL    HW254174   8.043   4.705   5.224 -0.9479  3.4986  1.4601
14319SOL     OW54175   2.726   5.760   5.424 -0.6870 -0.2423 -0.4012
14319SOL    HW154176   2.744   5.663   5.434 -1.4779 -0.4846 -1.2468
14319SOL    HW254177   2.798   5.802   5.369 -0.6895 -0.4789 -0.5852
14320SOL     OW54178   1.197   6.783   1.716 -0.4374  0.1014 -0.3064
14320SOL    HW154179   1.228   6.796   1.811  1.0745  0.0031 -0.7733
14320SOL    HW254180   1.153   6.694   1.708 -0.1432 -0.0936  0.1975
14321SOL     OW54181   5.695   5.558   1.136 -0.1873 -0.0998 -0.1569
14321SOL    HW154182   5.710   5.625   1.208 -1.1430 -1.1411  1.0379
14321SOL    HW254183   5.605   5.516   1.147  2.0357 -4.6680  1.7307
14322SOL     OW54184   0.637   9.814   4.297 -0.0479 -0.1417 -0.3667
14322SOL    HW154185   0.666   9.789   4.389 -0.3219  0.3727 -0.1406
14322SOL    HW254186   0.555   9.872   4.302  0.4417  0.5967 -0.8965
14323SOL     OW54187   2.701   7.914   2.900  0.2824 -0.1919  0.6857
14323SOL    HW154188   2.715   7.944   2.994 -1.2197 -0.7355  1.1083
14323SOL    HW254189   2.765   7.961   2.840  0.2666  1.2827  1.7864
14324SOL     OW54190   0.518   6.574   0.766  0.2744 -0.0550 -0.1184
14324SOL    HW154191   0.485   6.650   0.711 -0.1205 -0.6090 -0.6549
14324SOL    HW254192   0.529   6.493   0.708 -0.4763 -0.7438  0.6765
14325SOL     OW54193   3.693   8.779   5.134  0.0226 -0.0442  0.0416
14325SOL    HW154194   3.757   8.708   5.106 -1.1054 -1.1349  0.2048
14325SOL    HW254195   3.607   8.769   5.084 -0.6902  0.2473  1.1813
14326SOL     OW54196   9.371   0.517   3.808  0.6507  0.1011  0.5873
14326SOL    HW154197   9.317   0.433   3.816 -1.0445  1.1150  0.0605
14326SOL    HW254198   9.373   0.563   3.897 -4.9318  3.3466 -0.6792
14327SOL     OW54199   7.439   1.978   4.401 -0.4958 -0.7976  0.4079
14327SOL    HW154200   7.525   1.985   4.452  0.1044 -0.3822 -0.6389
14327SOL    HW254201   7.364   2.016   4.456  0.3812  0.9509  0.4249
14328SOL     OW54202   7.374   3.552   2.680 -0.1138  0.2705 -0.3870
14328SOL    HW154203   7.279   3.534   2.704 -0.5051  0.4161 -1.7860
14328SOL    HW254204   7.395   3.648   2.698 -0.3924  0.3669 -0.5710
14329SOL     OW54205   6.878   8.505   2.511 -0.4952 -0.1212 -0.2056
14329SOL    HW154206   6.915   8.519   2.603  0.3144 -1.6744 -0.2866
14329SOL    HW254207   6.787   8.465   2.518 -1.7925  2.7209 -0.0327
14330SOL     OW54208   1.980   7.756   0.846  0.4707 -0.0894 -0.1671
14330SOL    HW154209   2.018   7.697   0.917  3.5780  0.5185 -1.2481
14330SOL    HW254210   1.966   7.848   0.884 -1.3574 -0.6588  0.6210
14331SOL     OW54211   0.281   5.075   3.578  0.6203 -0.1818 -0.5628
14331SOL    HW154212   0.309   5.105   3.486 -2.3154 -0.3774 -1.5855
14331SOL    HW254213   0.320   4.985   3.597  0.4875 -0.5620 -2.0194
14332SOL     OW54214   9.006   6.360   4.396 -0.2061  0.3800 -0.0266
14332SOL    HW154215   9.105   6.350   4.391 -0.1682  1.2057 -1.0504
14332SOL    HW254216   8.982   6.455   4.418 -0.7446 -0.0009  1.0356
14333SOL     OW54217   8.204   7.584   5.131  0.0333  0.2029  0.3554
14333SOL    HW154218   8.145   7.628   5.063  3.8563  3.1049 -1.2596
14333SOL    HW254219   8.261   7.515   5.085 -0.0299 -0.5162  1.3478
14334SOL     OW54220   7.485   1.139   6.414  0.7877 -0.5829  0.2454
14334SOL    HW154221   7.500   1.041   6.400  1.3872 -0.5107  0.3622
14334SOL    HW254222   7.397   1.154   6.459  1.1513 -1.1274  1.1429
14335SOL     OW54223   0.413   1.827   5.612  0.6025 -0.1241  0.0753
14335SOL    HW154224   0.322   1.815   5.573  0.1066  0.7624  0.9310
14335SOL    HW254225   0.474   1.869   5.545  0.6913 -1.6949 -0.8671
14336SOL     OW54226   2.795   9.442   3.769  0.0076 -0.0119  0.1251
14336SOL    HW154227   2.789   9.504   3.691  0.7763  0.5161  0.4686
14336SOL    HW254228   2.862   9.478   3.834 -0.6232 -0.4374  1.0293
14337SOL     OW54229   4.654   6.236   2.706 -0.4371 -0.2276  0.6312
14337SOL    HW154230   4.663   6.335   2.708 -1.6760 -0.1089  1.0597
14337SOL    HW254231   4.588   6.211   2.635 -1.4925 -0.6169  1.7267
14338SOL     OW54232   8.179   2.069   3.421  0.1602  0.0551  0.5005
14338SOL    HW154233   8.199   2.069   3.519 -1.2704 -0.1276  0.7993
14338SOL    HW254234   8.191   1.977   3.385 -2.2659 -0.5552  1.1439
14339SOL     OW54235   6.260   9.590   3.379  0.4832  0.8251  0.3641
14339SOL    HW154236   6.262   9.601   3.280  1.5512 -0.1677  0.2632
14339SOL    HW254237   6.274   9.680   3.423 -0.5738  1.3524 -0.3703
14340SOL     OW54238   0.582   9.197   2.127 -0.9110  0.5022  0.2507
14340SOL    HW154239   0.660   9.156   2.080 -1.6507 -0.2821 -0.3093
14340SOL    HW254240   0.610   9.283   2.170  0.2135  0.3109 -0.0868
14341SOL     OW54241   5.846   0.928   1.080 -0.6777 -0.2336  0.7838
14341SOL    HW154242   5.878   0.834   1.094 -0.6122 -0.6110 -1.6071
14341SOL    HW254243   5.772   0.947   1.144 -0.6872 -1.9299  1.3185
14342SOL     OW54244   3.186   1.488   0.873 -0.1196  0.2249 -0.3669
14342SOL    HW154245   3.266   1.450   0.828  0.4252 -0.7995  1.4489
14342SOL    HW254246   3.159   1.572   0.826  1.5338  0.1659 -1.4666
14343SOL     OW54247   2.875   7.427   5.805  0.3785  0.3113 -0.1446
14343SOL    HW154248   2.920   7.441   5.717 -2.0176  2.4005 -1.0848
14343SOL    HW254249   2.931   7.467   5.878  0.6729  1.7372 -1.1408
14344SOL     OW54250   1.986   0.042   2.899  0.6403  0.3522  0.5515
14344SOL    HW154251   1.980   0.012   2.804  1.0818  0.0717  0.6083
14344SOL    HW254252   1.958  -0.033   2.959  0.7824  0.3853  0.6591
14345SOL     OW54253   7.346   1.033   5.827  0.3119 -0.1643  0.8159
14345SOL    HW154254   7.437   1.073   5.834 -0.4296  1.5328  0.9704
14345SOL    HW254255   7.337   0.988   5.738  1.2535 -0.2343  0.7455
14346SOL     OW54256   0.275   5.193   0.935 -0.2328 -0.0428  0.5500
14346SOL    HW154257   0.355   5.252   0.944 -0.1617 -0.4102  2.4083
14346SOL    HW254258   0.305   5.097   0.930 -0.4415 -0.0465 -0.9064
14347SOL     OW54259   4.506   1.769   4.850  0.3671 -0.2021  0.2417
14347SOL    HW154260   4.559   1.852   4.832 -1.1629  0.6059 -0.5562
14347SOL    HW254261   4.555   1.690   4.811  0.1189  0.7592 -2.0861
14348SOL     OW54262   3.943   7.530   4.037  0.0402  0.6258 -0.1220
14348SOL    HW154263   3.924   7.619   3.994  0.4344 -0.2950 -2.2989
14348SOL    HW254264   4.028   7.493   3.999  0.5359 -0.1254  1.6935
14349SOL     OW54265   2.555   4.831   1.255  0.2317 -0.7621  0.1369
14349SOL    HW154266   2.457   4.816   1.270  0.3781 -0.1308  1.7905
14349SOL    HW254267   2.570   4.855   1.159 -1.1590 -1.4288 -0.2695
14350SOL     OW54268   8.491   5.427   3.278 -0.3297  0.0589 -0.1536
14350SOL    HW154269   8.392   5.438   3.291  0.0540  1.9215  1.4654
14350SOL    HW254270   8.538   5.444   3.365  1.5240  0.7608 -1.2682
14351SOL     OW54271   0.971   8.970   1.809  0.0948 -0.2665  0.1063
14351SOL    HW154272   0.941   8.943   1.717 -2.0680 -0.2414  0.7592
14351SOL    HW254273   1.011   8.891   1.855 -0.3882 -0.7358 -0.2632
14352SOL     OW54274   8.260   8.217   2.195  0.1114  0.5465  0.0249
14352SOL    HW154275   8.173   8.231   2.241 -0.4008 -2.0824 -0.0691
14352SOL    HW254276   8.245   8.195   2.099  1.0381  2.8063 -0.6765
14353SOL     OW54277   8.564   0.935   2.792  0.2750 -0.1541 -0.5113
14353SOL    HW154278   8.617   0.877   2.730  0.7958  0.0472 -0.2578
14353SOL    HW254279   8.594   1.030   2.782 -2.1450  0.4368 -2.6023
14354SOL     OW54280   9.789   4.689   2.538  0.3677 -0.9370  0.3654
14354SOL    HW154281   9.706   4.725   2.495  0.3572  1.0010  1.9137
14354SOL    HW254282   9.870   4.723   2.489  0.2927 -1.0308  0.1778
14355SOL     OW54283   8.725   6.362   3.382  0.1158 -0.1622 -0.7861
14355SOL    HW154284   8.652   6.413   3.338  0.2482  1.8229  1.1818
14355SOL    HW254285   8.757   6.413   3.463  2.5528 -1.7582 -0.6922
14356SOL     OW54286   8.589   2.449   2.467  0.5921 -0.2863 -0.4553
14356SOL    HW154287   8.648   2.405   2.399  0.9421  0.2670 -0.5102
14356SOL    HW254288   8.520   2.383   2.498  0.8736 -0.7595 -0.8181
14357SOL     OW54289   3.720   4.347   2.948 -0.3435 -0.5949  0.1496
14357SOL    HW154290   3.703   4.256   2.987 -1.4900 -0.8581 -0.9200
14357SOL    HW254291   3.690   4.348   2.852 -0.5999  0.9940  0.2281
14358SOL     OW54292   2.280   6.687   2.582  0.1477  0.1489  0.3588
14358SOL    HW154293   2.368   6.733   2.572 -0.0123 -0.0960 -2.5707
14358SOL    HW254294   2.206   6.753   2.570 -0.1115 -0.9879 -5.6685
14359SOL     OW54295   1.038   4.221   1.004  0.9030 -0.1534 -0.3604
14359SOL    HW154296   0.941   4.238   1.019  1.2785  1.1257  0.7742
14359SOL    HW254297   1.050   4.135   0.956 -0.7698 -0.5979 -0.0102
14360SOL     OW54298   3.958   7.921   1.957 -0.1945  0.0858  0.1002
14360SOL    HW154299   3.963   7.833   1.911 -1.2728  0.0882 -0.0349
14360SOL    HW254300   3.947   7.994   1.889  2.2504  0.4933  0.0979
14361SOL     OW54301   9.339   8.972   0.995 -0.3741 -0.3002 -0.2550
14361SOL    HW154302   9.349   8.975   1.094 -0.4551 -1.0285 -0.2229
14361SOL    HW254303   9.399   8.901   0.957  0.0808  0.3495 -0.7839
14362SOL     OW54304   6.459   1.384   0.975 -0.1354  0.0387  0.4856
14362SOL    HW154305   6.440   1.481   0.960 -0.3094  0.1284  1.2282
14362SOL    HW254306   6.427   1.331   0.897 -0.4761  0.5309  0.2871
14363SOL     OW54307   2.172   7.231   6.290  0.4528 -0.2613  0.5814
14363SOL    HW154308   2.106   7.163   6.258  1.3644 -1.8174  1.9584
14363SOL    HW254309   2.143   7.322   6.259 -2.2258 -0.9286  0.9794
14364SOL     OW54310   5.629   5.464   0.301 -0.0183 -0.5289 -0.8102
14364SOL    HW154311   5.531   5.481   0.290  0.0872  1.6571  1.0854
14364SOL    HW254312   5.673   5.464   0.211 -1.4470  0.6370 -1.5353
14365SOL     OW54313   6.545   2.984   3.634 -0.1950 -0.2571  0.2362
14365SOL    HW154314   6.510   2.951   3.547  0.3329  0.1979 -0.1443
14365SOL    HW254315   6.543   3.084   3.636  0.4241 -0.2485  0.4852
14366SOL     OW54316   2.490   7.678   6.484 -0.5912 -0.1329 -0.6841
14366SOL    HW154317   2.400   7.637   6.466 -0.5099 -0.5095 -0.2382
14366SOL    HW254318   2.558   7.606   6.494 -0.4757  0.1027  0.2272
14367SOL     OW54319   0.333   9.637   2.313 -0.3186  0.1118 -0.5194
14367SOL    HW154320   0.381   9.719   2.282  1.2186 -0.3005  0.7144
14367SOL    HW254321   0.393   9.558   2.304 -0.3136 -0.2363  2.1642
14368SOL     OW54322   8.504   1.648   5.835 -0.2724 -0.0483  0.5495
14368SOL    HW154323   8.495   1.739   5.875 -1.8109  1.6368 -3.4362
14368SOL    HW254324   8.417   1.620   5.794  1.2439 -1.5526 -1.7963
14369SOL     OW54325   9.760   3.169   3.376  0.0403  0.7881 -0.1072
14369SOL    HW154326   9.691   3.106   3.414  0.3001  1.1301  0.9600
14369SOL    HW254327   9.821   3.118   3.316  0.3526 -0.0296  0.8864
14370SOL     OW54328   7.572   8.558   6.996  0.0157  0.2318 -0.4531
14370SOL    HW154329   7.575   8.477   7.055 -2.3920 -0.3960 -1.1425
14370SOL    HW254330   7.585   8.531   6.901 -1.6880  0.4914 -0.7882
14371SOL     OW54331   7.653   3.974   5.869 -0.2258  0.2303 -0.2154
14371SOL    HW154332   7.619   3.899   5.926  1.2808  0.5851  1.1817
14371SOL    HW254333   7.711   4.034   5.924  1.6409  0.3243 -2.2501
14372SOL     OW54334   3.215   2.760   4.202  0.3425 -0.2319 -0.4957
14372SOL    HW154335   3.278   2.772   4.279  2.5265  1.5075 -2.4778
14372SOL    HW254336   3.233   2.672   4.158  0.0323 -0.6140  0.1338
14373SOL     OW54337   5.300   1.530   1.171  0.2422 -0.0960  0.2672
14373SOL    HW154338   5.358   1.474   1.230 -0.5845  0.1867  1.3754
14373SOL    HW254339   5.222   1.476   1.140  1.2604 -0.5860 -1.5149
14374SOL     OW54340   4.382   6.867   0.491  0.2008  0.0768  0.3848
14374SOL    HW154341   4.347   6.957   0.518  2.3497  0.7927  0.9103
14374SOL    HW254342   4.356   6.849   0.396 -0.2048  1.2803  0.2553
14375SOL     OW54343   2.673   5.918   0.488  0.0496  0.0582  0.0214
14375SOL    HW154344   2.587   5.877   0.517  0.3063 -0.6860 -0.2572
14375SOL    HW254345   2.655   6.003   0.438 -0.4775  0.3503  0.7103
14376SOL     OW54346   2.693   7.393   1.066 -0.1757  0.0205 -0.1466
14376SOL    HW154347   2.623   7.464   1.069 -0.0722  0.1484 -0.7134
14376SOL    HW254348   2.778   7.431   1.029  0.5681  0.1814  1.6566
14377SOL     OW54349   1.149   4.738   5.406 -0.5469  0.2197 -0.2219
14377SOL    HW154350   1.170   4.654   5.356 -0.3780 -0.3849  0.8348
14377SOL    HW254351   1.226   4.762   5.465 -1.0547  0.4522  0.3660
14378SOL     OW54352   2.631   5.959   5.599  0.2488 -0.4375 -0.2016
14378SOL    HW154353   2.543   5.949   5.646  1.1613 -0.1865  1.5935
14378SOL    HW254354   2.644   5.881   5.537 -0.4886 -1.3689  0.7777
14379SOL     OW54355   4.744   1.887   5.191 -0.0342 -0.1730 -0.5153
14379SOL    HW154356   4.765   1.790   5.185  0.3785 -0.0775 -0.6202
14379SOL    HW254357   4.822   1.936   5.230 -0.8216 -0.0980  0.9882
14380SOL     OW54358   4.934   0.965   0.172 -0.0453  0.2375 -0.3722
14380SOL    HW154359   4.837   0.983   0.160 -0.0920  0.2295 -0.0334
14380SOL    HW254360   4.947   0.874   0.210  0.0209  0.7005  0.7491
14381SOL     OW54361   5.150   8.755   5.165 -0.4001 -0.7472  0.4453
14381SOL    HW154362   5.179   8.736   5.071  0.0559  0.3078  0.3750
14381SOL    HW254363   5.071   8.697   5.187 -1.5218  0.1184 -1.1274
14382SOL     OW54364   4.916   6.113   2.686 -0.0276 -0.1237  0.7354
14382SOL    HW154365   4.888   6.084   2.595 -0.1424 -2.4712  1.4752
14382SOL    HW254366   4.835   6.132   2.741  0.0501  1.8677  0.1955
14383SOL     OW54367   5.138   3.215   4.619 -0.4170 -0.3527  0.7770
14383SOL    HW154368   5.121   3.307   4.656  0.7207 -0.3669  1.3261
14383SOL    HW254369   5.175   3.156   4.690  1.8479 -0.3569 -0.3846
14384SOL     OW54370   3.358   1.885   4.960 -0.3421  0.5397  0.0120
14384SOL    HW154371   3.291   1.935   5.016  1.5240  3.3510 -0.1513
14384SOL    HW254372   3.438   1.864   5.015 -0.0865 -0.0914 -0.6011
14385SOL     OW54373   7.433   3.842   3.449  0.3784  0.4424 -0.1576
14385SOL    HW154374   7.337   3.814   3.459  0.2391  0.2691 -1.8475
14385SOL    HW254375   7.450   3.923   3.506 -0.8973  0.7661 -0.2159
14386SOL     OW54376   6.302   4.354   1.772  0.1310 -0.7144  0.5135
14386SOL    HW154377   6.341   4.325   1.860  0.4210  1.2188  1.0443
14386SOL    HW254378   6.339   4.297   1.699 -0.1785 -2.4085  1.6416
14387SOL     OW54379   7.680   4.841   5.911 -0.3739 -0.4286  0.1651
14387SOL    HW154380   7.773   4.878   5.911 -0.4081 -0.3530 -0.3625
14387SOL    HW254381   7.632   4.870   5.829 -1.2271  0.4288  0.9562
14388SOL     OW54382   2.329   5.502   3.088  0.1898 -0.3091  0.0335
14388SOL    HW154383   2.372   5.429   3.034 -0.9770 -1.0561  0.0917
14388SOL    HW254384   2.369   5.590   3.062  2.3738 -1.0579  0.7221
14389SOL     OW54385   1.139   4.243   1.430 -0.6488 -0.2168  0.6035
14389SOL    HW154386   1.192   4.187   1.493 -0.7561 -0.6958  0.2677
14389SOL    HW254387   1.071   4.186   1.384  1.1849 -0.4102 -1.9241
14390SOL     OW54388   8.655   9.451   0.655 -0.4052 -0.5283 -0.4772
14390SOL    HW154389   8.645   9.539   0.700 -0.0994 -1.6008  1.7767
14390SOL    HW254390   8.746   9.445   0.612 -0.4621  0.2828 -0.7069
14391SOL     OW54391   3.562   1.375   5.379 -0.4502  0.3276 -0.2546
14391SOL    HW154392   3.589   1.330   5.464 -0.6711  1.5869  0.4842
14391SOL    HW254393   3.587   1.316   5.301  1.4588  0.0049  0.5754
14392SOL     OW54394   7.553   1.221   0.699 -0.3597 -0.1610  0.5649
14392SOL    HW154395   7.500   1.295   0.741 -1.2815 -1.0553  1.0130
14392SOL    HW254396   7.502   1.183   0.621  0.2839 -0.0674  0.0894
14393SOL     OW54397   9.944   0.856   2.443 -0.7483 -0.1638  0.4031
14393SOL    HW154398   9.937   0.847   2.543  1.5441 -0.4428  0.5749
14393SOL    HW254399   9.913   0.772   2.400 -0.7558 -0.4416  0.9417
14394SOL     OW54400   9.474   4.517   4.248  0.2580 -0.1981  0.1071
14394SOL    HW154401   9.497   4.612   4.229  2.3233 -0.2749  1.9712
14394SOL    HW254402   9.536   4.457   4.198 -0.0643 -0.5443  0.1162
14395SOL     OW54403   2.890   7.034   5.680  0.1255  0.4319 -0.1117
14395SOL    HW154404   2.889   6.943   5.723 -1.2392 -0.3357 -1.6880
14395SOL    HW254405   2.875   7.104   5.750 -0.2046 -0.6536  0.9297
14396SOL     OW54406   2.963   8.956   3.146  0.2813 -0.1317 -0.1221
14396SOL    HW154407   2.918   8.868   3.132  1.0221 -0.4368 -0.6386
14396SOL    HW254408   2.904   9.029   3.113 -0.1195 -0.4780 -0.1739
14397SOL     OW54409   0.760   8.092   4.907  0.6827  0.1147  0.2505
14397SOL    HW154410   0.770   8.125   4.813 -3.1835  1.8341  0.3693
14397SOL    HW254411   0.705   8.156   4.960  0.6422 -2.1147  3.0308
14398SOL     OW54412   1.984   7.645   3.891 -0.1629 -0.1435 -0.2595
14398SOL    HW154413   1.982   7.713   3.964  0.4405 -0.3823 -0.0222
14398SOL    HW254414   1.953   7.688   3.806 -0.1298  0.3339 -0.0365
14399SOL     OW54415   3.540   8.850   2.915 -0.6780 -0.0521 -0.1258
14399SOL    HW154416   3.572   8.933   2.961 -0.4971  0.8670 -1.8429
14399SOL    HW254417   3.589   8.771   2.951  0.3992  0.8073  0.3380
14400SOL     OW54418   5.588   9.995   2.920 -0.1421 -0.3094  0.1346
14400SOL    HW154419   5.579   9.895   2.919  1.9683 -0.5119 -1.0326
14400SOL    HW254420   5.584  10.029   2.826  0.3971  0.6023  0.4380
14401SOL     OW54421   2.851   5.483   2.689  0.2896  0.3814 -0.6854
14401SOL    HW154422   2.945   5.498   2.658  0.8947  1.3304  1.5170
14401SOL    HW254423   2.852   5.443   2.781 -1.4683  0.0115 -0.8090
14402SOL     OW54424   1.949   6.890   8.103  0.5825  0.3451 -0.5530
14402SOL    HW154425   1.977   6.949   8.027  1.4388  0.4257 -0.1860
14402SOL    HW254426   1.870   6.931   8.150 -0.4790 -0.1326 -1.9036
14403SOL     OW54427   8.544   5.395   2.572  0.1956 -0.6774 -0.1561
14403SOL    HW154428   8.494   5.477   2.599  1.0558  0.3179 -1.5001
14403SOL    HW254429   8.482   5.332   2.525 -0.9492 -1.7566  2.6945
14404SOL     OW54430   0.241   3.564   3.141 -0.5027 -0.0166  0.6312
14404SOL    HW154431   0.329   3.529   3.110  0.4593  0.7902  2.3239
14404SOL    HW254432   0.166   3.513   3.099  0.7986 -1.4419  0.0460
14405SOL     OW54433   9.413   4.258   2.876 -0.2913  0.1244  0.0988
14405SOL    HW154434   9.461   4.272   2.789  0.5672 -1.0999  0.3669
14405SOL    HW254435   9.333   4.318   2.880 -0.6215 -0.1698 -1.7536
14406SOL     OW54436   0.083   5.190   4.079 -0.3217 -0.9418  0.3362
14406SOL    HW154437   0.125   5.100   4.086 -0.0213 -0.8898 -0.6764
14406SOL    HW254438   0.155   5.259   4.067 -0.7327 -1.0265 -3.0104
14407SOL     OW54439   4.887   0.873   6.185  0.2823  0.3168  0.3862
14407SOL    HW154440   4.797   0.903   6.152  0.6553  0.3378 -0.5973
14407SOL    HW254441   4.874   0.795   6.247 -0.2479 -1.4728 -1.8882
14408SOL     OW54442   9.208   7.737   4.863 -0.2944  0.1663 -0.4973
14408SOL    HW154443   9.265   7.807   4.821  0.0458  0.3447  0.2580
14408SOL    HW254444   9.168   7.772   4.948 -2.2664  0.3671 -1.4700
14409SOL     OW54445   1.289   4.047   2.654  0.0067 -0.4126 -0.6284
14409SOL    HW154446   1.346   4.078   2.577  0.2822 -3.6939 -1.8002
14409SOL    HW254447   1.194   4.073   2.637  0.3998  0.8238 -1.0031
14410SOL     OW54448   4.884   0.979   3.822  0.3417 -0.1001  0.1235
14410SOL    HW154449   4.910   0.982   3.918  0.3309  0.2915  0.1134
14410SOL    HW254450   4.784   0.985   3.814  0.4321  1.3340  0.0164
14411SOL     OW54451   1.993   9.692   1.238 -0.1296  0.2177 -0.7534
14411SOL    HW154452   1.946   9.761   1.293 -0.9125  0.4125 -1.6440
14411SOL    HW254453   1.998   9.606   1.289 -0.1937  0.5985 -0.0980
14412SOL     OW54454   2.087   8.698   4.922  0.0794  0.0595  0.0856
14412SOL    HW154455   2.077   8.686   5.021  0.0129 -1.7845 -0.1233
14412SOL    HW254456   2.182   8.716   4.900  0.5928 -2.1741  0.2797
14413SOL     OW54457   2.819   6.132   4.400 -0.1656 -0.3236  0.1945
14413SOL    HW154458   2.842   6.157   4.494  0.7119 -0.7494  0.1028
14413SOL    HW254459   2.754   6.056   4.402 -0.8681  0.2767  0.4564
14414SOL     OW54460   4.460   5.831   2.824  0.0601 -0.3336 -0.6434
14414SOL    HW154461   4.480   5.924   2.857 -1.6549 -0.0482 -0.3698
14414SOL    HW254462   4.385   5.792   2.877  0.2551 -1.5891 -1.2716
14415SOL     OW54463   8.343   1.449   0.937 -0.1740 -0.2749  0.4221
14415SOL    HW154464   8.429   1.401   0.957  0.2415 -0.1845 -1.0440
14415SOL    HW254465   8.282   1.387   0.888 -1.1013 -0.4503  1.7812
14416SOL     OW54466   3.063   9.260   2.268  0.0857 -0.5268 -0.0911
14416SOL    HW154467   3.013   9.268   2.182 -0.0662  1.5550  0.1750
14416SOL    HW254468   3.112   9.345   2.287 -1.2845 -0.2942  2.7117
14417SOL     OW54469   0.712   8.307   1.674  0.0385 -0.3500  0.1239
14417SOL    HW154470   0.727   8.208   1.669 -1.6547 -0.6653  0.8453
14417SOL    HW254471   0.654   8.327   1.753 -1.6600  0.9695 -1.4238
14418SOL     OW54472   3.571   7.400   2.794  0.2661  0.0681  0.0529
14418SOL    HW154473   3.478   7.385   2.761  0.1974  0.6099 -0.0049
14418SOL    HW254474   3.633   7.337   2.748 -0.3411 -1.6092  1.4649
14419SOL     OW54475   5.086   2.735   0.868  0.1521  0.0160 -0.2796
14419SOL    HW154476   5.113   2.645   0.902 -1.3733  0.1421  1.3371
14419SOL    HW254477   4.989   2.751   0.890  0.5717  2.2917 -0.0146
14420SOL     OW54478   7.432   3.280   2.770  1.0679  0.1849  0.4289
14420SOL    HW154479   7.406   3.358   2.712 -2.6503 -1.9226 -0.8982
14420SOL    HW254480   7.380   3.283   2.855 -0.5228 -1.7693 -0.4221
14421SOL     OW54481   6.823   1.186   4.144  0.3020  0.2087 -0.0925
14421SOL    HW154482   6.846   1.250   4.217  1.2887 -0.1129 -0.1148
14421SOL    HW254483   6.787   1.237   4.065  1.1230  0.7350 -0.1314
14422SOL     OW54484   4.599   9.242   2.324 -0.1318 -0.3084  0.0390
14422SOL    HW154485   4.618   9.169   2.258 -2.5714 -0.0840 -0.9842
14422SOL    HW254486   4.505   9.272   2.313 -0.2450  0.5204  2.9234
14423SOL     OW54487   0.568   6.748   5.702  0.6059 -0.4591 -0.1487
14423SOL    HW154488   0.547   6.718   5.796 -0.5424  0.6481 -0.0384
14423SOL    HW254489   0.540   6.677   5.638 -1.8476  0.2078  0.1288
14424SOL     OW54490   3.273   8.010   1.145 -0.2466 -0.5112  0.1150
14424SOL    HW154491   3.282   7.914   1.173 -0.7427 -0.9507 -1.1905
14424SOL    HW254492   3.352   8.062   1.179  0.7841 -1.6911 -0.4268
14425SOL     OW54493   0.044   5.129   3.012 -0.8154 -0.0991  0.3154
14425SOL    HW154494   0.107   5.206   3.007  0.1627 -0.8737  0.3505
14425SOL    HW254495  -0.019   5.142   3.088 -0.4326  0.4999  0.5358
14426SOL     OW54496   9.311   5.010   0.376 -0.1145  0.1759 -0.0348
14426SOL    HW154497   9.249   5.088   0.374 -0.3323  0.0891  2.1442
14426SOL    HW254498   9.404   5.042   0.396 -0.2992 -0.1559  1.4124
14427SOL     OW54499   7.070   3.047   0.643  0.2316 -0.4102 -0.1867
14427SOL    HW154500   7.017   3.046   0.728  1.5360  0.3111  0.6519
14427SOL    HW254501   7.165   3.024   0.663  0.3242 -1.3599 -1.6314
14428SOL     OW54502   8.726   2.836   0.540 -0.3400  0.3662  0.1555
14428SOL    HW154503   8.703   2.906   0.608 -0.0061  0.4472  0.1862
14428SOL    HW254504   8.679   2.856   0.454 -1.7233 -0.3980  0.7196
14429SOL     OW54505   8.802   0.927   6.233  0.3257  0.1339 -0.4129
14429SOL    HW154506   8.826   0.868   6.156 -0.6733 -0.8815  0.0366
14429SOL    HW254507   8.814   0.877   6.319  0.9325  1.0869  0.0754
14430SOL     OW54508   1.066   6.254   3.315  0.0951 -0.7200  0.0373
14430SOL    HW154509   1.078   6.330   3.251  1.1848  1.0156  2.2192
14430SOL    HW254510   1.080   6.167   3.267  1.1628  0.5463 -2.0124
14431SOL     OW54511   0.256   2.861   3.833  0.2873 -0.5731 -0.0854
14431SOL    HW154512   0.232   2.807   3.914 -0.4867  0.6069  0.4995
14431SOL    HW254513   0.355   2.873   3.829  0.2981 -0.2353  0.9738
14432SOL     OW54514   7.117   1.169   2.314  0.0536 -0.1512  0.2777
14432SOL    HW154515   7.073   1.217   2.390  0.4829  0.8700 -0.1082
14432SOL    HW254516   7.062   1.180   2.232  1.0124  1.1413 -0.2093
14433SOL     OW54517   3.114   5.705   2.134 -0.0387 -0.0256 -0.2145
14433SOL    HW154518   3.173   5.689   2.212  1.3736  1.7980 -0.8801
14433SOL    HW254519   3.104   5.803   2.119 -0.5782 -0.3479 -2.1087
14434SOL     OW54520   3.829   1.949   2.995 -0.1923 -0.8403  0.2277
14434SOL    HW154521   3.855   1.858   2.963 -1.1269 -1.2964  0.7401
14434SOL    HW254522   3.734   1.968   2.969 -0.7571 -0.9579  2.1279
14435SOL     OW54523   0.220   7.407   2.588 -0.3610 -0.7764 -0.2206
14435SOL    HW154524   0.130   7.391   2.628 -0.0689  0.6485  1.0674
14435SOL    HW254525   0.212   7.417   2.489 -2.3887  4.4876  0.3513
14436SOL     OW54526   3.990   1.149   0.726 -0.0366 -0.4083 -0.5227
14436SOL    HW154527   4.040   1.100   0.797 -1.5268 -0.1973  0.6828
14436SOL    HW254528   4.047   1.155   0.644  1.2713 -1.6089  0.2743
14437SOL     OW54529   2.455   9.313   0.338 -0.2014 -1.0213  0.0003
14437SOL    HW154530   2.538   9.257   0.336 -1.3941 -2.8729  0.8145
14437SOL    HW254531   2.478   9.407   0.364  1.1531 -2.5010  4.4963
14438SOL     OW54532   3.594   3.411   3.066  0.3407 -0.4563 -0.1366
14438SOL    HW154533   3.496   3.400   3.082  0.5826 -2.9428 -0.1329
14438SOL    HW254534   3.641   3.419   3.154  0.3993 -1.8986 -0.0275
14439SOL     OW54535   3.140   4.316   2.545 -0.7648 -0.2403 -0.7552
14439SOL    HW154536   3.158   4.302   2.448 -0.9882 -0.2087 -0.8002
14439SOL    HW254537   3.062   4.261   2.573 -2.1485  1.5070 -1.1118
14440SOL     OW54538   8.916   5.987   2.183 -0.0959 -0.3363 -0.0668
14440SOL    HW154539   8.859   5.921   2.134 -1.0207  0.5000 -0.1424
14440SOL    HW254540   8.859   6.059   2.221  0.8597  0.2251  0.3420
14441SOL     OW54541   3.166   6.149   2.461  0.5913 -0.9226  0.0346
14441SOL    HW154542   3.210   6.205   2.390  0.0238  1.0781  1.2048
14441SOL    HW254543   3.228   6.076   2.488  2.1690  0.2843 -0.1999
14442SOL     OW54544   2.331   0.640   4.353  0.1005 -0.2022  0.5080
14442SOL    HW154545   2.281   0.562   4.389  1.5773 -0.4832  1.9696
14442SOL    HW254546   2.335   0.713   4.422  0.9969  0.1277  0.1248
14443SOL     OW54547   8.035   0.745   5.920  0.2671 -0.2361 -0.1408
14443SOL    HW154548   8.058   0.667   5.861 -0.5489 -0.9375  0.4672
14443SOL    HW254549   8.106   0.757   5.989  0.3633 -0.4867 -0.1948
14444SOL     OW54550   2.530   1.983   5.615 -0.2054  0.1889 -0.0219
14444SOL    HW154551   2.494   1.961   5.524 -0.8277 -1.1848  0.5397
14444SOL    HW254552   2.626   1.954   5.620 -0.0999  0.4875 -0.3230
14445SOL     OW54553   1.918   6.216   4.056  0.2086  0.1269 -0.6193
14445SOL    HW154554   1.862   6.269   4.121  0.4106  2.0441 -1.9709
14445SOL    HW254555   1.871   6.132   4.032 -0.2315 -0.2317  1.4057
14446SOL     OW54556   4.462   0.087   2.473 -0.0491 -0.6704  0.0435
14446SOL    HW154557   4.372   0.046   2.488 -1.2559  2.1582  0.8423
14446SOL    HW254558   4.502   0.114   2.561  1.5497 -1.7776 -0.3146
14447SOL     OW54559   4.213   3.102   3.719  0.1571 -0.4591 -0.0529
14447SOL    HW154560   4.169   3.023   3.675 -2.0866  0.6307  0.1466
14447SOL    HW254561   4.153   3.137   3.791  0.9216  1.7019 -0.4405
14448SOL     OW54562   1.798   7.731   3.042  0.8107 -0.2357 -0.4236
14448SOL    HW154563   1.755   7.756   2.955 -0.2079 -1.1440 -0.1872
14448SOL    HW254564   1.859   7.653   3.027  0.9135 -0.1613 -0.3916
14449SOL     OW54565   5.658   1.006   1.252 -0.2353  0.2254 -0.1725
14449SOL    HW154566   5.686   1.011   1.348  1.2423  0.5171 -0.5979
14449SOL    HW254567   5.616   1.093   1.226 -0.6618  0.1390  0.2161
14450SOL     OW54568   9.235   9.660   3.160  0.2746  0.7043 -0.0079
14450SOL    HW154569   9.259   9.622   3.250  0.4546  0.9287  0.0368
14450SOL    HW254570   9.216   9.757   3.169 -2.3199  0.2121  0.2682
14451SOL     OW54571   7.219   9.038   5.858  0.1165  0.1367  0.1874
14451SOL    HW154572   7.159   8.959   5.843  0.0297  0.2323  0.0308
14451SOL    HW254573   7.168   9.122   5.842 -0.1142  0.2641  1.4957
14452SOL     OW54574   7.639   1.454   6.829 -0.0525  0.1611 -0.4332
14452SOL    HW154575   7.701   1.444   6.907  0.4990  0.4666 -0.8311
14452SOL    HW254576   7.680   1.412   6.748 -0.9321 -0.7791 -0.4026
14453SOL     OW54577   7.836   2.581   3.963 -0.1325  0.3458 -0.4781
14453SOL    HW154578   7.881   2.575   3.874 -0.1604 -0.8806 -0.4183
14453SOL    HW254579   7.892   2.638   4.024  0.1054  0.8314 -1.1392
14454SOL     OW54580   4.052   5.759   1.040  0.3434 -0.0184 -0.0501
14454SOL    HW154581   4.074   5.687   0.974  0.2577  0.4233 -0.5610
14454SOL    HW254582   4.116   5.754   1.117  0.1304 -0.8516  0.0791
14455SOL     OW54583   8.351   1.584   3.712 -0.4783 -0.0320  0.1288
14455SOL    HW154584   8.388   1.598   3.804  0.6389 -1.1634 -0.1369
14455SOL    HW254585   8.277   1.649   3.695  0.8942  1.7642  0.9550
14456SOL     OW54586   7.052   4.235   2.116  0.1477  0.1265  0.2928
14456SOL    HW154587   7.028   4.321   2.071  1.0389 -0.3799 -1.1738
14456SOL    HW254588   6.971   4.177   2.122  0.0774  0.0921 -0.9072
14457SOL     OW54589   7.072   7.884   5.782  0.1131 -0.0266 -0.0674
14457SOL    HW154590   7.068   7.950   5.858 -0.0323 -0.1214  0.0076
14457SOL    HW254591   7.005   7.910   5.712 -0.3435 -0.4149  0.2209
14458SOL     OW54592   7.705   1.425   8.128 -0.0214 -0.4443  0.5988
14458SOL    HW154593   7.780   1.372   8.169 -0.3091 -2.0591 -0.9009
14458SOL    HW254594   7.743   1.503   8.079  0.5420 -0.2000  1.4143
14459SOL     OW54595   5.468   5.154   1.798  0.1257 -0.3153  0.1273
14459SOL    HW154596   5.401   5.102   1.851 -0.5597  1.0368  0.5950
14459SOL    HW254597   5.546   5.095   1.776 -1.0089 -1.7669 -0.0473
14460SOL     OW54598   0.647   0.718   0.247  0.2829  0.3431  0.6010
14460SOL    HW154599   0.616   0.743   0.339 -1.7835 -2.3807  0.7005
14460SOL    HW254600   0.713   0.643   0.253  1.1485  1.0358 -0.0818
14461SOL     OW54601   9.217   3.494   3.087 -0.2929  0.2290 -0.2099
14461SOL    HW154602   9.161   3.562   3.133 -1.6835 -0.6714 -0.5226
14461SOL    HW254603   9.165   3.455   3.011  1.4892  0.7676 -1.7295
14462SOL     OW54604   3.533   0.500   5.351 -0.2669  0.0861  0.4255
14462SOL    HW154605   3.522   0.424   5.287  0.8304 -0.1127  0.4601
14462SOL    HW254606   3.445   0.520   5.393 -0.4584 -1.6081  0.8994
14463SOL     OW54607   1.410   1.854   3.167 -0.6849  0.2247 -0.0863
14463SOL    HW154608   1.480   1.789   3.198  1.6853  1.5330 -2.4785
14463SOL    HW254609   1.389   1.836   3.071 -2.0350  1.2753 -0.0058
14464SOL     OW54610   3.961   0.734   3.222 -0.1466 -0.6056 -0.0233
14464SOL    HW154611   3.947   0.753   3.125 -0.1114 -2.4659 -0.4165
14464SOL    HW254612   3.874   0.709   3.265  0.0148 -0.8382  0.1729
14465SOL     OW54613   8.090   5.055   5.089  0.1841 -0.3581  0.4960
14465SOL    HW154614   8.166   4.990   5.095 -0.0670 -0.6048  1.0702
14465SOL    HW254615   8.011   5.017   5.136 -0.5669 -0.4779 -0.8220
14466SOL     OW54616   3.159   7.638   6.280  0.1826  0.1324 -0.1458
14466SOL    HW154617   3.173   7.706   6.351 -0.1260  0.7070 -0.6274
14466SOL    HW254618   3.061   7.625   6.265  0.2450 -0.0396 -0.4124
14467SOL     OW54619   4.770   5.351   3.510  0.0418 -0.2481  0.3618
14467SOL    HW154620   4.747   5.383   3.418 -0.5065 -0.4191  0.4349
14467SOL    HW254621   4.732   5.414   3.577  0.3401 -0.1858  0.4690
14468SOL     OW54622   7.415   4.037   3.619 -0.6580 -0.1011  0.1292
14468SOL    HW154623   7.494   4.092   3.644  0.8131 -1.2140 -1.8930
14468SOL    HW254624   7.357   4.088   3.556  0.2890 -0.5458 -1.1186
14469SOL     OW54625   0.966   7.365   4.098  0.3441 -0.3692  0.4026
14469SOL    HW154626   0.960   7.270   4.065  0.0904 -0.8216  1.7139
14469SOL    HW254627   0.892   7.382   4.163  0.6181  0.6197  0.4658
14470SOL     OW54628   2.691   3.061   3.862  0.5767  0.1134 -0.4476
14470SOL    HW154629   2.656   2.968   3.854 -0.9335  0.8786 -3.3562
14470SOL    HW254630   2.779   3.067   3.815  0.7223  0.1436 -0.1720
14471SOL     OW54631   2.286   1.589   1.460 -0.6561  0.3688  0.1358
14471SOL    HW154632   2.304   1.499   1.421  0.2296  0.6125 -0.0204
14471SOL    HW254633   2.201   1.586   1.512 -3.3876  0.7637 -4.1236
14472SOL     OW54634   5.705   8.773   2.920  0.2804  0.0972  0.3021
14472SOL    HW154635   5.789   8.748   2.873  0.1744  1.1346 -0.4578
14472SOL    HW254636   5.692   8.872   2.915 -1.3955 -0.1239 -0.2993
14473SOL     OW54637   8.376   3.770   3.378  0.4358 -0.4272 -0.0834
14473SOL    HW154638   8.326   3.856   3.388  0.3361 -0.4336 -0.5253
14473SOL    HW254639   8.319   3.703   3.330  0.9246 -0.3845 -0.7288
14474SOL     OW54640   5.114   1.068   3.700 -0.1037 -0.6662 -0.6397
14474SOL    HW154641   5.138   1.042   3.606 -0.0044 -0.3669 -0.6982
14474SOL    HW254642   5.023   1.033   3.722 -1.4489  1.8571 -1.9044
14475SOL     OW54643   2.137   6.929   5.819 -0.2836 -0.5124  0.0771
14475SOL    HW154644   2.125   7.016   5.771  1.0950 -0.6085 -0.4508
14475SOL    HW254645   2.052   6.907   5.868 -1.1467  0.4021 -0.9616
14476SOL     OW54646   0.332   7.278   5.944 -0.4940  0.2244  0.3899
14476SOL    HW154647   0.353   7.195   5.994  0.5771  0.7207  0.7797
14476SOL    HW254648   0.414   7.312   5.899 -0.8960  1.1169  0.2999
14477SOL     OW54649   0.251   2.327   6.398 -0.0511  0.2017 -0.4706
14477SOL    HW154650   0.200   2.405   6.361 -1.1038 -0.0388  0.4509
14477SOL    HW254651   0.342   2.358   6.426  0.1074  0.7636 -1.5620
14478SOL     OW54652   6.646   0.378   4.461 -0.1134 -0.2997  0.3824
14478SOL    HW154653   6.561   0.430   4.450 -0.4314 -1.2230 -1.8012
14478SOL    HW254654   6.716   0.416   4.401 -0.0730 -1.7900 -0.5365
14479SOL     OW54655   4.832   9.601   6.797  0.1648  0.1065  0.0785
14479SOL    HW154656   4.862   9.572   6.706  0.4807  0.0799  0.1940
14479SOL    HW254657   4.734   9.624   6.793  0.3310  0.7386 -0.4151
14480SOL     OW54658   9.424   3.826   6.037  0.4016  0.3823  0.4072
14480SOL    HW154659   9.343   3.855   6.088  0.7251 -0.6097  1.5020
14480SOL    HW254660   9.397   3.791   5.947 -0.4945 -1.0783  1.2418
14481SOL     OW54661   8.109   2.508   8.117 -0.6280  0.1291  0.1133
14481SOL    HW154662   8.016   2.476   8.134 -1.1043  1.1099 -0.6025
14481SOL    HW254663   8.106   2.597   8.072  0.6626  0.3236  0.3823
14482SOL     OW54664   2.066   1.623   5.920 -0.2208  0.4048  0.0701
14482SOL    HW154665   1.989   1.655   5.975 -0.9665 -0.3519 -0.5281
14482SOL    HW254666   2.037   1.616   5.824  0.2584 -1.0062  0.0280
14483SOL     OW54667   0.419   9.261   1.865 -0.1691  0.2794  0.7182
14483SOL    HW154668   0.459   9.241   1.954 -2.7741 -1.4856  1.5505
14483SOL    HW254669   0.325   9.292   1.877 -0.1365  1.2946 -1.3609
14484SOL     OW54670   3.487   9.438   5.667  0.4916  0.0840 -0.5159
14484SOL    HW154671   3.389   9.446   5.686 -0.0488 -0.6850 -2.8829
14484SOL    HW254672   3.504   9.360   5.607  2.2766  1.6870 -2.1609
14485SOL     OW54673   2.150   5.632   2.185 -0.5426 -0.3577  0.1204
14485SOL    HW154674   2.246   5.618   2.207 -0.1626  0.0208 -1.2399
14485SOL    HW254675   2.105   5.543   2.176 -0.1851 -0.5471  0.1994
14486SOL     OW54676   1.194   9.440   3.637  0.0899 -0.3354  0.2418
14486SOL    HW154677   1.109   9.451   3.585  1.3565 -2.8404 -2.4979
14486SOL    HW254678   1.272   9.458   3.578  1.5180  2.0441  2.7658
14487SOL     OW54679   9.724   3.220   5.719 -0.2770  0.2269  0.1084
14487SOL    HW154680   9.819   3.244   5.699  0.1127 -1.3052  0.0431
14487SOL    HW254681   9.692   3.273   5.797  1.1246 -0.2990  1.0655
14488SOL     OW54682   9.199   3.690   2.138 -0.1158  0.3660 -0.2499
14488SOL    HW154683   9.249   3.607   2.116  1.1764  0.8810  0.7392
14488SOL    HW254684   9.222   3.762   2.072 -1.1216  0.0004 -1.0171
14489SOL     OW54685   0.908   8.002   2.917  0.2185 -0.3420  0.0021
14489SOL    HW154686   0.907   7.916   2.969  2.2180 -0.2466  0.2022
14489SOL    HW254687   0.915   8.079   2.980 -3.1168  0.1078 -0.0660
14490SOL     OW54688   8.438   8.869   3.742 -0.0060  0.4087  0.3411
14490SOL    HW154689   8.412   8.886   3.647 -1.1561  0.5844  0.6824
14490SOL    HW254690   8.476   8.953   3.781  0.7999  0.2394 -0.0648
14491SOL     OW54691   8.738   6.972   0.440  0.0655 -0.0490  0.0030
14491SOL    HW154692   8.803   7.042   0.469  0.8053 -0.3437 -0.9352
14491SOL    HW254693   8.653   7.016   0.411  0.2967  0.4150  0.0198
14492SOL     OW54694   6.847   9.475   2.665 -0.2684  0.3378  0.1380
14492SOL    HW154695   6.924   9.440   2.718 -0.6977  0.9290  1.1667
14492SOL    HW254696   6.774   9.503   2.727 -0.9587  0.6167 -0.7898
14493SOL     OW54697   9.172   5.910   0.852 -0.5753 -0.2580 -0.3950
14493SOL    HW154698   9.090   5.948   0.809 -0.0886 -1.2171 -2.2271
14493SOL    HW254699   9.203   5.971   0.925 -2.5582  0.4197 -0.0896
14494SOL     OW54700   3.001   1.691   0.748  0.6958  0.2213 -0.1238
14494SOL    HW154701   3.017   1.673   0.651  1.9902 -1.1983  0.3308
14494SOL    HW254702   3.044   1.778   0.773  2.0695 -0.3591 -0.4032
14495SOL     OW54703   6.194   0.125   4.611  0.2098  0.1255  0.3001
14495SOL    HW154704   6.130   0.183   4.662  1.9968  1.6115  0.8883
14495SOL    HW254705   6.184   0.142   4.513 -2.0638 -1.5275  0.1910
14496SOL     OW54706   6.587   2.503   5.863 -0.0616 -0.1908 -0.6844
14496SOL    HW154707   6.587   2.573   5.791  1.8334  0.6776  0.1245
14496SOL    HW254708   6.500   2.507   5.913 -0.7287  0.3037 -1.8535
14497SOL     OW54709   7.242   4.897   0.981  0.4561  0.2709 -0.4240
14497SOL    HW154710   7.255   4.937   0.891  0.4363  0.5094 -0.3206
14497SOL    HW254711   7.188   4.813   0.973  1.8955 -0.6396 -0.8430
14498SOL     OW54712   4.533   9.263   3.191 -0.2858 -0.0257 -0.2482
14498SOL    HW154713   4.464   9.194   3.168 -0.1309  0.7685 -3.2801
14498SOL    HW254714   4.503   9.352   3.158  2.1519  0.3369 -1.6107
14499SOL     OW54715   9.121   3.908   4.603  0.4024 -0.1618  0.4112
14499SOL    HW154716   9.205   3.950   4.636 -0.9257  1.4064  1.8937
14499SOL    HW254717   9.061   3.888   4.681 -0.4150 -1.6729 -0.5789
14500SOL     OW54718   1.837   5.305   1.315  0.4074 -0.4444 -0.1474
14500SOL    HW154719   1.795   5.379   1.262  0.8374 -0.2048 -0.1589
14500SOL    HW254720   1.881   5.343   1.396 -0.0989 -0.7916  0.2915
14501SOL     OW54721   1.093   9.600   5.692  0.1454  0.6697 -0.0897
14501SOL    HW154722   1.003   9.615   5.732  1.4326  0.5252  2.9901
14501SOL    HW254723   1.157   9.668   5.728  1.5442 -0.0179 -1.2407
14502SOL     OW54724   8.592   1.843   3.065 -0.1547  0.2855 -0.8305
14502SOL    HW154725   8.625   1.932   3.033  0.8313 -0.0533 -0.7573
14502SOL    HW254726   8.494   1.836   3.046 -0.4184  1.7268 -0.0690
14503SOL     OW54727   3.911   2.653   5.198 -0.5524  0.4293 -0.0830
14503SOL    HW154728   4.000   2.669   5.240 -0.4370 -0.5604  0.0691
14503SOL    HW254729   3.841   2.643   5.270 -0.6871  0.6669 -0.1820
14504SOL     OW54730   9.726   4.693   3.504  0.2904  0.8304 -0.3438
14504SOL    HW154731   9.683   4.628   3.567  1.7009  0.8120  0.6272
14504SOL    HW254732   9.670   4.701   3.421  0.3299 -1.9672 -0.7004
14505SOL     OW54733   7.622   0.943   4.380  0.1056  0.0531 -0.0453
14505SOL    HW154734   7.676   0.907   4.304  0.4773  0.7731 -0.1204
14505SOL    HW254735   7.661   0.911   4.467  0.1843 -0.0690 -0.1254
14506SOL     OW54736   1.966   4.385   2.159  0.0219  0.1455  0.3388
14506SOL    HW154737   1.944   4.357   2.065  1.1934  3.3107 -0.9564
14506SOL    HW254738   2.057   4.353   2.184  0.3747  0.6665 -0.2475
14507SOL     OW54739   8.198   5.044   4.105  0.0594 -0.1463 -0.1296
14507SOL    HW154740   8.276   5.107   4.110  1.7369 -1.9657 -2.5891
14507SOL    HW254741   8.204   4.977   4.179 -1.1928  1.8506  1.8857
14508SOL     OW54742   1.034   3.881   0.284 -0.0086 -0.3533 -0.4851
14508SOL    HW154743   1.102   3.871   0.211  0.6852 -1.6151  0.3223
14508SOL    HW254744   0.974   3.959   0.263  1.9025  1.0125 -1.0160
14509SOL     OW54745   3.268   5.232   1.721 -0.1914  0.0336  0.1044
14509SOL    HW154746   3.363   5.262   1.717 -0.7512  1.8236 -0.5664
14509SOL    HW254747   3.255   5.168   1.797  1.5313 -0.2400  0.1819
14510SOL     OW54748   4.612   4.590   4.997  0.1023 -0.1370  0.6382
14510SOL    HW154749   4.630   4.668   4.938 -0.2439 -0.1454  0.5215
14510SOL    HW254750   4.640   4.506   4.952  1.0046 -0.0322  0.9906
14511SOL     OW54751   2.473   4.760   2.502  0.0454  0.5922 -0.0941
14511SOL    HW154752   2.565   4.732   2.473  0.4622 -0.0262  1.7130
14511SOL    HW254753   2.473   4.857   2.526  0.1321  0.6952 -0.5198
14512SOL     OW54754   4.810   8.033   5.349 -0.0260 -0.0984 -0.0121
14512SOL    HW154755   4.823   8.132   5.353 -0.3437 -0.0888  0.7450
14512SOL    HW254756   4.731   8.007   5.405  0.4919 -0.8583  0.3761
14513SOL     OW54757   8.930   9.941   3.285 -0.2211  0.8020  0.6708
14513SOL    HW154758   8.853   9.903   3.233  1.5787 -0.9365 -0.7872
14513SOL    HW254759   8.965   9.872   3.347  1.3853  0.9330 -0.0630
14514SOL     OW54760   1.072   7.515   6.330  0.8168 -0.0912 -0.3452
14514SOL    HW154761   1.121   7.429   6.319  0.5669  0.1191 -3.4354
14514SOL    HW254762   1.131   7.590   6.300  0.4198  0.6637  0.7446
14515SOL     OW54763   8.047   2.656   0.301  0.5156  0.0858 -0.1659
14515SOL    HW154764   8.134   2.626   0.340  1.6974 -0.4541 -3.0848
14515SOL    HW254765   8.043   2.756   0.301  0.0430  0.1048  2.1838
14516SOL     OW54766   4.732   2.227   5.551  0.9222  0.1093 -0.4933
14516SOL    HW154767   4.666   2.302   5.548  0.6451 -0.0618  1.0394
14516SOL    HW254768   4.793   2.233   5.472  0.4727  1.5538 -0.7429
14517SOL     OW54769   2.025   0.285   3.012  1.1302  0.1423 -0.0984
14517SOL    HW154770   2.044   0.259   3.106 -0.3850 -1.0331 -0.0905
14517SOL    HW254771   2.027   0.204   2.953 -0.8544  0.3738 -0.5542
14518SOL     OW54772   6.617   7.974   3.810 -0.0252  0.0465 -0.1824
14518SOL    HW154773   6.682   7.946   3.881 -2.4802  0.8182  2.4356
14518SOL    HW254774   6.552   7.900   3.793 -0.5369  0.5259 -0.3205
14519SOL     OW54775   1.944   2.845   4.927 -0.2294  0.5774 -0.5403
14519SOL    HW154776   1.941   2.940   4.959  0.4995  0.2089  0.6351
14519SOL    HW254777   2.038   2.814   4.924 -0.4551 -0.0544 -1.0944
14520SOL     OW54778   3.305   5.739   2.334 -0.3501 -0.4438 -0.0825
14520SOL    HW154779   3.336   5.828   2.368  2.1266 -0.7557 -1.4254
14520SOL    HW254780   3.308   5.672   2.409 -0.6638  0.2106  0.5236
14521SOL     OW54781   9.553   3.793   2.729 -0.3382  0.0616 -0.2802
14521SOL    HW154782   9.571   3.726   2.801  1.0097  0.6967 -0.0074
14521SOL    HW254783   9.627   3.860   2.727 -0.7364  0.4698 -1.7813
14522SOL     OW54784   0.883   6.730   2.348  0.1245  0.1739  0.4996
14522SOL    HW154785   0.844   6.792   2.280  0.4216 -0.8795 -0.6412
14522SOL    HW254786   0.889   6.778   2.436 -0.5707  1.4395 -0.1155
14523SOL     OW54787   9.843   9.958   3.952 -0.3992  0.3101 -0.6117
14523SOL    HW154788   9.756   9.983   3.995 -0.1066  0.6148 -0.2050
14523SOL    HW254789   9.829   9.950   3.853 -0.8458  0.5579 -0.5729
14524SOL     OW54790   1.534   7.547   3.735 -0.1095 -0.5940  0.5875
14524SOL    HW154791   1.526   7.584   3.642 -1.2055 -1.7502  0.1982
14524SOL    HW254792   1.576   7.615   3.795 -0.8420  0.7551 -0.4033
14525SOL     OW54793   6.211   3.099   4.166  0.0913  0.3017  0.1124
14525SOL    HW154794   6.255   3.189   4.174 -0.5240  0.5261  1.0085
14525SOL    HW254795   6.187   3.065   4.257 -0.2049 -0.5136 -0.2631
14526SOL     OW54796   2.015   3.667   5.726  0.0770  0.1125  0.2480
14526SOL    HW154797   2.075   3.721   5.668 -0.1760  0.1739  0.0469
14526SOL    HW254798   1.965   3.728   5.789  0.2968  0.0534  0.4824
14527SOL     OW54799   8.474   2.026   8.185  0.2066 -0.5924  0.6303
14527SOL    HW154800   8.386   2.072   8.176  1.6090  2.3030  1.1787
14527SOL    HW254801   8.517   2.018   8.095  0.8667  1.0936  0.7753
14528SOL     OW54802   2.909   4.266   4.475 -0.0223 -0.0571  0.3365
14528SOL    HW154803   2.933   4.178   4.434 -1.7441 -0.8479  0.9472
14528SOL    HW254804   2.981   4.295   4.537  1.4093 -0.1199 -1.2722
14529SOL     OW54805   1.563   3.870   1.718  0.2361  0.1731 -0.4947
14529SOL    HW154806   1.554   3.966   1.692 -1.9954  0.2017  0.2519
14529SOL    HW254807   1.547   3.812   1.638 -0.3962  0.3854 -0.5224
14530SOL     OW54808   2.874   7.134   2.521  0.1323  0.3600  0.1280
14530SOL    HW154809   2.860   7.080   2.438 -1.2406  0.4000  0.3184
14530SOL    HW254810   2.962   7.180   2.517  0.3058 -0.0668 -1.0647
14531SOL     OW54811   8.330   7.973   4.694  0.4188 -0.4153 -0.0465
14531SOL    HW154812   8.312   8.068   4.668 -1.4887 -0.5352  0.7032
14531SOL    HW254813   8.424   7.964   4.725  0.5411  1.2896  0.1201
14532SOL     OW54814   8.475   1.750   0.367 -0.4004  0.2676  0.6259
14532SOL    HW154815   8.474   1.839   0.320  2.2406  0.1464  0.2971
14532SOL    HW254816   8.386   1.736   0.411 -1.5035  2.2441 -0.8341
14533SOL     OW54817   3.289   7.262   3.612 -0.6065  0.9455 -0.3741
14533SOL    HW154818   3.251   7.174   3.584  2.1783 -0.1677 -0.7427
14533SOL    HW254819   3.328   7.309   3.533  2.5576  0.1468  0.6486
14534SOL     OW54820   3.339   7.756   1.165  0.0763 -0.0102  0.0314
14534SOL    HW154821   3.272   7.756   1.091  0.8568 -1.0955 -0.7007
14534SOL    HW254822   3.301   7.709   1.244  0.2179 -1.3097 -0.6479
14535SOL     OW54823   3.192   3.256   2.675 -0.2258  0.5781  0.0548
14535SOL    HW154824   3.211   3.258   2.577 -1.9669  1.3436 -0.2968
14535SOL    HW254825   3.103   3.300   2.692 -0.1471  0.0418  1.9210
14536SOL     OW54826   0.205   8.524   1.327  0.2873 -0.0101 -0.1168
14536SOL    HW154827   0.112   8.532   1.362  0.3287 -2.6448  0.6813
14536SOL    HW254828   0.250   8.614   1.332 -1.9106  1.1110  0.2536
14537SOL     OW54829   1.784   1.105   2.511  0.1319  0.2813  0.0891
14537SOL    HW154830   1.754   1.199   2.532 -0.1617  0.3341 -0.5410
14537SOL    HW254831   1.717   1.062   2.450  1.5517  0.5435 -1.6839
14538SOL     OW54832   4.339   3.601   1.242  0.8547  0.1215 -0.1170
14538SOL    HW154833   4.295   3.636   1.324  4.1659  0.5906  1.5515
14538SOL    HW254834   4.374   3.509   1.259  0.6183 -0.2236 -1.3909
14539SOL     OW54835   8.466   6.986   1.359 -0.2358  0.1566  0.1724
14539SOL    HW154836   8.429   7.041   1.433 -0.0924  0.3334  0.1125
14539SOL    HW254837   8.556   7.022   1.331 -1.2600  1.4421 -1.5810
14540SOL     OW54838   4.357   1.108   0.197  0.0336 -0.3622 -0.3343
14540SOL    HW154839   4.268   1.124   0.153 -1.1608  0.5905  2.3105
14540SOL    HW254840   4.396   1.195   0.225  0.9930 -0.9249  0.0854
14541SOL     OW54841   9.665   1.510   2.121 -0.4244 -0.1249  0.4972
14541SOL    HW154842   9.679   1.551   2.211 -0.5316 -3.1474  1.9808
14541SOL    HW254843   9.570   1.522   2.093 -0.7037 -0.2457  1.3755
14542SOL     OW54844   5.767   2.504   4.916 -0.0598  0.4626  0.1857
14542SOL    HW154845   5.703   2.489   4.840 -1.2605  1.0564  1.0531
14542SOL    HW254846   5.718   2.490   5.003  1.0598  0.7064  0.8566
14543SOL     OW54847   8.503   3.030   3.144  0.4833 -0.1683  0.2450
14543SOL    HW154848   8.579   2.975   3.178  1.0857 -0.2324 -1.2085
14543SOL    HW254849   8.466   2.988   3.061  0.8450  1.5310 -0.7903
14544SOL     OW54850   5.156   2.474   4.955  0.2593  0.0113 -0.0283
14544SOL    HW154851   5.090   2.430   5.017 -0.8517  1.3587 -0.2324
14544SOL    HW254852   5.108   2.507   4.874  1.0174  1.8886  0.2793
14545SOL     OW54853   2.658   8.926   4.494  0.3027  0.1018 -0.3569
14545SOL    HW154854   2.593   8.854   4.471 -0.4227  0.3107  1.0269
14545SOL    HW254855   2.718   8.943   4.415 -1.7521  0.3994 -1.8951
14546SOL     OW54856   3.479   1.691   3.692  0.4121  0.4265 -0.2633
14546SOL    HW154857   3.548   1.677   3.621  0.5902  0.0572 -0.0154
14546SOL    HW254858   3.523   1.698   3.781  0.1751  0.7497 -0.1683
14547SOL     OW54859   1.809   1.707   0.526 -0.0494  0.7194  0.3314
14547SOL    HW154860   1.893   1.728   0.476 -0.2872  1.7483  0.3488
14547SOL    HW254861   1.818   1.739   0.621 -0.6227  1.2477  0.2119
14548SOL     OW54862   4.228   2.364   5.239 -0.3539  0.0057 -0.1518
14548SOL    HW154863   4.286   2.437   5.276 -0.4404  0.0954 -0.1928
14548SOL    HW254864   4.134   2.378   5.269 -0.1734 -0.7080  0.7546
14549SOL     OW54865   4.914   0.620   3.028 -0.2557 -0.0438  0.5535
14549SOL    HW154866   4.910   0.691   3.098 -2.3145 -0.7024  1.1407
14549SOL    HW254867   4.944   0.660   2.942 -1.1804  1.5069  0.9278
14550SOL     OW54868   9.277   7.869   1.713  0.7509  0.1105  0.2065
14550SOL    HW154869   9.283   7.862   1.813  1.3908 -0.5519  0.1219
14550SOL    HW254870   9.202   7.931   1.689  0.8194  0.5546  1.1034
14551SOL     OW54871   3.646   1.039   2.913 -0.0137  0.0877  0.5680
14551SOL    HW154872   3.695   1.033   2.827 -1.0759  1.6583 -0.1817
14551SOL    HW254873   3.579   1.113   2.908 -0.5999 -0.2748  2.4863
14552SOL     OW54874   0.109   8.355   4.378  0.1532  0.2943  0.3679
14552SOL    HW154875   0.137   8.332   4.284  0.1318  1.0917  0.1587
14552SOL    HW254876   0.106   8.272   4.433  2.0523  0.0718  0.1636
14553SOL     OW54877   0.474   4.517   5.129 -0.1030  0.0144  0.2792
14553SOL    HW154878   0.501   4.509   5.033  0.1839  0.0629  0.3549
14553SOL    HW254879   0.556   4.520   5.186 -0.2782 -1.3643  0.6397
14554SOL     OW54880   4.234   2.490   0.942  0.1825  0.3281  0.6009
14554SOL    HW154881   4.290   2.573   0.936  0.9008 -0.3092 -2.1132
14554SOL    HW254882   4.232   2.458   1.037  1.7990  2.1503  1.2828
14555SOL     OW54883   7.358   4.723   2.668  0.1175  0.0519  0.5854
14555SOL    HW154884   7.377   4.676   2.754 -0.1954  1.1204  1.2377
14555SOL    HW254885   7.444   4.748   2.624  0.2623  0.8925  1.3487
14556SOL     OW54886   6.652   9.600   2.828 -0.3776  0.1829 -0.1213
14556SOL    HW154887   6.557   9.594   2.860 -0.2015 -0.5548  0.2820
14556SOL    HW254888   6.656   9.658   2.747 -1.1651  0.3009 -0.0816
14557SOL     OW54889   2.241   0.399   1.835  0.5026  0.5329  0.2251
14557SOL    HW154890   2.319   0.339   1.817 -1.7975 -3.1877  2.0810
14557SOL    HW254891   2.173   0.387   1.762 -1.1216 -1.1949  1.9806
14558SOL     OW54892   8.022   6.220   1.994  0.3912 -0.2912 -0.1344
14558SOL    HW154893   8.014   6.278   1.912  1.1184 -0.7462 -0.5289
14558SOL    HW254894   8.037   6.278   2.074 -0.6435  0.1824 -0.2740
14559SOL     OW54895   3.196   0.464   2.337 -0.0856 -0.1911  0.0031
14559SOL    HW154896   3.184   0.562   2.352 -1.8571  0.0109 -2.3474
14559SOL    HW254897   3.183   0.443   2.240  0.8046 -2.6916  0.3710
14560SOL     OW54898   9.541   1.727   2.724  0.1371  0.5895 -0.3089
14560SOL    HW154899   9.635   1.716   2.755  0.3240 -0.4620 -1.1941
14560SOL    HW254900   9.501   1.636   2.708 -0.4602  1.0637 -1.5784
14561SOL     OW54901   2.203   7.665   0.193  0.2829  0.0481 -0.0187
14561SOL    HW154902   2.297   7.630   0.184  0.6769  0.6876  1.4698
14561SOL    HW254903   2.178   7.667   0.290 -1.4087 -0.4582 -0.4376
14562SOL     OW54904   3.937   8.237   0.916 -0.1338  0.3228  0.4079
14562SOL    HW154905   3.893   8.179   0.848  1.7112 -1.3810  0.6188
14562SOL    HW254906   4.006   8.295   0.872  1.0275 -0.7458  0.7905
14563SOL     OW54907   7.228   1.559   2.016  0.4506  0.2920  0.0703
14563SOL    HW154908   7.229   1.633   1.949 -0.3247  1.7977  1.6802
14563SOL    HW254909   7.320   1.520   2.024  1.2793  2.2724  0.4644
14564SOL     OW54910   0.573   7.578   0.482 -0.3171  0.3234  0.6618
14564SOL    HW154911   0.611   7.636   0.410 -1.8472 -0.0478 -0.4749
14564SOL    HW254912   0.621   7.490   0.483  0.1474  0.5753  0.5385
14565SOL     OW54913   2.290   4.476   3.214 -0.3778 -0.7739 -0.4087
14565SOL    HW154914   2.316   4.512   3.304 -0.5513 -0.1946 -0.5854
14565SOL    HW254915   2.285   4.552   3.148 -3.1636 -0.7164 -0.2168
14566SOL     OW54916   9.140   0.363   2.441 -0.3569 -0.0310 -0.2004
14566SOL    HW154917   9.209   0.320   2.500  0.1795  0.9663 -0.0830
14566SOL    HW254918   9.170   0.358   2.346 -0.7308 -0.7204 -0.2866
14567SOL     OW54919   6.599   1.731   0.837  0.0787  1.0789 -0.4664
14567SOL    HW154920   6.655   1.753   0.917  0.0623 -1.7336  0.3533
14567SOL    HW254921   6.645   1.661   0.783 -1.9712 -0.2741 -0.5149
14568SOL     OW54922   0.700   4.907   2.494 -0.2808 -0.8048 -0.0038
14568SOL    HW154923   0.779   4.909   2.432  0.2769 -0.2039  0.7270
14568SOL    HW254924   0.618   4.933   2.444  0.4223  1.2899 -0.1224
14569SOL     OW54925   9.956   3.332   1.692 -0.1260 -0.4405 -0.2748
14569SOL    HW154926   9.915   3.326   1.783 -2.1756 -0.8027 -1.2078
14569SOL    HW254927   9.921   3.412   1.644  1.9953  0.5425 -0.2854
14570SOL     OW54928   3.493   8.754   5.518 -0.4327  0.1265  0.4524
14570SOL    HW154929   3.578   8.731   5.470  0.6636  1.8330  1.4962
14570SOL    HW254930   3.485   8.698   5.600  0.3717  0.8486  1.0416
14571SOL     OW54931   3.125   6.323   4.146  0.0825  0.0714 -0.2031
14571SOL    HW154932   3.209   6.282   4.110 -0.2046 -2.1935  1.6213
14571SOL    HW254933   3.144   6.417   4.175  1.5383  0.1861 -1.4603
14572SOL     OW54934   3.992   5.387   7.951 -0.5178 -0.0346  0.4101
14572SOL    HW154935   4.029   5.381   8.044  0.9797  0.9820 -0.0981
14572SOL    HW254936   4.001   5.481   7.918 -1.0651 -0.3825 -0.7487
14573SOL     OW54937   6.165   5.663   1.401  0.4387 -0.4293 -0.3304
14573SOL    HW154938   6.175   5.593   1.472  1.8094  0.6659  0.5847
14573SOL    HW254939   6.200   5.628   1.314  0.5740 -1.0788 -0.0192
14574SOL     OW54940   8.042   4.946   0.860 -0.2941  0.4103  0.2332
14574SOL    HW154941   8.026   5.022   0.798  0.9291  0.6052  0.1324
14574SOL    HW254942   8.019   4.973   0.953 -1.0307  0.4936  0.0309
14575SOL     OW54943   9.281   5.869   1.576 -0.2970 -0.3700  0.1219
14575SOL    HW154944   9.255   5.803   1.646  0.9241 -0.2646  0.6893
14575SOL    HW254945   9.251   5.960   1.603  1.4575 -0.1044  1.2263
14576SOL     OW54946   1.419   3.643   0.757 -0.8488 -0.4942 -0.2235
14576SOL    HW154947   1.463   3.639   0.668  1.7750  1.6046  0.8864
14576SOL    HW254948   1.437   3.559   0.808 -2.4359 -1.7353 -1.6532
14577SOL     OW54949   8.658   6.763   1.356  0.0765  0.1854 -0.0231
14577SOL    HW154950   8.710   6.762   1.271 -0.3810 -1.2351 -0.2919
14577SOL    HW254951   8.577   6.822   1.345 -0.9508 -1.3989 -1.1742
14578SOL     OW54952   3.696   4.297   3.481 -1.1435  0.1365 -0.4742
14578SOL    HW154953   3.663   4.241   3.557 -2.9570  0.6426 -0.8611
14578SOL    HW254954   3.621   4.356   3.448  0.3872  1.9359 -0.8240
14579SOL     OW54955   0.585   8.760   5.260 -0.0831 -0.0670 -0.0143
14579SOL    HW154956   0.632   8.750   5.173 -0.7813 -0.4756 -0.3460
14579SOL    HW254957   0.534   8.677   5.282 -1.2317  0.6149 -0.0108
14580SOL     OW54958   9.236   8.358   1.123 -0.1081 -0.3455 -0.5364
14580SOL    HW154959   9.249   8.457   1.123  0.9592 -0.4706  0.7935
14580SOL    HW254960   9.325   8.313   1.120 -0.6198 -1.2722 -2.0604
14581SOL     OW54961   9.041   2.631   0.937 -0.6583 -0.0536  0.3344
14581SOL    HW154962   9.118   2.694   0.926  0.4905 -1.7918 -1.8348
14581SOL    HW254963   8.973   2.649   0.867 -0.5524 -0.9089  0.0146
14582SOL     OW54964   4.268   4.501   1.905  0.2384  0.4994 -0.0810
14582SOL    HW154965   4.197   4.526   1.839  0.9597  1.7701 -0.4022
14582SOL    HW254966   4.324   4.428   1.867 -0.1293  0.3545 -0.3500
14583SOL     OW54967   3.645   9.085   4.976 -0.3185  0.3070 -0.2283
14583SOL    HW154968   3.613   9.175   4.946 -0.7395 -0.0876 -0.9826
14583SOL    HW254969   3.685   9.093   5.067  1.7004  1.6598 -1.2110
14584SOL     OW54970   6.892   1.439   5.453 -0.0032  0.0807 -0.2446
14584SOL    HW154971   6.846   1.364   5.502  2.4450 -0.8618  0.6730
14584SOL    HW254972   6.824   1.506   5.424 -2.1074 -1.8981 -0.0281
14585SOL     OW54973   9.648   6.120   4.214 -0.6769 -0.0642  0.0690
14585SOL    HW154974   9.662   6.048   4.282 -0.9278 -0.7544 -0.6079
14585SOL    HW254975   9.737   6.151   4.180 -0.5688 -0.0322  0.3724
14586SOL     OW54976   9.703   1.088   0.897 -0.4794 -0.7959  0.0520
14586SOL    HW154977   9.699   1.103   0.798 -1.7971 -1.1281  0.0428
14586SOL    HW254978   9.727   0.993   0.915 -1.2004 -0.9877  0.0328
14587SOL     OW54979   8.151   7.469   3.459  0.3794 -0.9402 -0.2678
14587SOL    HW154980   8.177   7.388   3.406  0.2288 -1.0173 -0.2241
14587SOL    HW254981   8.108   7.441   3.544 -0.7697 -0.8085 -0.8035
14588SOL     OW54982   9.673   6.278   5.925 -0.0277  0.0588  0.1300
14588SOL    HW154983   9.740   6.342   5.889  0.1892  0.4878  1.2625
14588SOL    HW254984   9.581   6.315   5.914 -0.1132 -0.6506 -1.6705
14589SOL     OW54985   0.149   9.212   5.508  0.1895 -0.2154 -0.8640
14589SOL    HW154986   0.121   9.177   5.419 -0.5656 -0.9530 -0.3524
14589SOL    HW254987   0.240   9.178   5.530  0.3029 -0.1777 -1.2794
14590SOL     OW54988   8.475   8.600   3.817  0.2777 -0.1843 -0.3739
14590SOL    HW154989   8.479   8.586   3.915  2.0989  0.3997 -0.3369
14590SOL    HW254990   8.472   8.698   3.797 -1.1064 -0.3143 -0.8863
14591SOL     OW54991   7.729   9.291   5.641  0.6497  0.3000 -0.1198
14591SOL    HW154992   7.652   9.272   5.703 -0.9455 -1.4937 -2.5665
14591SOL    HW254993   7.791   9.212   5.639  1.8584  1.2031  0.7942
14592SOL     OW54994   6.779   3.878   0.245  0.3005 -0.5808 -0.0908
14592SOL    HW154995   6.847   3.915   0.308  0.8874  2.2662 -2.2836
14592SOL    HW254996   6.811   3.790   0.210  1.0636 -1.0561  1.7247
14593SOL     OW54997   6.978   7.360   3.098 -0.3987 -0.1716  0.0928
14593SOL    HW154998   7.053   7.296   3.082 -0.0454  0.5689 -1.3195
14593SOL    HW254999   6.891   7.317   3.074 -0.2474 -0.3986 -0.0531
14594SOL     OW55000   8.279   0.021   6.722 -0.5600 -0.2225 -0.5021
14594SOL    HW155001   8.305  -0.015   6.632  0.5281 -0.4718 -0.0974
14594SOL    HW255002   8.268   0.121   6.716 -0.6386 -0.2567 -0.9483
14595SOL     OW55003   4.021   4.233   5.245  0.0199  0.0743  0.1058
14595SOL    HW155004   3.964   4.257   5.166  1.7689  2.2167 -0.5610
14595SOL    HW255005   3.995   4.290   5.323  1.5792  1.4256 -0.3514
14596SOL     OW55006   1.146   5.143   3.103 -0.1584  0.0255  0.1569
14596SOL    HW155007   1.187   5.218   3.156 -1.3431  1.2221 -0.5802
14596SOL    HW255008   1.124   5.067   3.164  1.0723  0.2545  0.9144
14597SOL     OW55009   0.771   1.736   5.806 -0.1064  0.2026  0.1505
14597SOL    HW155010   0.771   1.819   5.862 -3.0055 -0.4810  1.2268
14597SOL    HW255011   0.677   1.710   5.784  0.8212 -1.9634 -1.4598
14598SOL     OW55012   3.186   1.984   3.867 -0.1432  0.5876  0.0063
14598SOL    HW155013   3.246   1.952   3.940 -1.4916 -0.7290  0.5668
14598SOL    HW255014   3.220   1.951   3.779 -0.3791 -0.6688  0.3802
14599SOL     OW55015   7.186   7.163   3.986 -0.1665  0.0934  0.2837
14599SOL    HW155016   7.260   7.130   4.044  0.5293  0.6429 -0.2823
14599SOL    HW255017   7.224   7.205   3.904 -1.1003  0.6184  0.1100
14600SOL     OW55018   8.112   6.314   3.285 -0.2248 -0.2201 -0.3253
14600SOL    HW155019   8.185   6.333   3.350  0.1805  0.2955 -0.9195
14600SOL    HW255020   8.048   6.248   3.324 -0.5960  0.9225  1.0128
14601SOL     OW55021   0.483   5.123   4.090  0.1320 -0.0551 -0.3051
14601SOL    HW155022   0.429   5.198   4.050  2.6668  2.0025 -0.0430
14601SOL    HW255023   0.562   5.105   4.031  0.7609 -0.9754  0.8191
14602SOL     OW55024   6.094   5.325   1.120 -0.5733 -0.3439  0.3046
14602SOL    HW155025   6.061   5.367   1.035 -0.8567  0.3466  0.7521
14602SOL    HW255026   6.017   5.312   1.182 -0.2488 -0.1923  0.7343
14603SOL     OW55027   9.111   9.687   0.374  0.4472  0.0137  0.3788
14603SOL    HW155028   9.132   9.591   0.394  0.6375 -0.4909 -2.1187
14603SOL    HW255029   9.197   9.737   0.362  0.3199  0.0487 -0.3690
14604SOL     OW55030   7.905   7.403   2.440  0.0333  0.6441 -0.0605
14604SOL    HW155031   7.902   7.353   2.354 -3.4607  0.8922 -0.1770
14604SOL    HW255032   7.948   7.347   2.510  0.2529 -0.7253 -1.2676
14605SOL     OW55033   9.510   1.160   1.063  0.0130  0.3578  0.3172
14605SOL    HW155034   9.422   1.114   1.048 -0.1180  0.5648  0.4565
14605SOL    HW255035   9.573   1.135   0.989  0.3752 -1.0914  1.1010
14606SOL     OW55036   1.106   7.625   4.781 -0.1208 -0.1100  0.4045
14606SOL    HW155037   1.099   7.532   4.746 -0.0602 -0.4062  1.1780
14606SOL    HW255038   1.038   7.683   4.735 -0.6888 -0.7056  0.4959
14607SOL     OW55039   3.307   1.788   0.504  0.3013 -0.4050 -0.0901
14607SOL    HW155040   3.323   1.882   0.534 -0.5588 -0.3780  0.2911
14607SOL    HW255041   3.389   1.733   0.521  0.4916  0.0621  0.5208
14608SOL     OW55042   2.464   6.382   1.557  0.0196  0.6571 -0.0416
14608SOL    HW155043   2.428   6.466   1.597  0.1160  0.8779 -0.4107
14608SOL    HW255044   2.518   6.404   1.475  0.6361  0.2963  0.2612
14609SOL     OW55045   4.659   4.214   0.449 -0.4040  0.0180  0.0467
14609SOL    HW155046   4.561   4.199   0.440 -0.8585  1.7675  1.8177
14609SOL    HW255047   4.686   4.296   0.399 -0.1060  0.3816  0.7919
14610SOL     OW55048   6.713   2.379   7.646 -0.0900  0.1840 -0.1431
14610SOL    HW155049   6.701   2.286   7.681 -0.2213 -0.0023 -0.6804
14610SOL    HW255050   6.684   2.383   7.551 -0.0062  0.7584 -0.1480
14611SOL     OW55051   1.211   0.122   4.199  0.1301 -0.2286 -0.2455
14611SOL    HW155052   1.232   0.032   4.239  0.3853  0.8050  2.0005
14611SOL    HW255053   1.286   0.150   4.140  1.6446  0.0219  1.7550
14612SOL     OW55054   0.296   7.779   5.573 -0.2030 -0.5006  0.3521
14612SOL    HW155055   0.218   7.748   5.627 -0.7117  0.6781  0.3015
14612SOL    HW255056   0.264   7.838   5.499  0.5405 -1.6204 -0.9023
14613SOL     OW55057   8.539   8.536   5.782  0.4433 -0.4973 -0.6398
14613SOL    HW155058   8.523   8.634   5.795  1.3020 -0.8042  3.1618
14613SOL    HW255059   8.456   8.485   5.803  0.6708 -0.7273 -0.2846
14614SOL     OW55060   8.609   4.250   2.236  0.4091  0.1131  0.1558
14614SOL    HW155061   8.693   4.197   2.253  0.0190 -0.4036  0.5023
14614SOL    HW255062   8.620   4.343   2.272 -0.1528 -0.7554  2.7209
14615SOL     OW55063   6.901   1.492   6.079 -0.2408  0.0114 -0.0831
14615SOL    HW155064   6.959   1.509   5.999 -1.8120 -0.1919 -1.2801
14615SOL    HW255065   6.857   1.403   6.069 -1.6440  0.6617  0.2810
14616SOL     OW55066   3.531   8.082   2.185 -0.3840 -0.5666 -0.3803
14616SOL    HW155067   3.622   8.079   2.146 -1.2065  1.3148 -2.5795
14616SOL    HW255068   3.535   8.059   2.283  2.0519 -2.9136 -0.9799
14617SOL     OW55069   0.419   5.323   3.662 -0.0537 -0.1192  0.6841
14617SOL    HW155070   0.356   5.378   3.716 -0.3769 -0.3879  0.5855
14617SOL    HW255071   0.373   5.240   3.631 -0.2458  0.6029 -1.0134
14618SOL     OW55072   2.449   1.346   6.091  1.1024 -0.2117  0.1928
14618SOL    HW155073   2.364   1.319   6.135  0.8599 -1.1499 -0.8269
14618SOL    HW255074   2.433   1.425   6.031  1.2319  0.4407  1.0038
14619SOL     OW55075   0.945   7.085   4.024  0.0181  0.5294  0.3331
14619SOL    HW155076   0.953   7.110   3.927 -2.7117  0.7129  0.1176
14619SOL    HW255077   1.001   7.003   4.042  1.8185  1.4311 -1.0053
14620SOL     OW55078   9.652   4.041   0.262 -0.2621 -0.6791  0.4041
14620SOL    HW155079   9.731   4.006   0.311  0.4245 -1.2428 -1.0869
14620SOL    HW255080   9.568   4.013   0.309  0.3907 -0.7999  1.5069
14621SOL     OW55081   6.526   8.369   4.465  0.4978  0.4912 -0.0844
14621SOL    HW155082   6.486   8.321   4.543  2.0671  1.8658  1.6158
14621SOL    HW255083   6.583   8.444   4.498  0.2685  1.8291 -2.6064
14622SOL     OW55084   1.372   9.550   1.833 -0.2207 -0.1376 -0.2817
14622SOL    HW155085   1.447   9.531   1.770  0.7332  3.1462 -0.2216
14622SOL    HW255086   1.407   9.550   1.927 -1.0441 -2.1010  0.0422
14623SOL     OW55087   2.922   9.686   3.979 -0.1955 -0.5199  0.0007
14623SOL    HW155088   2.988   9.748   4.023  0.7781 -1.7963  0.3740
14623SOL    HW255089   2.859   9.739   3.922  0.5048  0.8317  0.4687
14624SOL     OW55090   0.127   6.253   4.759 -0.5865 -0.3576 -0.4581
14624SOL    HW155091   0.116   6.317   4.835 -1.9184  0.8560 -1.6583
14624SOL    HW255092   0.225   6.238   4.742 -0.2640 -0.7874  1.5904
14625SOL     OW55093   3.803   1.830   5.787 -0.1291 -0.0466 -0.1570
14625SOL    HW155094   3.892   1.871   5.767 -0.0371 -0.7090 -1.1816
14625SOL    HW255095   3.770   1.782   5.705 -0.7431 -1.0572  0.6707
14626SOL     OW55096   4.832   8.767   4.010 -0.0239 -0.5314  0.5766
14626SOL    HW155097   4.849   8.698   4.080 -1.4971 -0.0522  1.4250
14626SOL    HW255098   4.918   8.808   3.982  0.5859 -0.7992  2.0400
14627SOL     OW55099   4.584   2.505   2.609  0.7970 -0.1332  0.0773
14627SOL    HW155100   4.676   2.544   2.610  1.0416 -0.6627 -1.1523
14627SOL    HW255101   4.577   2.432   2.676  1.6909 -1.0415 -0.8227
14628SOL     OW55102   4.816   7.574   3.017  0.1709  0.5100  0.4227
14628SOL    HW155103   4.812   7.486   3.064  0.7482 -0.2611 -0.9610
14628SOL    HW255104   4.845   7.645   3.082 -0.9002 -0.1891  1.6940
14629SOL     OW55105   9.059   2.009   0.318  0.0910 -0.0865 -0.6699
14629SOL    HW155106   9.040   1.919   0.357  1.2470  0.0084  0.1400
14629SOL    HW255107   9.085   1.999   0.222  0.4221 -0.6403 -0.5261
14630SOL     OW55108   8.643   2.557   6.286  0.1966 -0.2753 -0.0201
14630SOL    HW155109   8.730   2.601   6.310 -0.5660  1.2497  0.0031
14630SOL    HW255110   8.577   2.626   6.258 -0.4016 -1.6030 -1.9913
14631SOL     OW55111   8.184   3.440   0.348  0.4304 -0.1203 -0.5973
14631SOL    HW155112   8.250   3.442   0.423  2.0765 -0.2996 -1.9923
14631SOL    HW255113   8.107   3.382   0.372 -0.5475  2.1641  2.1098
14632SOL     OW55114   9.906   5.614   5.180 -0.4694  0.0867  0.1363
14632SOL    HW155115   9.994   5.661   5.181  0.0802 -0.9158  0.9315
14632SOL    HW255116   9.842   5.663   5.122  0.0565  1.8371  1.0050
14633SOL     OW55117   1.627   1.551   1.477  0.5265 -0.4638  0.0573
14633SOL    HW155118   1.568   1.520   1.551 -0.0691 -1.4719 -0.8219
14633SOL    HW255119   1.575   1.552   1.391  1.3120  0.3039 -0.4203
14634SOL     OW55120   4.403   5.588   1.641 -0.8598 -0.2559 -0.5969
14634SOL    HW155121   4.381   5.642   1.722 -1.1576 -0.6806 -0.3890
14634SOL    HW255122   4.431   5.496   1.669  0.9532  0.2021 -0.8754
14635SOL     OW55123   1.354   9.314   1.606 -0.1499 -0.5645  0.2673
14635SOL    HW155124   1.361   9.216   1.584 -0.3750 -0.0148 -2.3716
14635SOL    HW255125   1.411   9.333   1.686  1.2395 -2.5548 -0.1806
14636SOL     OW55126   3.738   8.728   6.476 -0.0658  0.3742  0.2067
14636SOL    HW155127   3.796   8.767   6.548  2.0412  0.5810 -1.5297
14636SOL    HW255128   3.780   8.644   6.442 -1.6296 -0.3301 -0.0310
14637SOL     OW55129   8.655   6.099   3.389 -0.1642 -0.3250  0.1118
14637SOL    HW155130   8.668   6.198   3.387 -0.5202 -0.3061 -2.9311
14637SOL    HW255131   8.586   6.076   3.458  0.6037  1.4262  1.5058
14638SOL     OW55132   9.825   4.542   2.986 -0.4329  0.5520  0.2710
14638SOL    HW155133   9.899   4.508   3.045 -0.0469  1.0194  0.0616
14638SOL    HW255134   9.814   4.640   3.001 -1.1837  0.4374  0.4782
14639SOL     OW55135   7.157   9.736   2.622  0.0099  0.0774  0.1613
14639SOL    HW155136   7.115   9.817   2.662  0.1540  0.7792 -1.0663
14639SOL    HW255137   7.203   9.683   2.693  1.9686  2.3087  0.6269
14640SOL     OW55138   2.147   7.474   0.750  0.1352  0.3293 -0.1468
14640SOL    HW155139   2.070   7.448   0.691  0.0938 -0.0764  0.0837
14640SOL    HW255140   2.196   7.551   0.709 -0.4604  0.6647 -0.2449
14641SOL     OW55141   4.601   2.024   4.420 -0.1820 -0.3215  0.7806
14641SOL    HW155142   4.558   1.945   4.376 -0.1826 -0.0901  0.3578
14641SOL    HW255143   4.658   1.994   4.496 -1.7685 -0.5752  1.8976
14642SOL     OW55144   2.108   0.763   4.201 -0.4967  0.2403 -0.1653
14642SOL    HW155145   2.165   0.715   4.267  0.8074  0.9389 -0.7522
14642SOL    HW255146   2.011   0.751   4.225 -0.0718 -0.0531  1.4673
14643SOL     OW55147   3.474   9.741   5.611  0.1726 -0.1009 -0.1868
14643SOL    HW155148   3.524   9.770   5.693 -0.9280 -0.5475  0.6524
14643SOL    HW255149   3.489   9.643   5.596  1.3896  0.2246 -1.2601
14644SOL     OW55150   0.886   0.384   4.475  0.0898 -0.0289  0.3151
14644SOL    HW155151   0.923   0.293   4.459 -0.5235 -0.1419 -0.4697
14644SOL    HW255152   0.836   0.415   4.394 -0.6638  0.5394  0.9917
14645SOL     OW55153   8.672   4.301   0.535  0.0003  0.0772  0.2872
14645SOL    HW155154   8.633   4.230   0.593 -0.9199 -0.1899 -0.6220
14645SOL    HW255155   8.771   4.304   0.547  0.1998 -2.1736 -0.5350
14646SOL     OW55156   0.639   8.177   0.820  0.2201  0.2479  0.4301
14646SOL    HW155157   0.718   8.158   0.763  0.5390 -1.1854  1.3164
14646SOL    HW255158   0.567   8.110   0.802 -0.3451  0.8354  0.4639
14647SOL     OW55159   5.548   1.978   0.754 -0.5774  0.0324  0.1731
14647SOL    HW155160   5.597   1.941   0.675 -0.1737  0.4389  0.2306
14647SOL    HW255161   5.595   2.060   0.787 -0.9114  0.0341  0.6517
14648SOL     OW55162   5.058   8.546   4.652 -0.0909 -0.2843 -0.2544
14648SOL    HW155163   5.090   8.459   4.689 -1.4695 -0.9173 -0.5166
14648SOL    HW255164   4.983   8.529   4.587  1.6187  0.8668 -2.6087
14649SOL     OW55165   9.709   5.449   3.334 -0.2226 -0.1684 -0.3423
14649SOL    HW155166   9.668   5.528   3.289  0.4420  0.2139 -0.2756
14649SOL    HW255167   9.645   5.372   3.331 -0.6088  0.1749 -0.9835
14650SOL     OW55168   1.922   2.844   1.947  0.0303 -0.3198 -0.1607
14650SOL    HW155169   1.858   2.910   1.908 -2.3486 -1.8669  1.0212
14650SOL    HW255170   1.889   2.751   1.929  1.9785 -1.1471  0.4318
14651SOL     OW55171   8.765   8.008   1.100  0.3185 -0.0393 -0.4458
14651SOL    HW155172   8.768   8.063   1.017 -1.0247  0.6456 -0.0482
14651SOL    HW255173   8.692   7.940   1.093 -0.0314  0.2473  0.3030
14652SOL     OW55174   9.456   6.759   1.238  0.0850  0.0703  0.0689
14652SOL    HW155175   9.440   6.672   1.191  0.2001 -1.3098  2.5248
14652SOL    HW255176   9.382   6.823   1.216 -0.7962 -1.1490 -0.5513
14653SOL     OW55177   6.872   0.484   1.593  0.1843  0.4352 -0.0970
14653SOL    HW155178   6.912   0.542   1.664  0.4381 -0.3995  0.4451
14653SOL    HW255179   6.787   0.445   1.626  0.7218 -0.6131  0.0502
14654SOL     OW55180   8.949   1.902   4.114 -0.0258  0.2335 -0.0753
14654SOL    HW155181   9.025   1.838   4.115  0.3306  0.6404 -0.6037
14654SOL    HW255182   8.924   1.923   4.020 -1.9231 -1.2141  0.0859
14655SOL     OW55183   5.456   1.498   4.598  0.3607  0.3202 -0.2672
14655SOL    HW155184   5.469   1.577   4.538  1.8552 -0.2632 -0.7342
14655SOL    HW255185   5.432   1.530   4.690 -0.8352  1.2456 -0.8838
14656SOL     OW55186   7.960   0.571   2.395  0.2290  0.7067  0.0278
14656SOL    HW155187   7.974   0.529   2.305 -1.8386  1.4588 -0.6787
14656SOL    HW255188   7.954   0.670   2.384 -2.3957  0.6385  0.6659
14657SOL     OW55189   4.292   2.390   3.307 -0.5724 -0.0537 -0.5395
14657SOL    HW155190   4.220   2.418   3.244 -0.1644 -0.4029 -1.1575
14657SOL    HW255191   4.338   2.471   3.344 -0.7956  0.1457 -0.7050
14658SOL     OW55192   6.849   8.670   5.592 -0.2602 -0.2003  0.4133
14658SOL    HW155193   6.758   8.687   5.555  0.9579  1.0447 -2.1652
14658SOL    HW255194   6.870   8.572   5.585 -1.7172 -0.6299  1.8399
14659SOL     OW55195   8.094   9.709   3.757 -0.0239  0.2756  0.1362
14659SOL    HW155196   8.043   9.672   3.679 -1.9188  1.7123  0.6343
14659SOL    HW255197   8.122   9.634   3.817 -1.3799 -0.5920 -0.2778
14660SOL     OW55198   5.518   3.065   4.957 -0.0386 -0.3520  0.1742
14660SOL    HW155199   5.577   3.005   5.011 -0.0531 -0.5836 -0.0713
14660SOL    HW255200   5.563   3.154   4.947 -1.3737  0.7034  3.1468
14661SOL     OW55201   2.209   3.133   4.308 -0.2772 -0.0524 -0.5945
14661SOL    HW155202   2.149   3.208   4.279  1.8359  1.5859 -0.8631
14661SOL    HW255203   2.207   3.060   4.239 -0.9343  0.5658 -1.2375
14662SOL     OW55204   6.376   9.549   5.357 -0.0312 -0.2760 -0.2028
14662SOL    HW155205   6.455   9.609   5.373 -0.5511  0.1104  0.9685
14662SOL    HW255206   6.344   9.512   5.445 -2.5702  1.3842 -0.3888
14663SOL     OW55207   8.197   5.098   0.101 -0.1510  0.5379  0.3578
14663SOL    HW155208   8.285   5.088   0.055  0.8188  0.9020  2.0856
14663SOL    HW255209   8.177   5.015   0.152 -0.5554  0.6635  0.4056
14664SOL     OW55210   1.417   5.289   3.208  0.2670  0.0185  0.4264
14664SOL    HW155211   1.503   5.328   3.243 -0.9575  1.9307  1.4097
14664SOL    HW255212   1.437   5.226   3.134  2.4572  1.4034 -0.2170
14665SOL     OW55213   0.014   1.798   1.681 -0.3643 -0.5109  0.3608
14665SOL    HW155214  -0.009   1.872   1.744  1.9746 -1.0250  1.8785
14665SOL    HW255215  -0.046   1.719   1.700 -1.4756  0.2572  0.1077
14666SOL     OW55216   9.183   8.457   2.236  0.4605  0.2823  0.4129
14666SOL    HW155217   9.126   8.381   2.269  1.1170 -0.8380 -0.9868
14666SOL    HW255218   9.134   8.506   2.164  1.1543 -0.5559 -0.6493
14667SOL     OW55219   8.569   4.805   0.832  0.4860  0.1450 -0.6311
14667SOL    HW155220   8.484   4.797   0.779  0.1395  1.0164 -0.2132
14667SOL    HW255221   8.570   4.892   0.880  0.7643 -0.6853  0.8829
14668SOL     OW55222   6.426   4.981   1.239  0.7718 -0.0707 -0.1356
14668SOL    HW155223   6.444   4.887   1.212  0.6502 -0.5553  1.3849
14668SOL    HW255224   6.396   4.983   1.335  1.3916  1.5691  0.0496
14669SOL     OW55225   1.318   3.703   1.183 -0.0413  0.4410 -0.1115
14669SOL    HW155226   1.230   3.719   1.139  0.1920  0.0682 -0.7046
14669SOL    HW255227   1.354   3.790   1.217  0.0384  0.8010 -1.1263
14670SOL     OW55228   5.589   0.366   4.836 -0.4919 -0.1577  0.0128
14670SOL    HW155229   5.636   0.396   4.919 -1.1529  0.3609  0.2031
14670SOL    HW255230   5.503   0.416   4.826 -2.1380 -2.7618  0.9068
14671SOL     OW55231   7.584   0.505   6.855 -0.1679  0.3735 -0.2865
14671SOL    HW155232   7.584   0.520   6.954 -1.1563 -0.7886 -0.1065
14671SOL    HW255233   7.677   0.516   6.820  0.3429 -0.0376  0.9084
14672SOL     OW55234   0.493   1.993   0.472  0.0748  0.2799 -0.4855
14672SOL    HW155235   0.487   2.005   0.572  1.2464  0.4143 -0.4166
14672SOL    HW255236   0.510   1.897   0.451  0.1535  0.3035 -0.5314
14673SOL     OW55237   4.372   0.770   0.717  0.2045  0.5888  0.4706
14673SOL    HW155238   4.330   0.847   0.668  0.0606  1.3014  1.6925
14673SOL    HW255239   4.461   0.797   0.753 -0.5785  0.7571  2.3680
14674SOL     OW55240   3.478   6.056   3.738 -0.0013  0.0510 -0.0189
14674SOL    HW155241   3.574   6.049   3.763 -0.0610 -0.0801  0.1834
14674SOL    HW255242   3.428   6.104   3.810  0.5904  3.5788 -1.8648
14675SOL     OW55243   3.506   8.073   0.924  0.4627  0.1599  0.1536
14675SOL    HW155244   3.481   8.160   0.883  1.2987  1.2018  1.8267
14675SOL    HW255245   3.602   8.074   0.951 -0.0782 -0.4705  2.1934
14676SOL     OW55246   7.456   8.790   4.170 -0.4353 -0.1101 -0.5758
14676SOL    HW155247   7.362   8.800   4.203 -0.6918 -0.6375 -1.1263
14676SOL    HW255248   7.492   8.701   4.200 -0.5077 -0.3921 -1.3163
14677SOL     OW55249   8.946   9.718   2.509 -0.1841 -0.0243  0.6978
14677SOL    HW155250   9.003   9.752   2.434  0.1248 -0.1674  0.8678
14677SOL    HW255251   8.970   9.766   2.593 -0.5253  0.1308  0.7070
14678SOL     OW55252   2.122   8.232   3.993  0.4821 -0.0113 -0.3785
14678SOL    HW155253   2.128   8.279   4.082  1.0417  1.1999 -1.0418
14678SOL    HW255254   2.029   8.197   3.980 -0.3729  2.2084 -0.5035
14679SOL     OW55255   2.389   0.473   3.766 -0.4670 -0.1209 -0.3960
14679SOL    HW155256   2.317   0.462   3.835  1.7909  0.7370  2.1809
14679SOL    HW255257   2.393   0.568   3.736 -0.5864 -0.2276 -0.7580
14680SOL     OW55258   1.833   4.502   0.462 -0.6437  0.3788 -0.1785
14680SOL    HW155259   1.921   4.542   0.490  0.6995 -1.4630 -1.5802
14680SOL    HW255260   1.848   4.445   0.381 -3.2219  0.3087 -0.6283
14681SOL     OW55261   7.965   9.087   5.035 -0.1238 -0.4539 -0.0524
14681SOL    HW155262   7.867   9.076   5.021 -0.0074 -1.9711  0.3093
14681SOL    HW255263   8.014   9.015   4.986  0.7818 -0.0302  0.2237
14682SOL     OW55264   3.528   6.879   2.353 -0.4110 -0.2645  0.3461
14682SOL    HW155265   3.452   6.847   2.296 -0.8265 -0.2633  0.8897
14682SOL    HW255266   3.517   6.977   2.370 -0.8460 -0.4683  1.2650
14683SOL     OW55267   1.341   7.690   2.361 -0.6477 -0.4432 -0.0668
14683SOL    HW155268   1.245   7.664   2.360 -1.0396  0.9344 -0.9913
14683SOL    HW255269   1.350   7.783   2.397  0.3581 -0.6853  0.3051
14684SOL     OW55270   0.626   8.094   4.444  0.5824 -0.1134 -0.1179
14684SOL    HW155271   0.568   8.028   4.491  1.6394 -0.0962  1.2547
14684SOL    HW255272   0.580   8.127   4.362 -2.0602  1.1552  1.8108
14685SOL     OW55273   8.707   0.584   4.657 -0.0157  0.3262 -0.0575
14685SOL    HW155274   8.643   0.531   4.602  0.3659 -0.5731  0.3604
14685SOL    HW255275   8.699   0.557   4.753  0.1081  1.1020  0.1814
14686SOL     OW55276   0.919   2.938   1.370  0.8711 -0.4355 -0.4632
14686SOL    HW155277   0.996   2.912   1.428  1.3124 -0.5285 -1.0860
14686SOL    HW255278   0.844   2.969   1.427  1.3417 -0.4200  0.1566
14687SOL     OW55279   2.345   0.374   3.445 -0.5899 -0.0832 -0.2057
14687SOL    HW155280   2.445   0.380   3.452 -0.5053 -1.5677 -0.0150
14687SOL    HW255281   2.321   0.334   3.357 -0.9481 -1.6442  0.5913
14688SOL     OW55282   1.214   7.437   2.056 -0.2081  0.2507  0.6799
14688SOL    HW155283   1.276   7.427   1.978 -1.2976  0.7418 -0.2710
14688SOL    HW255284   1.225   7.528   2.096  0.3300  0.0098  1.0856
14689SOL     OW55285   0.905   8.785   0.554  0.2274  0.0464  0.0834
14689SOL    HW155286   0.896   8.878   0.517 -2.3930 -0.2008  0.0295
14689SOL    HW255287   0.902   8.789   0.654  0.6497  0.0657  0.0962
14690SOL     OW55288   2.862   1.918   3.960  0.1711  0.4122  0.0957
14690SOL    HW155289   2.782   1.912   4.020  0.1447  0.4110  0.0601
14690SOL    HW255290   2.898   2.011   3.962  1.1204  0.0303  1.3510
14691SOL     OW55291   3.973   2.380   5.877 -0.0960 -0.3036  0.1865
14691SOL    HW155292   3.927   2.467   5.895  1.9547  1.0872 -1.0821
14691SOL    HW255293   4.026   2.352   5.957  2.8624  1.9655 -0.8865
14692SOL     OW55294   3.071   6.967   8.111 -0.2995  0.0844  0.1692
14692SOL    HW155295   3.066   6.965   8.211 -1.9430  0.5487  0.1079
14692SOL    HW255296   3.018   6.891   8.073 -2.5482  1.8942 -0.4145
14693SOL     OW55297   4.583   8.884   4.366  0.3312  0.1200 -0.4233
14693SOL    HW155298   4.532   8.961   4.405 -2.0777 -0.7576 -1.7013
14693SOL    HW255299   4.635   8.916   4.287  0.2895  0.6785 -0.2318
14694SOL     OW55300   3.410   9.137   2.121  0.2141  0.5570  1.3165
14694SOL    HW155301   3.428   9.143   2.219  2.2752 -0.3259  1.0338
14694SOL    HW255302   3.482   9.082   2.078 -1.2410  0.0663 -0.5377
14695SOL     OW55303   9.172   8.285   2.601 -0.1922 -0.3415 -0.3135
14695SOL    HW155304   9.142   8.376   2.627  0.5086 -0.3326  0.5049
14695SOL    HW255305   9.271   8.277   2.617  0.3853 -0.1734 -3.4576
14696SOL     OW55306   3.290   0.289   0.240  0.2969  0.0867 -0.1433
14696SOL    HW155307   3.257   0.383   0.232  0.3274  0.0707 -0.4595
14696SOL    HW255308   3.385   0.284   0.208  0.3214 -0.0368 -0.0519
14697SOL     OW55309   3.309   9.101   0.302  0.3263 -0.2629 -0.2957
14697SOL    HW155310   3.333   9.024   0.360  1.2000  0.1067 -0.1639
14697SOL    HW255311   3.392   9.142   0.263 -0.1929 -0.0445 -1.2049
14698SOL     OW55312   0.459   9.984   6.023 -0.9701  0.2683  0.9347
14698SOL    HW155313   0.378  10.040   6.006 -1.2525 -0.4441 -0.1325
14698SOL    HW255314   0.541  10.035   5.998 -1.1822  0.4563  0.6123
14699SOL     OW55315   5.171   0.814   5.452  0.0073  0.7233  0.0046
14699SOL    HW155316   5.112   0.837   5.530 -0.5836 -2.5329  0.5866
14699SOL    HW255317   5.255   0.868   5.456 -0.9953  2.2095  1.6322
14700SOL     OW55318   3.728   0.569   6.532 -0.0732 -0.2031 -0.1005
14700SOL    HW155319   3.686   0.479   6.526  0.7463 -0.5907 -0.0135
14700SOL    HW255320   3.754   0.599   6.440  1.0261 -0.7173  0.0268
14701SOL     OW55321   4.207   4.774   5.272 -0.0154  0.4914  0.1311
14701SOL    HW155322   4.226   4.735   5.182  1.1072  1.8164 -0.2100
14701SOL    HW255323   4.183   4.700   5.336  0.4493 -0.5798 -0.9187
14702SOL     OW55324   0.237   5.564   6.077  0.8104 -0.1716  0.0791
14702SOL    HW155325   0.154   5.614   6.103 -0.1839 -0.4738 -2.3783
14702SOL    HW255326   0.314   5.627   6.076  0.5788  0.1589  2.2053
14703SOL     OW55327   7.007   7.885   2.811  0.1320 -0.2186 -0.3665
14703SOL    HW155328   7.048   7.850   2.727  0.0833  1.2749 -1.0305
14703SOL    HW255329   7.013   7.816   2.882  1.0609 -1.1414 -1.3249
14704SOL     OW55330   0.139   5.742   4.100  0.3930 -0.1865  0.1880
14704SOL    HW155331   0.234   5.773   4.111  0.2228 -0.1420  1.6129
14704SOL    HW255332   0.124   5.661   4.156 -0.2991 -0.4613 -0.3872
14705SOL     OW55333   8.381   1.242   1.605  0.3337  0.0765 -0.6720
14705SOL    HW155334   8.404   1.197   1.692 -0.5150 -1.6531 -1.3025
14705SOL    HW255335   8.282   1.257   1.601  0.4021  0.3807 -1.2335
14706SOL     OW55336   0.277   2.809   3.214  0.1093 -0.0162 -0.3498
14706SOL    HW155337   0.342   2.842   3.145 -0.5774 -0.5448 -1.2632
14706SOL    HW255338   0.238   2.722   3.184 -0.8371  0.1712  0.3130
14707SOL     OW55339   0.230   0.391   3.753  0.2577  0.0128  0.1638
14707SOL    HW155340   0.229   0.308   3.809  1.2156  0.5999  1.0833
14707SOL    HW255341   0.323   0.406   3.719  0.4772  1.6560  1.4582
14708SOL     OW55342   3.754   8.175   4.159  0.6942 -0.2722  0.1806
14708SOL    HW155343   3.796   8.206   4.074 -0.2350 -0.3616 -0.3268
14708SOL    HW255344   3.742   8.076   4.155 -2.3726  0.0827 -1.0155
14709SOL     OW55345   0.981   1.988   0.308 -0.0364  0.4274  0.2701
14709SOL    HW155346   1.054   2.056   0.319 -0.0865  0.4025  0.7345
14709SOL    HW255347   0.893   2.034   0.301  0.1675  0.5636 -1.8981
14710SOL     OW55348   2.416   5.352   0.898 -0.2981  0.1673 -0.2361
14710SOL    HW155349   2.509   5.387   0.881 -1.0867  2.9608  0.9595
14710SOL    HW255350   2.355   5.382   0.824  0.2873 -4.2750 -2.7125
14711SOL     OW55351   9.706   2.813   2.822 -0.3711 -0.6464 -0.3903
14711SOL    HW155352   9.759   2.757   2.758 -1.8049 -1.0693 -1.2247
14711SOL    HW255353   9.627   2.851   2.775 -0.2190  0.8790  0.5665
14712SOL     OW55354   5.517   2.139   4.113  0.5763 -0.3664 -0.0611
14712SOL    HW155355   5.544   2.115   4.206  0.8509 -0.4557 -0.1651
14712SOL    HW255356   5.446   2.076   4.082 -0.9009  0.8282  0.7933
14713SOL     OW55357   0.174   2.595   3.009 -0.2890 -0.1348 -0.1303
14713SOL    HW155358   0.090   2.634   3.047 -0.1984 -0.0064 -0.0642
14713SOL    HW255359   0.162   2.496   2.997 -0.2913 -0.1883  0.3072
14714SOL     OW55360   3.200   3.512   2.282 -0.1434 -0.1247 -0.3510
14714SOL    HW155361   3.109   3.501   2.324  0.5608 -0.7050  1.0654
14714SOL    HW255362   3.256   3.432   2.303  2.0287  1.9858  2.2321
14715SOL     OW55363   2.807   0.311   5.203  0.2474  0.1791  0.4641
14715SOL    HW155364   2.870   0.243   5.165  1.1823  0.4677  1.4835
14715SOL    HW255365   2.846   0.350   5.286  0.6496  3.4202 -1.1522
14716SOL     OW55366   4.389   1.751   5.565 -0.3892 -0.5101 -0.6739
14716SOL    HW155367   4.371   1.713   5.655  0.6352 -3.0055 -1.4761
14716SOL    HW255368   4.456   1.825   5.572  0.7396 -1.6250  0.4523
14717SOL     OW55369   6.146   0.038   4.143  0.3833 -0.2242  0.3449
14717SOL    HW155370   6.132  -0.060   4.135 -0.4248 -0.1453  0.7684
14717SOL    HW255371   6.228   0.064   4.092 -0.3594 -0.8645 -1.1982
14718SOL     OW55372   3.107   8.674   2.346  0.0669 -0.2805 -0.4077
14718SOL    HW155373   3.145   8.705   2.259  0.2595 -0.4224 -0.3753
14718SOL    HW255374   3.175   8.619   2.394 -0.1514 -0.4607 -0.3068
14719SOL     OW55375   2.846   2.544   3.494  0.4779 -0.1895  0.3920
14719SOL    HW155376   2.937   2.503   3.483  1.0877  0.3039  3.2918
14719SOL    HW255377   2.785   2.478   3.537  0.1597  0.3479  0.7637
14720SOL     OW55378   3.848   0.608   4.945  0.4144  0.3357 -0.8489
14720SOL    HW155379   3.762   0.563   4.921  1.9616 -3.9572  1.0006
14720SOL    HW255380   3.916   0.587   4.875  0.1408  3.2422 -2.0185
14721SOL     OW55381   5.922   1.435   5.541  0.1519  0.0737  0.1007
14721SOL    HW155382   5.840   1.489   5.562  0.0597 -1.3531  3.8528
14721SOL    HW255383   5.896   1.353   5.490 -0.6126  0.2268  0.2384
14722SOL     OW55384   4.513   1.337   1.072 -0.0558  0.6153  0.7164
14722SOL    HW155385   4.563   1.382   0.999 -0.5924 -0.0630 -0.0681
14722SOL    HW255386   4.430   1.389   1.093 -1.0777 -0.3835 -0.7173
14723SOL     OW55387   8.754   2.751   1.663 -0.3962 -0.3364 -0.2395
14723SOL    HW155388   8.816   2.830   1.654 -1.2241  0.2660 -0.7431
14723SOL    HW255389   8.802   2.668   1.634  0.3222  0.0535 -0.1941
14724SOL     OW55390   6.868   2.217   2.932 -0.1385 -0.1703 -0.2682
14724SOL    HW155391   6.862   2.219   2.833  0.8269 -0.3022 -0.3302
14724SOL    HW255392   6.776   2.202   2.971 -0.6325  0.6485 -1.1069
14725SOL     OW55393   7.777   4.141   4.877 -0.2932 -0.3983 -0.1562
14725SOL    HW155394   7.871   4.112   4.894 -0.1594 -0.7847 -1.5399
14725SOL    HW255395   7.777   4.226   4.825 -0.6968  1.6191  2.9837
14726SOL     OW55396   0.126   6.213   8.168  0.4896 -0.0909  0.0179
14726SOL    HW155397   0.073   6.281   8.219 -1.0874  0.0022 -1.6848
14726SOL    HW255398   0.137   6.131   8.223 -1.1137  0.0439  0.5589
14727SOL     OW55399   7.799   6.518   6.003  0.5052 -0.1012  0.0923
14727SOL    HW155400   7.744   6.569   5.937 -0.5505 -0.3648  0.7695
14727SOL    HW255401   7.888   6.564   6.014  0.9403 -0.3976 -1.9569
14728SOL     OW55402   7.675   7.721   3.566  0.2620  0.6235 -0.2147
14728SOL    HW155403   7.707   7.816   3.565 -0.2454  0.7931 -0.4309
14728SOL    HW255404   7.578   7.719   3.589 -0.1207  0.2844 -1.7906
14729SOL     OW55405   3.951   5.809   0.642  0.9388 -0.1899 -0.0876
14729SOL    HW155406   4.034   5.856   0.613  1.8672 -1.2768  0.7417
14729SOL    HW255407   3.910   5.763   0.563 -0.7143  3.0319 -1.1845
14730SOL     OW55408   5.423   9.434   2.313  0.2996  0.1678 -0.4738
14730SOL    HW155409   5.500   9.386   2.357  0.8615  1.0290 -0.4973
14730SOL    HW255410   5.356   9.368   2.281  1.3238 -0.6335 -0.9812
14731SOL     OW55411   9.113   5.507   4.111 -0.1993 -0.4874  0.0240
14731SOL    HW155412   9.211   5.488   4.105 -0.2046  0.0084 -1.8942
14731SOL    HW255413   9.070   5.438   4.169  1.0074 -1.8045 -0.5993
14732SOL     OW55414   3.058   3.499   1.836  0.3244  0.4152 -0.1167
14732SOL    HW155415   3.144   3.520   1.883  0.2846 -1.8592  1.0648
14732SOL    HW255416   3.045   3.561   1.759  3.2779  0.4728 -0.6052
14733SOL     OW55417   6.592   1.620   0.421  0.0126 -0.2726  0.4287
14733SOL    HW155418   6.553   1.554   0.357 -1.2947  0.6850  0.2137
14733SOL    HW255419   6.645   1.688   0.370 -2.7762  1.7203  0.0930
14734SOL     OW55420   7.981   5.921   3.973 -0.0298 -0.2786  0.8388
14734SOL    HW155421   7.970   5.924   4.072 -0.5933 -0.9204  0.8003
14734SOL    HW255422   7.984   6.014   3.937 -2.3691 -0.0445  1.1908
14735SOL     OW55423   2.239   7.224   4.472  0.5068 -0.1516 -0.3038
14735SOL    HW155424   2.190   7.137   4.476  0.3198 -0.0446 -0.2787
14735SOL    HW255425   2.250   7.260   4.565  0.6174 -0.1678 -0.3110
14736SOL     OW55426   1.604   0.950   0.027 -0.7147  0.0349  0.2496
14736SOL    HW155427   1.589   0.905  -0.061  1.1083 -0.7840  0.3322
14736SOL    HW255428   1.538   1.025   0.038 -0.4975  0.6150 -2.1232
14737SOL     OW55429   9.833   5.366   2.243  0.5536  0.1628  0.1208
14737SOL    HW155430   9.859   5.357   2.339 -0.6985  0.5824  0.5021
14737SOL    HW255431   9.733   5.370   2.235  0.5856 -1.5392 -1.3414
14738SOL     OW55432   7.360   0.951   0.883  0.5138  0.5098 -0.0922
14738SOL    HW155433   7.269   0.992   0.879 -1.6210 -4.0756 -0.8865
14738SOL    HW255434   7.406   0.981   0.967 -2.2033  1.8580  0.9818
14739SOL     OW55435   4.964   8.933   2.281  0.3229  0.0184  0.3215
14739SOL    HW155436   4.969   9.008   2.216  1.3772  0.1530  0.5429
14739SOL    HW255437   5.052   8.885   2.283 -0.3733 -1.2870  0.0983
14740SOL     OW55438   3.500   9.627   1.555  0.5648 -0.0302 -0.8659
14740SOL    HW155439   3.510   9.535   1.517 -1.1895 -0.1521 -1.0815
14740SOL    HW255440   3.487   9.621   1.654  0.9251  0.0210 -0.8141
14741SOL     OW55441   0.806   0.940   2.341  0.3392  0.1219  0.4202
14741SOL    HW155442   0.853   1.015   2.388  0.8803  1.3367 -2.0096
14741SOL    HW255443   0.847   0.853   2.369 -0.8416  0.5916  3.9108
14742SOL     OW55444   7.102   4.891   1.541  0.3149 -0.3181  0.3343
14742SOL    HW155445   7.049   4.835   1.605 -2.1656  1.3482 -0.1974
14742SOL    HW255446   7.112   4.842   1.455  0.2324 -0.9328  0.6673
14743SOL     OW55447   6.790   4.672   1.966 -0.3396  0.4578  0.1259
14743SOL    HW155448   6.810   4.749   2.026 -0.1897  0.6510 -0.1710
14743SOL    HW255449   6.771   4.706   1.873 -1.1161  0.2094  0.1880
14744SOL     OW55450   9.593   5.199   1.527  0.2079  0.3546 -0.1842
14744SOL    HW155451   9.568   5.279   1.472 -0.1298 -0.8236 -1.8123
14744SOL    HW255452   9.617   5.123   1.466  0.0190 -0.9421  1.3134
14745SOL     OW55453   9.489   6.499   1.984  0.6953  0.5052 -0.6991
14745SOL    HW155454   9.572   6.549   2.009 -0.4255  1.4335  1.3310
14745SOL    HW255455   9.499   6.403   2.011  1.6394  0.3083 -1.7344
14746SOL     OW55456   1.412   2.354   3.492 -0.2122 -0.3207 -0.2739
14746SOL    HW155457   1.485   2.366   3.425  1.3196  1.4858  1.6368
14746SOL    HW255458   1.405   2.436   3.549 -1.5745 -1.7329  1.6728
14747SOL     OW55459   2.165   1.627   5.352 -0.0501  0.5369  0.5121
14747SOL    HW155460   2.115   1.710   5.378  0.7865  1.0092  0.6614
14747SOL    HW255461   2.226   1.601   5.427  2.1843  1.7509 -0.8194
14748SOL     OW55462   0.140   8.832   3.302 -0.5608  0.6080  0.4969
14748SOL    HW155463   0.145   8.915   3.358 -0.6258 -0.3362  1.9270
14748SOL    HW255464   0.195   8.760   3.344 -0.2638  0.0032 -0.8955
14749SOL     OW55465   6.815   1.289   8.079 -0.2912  0.6651 -0.3497
14749SOL    HW155466   6.819   1.302   7.980 -2.1061  0.6347 -0.4445
14749SOL    HW255467   6.904   1.257   8.112  0.8090  2.2423 -1.7260
14750SOL     OW55468   2.767   1.613   4.373 -1.0033  0.7084 -0.0088
14750SOL    HW155469   2.733   1.628   4.466  1.8090 -1.4452  1.4490
14750SOL    HW255470   2.864   1.634   4.369 -1.1597  1.1115 -2.5812
14751SOL     OW55471   7.031   3.659   4.277  0.5713 -0.0260 -0.3265
14751SOL    HW155472   7.000   3.623   4.365 -0.7476 -0.6621 -1.0327
14751SOL    HW255473   7.131   3.659   4.274  0.6583 -4.1441 -0.4960
14752SOL     OW55474   0.515   2.926   4.768 -0.3715 -0.1357  0.3061
14752SOL    HW155475   0.469   2.925   4.857 -1.9481  0.1867 -0.4814
14752SOL    HW255476   0.519   3.020   4.733 -2.1001 -0.5416 -1.1047
14753SOL     OW55477   3.214   0.927   1.374  0.1423  0.5158  0.0313
14753SOL    HW155478   3.295   0.869   1.385 -0.0240  0.2699 -0.0408
14753SOL    HW255479   3.154   0.888   1.304 -1.1577 -0.5481  1.7248
14754SOL     OW55480   7.601   0.310   4.690 -0.3583  0.3192  0.5833
14754SOL    HW155481   7.613   0.334   4.787 -1.0182  1.1363  0.4661
14754SOL    HW255482   7.680   0.257   4.660  0.0669  0.4371  1.4561
14755SOL     OW55483   4.084   8.501   6.543 -0.1080 -0.0030 -0.3017
14755SOL    HW155484   4.097   8.406   6.568 -0.4348  0.1317  0.3816
14755SOL    HW255485   4.112   8.560   6.619 -1.1331  0.4023 -0.2359
14756SOL     OW55486   3.297   9.223   1.077 -0.2464  0.1988  0.3177
14756SOL    HW155487   3.255   9.287   1.141 -3.4852 -2.0025  0.4942
14756SOL    HW255488   3.358   9.161   1.128  0.4152  1.0653  0.6043
14757SOL     OW55489   4.787   0.280   2.588 -0.1566 -0.0711  0.2194
14757SOL    HW155490   4.701   0.248   2.628 -0.8305  0.0721 -1.1056
14757SOL    HW255491   4.775   0.296   2.490  0.9522  1.4634  0.3164
14758SOL     OW55492   0.244   0.462   0.895  0.4753 -0.7348 -0.5570
14758SOL    HW155493   0.330   0.429   0.856  0.8131 -1.1158  0.4884
14758SOL    HW255494   0.225   0.554   0.862  1.0852 -0.8014 -1.0972
14759SOL     OW55495   9.164   2.051   5.424 -0.5021  0.1231  0.3162
14759SOL    HW155496   9.153   2.150   5.438 -0.0252  0.5378 -1.9993
14759SOL    HW255497   9.245   2.019   5.474 -0.0647  1.0967  0.2483
14760SOL     OW55498   1.608   5.927   0.990 -0.0680  0.1795  0.1072
14760SOL    HW155499   1.651   5.884   1.070  0.7727 -1.0691 -0.9913
14760SOL    HW255500   1.596   6.024   1.007 -0.3202 -0.1529  1.9375
14761SOL     OW55501   3.345   0.669   6.227 -0.4548  0.0839  0.4523
14761SOL    HW155502   3.273   0.625   6.280 -0.9918  0.5282  0.0858
14761SOL    HW255503   3.326   0.766   6.217  0.6096  0.3651  1.0428
14762SOL     OW55504   3.091   8.527   5.342 -0.0886  0.1259 -0.7470
14762SOL    HW155505   3.148   8.451   5.374 -0.6644 -0.4339 -1.0161
14762SOL    HW255506   3.106   8.607   5.399 -0.4973 -0.6156  0.4181
14763SOL     OW55507   2.846   9.254   6.486 -0.3835  0.5169  0.8915
14763SOL    HW155508   2.918   9.222   6.425 -0.9292 -0.7773  0.8833
14763SOL    HW255509   2.803   9.336   6.448 -0.1992  0.1742 -0.0702
14764SOL     OW55510   1.826   7.820   6.326 -0.7035  0.6237  0.5762
14764SOL    HW155511   1.815   7.912   6.364 -0.9743 -0.2408  2.5929
14764SOL    HW255512   1.867   7.760   6.394 -2.7565 -1.3725  0.0988
14765SOL     OW55513   1.416   0.070   0.440  0.1784 -0.0298  0.5796
14765SOL    HW155514   1.413   0.092   0.342  0.0547  1.8354  0.9885
14765SOL    HW255515   1.334   0.105   0.485  0.9376  0.4434  1.6177
14766SOL     OW55516   2.755   9.365   1.849 -0.2354 -0.0460  0.6427
14766SOL    HW155517   2.725   9.383   1.943  2.3731  0.2361  1.4534
14766SOL    HW255518   2.703   9.424   1.786 -1.0630  0.7421  2.0255
14767SOL     OW55519   8.389   1.168   5.403  0.0161  0.5916  0.2417
14767SOL    HW155520   8.337   1.084   5.389  0.2032  0.5674 -0.3378
14767SOL    HW255521   8.404   1.183   5.501 -1.5406  0.8859  0.4539
14768SOL     OW55522   8.776   8.889   1.268  0.3513  0.3337  0.1112
14768SOL    HW155523   8.876   8.880   1.259  0.1998  0.2138 -1.5392
14768SOL    HW255524   8.731   8.819   1.214 -0.6418 -0.2745  1.6946
14769SOL     OW55525   2.074   5.623   1.339 -0.2316  0.5197  0.2433
14769SOL    HW155526   2.099   5.639   1.243  1.4675 -0.6323  0.4808
14769SOL    HW255527   2.157   5.610   1.393 -1.2931 -2.2739  1.2695
14770SOL     OW55528   1.296   9.699   1.550  0.4899  0.5269 -0.0544
14770SOL    HW155529   1.331   9.625   1.608 -0.2808  0.1508 -0.0695
14770SOL    HW255530   1.196   9.697   1.549  0.4908  0.3091 -1.6828
14771SOL     OW55531   3.344   3.814   0.189 -0.1575 -0.4691 -0.2168
14771SOL    HW155532   3.381   3.755   0.118 -0.2446 -0.1683 -0.5140
14771SOL    HW255533   3.412   3.883   0.213 -1.4868  1.8271 -2.7313
14772SOL     OW55534   4.904   6.155   3.077 -0.1176 -0.1501  0.2508
14772SOL    HW155535   4.954   6.069   3.062 -0.5138 -0.2389 -0.6061
14772SOL    HW255536   4.944   6.227   3.020 -0.0928  0.1178  0.6042
14773SOL     OW55537   2.867   3.459   3.810 -0.3371 -0.1153  0.1910
14773SOL    HW155538   2.935   3.402   3.764 -1.6511 -1.7738  0.2331
14773SOL    HW255539   2.892   3.556   3.801  0.8516 -0.5743 -1.6485
14774SOL     OW55540   1.180   0.948   2.308 -0.3775  0.0337 -0.2581
14774SOL    HW155541   1.177   0.882   2.383 -0.1894  0.9673  0.5892
14774SOL    HW255542   1.260   1.007   2.319  0.4246 -0.7176 -1.9793
14775SOL     OW55543   4.107   3.206   5.640  0.3077 -0.3136 -0.2015
14775SOL    HW155544   4.056   3.183   5.724 -0.8826  0.4123 -0.7144
14775SOL    HW255545   4.158   3.125   5.610 -2.4598 -1.8693 -1.0034
14776SOL     OW55546   1.458   3.091   4.175  0.2400 -0.7913  0.0826
14776SOL    HW155547   1.527   3.155   4.141  0.9847 -0.9081  1.3311
14776SOL    HW255548   1.434   3.114   4.269  1.7004 -3.2933  1.1255
14777SOL     OW55549   5.335   0.503   6.874  0.2382 -0.3511  0.0904
14777SOL    HW155550   5.329   0.427   6.939 -1.8490  0.0694  0.3963
14777SOL    HW255551   5.273   0.487   6.797 -0.5069  1.2241  0.3506
14778SOL     OW55552   9.988   7.855   2.344  0.1049 -0.0011  0.3786
14778SOL    HW155553   9.904   7.832   2.392  0.7922  0.9246  2.0756
14778SOL    HW255554   9.970   7.928   2.278 -0.6520 -0.6239 -0.1091
14779SOL     OW55555   7.172   1.673   7.660 -0.1777 -0.0843 -0.2341
14779SOL    HW155556   7.207   1.743   7.723 -0.2538 -0.1742 -0.0933
14779SOL    HW255557   7.131   1.718   7.580 -1.1035  0.0656  0.3106
14780SOL     OW55558   2.922   3.075   3.716 -0.4037  0.9547  0.1399
14780SOL    HW155559   2.960   2.989   3.681 -0.3489  0.5518  1.1577
14780SOL    HW255560   2.962   3.152   3.667  2.3831  0.5973  1.7394
14781SOL     OW55561   7.003   0.339   5.076  0.4711 -0.2939  0.0318
14781SOL    HW155562   6.995   0.330   5.175 -0.3867  1.5207  0.1449
14781SOL    HW255563   7.098   0.326   5.049  0.8433  0.0006  1.1749
14782SOL     OW55564   4.025   4.419   4.605 -0.4306 -0.0325 -0.1792
14782SOL    HW155565   3.987   4.326   4.604 -1.4163  0.2980  2.4276
14782SOL    HW255566   4.089   4.428   4.681  0.6543  1.0720 -1.1930
14783SOL     OW55567   8.219   5.650   0.450  0.1385  0.3852  0.8036
14783SOL    HW155568   8.271   5.635   0.365  0.6573  1.9806  0.8126
14783SOL    HW255569   8.272   5.710   0.510 -1.3827  1.4089  1.1387
14784SOL     OW55570   7.389   7.779   3.659 -0.0721  0.2125  0.8040
14784SOL    HW155571   7.448   7.796   3.738  0.5437  0.5542  0.2791
14784SOL    HW255572   7.300   7.823   3.674  0.2766  0.8579  1.0137
14785SOL     OW55573   0.970   0.929   1.903  0.6123 -0.2585 -0.0293
14785SOL    HW155574   1.031   0.961   1.975  0.1195  0.7541 -0.0564
14785SOL    HW255575   0.912   1.005   1.872  0.6931 -0.7281 -1.3575
14786SOL     OW55576   4.874   0.023   4.215  0.2086  0.4745  0.6302
14786SOL    HW155577   4.907  -0.054   4.160  0.5293  0.5931  0.6545
14786SOL    HW255578   4.946   0.092   4.223 -0.2094  0.9541  0.2926
14787SOL     OW55579   3.937   4.137   4.658 -0.6606  0.8162 -0.4143
14787SOL    HW155580   3.844   4.114   4.628  0.1495 -0.9488 -1.7010
14787SOL    HW255581   3.977   4.058   4.706 -0.2542  1.9999  1.2414
14788SOL     OW55582   0.883   5.096   2.849  0.5667 -0.0544  1.1742
14788SOL    HW155583   0.824   5.175   2.868 -0.2794 -0.3815 -0.0279
14788SOL    HW255584   0.971   5.108   2.895  0.3088  1.4024  1.3152
14789SOL     OW55585   5.292   8.902   2.140  0.3232 -0.2983  0.2126
14789SOL    HW155586   5.236   8.852   2.074 -0.8278  0.8444  0.3002
14789SOL    HW255587   5.314   8.993   2.103 -0.7909  0.5550  1.6066
14790SOL     OW55588   8.909   1.406   3.010  0.2980  0.4480  0.4207
14790SOL    HW155589   8.860   1.423   2.925 -0.5532  0.6835  0.9506
14790SOL    HW255590   8.968   1.326   2.999  0.4504  0.6794 -0.4931
14791SOL     OW55591   1.269   4.576   2.956  0.4973 -0.4951  0.4864
14791SOL    HW155592   1.308   4.596   3.046 -1.0570 -2.7092  1.6832
14791SOL    HW255593   1.190   4.636   2.940  0.7665 -0.1103  0.5921
14792SOL     OW55594   0.165   3.599   1.218 -0.8368 -0.1383  0.5407
14792SOL    HW155595   0.250   3.645   1.244 -1.3677  1.8854 -1.1520
14792SOL    HW255596   0.096   3.614   1.289 -0.6011  0.5434  0.6314
14793SOL     OW55597   3.873   7.507   4.771  0.1443 -0.7669 -0.3828
14793SOL    HW155598   3.933   7.561   4.830  1.1783 -0.6471 -1.5563
14793SOL    HW255599   3.806   7.567   4.728 -0.5468 -0.8392  0.5701
14794SOL     OW55600   9.299   0.885   1.097  0.1322 -0.2009  0.1680
14794SOL    HW155601   9.271   0.968   1.048 -0.0861  1.0719  2.3715
14794SOL    HW255602   9.224   0.854   1.156  0.6285 -1.3014  0.2308
14795SOL     OW55603   4.783   2.269   1.347 -0.4703 -0.2976  0.2713
14795SOL    HW155604   4.854   2.275   1.416 -0.3506  1.2309  0.0372
14795SOL    HW255605   4.822   2.235   1.261 -0.3842 -1.1103  0.6335
14796SOL     OW55606   9.629   5.302   5.055 -0.3142 -0.8561 -0.0250
14796SOL    HW155607   9.674   5.230   5.002 -0.5535 -0.9495 -0.1024
14796SOL    HW255608   9.533   5.278   5.070 -0.1474 -1.0206  0.7943
14797SOL     OW55609   0.208   1.297   4.275  0.8753  0.3593  0.3108
14797SOL    HW155610   0.171   1.372   4.330  1.2317  0.5412  0.3029
14797SOL    HW255611   0.190   1.210   4.321 -1.5025  0.2454 -0.7435
14798SOL     OW55612   4.927   2.512   2.561 -0.1720  0.2485  0.3687
14798SOL    HW155613   4.913   2.432   2.503 -2.5290  0.9348 -0.0372
14798SOL    HW255614   4.924   2.485   2.657 -0.8464 -0.1729  0.2287
14799SOL     OW55615   1.241   0.504   2.798 -0.9482 -0.2420  0.5992
14799SOL    HW155616   1.186   0.430   2.760 -1.2484  0.6748 -0.8003
14799SOL    HW255617   1.236   0.584   2.737  1.6504 -0.0275  0.6155
14800SOL     OW55618   7.689   3.212   1.058  0.4205  0.0038 -0.4306
14800SOL    HW155619   7.761   3.277   1.079  0.2910 -0.2209  0.7623
14800SOL    HW255620   7.701   3.130   1.113 -0.6895 -0.0648 -0.2691
14801SOL     OW55621   1.409   2.997   2.553  0.3595  0.0203  0.2380
14801SOL    HW155622   1.349   3.077   2.546 -0.0167 -0.3281 -0.6207
14801SOL    HW255623   1.361   2.924   2.601  0.6252  0.2308  0.8305
14802SOL     OW55624   2.372   8.570   0.752  0.5960 -0.0918  0.0156
14802SOL    HW155625   2.466   8.603   0.749 -0.4015  2.6732 -2.3199
14802SOL    HW255626   2.315   8.636   0.800 -0.6634 -0.4192 -1.0251
14803SOL     OW55627   5.663   9.069   3.425 -0.0924  0.0111 -0.2320
14803SOL    HW155628   5.711   9.028   3.502  1.0248  1.5612 -0.0719
14803SOL    HW255629   5.568   9.038   3.425  0.3783 -1.4835  0.6460
14804SOL     OW55630   2.722   2.901   3.443 -0.4932 -0.5824 -0.0694
14804SOL    HW155631   2.673   2.823   3.482 -0.6587 -0.4877 -0.0852
14804SOL    HW255632   2.732   2.972   3.512  2.5508 -1.9094  0.9352
14805SOL     OW55633   7.856   2.479   4.662 -0.5485 -0.3136 -0.1254
14805SOL    HW155634   7.781   2.413   4.670 -0.7119 -0.0471  0.5423
14805SOL    HW255635   7.921   2.465   4.737  0.1566 -0.6450 -0.7877
14806SOL     OW55636   3.035   6.654   3.262  0.1390 -0.3111 -0.0396
14806SOL    HW155637   3.056   6.744   3.223  1.7783 -0.3756  0.6577
14806SOL    HW255638   3.053   6.655   3.360  2.3336 -2.0412 -0.4029
14807SOL     OW55639   4.305   2.256   2.340 -0.0828 -0.0030  0.0918
14807SOL    HW155640   4.354   2.272   2.254  0.5354 -0.2472  0.4007
14807SOL    HW255641   4.265   2.164   2.338 -0.1234  0.0155  0.0398
14808SOL     OW55642   1.953   5.806   2.684  0.7668  1.2389 -0.2359
14808SOL    HW155643   1.921   5.751   2.761 -0.5607  1.2151 -0.8019
14808SOL    HW255644   2.034   5.858   2.712 -0.0619  1.7063  1.3685
14809SOL     OW55645   9.392   5.497   4.073 -0.2545  0.8180 -0.0304
14809SOL    HW155646   9.454   5.574   4.087  1.6777 -0.8782  0.9221
14809SOL    HW255647   9.383   5.479   3.975  0.9061  0.9767 -0.1683
14810SOL     OW55648   0.558   3.263   0.858 -0.1279 -0.4423  0.0590
14810SOL    HW155649   0.534   3.323   0.934  1.2229  0.3086 -0.0815
14810SOL    HW255650   0.497   3.185   0.856 -1.3658  0.4925  0.7748
14811SOL     OW55651   1.169   7.667   4.236  0.1612 -0.0031  0.1290
14811SOL    HW155652   1.256   7.705   4.266 -0.1237  0.6878  0.0730
14811SOL    HW255653   1.118   7.735   4.183 -0.1964 -0.5650 -0.2633
14812SOL     OW55654   3.374   6.635   2.304 -0.1666 -0.4255  0.5803
14812SOL    HW155655   3.392   6.647   2.402 -0.7905  0.5378  0.5830
14812SOL    HW255656   3.277   6.649   2.286  0.4042  2.1760 -0.5915
14813SOL     OW55657   9.585   6.420   0.702  0.2682 -0.3891  0.2344
14813SOL    HW155658   9.635   6.360   0.765  3.0853  0.3144 -1.3021
14813SOL    HW255659   9.552   6.500   0.752 -2.2690 -2.4308  1.9795
14814SOL     OW55660   6.814   1.241   6.065 -0.1635  0.6327  0.4885
14814SOL    HW155661   6.769   1.204   5.984 -1.1343  1.4107  0.6678
14814SOL    HW255662   6.891   1.182   6.090 -1.5387 -1.1491  0.6321
14815SOL     OW55663   0.526   5.465   2.698 -0.1928  0.1201  0.2011
14815SOL    HW155664   0.623   5.471   2.723 -0.2779 -2.0919  1.2665
14815SOL    HW255665   0.505   5.530   2.625  1.8835  1.2548  0.5938
14816SOL     OW55666   9.466   9.173   0.272 -0.2764  0.1788 -0.3032
14816SOL    HW155667   9.487   9.151   0.177  0.5583  1.3321 -0.4028
14816SOL    HW255668   9.544   9.222   0.313 -0.2504 -1.1016  1.2442
14817SOL     OW55669   9.024   5.656   2.331 -0.2751 -0.2981  0.3298
14817SOL    HW155670   8.964   5.697   2.400 -0.3771  0.2876 -0.1091
14817SOL    HW255671   9.013   5.703   2.244  0.8430 -0.1475  0.2536
14818SOL     OW55672   7.572   1.195   6.032 -0.2081 -0.7734  0.5951
14818SOL    HW155673   7.590   1.229   6.124 -0.9221 -1.1585  0.8827
14818SOL    HW255674   7.629   1.244   5.966  0.9743 -1.1285  1.3406
14819SOL     OW55675   4.238   5.078   3.210 -0.0142  0.3607 -0.3927
14819SOL    HW155676   4.215   5.151   3.146  1.0024  1.4133  0.4415
14819SOL    HW255677   4.173   5.079   3.286  0.2901  0.7057 -0.1365
14820SOL     OW55678   0.020   4.191   3.224  0.4160  0.5782 -0.1226
14820SOL    HW155679   0.032   4.092   3.218  0.3341  0.4763  1.2297
14820SOL    HW255680  -0.058   4.211   3.284  1.2266  1.4867  0.6473
14821SOL     OW55681   5.049   9.913   6.588 -0.3722 -0.0792  0.1481
14821SOL    HW155682   5.121   9.853   6.622  1.6451  2.0006 -0.3137
14821SOL    HW255683   5.051   9.999   6.639 -1.8145  0.4503 -0.6464
14822SOL     OW55684   9.801   9.344   0.822 -0.4664 -0.2723 -0.0281
14822SOL    HW155685   9.796   9.360   0.921 -0.8705 -0.2028 -0.0549
14822SOL    HW255686   9.763   9.423   0.774  1.0835  0.3200 -0.2876
14823SOL     OW55687   0.183   7.527   3.746  0.0315 -0.0019 -0.4728
14823SOL    HW155688   0.245   7.598   3.778 -0.3073  0.2449 -0.3624
14823SOL    HW255689   0.152   7.548   3.653  2.1449 -1.4571 -1.5460
14824SOL     OW55690   9.228   7.465   5.266  0.5598 -0.1595  0.0379
14824SOL    HW155691   9.263   7.540   5.323  1.2324 -1.2607  1.0893
14824SOL    HW255692   9.271   7.468   5.176  0.7086  0.6128  0.1324
14825SOL     OW55693   5.361   1.082   4.635  0.7256 -0.1959 -0.1904
14825SOL    HW155694   5.397   1.160   4.584  1.3617 -0.3943 -0.0467
14825SOL    HW255695   5.413   1.070   4.720  0.2115 -0.3789  0.0973
14826SOL     OW55696   7.431   6.258   5.970  0.0349  0.0610  0.2175
14826SOL    HW155697   7.418   6.324   5.896 -1.0580 -0.1814  0.1876
14826SOL    HW255698   7.459   6.306   6.053 -0.5134  0.5348  0.1306
14827SOL     OW55699   7.639   2.318   1.858  0.3224 -0.8074 -0.3369
14827SOL    HW155700   7.590   2.406   1.859  0.9290 -0.4480 -1.4040
14827SOL    HW255701   7.573   2.243   1.866 -0.1719 -0.2486  0.9773
14828SOL     OW55702   8.326   0.864   0.256  0.1220  0.2250 -0.0066
14828SOL    HW155703   8.402   0.857   0.321  1.1228  0.6541 -1.1017
14828SOL    HW255704   8.307   0.774   0.217  0.0841  0.1193  0.2559
14829SOL     OW55705   6.155   0.955   1.345  0.2672 -0.0735 -0.0847
14829SOL    HW155706   6.141   0.858   1.326 -0.7597  0.6513 -3.3969
14829SOL    HW255707   6.226   0.991   1.284 -1.2631  1.8199 -0.7989
14830SOL     OW55708   6.878   9.650   1.744 -0.3648  1.1802  0.6248
14830SOL    HW155709   6.854   9.670   1.648  0.6612 -3.3716 -0.7149
14830SOL    HW255710   6.797   9.664   1.801 -1.6869  1.7155 -1.2973
14831SOL     OW55711   6.748   2.558   0.767  0.2239 -0.1762  0.0188
14831SOL    HW155712   6.840   2.526   0.791 -0.4683 -1.3801  1.1255
14831SOL    HW255713   6.747   2.658   0.763  1.7087 -0.1714 -0.5471
14832SOL     OW55714   8.425   1.506   0.154 -0.7404  0.6716 -0.4423
14832SOL    HW155715   8.485   1.580   0.184 -0.1624  0.8877 -2.0344
14832SOL    HW255716   8.387   1.459   0.233  1.3748  0.6736  0.6013
14833SOL     OW55717   6.491   5.332   1.291  0.0446 -0.0255  0.0046
14833SOL    HW155718   6.457   5.416   1.248  1.5443  0.0668 -1.0386
14833SOL    HW255719   6.567   5.296   1.238  0.5120 -1.1239  1.3936
14834SOL     OW55720   9.363   5.035   3.539  0.3409  0.1362 -0.0329
14834SOL    HW155721   9.269   5.067   3.542  0.3210  0.0634  0.1578
14834SOL    HW255722   9.425   5.113   3.534  0.2237  0.1475 -1.3374
14835SOL     OW55723   7.126   8.329   5.249  0.1063  0.8129  0.2848
14835SOL    HW155724   7.211   8.377   5.270  0.2811 -0.2502  2.1340
14835SOL    HW255725   7.146   8.237   5.216 -0.3263  0.3844  1.1975
14836SOL     OW55726   0.697   8.139   5.394  0.2431  0.5797  0.0818
14836SOL    HW155727   0.632   8.071   5.428  0.3197  0.5383  0.1478
14836SOL    HW255728   0.663   8.231   5.412  1.3266  0.5747  2.3479
14837SOL     OW55729   8.825   6.517   2.937 -0.2360  0.3673 -0.0172
14837SOL    HW155730   8.889   6.593   2.943 -0.6869  0.7508 -0.1303
14837SOL    HW255731   8.864   6.438   2.986  0.4329  0.5177 -0.3019
14838SOL     OW55732   9.408   8.466   6.091 -0.2838  0.2231 -0.5092
14838SOL    HW155733   9.318   8.426   6.111  0.4155 -1.6781 -1.0453
14838SOL    HW255734   9.480   8.400   6.114  1.0673  2.2113  1.1039
14839SOL     OW55735   2.009   6.173   3.540  0.3076  0.2016  0.1160
14839SOL    HW155736   1.995   6.076   3.520  0.5065  0.1667  0.1488
14839SOL    HW255737   2.033   6.184   3.636  2.1929  0.1012 -0.3280
14840SOL     OW55738   4.220   1.853   1.958 -0.4611 -0.3166 -0.2740
14840SOL    HW155739   4.185   1.941   1.925 -1.7764 -0.4782  0.6711
14840SOL    HW255740   4.295   1.868   2.022  1.0733  0.0403 -2.1239
14841SOL     OW55741   7.686   2.927   1.835  0.1435 -0.5499  0.5285
14841SOL    HW155742   7.699   3.019   1.870 -1.5035  0.3255 -1.0565
14841SOL    HW255743   7.632   2.874   1.900 -1.6571  0.6184  0.0369
14842SOL     OW55744   2.556   9.509   3.383 -0.5493  0.3249 -0.2309
14842SOL    HW155745   2.538   9.546   3.292 -1.0453 -0.6161 -0.5208
14842SOL    HW255746   2.502   9.560   3.451  1.2575  2.2901 -0.2056
14843SOL     OW55747   8.808   7.147   6.464 -0.2231  1.0933  0.3445
14843SOL    HW155748   8.902   7.180   6.475  0.1263 -0.1720  1.1860
14843SOL    HW255749   8.796   7.114   6.370  0.2725  0.9567  0.3240
14844SOL     OW55750   9.857   0.616   2.369 -0.2041  0.2775 -0.1328
14844SOL    HW155751   9.907   0.541   2.412 -0.5144 -0.3133 -0.7905
14844SOL    HW255752   9.773   0.633   2.420 -0.6421 -0.5158 -0.5776
14845SOL     OW55753   5.343   2.213   1.701  0.2759 -0.4161  0.4852
14845SOL    HW155754   5.433   2.202   1.742  0.0055 -1.4725  0.8047
14845SOL    HW255755   5.287   2.133   1.720 -0.3399 -0.2977 -0.7253
14846SOL     OW55756   0.229   0.094   5.696 -0.2438  0.2489  0.1040
14846SOL    HW155757   0.238   0.168   5.629 -0.7943  0.6438  0.4516
14846SOL    HW255758   0.174   0.020   5.657 -0.0386  0.2053 -0.1006
14847SOL     OW55759   4.541   0.090   5.810 -0.7299 -0.6295 -0.0843
14847SOL    HW155760   4.565   0.139   5.726  1.1484  0.4062  1.0446
14847SOL    HW255761   4.546  -0.008   5.793  0.7045 -0.4299 -0.8755
14848SOL     OW55762   0.951   3.053   4.299 -0.0902 -0.2005  0.2261
14848SOL    HW155763   0.875   3.107   4.263 -0.9299 -2.7239 -1.9780
14848SOL    HW255764   0.958   3.066   4.398 -2.0829  1.6490  0.1471
14849SOL     OW55765   4.464   3.923   5.319  0.0995 -0.6553  0.1621
14849SOL    HW155766   4.507   3.849   5.267 -0.2745 -0.3090 -0.6553
14849SOL    HW255767   4.427   3.990   5.255  0.6170  0.3406  0.9049
14850SOL     OW55768   3.480   5.334   0.459 -0.1207  0.4995  0.0221
14850SOL    HW155769   3.425   5.348   0.542 -0.9191  0.7268 -0.5444
14850SOL    HW255770   3.567   5.293   0.485 -0.4129  0.4457  0.9698
14851SOL     OW55771   2.037   4.756   1.153  0.1529 -0.2223 -0.0153
14851SOL    HW155772   1.949   4.773   1.196 -0.2159  1.1916 -1.3087
14851SOL    HW255773   2.073   4.841   1.115  1.1243 -1.1790 -1.2748
14852SOL     OW55774   3.003   7.971   5.227  0.2293 -0.2111 -0.3668
14852SOL    HW155775   2.993   8.057   5.276 -0.8465 -0.6069  0.1055
14852SOL    HW255776   3.060   7.908   5.280  0.3183 -0.1020 -0.3312
14853SOL     OW55777   0.529   9.216   2.564 -0.1605  0.1442  0.0558
14853SOL    HW155778   0.616   9.171   2.540 -0.8570 -0.2301 -1.9262
14853SOL    HW255779   0.486   9.250   2.480 -0.9541  2.1542  1.2550
14854SOL     OW55780   2.895   7.621   6.218 -0.2729  0.6385 -0.2826
14854SOL    HW155781   2.823   7.557   6.191  0.0688  0.4121 -0.6645
14854SOL    HW255782   2.854   7.706   6.252 -0.7535 -0.5630  2.2262
14855SOL     OW55783   9.735   0.306   4.142 -0.5672 -0.8356 -0.1109
14855SOL    HW155784   9.778   0.223   4.177  0.7143 -0.5933 -1.0785
14855SOL    HW255785   9.728   0.300   4.043 -0.7860  0.0691 -0.1516
14856SOL     OW55786   4.502   2.717   3.731  0.3399  0.7716 -0.2921
14856SOL    HW155787   4.475   2.710   3.635 -1.5565  0.2703  0.2432
14856SOL    HW255788   4.442   2.658   3.786  2.8813 -0.7518  0.9325
14857SOL     OW55789   6.561   0.362   2.225  0.6880 -0.1402  0.0543
14857SOL    HW155790   6.466   0.393   2.217  0.9970  0.4371 -1.6635
14857SOL    HW255791   6.589   0.318   2.139  1.8693 -0.6168  0.6686
14858SOL     OW55792   3.809   9.216   6.071  0.1001  0.3365  0.0849
14858SOL    HW155793   3.766   9.161   6.000 -0.3500  0.7955 -0.0033
14858SOL    HW255794   3.822   9.161   6.154  1.2170 -0.3876 -0.5572
14859SOL     OW55795   4.917   1.367   5.345 -0.4723 -0.1545 -0.0353
14859SOL    HW155796   5.014   1.390   5.335 -0.6039 -0.0115 -1.0631
14859SOL    HW255797   4.886   1.394   5.437  0.8851 -1.8400  0.9411
14860SOL     OW55798   9.820   9.848   5.646  0.0511  0.2701 -0.1612
14860SOL    HW155799   9.827   9.922   5.713  0.9298  0.8895 -0.9108
14860SOL    HW255800   9.816   9.760   5.693  0.3158  0.7231  0.7152
14861SOL     OW55801   0.648   0.309   6.185  0.2646  0.2497 -0.4242
14861SOL    HW155802   0.703   0.245   6.131  0.9508  1.9524 -1.7913
14861SOL    HW255803   0.564   0.264   6.214  1.0598 -1.4916 -0.7477
14862SOL     OW55804   8.939   0.513   1.912  0.2446  0.3333 -0.1068
14862SOL    HW155805   8.860   0.568   1.937  0.7935  0.9433  0.3040
14862SOL    HW255806   8.910   0.419   1.892 -0.1764 -0.3205  3.3021
14863SOL     OW55807   0.857   9.883   1.273 -0.1730 -0.2344 -0.1363
14863SOL    HW155808   0.762   9.863   1.297  0.0434  1.3131  2.1847
14863SOL    HW255809   0.864   9.977   1.241  0.5483 -0.3747 -0.3900
14864SOL     OW55810   8.246   1.276   4.911  0.1266  0.1073 -0.5155
14864SOL    HW155811   8.286   1.272   5.003 -0.4787  0.7765 -0.2192
14864SOL    HW255812   8.285   1.203   4.855  3.1112  1.8211 -0.7737
14865SOL     OW55813   7.193   2.934   8.160  0.1571  0.5532 -0.4598
14865SOL    HW155814   7.229   2.972   8.245  1.2320  1.8880 -1.4881
14865SOL    HW255815   7.264   2.879   8.115 -0.0083  0.8713 -1.1109
14866SOL     OW55816   3.797   8.050   2.146  0.0025  0.0893  0.0617
14866SOL    HW155817   3.827   8.037   2.240  1.3843 -0.3310 -0.4284
14866SOL    HW255818   3.842   7.983   2.087 -1.0067  0.2234 -0.8712
14867SOL     OW55819   4.550   7.796   3.771  0.7464 -0.6820  0.0197
14867SOL    HW155820   4.589   7.888   3.773 -1.7142  0.4077 -0.4022
14867SOL    HW255821   4.534   7.769   3.676 -0.6666 -0.6213  0.2412
14868SOL     OW55822   1.259   9.856   4.326 -0.2387  0.3866  0.3125
14868SOL    HW155823   1.346   9.854   4.376  0.1386  0.5447 -0.3338
14868SOL    HW255824   1.192   9.801   4.375  0.2776  0.1015  0.7149
14869SOL     OW55825   9.563   2.392   0.940 -0.2861  0.3163  0.0785
14869SOL    HW155826   9.525   2.307   0.976 -2.7210  1.2755 -0.1220
14869SOL    HW255827   9.496   2.465   0.950  2.0298  2.4241  0.9693
14870SOL     OW55828   0.658   8.588   1.794  0.0318 -0.1304  0.4888
14870SOL    HW155829   0.695   8.625   1.879 -0.6562 -0.0652  0.7618
14870SOL    HW255830   0.607   8.504   1.813  0.0467 -0.2270  0.1126
14871SOL     OW55831   4.581   8.988   2.489  0.4341 -0.2711 -0.0076
14871SOL    HW155832   4.679   8.990   2.475  0.4239  0.2600 -0.0060
14871SOL    HW255833   4.558   8.918   2.557  0.6765 -1.3432 -1.0124
14872SOL     OW55834   3.309   1.278   2.471 -0.4678 -0.2750 -0.2129
14872SOL    HW155835   3.229   1.270   2.411 -0.2851  0.7207 -0.6050
14872SOL    HW255836   3.363   1.357   2.444 -0.8038  0.6794  1.7694
14873SOL     OW55837   8.798   5.819   3.390  0.0685 -0.6331 -0.1034
14873SOL    HW155838   8.833   5.884   3.458 -0.9770 -0.3549  0.1845
14873SOL    HW255839   8.821   5.726   3.418  2.0227 -0.3764 -0.7769
14874SOL     OW55840   4.749   4.771   3.971  0.2587 -0.7484  0.1738
14874SOL    HW155841   4.717   4.694   3.917  0.6221 -1.1987  0.5997
14874SOL    HW255842   4.673   4.810   4.022 -0.1222 -0.2105 -0.7955
14875SOL     OW55843   0.093   8.338   0.898  0.0201 -0.7918  0.7545
14875SOL    HW155844   0.107   8.351   0.996  1.9153  0.8168  0.2939
14875SOL    HW255845   0.072   8.425   0.855  1.0795 -1.1671 -0.5599
14876SOL     OW55846   0.278   3.085   1.119  0.2792 -0.0397  0.4340
14876SOL    HW155847   0.278   3.136   1.205  1.1553  0.0152  0.4114
14876SOL    HW255848   0.350   3.015   1.123  1.3960  1.0022 -0.8487
14877SOL     OW55849   4.685   4.623   2.582 -0.1496 -0.6601  0.4705
14877SOL    HW155850   4.768   4.657   2.540  0.7282 -1.5951  1.4271
14877SOL    HW255851   4.630   4.700   2.615  0.8210 -0.0948  0.7759
14878SOL     OW55852   2.374   6.167   4.032 -0.2258 -0.2228  0.0088
14878SOL    HW155853   2.307   6.239   4.049 -0.3712 -0.9729  2.8818
14878SOL    HW255854   2.449   6.204   3.977 -1.2442  1.5915 -0.2101
14879SOL     OW55855   2.254   5.938   3.934 -0.3792  0.5843  0.0150
14879SOL    HW155856   2.326   5.873   3.911 -1.1962 -0.0897 -0.6644
14879SOL    HW255857   2.293   6.016   3.982  0.8279  0.3249 -0.5431
14880SOL     OW55858   2.923   5.842   0.091  0.0847 -0.2324  0.1989
14880SOL    HW155859   2.899   5.807   0.182 -1.5333 -0.1344 -0.1611
14880SOL    HW255860   2.943   5.766   0.030 -2.4017 -0.5334 -0.3028
14881SOL     OW55861   1.137   8.050   0.851 -0.4222 -0.3082 -0.8085
14881SOL    HW155862   1.163   8.006   0.765  1.0181 -0.8305 -0.1173
14881SOL    HW255863   1.197   8.128   0.868  0.6800 -1.4641  0.7539
14882SOL     OW55864   6.287   4.190   8.164 -0.2381 -0.1334  0.1390
14882SOL    HW155865   6.228   4.270   8.152  0.2071  0.2333  0.3730
14882SOL    HW255866   6.354   4.209   8.236  0.6147 -0.2944 -0.6046
14883SOL     OW55867   9.727   3.327   4.810 -0.2379 -0.4962 -0.2265
14883SOL    HW155868   9.650   3.289   4.862 -0.5210 -0.5567 -0.6903
14883SOL    HW255869   9.813   3.300   4.854 -0.4942 -0.0573  0.5488
14884SOL     OW55870   8.399   7.100   6.015 -0.3327  0.2328 -0.3528
14884SOL    HW155871   8.479   7.051   6.051 -0.5839  0.3863  0.4264
14884SOL    HW255872   8.331   7.109   6.087 -1.0316  0.1562 -0.9996
14885SOL     OW55873   2.058   5.001   3.766 -0.1008  0.0337 -0.1500
14885SOL    HW155874   2.000   4.970   3.690 -0.5619  0.9748 -0.1920
14885SOL    HW255875   2.023   4.963   3.852  0.4512 -1.0745 -0.3999
14886SOL     OW55876   9.154   4.137   1.601 -0.7718  0.0471  0.1408
14886SOL    HW155877   9.253   4.129   1.616 -1.0398 -1.5820  1.1486
14886SOL    HW255878   9.110   4.049   1.619 -2.2487  0.3845 -1.7008
14887SOL     OW55879   9.642   3.029   6.209 -0.4553  0.0631 -0.5064
14887SOL    HW155880   9.581   3.105   6.230  1.8999  1.9953 -0.4173
14887SOL    HW255881   9.685   3.044   6.120  0.0944 -1.1262 -0.4543
14888SOL     OW55882   7.591   8.501   2.506  0.8940 -0.2390 -0.3227
14888SOL    HW155883   7.576   8.424   2.569 -0.2278  1.4500  1.4955
14888SOL    HW255884   7.512   8.512   2.446 -0.0006  1.0325  1.0779
14889SOL     OW55885   4.441   1.695   5.306 -0.1960 -0.5777 -0.6893
14889SOL    HW155886   4.411   1.741   5.222  0.3715  1.1579  0.0392
14889SOL    HW255887   4.408   1.746   5.385 -0.3384 -1.9570  0.1587
14890SOL     OW55888   0.155   1.022   1.488  0.5716 -0.3090 -0.4172
14890SOL    HW155889   0.130   1.054   1.397  0.8817  1.1520  0.0101
14890SOL    HW255890   0.072   1.008   1.542  0.3821 -1.2635 -0.9423
14891SOL     OW55891   5.015   7.868   4.798  0.1885 -0.6418 -0.3336
14891SOL    HW155892   5.076   7.880   4.720 -1.2902  1.3836 -1.2051
14891SOL    HW255893   4.920   7.870   4.767 -0.4154  0.3748  1.5374
14892SOL     OW55894   9.429   1.825   4.345 -0.8225  0.0166  0.1477
14892SOL    HW155895   9.485   1.799   4.267 -2.6385  0.9874 -1.5255
14892SOL    HW255896   9.375   1.746   4.375 -1.7126  0.2095 -0.9504
14893SOL     OW55897   3.505   5.378   5.523 -0.4011 -0.0543 -0.5746
14893SOL    HW155898   3.506   5.455   5.459  0.9426 -0.5268 -1.1208
14893SOL    HW255899   3.561   5.400   5.603  0.5375 -0.7250 -1.0411
14894SOL     OW55900   6.292   2.814   5.865  0.5588 -0.3873 -0.1560
14894SOL    HW155901   6.204   2.861   5.871  0.4774 -0.3298 -1.6082
14894SOL    HW255902   6.279   2.716   5.879  0.3153 -0.3262  0.0373
14895SOL     OW55903   0.547   9.280   3.984 -0.8385 -0.4665  0.2082
14895SOL    HW155904   0.502   9.207   3.932 -1.4759 -0.2626  0.4704
14895SOL    HW255905   0.600   9.337   3.921  0.1526 -1.5082  0.0861
14896SOL     OW55906   0.752   8.617   6.431  0.5297  0.2794  0.0588
14896SOL    HW155907   0.708   8.553   6.494 -0.1322 -0.9909 -1.6224
14896SOL    HW255908   0.696   8.624   6.348  1.7964  1.2723 -0.7247
14897SOL     OW55909   7.060   3.230   1.370 -0.1999 -0.2909  0.0703
14897SOL    HW155910   7.134   3.175   1.331  1.3496  1.1823  0.8669
14897SOL    HW255911   6.995   3.171   1.417  0.4707 -1.6049 -0.6310
14898SOL     OW55912   9.698   2.118   1.476  0.2435  0.6526 -0.5566
14898SOL    HW155913   9.771   2.099   1.410  1.0852  0.5057  0.4061
14898SOL    HW255914   9.613   2.076   1.445  0.9659 -0.6177 -0.8430
14899SOL     OW55915   1.320   9.945   3.613 -0.6467 -0.3276 -0.2319
14899SOL    HW155916   1.352   9.884   3.540 -1.3010 -1.6632  0.5750
14899SOL    HW255917   1.353  10.038   3.596  1.4771 -1.1682 -0.7834
14900SOL     OW55918   5.309   0.080   2.640 -0.0357 -0.5112 -0.6193
14900SOL    HW155919   5.295   0.087   2.739  0.2948 -0.4965 -0.5754
14900SOL    HW255920   5.320  -0.016   2.614 -0.4977 -0.5478 -0.6923
14901SOL     OW55921   1.492   1.867   0.821  0.2102  0.4409 -0.5317
14901SOL    HW155922   1.448   1.857   0.732 -0.8942  2.1017 -0.1798
14901SOL    HW255923   1.447   1.939   0.874 -1.4469 -2.8205  2.7932
14902SOL     OW55924   9.435   2.176   0.641 -0.2180  0.3485  0.2213
14902SOL    HW155925   9.350   2.183   0.588 -0.5104 -2.1424  0.3112
14902SOL    HW255926   9.412   2.156   0.737  0.4851 -0.6584  0.1808
14903SOL     OW55927   4.584   5.616   3.934  0.2597  0.1894  0.1528
14903SOL    HW155928   4.506   5.645   3.988  0.4773  0.6255  0.2355
14903SOL    HW255929   4.612   5.524   3.961  0.7360  0.6392  1.1837
14904SOL     OW55930   9.090   0.742   1.219  0.3900 -0.4739 -0.3626
14904SOL    HW155931   9.074   0.649   1.185 -0.8111 -0.6428  0.5974
14904SOL    HW255932   9.002   0.785   1.240  1.0304  0.2170  0.9562
14905SOL     OW55933   8.599   5.705   4.073 -0.5067 -0.0570  0.0733
14905SOL    HW155934   8.562   5.649   4.147 -1.4997  1.2871  0.6167
14905SOL    HW255935   8.534   5.706   3.997 -0.2793 -0.0078 -0.1205
14906SOL     OW55936   4.980   5.804   1.508 -0.1261 -0.8732 -0.0052
14906SOL    HW155937   5.052   5.735   1.511 -0.6583 -1.4501 -0.2975
14906SOL    HW255938   5.020   5.894   1.489  0.3575 -1.4637 -1.9421
14907SOL     OW55939   8.906   7.702   5.795 -0.3387  0.4405 -0.0620
14907SOL    HW155940   8.913   7.633   5.723  0.4654  0.2655  0.1808
14907SOL    HW255941   8.923   7.792   5.757  0.2666  0.3298 -0.0645
14908SOL     OW55942   1.102   9.317   2.927  0.0550  0.7042  0.3076
14908SOL    HW155943   1.110   9.416   2.912 -1.0285  0.7440 -0.0672
14908SOL    HW255944   1.161   9.269   2.863 -0.1530  1.0837 -0.1780
14909SOL     OW55945   3.467   4.893   0.192 -0.0609  0.2580  0.1228
14909SOL    HW155946   3.457   4.972   0.253 -1.4426 -0.2683  0.5975
14909SOL    HW255947   3.404   4.821   0.221 -0.9091  0.0807 -2.0818
14910SOL     OW55948   0.210   6.557   4.002 -0.4683  0.2816 -0.6668
14910SOL    HW155949   0.246   6.489   3.938  0.5395 -0.4741  0.6704
14910SOL    HW255950   0.168   6.510   4.079  2.8488  1.0699  1.7492
14911SOL     OW55951   8.115   6.340   4.962 -0.8940 -0.1036 -0.0566
14911SOL    HW155952   8.172   6.397   4.901  2.4451 -2.7106  0.4543
14911SOL    HW255953   8.101   6.388   5.048 -0.1512  0.9606 -0.5082
14912SOL     OW55954   8.593   2.483   0.821 -0.2285 -0.0538 -0.1068
14912SOL    HW155955   8.574   2.522   0.911 -0.7231 -1.1332  0.2634
14912SOL    HW255956   8.668   2.416   0.830 -0.2668 -0.1452 -0.5006
14913SOL     OW55957   0.729   0.208   1.474 -0.5013  0.2564  0.1144
14913SOL    HW155958   0.828   0.199   1.479 -0.5010 -1.0783 -1.8114
14913SOL    HW255959   0.689   0.121   1.446 -2.3791  0.2685  2.6219
14914SOL     OW55960   6.909   7.182   4.650  0.1625  0.0548  0.1622
14914SOL    HW155961   6.996   7.176   4.699 -0.9401 -0.5213  2.0938
14914SOL    HW255962   6.923   7.233   4.565  2.5441 -0.7205  0.0375
14915SOL     OW55963   3.117   1.206   0.882 -0.1524  0.6204 -0.0781
14915SOL    HW155964   3.122   1.305   0.899 -1.6141  0.8965 -1.0657
14915SOL    HW255965   3.173   1.157   0.949  1.4128  2.1798 -0.2113
14916SOL     OW55966   9.752   6.958   4.998 -0.2702  0.4840 -0.6883
14916SOL    HW155967   9.844   6.998   5.000 -0.5009  0.9866 -0.1422
14916SOL    HW255968   9.702   6.986   5.079 -0.9937  0.4019 -1.1056
14917SOL     OW55969   0.873   6.789   5.302  0.0028  0.4811  0.4324
14917SOL    HW155970   0.806   6.716   5.293  0.4833  0.0306  0.4524
14917SOL    HW255971   0.854   6.860   5.234 -0.5754  0.4243  0.5353
14918SOL     OW55972   7.790   8.331   5.222 -0.2521  0.4389 -0.2746
14918SOL    HW155973   7.771   8.291   5.132  1.2315  0.5438 -0.6462
14918SOL    HW255974   7.705   8.337   5.275 -0.6920 -2.2072 -0.6263
14919SOL     OW55975   1.937   1.859   2.213 -0.1900 -0.2500  0.1276
14919SOL    HW155976   1.932   1.957   2.233  0.4477 -0.8265  3.4946
14919SOL    HW255977   1.846   1.818   2.223  0.1466 -0.5581  2.2613
14920SOL     OW55978   9.939   4.629   2.218 -0.2125 -0.1997 -0.2596
14920SOL    HW155979   9.952   4.571   2.298  1.0462  0.9097  0.3438
14920SOL    HW255980   9.864   4.592   2.163 -0.7996 -1.2246  1.1834
14921SOL     OW55981   7.569   5.405   5.613  0.3487  0.1499  0.2644
14921SOL    HW155982   7.535   5.409   5.707 -0.3048  0.7241  0.0072
14921SOL    HW255983   7.607   5.315   5.596  0.4469  0.0290  1.0746
14922SOL     OW55984   4.787   9.486   3.256  0.7336  0.1983  0.5569
14922SOL    HW155985   4.691   9.458   3.258  1.2208 -1.5506  0.2356
14922SOL    HW255986   4.806   9.542   3.337 -0.6918  1.0881  0.3109
14923SOL     OW55987   4.284   0.135   1.427 -0.0636 -0.0981 -0.2077
14923SOL    HW155988   4.338   0.189   1.493  0.2653 -0.4120 -0.2175
14923SOL    HW255989   4.332   0.133   1.339 -0.6999  0.6603 -0.5758
14924SOL     OW55990   7.673   7.805   2.201  0.5213  0.2317 -0.3447
14924SOL    HW155991   7.611   7.789   2.124  1.2271 -1.4094 -0.5920
14924SOL    HW255992   7.687   7.719   2.251 -0.7306  1.4847  2.2426
14925SOL     OW55993   4.525   0.418   5.990 -0.6004  0.2232 -0.1570
14925SOL    HW155994   4.511   0.407   5.892 -2.7997 -0.8518  0.2250
14925SOL    HW255995   4.544   0.513   6.011 -2.0662  0.8217 -1.4337
14926SOL     OW55996   8.625   7.290   5.963  0.6302 -0.1122  0.2023
14926SOL    HW155997   8.639   7.207   5.910  0.7964  0.5063 -0.7466
14926SOL    HW255998   8.528   7.310   5.969  0.4757 -1.2659  1.8503
14927SOL     OW55999   5.099   0.066   5.024 -0.0459  0.6933 -0.1510
14927SOL    HW156000   5.052   0.014   5.095 -0.4992  0.6668 -0.4638
14927SOL    HW256001   5.033   0.126   4.978 -0.6332 -2.0280 -3.0848
14928SOL     OW56002   9.197   9.988   3.188 -0.4201  0.0367  0.2795
14928SOL    HW156003   9.220  10.014   3.095  0.9715  0.7683  0.8206
14928SOL    HW256004   9.097   9.988   3.199 -0.5570  1.0389 -0.8821
14929SOL     OW56005   5.333   4.250   0.964 -0.5741 -0.1141 -0.4610
14929SOL    HW156006   5.364   4.158   0.986 -0.7306 -0.0317  0.1051
14929SOL    HW256007   5.247   4.268   1.011  0.6008  1.1410  1.2681
14930SOL     OW56008   9.455   3.435   7.890 -0.1013  0.7106 -0.2125
14930SOL    HW156009   9.383   3.502   7.906 -2.0990 -1.4019 -0.1374
14930SOL    HW256010   9.453   3.405   7.794  0.9979  0.9611 -0.3296
14931SOL     OW56011   8.984   3.854   4.368  0.2712 -0.1546  0.1976
14931SOL    HW156012   8.998   3.895   4.458  1.5533 -1.7963  0.7661
14931SOL    HW256013   9.030   3.765   4.364 -2.1284 -1.3813 -1.1261
14932SOL     OW56014   2.897   2.663   0.296  0.1083  0.4844  0.0894
14932SOL    HW156015   2.839   2.718   0.355 -0.0426  1.5388 -1.0242
14932SOL    HW256016   2.947   2.596   0.351 -1.6314  0.0158  1.1492
14933SOL     OW56017   9.675   5.314   5.354  0.4355  0.1347  0.2747
14933SOL    HW156018   9.607   5.373   5.397  1.0392  0.4652  0.7720
14933SOL    HW256019   9.666   5.319   5.255  0.1784  0.6958  0.3283
14934SOL     OW56020   0.269   1.721   2.351  0.1699 -0.6081 -0.2418
14934SOL    HW156021   0.356   1.701   2.306  0.2767 -1.2028  0.2351
14934SOL    HW256022   0.284   1.789   2.423 -0.5745  3.1946 -3.4548
14935SOL     OW56023   4.546   8.883   3.245  0.5894 -0.0302 -1.0055
14935SOL    HW156024   4.626   8.933   3.275 -0.3042  0.7852  0.0412
14935SOL    HW256025   4.500   8.934   3.173 -1.1387  1.4099  1.0670
14936SOL     OW56026   1.358   0.451   0.233  0.1238  0.0833 -0.3053
14936SOL    HW156027   1.424   0.379   0.212  0.3245  0.0733  0.3675
14936SOL    HW256028   1.405   0.531   0.269 -0.2461  0.0210  0.3201
14937SOL     OW56029   5.738   0.687   3.146  0.3167 -0.4481 -0.3533
14937SOL    HW156030   5.755   0.699   3.048 -0.1841  1.1496 -0.2536
14937SOL    HW256031   5.805   0.740   3.198  0.9412 -1.7499  0.1918
14938SOL     OW56032   0.474   8.024   5.969 -0.6071  0.2463  0.2918
14938SOL    HW156033   0.400   8.009   5.903  1.9123 -1.3091 -2.2440
14938SOL    HW256034   0.478   7.947   6.032  0.3508 -0.8317 -1.0631
14939SOL     OW56035   9.964   4.541   0.890 -0.0015  0.6439 -0.1973
14939SOL    HW156036   9.911   4.603   0.948 -0.4002  0.8925 -0.8246
14939SOL    HW256037   9.903   4.492   0.829  0.4922  0.9939 -0.9840
14940SOL     OW56038   6.289   1.292   6.009 -0.3621  0.3407 -0.3879
14940SOL    HW156039   6.219   1.342   6.060 -1.3156  0.3829 -1.7174
14940SOL    HW256040   6.376   1.341   6.015 -0.7553  0.9811  0.1676
14941SOL     OW56041   9.468   2.331   1.440 -0.1350  0.2788 -0.1617
14941SOL    HW156042   9.547   2.273   1.456  0.6382  0.6438 -2.4724
14941SOL    HW256043   9.384   2.276   1.446  0.4706 -0.6935 -0.5344
14942SOL     OW56044   7.176   6.686   6.158  0.4263  0.1619  0.4246
14942SOL    HW156045   7.126   6.762   6.200  0.5631 -0.0964  1.0585
14942SOL    HW256046   7.273   6.692   6.183  0.7021  0.5908 -0.6969
14943SOL     OW56047   1.521   7.840   0.191  0.3042 -0.5973  0.0174
14943SOL    HW156048   1.542   7.928   0.148  2.9355 -1.3100 -0.2658
14943SOL    HW256049   1.423   7.833   0.206 -0.0684  1.9411 -0.9199
14944SOL     OW56050   7.654   9.440   4.963 -0.0897 -0.4485  0.1678
14944SOL    HW156051   7.715   9.499   4.912  0.0555 -0.0715  0.7823
14944SOL    HW256052   7.580   9.494   5.004 -0.4868 -0.8145 -0.0538
14945SOL     OW56053   6.273   3.181   5.697  0.3685  0.0326 -0.4471
14945SOL    HW156054   6.244   3.241   5.622  0.5116  1.1263  0.3632
14945SOL    HW256055   6.366   3.150   5.681  0.5338  0.5746 -0.5185
14946SOL     OW56056   7.179   0.734   0.839  0.4688  0.2794 -0.4778
14946SOL    HW156057   7.095   0.776   0.806  0.4238 -0.7115 -1.6491
14946SOL    HW256058   7.246   0.806   0.859 -0.7479  1.0944  0.7931
14947SOL     OW56059   9.712   9.564   0.694 -0.2734 -0.9785  0.7582
14947SOL    HW156060   9.642   9.550   0.624  0.0104 -2.1981  0.7054
14947SOL    HW256061   9.792   9.608   0.653 -0.9267  0.2423  0.7781
14948SOL     OW56062   8.903   1.521   2.715  0.5935  0.5098  1.0125
14948SOL    HW156063   8.988   1.534   2.665 -0.9411 -5.0025 -3.6314
14948SOL    HW256064   8.832   1.580   2.677  1.0158  1.0668  1.0914
14949SOL     OW56065   9.927   6.995   5.513 -0.3300 -0.0526 -0.0575
14949SOL    HW156066   9.976   6.943   5.583 -1.2993 -0.0970  0.5968
14949SOL    HW256067   9.972   6.982   5.425  0.4251 -0.6517  0.4066
14950SOL     OW56068   2.369   4.711   1.973  0.2984 -0.8001 -0.0502
14950SOL    HW156069   2.350   4.617   1.943  0.0227 -0.6419 -0.3729
14950SOL    HW256070   2.466   4.721   1.992  0.3277 -1.1546 -0.0188
14951SOL     OW56071   8.805   4.783   5.783 -0.0246  0.3947 -0.0346
14951SOL    HW156072   8.891   4.831   5.794  0.5567 -0.3124 -1.3482
14951SOL    HW256073   8.766   4.803   5.693  0.3892 -1.8034 -0.7459
14952SOL     OW56074   8.250   1.143   0.989  0.0691 -0.2979  0.0847
14952SOL    HW156075   8.179   1.105   1.048 -1.2447 -0.1620 -1.3745
14952SOL    HW256076   8.219   1.231   0.953  0.3676 -0.9345 -1.7358
14953SOL     OW56077   3.077   8.440   2.722 -0.0804  0.2415  0.3243
14953SOL    HW156078   3.058   8.370   2.654  0.8406 -0.9996  1.3288
14953SOL    HW256079   3.007   8.511   2.718 -0.9823 -0.7057 -0.7370
14954SOL     OW56080   3.693   9.760   5.429 -0.3123 -0.4044 -0.2742
14954SOL    HW156081   3.771   9.805   5.472  0.1876  0.7103 -2.3191
14954SOL    HW256082   3.615   9.762   5.492  0.4015  1.2263  0.5937
14955SOL     OW56083   9.948   0.135   4.286  0.3651 -0.2131  0.2699
14955SOL    HW156084  10.022   0.174   4.231 -1.4978  0.9908 -1.4485
14955SOL    HW256085   9.958   0.164   4.381  0.9500  1.6459 -0.3424
14956SOL     OW56086   7.371   9.582   2.017 -0.4973  0.3579  0.4119
14956SOL    HW156087   7.373   9.522   1.937  0.4780 -1.1498  1.5452
14956SOL    HW256088   7.291   9.561   2.072 -0.4917  0.5355  0.4887
14957SOL     OW56089   0.802   1.702   2.127  0.4964  0.1341 -0.4510
14957SOL    HW156090   0.796   1.602   2.127  1.7414  0.0461 -0.6588
14957SOL    HW256091   0.812   1.734   2.033  0.7257  0.4143 -0.3298
14958SOL     OW56092   6.559   3.152   5.210 -0.6208  0.3367 -0.2077
14958SOL    HW156093   6.549   3.055   5.232  0.4794  0.1133 -0.6338
14958SOL    HW256094   6.549   3.206   5.294  1.4995 -0.3684  0.5577
14959SOL     OW56095   1.871   0.996   3.379 -0.4852 -0.1284  0.2500
14959SOL    HW156096   1.793   1.017   3.319 -0.1964  0.8908  0.2280
14959SOL    HW256097   1.911   1.081   3.413  1.9838 -0.5370 -1.4765
14960SOL     OW56098   6.600   4.276   0.913  0.0559  0.5413  0.1280
14960SOL    HW156099   6.635   4.251   0.823  0.8093  0.1410  0.5269
14960SOL    HW256100   6.505   4.245   0.922  0.0776  0.3191 -0.4192
14961SOL     OW56101   9.977   6.012   5.588 -0.0459 -0.6704 -0.7268
14961SOL    HW156102   9.915   5.946   5.630 -1.1798  1.1400  0.5521
14961SOL    HW256103   9.937   6.104   5.595  1.5131  0.1661 -2.3952
14962SOL     OW56104   7.886   7.857   2.666 -0.3565 -0.4057  0.2378
14962SOL    HW156105   7.976   7.838   2.705 -0.0555  0.6150  0.0613
14962SOL    HW256106   7.892   7.854   2.566 -0.8300 -1.6832  0.2321
14963SOL     OW56107   7.587   1.955   0.939 -0.2026  0.2831 -0.0746
14963SOL    HW156108   7.650   1.880   0.959 -0.0672  0.4964  0.3032
14963SOL    HW256109   7.493   1.922   0.944 -0.2101  0.5597  1.9105
14964SOL     OW56110   2.010   7.937   3.296  0.8238  0.2847  0.0240
14964SOL    HW156111   1.999   7.879   3.216  1.0291 -0.8733  0.8217
14964SOL    HW256112   2.102   7.928   3.332  0.9338  1.2974  0.0187
14965SOL     OW56113   9.993   8.454   0.146 -0.2584  0.5669 -0.0796
14965SOL    HW156114  10.030   8.387   0.082  2.6246  1.5340  0.5054
14965SOL    HW256115   9.999   8.419   0.239 -2.3139  0.1037 -0.0998
14966SOL     OW56116   9.527   7.696   2.342  0.0874  1.0193 -1.1874
14966SOL    HW156117   9.511   7.636   2.264 -1.2019 -0.2201  0.0070
14966SOL    HW256118   9.442   7.743   2.366 -0.0138 -0.0087  0.5858
14967SOL     OW56119   6.689   5.370   0.282 -0.4951 -0.0308 -0.3350
14967SOL    HW156120   6.760   5.313   0.240  1.3703  2.3255 -0.4812
14967SOL    HW256121   6.705   5.377   0.380  0.6548  2.0514 -0.6353
14968SOL     OW56122   2.175   2.220   0.464 -0.3165  0.0564  0.8157
14968SOL    HW156123   2.239   2.292   0.437 -0.2302 -0.4407 -0.3590
14968SOL    HW256124   2.168   2.217   0.564  1.6198  0.0016  0.9709
14969SOL     OW56125   7.909   0.806   5.549  0.5957 -0.1368 -0.3864
14969SOL    HW156126   7.930   0.780   5.455  0.4429  1.5506 -0.9004
14969SOL    HW256127   7.987   0.856   5.588  0.1292  0.3610 -0.0838
14970SOL     OW56128   7.659   3.932   3.834  0.5019  0.3482  0.1196
14970SOL    HW156129   7.693   4.025   3.818 -1.1665  0.9851  0.1495
14970SOL    HW256130   7.665   3.879   3.750  1.9873  0.2990  0.2440
14971SOL     OW56131   8.458   2.190   5.279 -1.0851  0.4112  0.1969
14971SOL    HW156132   8.362   2.180   5.252 -0.8018  0.5866 -0.8832
14971SOL    HW256133   8.503   2.100   5.276 -1.6160  0.0534  2.2697
14972SOL     OW56134   3.289   8.808   5.034  0.1251 -0.2148 -0.2087
14972SOL    HW156135   3.239   8.883   5.078  0.2593  0.1403 -0.6662
14972SOL    HW256136   3.323   8.745   5.105 -0.7322 -0.3167  0.1219
14973SOL     OW56137   1.601   1.608   3.190 -0.2145 -0.6987 -0.8634
14973SOL    HW156138   1.629   1.515   3.166  1.3836 -0.4864  0.1303
14973SOL    HW256139   1.680   1.660   3.223 -1.3367  0.6347 -0.2052
14974SOL     OW56140   6.805   5.583   8.152 -0.1660  0.2884  0.0134
14974SOL    HW156141   6.735   5.577   8.223 -0.0223 -1.1392  0.0547
14974SOL    HW256142   6.763   5.604   8.064 -0.7871 -1.5384 -0.1491
14975SOL     OW56143   3.986   6.370   4.038 -0.0868  0.0249  0.0913
14975SOL    HW156144   3.970   6.459   4.080 -0.3241  0.2852 -0.5392
14975SOL    HW256145   4.056   6.379   3.967 -0.3419 -0.2268 -0.1939
14976SOL     OW56146   3.054   5.257   4.349 -0.0726 -0.1043  0.3513
14976SOL    HW156147   3.125   5.188   4.362 -1.3653 -2.0097 -2.3161
14976SOL    HW256148   2.967   5.212   4.328 -1.1409  2.3163 -0.5686
14977SOL     OW56149   8.191   0.372   5.296 -0.2753  0.3845 -0.9935
14977SOL    HW156150   8.125   0.304   5.328  2.2456 -1.9197 -0.5256
14977SOL    HW256151   8.173   0.459   5.341 -1.3974 -0.8779  1.0841
14978SOL     OW56152   1.365   3.311   3.997 -0.2896  0.2368  0.3466
14978SOL    HW156153   1.382   3.213   4.008  1.2150  0.7180  2.7933
14978SOL    HW256154   1.369   3.335   3.900 -0.9124 -2.1515 -0.3031
14979SOL     OW56155   3.840   4.982   0.842  0.7817  0.8736  0.6824
14979SOL    HW156156   3.766   5.011   0.903 -0.0920  0.2619 -0.0680
14979SOL    HW256157   3.926   4.983   0.892 -0.0025 -0.1530  2.1069
14980SOL     OW56158   8.089   2.253   3.721 -0.4478  0.3920  0.8575
14980SOL    HW156159   8.106   2.160   3.691 -0.6414  1.0571 -1.4663
14980SOL    HW256160   7.990   2.267   3.732 -0.4831  0.5379  0.3896
14981SOL     OW56161   5.029   7.523   2.747 -0.2255  0.1038 -0.0910
14981SOL    HW156162   4.971   7.567   2.816 -1.5452  0.5229 -1.4429
14981SOL    HW256163   4.973   7.462   2.691  0.9895 -0.8463 -0.2900
14982SOL     OW56164   6.918   3.645   1.498  0.4653  0.4273 -0.3470
14982SOL    HW156165   6.856   3.631   1.421 -0.9886 -3.3176  1.3916
14982SOL    HW256166   6.997   3.584   1.489 -0.1908 -0.7597  1.5309
14983SOL     OW56167   9.697   2.999   1.310 -0.0233  0.2283 -0.2571
14983SOL    HW156168   9.793   2.973   1.316  0.3716  1.7838  0.2230
14983SOL    HW256169   9.675   3.027   1.216 -0.4238 -1.6400 -0.7520
14984SOL     OW56170   4.627   2.859   1.698 -0.1029 -0.0878 -0.4152
14984SOL    HW156171   4.691   2.912   1.753  0.8338  0.4992 -2.0379
14984SOL    HW256172   4.574   2.798   1.758 -0.6616  2.0860  1.3738
14985SOL     OW56173   0.501   2.281   2.741 -0.1340  0.8863  0.2907
14985SOL    HW156174   0.568   2.326   2.683 -0.6453  2.4723  0.8908
14985SOL    HW256175   0.535   2.277   2.835 -0.5526  1.0317  0.4535
14986SOL     OW56176   8.069   0.962   5.748 -0.1695  0.1416 -0.3060
14986SOL    HW156177   8.156   0.978   5.793 -0.5973  2.4583 -0.2381
14986SOL    HW256178   8.016   0.895   5.800  0.5567  0.5733  1.0026
14987SOL     OW56179   3.744   6.576   3.405 -0.3596 -0.2337 -0.0583
14987SOL    HW156180   3.788   6.563   3.316  0.9520  0.0440  0.5415
14987SOL    HW256181   3.741   6.673   3.427 -1.7771 -0.1976 -0.3264
14988SOL     OW56182   7.695   9.505   4.606 -0.0923 -0.0516  0.0053
14988SOL    HW156183   7.633   9.456   4.667  1.1131  0.0253  1.3069
14988SOL    HW256184   7.642   9.564   4.545 -1.3924 -1.1296  0.0726
14989SOL     OW56185   4.389   3.074   0.875  0.2829 -0.2509 -0.3147
14989SOL    HW156186   4.420   3.168   0.892  0.0507 -0.6623  2.6855
14989SOL    HW256187   4.294   3.076   0.845  0.9139  0.5704 -2.3746
14990SOL     OW56188   0.563   1.811   4.127 -0.1452  0.2741 -0.5236
14990SOL    HW156189   0.634   1.792   4.060  0.8713 -0.6992  0.7998
14990SOL    HW256190   0.573   1.905   4.161  0.0620  0.3713 -0.8533
14991SOL     OW56191   6.638   4.289   1.589 -0.0116 -0.2359  0.6652
14991SOL    HW156192   6.647   4.231   1.670 -1.6590 -1.0058  0.3172
14991SOL    HW256193   6.550   4.272   1.546  0.1636  1.3770 -0.3604
14992SOL     OW56194   0.286   4.296   3.364 -0.1138 -0.1420 -0.1086
14992SOL    HW156195   0.190   4.313   3.340  0.0819  2.9009  1.0067
14992SOL    HW256196   0.301   4.198   3.373 -2.8980 -0.7203 -1.2212
14993SOL     OW56197   3.468   0.398   1.523 -0.4870 -0.5650  0.3536
14993SOL    HW156198   3.457   0.496   1.506 -0.2094 -0.9416 -2.0885
14993SOL    HW256199   3.383   0.361   1.561 -0.4241  0.6910  1.7953
14994SOL     OW56200   3.339   1.598   2.178  0.4360  0.4148  0.5935
14994SOL    HW156201   3.381   1.597   2.088  1.1246 -4.8170  0.8211
14994SOL    HW256202   3.241   1.580   2.169  0.4543  0.1713  0.9015
14995SOL     OW56203   0.639   3.557   3.735 -0.5316 -0.1479 -0.2055
14995SOL    HW156204   0.688   3.557   3.648  1.2396  4.2988  0.6376
14995SOL    HW256205   0.705   3.555   3.810 -1.9952 -2.1187  1.0900
14996SOL     OW56206   1.061   2.190   4.996 -0.2007  0.0735 -0.6428
14996SOL    HW156207   1.103   2.134   5.067  0.4809 -0.1640 -1.2281
14996SOL    HW256208   1.105   2.280   4.995 -1.4622  0.7169  0.4643
14997SOL     OW56209   8.319   5.614   5.070 -0.3596  0.1152 -0.1371
14997SOL    HW156210   8.390   5.546   5.089 -0.3723  0.5089  1.3393
14997SOL    HW256211   8.247   5.572   5.015 -1.4761 -1.7285  2.6237
14998SOL     OW56212   3.163   7.904   1.895  0.3933 -0.4988 -0.5222
14998SOL    HW156213   3.246   7.961   1.888  0.4842 -0.5174  0.4341
14998SOL    HW256214   3.163   7.855   1.981 -1.1157  0.2837 -0.0486
14999SOL     OW56215   2.834   2.593   1.806  0.0077  0.3199 -0.7048
14999SOL    HW156216   2.849   2.592   1.905  0.8786 -0.5757 -0.8309
14999SOL    HW256217   2.739   2.615   1.787 -0.2836  0.0320  0.3510
15000SOL     OW56218   6.901   1.485   3.318  0.4695 -0.2035 -0.0772
15000SOL    HW156219   6.953   1.475   3.403  0.8147 -0.8538 -0.3655
15000SOL    HW256220   6.943   1.557   3.262 -0.2792  0.8527  0.6836
15001SOL     OW56221   0.132   0.529   2.116  0.3432  0.1052 -0.8091
15001SOL    HW156222   0.052   0.470   2.108 -0.1934  0.9762 -2.1951
15001SOL    HW256223   0.210   0.477   2.151 -0.5857 -0.9773 -0.3444
15002SOL     OW56224   7.241   1.628   1.731  0.1975  0.0565 -0.4343
15002SOL    HW156225   7.285   1.560   1.672  1.2765  0.1522  0.2460
15002SOL    HW256226   7.142   1.612   1.732  0.3219 -0.7974 -1.1741
15003SOL     OW56227   3.469   6.865   5.311 -0.1072  0.3357  0.1233
15003SOL    HW156228   3.534   6.912   5.369  1.6488 -2.7917  0.7855
15003SOL    HW256229   3.386   6.843   5.363  0.5528 -0.4770  0.8395
15004SOL     OW56230   2.765   8.783   1.849 -0.9722  0.4887 -0.0620
15004SOL    HW156231   2.711   8.866   1.831 -0.9379  1.1420  2.6337
15004SOL    HW256232   2.862   8.804   1.835 -1.0823  0.4717 -0.8716
15005SOL     OW56233   3.292   9.140   1.587 -0.2241 -0.2843  0.1831
15005SOL    HW156234   3.367   9.081   1.616  1.6360  1.2533 -1.3092
15005SOL    HW256235   3.270   9.205   1.660  0.2892 -0.3747  0.4206
15006SOL     OW56236   6.499   0.670   6.125 -0.3719 -0.3963 -0.6541
15006SOL    HW156237   6.578   0.609   6.124  0.0581  0.1289  0.2407
15006SOL    HW256238   6.519   0.751   6.181 -2.1721 -1.1437  1.1734
15007SOL     OW56239   0.711   8.442   2.182 -0.2807 -0.8654 -0.5632
15007SOL    HW156240   0.740   8.422   2.276  1.2866 -0.1334 -0.8797
15007SOL    HW256241   0.612   8.439   2.177 -0.3748 -1.1387  1.0741
15008SOL     OW56242   1.891   3.559   1.574  0.0892  0.2374 -0.4696
15008SOL    HW156243   1.961   3.507   1.525 -0.2073 -0.3637 -0.2626
15008SOL    HW256244   1.935   3.619   1.640  0.3736 -0.8519  0.3446
15009SOL     OW56245   7.532   0.354   6.208  0.0253  0.3432  0.2571
15009SOL    HW156246   7.617   0.311   6.237 -0.4610  0.5750  2.0699
15009SOL    HW256247   7.546   0.396   6.118  0.7790 -2.6834 -1.1037
15010SOL     OW56248   0.117   0.597   4.920 -0.1578 -0.4676  0.0278
15010SOL    HW156249   0.094   0.537   4.996  3.1629 -0.2310  1.2995
15010SOL    HW256250   0.164   0.545   4.849  3.1059  0.6141  1.3158
15011SOL     OW56251   0.579   0.922   2.892 -0.2180 -0.3394 -0.0469
15011SOL    HW156252   0.558   0.919   2.794 -2.2178 -1.2867  0.3886
15011SOL    HW256253   0.565   0.832   2.932  0.3416  0.1019  1.1779
15012SOL     OW56254   7.710   6.904   3.435  0.0218  0.1973 -0.1484
15012SOL    HW156255   7.774   6.827   3.438  0.1607  0.3805  3.1731
15012SOL    HW256256   7.616   6.869   3.438  0.0671  0.0853  0.0250
15013SOL     OW56257   0.369   4.068   3.666 -0.3008  0.0380  0.5746
15013SOL    HW156258   0.449   4.054   3.608 -0.4566  1.2659  0.0376
15013SOL    HW256259   0.296   4.005   3.638 -1.0304  1.8733 -1.8338
15014SOL     OW56260   5.446   2.795   0.431 -0.1034  0.3203 -0.7905
15014SOL    HW156261   5.441   2.827   0.526 -0.8205 -0.7834 -0.4516
15014SOL    HW256262   5.381   2.847   0.375 -1.2392 -0.5019 -0.2476
15015SOL     OW56263   8.728   1.818   0.572 -0.3554 -0.4809 -0.6960
15015SOL    HW156264   8.665   1.766   0.515  0.1428 -0.2520 -1.4758
15015SOL    HW256265   8.716   1.916   0.556 -0.8790 -0.3710  0.3195
15016SOL     OW56266   0.995   6.228   4.018 -0.1097  0.0462 -0.3697
15016SOL    HW156267   0.918   6.179   3.976 -0.6280  0.2780  0.2948
15016SOL    HW256268   1.025   6.178   4.100 -0.3509  0.5987  0.0595
15017SOL     OW56269   0.611   7.704   3.982  0.1154  0.5278 -0.7496
15017SOL    HW156270   0.590   7.617   4.026  1.3273  1.1238  1.0501
15017SOL    HW256271   0.530   7.737   3.934 -1.7599  0.6480  2.3639
15018SOL     OW56272   4.244   0.528   3.464  0.2429  0.3268  0.1219
15018SOL    HW156273   4.197   0.440   3.474  0.1989  0.2283 -0.8443
15018SOL    HW256274   4.176   0.602   3.462  0.1012  0.1690 -1.4549
15019SOL     OW56275   1.026   6.319   0.595  0.3128 -0.3643  0.4142
15019SOL    HW156276   0.992   6.319   0.689 -0.5497  0.8191  0.1210
15019SOL    HW256277   0.958   6.278   0.534  0.3578 -0.0521  0.1482
15020SOL     OW56278   5.649   8.339   3.500  0.5852 -0.1888  0.1359
15020SOL    HW156279   5.618   8.249   3.533  3.6503 -2.0070 -1.7160
15020SOL    HW256280   5.710   8.380   3.569  0.0723 -0.0150  0.4915
15021SOL     OW56281   1.980   7.526   2.974  0.3694 -0.1100  0.3549
15021SOL    HW156282   1.957   7.436   2.937  1.2228 -0.5522  0.8746
15021SOL    HW256283   2.077   7.545   2.956  0.4281  0.2943  1.0758
15022SOL     OW56284   0.552   9.671   3.489 -0.0792 -0.2665  0.1485
15022SOL    HW156285   0.642   9.711   3.473  0.3609 -1.5624 -0.6461
15022SOL    HW256286   0.522   9.622   3.407 -0.8902 -1.0263  0.8846
15023SOL     OW56287   1.904   8.284   1.873 -0.4164  0.0071 -0.3856
15023SOL    HW156288   1.830   8.230   1.834  0.5219 -0.9060 -0.9119
15023SOL    HW256289   1.978   8.294   1.806  0.5857 -0.3703  0.6453
15024SOL     OW56290   2.744   7.547   2.748  0.4934  0.2581  0.2269
15024SOL    HW156291   2.731   7.574   2.843  0.7242 -0.4397  0.4594
15024SOL    HW256292   2.751   7.448   2.742 -0.4327  0.2345 -0.6260
15025SOL     OW56293   8.159   4.087   2.584  0.0131 -0.0298  0.0701
15025SOL    HW156294   8.246   4.057   2.546  0.0168  0.0226  0.0407
15025SOL    HW256295   8.152   4.056   2.679 -0.0435 -0.2526 -0.0053
15026SOL     OW56296   1.448   2.213   5.833 -0.2065  0.1196 -0.2939
15026SOL    HW156297   1.547   2.226   5.825 -0.1067  0.4099  1.2941
15026SOL    HW256298   1.417   2.246   5.922 -1.3062 -2.5460  0.3548
15027SOL     OW56299   1.207   7.188   2.707 -0.1872  0.6994  0.6301
15027SOL    HW156300   1.164   7.161   2.621 -0.7112 -0.8576  1.3595
15027SOL    HW256301   1.176   7.280   2.732 -2.0370  0.1578  0.4252
15028SOL     OW56302   9.829   9.132   4.647 -0.5218  0.6557 -0.0740
15028SOL    HW156303   9.793   9.224   4.628  2.0495  1.5704 -0.8006
15028SOL    HW256304   9.878   9.133   4.734  1.5430  0.6000 -1.2153
15029SOL     OW56305   1.077   2.175   2.396  0.0429  0.0978  0.4311
15029SOL    HW156306   1.003   2.193   2.331 -0.9287  0.8814  1.7387
15029SOL    HW256307   1.047   2.109   2.465 -0.0305  1.6838  1.9558
15030SOL     OW56308   4.560   4.561   5.252 -0.0315 -0.4256 -0.2520
15030SOL    HW156309   4.580   4.574   5.155  2.1050  1.0047  0.3558
15030SOL    HW256310   4.461   4.566   5.267 -0.2594  0.9543 -2.1221
15031SOL     OW56311   6.578   0.218   5.264 -0.0892 -0.5110 -0.1967
15031SOL    HW156312   6.624   0.261   5.341 -2.7466  0.7352  0.7768
15031SOL    HW256313   6.624   0.243   5.179 -0.4402  2.8202  0.5176
15032SOL     OW56314   4.005   3.801   2.483  0.3885  0.4564  0.2424
15032SOL    HW156315   3.998   3.838   2.576  1.1197 -0.7228  0.7981
15032SOL    HW256316   4.071   3.725   2.484 -0.4410 -0.2859 -1.0141
15033SOL     OW56317   3.666   8.737   0.232 -0.1808 -0.0557  0.4115
15033SOL    HW156318   3.688   8.657   0.176  1.1297  1.8282 -1.8698
15033SOL    HW256319   3.610   8.800   0.180  0.4145  1.4000  1.4911
15034SOL     OW56320   3.231   1.316   4.650  0.5699  0.7537  0.1142
15034SOL    HW156321   3.296   1.349   4.718  2.0054  1.0129 -1.3595
15034SOL    HW256322   3.248   1.219   4.631 -0.9251  0.2167  1.3275
15035SOL     OW56323   7.124   3.731   1.161 -0.1590  0.1848  0.0560
15035SOL    HW156324   7.035   3.739   1.205  0.4485  0.0119  1.3490
15035SOL    HW256325   7.183   3.672   1.216  0.0588 -1.5075 -1.9006
15036SOL     OW56326   5.869   8.657   6.388 -0.0932  0.7776  0.0712
15036SOL    HW156327   5.960   8.700   6.390 -0.0101  0.5647  1.2245
15036SOL    HW256328   5.874   8.568   6.432 -0.4321 -0.1247 -1.6814
15037SOL     OW56329   7.148   5.273   1.727 -0.1569 -0.1044 -0.2159
15037SOL    HW156330   7.186   5.339   1.663 -0.5028  1.4900  1.1941
15037SOL    HW256331   7.048   5.272   1.719 -0.2405  0.5050  0.6697
15038SOL     OW56332   2.625   3.259   1.400 -0.6062 -0.4213  0.0883
15038SOL    HW156333   2.550   3.244   1.464 -1.0981 -0.6560 -0.5363
15038SOL    HW256334   2.594   3.318   1.325 -0.3852 -1.1050 -0.5549
15039SOL     OW56335   3.025   5.599   5.101  0.1559  0.2231 -0.2976
15039SOL    HW156336   2.931   5.580   5.129 -0.2476  0.8063 -1.2631
15039SOL    HW256337   3.055   5.530   5.035  0.1867  0.4108 -0.4794
15040SOL     OW56338   8.591   4.091   5.866 -0.7094 -0.3262  0.6974
15040SOL    HW156339   8.605   4.171   5.807  0.7113 -0.6509  0.5767
15040SOL    HW256340   8.533   4.025   5.820  0.1920 -0.4663 -0.2487
15041SOL     OW56341   9.341   0.639   0.522  0.0794 -0.4096 -0.9079
15041SOL    HW156342   9.407   0.714   0.511  0.4112 -0.7035 -0.9172
15041SOL    HW256343   9.348   0.577   0.444 -0.1173 -0.5089 -0.8449
15042SOL     OW56344   0.936   1.624   0.688 -0.0754 -0.2837 -0.0327
15042SOL    HW156345   0.846   1.667   0.687 -0.0300 -0.1710  0.6511
15042SOL    HW256346   0.977   1.632   0.597  0.1673  1.6307  0.2313
15043SOL     OW56347   4.447   3.037   2.721 -0.1171 -0.1659  0.4639
15043SOL    HW156348   4.492   3.113   2.673  1.7909 -0.3922  1.8318
15043SOL    HW256349   4.473   2.951   2.678  0.9888 -0.3170  1.4273
15044SOL     OW56350   9.115   8.020   6.547  0.2379  0.2199 -0.3749
15044SOL    HW156351   9.213   8.020   6.525  0.3133  0.8159 -0.0413
15044SOL    HW256352   9.084   7.925   6.559  1.4555  0.1356  2.5202
15045SOL     OW56353   7.640   7.755   3.063  0.2287  0.2004  0.1446
15045SOL    HW156354   7.571   7.715   3.124  0.4429 -1.1407 -0.4878
15045SOL    HW256355   7.731   7.742   3.103  0.1946  1.3266  0.6219
15046SOL     OW56356   2.083   7.608   1.063  0.0401  0.1790  0.2850
15046SOL    HW156357   2.168   7.655   1.038  0.4824 -0.7476  0.0088
15046SOL    HW256358   2.074   7.524   1.008  0.3247 -1.1683  2.2654
15047SOL     OW56359   1.440   6.480   3.884  0.5963  0.3958  0.4204
15047SOL    HW156360   1.426   6.501   3.787 -2.0788  3.4011  1.3457
15047SOL    HW256361   1.367   6.419   3.915  1.2821 -0.3270  0.6105
15048SOL     OW56362   6.567   2.947   0.534 -0.3436  0.3024  0.4625
15048SOL    HW156363   6.546   3.036   0.575 -0.8489  0.6457 -0.5325
15048SOL    HW256364   6.663   2.924   0.553  0.3956  2.0191 -1.0266
15049SOL     OW56365   8.285   6.433   2.360 -0.0542 -0.3915 -0.1201
15049SOL    HW156366   8.379   6.464   2.345  0.1601 -1.5284 -1.2039
15049SOL    HW256367   8.286   6.344   2.406 -0.6380  0.4106  1.4778
15050SOL     OW56368   6.783   1.933   3.982  0.5213 -0.0772 -0.5288
15050SOL    HW156369   6.842   1.966   3.908 -1.2329  0.3742 -1.7463
15050SOL    HW256370   6.784   1.833   3.982 -0.1571 -0.0908 -1.7361
15051SOL     OW56371   7.960   3.355   5.474 -0.1818  0.0275 -0.2437
15051SOL    HW156372   8.038   3.311   5.517 -0.8787 -1.1477 -0.1584
15051SOL    HW256373   7.918   3.419   5.539  0.0555 -0.1394  0.0758
15052SOL     OW56374   1.109   9.285   2.513  0.1535 -0.4618  0.0364
15052SOL    HW156375   1.011   9.265   2.511 -0.1479  1.1347 -1.6422
15052SOL    HW256376   1.158   9.219   2.456 -0.1771 -0.0100 -0.7712
15053SOL     OW56377   8.601   1.380   3.924  0.3581  0.2067 -0.4434
15053SOL    HW156378   8.532   1.371   3.995 -1.0550 -2.0866 -2.0326
15053SOL    HW256379   8.566   1.341   3.839  4.3371 -2.7914 -0.8072
15054SOL     OW56380   1.609   4.716   4.139  0.1629  0.0210  0.2582
15054SOL    HW156381   1.605   4.641   4.206 -1.0432 -0.5437 -0.4270
15054SOL    HW256382   1.530   4.709   4.078  2.3774 -0.7482 -2.5954
15055SOL     OW56383   1.502   4.264   1.236  0.0108 -0.0797  0.6231
15055SOL    HW156384   1.405   4.283   1.218  0.1217 -0.6580 -0.6617
15055SOL    HW256385   1.538   4.332   1.300 -0.6253  1.5803 -0.7480
15056SOL     OW56386   8.322   2.980   5.546 -0.1324  0.0569  0.0065
15056SOL    HW156387   8.227   2.978   5.516  0.3533 -0.6901 -1.4942
15056SOL    HW256388   8.377   3.031   5.480  0.5146  0.5201  0.8864
15057SOL     OW56389   4.750   5.993   1.572 -0.6374  0.4212  0.0727
15057SOL    HW156390   4.813   5.916   1.571  0.1340  1.0449  0.0286
15057SOL    HW256391   4.710   6.005   1.482 -1.8969 -0.8427  0.4495
15058SOL     OW56392   3.510   4.695   4.852 -0.7734  0.4429  0.2360
15058SOL    HW156393   3.457   4.776   4.877 -0.7619 -0.0485  1.9286
15058SOL    HW256394   3.492   4.622   4.918 -0.2381 -0.6987 -0.8638
15059SOL     OW56395   8.491   6.530   3.311 -0.4452 -0.0019  0.1573
15059SOL    HW156396   8.410   6.560   3.261 -0.7012  0.8253  1.0594
15059SOL    HW256397   8.527   6.606   3.366  0.7599 -0.4490  0.0110
15060SOL     OW56398   2.908   5.935   1.646 -0.3432  0.0988  0.4288
15060SOL    HW156399   2.969   5.945   1.567 -0.1972 -2.9538  0.1232
15060SOL    HW256400   2.814   5.954   1.618 -0.2615 -0.7682 -0.4537
15061SOL     OW56401   2.030   5.019   3.059  0.4638 -0.2256  0.0416
15061SOL    HW156402   2.106   5.064   3.106 -0.3600  0.4858  0.7279
15061SOL    HW256403   1.962   4.990   3.126  1.1233 -2.8434 -0.3610
15062SOL     OW56404   2.334   4.444   1.684 -0.1454  0.1690 -0.0118
15062SOL    HW156405   2.335   4.441   1.784 -0.9864  1.1515  0.0320
15062SOL    HW256406   2.424   4.473   1.650 -0.6613  2.5368  0.5695
15063SOL     OW56407   2.522   6.542   8.082 -0.3456  0.0751 -0.1372
15063SOL    HW156408   2.502   6.561   8.178  1.2155 -2.1491  0.6517
15063SOL    HW256409   2.466   6.602   8.024 -2.1030  0.6697  2.1191
15064SOL     OW56410   1.244   9.833   6.220 -0.4128 -0.0227  0.1158
15064SOL    HW156411   1.198   9.914   6.255 -0.2070  0.7343 -1.3332
15064SOL    HW256412   1.342   9.839   6.239 -0.2061  0.6888 -1.1087
15065SOL     OW56413   7.089   9.562   2.144 -0.4508  0.1591 -0.3989
15065SOL    HW156414   7.089   9.654   2.104  1.3683  1.7750  2.9901
15065SOL    HW256415   7.056   9.568   2.239  0.4698 -2.5475  0.1244
15066SOL     OW56416   2.255   8.920   5.065 -0.2113 -0.3569  0.3309
15066SOL    HW156417   2.220   8.998   5.013 -1.0073  0.6126  2.2357
15066SOL    HW256418   2.307   8.860   5.005 -0.7360  0.9354 -1.4649
15067SOL     OW56419   0.188   6.136   6.095  0.4692  0.1224 -0.2631
15067SOL    HW156420   0.248   6.080   6.152  0.2392 -0.0314 -0.1712
15067SOL    HW256421   0.204   6.114   5.998  1.3488  0.8774 -0.2963
15068SOL     OW56422   8.105   0.595   4.653 -0.3620 -0.1934  0.3332
15068SOL    HW156423   8.201   0.614   4.676 -0.3273 -0.3840  0.3451
15068SOL    HW256424   8.095   0.499   4.631 -0.9089 -0.5831  2.1818
15069SOL     OW56425   7.779   0.588   4.521 -0.4718  0.3222  0.0683
15069SOL    HW156426   7.725   0.598   4.605 -1.0336  0.4290 -0.3089
15069SOL    HW256427   7.876   0.583   4.545 -0.6685 -0.2866  0.7765
15070SOL     OW56428   1.161   0.422   0.435 -0.6148 -0.1654 -0.6033
15070SOL    HW156429   1.088   0.486   0.411  0.6201  1.4225 -0.1965
15070SOL    HW256430   1.229   0.420   0.361 -0.0538 -0.1045 -0.0946
15071SOL     OW56431   4.405   4.115   4.147  0.5898 -0.1812 -0.4572
15071SOL    HW156432   4.502   4.127   4.170  0.9227 -0.1171 -1.7992
15071SOL    HW256433   4.357   4.075   4.224  1.9618 -1.4257 -0.2189
15072SOL     OW56434   0.055   3.137   6.334  0.0023  0.3794 -0.4869
15072SOL    HW156435   0.138   3.082   6.328 -0.0108  0.0577  1.7931
15072SOL    HW256436   0.012   3.143   6.244  1.8201 -0.4845 -1.4361
15073SOL     OW56437   9.029   8.057   5.497 -0.0061 -0.2468 -0.6190
15073SOL    HW156438   9.052   8.139   5.550  0.6806 -0.4291 -0.6325
15073SOL    HW256439   8.961   8.003   5.547  1.7848 -1.2239  0.8324
15074SOL     OW56440   8.368   5.162   0.568 -0.3676 -0.0130  0.1237
15074SOL    HW156441   8.292   5.226   0.555 -0.1821  0.5422  1.6484
15074SOL    HW256442   8.439   5.206   0.623  1.1635 -0.4662 -1.4429
15075SOL     OW56443   9.490   5.322   0.882  0.0230  0.7154  0.2601
15075SOL    HW156444   9.458   5.280   0.967 -0.3137  0.0780 -0.1799
15075SOL    HW256445   9.590   5.331   0.886  0.3214 -2.0217 -0.4794
15076SOL     OW56446   5.488   3.387   0.103 -0.3243  0.5558  0.4725
15076SOL    HW156447   5.558   3.324   0.136  1.9937  0.8603 -3.6054
15076SOL    HW256448   5.407   3.335   0.076 -1.1580  0.0595  3.6530
15077SOL     OW56449   7.992   2.061   0.929  0.4830  0.1545  0.0639
15077SOL    HW156450   8.053   2.140   0.917 -0.9074  1.2904  0.4637
15077SOL    HW256451   8.044   1.977   0.912  1.6622  1.1942 -1.6467
15078SOL     OW56452   0.352   6.401   3.823  0.2969 -0.8226 -0.1390
15078SOL    HW156453   0.394   6.320   3.865  0.1598 -0.6970  0.2375
15078SOL    HW256454   0.359   6.394   3.724  2.3260 -0.2319 -0.0636
15079SOL     OW56455   0.695   2.666   3.878  0.3927 -0.0111  0.0773
15079SOL    HW156456   0.705   2.638   3.973 -0.6367  2.0755  0.8406
15079SOL    HW256457   0.761   2.739   3.858 -1.7994  2.1329  0.3109
15080SOL     OW56458   4.204   5.616   0.831 -0.1424  0.1335 -0.7474
15080SOL    HW156459   4.285   5.625   0.773 -1.4327 -0.0056 -2.6162
15080SOL    HW256460   4.126   5.588   0.775 -1.3774 -0.2186  1.1098
15081SOL     OW56461   3.140   7.171   2.578  0.3610  0.4294  0.1018
15081SOL    HW156462   3.183   7.081   2.571  0.2581  0.2640  1.4495
15081SOL    HW256463   3.208   7.241   2.558 -0.3179  0.0038 -4.1827
15082SOL     OW56464   5.893   2.445   4.463 -0.1311  0.2967  0.2798
15082SOL    HW156465   5.897   2.525   4.522  0.1728 -0.7271  1.6722
15082SOL    HW256466   5.846   2.468   4.378 -0.5738  1.7833  0.9174
15083SOL     OW56467   6.603   0.546   1.356 -0.1271 -0.7818 -0.0229
15083SOL    HW156468   6.523   0.564   1.412  0.5528  0.6960  0.4974
15083SOL    HW256469   6.656   0.470   1.395 -1.3953 -1.9523 -0.5272
15084SOL     OW56470   8.700   7.084   4.138  0.0166  0.4422 -0.5427
15084SOL    HW156471   8.790   7.127   4.133 -0.2666  1.3257  1.4928
15084SOL    HW256472   8.703   7.006   4.199 -0.6053  0.5038 -0.4223
15085SOL     OW56473   3.089   0.650   5.068 -0.2407 -0.3540 -0.3071
15085SOL    HW156474   3.034   0.611   4.994 -0.4850  2.4980 -1.7036
15085SOL    HW256475   3.160   0.709   5.028  1.2216 -0.7371  1.6530
15086SOL     OW56476   0.719   3.704   2.682  0.3892  0.5439  0.5187
15086SOL    HW156477   0.632   3.688   2.729  0.3075  0.3653  0.3097
15086SOL    HW256478   0.721   3.797   2.646  0.3638  0.6107  0.6899
15087SOL     OW56479   9.834   9.487   1.755 -0.0343  0.1701  0.4151
15087SOL    HW156480   9.739   9.507   1.778 -0.7325 -1.5257 -0.8685
15087SOL    HW256481   9.863   9.544   1.678 -0.6092 -0.6022 -0.3817
15088SOL     OW56482   7.763   8.220   3.247  0.4884  0.2960  0.3502
15088SOL    HW156483   7.715   8.178   3.170 -1.5201  1.5054  0.9265
15088SOL    HW256484   7.801   8.308   3.219 -0.4636  0.8543  0.8011
15089SOL     OW56485   2.871   1.497   1.447  0.1581 -0.2850  0.3836
15089SOL    HW156486   2.965   1.501   1.482  0.2567  2.2157 -0.0999
15089SOL    HW256487   2.863   1.557   1.367 -2.3653  1.0446  1.5974
15090SOL     OW56488   0.723   4.168   2.124  0.2214 -0.4318 -0.3866
15090SOL    HW156489   0.801   4.228   2.105  2.1125 -3.0529 -1.2526
15090SOL    HW256490   0.715   4.100   2.050 -1.2226 -1.8719  1.0589
15091SOL     OW56491   2.559   6.675   5.466 -0.2339 -0.2859 -0.0266
15091SOL    HW156492   2.580   6.641   5.557  0.3686 -0.3400 -0.1816
15091SOL    HW256493   2.644   6.684   5.413 -0.6683 -1.1540 -0.8968
15092SOL     OW56494   2.448   3.046   1.204  0.0607 -0.2047  0.6177
15092SOL    HW156495   2.455   3.143   1.182  2.5473 -0.2603  1.0720
15092SOL    HW256496   2.383   3.034   1.279 -3.4161  0.6438 -2.0745
15093SOL     OW56497   2.361   2.377   4.974  0.2959 -0.1454 -0.2330
15093SOL    HW156498   2.410   2.459   5.003  0.2882 -0.7612  1.5618
15093SOL    HW256499   2.360   2.373   4.874  1.3216  1.4105 -0.3289
15094SOL     OW56500   7.654   3.112   2.920 -0.0452 -0.1664 -0.0577
15094SOL    HW156501   7.604   3.181   2.868  0.3714 -0.5760 -1.0294
15094SOL    HW256502   7.747   3.143   2.936  0.3580 -0.7825 -1.1168
15095SOL     OW56503   6.736   7.849   7.080 -0.1089  0.1130 -0.2516
15095SOL    HW156504   6.774   7.844   7.172  0.0099 -0.0731 -0.3132
15095SOL    HW256505   6.642   7.884   7.085 -0.1712 -0.0844 -0.0417
15096SOL     OW56506   9.561   4.655   2.815  0.7706  0.3231  0.5267
15096SOL    HW156507   9.656   4.650   2.847  0.2837 -1.7606  1.7389
15096SOL    HW256508   9.534   4.567   2.775 -1.4246  0.0309  2.5392
15097SOL     OW56509   1.114   0.614   3.518  0.0548  0.5027  0.2432
15097SOL    HW156510   1.184   0.554   3.557  0.2913  0.7257  0.1601
15097SOL    HW256511   1.068   0.664   3.591 -1.9076 -1.6581  0.5880
15098SOL     OW56512   8.759   5.753   6.098  0.0549 -0.4191  0.2071
15098SOL    HW156513   8.684   5.690   6.077 -2.5024  2.7667 -0.7272
15098SOL    HW256514   8.754   5.778   6.195 -0.6430  0.4362 -0.0423
15099SOL     OW56515   3.276   9.330   4.128  0.2816 -0.0233 -0.0146
15099SOL    HW156516   3.352   9.390   4.153 -0.4007  0.5633  0.6758
15099SOL    HW256517   3.311   9.239   4.106  1.1100  0.0314  1.0554
15100SOL     OW56518   2.642   7.929   3.604  0.0066  0.2123 -0.6454
15100SOL    HW156519   2.563   7.869   3.615  1.4824 -1.4813  0.9479
15100SOL    HW256520   2.629   8.012   3.658 -0.2791 -0.4851  0.3602
15101SOL     OW56521   5.204   1.690   5.448 -0.4185  0.1338 -0.1710
15101SOL    HW156522   5.121   1.743   5.465 -0.0248 -0.0100  2.3981
15101SOL    HW256523   5.217   1.625   5.522  1.9203  0.0534 -0.6286
15102SOL     OW56524   5.394   0.847   0.927 -0.2093  0.0303  0.4571
15102SOL    HW156525   5.466   0.910   0.897 -0.7815 -1.4823 -4.5219
15102SOL    HW256526   5.432   0.755   0.936 -1.1077 -0.4558 -0.5539
15103SOL     OW56527   5.479   0.883   3.450  0.3124  0.7843  0.0574
15103SOL    HW156528   5.449   0.788   3.451 -0.8727  1.1336 -0.8747
15103SOL    HW256529   5.578   0.887   3.440  0.3433 -0.3516 -0.1302
15104SOL     OW56530   7.079   4.200   0.809 -0.8368 -0.0068 -0.7197
15104SOL    HW156531   7.117   4.293   0.807 -0.1917 -0.2520 -0.0758
15104SOL    HW256532   7.001   4.198   0.870  0.3719 -0.3309  0.8522
15105SOL     OW56533   1.663   7.731   3.862  0.4576  0.5287  0.1863
15105SOL    HW156534   1.693   7.769   3.949  1.1639  0.2711  0.0611
15105SOL    HW256535   1.734   7.746   3.793 -0.3813  1.3407 -0.5137
15106SOL     OW56536   4.405   7.008   1.363 -0.0577 -0.3912  0.4510
15106SOL    HW156537   4.321   6.962   1.393 -1.5001  1.8608 -0.0022
15106SOL    HW256538   4.448   7.053   1.441  0.3475 -0.9257  0.5414
15107SOL     OW56539   0.347   6.952   1.093 -0.1740  0.2626  0.1656
15107SOL    HW156540   0.411   6.996   1.156 -0.1435 -0.2084  0.4737
15107SOL    HW256541   0.313   6.867   1.135  0.1646 -0.2707 -0.6223
15108SOL     OW56542   0.478   1.699   1.071 -0.1588  0.7146 -0.4054
15108SOL    HW156543   0.541   1.703   0.993  1.6617 -1.4102  0.8884
15108SOL    HW256544   0.479   1.606   1.109 -2.4163  1.2437  1.0370
15109SOL     OW56545   9.175   6.691   1.456 -0.8449 -0.0790  0.9584
15109SOL    HW156546   9.154   6.613   1.397 -1.2286  0.3424  0.5314
15109SOL    HW256547   9.163   6.776   1.404 -4.6295  0.4951  2.6301
15110SOL     OW56548   1.629   2.546   3.096 -0.1187 -0.3125  0.3736
15110SOL    HW156549   1.719   2.582   3.118  0.4425 -0.8977 -0.9352
15110SOL    HW256550   1.624   2.525   2.999 -1.6526 -0.3261  0.4442
15111SOL     OW56551   3.193   2.965   5.983  0.2845  0.4193 -0.0210
15111SOL    HW156552   3.200   2.955   6.082  0.0562  1.8970  0.1635
15111SOL    HW256553   3.284   2.973   5.943  0.4226 -1.1976 -0.0607
15112SOL     OW56554   6.428   4.588   8.053 -0.1996 -0.6037 -0.8683
15112SOL    HW156555   6.495   4.567   8.124 -1.9529 -0.9044  0.7572
15112SOL    HW256556   6.411   4.686   8.052  0.0215 -0.5658 -1.0738
15113SOL     OW56557   2.165   1.690   2.162 -0.2109 -0.0703  0.1378
15113SOL    HW156558   2.250   1.738   2.183 -0.2739  0.1804 -0.1792
15113SOL    HW256559   2.087   1.750   2.183 -0.3589 -0.7696  1.6934
15114SOL     OW56560   2.269   4.010   3.125  0.3142 -0.0704  0.2461
15114SOL    HW156561   2.337   4.082   3.130  1.0400 -0.5113 -2.5517
15114SOL    HW256562   2.213   4.022   3.043 -0.9309 -1.4923  0.8632
15115SOL     OW56563   6.592   8.725   3.964  0.0763 -0.1194 -0.4713
15115SOL    HW156564   6.546   8.638   3.947  0.9878 -0.7078  0.0345
15115SOL    HW256565   6.655   8.744   3.888 -1.1993  0.8379 -1.3189
15116SOL     OW56566   3.341   8.059   6.289 -0.0625 -0.4701 -0.4626
15116SOL    HW156567   3.367   7.976   6.240 -0.4440 -1.0321  0.2845
15116SOL    HW256568   3.416   8.126   6.282  0.1636 -0.7935 -1.2304
15117SOL     OW56569   0.957   0.332   5.498  0.5617  0.3002 -0.2264
15117SOL    HW156570   1.027   0.356   5.430  0.9701 -0.0511  0.0657
15117SOL    HW256571   0.884   0.400   5.497 -0.0240 -0.3307 -1.8475
15118SOL     OW56572   0.905   9.867   5.980 -0.4479  0.1494 -0.2317
15118SOL    HW156573   1.002   9.884   5.964  0.3259 -0.7950  3.0565
15118SOL    HW256574   0.880   9.900   6.071 -2.4361 -2.5109  0.2416
15119SOL     OW56575   3.470   3.684   0.004  0.1386 -0.1120  0.0289
15119SOL    HW156576   3.480   3.756  -0.064 -0.5082  0.8516  0.9236
15119SOL    HW256577   3.557   3.669   0.050 -0.0373  1.0793  0.7837
15120SOL     OW56578   3.873   4.358   5.770  0.0233  0.2047  0.1079
15120SOL    HW156579   3.906   4.450   5.790  4.3876 -1.1921 -0.1064
15120SOL    HW256580   3.891   4.298   5.848 -2.5909 -0.5435  0.1772
15121SOL     OW56581   0.903   6.809   5.603 -0.1493 -0.1324 -1.0107
15121SOL    HW156582   0.916   6.803   5.504  0.9744 -0.3526 -0.8443
15121SOL    HW256583   0.918   6.720   5.645  0.5739  0.2331 -0.4943
15122SOL     OW56584   4.143   1.809   1.613  0.1766  0.3346  0.0232
15122SOL    HW156585   4.208   1.759   1.670 -0.5102  0.5395  0.9976
15122SOL    HW256586   4.175   1.903   1.600 -1.3341  1.3517  2.9874
15123SOL     OW56587   4.996   8.907   2.784  0.7341  0.1449  0.0116
15123SOL    HW156588   5.085   8.865   2.767  0.2284 -1.3914  1.0259
15123SOL    HW256589   4.969   8.891   2.880 -0.4539  0.9160 -0.1799
15124SOL     OW56590   2.529   6.813   4.697 -0.0564  0.6887 -0.1446
15124SOL    HW156591   2.482   6.856   4.620  0.3972  0.1520 -0.7254
15124SOL    HW256592   2.620   6.783   4.668 -1.1325 -2.6060 -0.3873
15125SOL     OW56593   7.451   3.530   4.917  0.1475 -0.1345  0.5643
15125SOL    HW156594   7.512   3.608   4.902  0.3893 -0.3119  0.6217
15125SOL    HW256595   7.505   3.447   4.925 -0.1184 -0.3271  0.3785
15126SOL     OW56596   1.010   5.169   5.537  0.0529 -0.1240 -0.2987
15126SOL    HW156597   1.101   5.145   5.503  0.7055  2.0014 -0.1257
15126SOL    HW256598   1.013   5.176   5.637 -0.5575 -1.0520 -0.2120
15127SOL     OW56599   9.132   0.831   5.714  0.0491  0.1809 -0.3934
15127SOL    HW156600   9.212   0.848   5.772 -0.0489  1.1538 -0.5315
15127SOL    HW256601   9.049   0.839   5.769  0.0437 -1.0372 -0.2038
15128SOL     OW56602   8.813   8.781   1.948 -0.2434 -0.0559 -0.0098
15128SOL    HW156603   8.830   8.836   1.867  1.4878 -0.3541  0.1399
15128SOL    HW256604   8.746   8.827   2.007  0.3199  1.3110 -0.4451
15129SOL     OW56605   3.937   0.021   4.802 -0.1016  0.3013  0.4025
15129SOL    HW156606   4.005   0.060   4.740 -0.4657 -1.0146 -0.8671
15129SOL    HW256607   3.875   0.093   4.832 -0.9005  0.7032 -2.0704
15130SOL     OW56608   7.875   4.679   5.654  0.4092  0.1145  0.3208
15130SOL    HW156609   7.857   4.761   5.601  2.9726 -1.2994 -2.9161
15130SOL    HW256610   7.817   4.604   5.621 -0.4730  0.0842  1.8894
15131SOL     OW56611   6.221   1.166   2.783 -0.2158 -0.4713  0.5474
15131SOL    HW156612   6.170   1.080   2.782  0.2299 -0.7678  1.7488
15131SOL    HW256613   6.183   1.226   2.852 -0.2883  0.1568 -0.0363
15132SOL     OW56614   1.605   7.115   4.190  0.2554  0.2278  0.6580
15132SOL    HW156615   1.540   7.157   4.254  3.2680  1.3001  3.1672
15132SOL    HW256616   1.617   7.175   4.111 -2.2229 -0.2835 -0.1447
15133SOL     OW56617   2.617   4.445   1.114  0.1988 -0.5470 -0.1412
15133SOL    HW156618   2.525   4.445   1.074 -0.4096 -0.3846  1.2345
15133SOL    HW256619   2.643   4.538   1.138  1.8129 -0.2470 -2.9481
15134SOL     OW56620   7.085   1.755   0.472  0.3068 -0.0755  0.0485
15134SOL    HW156621   7.129   1.689   0.533 -1.3822 -0.1511  1.2237
15134SOL    HW256622   7.123   1.846   0.489 -0.0916 -0.1082  1.1665
15135SOL     OW56623   1.308   8.342   2.325  0.0311  0.1254  0.0196
15135SOL    HW156624   1.386   8.280   2.324  1.2522  1.5862  0.9495
15135SOL    HW256625   1.240   8.309   2.390  0.8725 -0.0365  0.8389
15136SOL     OW56626   1.354   3.615   2.903 -0.4474  0.0608  0.1186
15136SOL    HW156627   1.347   3.648   2.809 -0.2624  0.4897  0.2558
15136SOL    HW256628   1.354   3.693   2.966  0.8806 -0.1592  0.3942
15137SOL     OW56629   2.485   6.309   2.725 -0.0668  0.4856 -0.2735
15137SOL    HW156630   2.494   6.316   2.824 -0.4390  1.3911 -0.3037
15137SOL    HW256631   2.490   6.213   2.698 -2.5009 -0.0023  0.8650
15138SOL     OW56632   5.487   5.588   1.488 -0.3451 -0.2046  0.0392
15138SOL    HW156633   5.504   5.686   1.502  0.8958 -0.0587 -2.1986
15138SOL    HW256634   5.574   5.539   1.486 -0.9302 -1.2830  0.6109
15139SOL     OW56635   1.934   3.117   8.097 -0.1568 -0.2501  0.0695
15139SOL    HW156636   2.008   3.125   8.029 -0.9493 -1.1144 -0.9153
15139SOL    HW256637   1.958   3.047   8.164  0.2637  0.0307  0.2179
15140SOL     OW56638   3.893   2.940   2.555  0.3550  0.2587 -0.2957
15140SOL    HW156639   3.963   2.906   2.618 -0.7140 -0.2060  0.6813
15140SOL    HW256640   3.936   2.980   2.475  1.7308 -0.0434  0.2774
15141SOL     OW56641   7.718   8.489   5.957 -0.5593  0.3486 -0.0281
15141SOL    HW156642   7.779   8.482   6.035 -0.4032 -2.1675 -0.3379
15141SOL    HW256643   7.749   8.563   5.897 -0.2969  1.8493  1.9163
15142SOL     OW56644   9.327   3.817   1.927 -0.3145  0.1906 -0.2304
15142SOL    HW156645   9.399   3.878   1.894  0.7217 -0.3271  1.0480
15142SOL    HW256646   9.297   3.758   1.852  1.5351 -0.5080 -0.4572
15143SOL     OW56647   1.157   4.208   2.960  1.1464 -0.5306 -0.5054
15143SOL    HW156648   1.190   4.253   2.877  1.6189  0.2391  0.0970
15143SOL    HW256649   1.087   4.140   2.936  0.0055  0.9221 -1.3715
15144SOL     OW56650   3.105   1.621   5.355  0.0759 -0.4500  0.0050
15144SOL    HW156651   3.101   1.691   5.426  1.4089 -0.2005 -0.1528
15144SOL    HW256652   3.068   1.658   5.270 -0.3240 -0.3329  0.2276
15145SOL     OW56653   1.407   7.675   5.451 -0.5668 -0.5420 -0.5559
15145SOL    HW156654   1.316   7.668   5.492 -0.6424 -1.1702 -0.8263
15145SOL    HW256655   1.441   7.769   5.461 -0.3766 -0.7956  1.3862
15146SOL     OW56656   5.542   4.935   1.632  0.0437 -0.4407  0.1723
15146SOL    HW156657   5.590   4.864   1.581  1.7903 -1.1672  2.7500
15146SOL    HW256658   5.443   4.926   1.617  0.3806 -2.2253 -1.0325
15147SOL     OW56659   8.450   2.602   1.877 -0.3093 -0.0211  0.0678
15147SOL    HW156660   8.392   2.680   1.898 -0.0673  0.1705  0.0198
15147SOL    HW256661   8.483   2.560   1.962 -1.0165 -0.5046  0.1080
15148SOL     OW56662   2.197   5.633   2.492  0.0067 -0.0315 -0.4747
15148SOL    HW156663   2.194   5.722   2.535  1.1052  0.1973 -0.8383
15148SOL    HW256664   2.210   5.644   2.393 -0.9736 -0.5719 -0.6738
15149SOL     OW56665   7.256   4.532   2.037 -0.0996 -0.0937  0.3959
15149SOL    HW156666   7.278   4.610   2.096  0.8011  0.8946 -1.2106
15149SOL    HW256667   7.162   4.502   2.055  0.6812 -0.8690  3.4725
15150SOL     OW56668   8.840   5.991   4.649 -0.0265  0.0011 -0.1700
15150SOL    HW156669   8.821   5.983   4.551 -0.7615  0.9670 -0.0988
15150SOL    HW256670   8.908   6.063   4.664 -0.0799  0.0046  0.0536
15151SOL     OW56671   8.604   7.084   5.285 -0.2868  0.1512  0.1503
15151SOL    HW156672   8.687   7.136   5.304  0.4817 -0.8349 -0.4576
15151SOL    HW256673   8.537   7.144   5.240  0.3905  0.7501 -0.0668
15152SOL     OW56674   7.966   1.540   5.438  0.0427  0.4583  0.4852
15152SOL    HW156675   7.968   1.607   5.365 -2.5902 -0.3040 -0.3348
15152SOL    HW256676   8.005   1.454   5.405 -1.1577  0.1103 -0.0431
15153SOL     OW56677   5.655   9.340   2.454 -0.6816 -0.4097 -0.1555
15153SOL    HW156678   5.740   9.386   2.478 -0.9833 -0.4695  1.0488
15153SOL    HW256679   5.673   9.246   2.427 -0.2824 -0.1863 -0.6715
15154SOL     OW56680   1.818   1.972   3.577  0.0500 -0.5651  0.2282
15154SOL    HW156681   1.829   2.023   3.663  0.0355 -0.2951  0.0674
15154SOL    HW256682   1.908   1.945   3.543  0.0583 -0.6345  0.3024
15155SOL     OW56683   0.264   8.025   5.415 -0.4596 -0.3492  0.1179
15155SOL    HW156684   0.279   8.112   5.461 -0.4340 -0.4944  0.3853
15155SOL    HW256685   0.197   8.037   5.343  0.3137  0.1203 -0.5349
15156SOL     OW56686   2.177   2.823   5.313  0.0128 -0.0598 -0.1554
15156SOL    HW156687   2.255   2.857   5.367 -0.3733 -0.9712  0.9868
15156SOL    HW256688   2.099   2.884   5.327  0.1339  0.1274 -0.2836
15157SOL     OW56689   0.483   0.226   3.190  0.1208 -0.6185 -0.1695
15157SOL    HW156690   0.493   0.127   3.190 -0.7892 -0.7127  0.3151
15157SOL    HW256691   0.387   0.250   3.203  0.5814  0.3522  1.5166
15158SOL     OW56692   0.246   4.504   4.047  0.5066 -0.6888  0.1440
15158SOL    HW156693   0.159   4.507   3.996 -0.7013 -1.0981  2.1190
15158SOL    HW256694   0.265   4.409   4.072  1.1003 -0.4871  0.4405
15159SOL     OW56695   0.675   9.856   2.190  0.4320  0.6550  0.0619
15159SOL    HW156696   0.587   9.903   2.186  1.5206  2.6301 -0.9377
15159SOL    HW256697   0.662   9.759   2.169 -1.2475  1.2792 -1.8618
15160SOL     OW56698   1.997   2.344   0.293 -0.5711 -0.1818 -0.2042
15160SOL    HW156699   2.058   2.286   0.346  0.5817  0.8004 -0.4345
15160SOL    HW256700   1.937   2.395   0.355 -0.1521 -0.0367  0.0773
15161SOL     OW56701   5.488   9.067   3.140  0.8758 -0.5927  0.4295
15161SOL    HW156702   5.491   9.033   3.234 -0.3886  0.4028  0.8336
15161SOL    HW256703   5.456   9.161   3.139 -0.0208 -0.8895 -1.0764
15162SOL     OW56704   1.090   1.575   4.792  0.3295  0.3870  0.8784
15162SOL    HW156705   1.122   1.661   4.831  0.8160  0.0870  1.1341
15162SOL    HW256706   1.063   1.512   4.865 -0.9063  0.6600  0.6694
15163SOL     OW56707   9.580   6.467   4.013  0.2346 -0.1573 -0.4215
15163SOL    HW156708   9.589   6.458   4.112 -2.0503  1.4000 -0.0470
15163SOL    HW256709   9.485   6.486   3.989  0.9083  0.3827 -2.8424
15164SOL     OW56710   1.265   9.424   1.356  0.2884  1.1623  0.1116
15164SOL    HW156711   1.224   9.366   1.426 -0.1260 -0.4474 -1.4184
15164SOL    HW256712   1.364   9.429   1.370  0.1570  1.1497  1.0262
15165SOL     OW56713   1.402   1.772   2.896  0.2034 -0.4826 -0.2317
15165SOL    HW156714   1.332   1.739   2.833  0.1017  0.2906 -0.5309
15165SOL    HW256715   1.492   1.761   2.854  0.2148 -0.9438 -0.0828
15166SOL     OW56716   0.845   0.627   0.537 -0.4867  0.1777  0.7443
15166SOL    HW156717   0.754   0.638   0.575 -0.6140 -2.1739  1.1535
15166SOL    HW256718   0.910   0.682   0.589 -1.3645  0.4091  1.6045
15167SOL     OW56719   5.973   0.412   6.202  0.1118  0.1732  0.6790
15167SOL    HW156720   6.067   0.393   6.173  0.6440 -0.9763  3.0820
15167SOL    HW256721   5.916   0.425   6.121  2.3892  1.2250 -0.8206
15168SOL     OW56722   3.001   5.779   4.916 -0.2574  0.0223 -0.4763
15168SOL    HW156723   2.905   5.808   4.914 -0.0827  0.6455  0.1351
15168SOL    HW256724   3.015   5.715   4.991 -0.3052 -0.4619 -0.8790
15169SOL     OW56725   8.448   5.496   4.292 -0.1121  0.0447  0.4880
15169SOL    HW156726   8.474   5.434   4.367  3.8764  1.4382  0.3606
15169SOL    HW256727   8.454   5.591   4.324 -1.7575  0.5569 -0.6557
15170SOL     OW56728   9.463   8.385   2.201 -0.1719 -0.0470 -0.5950
15170SOL    HW156729   9.490   8.299   2.157 -0.7104  1.1202 -3.3035
15170SOL    HW256730   9.366   8.381   2.225  0.0907 -0.6412  0.3823
15171SOL     OW56731   0.764   7.202   2.497 -0.0168 -0.3633 -0.1776
15171SOL    HW156732   0.677   7.242   2.528  0.0442  0.7041 -1.3494
15171SOL    HW256733   0.746   7.135   2.425  0.2119  0.6928 -1.2267
15172SOL     OW56734   2.768   4.293   3.717 -0.2786  0.4493 -0.1436
15172SOL    HW156735   2.748   4.311   3.620 -0.7052 -0.9530 -0.3322
15172SOL    HW256736   2.867   4.289   3.730 -0.1873  2.1574 -0.2226
15173SOL     OW56737   0.891   8.550   3.923  0.0476  0.4445  0.4147
15173SOL    HW156738   0.878   8.558   3.824  0.5041 -0.4310  0.2700
15173SOL    HW256739   0.989   8.541   3.943 -0.0052  1.0986  0.9861
15174SOL     OW56740   7.356   0.207   6.362  0.6998 -0.8037 -0.0569
15174SOL    HW156741   7.425   0.263   6.317 -0.0163  1.7724  1.8760
15174SOL    HW256742   7.303   0.156   6.294  1.3978  0.8807 -1.8804
15175SOL     OW56743   4.293   8.140   3.639 -0.0336 -0.2137 -0.1135
15175SOL    HW156744   4.391   8.148   3.657  0.0356 -3.7660  1.5219
15175SOL    HW256745   4.243   8.146   3.726 -1.0136 -1.3913 -0.5924
15176SOL     OW56746   8.358   3.344   5.776  0.1929 -0.1343  0.2099
15176SOL    HW156747   8.368   3.385   5.867  0.9627  2.5780 -1.0420
15176SOL    HW256748   8.394   3.251   5.777  1.0909  0.2191  2.4497
15177SOL     OW56749   2.644   1.013   2.139 -0.6546  0.0068 -0.6705
15177SOL    HW156750   2.673   1.078   2.070 -0.8428 -0.3600 -1.0957
15177SOL    HW256751   2.584   1.058   2.205  0.8468  0.7654  0.2067
15178SOL     OW56752   0.713   9.038   2.451 -0.1318 -0.1028 -0.1910
15178SOL    HW156753   0.643   8.969   2.471 -0.5055  0.5652  0.8726
15178SOL    HW256754   0.791   8.995   2.407 -0.4190 -1.1817  0.3386
15179SOL     OW56755   9.843   6.240   3.822 -0.0647 -0.5907  0.6240
15179SOL    HW156756   9.924   6.273   3.774 -1.0678 -0.1686 -0.8198
15179SOL    HW256757   9.762   6.256   3.766 -1.7326  2.9625  3.8444
15180SOL     OW56758   8.691   7.729   3.798  0.1556  0.3808  0.3309
15180SOL    HW156759   8.727   7.821   3.781 -1.5959  1.5583  2.6099
15180SOL    HW256760   8.752   7.681   3.860  0.4994  0.4382  0.0365
15181SOL     OW56761   8.501   0.777   0.450  0.2960  0.1303  0.3975
15181SOL    HW156762   8.452   0.690   0.450  1.5627 -0.5927 -0.2905
15181SOL    HW256763   8.487   0.823   0.538  0.3467 -1.1790  1.1002
15182SOL     OW56764   0.058   6.833   5.249  0.0861  0.2801 -0.7377
15182SOL    HW156765   0.075   6.911   5.189  1.4765  0.8166  0.3429
15182SOL    HW256766   0.129   6.764   5.235  0.5273  0.4887  0.4126
15183SOL     OW56767   5.178   9.002   3.039  0.3954  0.1193  0.1343
15183SOL    HW156768   5.204   8.917   3.085  2.0908  0.3590 -0.3532
15183SOL    HW256769   5.234   9.014   2.957 -1.2501  0.6833 -0.9290
15184SOL     OW56770   0.568   8.373   4.896 -0.3997 -0.2461  0.5855
15184SOL    HW156771   0.492   8.397   4.835  0.5234 -0.0961 -0.5158
15184SOL    HW256772   0.654   8.407   4.857  0.3668 -1.3458  1.2967
15185SOL     OW56773   2.051   5.781   0.045  0.2167  0.2787 -0.3946
15185SOL    HW156774   2.043   5.795   0.143  0.3701 -0.6759 -0.2393
15185SOL    HW256775   2.083   5.865   0.001  0.1582  0.6973  0.3710
15186SOL     OW56776   1.066   1.707   5.931 -0.3558 -0.3432 -0.3977
15186SOL    HW156777   1.075   1.806   5.921 -1.7193 -0.1252  0.4288
15186SOL    HW256778   0.978   1.677   5.897  0.3268 -1.3824 -1.2785
15187SOL     OW56779   4.391   4.288   4.482 -0.2496 -0.0219  0.2190
15187SOL    HW156780   4.375   4.204   4.431 -1.9080 -0.4197  1.3526
15187SOL    HW256781   4.442   4.267   4.565  0.3631  0.2749 -0.0792
15188SOL     OW56782   9.231   7.654   3.147 -0.3719  0.0829 -0.2296
15188SOL    HW156783   9.154   7.640   3.210  0.1397 -0.7460  0.2109
15188SOL    HW256784   9.221   7.593   3.068 -0.9800  1.0743 -0.9344
15189SOL     OW56785   3.735   6.092   3.896  0.0002  0.1986  0.1842
15189SOL    HW156786   3.783   6.144   3.825  0.5053  0.9090  1.0443
15189SOL    HW256787   3.797   6.070   3.970 -0.0983 -2.0228 -0.3417
15190SOL     OW56788   3.636   4.930   2.498  0.2164  0.0620  0.5854
15190SOL    HW156789   3.581   4.872   2.438  1.2986 -0.8351  0.4318
15190SOL    HW256790   3.689   4.871   2.561  1.6844  0.8633  0.1197
15191SOL     OW56791   2.493   5.673   0.323  0.3736  0.5557  0.0385
15191SOL    HW156792   2.526   5.727   0.245 -0.5029 -1.3454 -1.6909
15191SOL    HW256793   2.428   5.604   0.290  1.7837 -1.8276  2.1221
15192SOL     OW56794   5.382   8.855   5.314 -0.5156  0.3532 -0.6022
15192SOL    HW156795   5.325   8.795   5.257 -0.6626  0.4006 -0.5052
15192SOL    HW256796   5.347   8.854   5.408  0.8016 -1.1391 -0.0999
15193SOL     OW56797   8.922   0.872   3.412  0.9964 -0.3716  0.3701
15193SOL    HW156798   8.859   0.811   3.364  1.1416 -0.9186  0.8612
15193SOL    HW256799   9.007   0.823   3.430  1.6190  0.4031 -0.4125
15194SOL     OW56800   6.942   5.228   0.936 -0.7471 -0.1434  0.9029
15194SOL    HW156801   7.009   5.300   0.955 -0.7129  0.1843 -0.4144
15194SOL    HW256802   6.956   5.152   1.000  0.7429  0.0125  0.7742
15195SOL     OW56803   0.345   6.503   3.325 -0.2777 -1.1307 -0.0755
15195SOL    HW156804   0.418   6.572   3.331 -0.9697 -0.4345  0.3483
15195SOL    HW256805   0.258   6.548   3.307 -0.4936 -2.0311 -1.3450
15196SOL     OW56806   8.121   4.281   1.397 -0.3536  0.4341  0.0026
15196SOL    HW156807   8.021   4.283   1.395 -0.3569  2.1801  0.3633
15196SOL    HW256808   8.152   4.276   1.492 -0.1147  0.7142 -0.0586
15197SOL     OW56809   1.358   0.981   1.804 -0.3364 -0.3915 -0.8440
15197SOL    HW156810   1.287   1.052   1.797  0.5385  0.5221 -0.6592
15197SOL    HW256811   1.403   0.971   1.715 -1.5647 -1.9177 -1.3227
15198SOL     OW56812   7.881   4.313   3.012  0.0986  0.3665  0.4201
15198SOL    HW156813   7.895   4.329   3.109  0.4129 -1.0385  0.6234
15198SOL    HW256814   7.955   4.354   2.960  0.9477 -0.4925  0.9304
15199SOL     OW56815   9.500   0.850   4.561 -0.3578  0.1396  0.0881
15199SOL    HW156816   9.460   0.895   4.640  1.2998 -0.3359  1.2359
15199SOL    HW256817   9.563   0.778   4.592 -2.2551 -2.3647 -1.6937
15200SOL     OW56818   9.085   0.052   0.396  0.4137 -0.3752  0.4868
15200SOL    HW156819   9.025  -0.028   0.394  0.6463 -0.5579  0.8411
15200SOL    HW256820   9.167   0.032   0.450  1.0820 -0.3251 -0.4903
15201SOL     OW56821   1.590   8.652   5.771  0.1867 -0.1535  0.4680
15201SOL    HW156822   1.680   8.632   5.809 -0.4134 -0.6730  1.6752
15201SOL    HW256823   1.531   8.687   5.844 -0.9931 -1.1518  0.0171
15202SOL     OW56824   3.123   8.948   4.241  0.7227 -0.4559 -0.1031
15202SOL    HW156825   3.159   8.855   4.250  3.3736  0.4526 -0.7322
15202SOL    HW256826   3.150   8.985   4.153  0.4850  1.2460  0.5253
15203SOL     OW56827   1.529   9.885   6.243 -0.7221 -0.1374  0.8082
15203SOL    HW156828   1.577   9.845   6.321  0.2337  0.1587  0.3788
15203SOL    HW256829   1.596   9.913   6.174 -1.5882 -0.6215 -0.2205
15204SOL     OW56830   8.964   2.127   6.240 -0.0373 -0.0165 -0.7496
15204SOL    HW156831   8.958   2.031   6.267  1.6535  0.2593  0.6916
15204SOL    HW256832   9.055   2.145   6.202 -0.2939  1.0434 -0.8730
15205SOL     OW56833   4.468   5.859   1.098  0.3657 -0.3825  0.1981
15205SOL    HW156834   4.386   5.915   1.087  0.4124 -0.5904 -1.3620
15205SOL    HW256835   4.549   5.916   1.089  0.4197  0.0724  3.1369
15206SOL     OW56836   2.542   8.196   3.774  0.1589  0.3278 -0.1823
15206SOL    HW156837   2.481   8.259   3.725  0.2237  0.4870 -0.0613
15206SOL    HW256838   2.507   8.182   3.867  0.7994  1.1452  0.1937
15207SOL     OW56839   8.333   4.382   5.346  0.1593  0.0323 -0.6256
15207SOL    HW156840   8.299   4.430   5.265 -0.1719 -4.7273 -3.4955
15207SOL    HW256841   8.266   4.314   5.375  0.1457  1.8163  3.9507
15208SOL     OW56842   9.802   8.442   1.611  0.0536 -0.3924  0.0617
15208SOL    HW156843   9.713   8.488   1.621  0.3882  0.0095  1.2248
15208SOL    HW256844   9.838   8.419   1.701  1.3705 -0.1294 -0.3946
15209SOL     OW56845   8.609   9.285   4.311 -0.4231  0.6509 -0.7068
15209SOL    HW156846   8.660   9.313   4.393 -0.1432  0.4164 -0.7997
15209SOL    HW256847   8.613   9.185   4.302  2.4963  0.9110 -2.9266
15210SOL     OW56848   1.663   8.393   4.306  0.1311 -0.2738 -0.8019
15210SOL    HW156849   1.567   8.419   4.294 -0.0943 -0.8219 -0.2717
15210SOL    HW256850   1.722   8.472   4.292 -0.5736  0.7400  1.6161
15211SOL     OW56851   7.172   9.308   2.278  0.1751  0.5322 -0.1143
15211SOL    HW156852   7.248   9.309   2.343  0.0681  1.1950  0.0059
15211SOL    HW256853   7.163   9.399   2.237 -0.3551  0.3705 -0.3516
15212SOL     OW56854   1.029   4.160   4.724 -0.0549  1.0199 -0.4791
15212SOL    HW156855   1.066   4.223   4.654  0.6881  2.2201  0.9556
15212SOL    HW256856   0.976   4.212   4.790  0.3311  0.0777  0.5785
15213SOL     OW56857   7.142   3.466   1.467 -0.2285 -0.3164  0.0816
15213SOL    HW156858   7.112   3.379   1.429 -1.3704 -1.1427  2.7840
15213SOL    HW256859   7.192   3.450   1.552 -2.4985  1.7648  1.8676
15214SOL     OW56860   5.637   1.916   0.499  0.3136  0.2427  0.2702
15214SOL    HW156861   5.539   1.895   0.497  0.3452 -0.0020  0.9730
15214SOL    HW256862   5.661   1.971   0.420 -0.2841 -0.1770 -0.2069
15215SOL     OW56863   9.982   9.675   5.938  0.3481 -0.4242 -0.0844
15215SOL    HW156864  10.069   9.636   5.969  1.2100  1.0616 -0.6345
15215SOL    HW256865   9.908   9.614   5.967  1.5067 -1.4544  0.8302
15216SOL     OW56866   5.227   6.604   2.401  0.5735  0.3123 -0.1297
15216SOL    HW156867   5.290   6.632   2.328 -0.9781  0.3410 -1.4816
15216SOL    HW256868   5.236   6.505   2.416  0.8603  0.2985 -0.3816
15217SOL     OW56869   9.399   4.137   5.028 -0.1841  0.6435 -0.4923
15217SOL    HW156870   9.413   4.220   5.081  0.4632  0.5267 -0.4782
15217SOL    HW256871   9.485   4.088   5.020 -0.4437  0.2654 -0.9892
15218SOL     OW56872   3.993   4.278   4.963  0.1338 -0.2669 -0.2283
15218SOL    HW156873   4.030   4.199   4.915  1.2806  1.4057 -2.1665
15218SOL    HW256874   3.925   4.323   4.906 -2.1985 -1.1128  1.7793
15219SOL     OW56875   8.159   1.279   8.176 -0.2719  0.0411  0.2782
15219SOL    HW156876   8.213   1.349   8.129 -0.0138 -0.4858 -0.2049
15219SOL    HW256877   8.216   1.234   8.244 -0.3812  0.1611  0.4494
15220SOL     OW56878   9.656   6.857   2.545  0.5817 -0.2983  0.1685
15220SOL    HW156879   9.576   6.825   2.495  2.6655 -0.2552 -3.3636
15220SOL    HW256880   9.704   6.925   2.490  2.5241  0.3890  2.6380
15221SOL     OW56881   7.185   2.224   3.684  0.0316  0.1974 -0.2764
15221SOL    HW156882   7.187   2.320   3.712  1.7367  0.1381 -0.1372
15221SOL    HW256883   7.181   2.219   3.584  0.1504  0.4158 -0.2924
15222SOL     OW56884   6.546   2.112   0.096  0.8523  0.0788 -0.8689
15222SOL    HW156885   6.602   2.186   0.134  1.3792 -0.5326 -0.4495
15222SOL    HW256886   6.591   2.024   0.112  0.3264 -0.3163 -1.5499
15223SOL     OW56887   9.985   8.737   0.145  0.2674  0.0530 -0.1362
15223SOL    HW156888   9.996   8.638   0.134  3.0489  0.3103 -0.1018
15223SOL    HW256889  10.018   8.764   0.236 -0.4803  1.0054 -0.1427
15224SOL     OW56890   9.394   0.458   2.402 -0.5280 -0.2122  0.0183
15224SOL    HW156891   9.313   0.516   2.405  0.1316  0.6429  1.8781
15224SOL    HW256892   9.382   0.381   2.465 -0.1804 -0.4578 -0.2180
15225SOL     OW56893   8.746   5.625   5.367  0.1184  0.2376 -0.0269
15225SOL    HW156894   8.707   5.650   5.278 -0.3713 -1.8146 -0.4119
15225SOL    HW256895   8.691   5.665   5.440 -0.2728  0.7939 -0.6143
15226SOL     OW56896   3.721   4.638   2.554 -0.1018 -0.2158 -0.4880
15226SOL    HW156897   3.632   4.601   2.582 -1.3314  1.2313 -2.3732
15226SOL    HW256898   3.717   4.663   2.457  2.9240 -1.7666 -1.0643
15227SOL     OW56899   1.478   9.481   4.027  0.4224  0.5040 -0.4207
15227SOL    HW156900   1.543   9.473   4.103 -0.5631  1.9084  0.5866
15227SOL    HW256901   1.386   9.493   4.063 -0.2039  0.1065 -1.8469
15228SOL     OW56902   7.469   7.916   2.883  0.1365 -0.1364 -0.1783
15228SOL    HW156903   7.513   7.872   2.961 -0.0119 -2.8653 -1.5849
15228SOL    HW256904   7.507   7.879   2.798 -1.4849  0.9551 -1.4088
15229SOL     OW56905   5.241   0.260   4.409  0.3666  0.1799  1.0043
15229SOL    HW156906   5.217   0.329   4.477 -1.2987 -0.8165  1.4733
15229SOL    HW256907   5.238   0.169   4.452  1.0909 -0.3003  0.0494
15230SOL     OW56908   9.437   9.374   1.382  0.3214 -0.0126  0.4599
15230SOL    HW156909   9.373   9.332   1.318  0.1181 -0.1579  0.7520
15230SOL    HW256910   9.403   9.465   1.408 -0.0538 -0.3193  1.0440
15231SOL     OW56911   5.488   2.059   0.178 -0.3803 -0.6270 -0.1820
15231SOL    HW156912   5.571   2.073   0.232 -0.9816 -1.8518  1.0798
15231SOL    HW256913   5.426   2.136   0.193 -0.5812 -0.9925  0.9858
15232SOL     OW56914   9.286   6.329   4.426  0.4231 -0.1139 -0.1053
15232SOL    HW156915   9.359   6.388   4.461 -0.7718  1.6690 -0.5279
15232SOL    HW256916   9.317   6.234   4.426  2.1964  0.4312  1.1276
15233SOL     OW56917   0.769   7.657   4.603  0.2454 -0.4693  0.3953
15233SOL    HW156918   0.847   7.663   4.540  0.1641 -0.0970  0.3248
15233SOL    HW256919   0.765   7.741   4.657  0.5761 -0.9697  1.2042
15234SOL     OW56920   1.438   5.397   5.336  0.1890  0.0722 -0.1759
15234SOL    HW156921   1.489   5.482   5.353 -0.3313  0.1551  1.0774
15234SOL    HW256922   1.457   5.364   5.244  0.4521  1.5203 -0.6572
15235SOL     OW56923   5.969   1.301   4.248 -0.2028 -0.3007  0.2441
15235SOL    HW156924   6.004   1.208   4.259  1.8631  0.4540  0.3052
15235SOL    HW256925   5.912   1.306   4.166 -0.7656 -1.7288  0.5312
15236SOL     OW56926   2.784   9.350   3.445 -0.0790  0.3136 -0.7315
15236SOL    HW156927   2.725   9.409   3.389 -0.3367 -0.5459 -1.3794
15236SOL    HW256928   2.731   9.271   3.476 -0.1026  1.0818  1.2466
15237SOL     OW56929   4.250   1.887   0.475  0.2890  0.3415  0.3037
15237SOL    HW156930   4.336   1.902   0.523  0.5166 -1.2520  0.4348
15237SOL    HW256931   4.178   1.866   0.542  0.1023  0.3592  0.1092
15238SOL     OW56932   8.161   8.822   3.939 -0.2859 -0.3286  0.1754
15238SOL    HW156933   8.081   8.793   3.886 -0.2949  0.4449 -0.2494
15238SOL    HW256934   8.241   8.826   3.878 -0.3242  0.6939  0.1800
15239SOL     OW56935   4.372   9.936   4.404  0.1533  0.1406 -0.0792
15239SOL    HW156936   4.389   9.878   4.483  1.8680 -2.4116 -2.2470
15239SOL    HW256937   4.441  10.008   4.400 -0.8727  1.2563  1.5680
15240SOL     OW56938   9.851   0.398   5.793 -0.3705 -1.0472  0.1022
15240SOL    HW156939   9.846   0.322   5.729 -0.1001 -1.0689  0.1045
15240SOL    HW256940   9.867   0.364   5.885 -2.2557 -1.1036  0.4213
15241SOL     OW56941   2.647   7.662   5.042 -0.6846 -0.2904 -0.0686
15241SOL    HW156942   2.721   7.722   5.071 -0.7080 -0.5774  0.5908
15241SOL    HW256943   2.571   7.670   5.106 -0.8755 -0.6555 -0.2507
15242SOL     OW56944   3.471   3.008   0.285 -0.2678  0.1173  0.4529
15242SOL    HW156945   3.440   2.941   0.217 -0.2657 -1.1620  1.6796
15242SOL    HW256946   3.450   2.974   0.377  0.3784  1.4910  1.1196
15243SOL     OW56947   1.973   4.870   4.018 -0.2945  0.0698  0.4968
15243SOL    HW156948   1.953   4.932   4.094 -1.7296 -2.0700  1.9110
15243SOL    HW256949   2.053   4.814   4.041 -0.8712 -0.7410  0.5417
15244SOL     OW56950   1.335   3.284   2.051  0.3035  0.2412  0.3293
15244SOL    HW156951   1.273   3.226   1.999 -0.6749  1.1544  0.4594
15244SOL    HW256952   1.357   3.366   1.997 -0.1281  0.8334  1.0502
15245SOL     OW56953   2.082   1.401   4.784  0.1290  0.0011  0.1561
15245SOL    HW156954   2.000   1.344   4.795  0.1499 -0.1687 -0.5225
15245SOL    HW256955   2.163   1.342   4.786  0.1810  0.0667 -0.0345
15246SOL     OW56956   0.388   9.751   6.410 -0.6771 -0.9665 -0.3091
15246SOL    HW156957   0.452   9.674   6.414 -0.5395 -0.8503 -0.2661
15246SOL    HW256958   0.413   9.819   6.480 -0.3412 -0.5293 -0.8450
15247SOL     OW56959   4.085   9.467   6.194 -0.1156 -0.1696 -0.5339
15247SOL    HW156960   4.117   9.374   6.205  0.6537  0.3753  2.1687
15247SOL    HW256961   3.997   9.478   6.241 -0.6244  0.2700 -1.5607
15248SOL     OW56962   0.128   0.451   4.513 -0.1243  0.0565 -0.6092
15248SOL    HW156963   0.165   0.433   4.422  1.0134 -1.4667  0.1207
15248SOL    HW256964   0.177   0.529   4.554  0.8577 -0.6210 -0.4728
15249SOL     OW56965   4.411   2.363   2.024  0.4071  0.0726  0.6769
15249SOL    HW156966   4.473   2.441   2.020  1.2300 -0.5361  1.3922
15249SOL    HW256967   4.463   2.279   2.038 -0.6291 -0.3771  1.9720
15250SOL     OW56968   5.956   5.405   7.747  0.4432  0.3903 -0.1828
15250SOL    HW156969   6.023   5.478   7.733 -0.2899  1.0486 -0.3154
15250SOL    HW256970   5.998   5.331   7.799  0.7422  1.5969  1.3361
15251SOL     OW56971   8.668   2.280   4.293  0.2831  0.1698 -0.5880
15251SOL    HW156972   8.700   2.188   4.272  0.7501  0.1704  0.0807
15251SOL    HW256973   8.709   2.310   4.379  0.2670  1.0636 -0.8856
15252SOL     OW56974   5.407   2.084   2.930  0.1570 -0.2396 -0.1471
15252SOL    HW156975   5.492   2.118   2.969 -0.3169  1.5532 -0.6366
15252SOL    HW256976   5.398   2.116   2.836 -0.9572 -0.5886 -0.1687
15253SOL     OW56977   1.245   2.865   4.446  0.5225 -0.0589  0.5509
15253SOL    HW156978   1.173   2.826   4.389  0.9194 -2.0368  1.3517
15253SOL    HW256979   1.327   2.807   4.441  0.8522  0.2040  2.4314
15254SOL     OW56980   2.068   6.866   2.690 -0.6835  0.1619 -0.4699
15254SOL    HW156981   2.009   6.794   2.727 -1.5320  1.2137  0.2606
15254SOL    HW256982   2.023   6.908   2.611 -0.2707 -0.0054 -0.7908
15255SOL     OW56983   4.194   5.244   2.994 -0.2534  0.6024  0.2306
15255SOL    HW156984   4.202   5.298   2.911  0.7039  0.8885  0.4941
15255SOL    HW256985   4.123   5.175   2.983 -2.7221  3.0295  0.5022
15256SOL     OW56986   3.461   1.515   2.415  0.1442  0.2739  0.3313
15256SOL    HW156987   3.555   1.547   2.405  0.0805  0.2403 -0.4675
15256SOL    HW256988   3.417   1.513   2.325  0.3473 -2.6542  0.2564
15257SOL     OW56989   9.539   3.157   2.302 -0.3782  0.3520  0.0002
15257SOL    HW156990   9.596   3.217   2.357  1.2362  0.6766 -1.9366
15257SOL    HW256991   9.580   3.065   2.301 -0.9559  0.0928  0.1753
15258SOL     OW56992   1.363   6.788   4.094  0.7583 -0.0091 -0.3000
15258SOL    HW156993   1.380   6.817   4.188 -3.7974  0.0740  0.6203
15258SOL    HW256994   1.348   6.868   4.036  0.8262 -0.1455 -0.5058
15259SOL     OW56995   9.399   1.935   6.187 -0.2806 -0.6842  0.3580
15259SOL    HW156996   9.332   1.997   6.145 -0.3208 -1.7964 -1.3070
15259SOL    HW256997   9.463   1.987   6.243 -0.6804  0.7856 -0.5255
15260SOL     OW56998   8.940   9.729   0.817  0.2615  0.1714  0.2000
15260SOL    HW156999   8.985   9.641   0.808 -1.0841 -0.6002  0.8250
15260SOL    HW257000   8.859   9.732   0.758  1.0469  1.4951 -0.8278
15261SOL     OW57001   8.622   5.238   3.525  0.2350 -0.1554  0.3159
15261SOL    HW157002   8.701   5.208   3.471 -1.2205 -2.3733 -0.6666
15261SOL    HW257003   8.615   5.337   3.522  0.8778 -0.1486 -2.6289
15262SOL     OW57004   7.961   8.489   6.712 -0.2841 -0.2571 -0.4055
15262SOL    HW157005   7.998   8.571   6.668 -0.9849  0.3665  0.1645
15262SOL    HW257006   7.990   8.486   6.808 -0.0408 -0.8189 -0.4911
15263SOL     OW57007   2.168   6.323   4.399  0.1764 -0.0289  0.3930
15263SOL    HW157008   2.108   6.391   4.442  0.1788 -0.1961  0.6641
15263SOL    HW257009   2.252   6.314   4.453  0.4549  0.2178  0.0059
15264SOL     OW57010   2.046   6.387   3.199  0.1142 -0.0463  0.0165
15264SOL    HW157011   2.003   6.430   3.278  0.0115 -0.9252  0.4387
15264SOL    HW257012   2.118   6.325   3.229 -2.0699 -2.8991 -0.3591
15265SOL     OW57013   2.291   9.103   0.444  0.1649 -0.3282 -0.2427
15265SOL    HW157014   2.223   9.157   0.494 -2.7961 -1.9080 -2.4595
15265SOL    HW257015   2.344   9.163   0.384 -0.1271  0.7123  0.5261
15266SOL     OW57016   2.025   5.079   2.314 -0.1537  0.7410  0.0669
15266SOL    HW157017   2.101   5.014   2.304  0.8233  1.9969 -0.7290
15266SOL    HW257018   2.020   5.110   2.409 -0.8724 -0.7763  0.5457
15267SOL     OW57019   1.199   4.022   4.909  0.0911  0.5102 -0.6372
15267SOL    HW157020   1.298   4.018   4.905 -0.0067 -1.4804 -1.6519
15267SOL    HW257021   1.163   4.055   4.822 -0.1910 -0.0993 -0.7551
15268SOL     OW57022   7.541   9.588   5.217  0.4516 -0.4148 -0.4570
15268SOL    HW157023   7.492   9.504   5.192  0.6940 -0.5400 -0.5159
15268SOL    HW257024   7.631   9.564   5.253  0.1717 -0.2196  0.3831
15269SOL     OW57025   2.820   0.624   1.953  0.4075 -0.6489 -0.1221
15269SOL    HW157026   2.910   0.589   1.976  0.2955 -1.0849 -0.3258
15269SOL    HW257027   2.770   0.555   1.900 -0.8471 -1.2811  1.8309
15270SOL     OW57028   8.959   1.872   2.168 -0.1538 -0.2617 -0.0926
15270SOL    HW157029   8.894   1.940   2.133  0.0425 -0.1942 -0.3273
15270SOL    HW257030   9.011   1.911   2.244 -0.2503 -0.2523 -0.0308
15271SOL     OW57031   1.176   6.443   2.367  0.1024  1.1192  0.3207
15271SOL    HW157032   1.272   6.466   2.356  0.2423  0.4385  0.0609
15271SOL    HW257033   1.122   6.526   2.379  0.5288  1.5962 -1.0267
15272SOL     OW57034   1.304   3.099   5.556 -0.4893 -0.3577  0.4769
15272SOL    HW157035   1.233   3.167   5.575 -0.1490  0.3204 -0.6272
15272SOL    HW257036   1.337   3.060   5.642 -1.5010  0.0390  1.0523
15273SOL     OW57037   0.308   9.193   5.869  0.2203 -0.0919  0.4652
15273SOL    HW157038   0.369   9.204   5.790  0.8597  0.1062  0.9864
15273SOL    HW257039   0.356   9.220   5.952 -1.0746  1.5939  0.7053
15274SOL     OW57040   7.368   8.126   2.558 -0.0251 -0.1913  0.1137
15274SOL    HW157041   7.300   8.184   2.604  0.2336 -0.2875  0.6288
15274SOL    HW257042   7.378   8.154   2.463 -1.2326 -0.5716 -0.1273
15275SOL     OW57043   9.883   7.258   5.709  0.0562 -0.2821  0.0927
15275SOL    HW157044   9.965   7.202   5.721  0.7857  0.7561 -0.0613
15275SOL    HW257045   9.849   7.247   5.616  0.2376 -0.4156  0.0419
15276SOL     OW57046   6.865   9.341   3.917  0.2141  0.0370 -0.6313
15276SOL    HW157047   6.899   9.435   3.913  0.3797 -0.0392 -1.0574
15276SOL    HW257048   6.875   9.298   3.827 -1.8430  0.2872 -1.0042
15277SOL     OW57049   4.726   8.694   3.663 -0.3714  0.0024  0.4029
15277SOL    HW157050   4.756   8.715   3.755  0.9177 -1.8105  0.4312
15277SOL    HW257051   4.632   8.726   3.650  0.0972  1.9531  1.7065
15278SOL     OW57052   1.004   7.510   5.372 -0.1372 -0.3606  0.3043
15278SOL    HW157053   0.908   7.484   5.361 -0.8901  1.8492  1.3586
15278SOL    HW257054   1.014   7.566   5.454  1.6986  1.1416 -0.9104
15279SOL     OW57055   5.764   9.534   3.869 -1.4127 -0.2711  0.6810
15279SOL    HW157056   5.802   9.449   3.904  1.7174  0.7133 -0.1539
15279SOL    HW257057   5.775   9.537   3.769 -3.2561  0.2931  0.4695
15280SOL     OW57058   3.355   3.965   5.010  0.1894 -0.2667  0.5494
15280SOL    HW157059   3.317   3.877   5.038 -0.8781  1.3128  4.3090
15280SOL    HW257060   3.436   3.985   5.064 -0.4627  1.7614  0.8003
15281SOL     OW57061   4.841   4.091   0.586  0.4626  0.4144  0.5521
15281SOL    HW157062   4.774   4.146   0.537  2.2210  0.6288 -1.6859
15281SOL    HW257063   4.816   3.994   0.579  0.8862  0.4033 -1.1570
15282SOL     OW57064   8.105   4.485   4.497 -0.4883  0.1285  0.2598
15282SOL    HW157065   8.185   4.524   4.543 -0.7275  0.4831  0.3790
15282SOL    HW257066   8.111   4.503   4.399 -0.2726 -0.1048  0.2308
15283SOL     OW57067   7.087   4.811   2.204  0.6141 -0.2675 -0.0512
15283SOL    HW157068   7.085   4.836   2.301  1.2171 -2.3605  0.5331
15283SOL    HW257069   7.181   4.817   2.170  0.3517  0.8007 -0.6151
15284SOL     OW57070   4.428   4.208   3.150 -0.2235 -0.3515  0.0509
15284SOL    HW157071   4.505   4.187   3.211  1.2807  1.1301 -1.2819
15284SOL    HW257072   4.417   4.307   3.144  0.0143 -0.4406 -2.4884
15285SOL     OW57073   3.255   9.829   1.093  0.6849 -0.1161  0.3509
15285SOL    HW157074   3.275   9.791   1.184 -1.8110 -1.9881  0.1761
15285SOL    HW257075   3.243   9.754   1.028  1.6106  1.1888 -1.3702
15286SOL     OW57076   3.182   6.277   1.859  0.5378 -0.7235  0.0420
15286SOL    HW157077   3.247   6.335   1.909  0.2015 -0.1843 -0.1328
15286SOL    HW257078   3.224   6.247   1.773  0.7055 -0.7130  0.1198
15287SOL     OW57079   0.565   7.480   3.525  0.2113 -0.1656  0.0363
15287SOL    HW157080   0.649   7.530   3.504  0.6634 -0.9452 -0.0568
15287SOL    HW257081   0.531   7.507   3.615  0.5618  0.1567  0.0725
15288SOL     OW57082   4.648   2.186   5.115 -0.2784 -0.5869  0.8443
15288SOL    HW157083   4.558   2.165   5.156 -0.1180 -0.8282  1.0772
15288SOL    HW257084   4.717   2.185   5.187 -0.3001  1.0019  0.9037
15289SOL     OW57085   8.536   6.455   0.519 -0.2128 -0.0425 -0.0056
15289SOL    HW157086   8.527   6.514   0.439 -0.7298 -0.6114 -0.3630
15289SOL    HW257087   8.460   6.392   0.523  0.5695 -0.9870  0.1357
15290SOL     OW57088   4.256   0.081   3.016 -0.2115 -0.8773 -0.3115
15290SOL    HW157089   4.341   0.057   2.969  0.7456  1.6136  0.0757
15290SOL    HW257090   4.273   0.158   3.078 -3.2967  1.4336 -2.1950
15291SOL     OW57091   1.307   3.687   0.480  0.1282 -0.8567 -0.2603
15291SOL    HW157092   1.373   3.685   0.406 -0.4765  1.2239 -0.8965
15291SOL    HW257093   1.253   3.772   0.475 -1.1705 -1.5369  1.4564
15292SOL     OW57094   5.737   3.833   8.105  0.2237 -0.6607 -0.2239
15292SOL    HW157095   5.708   3.918   8.061 -0.5194  0.2782  2.0191
15292SOL    HW257096   5.659   3.771   8.113  0.8734 -1.7716 -2.2988
15293SOL     OW57097   3.003   4.970   2.165  0.0359  0.6592 -0.1877
15293SOL    HW157098   2.975   5.057   2.125 -1.4434  1.5152  2.6373
15293SOL    HW257099   3.047   4.985   2.253 -0.7140 -1.4849  0.5967
15294SOL     OW57100   0.091   0.480   5.449 -0.1727  0.7702 -0.4530
15294SOL    HW157101   0.101   0.579   5.463  3.9153  0.3987 -0.0486
15294SOL    HW257102   0.015   0.463   5.387 -1.6373  4.1042  0.3107
15295SOL     OW57103   8.313   2.457   4.785  0.0536 -0.0014 -0.0711
15295SOL    HW157104   8.319   2.547   4.828  1.0342 -0.4074  0.6495
15295SOL    HW257105   8.388   2.399   4.817 -0.5445 -1.0667 -0.5644
15296SOL     OW57106   5.119   4.217   1.722 -0.0867 -0.3117 -0.4199
15296SOL    HW157107   5.114   4.300   1.778 -1.6171 -0.0392 -0.9410
15296SOL    HW257108   5.068   4.230   1.637 -0.1435 -1.6993 -0.6140
15297SOL     OW57109   6.145   8.751   2.497  0.3684  0.0123  0.0398
15297SOL    HW157110   6.223   8.755   2.559 -0.3453  0.2916  0.9247
15297SOL    HW257111   6.127   8.656   2.472  0.9323 -0.0599 -0.0922
15298SOL     OW57112   0.840   2.592   3.136 -0.3779 -0.7665  0.0334
15298SOL    HW157113   0.820   2.499   3.168 -1.7273 -0.3260  0.4929
15298SOL    HW257114   0.885   2.644   3.208 -0.3417 -0.8143  0.0454
15299SOL     OW57115   7.939   4.694   3.414  0.0225  0.1238 -0.1654
15299SOL    HW157116   7.850   4.714   3.373 -0.0632 -1.6490 -0.8857
15299SOL    HW257117   7.942   4.598   3.441  1.6609  0.2094 -0.0098
15300SOL     OW57118   4.008   4.926   0.382  0.2421 -0.1621  0.1572
15300SOL    HW157119   3.951   4.857   0.427 -0.9427  1.1629  0.7536
15300SOL    HW257120   3.954   4.972   0.311  1.8534 -1.6788 -2.1082
15301SOL     OW57121   7.688   4.063   3.364 -0.0397 -0.0569  0.7508
15301SOL    HW157122   7.705   3.980   3.312 -0.5541 -0.7466  1.6776
15301SOL    HW257123   7.591   4.087   3.358  0.2329  0.9018 -0.1212
15302SOL     OW57124   3.096   6.868   3.865 -0.6296 -0.2507  0.3504
15302SOL    HW157125   3.193   6.861   3.843 -0.9217 -0.0565 -1.0697
15302SOL    HW257126   3.055   6.776   3.864 -0.5682 -0.2792  0.4617
15303SOL     OW57127   7.549   8.017   5.728 -0.0738 -0.2671  0.1626
15303SOL    HW157128   7.596   7.953   5.668 -0.5816  0.1139 -0.6536
15303SOL    HW257129   7.473   7.970   5.773 -1.0433 -0.0132 -1.1730
15304SOL     OW57130   1.722   2.802   5.383 -0.0424  0.1726  0.1759
15304SOL    HW157131   1.730   2.825   5.480  1.4726 -1.2855  0.4068
15304SOL    HW257132   1.763   2.713   5.366 -0.5565  0.2839 -1.7650
15305SOL     OW57133   8.441   0.494   1.903  0.5332 -0.0215  0.3481
15305SOL    HW157134   8.382   0.520   1.827  1.4619 -0.2412 -0.4500
15305SOL    HW257135   8.387   0.446   1.973 -0.8931  2.5916  1.1126
15306SOL     OW57136   7.862   5.929   6.058  0.6431 -0.3746 -0.2229
15306SOL    HW157137   7.795   5.858   6.034 -1.0874  0.9519  0.5518
15306SOL    HW257138   7.901   5.968   5.974 -1.0186  0.1838 -0.7569
15307SOL     OW57139   1.753   1.856   2.952  0.4515 -0.1090  0.5601
15307SOL    HW157140   1.690   1.846   2.875  2.3828  1.3113 -1.2344
15307SOL    HW257141   1.822   1.784   2.948 -1.4046 -2.1251  2.9531
15308SOL     OW57142   8.197   3.345   3.991  0.6629  0.1904  0.0811
15308SOL    HW157143   8.137   3.418   3.957 -0.3219 -0.8242 -0.3769
15308SOL    HW257144   8.292   3.376   3.987  0.3992  0.8071 -1.7486
15309SOL     OW57145   4.855   0.196   5.585 -0.4574 -0.1160  0.0835
15309SOL    HW157146   4.814   0.257   5.653 -0.3889  0.7046 -0.6065
15309SOL    HW257147   4.792   0.123   5.563 -2.5215  2.3430 -2.6140
15310SOL     OW57148   1.284   4.181   0.854 -0.2058 -0.7209 -0.6476
15310SOL    HW157149   1.213   4.237   0.897 -0.0717 -0.5683 -0.6253
15310SOL    HW257150   1.242   4.122   0.785 -0.3215 -0.4746 -0.7890
15311SOL     OW57151   3.675   1.409   3.697 -0.4453 -0.4488  0.2166
15311SOL    HW157152   3.744   1.372   3.759 -1.2458 -1.2195  0.6546
15311SOL    HW257153   3.707   1.496   3.659  0.7152 -0.7477  0.5034
15312SOL     OW57154   1.563   5.560   4.038  0.4375  0.2510  0.0738
15312SOL    HW157155   1.499   5.508   3.981  0.9314 -0.4406  0.1395
15312SOL    HW257156   1.655   5.523   4.026  0.6429  0.5140  0.8329
15313SOL     OW57157   9.604   2.874   1.925 -0.1384  0.1486 -0.0033
15313SOL    HW157158   9.639   2.860   1.832 -0.7199  1.7845 -0.4929
15313SOL    HW257159   9.664   2.829   1.990  0.7163 -0.3526 -1.1129
15314SOL     OW57160   9.952   0.444   1.511  0.0968  0.7890 -0.1422
15314SOL    HW157161  10.006   0.528   1.520 -0.2253  0.8372  1.5402
15314SOL    HW257162   9.871   0.451   1.569 -0.3939 -0.3240 -0.6877
15315SOL     OW57163   8.526   1.785   3.560  0.2622 -0.0041 -0.3121
15315SOL    HW157164   8.461   1.847   3.603 -0.3816 -0.9716  0.1249
15315SOL    HW257165   8.487   1.693   3.555  1.8265 -0.7481  0.5553
15316SOL     OW57166   7.707   2.595   2.284 -0.1662 -0.0557  0.2404
15316SOL    HW157167   7.785   2.534   2.269 -1.0447 -1.4051  1.0652
15316SOL    HW257168   7.689   2.647   2.201  1.9530  0.6775  0.2001
15317SOL     OW57169   8.775   1.401   3.539  0.4731 -0.2776  0.5804
15317SOL    HW157170   8.811   1.307   3.544 -0.0090 -0.4039  2.2312
15317SOL    HW257171   8.746   1.421   3.446 -0.6386 -2.2400  0.4851
15318SOL     OW57172   6.873   2.777   0.499 -0.5028  0.3457  0.5732
15318SOL    HW157173   6.954   2.718   0.494  1.1503  2.6387 -0.3449
15318SOL    HW257174   6.847   2.789   0.595  0.0637 -0.6136  0.8568
15319SOL     OW57175   6.830   5.110   7.384  0.2639 -0.1267 -0.5792
15319SOL    HW157176   6.922   5.097   7.420 -0.1393 -0.6741  0.2618
15319SOL    HW257177   6.823   5.068   7.293  0.7569 -0.3603 -0.5072
15320SOL     OW57178   1.222   3.590   2.227  0.0515 -0.3500 -0.1294
15320SOL    HW157179   1.282   3.585   2.147  0.5858 -1.0002  0.3035
15320SOL    HW257180   1.139   3.641   2.203  0.0068 -0.9129 -1.2230
15321SOL     OW57181   1.807   5.016   2.163 -0.2746  0.0565 -0.2682
15321SOL    HW157182   1.889   5.037   2.215 -0.4166 -0.2737  0.0910
15321SOL    HW257183   1.795   4.917   2.158 -0.3145  0.0908 -0.8445
15322SOL     OW57184   9.688   4.126   4.788 -0.3991 -0.2762  0.2238
15322SOL    HW157185   9.760   4.188   4.819 -0.3225 -1.0946  1.7002
15322SOL    HW257186   9.667   4.060   4.860  0.5339 -2.8908 -1.8489
15323SOL     OW57187   1.262   6.878   3.347 -0.2726  0.2948  0.2566
15323SOL    HW157188   1.352   6.897   3.388 -1.0604  0.7620  1.8010
15323SOL    HW257189   1.219   6.964   3.321  0.0024  0.0276 -1.1196
15324SOL     OW57190   8.813   5.076   4.721 -0.2943 -0.0918 -0.2415
15324SOL    HW157191   8.746   5.148   4.701 -1.3664 -1.4557 -1.6204
15324SOL    HW257192   8.769   4.987   4.715  1.1562 -0.9070  0.9526
15325SOL     OW57193   2.638   9.770   2.616 -0.4663  0.4433  0.1942
15325SOL    HW157194   2.668   9.676   2.632 -1.9005 -0.1168 -0.3267
15325SOL    HW257195   2.602   9.809   2.701  0.8712  0.8092  0.6030
15326SOL     OW57196   4.868   0.611   4.360 -0.0163  0.4085  0.3506
15326SOL    HW157197   4.884   0.540   4.290  1.3557 -0.7953  1.8485
15326SOL    HW257198   4.862   0.700   4.315 -0.9995 -0.5551 -1.4971
15327SOL     OW57199   2.303   8.447   0.482 -0.1725 -0.1962 -0.6894
15327SOL    HW157200   2.327   8.484   0.571 -1.1665 -0.2303 -0.3994
15327SOL    HW257201   2.319   8.348   0.481 -0.5819 -0.2675 -0.3940
15328SOL     OW57202   0.464   3.936   5.268 -0.1340  0.3710  0.5949
15328SOL    HW157203   0.439   3.934   5.365  0.0864 -0.8580  0.6285
15328SOL    HW257204   0.560   3.910   5.257 -0.1464  0.5447  0.0490
15329SOL     OW57205   9.465   6.135   2.647  0.3543  0.0038 -0.3853
15329SOL    HW157206   9.464   6.230   2.616  1.6251  0.1370 -0.0676
15329SOL    HW257207   9.387   6.086   2.609  0.1969  0.9453 -1.2910
15330SOL     OW57208   8.769   8.858   5.743 -0.1114 -0.5070  0.7478
15330SOL    HW157209   8.715   8.822   5.667 -0.4314  0.9841  0.2572
15330SOL    HW257210   8.844   8.914   5.707  1.2020 -1.7530  1.4594
15331SOL     OW57211   9.255   6.367   1.117 -0.1378 -0.3079 -0.0490
15331SOL    HW157212   9.260   6.341   1.021 -1.4659 -0.5164 -0.0657
15331SOL    HW257213   9.231   6.287   1.172  2.8984 -0.7312  0.7448
15332SOL     OW57214   1.660   4.832   2.886 -0.3082  0.5635 -0.0707
15332SOL    HW157215   1.683   4.803   2.979 -0.3504  1.1659  0.1358
15332SOL    HW257216   1.743   4.843   2.833 -0.3490 -0.8914 -0.4512
15333SOL     OW57217   8.052   3.721   0.476  0.1060 -0.0444  0.5835
15333SOL    HW157218   7.966   3.768   0.458  0.0602 -0.1667  0.4819
15333SOL    HW257219   8.049   3.629   0.437  0.5538  0.2010 -0.0514
15334SOL     OW57220   6.700   0.617   2.414  0.1265 -0.0509 -0.4825
15334SOL    HW157221   6.700   0.523   2.449  0.4007 -0.1909 -0.8580
15334SOL    HW257222   6.750   0.676   2.477 -0.4134 -0.0736 -0.0271
15335SOL     OW57223   8.591   4.506   1.342  0.0845 -0.1904 -0.1279
15335SOL    HW157224   8.616   4.413   1.313 -0.9032 -0.5193  0.0535
15335SOL    HW257225   8.578   4.506   1.441 -1.0797 -0.1254 -0.2814
15336SOL     OW57226   5.931   8.606   3.541  0.4541 -0.3024 -0.1060
15336SOL    HW157227   5.974   8.649   3.621  1.0263  0.5229 -0.8384
15336SOL    HW257228   5.861   8.542   3.571 -1.6844  2.4515  1.0210
15337SOL     OW57229   9.545   6.362   4.254 -0.4256  0.3257 -0.0811
15337SOL    HW157230   9.589   6.273   4.239 -2.0073  0.0093 -3.1800
15337SOL    HW257231   9.457   6.349   4.298 -0.0831  0.4675  0.6466
15338SOL     OW57232   2.430   0.661   5.416  0.0659 -0.2072 -0.4677
15338SOL    HW157233   2.435   0.640   5.514  0.3499  0.9089 -0.2384
15338SOL    HW257234   2.521   0.658   5.376  0.0376  0.0461 -0.5515
15339SOL     OW57235   4.780   9.017   2.894 -0.1917  0.2835 -0.0717
15339SOL    HW157236   4.841   9.096   2.897  0.8359 -0.4887 -0.3609
15339SOL    HW257237   4.801   8.955   2.970  0.1846 -0.5669 -0.8619
15340SOL     OW57238   5.119   7.370   2.269  0.0313 -0.4711 -0.3677
15340SOL    HW157239   5.079   7.448   2.316 -0.1010  0.3753 -1.8558
15340SOL    HW257240   5.217   7.366   2.287  0.1026  0.2663 -0.5991
15341SOL     OW57241   4.022   8.045   3.644 -0.7451  0.5756 -0.3074
15341SOL    HW157242   4.084   8.102   3.590 -1.2982  1.0731 -0.4118
15341SOL    HW257243   4.076   7.980   3.698 -0.1981 -0.3501 -1.9283
15342SOL     OW57244   1.278   3.777   2.693 -0.2222 -0.0113 -0.1596
15342SOL    HW157245   1.295   3.726   2.609  1.2229  1.4137 -0.7482
15342SOL    HW257246   1.292   3.874   2.676  0.3996  0.2581  1.8188
15343SOL     OW57247   7.124   9.979   2.205  0.6514 -0.4547  0.2224
15343SOL    HW157248   7.193   9.937   2.146 -0.5036 -0.2768 -1.2796
15343SOL    HW257249   7.045  10.006   2.150 -1.1319 -1.7187  2.0725
15344SOL     OW57250   3.305   2.460   5.129 -0.6991  0.1976 -0.1121
15344SOL    HW157251   3.313   2.391   5.201  0.3966  1.6197  1.1696
15344SOL    HW257252   3.272   2.546   5.168 -0.7308  0.8010 -1.4287
15345SOL     OW57253   3.931   2.860   1.977 -0.5481 -0.2596 -0.4065
15345SOL    HW157254   3.976   2.941   2.016  1.1733 -0.2236 -2.3958
15345SOL    HW257255   3.832   2.875   1.976 -0.4430  0.7696  1.5424
15346SOL     OW57256   4.234   1.301   6.406 -0.1535  0.5350  0.0526
15346SOL    HW157257   4.231   1.295   6.306  1.7855 -0.0918  0.0166
15346SOL    HW257258   4.316   1.255   6.439 -1.1715  0.0739  1.9915
15347SOL     OW57259   5.307   3.133   0.708 -0.3328  0.4770 -0.1368
15347SOL    HW157260   5.375   3.191   0.663 -0.9032  2.4079  1.4221
15347SOL    HW257261   5.243   3.190   0.759 -1.5730 -1.4795  0.5593
15348SOL     OW57262   2.275   8.135   3.006  0.3515 -0.3930 -0.0969
15348SOL    HW157263   2.215   8.214   3.016  0.7743 -0.3313  2.2719
15348SOL    HW257264   2.223   8.051   3.019  0.5433 -0.3830  0.7315
15349SOL     OW57265   2.641   2.112   2.662 -0.1141  0.5797  0.3054
15349SOL    HW157266   2.699   2.044   2.616 -0.0380  1.3166 -0.6999
15349SOL    HW257267   2.621   2.187   2.599 -1.2988  0.8448  0.9924
15350SOL     OW57268   8.019   8.600   5.349 -0.6763 -0.3747 -0.4308
15350SOL    HW157269   7.943   8.625   5.409  0.9793 -0.2672  1.7339
15350SOL    HW257270   8.024   8.500   5.340 -1.4928 -0.3478 -1.1445
15351SOL     OW57271   8.832   6.430   4.772 -0.4084  0.1499  0.1859
15351SOL    HW157272   8.816   6.527   4.791 -0.4370  0.2756 -0.4771
15351SOL    HW257273   8.879   6.389   4.850 -3.0285  0.0114  1.7451
15352SOL     OW57274   3.588   4.290   5.686 -0.1584  0.2863 -0.4376
15352SOL    HW157275   3.543   4.324   5.603 -2.0348  0.5157  0.6699
15352SOL    HW257276   3.657   4.356   5.716  0.8686 -0.0010 -2.0429
15353SOL     OW57277   1.245   4.772   4.602 -0.1477  0.4020 -0.6856
15353SOL    HW157278   1.299   4.835   4.658  1.1104 -0.0498 -1.3644
15353SOL    HW257279   1.291   4.683   4.599 -1.1972 -0.1311 -0.8635
15354SOL     OW57280   5.780   1.161   2.506  0.0326 -0.1167  0.7483
15354SOL    HW157281   5.724   1.157   2.589 -0.5484  0.4741  0.3927
15354SOL    HW257282   5.870   1.124   2.525 -0.7661 -1.9576  1.0945
15355SOL     OW57283   7.511   4.012   4.156 -0.1130 -0.1726  0.1273
15355SOL    HW157284   7.416   3.993   4.130 -0.0157  0.3083 -0.5913
15355SOL    HW257285   7.512   4.067   4.239 -0.5559  2.1454 -1.3425
15356SOL     OW57286   8.360   9.898   2.464 -0.1965 -0.6450 -0.0222
15356SOL    HW157287   8.284   9.834   2.452 -0.3173 -0.3792 -0.7402
15356SOL    HW257288   8.331   9.973   2.523 -0.6142 -0.3629 -0.5746
15357SOL     OW57289   9.900   8.878   4.148  0.5940 -0.1123 -0.0748
15357SOL    HW157290   9.927   8.783   4.165  1.4958  0.4793  1.8800
15357SOL    HW257291   9.981   8.932   4.125  0.0673  0.1869 -1.3190
15358SOL     OW57292   7.932   5.138   4.128 -0.2166 -0.4226  0.2491
15358SOL    HW157293   8.022   5.097   4.111 -0.3887 -0.4789 -0.5408
15358SOL    HW257294   7.867   5.103   4.061  0.1085  2.7835 -1.8119
15359SOL     OW57295   4.387   2.297   8.081  0.3271 -0.4767 -0.3111
15359SOL    HW157296   4.440   2.372   8.120 -0.6293 -0.2734  0.6514
15359SOL    HW257297   4.445   2.217   8.067  0.9302 -0.1890  0.5294
15360SOL     OW57298   8.840   3.465   5.121 -0.1063 -0.3703 -0.5634
15360SOL    HW157299   8.816   3.369   5.102 -1.3639 -0.4236  1.1685
15360SOL    HW257300   8.793   3.524   5.056 -0.1146 -0.8683 -1.0178
15361SOL     OW57301   8.586   0.289   1.798 -0.2040  0.3135  0.0971
15361SOL    HW157302   8.544   0.200   1.816  0.9233 -0.1983  0.3083
15361SOL    HW257303   8.544   0.358   1.857  0.5300 -0.5474  1.6783
15362SOL     OW57304   0.468   0.036   2.469  0.2429 -0.5185 -0.6579
15362SOL    HW157305   0.437  -0.002   2.556 -0.2906 -0.8089 -0.9772
15362SOL    HW257306   0.567   0.054   2.474  0.1796 -0.3522  0.0693
15363SOL     OW57307   0.822   7.346   3.694  0.1327 -0.4634 -0.0146
15363SOL    HW157308   0.746   7.397   3.735  2.2446  4.1721 -1.4364
15363SOL    HW257309   0.799   7.323   3.600  0.5733  1.3968 -0.6131
15364SOL     OW57310   9.855   6.694   2.629  0.1961 -0.9379 -0.2320
15364SOL    HW157311   9.903   6.714   2.714  2.1784 -1.3261 -1.2459
15364SOL    HW257312   9.788   6.766   2.611  2.2296  1.0115 -0.1516
15365SOL     OW57313   0.839   8.632   0.340 -0.5264 -0.1037 -0.1503
15365SOL    HW157314   0.863   8.667   0.431  2.4669 -0.0059 -0.9437
15365SOL    HW257315   0.840   8.532   0.341 -1.7702 -0.1202  0.2307
15366SOL     OW57316   2.381   8.477   3.888  0.4082 -0.0011  0.0716
15366SOL    HW157317   2.463   8.518   3.929 -0.7406  2.2242  0.1819
15366SOL    HW257318   2.317   8.453   3.961  1.4336 -2.9223  0.0908
15367SOL     OW57319   9.599   0.405   4.367  0.1004 -0.1357 -0.2657
15367SOL    HW157320   9.671   0.394   4.298 -0.2077  0.1068 -0.6252
15367SOL    HW257321   9.587   0.503   4.386 -0.9484 -0.0982 -1.0681
15368SOL     OW57322   3.493   2.606   0.428  0.5571 -0.1367  1.0454
15368SOL    HW157323   3.484   2.703   0.453  1.1653 -0.0673  1.0246
15368SOL    HW257324   3.411   2.556   0.454 -1.1684  1.0338 -1.9456
15369SOL     OW57325   0.338   8.836   1.038  0.2677 -0.5868  0.1820
15369SOL    HW157326   0.421   8.781   1.026 -0.3065 -1.1145 -1.6920
15369SOL    HW257327   0.317   8.845   1.135  0.3783 -3.7071  0.5494
15370SOL     OW57328   7.309   1.313   8.147  0.3642 -0.4058  0.0951
15370SOL    HW157329   7.377   1.241   8.134 -0.0607 -0.5473 -1.4649
15370SOL    HW257330   7.347   1.401   8.118  0.2699 -0.2961  0.2993
15371SOL     OW57331   4.648   9.252   1.056  0.2807  0.2386  0.4545
15371SOL    HW157332   4.700   9.298   0.984 -0.5666  1.4572  0.5952
15371SOL    HW257333   4.582   9.317   1.095 -0.3131 -0.8540  1.2784
15372SOL     OW57334   2.547   4.592   0.188 -0.5958 -0.1778 -0.0389
15372SOL    HW157335   2.569   4.674   0.135  0.2403 -1.0559 -1.0823
15372SOL    HW257336   2.626   4.530   0.188 -1.7247 -1.6568 -0.5698
15373SOL     OW57337   0.065   8.294   0.389  0.3572  0.1578  0.0944
15373SOL    HW157338   0.084   8.348   0.471 -0.3521 -0.3779  0.6236
15373SOL    HW257339   0.026   8.205   0.415  1.5988 -0.6526 -0.7586
15374SOL     OW57340   9.279   7.838   5.962 -0.1425  0.2216 -0.5689
15374SOL    HW157341   9.244   7.929   5.980  0.4638  0.2120  0.7237
15374SOL    HW257342   9.234   7.800   5.880 -1.6103  1.0060 -0.1431
15375SOL     OW57343   0.015   7.194   5.149 -0.1346  0.5488  0.3274
15375SOL    HW157344   0.082   7.184   5.223 -0.1882 -0.4073  0.2453
15375SOL    HW257345   0.032   7.125   5.079 -2.0978 -0.6284  0.9853
15376SOL     OW57346   9.803   7.777   0.972  0.8313  0.3525 -0.0047
15376SOL    HW157347   9.789   7.729   1.059  0.6816  0.7973  0.2198
15376SOL    HW257348   9.741   7.739   0.903  1.1978 -0.2376 -0.0090
15377SOL     OW57349   9.582   4.556   1.923 -0.0764  0.1888 -0.4333
15377SOL    HW157350   9.528   4.630   1.962 -1.5729 -1.3344  0.4740
15377SOL    HW257351   9.652   4.528   1.989 -0.3808 -0.0961 -0.2307
15378SOL     OW57352   1.432   9.097   2.562 -0.1098 -0.6635  0.6735
15378SOL    HW157353   1.386   9.131   2.480 -2.0756 -1.2919  1.4811
15378SOL    HW257354   1.530   9.118   2.557 -0.1741 -0.8267 -1.8790
15379SOL     OW57355   5.858   1.724   4.497  0.0056  0.2865  0.1385
15379SOL    HW157356   5.875   1.643   4.554 -0.8144 -0.7131 -1.0067
15379SOL    HW257357   5.873   1.701   4.401  2.2164  2.1861 -0.0365
15380SOL     OW57358   1.153   9.256   3.811  0.1255  0.1878  0.1955
15380SOL    HW157359   1.177   9.275   3.906  0.6353 -0.9359  0.2950
15380SOL    HW257360   1.186   9.330   3.752  2.3086 -0.4727  0.5433
15381SOL     OW57361   8.190   3.597   0.717  0.1806 -0.6188  0.3031
15381SOL    HW157362   8.166   3.672   0.655  2.5598 -1.1107 -1.2992
15381SOL    HW257363   8.223   3.634   0.804  1.2972  0.2087 -0.4606
15382SOL     OW57364   9.062   3.545   5.290 -0.2166 -0.6820  0.0278
15382SOL    HW157365   9.000   3.507   5.221  0.8303  0.2151 -1.4260
15382SOL    HW257366   9.010   3.601   5.354 -0.7357  1.2599 -2.0251
15383SOL     OW57367   6.161   2.998   4.933  0.1439  0.0384  0.3332
15383SOL    HW157368   6.145   2.909   4.890 -0.3780  0.1790  0.2308
15383SOL    HW257369   6.255   3.028   4.915 -0.1911  0.2834 -1.0506
15384SOL     OW57370   3.617   9.119   8.140  0.4626  0.1074 -0.0117
15384SOL    HW157371   3.617   9.067   8.055 -1.5296  1.5821 -0.9624
15384SOL    HW257372   3.708   9.117   8.181  0.8039 -2.7496 -0.8360
15385SOL     OW57373   3.286   3.975   1.244  0.4517 -0.4192  0.5228
15385SOL    HW157374   3.219   4.025   1.189 -0.2567 -1.2740  0.6000
15385SOL    HW257375   3.325   4.037   1.312  0.8371  0.4706 -0.4973
15386SOL     OW57376   2.998   7.612   1.099 -0.6986 -0.3637 -0.7690
15386SOL    HW157377   2.975   7.551   1.023  2.7170 -0.1083 -2.0846
15386SOL    HW257378   3.047   7.692   1.064 -0.2743  0.4358  1.5474
15387SOL     OW57379   3.239   4.964   1.516  0.0550 -0.4667  0.2700
15387SOL    HW157380   3.172   5.021   1.469  0.6922  0.0048 -0.0632
15387SOL    HW257381   3.320   5.018   1.539 -0.2105 -0.7082  1.8459
15388SOL     OW57382   7.549   2.269   5.914 -0.3478  0.3964  0.2009
15388SOL    HW157383   7.462   2.311   5.938 -0.7695  0.0144 -0.6659
15388SOL    HW257384   7.601   2.331   5.854 -0.1758  0.4741  0.4303
15389SOL     OW57385   6.119   4.903   7.387 -0.2841  0.1061  0.2956
15389SOL    HW157386   6.083   4.989   7.349 -2.1039 -1.1985 -1.0197
15389SOL    HW257387   6.212   4.888   7.354 -0.9841  0.1777 -1.7720
15390SOL     OW57388   5.347   1.833   0.465  0.5215  0.1088  0.0460
15390SOL    HW157389   5.306   1.921   0.443 -1.3451 -0.4525  1.1823
15390SOL    HW257390   5.275   1.766   0.482  1.9173 -1.1772  1.0298
15391SOL     OW57391   3.818   0.791   5.716  0.3720 -0.1901 -0.2606
15391SOL    HW157392   3.743   0.786   5.782 -0.4846  0.8876 -1.1531
15391SOL    HW257393   3.792   0.742   5.632  2.6931 -4.4437  1.3310
15392SOL     OW57394   2.653   2.656   5.875 -0.1288 -0.5322 -0.3414
15392SOL    HW157395   2.629   2.663   5.778 -0.9613 -2.3214 -0.2742
15392SOL    HW257396   2.644   2.561   5.905 -1.1292  0.2286  1.8203
15393SOL     OW57397   8.852   6.075   6.071  0.0618 -0.5752 -0.2921
15393SOL    HW157398   8.913   6.031   6.137 -0.7546  1.4845  1.9036
15393SOL    HW257399   8.901   6.090   5.985  1.8702 -1.1758  0.6027
15394SOL     OW57400   4.648   5.447   0.490 -0.4540 -0.5084  0.1507
15394SOL    HW157401   4.731   5.434   0.436 -0.3440  1.1260 -0.0990
15394SOL    HW257402   4.672   5.452   0.587 -0.5466 -2.4999  0.2871
15395SOL     OW57403   3.528   3.780   1.861  0.0353  0.3408  0.0431
15395SOL    HW157404   3.464   3.715   1.902  0.0359  0.3182  0.0080
15395SOL    HW257405   3.492   3.810   1.772  0.0430  0.3758  0.0514
15396SOL     OW57406   0.818   9.545   6.501  0.2934 -0.1269  0.2238
15396SOL    HW157407   0.769   9.515   6.419  0.5344  0.0126  0.0274
15396SOL    HW257408   0.753   9.571   6.572  0.0850  0.6145 -0.2401
15397SOL     OW57409   7.268   0.174   3.697  0.3104  0.2288 -0.3645
15397SOL    HW157410   7.205   0.223   3.637 -0.3483 -1.5409 -1.1260
15397SOL    HW257411   7.361   0.210   3.683  0.0222  0.4606 -1.7612
15398SOL     OW57412   7.751   1.406   6.586 -0.6878 -0.1801 -0.1981
15398SOL    HW157413   7.834   1.393   6.531 -0.9787 -0.4394 -0.5781
15398SOL    HW257414   7.690   1.471   6.541 -1.0257 -0.5617 -0.2937
15399SOL     OW57415   8.202   9.614   4.958 -0.2699  0.2691  0.5223
15399SOL    HW157416   8.137   9.543   4.985 -0.4853  0.3514  0.2246
15399SOL    HW257417   8.153   9.686   4.908 -0.0723  0.6781  0.9183
15400SOL     OW57418   3.336   7.341   3.182  0.1037  0.1857 -0.0764
15400SOL    HW157419   3.240   7.349   3.154  0.0074  1.1744  0.5031
15400SOL    HW257420   3.363   7.245   3.179 -0.8516 -0.0860 -0.4123
15401SOL     OW57421   3.739   9.952   0.694  0.4800 -0.1632  0.4212
15401SOL    HW157422   3.830   9.964   0.653 -0.3539 -0.5092 -1.5646
15401SOL    HW257423   3.722   9.855   0.708 -0.1911 -0.1944 -0.6083
15402SOL     OW57424   1.259   3.162   0.428  0.0991  0.3128 -0.5371
15402SOL    HW157425   1.205   3.092   0.474 -1.2881  0.3808 -2.0357
15402SOL    HW257426   1.206   3.247   0.423  1.7059  1.4463  1.1261
15403SOL     OW57427   2.966   4.973   1.366 -0.5545  0.4532 -0.4057
15403SOL    HW157428   2.881   5.021   1.346 -0.5501  0.2347 -0.9383
15403SOL    HW257429   3.043   5.023   1.326 -0.1252  2.1185  2.2996
15404SOL     OW57430   7.444   1.790   1.852 -0.1476  0.2681 -0.3140
15404SOL    HW157431   7.391   1.858   1.903  1.4028  1.6672 -0.4950
15404SOL    HW257432   7.383   1.736   1.794 -1.3213  2.2223 -0.9420
15405SOL     OW57433   7.049   7.088   6.042 -0.4672 -0.1318 -0.5789
15405SOL    HW157434   7.024   7.020   5.973 -0.0471 -1.8497  0.9442
15405SOL    HW257435   7.146   7.108   6.035  0.1927 -2.4795  1.3734
15406SOL     OW57436   0.475   8.628   4.115  0.1864  0.0354 -0.0851
15406SOL    HW157437   0.383   8.618   4.153  0.6900  1.4882  1.6368
15406SOL    HW257438   0.542   8.613   4.188  1.2861 -0.0930 -1.1144
15407SOL     OW57439   6.069   9.861   2.750  0.0229  0.1822 -0.0035
15407SOL    HW157440   6.008   9.922   2.800 -0.0872 -0.7220  0.9848
15407SOL    HW257441   6.028   9.770   2.743  0.0941  0.2575 -1.6333
15408SOL     OW57442   9.574   3.902   1.011 -0.5755  0.1264 -0.6417
15408SOL    HW157443   9.525   3.982   0.976 -0.3119  0.2288 -0.7713
15408SOL    HW257444   9.558   3.895   1.110  0.3732  1.0288 -0.4128
15409SOL     OW57445   2.012   5.311   3.379  0.3505 -0.4959 -0.3726
15409SOL    HW157446   2.066   5.361   3.311 -0.1990 -0.3659 -0.7115
15409SOL    HW257447   2.053   5.221   3.394  0.3764 -0.5895 -0.9976
15410SOL     OW57448   2.213   4.333   4.485 -0.0957 -0.5406 -0.0597
15410SOL    HW157449   2.244   4.427   4.469 -2.0733 -0.0246 -0.9656
15410SOL    HW257450   2.139   4.333   4.552 -0.5191 -1.3967 -0.5206
15411SOL     OW57451   9.702   2.519   2.978 -0.3563 -0.1616  0.6459
15411SOL    HW157452   9.672   2.588   3.043 -0.3794  0.1133  0.3442
15411SOL    HW257453   9.709   2.559   2.887  1.0307 -0.1868  0.7242
15412SOL     OW57454   8.691   0.175   0.681 -0.0701  0.2788 -0.2367
15412SOL    HW157455   8.627   0.133   0.745 -0.6311  1.5586  0.0442
15412SOL    HW257456   8.700   0.117   0.600  0.0112 -0.9333  0.6293
15413SOL     OW57457   6.941   1.753   2.532 -0.6118  0.0402 -0.1459
15413SOL    HW157458   6.945   1.751   2.632 -2.3464 -0.4728 -0.0735
15413SOL    HW257459   7.017   1.808   2.497  0.2522 -0.1064  1.4273
15414SOL     OW57460   8.382   9.694   4.418 -0.3345 -0.2724  1.1802
15414SOL    HW157461   8.361   9.609   4.369 -0.1197  0.0549  0.5163
15414SOL    HW257462   8.312   9.711   4.487 -0.3235 -1.0476  1.3847
15415SOL     OW57463   1.765   8.416   0.123 -0.4115 -0.2635 -0.3251
15415SOL    HW157464   1.683   8.407   0.180 -0.0823 -0.3286  0.1391
15415SOL    HW257465   1.808   8.505   0.140  0.3239 -0.7421  0.3788
15416SOL     OW57466   0.829   9.057   2.034  0.9201  0.4307 -0.3880
15416SOL    HW157467   0.890   9.038   1.957  1.5911  1.4513 -0.1283
15416SOL    HW257468   0.778   8.975   2.058  2.1383 -0.4105 -0.6670
15417SOL     OW57469   0.100   4.670   0.238  0.0188  0.0394  0.0630
15417SOL    HW157470   0.150   4.588   0.209 -0.3823 -0.6103  1.1720
15417SOL    HW257471   0.011   4.673   0.193 -0.6372 -1.0082  1.2639
15418SOL     OW57472   5.794   0.512   4.012 -0.2727  0.3435 -0.0789
15418SOL    HW157473   5.711   0.569   4.010  0.0145  0.7722  0.0932
15418SOL    HW257474   5.768   0.416   4.019 -0.7344  0.5521  1.1616
15419SOL     OW57475   5.738   9.952   4.275  0.7493 -0.0591 -0.2784
15419SOL    HW157476   5.704   9.869   4.319 -0.7986  0.5067 -0.3715
15419SOL    HW257477   5.773  10.015   4.344  1.4138 -0.5496 -0.1610
15420SOL     OW57478   9.989   6.170   0.715 -0.1229 -0.3358  0.0040
15420SOL    HW157479  10.007   6.163   0.814 -1.3844  0.1597  0.2834
15420SOL    HW257480   9.987   6.079   0.675 -0.5583 -0.5998  0.6222
15421SOL     OW57481   5.314   8.296   5.610  0.1479 -1.1377  0.6881
15421SOL    HW157482   5.361   8.286   5.523 -1.4384  1.5085 -0.5579
15421SOL    HW257483   5.222   8.333   5.594  0.5334  1.3047  3.6004
15422SOL     OW57484   9.295   2.995   5.429 -0.3197 -0.4999 -0.0772
15422SOL    HW157485   9.372   2.979   5.367  2.3733  0.2607  2.9721
15422SOL    HW257486   9.301   2.932   5.506 -2.1039  0.3576  0.7784
15423SOL     OW57487   9.006   1.117   2.713 -0.3508 -0.4240  0.3628
15423SOL    HW157488   9.025   1.148   2.806 -1.1709  1.4014 -0.0502
15423SOL    HW257489   9.092   1.106   2.662 -0.0455  1.3824  0.4713
15424SOL     OW57490   7.081   1.316   4.305  0.3497  0.3158 -0.0172
15424SOL    HW157491   7.001   1.352   4.353 -0.0475  0.6664 -0.9338
15424SOL    HW257492   7.160   1.315   4.367 -0.3341  0.0783  0.8519
15425SOL     OW57493   3.155   6.271   2.982 -0.7183  0.3414 -0.0306
15425SOL    HW157494   3.098   6.218   2.920 -1.1867  3.7548 -2.6340
15425SOL    HW257495   3.119   6.363   2.990  2.3165  1.4784  1.2306
15426SOL     OW57496   2.865   3.308   6.034  0.1042  0.2378  0.4481
15426SOL    HW157497   2.899   3.311   5.940  1.2776 -0.9083  0.8268
15426SOL    HW257498   2.788   3.245   6.040  2.2133 -2.4115  0.9008
15427SOL     OW57499   6.753   0.013   2.297 -0.0785 -0.0285 -0.0509
15427SOL    HW157500   6.739   0.100   2.344  0.1766 -0.1913  0.3333
15427SOL    HW257501   6.822  -0.040   2.346 -0.1332 -0.3867 -0.3621
15428SOL     OW57502   1.873   0.028   0.815 -0.5221 -0.2006 -1.0565
15428SOL    HW157503   1.780   0.002   0.840  0.1623 -0.8324  0.8649
15428SOL    HW257504   1.912   0.087   0.886 -0.1464  1.7172 -2.8038
15429SOL     OW57505   0.090   7.167   4.698 -0.3364 -0.0934  0.5330
15429SOL    HW157506   0.172   7.149   4.644 -0.5959  0.4247 -0.0424
15429SOL    HW257507   0.014   7.112   4.662  0.2323 -2.1362  2.3395
15430SOL     OW57508   8.156   2.175   4.509 -0.2060 -0.1354  0.0653
15430SOL    HW157509   8.252   2.158   4.484  0.4506  0.2033  2.2787
15430SOL    HW257510   8.145   2.271   4.534 -1.1359 -0.1702 -0.2106
15431SOL     OW57511   9.308   2.343   3.971 -0.2033 -0.3638 -0.1864
15431SOL    HW157512   9.231   2.290   4.007 -0.5972  2.4558  3.4940
15431SOL    HW257513   9.390   2.323   4.025  0.3783  0.4355 -0.7651
15432SOL     OW57514   7.590   0.373   0.448  0.0907 -0.4969  0.0554
15432SOL    HW157515   7.522   0.336   0.511 -1.3099  1.9688  0.0361
15432SOL    HW257516   7.679   0.331   0.467 -0.9098 -1.9393  1.7092
15433SOL     OW57517   8.163   3.289   8.151  0.1890  0.1064  0.0059
15433SOL    HW157518   8.085   3.238   8.189  0.5565 -1.2824 -1.0554
15433SOL    HW257519   8.243   3.274   8.209 -0.0404  0.5890  0.4516
15434SOL     OW57520   2.808   3.059   1.424  0.3586  0.1639  0.3638
15434SOL    HW157521   2.852   3.049   1.335 -0.0748 -0.3878  0.2097
15434SOL    HW257522   2.736   3.127   1.419 -0.4569 -0.7202 -0.0069
15435SOL     OW57523   9.674   7.835   2.726 -0.1384 -0.0010 -0.0185
15435SOL    HW157524   9.585   7.819   2.768 -1.8543  0.9375 -3.1813
15435SOL    HW257525   9.700   7.931   2.738  0.9155 -0.4607  1.6546
15436SOL     OW57526   2.434   3.298   3.340 -0.4666  0.1831  0.0818
15436SOL    HW157527   2.403   3.384   3.299  1.0922 -0.5782 -2.8105
15436SOL    HW257528   2.382   3.281   3.424 -0.2386  4.3517  1.2046
15437SOL     OW57529   9.777   2.292   3.101 -0.1831 -0.2729  0.0914
15437SOL    HW157530   9.768   2.317   3.198  2.8034  1.5668 -0.0366
15437SOL    HW257531   9.762   2.374   3.045  4.6091  0.2938 -0.6064
15438SOL     OW57532   2.962   9.989   0.208 -0.6596 -0.3260  0.4300
15438SOL    HW157533   2.995  10.035   0.291  1.6070 -0.8937 -0.1249
15438SOL    HW257534   2.906   9.910   0.234 -1.1159  0.2965  1.4010
15439SOL     OW57535   9.425   7.075   0.999 -0.3776  0.1527 -0.3682
15439SOL    HW157536   9.379   7.126   1.073 -1.7668 -2.4303  0.6208
15439SOL    HW257537   9.523   7.069   1.018 -0.2675  2.0222 -0.2675
15440SOL     OW57538   4.180   5.487   2.141 -0.2765  0.0238 -0.1631
15440SOL    HW157539   4.101   5.537   2.176 -0.4361 -0.0696 -0.3900
15440SOL    HW257540   4.252   5.485   2.210 -1.1616 -1.4775  0.7351
15441SOL     OW57541   6.365   4.651   1.967 -0.3733  0.4124  0.0916
15441SOL    HW157542   6.380   4.749   1.984  1.3103 -0.0390  1.3405
15441SOL    HW257543   6.357   4.635   1.868 -1.1274  1.8705 -0.0933
15442SOL     OW57544   3.953   9.589   5.645 -0.2950  0.1160  0.0159
15442SOL    HW157545   3.902   9.522   5.591  0.3919  0.0386 -0.5375
15442SOL    HW257546   3.935   9.574   5.742 -1.9144  0.5528 -0.1953
15443SOL     OW57547   1.350   4.793   3.380  0.4818  0.2844 -0.3057
15443SOL    HW157548   1.351   4.708   3.432 -0.7587  0.0370 -0.6654
15443SOL    HW257549   1.359   4.871   3.443  0.3375 -0.0656  0.1482
15444SOL     OW57550   3.445   2.066   4.727  0.4857  0.1244  0.2113
15444SOL    HW157551   3.417   1.981   4.771  0.9515 -0.3510 -0.4086
15444SOL    HW257552   3.544   2.064   4.710  0.3479  0.4028 -0.6455
15445SOL     OW57553   9.761   4.635   4.322 -0.1320 -0.5620  0.2564
15445SOL    HW157554   9.845   4.682   4.295 -0.6243  0.1363 -0.0845
15445SOL    HW257555   9.682   4.689   4.292 -0.7006 -0.5358  1.7619
15446SOL     OW57556   5.602   7.879   4.748 -0.0802 -0.3867 -0.0744
15446SOL    HW157557   5.604   7.827   4.663  0.7563  0.5967 -0.6831
15446SOL    HW257558   5.688   7.865   4.798 -0.5332 -0.8942  0.5682
15447SOL     OW57559   3.998   8.240   2.598  0.0564 -0.5661 -0.1830
15447SOL    HW157560   4.022   8.333   2.570  1.5849 -0.2794  2.0347
15447SOL    HW257561   3.954   8.242   2.687  0.2386 -2.0041 -0.0502
15448SOL     OW57562   5.252   9.404   4.896  0.5751  0.6514  0.0810
15448SOL    HW157563   5.268   9.393   4.994  0.7418 -0.2865 -0.0418
15448SOL    HW257564   5.333   9.373   4.846 -0.4957 -1.4141 -0.4450
15449SOL     OW57565   2.681   7.325   3.159 -0.4171  0.7049 -0.3183
15449SOL    HW157566   2.590   7.288   3.137 -0.1876 -1.9671  2.8300
15449SOL    HW257567   2.672   7.400   3.225 -0.4434  1.9095 -1.6687
15450SOL     OW57568   9.804   1.425   5.811  0.2199 -0.2521 -0.3422
15450SOL    HW157569   9.812   1.370   5.894  0.4541 -0.0398 -0.2256
15450SOL    HW257570   9.798   1.364   5.732  1.3992 -0.4363 -0.2928
15451SOL     OW57571   3.753   0.651   1.805  0.3007  0.4095 -0.2987
15451SOL    HW157572   3.838   0.604   1.782 -0.7760 -1.0229 -1.4447
15451SOL    HW257573   3.774   0.744   1.837  2.2780  0.0491 -0.4714
15452SOL     OW57574   9.083   6.426   3.300  0.2293 -0.2337  0.4053
15452SOL    HW157575   9.044   6.484   3.372  1.0994 -0.3339  0.9673
15452SOL    HW257576   9.147   6.361   3.341  0.1199 -0.8334 -0.3640
15453SOL     OW57577   0.918   0.045   2.422  0.2415  0.3407 -0.2038
15453SOL    HW157578   0.845   0.106   2.393  0.8930  2.3527  2.1517
15453SOL    HW257579   0.903   0.017   2.517  0.9936 -1.6185 -0.6251
15454SOL     OW57580   1.943   3.729   0.069 -0.1020  0.1448 -0.3887
15454SOL    HW157581   1.879   3.661   0.107 -2.1350 -0.3757 -4.4963
15454SOL    HW257582   2.017   3.683   0.022  0.3449  0.7914 -0.3284
15455SOL     OW57583   2.579   0.140   4.521 -0.0111 -0.0774  0.0232
15455SOL    HW157584   2.634   0.171   4.599  0.0164 -1.1654  0.4332
15455SOL    HW257585   2.613   0.184   4.437 -0.5634  1.7358  0.7271
15456SOL     OW57586   1.651   8.010   4.794  0.0800 -0.0217 -0.7605
15456SOL    HW157587   1.701   7.933   4.754 -0.8436 -0.9381 -0.1941
15456SOL    HW257588   1.610   8.065   4.721 -0.2382 -0.7439 -1.1301
15457SOL     OW57589   6.371   0.961   2.675 -0.2428 -0.4364  0.4057
15457SOL    HW157590   6.327   1.036   2.724  0.6834  0.6632 -0.4156
15457SOL    HW257591   6.332   0.874   2.704 -1.7133  0.4032  0.9642
15458SOL     OW57592   4.769   7.125   4.363 -0.0427 -0.2833 -0.0349
15458SOL    HW157593   4.741   7.168   4.277 -1.6303  1.0865  1.1331
15458SOL    HW257594   4.869   7.127   4.371 -0.0984  4.7852  0.7265
15459SOL     OW57595   3.836   5.372   2.654  0.1015 -0.4733  0.4306
15459SOL    HW157596   3.802   5.333   2.568 -0.6478 -0.1715  0.5935
15459SOL    HW257597   3.768   5.433   2.693  0.5305 -0.4357  1.1346
15460SOL     OW57598   1.661   5.103   1.036 -0.2474  0.0918 -0.1201
15460SOL    HW157599   1.607   5.187   1.040  0.3818  0.4155  4.5991
15460SOL    HW257600   1.738   5.116   0.972 -1.3589  2.3252 -1.0679
15461SOL     OW57601   0.658   2.170   3.412  0.4913  0.4015  0.3807
15461SOL    HW157602   0.701   2.080   3.421  1.8822  1.0460  0.4346
15461SOL    HW257603   0.601   2.172   3.330  0.0075 -0.6983  0.6854
15462SOL     OW57604   2.019   8.461   3.651 -0.6802  0.5331 -0.1541
15462SOL    HW157605   2.049   8.367   3.662  0.4764  0.8541 -0.5303
15462SOL    HW257606   1.929   8.463   3.607 -0.8015 -0.3958  0.0483
15463SOL     OW57607   1.230   5.452   5.688  0.3952  0.4245 -0.2437
15463SOL    HW157608   1.144   5.409   5.713 -0.0795  0.4025 -1.8413
15463SOL    HW257609   1.212   5.541   5.646  1.1765  0.6770 -0.0513
15464SOL     OW57610   4.585   8.280   1.672 -0.4963  0.1251 -0.0863
15464SOL    HW157611   4.605   8.269   1.769  0.0983  2.2431  0.0440
15464SOL    HW257612   4.599   8.192   1.626  0.9424 -0.4888  1.4487
15465SOL     OW57613   2.918   6.389   1.268 -0.2977 -0.3139  0.4585
15465SOL    HW157614   2.964   6.362   1.183 -0.5408 -0.1610  0.2763
15465SOL    HW257615   2.966   6.467   1.308  0.7495 -1.3770  1.2920
15466SOL     OW57616   8.696   2.632   2.866 -0.4208  0.9859  0.1856
15466SOL    HW157617   8.692   2.545   2.913  0.9779  2.0635  2.3806
15466SOL    HW257618   8.791   2.663   2.860 -0.7917  1.9290 -1.4093
15467SOL     OW57619   8.751   7.454   2.422  0.3875 -0.1318 -0.0196
15467SOL    HW157620   8.751   7.495   2.331  0.9392 -1.2034 -0.5144
15467SOL    HW257621   8.740   7.525   2.491 -0.8567  0.5967 -0.9555
15468SOL     OW57622   5.830   8.675   6.828 -0.2564  0.0393 -0.3399
15468SOL    HW157623   5.747   8.730   6.840 -0.1382  0.5767 -1.8545
15468SOL    HW257624   5.902   8.709   6.888 -1.0306 -0.2512  0.7808
15469SOL     OW57625   7.891   2.392   2.301 -0.7232  0.4821 -0.4555
15469SOL    HW157626   7.916   2.302   2.337 -3.4878  0.1554  0.7523
15469SOL    HW257627   7.896   2.390   2.201  1.1910 -0.3755 -0.3691
15470SOL     OW57628   1.889   9.410   0.675  0.1429  0.7276  0.8273
15470SOL    HW157629   1.951   9.409   0.753 -0.7638  0.9480  1.5500
15470SOL    HW257630   1.833   9.492   0.677  0.4185  0.9529 -0.3041
15471SOL     OW57631   9.765   1.706   3.962  0.2307 -0.2317  0.2669
15471SOL    HW157632   9.807   1.677   3.876  0.0361 -0.5599  0.2844
15471SOL    HW257633   9.833   1.756   4.017  0.1825  0.5216 -0.3449
15472SOL     OW57634   7.359   2.464   1.663 -0.1987 -0.0759  0.0560
15472SOL    HW157635   7.435   2.518   1.698 -0.4998  2.1195 -2.4577
15472SOL    HW257636   7.273   2.505   1.692 -0.4337 -0.4118 -0.1642
15473SOL     OW57637   2.873   5.780   0.360 -0.2094 -0.0475  0.3848
15473SOL    HW157638   2.790   5.814   0.404  0.0699  0.5347  0.4649
15473SOL    HW257639   2.953   5.819   0.406  0.0913  0.3190 -0.4438
15474SOL     OW57640   1.162   6.542   1.265  0.0243 -0.4714  0.0697
15474SOL    HW157641   1.063   6.560   1.262 -0.2310 -1.3703  2.0510
15474SOL    HW257642   1.207   6.593   1.193 -1.7245  1.1149  0.0565
15475SOL     OW57643   9.677   3.133   6.619  0.0012 -0.0192  0.1339
15475SOL    HW157644   9.670   3.190   6.701  3.0208 -0.1308  0.5184
15475SOL    HW257645   9.751   3.166   6.561  0.8225 -2.5846 -0.3664
15476SOL     OW57646   2.655   5.648   1.388  0.2055  0.0361  0.3924
15476SOL    HW157647   2.597   5.719   1.346  0.5985 -0.6385 -1.3454
15476SOL    HW257648   2.749   5.660   1.356  0.5640 -0.3408  1.3101
15477SOL     OW57649   4.413   9.928   5.476 -0.0404  0.0582  0.2926
15477SOL    HW157650   4.442   9.832   5.481  0.1119  0.0073 -1.4335
15477SOL    HW257651   4.314   9.933   5.486 -0.0363 -0.2563  0.5202
15478SOL     OW57652   7.559   3.192   1.395  0.0314  0.2897 -0.0013
15478SOL    HW157653   7.503   3.204   1.313 -1.0288  2.2118  0.9671
15478SOL    HW257654   7.654   3.214   1.375 -0.4251  1.8951 -0.4278
15479SOL     OW57655   4.434   0.556   4.335  0.1022 -0.7544  0.0047
15479SOL    HW157656   4.504   0.572   4.404 -1.3794 -1.5864  1.7246
15479SOL    HW257657   4.344   0.577   4.372 -0.5682  0.6345 -2.3061
15480SOL     OW57658   2.977   7.321   2.288 -0.1613  0.1115  0.2372
15480SOL    HW157659   2.929   7.386   2.347  0.7732  2.4757 -1.5404
15480SOL    HW257660   2.918   7.296   2.212 -0.6967 -1.5459  1.1681
15481SOL     OW57661   8.589   4.027   4.470 -0.1318  0.2918  0.1019
15481SOL    HW157662   8.609   3.976   4.553 -0.5432  1.4366  0.9199
15481SOL    HW257663   8.498   4.003   4.437  1.4062 -2.9203 -2.1267
15482SOL     OW57664   9.353   5.066   2.317  0.1228  0.1832  0.0846
15482SOL    HW157665   9.408   5.088   2.398 -0.3265  1.9306 -0.0695
15482SOL    HW257666   9.289   4.993   2.339 -0.3833  1.0294  1.4640
15483SOL     OW57667   1.368   7.901   3.454 -0.0238  0.0327 -0.2232
15483SOL    HW157668   1.425   7.820   3.468 -1.2739 -1.1434 -1.6572
15483SOL    HW257669   1.423   7.984   3.463  1.6269 -1.0341 -0.4175
15484SOL     OW57670   3.894   0.813   0.591  0.5279 -0.4040 -0.1465
15484SOL    HW157671   3.819   0.768   0.639 -0.6866  1.3773 -0.3258
15484SOL    HW257672   3.932   0.886   0.648 -0.6210  1.4183 -1.6681
15485SOL     OW57673   9.175   3.919   5.672  0.3197 -0.1816  0.2713
15485SOL    HW157674   9.258   3.863   5.675  0.3157 -0.3702 -2.3347
15485SOL    HW257675   9.195   4.005   5.626 -0.6072  0.3805  0.9077
15486SOL     OW57676   0.403   0.304   1.223  0.6337  0.1259 -0.1818
15486SOL    HW157677   0.338   0.377   1.205  0.0329 -0.7708 -1.7977
15486SOL    HW257678   0.372   0.249   1.301 -1.5411 -1.3737 -2.0367
15487SOL     OW57679   4.713   7.111   3.149  0.2276  0.2704 -0.2714
15487SOL    HW157680   4.624   7.066   3.146 -2.0470  4.4070  0.9412
15487SOL    HW257681   4.764   7.078   3.229 -1.1005 -0.5323  0.2565
15488SOL     OW57682   4.755   8.801   5.645  0.6792 -0.2143 -0.6261
15488SOL    HW157683   4.735   8.763   5.555 -0.8636  0.3826 -0.5500
15488SOL    HW257684   4.847   8.842   5.644  1.2528 -1.5013 -1.4862
15489SOL     OW57685   8.393   2.421   1.668  0.3061  0.7085 -0.2546
15489SOL    HW157686   8.413   2.484   1.743  0.0084  0.5768 -0.0651
15489SOL    HW257687   8.473   2.414   1.609  0.9979 -0.2102  0.7772
15490SOL     OW57688   7.929   1.528   3.198 -0.0151 -0.4457 -0.2856
15490SOL    HW157689   7.998   1.501   3.265  1.0692 -0.5765 -1.4442
15490SOL    HW257690   7.880   1.447   3.167 -1.2048 -0.2663  1.0796
15491SOL     OW57691   7.773   6.529   5.210 -0.3327 -0.1159 -0.0960
15491SOL    HW157692   7.737   6.515   5.302  1.6394  0.6633  0.8364
15491SOL    HW257693   7.824   6.448   5.181 -0.3083 -0.0671 -0.1895
15492SOL     OW57694   1.986   7.931   8.060 -0.2636 -0.1525  0.0333
15492SOL    HW157695   1.948   7.883   7.981 -1.2734 -1.2120  1.1506
15492SOL    HW257696   1.955   8.026   8.059 -0.8481 -0.3453 -0.4475
15493SOL     OW57697   0.100   8.323   3.805  0.3557 -0.4589 -0.0651
15493SOL    HW157698   0.111   8.416   3.838 -1.0013 -0.1883 -0.3557
15493SOL    HW257699   0.134   8.316   3.711  0.4117 -0.2409 -0.0612
15494SOL     OW57700   1.542   8.352   8.134  0.1607 -1.1294 -0.3132
15494SOL    HW157701   1.577   8.394   8.218 -2.1240 -0.9704  0.5902
15494SOL    HW257702   1.577   8.401   8.054  1.0042 -0.2482  0.5913
15495SOL     OW57703   8.209   5.264   5.285 -0.2865  0.1609 -0.6515
15495SOL    HW157704   8.149   5.336   5.322  0.3885 -0.1009  0.9681
15495SOL    HW257705   8.181   5.176   5.321 -0.2246 -0.2302 -1.5448
15496SOL     OW57706   6.997   7.733   5.993  0.3706 -0.3381 -0.2904
15496SOL    HW157707   7.019   7.755   5.898 -1.9852 -1.0972 -1.0349
15496SOL    HW257708   7.011   7.814   6.050  0.5075  0.5038 -1.5012
15497SOL     OW57709   1.732   1.936   3.206 -0.3660  0.0003 -0.2305
15497SOL    HW157710   1.767   1.855   3.251 -0.9891  0.7728  1.7152
15497SOL    HW257711   1.734   1.923   3.107 -0.4024 -2.3412  0.0489
15498SOL     OW57712   8.395   7.870   5.893  0.0147  0.2526 -0.3213
15498SOL    HW157713   8.411   7.783   5.846  0.1570  0.1574 -0.0982
15498SOL    HW257714   8.470   7.888   5.956 -0.8663 -0.3062  0.8990
15499SOL     OW57715   2.982   0.114   5.162  0.0118 -0.0412 -0.0751
15499SOL    HW157716   2.995   0.028   5.211 -0.6429 -0.0105  0.1718
15499SOL    HW257717   2.983   0.097   5.064  0.0881 -0.3029 -0.0306
15500SOL     OW57718   4.581   8.389   4.016 -0.4516 -0.3296 -0.4761
15500SOL    HW157719   4.531   8.467   3.978  0.7643  1.8071  2.1732
15500SOL    HW257720   4.523   8.340   4.081 -0.2786  0.0040 -0.0754
15501SOL     OW57721   1.960   6.680   3.350 -0.0760 -0.2694  0.5893
15501SOL    HW157722   1.889   6.638   3.293  0.5439  0.8752 -1.0667
15501SOL    HW257723   2.034   6.615   3.365 -0.4417 -0.7208  0.4351
15502SOL     OW57724   2.404   6.536   4.169 -0.3874  0.3558  0.1970
15502SOL    HW157725   2.385   6.618   4.116 -2.8925 -0.2492  0.1222
15502SOL    HW257726   2.357   6.458   4.128  0.6586 -0.8210  1.1970
15503SOL     OW57727   7.112   8.698   5.160 -0.3676 -0.4007  0.7180
15503SOL    HW157728   7.051   8.771   5.129 -0.6320 -0.0375  2.0518
15503SOL    HW257729   7.120   8.702   5.260  1.1165 -1.0144  0.6295
15504SOL     OW57730   3.176   4.072   3.208 -0.4309  0.4144 -0.6022
15504SOL    HW157731   3.086   4.108   3.184 -1.0204 -1.0732 -0.6970
15504SOL    HW257732   3.167   3.978   3.241  0.8850  0.8971  1.2010
15505SOL     OW57733   3.394   5.116   0.359  0.2295 -0.2520 -0.0075
15505SOL    HW157734   3.428   5.201   0.399 -0.0130 -0.0928 -0.1325
15505SOL    HW257735   3.295   5.124   0.344 -0.0165 -1.0490  1.1927
15506SOL     OW57736   8.637   5.995   4.809 -0.6023  0.0848 -0.0019
15506SOL    HW157737   8.694   5.974   4.730 -1.0903 -0.9203 -0.1084
15506SOL    HW257738   8.687   6.052   4.874  0.5772 -0.9197 -0.0186
15507SOL     OW57739   9.091   1.919   6.407 -0.2612  0.4287  0.0921
15507SOL    HW157740   9.143   1.835   6.390  0.1221  0.8143 -0.7084
15507SOL    HW257741   9.104   1.981   6.329 -0.2492  1.3679  0.8439
15508SOL     OW57742   4.698   3.015   3.935 -0.3982  0.4095  0.1257
15508SOL    HW157743   4.745   3.011   4.024 -1.4760 -0.0574  0.6858
15508SOL    HW257744   4.739   3.086   3.879  1.0313 -0.0400  0.5786
15509SOL     OW57745   9.564   3.495   2.172 -0.3818  0.6347  0.5274
15509SOL    HW157746   9.515   3.515   2.257  0.7524  0.9558  1.1149
15509SOL    HW257747   9.509   3.432   2.117 -0.9060  0.0148  1.7241
15510SOL     OW57748   3.613   7.771   2.907  0.5922 -0.4119 -0.3547
15510SOL    HW157749   3.669   7.816   2.976  0.8280 -1.5199  0.1874
15510SOL    HW257750   3.563   7.695   2.950 -0.8677  0.1911 -0.9490
15511SOL     OW57751   1.309   3.847   0.220 -0.4842 -0.4085  0.2645
15511SOL    HW157752   1.291   3.900   0.303 -2.1969 -1.3699  0.5172
15511SOL    HW257753   1.385   3.785   0.236  0.0196  0.3094  0.7050
15512SOL     OW57754   2.595   4.871   0.990 -0.3449 -0.4205  0.2278
15512SOL    HW157755   2.676   4.821   0.958  0.2841  1.0109 -0.4661
15512SOL    HW257756   2.565   4.934   0.919 -0.7116  0.6888  1.3594
15513SOL     OW57757   4.127   5.356   4.305 -0.1728  0.1189 -0.1165
15513SOL    HW157758   4.154   5.369   4.400 -0.0447  0.6886 -0.2285
15513SOL    HW257759   4.062   5.427   4.279 -0.4044 -0.1887 -0.3762
15514SOL     OW57760   3.983   4.731   4.385 -0.2803 -0.3524  0.2635
15514SOL    HW157761   4.065   4.720   4.329 -0.4995 -0.9885  0.0610
15514SOL    HW257762   3.977   4.825   4.418  1.0384 -0.5365  1.0718
15515SOL     OW57763   3.735   0.051   2.227  0.4388  0.8580 -0.1878
15515SOL    HW157764   3.797   0.078   2.301  2.8402  0.3068 -1.9429
15515SOL    HW257765   3.751   0.108   2.147 -0.4106 -0.1757 -1.1113
15516SOL     OW57766   4.218   7.856   3.034 -0.4004 -0.5057  0.1272
15516SOL    HW157767   4.196   7.922   3.107  0.3366 -1.1349  0.9208
15516SOL    HW257768   4.188   7.893   2.947 -0.8175  0.4965  0.6817
15517SOL     OW57769   8.473   3.112   5.759  0.2166  0.0688 -0.0494
15517SOL    HW157770   8.441   3.066   5.842  2.0008  0.5008  0.9095
15517SOL    HW257771   8.435   3.067   5.678  0.9818 -2.3622  0.9075
15518SOL     OW57772   5.623   9.141   6.689  0.4509 -0.9795  0.0807
15518SOL    HW157773   5.680   9.092   6.623  0.9003 -1.1753  0.6013
15518SOL    HW257774   5.628   9.239   6.672  0.4312 -1.0400 -0.2771
15519SOL     OW57775   5.639   1.143   6.603 -0.1465  0.0587 -0.5348
15519SOL    HW157776   5.548   1.184   6.610 -0.1964  0.0951 -1.3137
15519SOL    HW257777   5.643   1.062   6.662 -1.4423 -1.2638 -2.1940
15520SOL     OW57778   9.767   5.621   0.980 -0.2905  0.5629  0.0591
15520SOL    HW157779   9.851   5.648   1.027 -0.5325  2.3162 -0.4701
15520SOL    HW257780   9.688   5.661   1.028 -0.6529  0.8384 -0.7642
15521SOL     OW57781   1.295   4.116   1.633  0.1772  0.0997 -0.2297
15521SOL    HW157782   1.390   4.135   1.656  0.1794 -0.8304  0.5931
15521SOL    HW257783   1.235   4.155   1.703  0.0366 -0.4448 -0.0389
15522SOL     OW57784   1.989   7.018   2.464  0.3901 -0.3447 -0.0141
15522SOL    HW157785   1.902   7.063   2.447 -0.8574 -1.7730  2.3940
15522SOL    HW257786   2.006   6.951   2.392  0.2475  0.9693 -1.3028
15523SOL     OW57787   2.306   2.222   2.427  0.0669 -0.2220 -0.3275
15523SOL    HW157788   2.336   2.129   2.444 -0.0863  0.0449  1.5185
15523SOL    HW257789   2.382   2.277   2.392  0.3910 -0.7969 -0.5195
15524SOL     OW57790   5.217   4.855   7.876 -0.2663 -0.7384  0.1824
15524SOL    HW157791   5.172   4.806   7.801 -0.0883 -1.2660  0.4184
15524SOL    HW257792   5.261   4.938   7.840 -0.1621 -1.0025 -0.3026
15525SOL     OW57793   3.164   7.907   6.470 -0.2431 -0.3524 -0.3380
15525SOL    HW157794   3.112   7.936   6.551 -0.7666 -0.7236 -0.5368
15525SOL    HW257795   3.218   7.984   6.436  1.0636 -0.5767  1.1776
15526SOL     OW57796   7.027   9.774   1.963  0.2294  0.2062 -0.7439
15526SOL    HW157797   7.089   9.831   1.909  0.8071 -0.2233 -0.5368
15526SOL    HW257798   6.991   9.700   1.905  0.3232  0.1420 -0.7194
15527SOL     OW57799   4.469   4.636   5.722  0.6344 -0.6052 -0.0165
15527SOL    HW157800   4.375   4.618   5.691  1.0824 -4.0208  0.3609
15527SOL    HW257801   4.533   4.580   5.670  2.3422  0.6846  0.6451
15528SOL     OW57802   8.737   9.049   3.180  0.2193 -0.3167 -0.6496
15528SOL    HW157803   8.778   9.004   3.259 -0.3641 -1.2901 -0.8965
15528SOL    HW257804   8.776   9.141   3.170 -0.3292  0.1461  1.2745
15529SOL     OW57805   2.993   7.924   4.523  0.5555  0.5738 -0.0762
15529SOL    HW157806   3.080   7.876   4.532  1.2384  1.6125 -1.0674
15529SOL    HW257807   2.925   7.880   4.581  0.8251 -2.3817 -1.8963
15530SOL     OW57808   4.457   3.866   1.592  0.1668  0.1939  0.2177
15530SOL    HW157809   4.499   3.828   1.675 -0.1262 -1.4705 -0.3668
15530SOL    HW257810   4.528   3.890   1.526  0.2749 -1.7342 -0.3995
15531SOL     OW57811   8.093   2.549   5.097 -0.2785 -0.2019 -0.2678
15531SOL    HW157812   8.142   2.462   5.104 -0.0048  0.0266  0.8218
15531SOL    HW257813   8.144   2.620   5.146 -0.7447  0.4653 -0.7375
15532SOL     OW57814   8.733   1.222   5.712  0.4346 -0.5749 -0.1351
15532SOL    HW157815   8.784   1.205   5.797  0.5699  2.2315  0.3814
15532SOL    HW257816   8.789   1.196   5.634  1.5077 -0.2916  0.5330
15533SOL     OW57817   5.651   6.155   0.748 -0.0980 -0.3042  0.9410
15533SOL    HW157818   5.556   6.185   0.744 -0.0759 -0.4083 -0.7098
15533SOL    HW257819   5.708   6.229   0.783  0.0472  1.9344 -3.5918
15534SOL     OW57820   8.687   5.931   4.425 -0.3966 -0.4378 -0.1339
15534SOL    HW157821   8.700   5.976   4.337 -1.3732 -0.3402 -0.2271
15534SOL    HW257822   8.590   5.911   4.439 -0.1867 -0.9032  0.6987
15535SOL     OW57823   6.458   4.432   0.422 -0.4009 -0.3036  0.3464
15535SOL    HW157824   6.432   4.379   0.341 -0.9518 -0.6000  0.7070
15535SOL    HW257825   6.539   4.391   0.464 -1.4349 -1.5008  1.2145
15536SOL     OW57826   4.078   3.560   3.031  0.1821 -0.3925  0.8693
15536SOL    HW157827   4.156   3.620   3.042 -0.4973  0.8800 -0.9953
15536SOL    HW257828   4.079   3.520   2.939 -1.4510 -0.1992  0.7420
15537SOL     OW57829   7.898   2.867   5.526 -0.2898  0.0316 -0.2948
15537SOL    HW157830   7.889   2.772   5.497 -0.8302 -0.1354  0.4091
15537SOL    HW257831   7.808   2.909   5.529 -0.3493 -0.2307  2.0535
15538SOL     OW57832   3.256   2.459   1.045  0.6445 -0.1138  0.1033
15538SOL    HW157833   3.186   2.505   1.099  0.8784 -0.5809  0.7987
15538SOL    HW257834   3.346   2.479   1.082  0.7673 -0.8792  0.2145
15539SOL     OW57835   7.810   5.763   1.652 -0.3993  0.2965  0.1442
15539SOL    HW157836   7.803   5.825   1.573  1.7769 -0.9177 -1.0553
15539SOL    HW257837   7.730   5.705   1.656  0.0422 -0.5020 -1.9649
15540SOL     OW57838   4.721   0.732   5.038  0.6068  0.6015 -0.0712
15540SOL    HW157839   4.791   0.704   5.104  0.3022  2.4903  1.0958
15540SOL    HW257840   4.634   0.688   5.060  1.4434 -1.9651 -1.6862
15541SOL     OW57841   9.812   9.872   0.710 -0.3554  0.5015 -0.2990
15541SOL    HW157842   9.843   9.808   0.640 -0.5268  0.1914 -0.0951
15541SOL    HW257843   9.819   9.966   0.676 -1.7573  0.2780 -1.2476
15542SOL     OW57844   9.979   9.918   6.033  0.1362  0.3934  0.1518
15542SOL    HW157845   9.887   9.927   6.074 -0.7158  3.9094 -2.2518
15542SOL    HW257846   9.990   9.826   5.996 -1.8794 -0.5276  1.7037
15543SOL     OW57847   1.974   5.727   1.688  0.3559  0.8633 -0.1156
15543SOL    HW157848   1.924   5.788   1.626  0.2293  0.5836 -0.2868
15543SOL    HW257849   2.071   5.749   1.685  0.1974  1.7041  0.5427
15544SOL     OW57850   7.822   0.537   6.707  0.0865  0.3310 -0.5499
15544SOL    HW157851   7.800   0.481   6.627  1.7613 -1.5011  0.2654
15544SOL    HW257852   7.911   0.512   6.743 -1.1552  0.2950  2.6399
15545SOL     OW57853   1.462   9.959   3.124 -0.3697 -0.4325  0.1558
15545SOL    HW157854   1.518  10.007   3.191  1.0514 -1.2320 -0.4318
15545SOL    HW257855   1.380  10.012   3.105 -0.3037  0.2772  1.7762
15546SOL     OW57856   1.300   6.400   2.833  0.3055  0.2573 -0.4754
15546SOL    HW157857   1.299   6.474   2.766  0.9488  1.7643  1.1375
15546SOL    HW257858   1.265   6.433   2.920 -1.3258 -1.8978 -0.2542
15547SOL     OW57859   3.216   5.883   1.570  0.3524  0.0655  0.0648
15547SOL    HW157860   3.235   5.850   1.478  0.0454 -1.3542  0.4966
15547SOL    HW257861   3.301   5.880   1.624  0.6781  1.5292 -0.3584
15548SOL     OW57862   7.745   7.531   6.557 -0.7391  0.3655 -0.0735
15548SOL    HW157863   7.659   7.489   6.586 -0.9900  0.3788 -0.7811
15548SOL    HW257864   7.728   7.625   6.530 -0.4725  0.4113 -0.0766
15549SOL     OW57865   4.816   6.981   1.036  0.0452  0.4675  0.0178
15549SOL    HW157866   4.735   6.933   1.068  0.5008 -1.0167 -0.9768
15549SOL    HW257867   4.813   6.988   0.936  1.7893 -0.8554 -0.1572
15550SOL     OW57868   6.559   3.143   0.051 -0.0270 -0.4788  0.4356
15550SOL    HW157869   6.589   3.205  -0.022  1.0063 -0.2443  1.0409
15550SOL    HW257870   6.629   3.073   0.066 -0.9862 -1.5339  0.0610
15551SOL     OW57871   4.771   7.819   4.691  0.2201 -0.5404 -0.0106
15551SOL    HW157872   4.762   7.742   4.628 -2.1084  0.1169 -0.5279
15551SOL    HW257873   4.715   7.804   4.772 -0.0420  0.4727  0.0091
15552SOL     OW57874   0.141   3.198   3.198 -0.4788 -0.1804 -0.2846
15552SOL    HW157875   0.116   3.267   3.130 -0.1240  2.0433  1.7889
15552SOL    HW257876   0.228   3.156   3.172  0.1497  1.3422 -0.7041
15553SOL     OW57877   2.179   7.607   5.150 -0.2872  0.9534 -0.2235
15553SOL    HW157878   2.238   7.552   5.208 -2.3605  0.6073  1.6201
15553SOL    HW257879   2.172   7.565   5.059  0.8641  0.0661  0.0894
15554SOL     OW57880   3.353   3.467   8.082  0.0959  0.2110 -0.3278
15554SOL    HW157881   3.372   3.558   8.118 -0.9395  1.1703 -2.1618
15554SOL    HW257882   3.327   3.406   8.158  2.6014  0.9128  1.1577
15555SOL     OW57883   2.796   9.520   4.833 -0.2079  0.8753 -0.7938
15555SOL    HW157884   2.851   9.440   4.856 -1.3206 -0.3903 -2.4323
15555SOL    HW257885   2.711   9.518   4.885  0.6793  2.1817  0.7981
15556SOL     OW57886   3.500   5.435   1.379 -0.4079  0.3612 -0.0452
15556SOL    HW157887   3.571   5.504   1.363  0.5032 -0.4611  0.4643
15556SOL    HW257888   3.512   5.359   1.315  0.1631 -0.5475  1.1315
15557SOL     OW57889   7.869   7.011   5.818 -0.6194 -0.7409  0.2517
15557SOL    HW157890   7.905   7.056   5.899  0.4525 -1.2408  0.0535
15557SOL    HW257891   7.943   6.988   5.756 -1.5138  0.4373 -1.2932
15558SOL     OW57892   3.977   8.468   2.212 -0.2233 -0.4221  0.0481
15558SOL    HW157893   3.886   8.480   2.170 -0.0365  0.8899  0.0247
15558SOL    HW257894   4.019   8.557   2.227  0.7313 -1.0003  0.8186
15559SOL     OW57895   7.644   7.771   2.676  0.4999  0.4309 -0.7422
15559SOL    HW157896   7.737   7.807   2.671  0.1239  1.6010  0.3590
15559SOL    HW257897   7.646   7.681   2.721  1.0041  0.8880  0.1752
15560SOL     OW57898   1.683   1.394   0.912  0.1542 -0.3937  0.2127
15560SOL    HW157899   1.590   1.411   0.881  0.2492  0.2964  0.2985
15560SOL    HW257900   1.682   1.334   0.991 -0.3687  1.5894  1.7388
15561SOL     OW57901   7.498   9.852   2.842 -0.2685  0.3744  0.1501
15561SOL    HW157902   7.422   9.918   2.842 -0.7661 -0.0395 -4.1386
15561SOL    HW257903   7.575   9.891   2.792  0.4394 -1.2244 -0.0094
15562SOL     OW57904   5.356   1.725   2.311 -0.2094 -0.0235 -0.3158
15562SOL    HW157905   5.446   1.748   2.273 -0.2909  2.4360  0.8526
15562SOL    HW257906   5.367   1.698   2.407 -0.5253 -1.5673 -0.7069
15563SOL     OW57907   4.423   7.905   4.458 -0.1946 -0.4830 -0.5326
15563SOL    HW157908   4.479   7.854   4.392 -2.2838 -0.8754 -2.0522
15563SOL    HW257909   4.379   7.982   4.412  1.6020  1.7589  1.3821
15564SOL     OW57910   0.659   1.436   2.067 -0.3501 -0.0474 -0.3256
15564SOL    HW157911   0.689   1.341   2.077  1.7953  0.5883 -0.4529
15564SOL    HW257912   0.630   1.451   1.972 -2.5178 -1.0541  0.1531
15565SOL     OW57913   2.762   0.496   4.516 -0.3448  0.2917  0.8180
15565SOL    HW157914   2.811   0.465   4.597 -0.3465 -0.4154  0.5557
15565SOL    HW257915   2.820   0.560   4.465  1.1358 -2.0558 -0.5379
15566SOL     OW57916   0.774   3.757   1.512  0.3491 -0.3554  0.0115
15566SOL    HW157917   0.736   3.805   1.434 -0.5896  1.0717  1.3119
15566SOL    HW257918   0.785   3.660   1.490  1.2983  0.2453 -2.2979
15567SOL     OW57919   3.259   8.289   5.431  0.3800  0.2315 -0.6794
15567SOL    HW157920   3.328   8.350   5.470  0.6259 -0.3762 -0.1636
15567SOL    HW257921   3.303   8.207   5.395 -0.0910 -0.2499 -0.1690
15568SOL     OW57922   8.260   6.331   4.243 -0.3498  0.2586  0.4557
15568SOL    HW157923   8.303   6.263   4.303  0.0668  0.0829 -0.0349
15568SOL    HW257924   8.292   6.422   4.268 -0.9732  0.2825  1.1688
15569SOL     OW57925   8.282   6.923   5.846  0.3027  0.0383 -0.2060
15569SOL    HW157926   8.328   6.879   5.769  1.7604  1.4507 -0.1699
15569SOL    HW257927   8.341   6.994   5.884 -2.2494  2.5384 -0.7302
15570SOL     OW57928   7.648   1.747   0.335 -0.5432 -0.4386 -0.5236
15570SOL    HW157929   7.693   1.704   0.256  1.3970 -0.3179  0.4834
15570SOL    HW257930   7.717   1.794   0.391 -2.1390  0.9562  0.3106
15571SOL     OW57931   7.359   8.209   3.202  0.6512 -0.7420 -0.5536
15571SOL    HW157932   7.327   8.275   3.270 -0.7330 -0.4964 -1.4197
15571SOL    HW257933   7.405   8.133   3.248  1.1171  0.1883  0.5381
15572SOL     OW57934   2.082   9.851   4.180  0.2895  0.0888 -0.0391
15572SOL    HW157935   2.178   9.846   4.150  0.6112 -1.1639  1.1473
15572SOL    HW257936   2.023   9.854   4.100  1.1804 -2.2733 -0.8460
15573SOL     OW57937   6.233   4.603   1.741  0.2905 -0.4666 -0.2632
15573SOL    HW157938   6.182   4.623   1.658  0.6083  0.0724 -0.3329
15573SOL    HW257939   6.256   4.506   1.744  1.0059 -0.3341 -1.2214
15574SOL     OW57940   1.154   6.404   6.200 -0.2527 -0.1992  0.8846
15574SOL    HW157941   1.057   6.411   6.223 -0.4354 -5.1987  2.1953
15574SOL    HW257942   1.201   6.346   6.267  3.0632 -0.1487 -1.2589
15575SOL     OW57943   7.753   5.051   3.912 -0.3149  0.1334 -0.0802
15575SOL    HW157944   7.775   5.079   3.818 -0.9537 -0.9291 -0.5639
15575SOL    HW257945   7.695   4.969   3.909 -0.6571  0.3168  1.2374
15576SOL     OW57946   0.480   9.983   5.665  0.0334  0.0108 -0.5047
15576SOL    HW157947   0.387  10.014   5.686  0.2347  0.2853 -0.0010
15576SOL    HW257948   0.545  10.033   5.722  0.5928  0.7271 -1.7479
15577SOL     OW57949   1.911   5.947   3.397  0.2779  0.1766 -0.0673
15577SOL    HW157950   1.994   5.891   3.409 -0.6753 -1.6102 -1.6321
15577SOL    HW257951   1.903   5.974   3.302 -0.1722  1.6043  0.3727
15578SOL     OW57952   0.215   0.193   3.240  0.5098  0.1231 -0.2809
15578SOL    HW157953   0.225   0.195   3.339 -1.3892 -0.4686 -0.0623
15578SOL    HW257954   0.159   0.115   3.213 -0.4921  1.2962 -1.6770
15579SOL     OW57955   7.972   8.805   6.180 -0.5806 -0.5964 -0.3514
15579SOL    HW157956   7.917   8.724   6.162 -0.0301 -1.0808  0.1306
15579SOL    HW257957   8.037   8.786   6.253  0.2122 -0.0151 -0.8931
15580SOL     OW57958   9.541   0.299   5.726 -0.3113  0.7463 -0.4465
15580SOL    HW157959   9.560   0.315   5.823  0.7679 -1.4156 -0.2712
15580SOL    HW257960   9.513   0.204   5.713 -0.5348  1.0436 -2.2439
15581SOL     OW57961   9.078   4.563   4.575 -0.2861  0.5259 -0.5212
15581SOL    HW157962   9.082   4.569   4.476  0.4980 -0.4701 -0.5580
15581SOL    HW257963   9.121   4.478   4.605 -0.2678  0.9528  0.6898
15582SOL     OW57964   4.975   0.445   1.000 -0.2970 -0.1782 -0.2688
15582SOL    HW157965   4.901   0.383   0.974  0.5068 -0.8174 -1.0553
15582SOL    HW257966   5.019   0.481   0.918  0.5654 -0.1732  0.1860
15583SOL     OW57967   9.282   5.816   4.599 -0.0896  0.1265 -0.1235
15583SOL    HW157968   9.246   5.744   4.539 -0.1474 -1.6101  1.9570
15583SOL    HW257969   9.381   5.809   4.603 -0.1316 -0.1479  0.4551
15584SOL     OW57970   9.326   3.854   3.234  0.2055 -0.1191  0.1944
15584SOL    HW157971   9.379   3.807   3.304 -2.0917 -3.5245 -0.2546
15584SOL    HW257972   9.340   3.809   3.146 -0.7141  1.1090 -0.5954
15585SOL     OW57973   8.767   0.032   1.075  0.0493  0.3838 -0.1380
15585SOL    HW157974   8.687   0.030   1.133  0.1018  1.1124 -0.0365
15585SOL    HW257975   8.797   0.127   1.061  1.3315  0.0837  0.4392
15586SOL     OW57976   9.994   2.622   2.091  0.4406  0.5371  0.0220
15586SOL    HW157977  10.016   2.703   2.036  0.2022  0.4561 -0.1946
15586SOL    HW257978  10.077   2.568   2.104 -0.0141 -0.8511 -2.5690
15587SOL     OW57979   3.877   6.069   4.528 -0.0644  0.0583  0.2438
15587SOL    HW157980   3.832   6.090   4.614 -1.8254 -2.7284  0.0741
15587SOL    HW257981   3.832   6.116   4.453 -1.4701 -1.1425  0.3196
15588SOL     OW57982   9.879   5.536   5.443  0.1143  0.2944  0.4582
15588SOL    HW157983   9.895   5.573   5.351  1.4765 -1.5736 -0.0926
15588SOL    HW257984   9.813   5.460   5.437  0.0861  0.2690  1.0498
15589SOL     OW57985   8.291   9.098   0.378  0.0355 -0.7832  0.2164
15589SOL    HW157986   8.386   9.088   0.408  0.0191 -0.5564  0.3488
15589SOL    HW257987   8.277   9.190   0.342  0.0599 -1.0583 -0.5106
15590SOL     OW57988   6.702   1.290   3.219 -0.1115  0.3238 -0.1210
15590SOL    HW157989   6.756   1.218   3.175  0.3452  1.9348 -2.2361
15590SOL    HW257990   6.762   1.361   3.254 -0.7598  1.8936 -2.0721
15591SOL     OW57991   3.773   2.402   1.572  0.3400  0.0283  0.0134
15591SOL    HW157992   3.803   2.492   1.539  2.0843 -0.3497  0.5694
15591SOL    HW257993   3.816   2.382   1.660 -1.3210 -0.6501  0.6902
15592SOL     OW57994   0.951   9.259   0.709 -0.5457 -0.3115  0.4888
15592SOL    HW157995   0.942   9.358   0.697  1.1632  0.1233  2.4721
15592SOL    HW257996   0.879   9.227   0.770 -1.3698 -0.3740 -0.5087
15593SOL     OW57997   1.840   2.462   3.624  0.1397  0.0736  0.6776
15593SOL    HW157998   1.889   2.376   3.640  3.0513  1.6487  0.6607
15593SOL    HW257999   1.801   2.460   3.532  1.6604 -0.5877  0.0148
15594SOL     OW58000   0.811   1.459   2.917  0.2756 -0.1116  0.2379
15594SOL    HW158001   0.865   1.423   2.993  0.3260 -1.0287 -0.2295
15594SOL    HW258002   0.740   1.394   2.893  1.3561 -0.6334 -1.6600
15595SOL     OW58003   0.010   0.795   4.487 -0.4970 -0.0502 -0.2836
15595SOL    HW158004  -0.027   0.780   4.395 -2.1845  1.0123  0.2022
15595SOL    HW258005   0.041   0.708   4.525 -0.3955 -0.6058 -1.5992
15596SOL     OW58006   3.663   6.905   1.961  0.0170  0.6491  0.3941
15596SOL    HW158007   3.611   6.916   1.876  0.0524 -0.9767  0.1407
15596SOL    HW258008   3.724   6.984   1.973 -1.5848  1.9639  0.0647
15597SOL     OW58009   1.879   4.539   0.852  0.1206  0.1024 -0.3091
15597SOL    HW158010   1.887   4.440   0.868  0.6285 -0.0270 -1.3234
15597SOL    HW258011   1.786   4.561   0.823  0.4926 -0.3394 -1.8596
15598SOL     OW58012   1.733   0.462   4.666  0.5552  0.4794 -0.2563
15598SOL    HW158013   1.661   0.393   4.678  0.9703 -0.5111 -3.2111
15598SOL    HW258014   1.822   0.417   4.671  0.9174  1.3064  0.8368
15599SOL     OW58015   1.603   1.289   4.508 -0.7677  0.6515 -0.1939
15599SOL    HW158016   1.586   1.385   4.487  0.4560  0.6079 -1.4699
15599SOL    HW258017   1.567   1.267   4.599  0.1739  2.6511  0.6790
15600SOL     OW58018   3.680   2.744   0.219 -0.5242  0.2976  0.5777
15600SOL    HW158019   3.580   2.739   0.219 -0.5897  1.2137 -0.5286
15600SOL    HW258020   3.718   2.652   0.213 -1.2821 -0.1147  1.9133
15601SOL     OW58021   9.163   9.126   4.645  0.3239 -0.2535 -0.2849
15601SOL    HW158022   9.258   9.147   4.669 -0.2194  0.7410  1.0455
15601SOL    HW258023   9.136   9.039   4.686  1.2210 -1.4951 -2.2248
15602SOL     OW58024   9.928   8.086   2.170  0.1279  0.8705  0.0111
15602SOL    HW158025   9.876   8.148   2.111 -1.2945 -0.7863 -0.5068
15602SOL    HW258026   9.993   8.033   2.114  0.5463  1.0833  0.2921
15603SOL     OW58027   6.378   7.832   5.996 -0.2990  0.1306 -0.1071
15603SOL    HW158028   6.382   7.741   6.036 -1.2835  0.1029 -0.0684
15603SOL    HW258029   6.446   7.891   6.041  2.1653 -1.2446 -1.8787
15604SOL     OW58030   8.671   2.485   5.870  0.7839  0.3020 -0.0302
15604SOL    HW158031   8.615   2.457   5.948  2.5003 -0.2547  1.0337
15604SOL    HW258032   8.666   2.416   5.798 -0.3044  0.5165 -0.1681
15605SOL     OW58033   6.486   9.334   5.219  0.1688 -0.0205  0.0425
15605SOL    HW158034   6.556   9.326   5.148  1.1652  0.0462  1.0077
15605SOL    HW258035   6.464   9.430   5.233 -1.3471 -0.1254 -1.4305
15606SOL     OW58036   4.368   5.980   0.153 -0.0659 -0.1361 -0.0883
15606SOL    HW158037   4.430   5.976   0.074  1.3949 -0.6463  1.0690
15606SOL    HW258038   4.274   5.994   0.121  0.7011  1.1712 -1.8439
15607SOL     OW58039   4.018   3.532   6.013  0.0754 -0.6344  0.7361
15607SOL    HW158040   4.058   3.454   6.060  0.0128 -1.5828 -0.7292
15607SOL    HW258041   4.080   3.562   5.940 -0.0895  0.4133  1.0279
15608SOL     OW58042   9.776   5.799   5.497 -0.1127 -0.5330  0.6474
15608SOL    HW158043   9.800   5.706   5.468  0.3570 -0.6721  1.4854
15608SOL    HW258044   9.751   5.853   5.416  0.0041 -1.2666  0.1122
15609SOL     OW58045   7.337   3.789   5.754 -0.1306 -0.2791  0.6507
15609SOL    HW158046   7.238   3.797   5.763 -0.4295  0.5210 -2.7327
15609SOL    HW258047   7.380   3.808   5.842 -2.9034  0.5953  1.8732
15610SOL     OW58048   0.299   1.218   3.068 -0.2330 -0.0754 -0.6018
15610SOL    HW158049   0.303   1.311   3.105  0.2512 -0.4739  0.3584
15610SOL    HW258050   0.367   1.161   3.114 -2.0107 -1.4589  0.3572
15611SOL     OW58051   0.322   6.565   6.206 -0.1903 -0.5011  0.3126
15611SOL    HW158052   0.255   6.559   6.132  0.9146 -2.6427 -0.5339
15611SOL    HW258053   0.302   6.496   6.276  2.1950 -2.3971 -0.8428
15612SOL     OW58054   6.953   9.245   6.523  0.3406 -0.0196  0.1423
15612SOL    HW158055   6.953   9.146   6.532 -0.5862  0.0254  0.7233
15612SOL    HW258056   6.888   9.273   6.453  0.2616  0.2062  0.3045
15613SOL     OW58057   4.993   5.564   0.643  0.5312  0.4489 -0.0455
15613SOL    HW158058   4.945   5.553   0.557  2.1227  2.1838 -1.1943
15613SOL    HW258059   4.927   5.585   0.716 -0.5095  2.4982 -1.5354
15614SOL     OW58060   3.189   5.930   0.168 -0.4748  0.3965 -0.1254
15614SOL    HW158061   3.260   5.875   0.124  0.7050  0.5625  1.4976
15614SOL    HW258062   3.103   5.920   0.119  0.3834 -0.7781 -1.4170
15615SOL     OW58063   0.363   3.790   1.268 -0.0059 -0.2556 -0.4473
15615SOL    HW158064   0.376   3.820   1.362 -3.5595  0.7579 -0.2068
15615SOL    HW258065   0.295   3.848   1.224 -1.7378 -3.5299 -2.2546
15616SOL     OW58066   1.381   4.169   2.399  0.4290  0.1050  0.1411
15616SOL    HW158067   1.332   4.156   2.313  1.1382 -0.4520 -0.1869
15616SOL    HW258068   1.374   4.264   2.428 -2.4844 -0.3545  1.1090
15617SOL     OW58069   8.565   9.404   3.781 -0.1102 -0.2619  0.3196
15617SOL    HW158070   8.512   9.379   3.699 -0.8532  0.2231  0.6510
15617SOL    HW258071   8.514   9.470   3.835  0.9760  0.4541  0.4920
15618SOL     OW58072   2.903   5.687   4.465  0.3824 -0.4402 -0.5100
15618SOL    HW158073   2.885   5.591   4.446  1.0116 -0.2224 -2.2514
15618SOL    HW258074   2.956   5.695   4.550  0.5748 -1.6342 -0.5135
15619SOL     OW58075   9.798   8.835   5.623  0.3287  0.0025 -0.2537
15619SOL    HW158076   9.824   8.848   5.527  2.0260  0.9350  0.3085
15619SOL    HW258077   9.834   8.910   5.678  1.3179 -1.6837  1.4699
15620SOL     OW58078   2.276   7.794   1.016  0.1118 -0.5884 -0.5083
15620SOL    HW158079   2.328   7.772   1.098  0.7160  0.4844 -0.5887
15620SOL    HW258080   2.261   7.893   1.012  1.5068 -0.4358 -2.5448
15621SOL     OW58081   9.158   9.624   5.847 -0.2872  0.2070 -0.6452
15621SOL    HW158082   9.153   9.664   5.755 -1.8659 -0.0928 -0.7135
15621SOL    HW258083   9.094   9.672   5.907 -0.1421 -0.3823 -0.0160
15622SOL     OW58084   9.302   9.434   0.344  0.3585  0.3312  0.2600
15622SOL    HW158085   9.335   9.342   0.363  0.5941  0.2901 -0.3487
15622SOL    HW258086   9.238   9.433   0.267 -1.4022  0.3548  1.6914
15623SOL     OW58087   9.323   4.888   4.169 -0.0746  0.7810  0.1748
15623SOL    HW158088   9.260   4.964   4.185  0.6834  0.9389  2.7465
15623SOL    HW258089   9.283   4.824   4.104 -1.0572  2.9721 -1.4278
15624SOL     OW58090   3.931   4.346   5.494  0.5028  0.0174  0.0042
15624SOL    HW158091   3.939   4.350   5.594 -1.7711 -3.8082  0.4356
15624SOL    HW258092   3.844   4.386   5.466  0.1499 -0.8603 -0.1894
15625SOL     OW58093   9.569   1.976   6.437 -0.3371 -0.0572 -0.2351
15625SOL    HW158094   9.604   2.070   6.441  0.5175 -0.3188 -1.1372
15625SOL    HW258095   9.489   1.967   6.495  0.1614  0.9863  0.6326
15626SOL     OW58096   4.637   5.782   0.285 -0.3400 -0.5580 -0.4638
15626SOL    HW158097   4.596   5.724   0.214 -2.3769 -0.7577  0.8422
15626SOL    HW258098   4.564   5.827   0.338  1.1629  2.9423 -1.2017
15627SOL     OW58099   0.884   9.247   4.907  0.1871 -0.0887 -0.6883
15627SOL    HW158100   0.873   9.345   4.925  0.7071 -0.1288 -0.1136
15627SOL    HW258101   0.961   9.232   4.846  0.0560 -0.1316 -0.8425
15628SOL     OW58102   6.127   8.436   6.880 -0.3444 -0.3716  0.1960
15628SOL    HW158103   6.034   8.399   6.888 -0.3988 -0.1076  0.8332
15628SOL    HW258104   6.130   8.528   6.920  0.7972 -1.4202  2.6368
15629SOL     OW58105   3.857   3.389   0.034 -0.1054 -0.2362  0.1296
15629SOL    HW158106   3.769   3.416  -0.007  0.0840 -1.6770 -1.2653
15629SOL    HW258107   3.891   3.464   0.092 -1.6512  0.8156 -0.2902
15630SOL     OW58108   9.250   9.207   3.166  0.2239  0.0286  0.4136
15630SOL    HW158109   9.326   9.153   3.205  0.2117  1.3581  2.3498
15630SOL    HW258110   9.286   9.291   3.126  0.2023 -1.2064 -2.3027
15631SOL     OW58111   8.682   1.630   1.259  0.4483  0.2808  0.1657
15631SOL    HW158112   8.680   1.729   1.275 -0.3843  0.1318  0.9647
15631SOL    HW258113   8.757   1.590   1.311  0.5350  0.4302  0.1589
15632SOL     OW58114   3.192   6.839   2.492 -0.2247  0.2287 -0.1985
15632SOL    HW158115   3.129   6.793   2.556 -0.2464 -1.1551 -1.1951
15632SOL    HW258116   3.285   6.837   2.529 -0.4698  0.6862  0.4455
15633SOL     OW58117   0.802   9.163   6.244  0.3636 -0.0653 -0.6126
15633SOL    HW158118   0.715   9.132   6.204 -0.2550  0.2811  0.4531
15633SOL    HW258119   0.874   9.097   6.221 -0.3388 -0.7546 -0.8680
15634SOL     OW58120   3.048   8.167   4.448  0.1433  0.0270  0.0154
15634SOL    HW158121   3.039   8.079   4.495  0.0802  0.5114  0.9144
15634SOL    HW258122   3.144   8.182   4.424  0.2296 -0.0612  0.3074
15635SOL     OW58123   1.847   6.686   5.095 -0.1369  0.5422 -0.2956
15635SOL    HW158124   1.751   6.655   5.099 -0.3404  0.9870 -1.5469
15635SOL    HW258125   1.850   6.780   5.063  0.7673  0.3397 -0.8121
15636SOL     OW58126   4.271   4.877   2.154  0.3978 -0.1241  0.4299
15636SOL    HW158127   4.237   4.971   2.159  2.4441  0.6424  0.8179
15636SOL    HW258128   4.219   4.819   2.216 -0.2549  0.9704  0.9147
15637SOL     OW58129   8.991   4.172   2.957 -0.7265 -0.0143  0.2152
15637SOL    HW158130   9.039   4.140   3.038  0.3374  1.3960  0.1637
15637SOL    HW258131   9.008   4.108   2.881 -0.4387 -0.4982  0.6849
15638SOL     OW58132   9.960   2.965   1.308  0.0196  0.7097  0.3185
15638SOL    HW158133  10.005   3.048   1.341 -1.3475  1.6852 -0.2041
15638SOL    HW258134  10.007   2.932   1.226  2.6273 -0.9844  2.4328
15639SOL     OW58135   6.974   2.684   2.943 -0.7997 -0.5355 -0.5704
15639SOL    HW158136   6.990   2.591   2.974 -0.1668  0.0143  0.8148
15639SOL    HW258137   6.892   2.720   2.987 -1.3428 -0.6001 -1.5024
15640SOL     OW58138   7.852   2.668   1.778  0.0618  0.2461  0.3826
15640SOL    HW158139   7.937   2.632   1.816  0.8199  0.8887 -0.6862
15640SOL    HW258140   7.869   2.756   1.733 -1.4998  1.2590  1.7012
15641SOL     OW58141   7.130   8.197   4.418 -0.1145 -0.1827  0.0191
15641SOL    HW158142   7.165   8.232   4.505  0.2226  1.2326 -0.6603
15641SOL    HW258143   7.045   8.245   4.396 -0.2139 -0.5615 -0.4203
15642SOL     OW58144   2.622   4.810   2.015 -0.4949 -0.2288  0.0327
15642SOL    HW158145   2.563   4.891   2.017 -0.1701 -0.0087  1.9017
15642SOL    HW258146   2.693   4.819   2.085  1.0718 -1.0099 -1.4023
15643SOL     OW58147   0.114   9.168   6.449  0.3738 -0.0298  0.0863
15643SOL    HW158148   0.096   9.246   6.508  1.0875 -0.5150  0.9553
15643SOL    HW258149   0.036   9.105   6.452  0.6871 -0.3752  1.0229
15644SOL     OW58150   4.795   0.241   1.436 -0.5967  0.2448  0.0567
15644SOL    HW158151   4.796   0.279   1.344 -0.7765  0.6590  0.2223
15644SOL    HW258152   4.845   0.302   1.498  1.2759 -1.0392 -0.1539
15645SOL     OW58153   1.592   9.034   3.852  0.2272 -0.3386 -0.4547
15645SOL    HW158154   1.621   9.126   3.825 -1.1535 -0.0049 -0.8365
15645SOL    HW258155   1.648   9.003   3.930  0.7952  0.7594 -0.4159
15646SOL     OW58156   4.770   5.057   7.828  0.1575  0.6919  0.0886
15646SOL    HW158157   4.864   5.090   7.831  0.3751 -0.0298  2.2367
15646SOL    HW258158   4.742   5.027   7.920 -1.7395 -0.2756 -0.7713
15647SOL     OW58159   9.563   2.532   2.683 -0.6354  0.2171  0.0486
15647SOL    HW158160   9.559   2.434   2.705 -1.4446  0.2547  0.0788
15647SOL    HW258161   9.478   2.576   2.711 -1.3363  0.4367 -2.3464
15648SOL     OW58162   9.254   7.219   1.198 -0.0367  0.5848 -0.5365
15648SOL    HW158163   9.185   7.193   1.265  0.7091 -0.5400 -0.1908
15648SOL    HW258164   9.268   7.318   1.201 -0.5983  0.6400  0.3895
15649SOL     OW58165   5.397   2.399   5.006  0.4590 -0.1628 -0.7457
15649SOL    HW158166   5.300   2.412   4.985  0.2618 -1.3448 -0.6122
15649SOL    HW258167   5.424   2.462   5.079 -0.4067 -0.3545 -0.2507
15650SOL     OW58168   0.118   6.527   6.036  0.4684 -0.1064 -0.5085
15650SOL    HW158169   0.034   6.582   6.033  1.0858  0.8216 -1.0686
15650SOL    HW258170   0.096   6.434   6.064 -0.9027 -0.1479 -1.6752
15651SOL     OW58171   9.321   9.467   4.672  0.1279 -0.2254  0.1597
15651SOL    HW158172   9.359   9.375   4.680  1.4430  0.1164 -1.7268
15651SOL    HW258173   9.358   9.525   4.743  1.6280 -0.4134 -0.4458
15652SOL     OW58174   9.339   3.195   4.360  0.7414 -0.5279 -0.2457
15652SOL    HW158175   9.264   3.246   4.399  1.0605 -0.1540 -0.1187
15652SOL    HW258176   9.402   3.166   4.433  2.3148  1.7568 -0.6547
15653SOL     OW58177   3.669   4.773   1.189  0.3267  0.0166  0.0987
15653SOL    HW158178   3.761   4.740   1.172  0.4435  0.9459 -1.1693
15653SOL    HW258179   3.669   4.834   1.268  0.9825  0.7356 -0.4437
15654SOL     OW58180   9.345   9.685   1.912  0.2058  0.1534  0.2251
15654SOL    HW158181   9.309   9.607   1.964 -1.3735  1.8086  1.6791
15654SOL    HW258182   9.330   9.769   1.964  1.3045  1.5131 -1.6181
15655SOL     OW58183   1.448   8.861   1.417  0.5189  0.8998 -0.2889
15655SOL    HW158184   1.504   8.877   1.336  0.5216 -2.6437 -1.0712
15655SOL    HW258185   1.506   8.861   1.498  1.2592 -0.0501 -0.8093
15656SOL     OW58186   4.781   1.923   3.937 -0.0649  0.0574  0.6990
15656SOL    HW158187   4.815   1.969   4.020 -1.4127 -0.0004  1.2938
15656SOL    HW258188   4.700   1.869   3.960  0.5985 -1.3953 -0.3119
15657SOL     OW58189   0.562   8.431   5.717 -0.3090  0.0659 -0.1208
15657SOL    HW158190   0.470   8.470   5.724 -0.5499 -0.3762 -0.7586
15657SOL    HW258191   0.555   8.333   5.702  0.2862 -0.1324  0.8673
15658SOL     OW58192   7.186   7.211   3.000  0.1736 -0.0205 -0.0073
15658SOL    HW158193   7.141   7.142   2.944  0.4634 -0.1842 -0.0357
15658SOL    HW258194   7.284   7.210   2.983  0.3134 -0.3119  0.7520
15659SOL     OW58195   8.025   1.022   3.400  0.4185  0.1146 -0.7563
15659SOL    HW158196   7.968   1.011   3.481  0.8124  2.4483 -0.1139
15659SOL    HW258197   8.005   0.948   3.335  0.3579 -1.9911  1.5819
15660SOL     OW58198   3.932   0.015   6.041  0.2928  0.4662  0.3248
15660SOL    HW158199   3.921   0.106   6.001 -1.5965  0.7371  1.4202
15660SOL    HW258200   3.993   0.020   6.120  1.4096  0.4972 -0.5257
15661SOL     OW58201   7.036   1.907   0.882 -0.0612  0.1113  0.4106
15661SOL    HW158202   7.010   1.811   0.871 -1.2806  0.3647  1.0325
15661SOL    HW258203   6.957   1.965   0.866  0.5948  1.0041  0.3859
15662SOL     OW58204   8.707   7.890   4.080  0.0053  0.1421 -0.3350
15662SOL    HW158205   8.766   7.957   4.036 -0.0184  0.3691 -0.0220
15662SOL    HW258206   8.629   7.871   4.021 -1.1489  2.0551  0.5221
15663SOL     OW58207   3.363   9.948   2.868 -0.3141  0.1647  0.6739
15663SOL    HW158208   3.372  10.046   2.846  1.0942 -0.1398 -0.2295
15663SOL    HW258209   3.312   9.902   2.796 -0.0734  0.0611  0.5663
15664SOL     OW58210   9.596   0.291   6.387  0.5029 -0.2809 -0.4951
15664SOL    HW158211   9.559   0.328   6.472 -1.3064  0.0383 -1.3974
15664SOL    HW258212   9.531   0.227   6.347  2.2940 -2.1436 -0.5144
15665SOL     OW58213   3.240   5.612   1.916  0.5377  0.5244 -0.2989
15665SOL    HW158214   3.167   5.629   1.850  0.5313  1.0191 -0.1639
15665SOL    HW258215   3.207   5.630   2.008  0.3732 -0.7303 -0.1130
15666SOL     OW58216   7.171   7.925   5.144 -0.3310 -0.5235  0.2312
15666SOL    HW158217   7.248   7.982   5.170 -0.3335  0.0663 -0.9925
15666SOL    HW258218   7.116   7.973   5.075 -0.8944 -1.5889 -0.0739
15667SOL     OW58219   1.689   9.794   1.791  0.1131  0.0403  0.2341
15667SOL    HW158220   1.705   9.754   1.701 -1.9093 -0.4264  0.0539
15667SOL    HW258221   1.642   9.882   1.780 -0.0799  0.0110  0.8169
15668SOL     OW58222   0.422   2.657   1.086  0.2282  0.2476 -0.1024
15668SOL    HW158223   0.430   2.691   1.180 -0.7996  2.0078 -0.6366
15668SOL    HW258224   0.498   2.692   1.031  0.2527  0.0735 -0.1790
15669SOL     OW58225   9.409   4.534   4.510  0.0001 -0.0909 -0.1729
15669SOL    HW158226   9.357   4.619   4.498  1.5346  0.9474  0.3454
15669SOL    HW258227   9.433   4.497   4.420  0.7623  0.9523 -0.4145
15670SOL     OW58228   5.133   0.434   4.575  0.2576  0.2870  0.5826
15670SOL    HW158229   5.108   0.494   4.651  1.7799  0.8888  0.6218
15670SOL    HW258230   5.052   0.385   4.543 -0.7719  1.4851  1.3183
15671SOL     OW58231   1.385   1.947   5.837  0.4234  0.2529  0.4651
15671SOL    HW158232   1.307   1.911   5.888  0.8895 -0.8947  0.3914
15671SOL    HW258233   1.385   2.047   5.843 -1.8489  0.3649 -0.7122
15672SOL     OW58234   4.045   6.701   4.071 -0.3864  0.5783 -0.3359
15672SOL    HW158235   3.981   6.724   4.145  0.6853  0.9521  0.4754
15672SOL    HW258236   4.139   6.709   4.104  0.0720 -2.1836 -0.8560
15673SOL     OW58237   8.457   2.729   6.226 -0.1547  0.6193  0.4065
15673SOL    HW158238   8.377   2.671   6.207 -0.5224  0.8050  1.3907
15673SOL    HW258239   8.446   2.817   6.177  0.0086  0.1967 -0.4047
15674SOL     OW58240   9.029   8.981   5.648 -0.2230  0.5411 -0.1204
15674SOL    HW158241   9.095   8.982   5.723 -0.0940 -1.3028 -0.2033
15674SOL    HW258242   9.078   8.976   5.561 -0.4208  1.0552 -0.2636
15675SOL     OW58243   7.398   4.166   3.351  0.4480  0.1859  0.3719
15675SOL    HW158244   7.451   4.153   3.267  0.6467 -0.2284  0.5572
15675SOL    HW258245   7.306   4.197   3.327  0.4416 -0.1121 -0.0132
15676SOL     OW58246   0.020   4.166   3.709  0.7549 -0.3411 -0.0374
15676SOL    HW158247   0.119   4.182   3.707  1.2228 -3.0799 -0.6973
15676SOL    HW258248  -0.011   4.157   3.804  1.1899  0.1414  0.1516
15677SOL     OW58249   3.494   0.078   1.303 -0.3097  0.3477  0.2406
15677SOL    HW158250   3.443   0.059   1.387 -0.4786 -0.7890 -0.1092
15677SOL    HW258251   3.446   0.147   1.249 -0.5827  0.5420  0.7337
15678SOL     OW58252   6.923   0.458   3.653 -0.0807 -0.2450 -0.2001
15678SOL    HW158253   7.016   0.426   3.633  1.1689  2.8372  0.4787
15678SOL    HW258254   6.860   0.420   3.585  2.2002  0.2963 -2.7038
15679SOL     OW58255   2.090   1.928   1.517  0.3021 -0.6707  0.5535
15679SOL    HW158256   2.090   2.026   1.500 -2.6673 -0.5492  1.0258
15679SOL    HW258257   2.126   1.880   1.437 -0.0350  0.7038 -0.4339
15680SOL     OW58258   1.870   5.146   0.699 -0.1752  0.1014  0.2635
15680SOL    HW158259   1.946   5.082   0.689 -0.9445 -0.3905 -3.5277
15680SOL    HW258260   1.887   5.226   0.642 -1.8082  0.6649  0.5527
15681SOL     OW58261   0.089   9.093   5.258 -0.0109 -0.1918 -0.1769
15681SOL    HW158262   0.155   9.162   5.229 -1.0412  1.0217  0.3213
15681SOL    HW258263   0.130   9.002   5.251  1.1318  0.4151 -1.4736
15682SOL     OW58264   3.378   6.998   2.874  0.4644  0.2667  0.3314
15682SOL    HW158265   3.342   7.084   2.911  0.6802  0.0183  1.1239
15682SOL    HW258266   3.441   7.018   2.799 -0.0229  0.7689  0.0462
15683SOL     OW58267   2.280   3.740   1.223 -0.1118  0.1572  0.5968
15683SOL    HW158268   2.352   3.777   1.165 -1.2464 -0.6973 -1.3722
15683SOL    HW258269   2.286   3.783   1.314  0.8111  2.5212 -0.5392
15684SOL     OW58270   3.646   9.183   1.368 -0.2480  0.6647 -0.1479
15684SOL    HW158271   3.692   9.245   1.432 -0.3089 -0.0136  0.5537
15684SOL    HW258272   3.710   9.114   1.335 -0.9359 -0.7226  1.3897
15685SOL     OW58273   5.442   4.301   7.530  0.6181  0.2507  0.1107
15685SOL    HW158274   5.435   4.376   7.596  2.7036 -0.3799  1.1048
15685SOL    HW258275   5.523   4.314   7.473  0.9715 -1.2002  0.2674
15686SOL     OW58276   0.606   6.069   5.598 -0.0249 -0.0279 -0.0973
15686SOL    HW158277   0.553   6.106   5.674 -0.4806 -0.0470 -0.4072
15686SOL    HW258278   0.544   6.032   5.529  0.4059 -1.5294  0.2836
15687SOL     OW58279   8.910   4.767   4.212  0.4256 -0.6510 -0.4813
15687SOL    HW158280   8.941   4.796   4.121  1.1321  0.2782  0.0543
15687SOL    HW258281   8.811   4.751   4.209  0.0275  1.6199 -0.8492
15688SOL     OW58282   4.679   7.178   2.128  0.7346  0.4119  0.2968
15688SOL    HW158283   4.754   7.125   2.169 -0.3115 -1.0331  0.3689
15688SOL    HW258284   4.647   7.131   2.046 -0.1898  0.9595  0.3460
15689SOL     OW58285   2.079   9.757   2.344  0.1149 -0.0760  0.0325
15689SOL    HW158286   2.064   9.852   2.319  0.2027  0.7584  2.9261
15689SOL    HW258287   2.142   9.752   2.422  1.5804 -2.6240 -1.2519
15690SOL     OW58288   7.692   0.991   4.717 -0.5571 -0.3916  0.7532
15690SOL    HW158289   7.593   0.982   4.704 -0.6144  0.7372  0.3576
15690SOL    HW258290   7.721   0.931   4.791 -1.4028 -1.3721  0.2989
15691SOL     OW58291   9.046   9.158   3.464 -0.2367 -0.6291 -0.3441
15691SOL    HW158292   8.999   9.109   3.391  0.9189  0.1696 -1.6547
15691SOL    HW258293   9.136   9.118   3.479 -0.4953 -0.8374  0.7099
15692SOL     OW58294   9.507   8.697   5.174  0.2310  0.6514  0.0789
15692SOL    HW158295   9.520   8.620   5.236 -1.9001 -0.8119 -1.2666
15692SOL    HW258296   9.417   8.738   5.189  0.1019  0.9142 -1.3516
15693SOL     OW58297   5.828   1.189   3.553  0.5836 -0.2886  0.3104
15693SOL    HW158298   5.820   1.245   3.636  0.8974 -0.6487  0.5826
15693SOL    HW258299   5.747   1.203   3.496  1.1407  1.2590 -0.1253
15694SOL     OW58300   6.701   0.642   1.113  0.1681 -0.1422  0.5504
15694SOL    HW158301   6.665   0.604   1.198  0.7572  0.0315  0.8823
15694SOL    HW258302   6.791   0.682   1.130 -0.0646  0.6303  0.0209
15695SOL     OW58303   8.399   7.886   2.982  0.0098 -0.1934 -0.4217
15695SOL    HW158304   8.359   7.969   2.942 -0.8559 -0.1871  0.4382
15695SOL    HW258305   8.489   7.908   3.019  0.2369  0.1138 -1.1329
15696SOL     OW58306   3.145   1.559   1.711 -0.2554 -0.3910  0.2883
15696SOL    HW158307   3.149   1.466   1.673 -0.2432 -0.1944 -0.2014
15696SOL    HW258308   3.179   1.623   1.643  2.8866 -0.3691  1.8223
15697SOL     OW58309   9.634   0.974   0.608  0.3184 -0.1429  0.5519
15697SOL    HW158310   9.606   0.987   0.513  1.4119  0.3834  0.2966
15697SOL    HW258311   9.689   0.890   0.615  0.4241 -0.0633  0.6736
15698SOL     OW58312   6.663   1.207   1.068 -0.0749  0.2655  0.8209
15698SOL    HW158313   6.587   1.263   1.036  0.1160  0.3626  0.5308
15698SOL    HW258314   6.672   1.216   1.167 -0.6603 -0.0268  0.8988
15699SOL     OW58315   5.290   3.860   1.247 -0.1836 -0.4190 -0.2023
15699SOL    HW158316   5.359   3.907   1.191 -0.0421  0.5336  0.7482
15699SOL    HW258317   5.321   3.857   1.342 -1.3906 -0.1082  0.2120
15700SOL     OW58318   9.803   0.703   4.314  0.2994  0.0500  0.1506
15700SOL    HW158319   9.709   0.735   4.297  0.2155 -1.4231 -2.3764
15700SOL    HW258320   9.837   0.655   4.233  2.6390 -0.8974  1.6541
15701SOL     OW58321   3.409   1.448   0.734  0.2575  0.2791 -0.0851
15701SOL    HW158322   3.504   1.432   0.761 -0.2540 -0.1521  1.4991
15701SOL    HW258323   3.393   1.408   0.644  2.1787  2.3477 -1.4097
15702SOL     OW58324   9.803   9.973   3.385 -0.1448 -0.5302  0.3207
15702SOL    HW158325   9.898   9.956   3.359  0.5820  3.8731 -0.3344
15702SOL    HW258326   9.797   9.984   3.485  0.5748  1.6750  0.1617
15703SOL     OW58327   4.387   3.864   2.015 -0.0019 -1.1349 -0.2813
15703SOL    HW158328   4.297   3.905   1.999  0.2377 -0.9651 -1.2255
15703SOL    HW258329   4.389   3.771   1.978  0.5887 -0.7059 -1.3483
15704SOL     OW58330   4.518   8.248   3.797 -0.2286  0.0659 -0.0672
15704SOL    HW158331   4.497   8.320   3.731 -1.1794 -0.8192 -0.7496
15704SOL    HW258332   4.549   8.289   3.883 -0.0382  1.2559 -0.6948
15705SOL     OW58333   3.219   3.332   0.084  0.4031 -0.0345 -0.5899
15705SOL    HW158334   3.133   3.382   0.078 -0.2399 -0.9924  0.4281
15705SOL    HW258335   3.200   3.233   0.086  1.4341 -0.2262  0.8839
15706SOL     OW58336   0.359   6.805   2.364 -0.0759  0.0258  0.0757
15706SOL    HW158337   0.356   6.904   2.381  0.6793  0.1971 -0.7787
15706SOL    HW258338   0.370   6.757   2.451 -0.7390  0.6798  0.5258
15707SOL     OW58339   6.218   9.967   6.527 -0.1493  0.4060  0.1098
15707SOL    HW158340   6.275   9.885   6.529  0.4494  0.8089 -0.3250
15707SOL    HW258341   6.230  10.014   6.439  0.1997  1.4477  0.7088
15708SOL     OW58342   5.796   9.954   2.353  0.4298  0.0906 -0.2902
15708SOL    HW158343   5.747   9.987   2.434  1.0162 -0.3862  0.2641
15708SOL    HW258344   5.733   9.902   2.295  0.6755 -2.0774  1.3140
15709SOL     OW58345   4.710   0.704   5.451  0.4714  0.2175 -0.0435
15709SOL    HW158346   4.631   0.643   5.452  1.3270 -0.9030  1.1086
15709SOL    HW258347   4.757   0.696   5.363 -0.4709  0.6224 -0.5991
15710SOL     OW58348   9.656   1.290   4.536 -0.4670 -0.2905 -0.0986
15710SOL    HW158349   9.728   1.322   4.598 -0.7882  1.9533 -0.8410
15710SOL    HW258350   9.689   1.211   4.484  0.7610 -0.4900  0.9632
15711SOL     OW58351   0.938   0.043   3.719  0.0541  0.0036  0.0542
15711SOL    HW158352   1.001   0.111   3.682 -1.0479  1.3591  0.6180
15711SOL    HW258353   0.954   0.033   3.817 -0.4456  0.1707  0.1538
15712SOL     OW58354   6.675   9.983   4.240  0.1179  0.7010  0.2179
15712SOL    HW158355   6.704  10.023   4.327  0.1543  1.7512 -0.2662
15712SOL    HW258356   6.584   9.943   4.251  0.5255 -0.0226  0.9866
15713SOL     OW58357   0.159   4.363   4.973  0.1905  0.0043  0.4712
15713SOL    HW158358   0.121   4.330   5.060 -0.6450 -0.5509 -0.0977
15713SOL    HW258359   0.157   4.463   4.972 -2.4928 -0.0320 -0.0753
15714SOL     OW58360   8.984   6.494   1.703 -0.2664 -0.6106 -0.2168
15714SOL    HW158361   8.915   6.547   1.654  0.5069 -1.3118 -2.1079
15714SOL    HW258362   9.067   6.549   1.715 -0.6218 -0.2792  0.7183
15715SOL     OW58363   0.463   8.978   0.799 -0.1963  0.0980 -0.7289
15715SOL    HW158364   0.426   9.071   0.800 -0.1025  0.1528  1.4466
15715SOL    HW258365   0.419   8.924   0.871 -0.8907 -1.8161 -2.5620
15716SOL     OW58366   5.292   3.043   4.787  0.2004  0.5294 -0.1800
15716SOL    HW158367   5.322   2.980   4.715  0.9051 -0.2937  0.8103
15716SOL    HW258368   5.357   3.039   4.864 -1.2886  0.3283  1.0941
15717SOL     OW58369   9.818   2.205   1.168  0.1354  0.4150  0.2670
15717SOL    HW158370   9.725   2.174   1.145  0.8942 -0.3945 -1.7958
15717SOL    HW258371   9.826   2.303   1.150 -0.7151  0.7591  1.7384
15718SOL     OW58372   6.278   9.392   3.568 -0.5433  0.1328 -0.1482
15718SOL    HW158373   6.372   9.369   3.590 -1.0102 -1.4930  0.2174
15718SOL    HW258374   6.274   9.435   3.478  0.5063 -0.0426 -0.2825
15719SOL     OW58375   5.875   7.554   5.325  0.0098 -0.0404  0.1094
15719SOL    HW158376   5.787   7.602   5.336  0.2324  0.0061  1.7539
15719SOL    HW258377   5.950   7.617   5.347  0.3905 -0.5276  0.2003
15720SOL     OW58378   4.255   8.202   6.276  0.2749 -0.3590  0.3804
15720SOL    HW158379   4.282   8.174   6.368 -0.4708  0.3510  0.8169
15720SOL    HW258380   4.295   8.139   6.210 -0.4606 -1.7985  1.2796
15721SOL     OW58381   3.107   9.662   4.977 -0.3339 -0.5811  0.9108
15721SOL    HW158382   3.126   9.579   4.924  1.5477 -0.1483  0.8750
15721SOL    HW258383   3.130   9.742   4.922 -0.5450 -0.0622  1.5703
15722SOL     OW58384   3.627   0.342   1.759  0.4979 -0.0892  0.0129
15722SOL    HW158385   3.589   0.383   1.676 -0.7766  0.6099  0.9017
15722SOL    HW258386   3.556   0.286   1.803  0.7210  0.5884  1.2844
15723SOL     OW58387   8.586   9.190   5.707  0.6588  0.2890 -0.7727
15723SOL    HW158388   8.508   9.139   5.743  1.3026  0.1023  0.3736
15723SOL    HW258389   8.617   9.147   5.622  0.3811 -0.4555 -0.5050
15724SOL     OW58390   5.259   5.482   0.592  0.2739  0.4153 -0.0242
15724SOL    HW158391   5.331   5.519   0.651  1.2298 -2.0372  0.4532
15724SOL    HW258392   5.171   5.523   0.615  1.3736  2.8696 -0.0610
15725SOL     OW58393   1.613   8.253   2.120 -0.6393 -0.0689  0.0750
15725SOL    HW158394   1.677   8.330   2.112 -0.0389 -0.5298  0.3641
15725SOL    HW258395   1.629   8.206   2.207 -0.7629 -0.7358 -0.2654
15726SOL     OW58396   0.107   2.817   1.087  0.7740  0.5224  0.6328
15726SOL    HW158397   0.063   2.757   1.153 -1.2694  0.7396 -0.4688
15726SOL    HW258398   0.137   2.763   1.008  1.1364  0.5855  0.7297
15727SOL     OW58399   0.720   8.347   0.423 -0.1648 -0.1191 -0.0572
15727SOL    HW158400   0.657   8.280   0.384 -0.9382  0.0572  0.8739
15727SOL    HW258401   0.792   8.299   0.474 -1.3062 -0.2279  1.4895
15728SOL     OW58402   2.442   3.869   3.922  0.1507 -0.1584  0.1290
15728SOL    HW158403   2.470   3.965   3.923  0.2032 -0.1727  0.0534
15728SOL    HW258404   2.448   3.831   4.014  2.7877 -0.8562 -0.2981
15729SOL     OW58405   8.357   5.872   5.741 -0.0680 -0.2865  0.1664
15729SOL    HW158406   8.391   5.951   5.791 -0.7926  0.5325 -0.6272
15729SOL    HW258407   8.265   5.890   5.706  0.6970 -0.5390 -2.0913
15730SOL     OW58408   9.003   9.186   0.040  0.3679  0.5383 -0.2033
15730SOL    HW158409   8.991   9.208  -0.057 -3.8171  1.1998  0.3710
15730SOL    HW258410   8.976   9.091   0.056 -0.1257  0.7976  0.5039
15731SOL     OW58411   8.340   4.674   1.010  0.1629  0.2723 -0.3742
15731SOL    HW158412   8.339   4.681   0.910  0.3315  0.7920 -0.3398
15731SOL    HW258413   8.431   4.697   1.044  0.5875 -1.5710 -0.2185
15732SOL     OW58414   7.327   0.962   6.145  0.0103  0.2340 -0.3262
15732SOL    HW158415   7.377   0.953   6.231  1.1425  1.5830 -0.8216
15732SOL    HW258416   7.333   0.876   6.094  1.2153  0.1282 -0.0361
15733SOL     OW58417   3.888   0.304   3.225 -0.7882  0.1294  0.1959
15733SOL    HW158418   3.868   0.271   3.317 -0.3551 -2.0979 -0.4595
15733SOL    HW258419   3.926   0.228   3.171 -2.5417  0.9753 -2.2839
15734SOL     OW58420   3.144   8.618   4.477  0.4801  0.2831 -0.5273
15734SOL    HW158421   3.076   8.549   4.501  2.8158 -1.4002  1.4771
15734SOL    HW258422   3.149   8.627   4.378 -0.7421 -1.5134 -0.7796
15735SOL     OW58423   7.559   9.871   5.067 -0.2252 -0.0999  0.1316
15735SOL    HW158424   7.649   9.833   5.087  1.2241  3.4069  0.4889
15735SOL    HW258425   7.500   9.858   5.147  0.8883  0.2409  1.0250
15736SOL     OW58426   8.082   3.668   6.339 -0.6142  0.0838  0.3381
15736SOL    HW158427   8.075   3.766   6.358 -0.8745 -0.1119  1.2481
15736SOL    HW258428   7.991   3.627   6.340 -0.4213 -0.3338  0.8381
15737SOL     OW58429   8.920   6.000   5.541  0.4907 -0.6312 -0.6585
15737SOL    HW158430   8.833   6.032   5.579  0.8141 -1.3052  0.6877
15737SOL    HW258431   8.949   6.062   5.468  0.3710  1.3066  0.9071
15738SOL     OW58432   1.197   6.007   0.905  0.0943 -0.1066  0.5276
15738SOL    HW158433   1.241   6.068   0.839  0.5528  0.5962  1.4617
15738SOL    HW258434   1.101   5.996   0.883  0.2680  0.0461 -0.3095
15739SOL     OW58435   9.517   2.217   2.172 -0.6747  0.4324  0.2113
15739SOL    HW158436   9.470   2.188   2.089 -1.9834 -0.5612  1.2549
15739SOL    HW258437   9.585   2.286   2.150 -0.9463  0.1272 -1.6862
15740SOL     OW58438   7.767   2.706   2.032 -0.0001 -0.2579  0.2260
15740SOL    HW158439   7.816   2.783   2.073 -0.4312  0.3479 -0.3960
15740SOL    HW258440   7.798   2.693   1.938  0.8329 -1.5136  0.6605
15741SOL     OW58441   7.777   4.656   1.982 -0.1313 -0.2700  0.4302
15741SOL    HW158442   7.871   4.672   2.011  0.1488 -0.3058 -0.4486
15741SOL    HW258443   7.758   4.558   1.985 -0.4859 -0.1767  1.6380
15742SOL     OW58444   1.599   2.365   2.558 -0.2147 -0.5725 -0.0430
15742SOL    HW158445   1.680   2.308   2.550 -0.7200 -1.2347 -0.4802
15742SOL    HW258446   1.534   2.342   2.486 -1.7129 -1.5706  1.5662
15743SOL     OW58447   2.937   5.077   3.622  0.0940  0.5029  0.4098
15743SOL    HW158448   2.952   4.981   3.599  1.8217  0.3702  1.9917
15743SOL    HW258449   3.024   5.126   3.619 -0.6486  1.8560  0.4500
15744SOL     OW58450   1.648   7.922   5.413  0.1913  0.5439 -0.7734
15744SOL    HW158451   1.683   8.007   5.375 -1.0105  1.2338 -0.3665
15744SOL    HW258452   1.552   7.934   5.439 -0.3278 -1.2575 -1.7459
15745SOL     OW58453   8.497   2.845   2.588 -0.1744  0.0841  0.0677
15745SOL    HW158454   8.500   2.833   2.488 -0.8779 -0.5738  0.1285
15745SOL    HW258455   8.403   2.838   2.620  0.2681 -1.8285  1.0375
15746SOL     OW58456   2.351   4.051   0.679 -0.0941  0.3946 -0.5671
15746SOL    HW158457   2.317   4.049   0.585 -0.3416  2.9729 -0.5610
15746SOL    HW258458   2.275   4.068   0.742  0.0684 -1.3273  0.1261
15747SOL     OW58459   9.301   9.029   3.763 -0.4032  0.4145 -0.5789
15747SOL    HW158460   9.339   9.104   3.709 -2.3526 -0.3082 -3.0591
15747SOL    HW258461   9.375   8.973   3.800  1.0029  0.6730 -2.9000
15748SOL     OW58462   9.149   6.132   1.597  0.5962 -0.4185 -0.3271
15748SOL    HW158463   9.205   6.189   1.658 -0.8132  1.6791 -0.9597
15748SOL    HW258464   9.059   6.174   1.585 -0.4843 -2.7947 -0.8295
15749SOL     OW58465   8.240   6.582   0.455  0.4827  0.0879  0.8231
15749SOL    HW158466   8.184   6.501   0.474 -1.0375  0.9596  0.1192
15749SOL    HW258467   8.307   6.561   0.384 -0.8643 -0.1455 -0.3812
15750SOL     OW58468   1.132   0.506   0.843 -0.0687 -0.1211 -0.2278
15750SOL    HW158469   1.185   0.477   0.764  1.0559  1.0387  0.0906
15750SOL    HW258470   1.183   0.576   0.894 -1.3852  0.1532  0.7375
15751SOL     OW58471   4.061   4.267   2.656 -0.1567  0.1243  0.0499
15751SOL    HW158472   4.037   4.236   2.748 -1.9512 -2.1947 -1.1399
15751SOL    HW258473   4.119   4.198   2.613 -0.4777  0.5368 -1.0511
15752SOL     OW58474   4.220   4.134   7.625  0.4291  0.1553 -0.3675
15752SOL    HW158475   4.216   4.177   7.535  1.6555 -1.1180 -1.0581
15752SOL    HW258476   4.151   4.061   7.629 -0.2089  0.7734  0.0443
15753SOL     OW58477   1.725   6.953   5.487 -1.2148  0.6878  0.0032
15753SOL    HW158478   1.655   6.890   5.452  0.0521 -1.2786  0.9353
15753SOL    HW258479   1.796   6.901   5.534  0.5512  2.7136 -0.3549
15754SOL     OW58480   5.163   9.289   6.024 -0.2147  0.6508 -0.1168
15754SOL    HW158481   5.162   9.312   6.121 -0.6973  1.0830 -0.2216
15754SOL    HW258482   5.092   9.220   6.006 -0.7369  1.2291 -0.3143
15755SOL     OW58483   5.850   7.589   4.948 -0.0059  0.0405 -0.0982
15755SOL    HW158484   5.887   7.575   4.857 -0.8635  2.3208 -0.8434
15755SOL    HW258485   5.888   7.521   5.011  3.8185  0.9948 -1.2459
15756SOL     OW58486   3.544   5.248   3.103  0.7033  0.2070  0.2150
15756SOL    HW158487   3.577   5.164   3.061 -1.5020 -1.2319  1.2444
15756SOL    HW258488   3.474   5.289   3.045  0.9096  0.6785  0.2983
15757SOL     OW58489   7.024   0.346   1.392  0.2229  0.5951 -0.2760
15757SOL    HW158490   6.991   0.380   1.304  2.4679  1.2532 -0.9180
15757SOL    HW258491   6.966   0.381   1.466 -2.0725 -0.5071 -1.5204
15758SOL     OW58492   4.606   0.604   4.536 -0.0195  0.2701 -0.4337
15758SOL    HW158493   4.580   0.602   4.633  0.5619  2.8713 -0.1637
15758SOL    HW258494   4.691   0.657   4.527  0.6468 -1.0949 -2.2206
15759SOL     OW58495   0.168   4.769   5.269 -0.2793 -0.4029  0.2296
15759SOL    HW158496   0.119   4.855   5.266 -1.5668 -1.1604 -0.5970
15759SOL    HW258497   0.265   4.785   5.251 -0.5241  0.8510  0.0230
15760SOL     OW58498   9.296   6.547   4.844 -0.2615  0.0927  0.5548
15760SOL    HW158499   9.376   6.599   4.815  0.4319 -1.1081  0.2338
15760SOL    HW258500   9.272   6.482   4.772  0.0539 -1.3217  1.6987
15761SOL     OW58501   7.928   3.625   2.289  0.3487 -0.0409  0.2132
15761SOL    HW158502   7.945   3.527   2.277  1.1247  0.2081 -0.8182
15761SOL    HW258503   7.895   3.664   2.203 -0.2964  0.5404  0.7191
15762SOL     OW58504   3.456   6.453   0.327 -0.1673  0.6029  0.3769
15762SOL    HW158505   3.477   6.551   0.328  1.5828  0.2388  0.5143
15762SOL    HW258506   3.506   6.408   0.401 -0.3031 -0.5239 -0.2122
15763SOL     OW58507   9.655   2.763   3.595  0.3318  0.3350  0.4572
15763SOL    HW158508   9.614   2.697   3.658  3.5581 -1.8471  0.3851
15763SOL    HW258509   9.724   2.817   3.645  2.0961 -0.6243 -0.9064
15764SOL     OW58510   4.425   6.216   3.107 -0.0296 -0.2065 -0.4483
15764SOL    HW158511   4.379   6.302   3.089 -0.5086 -0.0379  1.4204
15764SOL    HW258512   4.385   6.174   3.189  2.5089 -0.4901  0.6946
15765SOL     OW58513   0.719   6.152   2.286  0.2781 -0.0541 -0.5205
15765SOL    HW158514   0.759   6.233   2.243  0.3497  1.7366  2.7168
15765SOL    HW258515   0.633   6.178   2.331  0.3248 -1.7647  0.5746
15766SOL     OW58516   4.112   1.193   0.486  0.1054 -0.0343 -0.4444
15766SOL    HW158517   4.040   1.219   0.422  0.7285  0.3827 -0.9874
15766SOL    HW258518   4.186   1.261   0.481  1.5382 -1.6402 -1.5352
15767SOL     OW58519   0.711   2.356   2.570 -0.4076 -0.0849 -0.5388
15767SOL    HW158520   0.757   2.278   2.613 -1.3226 -1.4667 -2.0097
15767SOL    HW258521   0.777   2.429   2.555  0.2038 -0.0590  2.0150
15768SOL     OW58522   4.534   7.696   5.725  0.0436  0.1393 -0.2562
15768SOL    HW158523   4.618   7.750   5.727  0.3792 -0.4059  1.4161
15768SOL    HW258524   4.458   7.752   5.757  0.2823 -0.1941  0.9019
15769SOL     OW58525   8.503   9.681   6.313 -0.3651  0.4089 -0.1472
15769SOL    HW158526   8.527   9.749   6.244 -1.1685  0.1017 -0.7372
15769SOL    HW258527   8.405   9.662   6.309 -0.1381 -0.8411 -0.0477
15770SOL     OW58528   2.147   1.145   4.286 -0.7413 -0.2737 -0.1058
15770SOL    HW158529   2.183   1.083   4.355 -1.0074  0.0605  0.3304
15770SOL    HW258530   2.139   1.237   4.324 -1.5964 -0.2414 -0.3413
15771SOL     OW58531   6.969   2.281   7.822 -0.0612  0.2831 -0.2909
15771SOL    HW158532   6.901   2.222   7.777  0.2846  0.4384 -1.0296
15771SOL    HW258533   6.924   2.365   7.853 -0.3594  0.0575 -0.1150
15772SOL     OW58534   3.779   1.411   4.957  0.0642  0.2474 -0.1354
15772SOL    HW158535   3.870   1.454   4.953  0.5483 -0.7386  0.1437
15772SOL    HW258536   3.776   1.335   4.892 -0.1777 -0.4656  0.7157
15773SOL     OW58537   4.171   6.152   2.655 -0.6391 -0.6690 -0.2253
15773SOL    HW158538   4.251   6.105   2.617 -1.1964 -2.3633  0.6157
15773SOL    HW258539   4.123   6.201   2.582  0.8087 -0.1538 -0.8504
15774SOL     OW58540   3.018   5.534   8.167 -0.2581 -0.9721 -0.0020
15774SOL    HW158541   3.008   5.451   8.113 -0.8866 -1.0593  0.2418
15774SOL    HW258542   3.089   5.521   8.237  0.4587 -0.9058 -0.7050
15775SOL     OW58543   7.902   1.210   4.171  1.0439 -0.7361 -0.3403
15775SOL    HW158544   7.917   1.219   4.269 -1.0280 -0.6346 -0.0118
15775SOL    HW258545   7.887   1.301   4.132 -1.4611 -1.0490 -0.1673
15776SOL     OW58546   5.672   4.309   1.348  0.3268  0.1839  0.1252
15776SOL    HW158547   5.684   4.286   1.252 -0.4008 -0.3996  0.1637
15776SOL    HW258548   5.747   4.270   1.402  1.0848  1.0669 -0.2869
15777SOL     OW58549   1.639   6.345   2.622 -0.1448  0.0162 -0.3733
15777SOL    HW158550   1.724   6.329   2.572 -0.6675 -3.0718 -0.3582
15777SOL    HW258551   1.566   6.291   2.581 -0.9079 -1.4986  2.8360
15778SOL     OW58552   4.427   8.236   4.172  0.0232 -0.1092 -0.0895
15778SOL    HW158553   4.391   8.278   4.256  1.3199 -1.1984  1.0458
15778SOL    HW258554   4.376   8.153   4.151  0.4778 -0.5056  0.3361
15779SOL     OW58555   1.435   1.684   0.227  0.8632  0.2201 -0.4454
15779SOL    HW158556   1.483   1.756   0.176  1.2238  0.3230  0.0323
15779SOL    HW258557   1.344   1.671   0.189  0.8043  0.9172 -0.5506
15780SOL     OW58558   4.913   5.827   8.141 -0.3015 -0.4585 -0.0891
15780SOL    HW158559   4.867   5.740   8.163  0.6270 -1.0882 -0.6257
15780SOL    HW258560   5.012   5.813   8.139 -0.0957  0.8409  0.7872
15781SOL     OW58561   2.432   3.969   5.678 -0.1094 -0.1230  0.2135
15781SOL    HW158562   2.419   4.023   5.595 -0.7594 -0.5344  0.0453
15781SOL    HW258563   2.372   3.889   5.676 -0.5553  0.1633  1.3375
15782SOL     OW58564   1.075   3.972   0.875  0.4170  0.3705 -0.1295
15782SOL    HW158565   0.994   3.973   0.816  0.6200 -0.6932 -0.4316
15782SOL    HW258566   1.157   3.960   0.820  0.6549 -0.0803  0.3092
15783SOL     OW58567   9.765   5.245   1.721 -0.1314 -0.0586 -0.3634
15783SOL    HW158568   9.699   5.229   1.648  0.5655 -0.4916 -0.8946
15783SOL    HW258569   9.716   5.259   1.807 -0.9879  1.1733 -1.0333
15784SOL     OW58570   7.073   2.363   8.132 -0.1108 -0.6631  0.1975
15784SOL    HW158571   7.009   2.288   8.117  0.9838 -1.7043  0.6591
15784SOL    HW258572   7.155   2.348   8.078 -0.0817  0.4609 -0.0835
15785SOL     OW58573   2.389   8.847   0.493  0.6979  0.3750  0.1460
15785SOL    HW158574   2.354   8.941   0.498 -2.5503 -0.7010 -0.8961
15785SOL    HW258575   2.388   8.817   0.397  2.6540 -0.4243  0.3506
15786SOL     OW58576   9.851   0.086   1.841  0.4687 -0.0855  0.2458
15786SOL    HW158577   9.796   0.161   1.878  1.3449  0.8428 -0.3420
15786SOL    HW258578   9.820   0.065   1.748  0.7896  0.1201  0.0922
15787SOL     OW58579   7.911   4.333   4.006  0.4241  0.2014 -0.6039
15787SOL    HW158580   8.002   4.315   4.044 -0.5480 -1.0507  1.2042
15787SOL    HW258581   7.881   4.425   4.033 -0.5184 -0.9038  2.2848
15788SOL     OW58582   1.812   8.248   1.015  0.4600 -0.1936  0.2077
15788SOL    HW158583   1.846   8.328   1.064  0.6864 -1.4751  2.2291
15788SOL    HW258584   1.712   8.244   1.023  0.4237  0.0430 -0.1346
15789SOL     OW58585   3.696   1.669   3.530  0.0266 -0.1153 -0.1994
15789SOL    HW158586   3.672   1.651   3.435 -1.6823 -1.0030  0.3967
15789SOL    HW258587   3.788   1.634   3.548  0.2574 -0.1797 -1.4416
15790SOL     OW58588   9.017   2.160   0.729  0.3222  0.1801  0.2236
15790SOL    HW158589   9.043   2.239   0.784  1.8481  1.1984 -1.9241
15790SOL    HW258590   9.075   2.155   0.648 -1.1734 -1.9311 -0.7504
15791SOL     OW58591   0.530   7.775   1.093 -0.0454  0.1321  0.0573
15791SOL    HW158592   0.584   7.708   1.041 -0.1892 -0.7044  0.9616
15791SOL    HW258593   0.589   7.852   1.118  0.3793 -0.1235 -0.1471
15792SOL     OW58594   8.350   0.436   2.728 -0.0399  0.3274 -0.2056
15792SOL    HW158595   8.298   0.498   2.669  0.3149  1.2933  0.4843
15792SOL    HW258596   8.442   0.424   2.690  0.1469  0.8473  0.0773
15793SOL     OW58597   7.812   1.086   2.287 -0.2725  0.4475  0.0848
15793SOL    HW158598   7.865   1.147   2.229  1.0154 -1.2164 -0.5522
15793SOL    HW258599   7.740   1.042   2.232  0.5094 -0.6103 -0.1082
15794SOL     OW58600   4.129   9.195   6.231 -0.0100 -0.1577  0.0688
15794SOL    HW158601   4.144   9.099   6.206 -0.0028 -0.1032 -0.1383
15794SOL    HW258602   4.044   9.203   6.283 -2.2640  0.2854 -3.4707
15795SOL     OW58603   2.885   4.094   4.830 -0.2503 -0.1100 -0.1415
15795SOL    HW158604   2.939   4.169   4.870  0.0462 -0.5174  0.2264
15795SOL    HW258605   2.858   4.031   4.903 -1.0613 -0.0097 -0.3562
15796SOL     OW58606   2.934   5.880   3.701 -0.3805  0.1441 -0.1584
15796SOL    HW158607   2.992   5.806   3.665 -0.9714 -0.1250 -0.5602
15796SOL    HW258608   2.962   5.966   3.659  0.2425  0.1381  0.2319
15797SOL     OW58609   6.293   1.426   5.296 -0.0539 -0.2804  0.4479
15797SOL    HW158610   6.288   1.518   5.336 -0.5420 -0.2252  0.2643
15797SOL    HW258611   6.388   1.396   5.293  0.2201  0.6853 -0.5616
15798SOL     OW58612   6.393   3.920   0.622  0.2549 -0.4501  0.3177
15798SOL    HW158613   6.345   3.994   0.670  0.1289 -0.9165  0.9213
15798SOL    HW258614   6.343   3.897   0.538  0.5776  0.4949 -0.1370
15799SOL     OW58615   1.528   6.622   1.621  0.0710 -0.7724 -0.5552
15799SOL    HW158616   1.479   6.580   1.545  0.4815 -0.4701 -0.9950
15799SOL    HW258617   1.557   6.552   1.685 -1.5213 -0.8920  0.0624
15800SOL     OW58618   2.146   2.157   4.714 -0.3588 -0.2847  0.2711
15800SOL    HW158619   2.227   2.111   4.679 -1.4326 -2.4601  0.5886
15800SOL    HW258620   2.103   2.210   4.641 -0.1615 -1.2857 -0.5689
15801SOL     OW58621   2.092   0.415   2.072 -0.1087  0.0343  0.3299
15801SOL    HW158622   2.071   0.317   2.076  0.0897 -0.0129  0.2368
15801SOL    HW258623   2.159   0.431   1.999 -1.4408  0.4664 -0.8251
15802SOL     OW58624   3.998   1.674   0.895 -0.1923  0.1167 -0.7515
15802SOL    HW158625   3.907   1.684   0.936  0.0557 -2.7389  0.6200
15802SOL    HW258626   4.067   1.703   0.960 -0.0762  2.0146 -1.6916
15803SOL     OW58627   9.327   7.555   2.867 -0.0353 -0.6165  0.4250
15803SOL    HW158628   9.282   7.485   2.811  1.9030 -1.3495 -0.2565
15803SOL    HW258629   9.365   7.512   2.949  0.1676 -0.1561  0.5730
15804SOL     OW58630   2.603   5.893   2.452 -0.6316  0.4433 -0.4235
15804SOL    HW158631   2.633   5.805   2.491  0.0336  0.8569  0.0148
15804SOL    HW258632   2.683   5.949   2.432 -0.9303 -0.0020 -3.0122
15805SOL     OW58633   8.497   1.361   3.652  0.0447  0.6284  0.6022
15805SOL    HW158634   8.435   1.439   3.664 -0.6671 -0.3048  3.2938
15805SOL    HW258635   8.591   1.394   3.643 -0.5267  1.9178 -0.8491
15806SOL     OW58636   9.184   5.602   5.924  0.3506 -0.2542 -0.2406
15806SOL    HW158637   9.148   5.514   5.894 -1.0977  0.9913 -2.2796
15806SOL    HW258638   9.109   5.665   5.942  1.3824  0.9516 -0.0548
15807SOL     OW58639   9.497   7.724   3.193 -0.1494 -0.5383  0.2840
15807SOL    HW158640   9.552   7.714   3.110  0.4894 -0.2684  0.6651
15807SOL    HW258641   9.403   7.696   3.175 -0.2588  0.4825 -0.8098
15808SOL     OW58642   1.906   1.667   3.648 -0.1531  0.2840 -0.1181
15808SOL    HW158643   1.906   1.706   3.556  0.6096  1.2562  0.2885
15808SOL    HW258644   1.853   1.726   3.709  0.4288  0.3304  0.3493
15809SOL     OW58645   8.346   3.477   1.043  0.1548 -0.2362  0.8599
15809SOL    HW158646   8.383   3.418   0.972 -0.2508  1.2553 -0.6177
15809SOL    HW258647   8.353   3.572   1.014  1.3314  0.5110  3.4503
15810SOL     OW58648   3.814   6.192   2.054  0.1307 -0.5550 -0.6137
15810SOL    HW158649   3.849   6.110   2.100  0.2835 -0.5910 -0.7971
15810SOL    HW258650   3.890   6.247   2.020  0.1355  0.9801  1.7778
15811SOL     OW58651   7.765   1.871   0.652  0.0395  0.1548 -0.5029
15811SOL    HW158652   7.690   1.938   0.658  0.2976  0.4014  0.0209
15811SOL    HW258653   7.726   1.779   0.654 -0.2686  0.2824 -0.4071
15812SOL     OW58654   0.683   7.827   0.266 -0.0902  0.1324  0.2586
15812SOL    HW158655   0.765   7.883   0.264  0.1672 -0.1933  1.7547
15812SOL    HW258656   0.620   7.860   0.336 -0.3559 -0.8463  0.4983
15813SOL     OW58657   5.920   0.600   1.994  0.4476 -0.3749 -0.7137
15813SOL    HW158658   5.925   0.546   2.077  2.6839 -1.3097 -1.4419
15813SOL    HW258659   5.824   0.623   1.975 -0.0450  0.2327  2.3213
15814SOL     OW58660   9.513   8.662   0.641  0.0954 -0.3691  0.1126
15814SOL    HW158661   9.516   8.680   0.543  0.7573 -0.7518  0.0553
15814SOL    HW258662   9.596   8.612   0.668 -1.0239 -2.0479  0.5062
15815SOL     OW58663   0.510   3.782   3.872 -0.5902  0.3873  0.0599
15815SOL    HW158664   0.412   3.795   3.860 -0.8158 -0.5974  0.8311
15815SOL    HW258665   0.540   3.700   3.823 -0.3966 -0.0696  0.9292
15816SOL     OW58666   3.372   1.723   6.003 -0.6528 -0.0116  0.0122
15816SOL    HW158667   3.294   1.774   6.040 -1.2148 -1.4452  0.8389
15816SOL    HW258668   3.424   1.683   6.078 -0.5021 -1.0589 -0.6357
15817SOL     OW58669   0.070   4.348   1.070  0.4429  0.2148  0.6034
15817SOL    HW158670   0.144   4.308   1.017 -0.6892 -1.1790  0.0467
15817SOL    HW258671   0.028   4.423   1.018 -0.9224 -1.4043 -0.6901
15818SOL     OW58672   0.656   2.109   6.201  0.2316  0.2421 -0.1469
15818SOL    HW158673   0.564   2.072   6.189 -0.2451  2.0735 -2.6460
15818SOL    HW258674   0.650   2.206   6.225  1.5006 -0.3061  2.5373
15819SOL     OW58675   8.269   5.567   1.774  0.3869  0.5281  0.1089
15819SOL    HW158676   8.360   5.600   1.800 -0.3256  1.9418  0.8715
15819SOL    HW258677   8.207   5.645   1.763 -1.2219 -0.5287  1.4940
15820SOL     OW58678   0.124   9.199   2.741 -0.2290 -0.4056 -0.1143
15820SOL    HW158679   0.128   9.102   2.768  0.0895 -0.4871 -0.4575
15820SOL    HW258680   0.121   9.206   2.642  0.8916 -0.0344 -0.1340
15821SOL     OW58681   9.598   3.267   0.192 -0.8992 -0.2875 -0.4744
15821SOL    HW158682   9.691   3.239   0.216 -0.9843 -0.5735 -0.4716
15821SOL    HW258683   9.593   3.285   0.093 -0.8073 -0.1445 -0.4523
15822SOL     OW58684   2.620   1.900   4.693 -0.0066 -0.6495 -0.1242
15822SOL    HW158685   2.624   1.974   4.759 -0.1323 -0.3760 -0.4198
15822SOL    HW258686   2.534   1.850   4.704  0.3432 -1.1257  0.4713
15823SOL     OW58687   8.218   0.445   2.965  0.0665  0.1245 -0.2571
15823SOL    HW158688   8.217   0.520   3.031  0.6730  0.0508 -0.1602
15823SOL    HW258689   8.287   0.462   2.895  1.2330 -1.0427  0.5897
15824SOL     OW58690   9.984   4.737   4.159 -0.2886  0.2762 -0.3361
15824SOL    HW158691  10.076   4.701   4.145 -1.6444 -2.4825 -2.4317
15824SOL    HW258692   9.954   4.785   4.077 -1.4014 -0.3791 -0.3161
15825SOL     OW58693   0.402   1.440   0.594  0.0713  0.1380 -0.5892
15825SOL    HW158694   0.447   1.376   0.531  1.5877 -1.1044  1.6858
15825SOL    HW258695   0.457   1.523   0.601  0.4739 -0.1694 -0.0790
15826SOL     OW58696   0.038   0.792   0.512  0.7249  0.2077 -0.4492
15826SOL    HW158697   0.029   0.809   0.611  0.4528  0.1855 -0.4695
15826SOL    HW258698   0.114   0.728   0.496  0.3652 -0.2884 -0.2030
15827SOL     OW58699   0.505   9.634   3.765  0.2695  0.6733  0.0341
15827SOL    HW158700   0.524   9.670   3.674  0.0221  0.8811  0.0648
15827SOL    HW258701   0.542   9.697   3.834  1.0410  0.1873  0.0693
15828SOL     OW58702   2.740   0.900   3.538  0.5133 -0.2842 -0.4577
15828SOL    HW158703   2.739   0.800   3.538  0.5004 -0.2971  0.6569
15828SOL    HW258704   2.833   0.932   3.557  0.9008 -0.0557 -2.5945
15829SOL     OW58705   6.472   3.233   4.352 -1.1735 -0.2718  0.3633
15829SOL    HW158706   6.518   3.217   4.265 -1.2840 -0.2730  0.3046
15829SOL    HW258707   6.537   3.269   4.418 -1.1930  0.1781  0.1422
15830SOL     OW58708   2.436   8.189   5.909 -0.4028 -0.8070  0.2530
15830SOL    HW158709   2.418   8.287   5.907  2.2680 -0.2992 -1.9834
15830SOL    HW258710   2.455   8.161   6.003  2.4244  1.5869  0.4924
15831SOL     OW58711   1.247   8.635   1.256  0.5717 -0.0871  0.3790
15831SOL    HW158712   1.312   8.652   1.330 -0.0897  0.7254  0.7756
15831SOL    HW258713   1.224   8.538   1.254  1.8024 -0.3929  0.2269
15832SOL     OW58714   3.512   6.296   0.118  0.3792  0.1445  0.4486
15832SOL    HW158715   3.483   6.333   0.030 -1.0122  2.8850  1.9957
15832SOL    HW258716   3.485   6.358   0.191  2.0687 -1.7611  2.7880
15833SOL     OW58717   9.315   3.929   2.686  0.7070  0.1800  0.1917
15833SOL    HW158718   9.317   3.988   2.605  2.5691  0.3209  0.3163
15833SOL    HW258719   9.400   3.876   2.691  0.4482 -0.1103  1.8409
15834SOL     OW58720   8.082   7.009   1.000  0.0423 -0.2470 -0.3577
15834SOL    HW158721   8.033   6.934   0.958 -0.0190 -1.2440  1.4288
15834SOL    HW258722   8.115   6.981   1.091  0.1705  1.8085  0.2663
15835SOL     OW58723   7.912   1.695   6.361 -0.0711 -0.3482 -0.5702
15835SOL    HW158724   7.946   1.639   6.286 -1.4319 -1.5031 -0.3372
15835SOL    HW258725   7.829   1.743   6.333  0.2015  0.3201 -0.2520
15836SOL     OW58726   0.146   8.096   4.489 -0.1616  0.2034 -0.6233
15836SOL    HW158727   0.156   8.000   4.512  0.9055  0.2342 -0.9091
15836SOL    HW258728   0.129   8.106   4.391 -3.1288  0.1608 -0.1500
15837SOL     OW58729   9.686   4.313   5.112 -0.4579  0.0746 -0.6305
15837SOL    HW158730   9.700   4.332   5.015 -1.2957  0.8584 -0.6051
15837SOL    HW258731   9.592   4.335   5.137  0.1125  1.1309  0.6449
15838SOL     OW58732   0.813   7.001   6.113 -0.1770 -0.0518 -0.2926
15838SOL    HW158733   0.798   6.974   6.018 -1.4601  0.4146 -0.2401
15838SOL    HW258734   0.754   7.079   6.135  0.5825  0.2501  0.6999
15839SOL     OW58735   8.812   5.639   4.360 -0.1772 -0.0967  0.3970
15839SOL    HW158736   8.740   5.699   4.395  0.7007  0.8934  0.5319
15839SOL    HW258737   8.827   5.657   4.263  2.1198  2.0095  1.1046
15840SOL     OW58738   4.247   4.970   5.439  0.0490 -0.2431 -0.3985
15840SOL    HW158739   4.252   4.878   5.400 -1.0038 -0.4177 -0.1429
15840SOL    HW258740   4.254   5.038   5.366  0.8967 -0.5221 -0.5799
15841SOL     OW58741   4.710   3.408   4.501 -0.0930 -0.5751 -0.2341
15841SOL    HW158742   4.744   3.393   4.408  1.1197 -0.9979  0.2654
15841SOL    HW258743   4.725   3.326   4.556  3.0741  1.0145  1.4712
15842SOL     OW58744   4.408   0.882   3.810 -0.1120 -0.2172 -0.2462
15842SOL    HW158745   4.330   0.827   3.842  1.2134 -1.2438  1.3189
15842SOL    HW258746   4.437   0.849   3.720 -1.2943 -0.0163 -0.7154
15843SOL     OW58747   8.803   7.513   1.884 -0.6291 -0.2754  0.2403
15843SOL    HW158748   8.733   7.584   1.873  0.5727  1.0526  1.0010
15843SOL    HW258749   8.859   7.509   1.801  0.6904  1.2129  1.0403
15844SOL     OW58750   3.201   5.318   8.166  0.3698 -0.0210  0.0741
15844SOL    HW158751   3.262   5.394   8.186  0.9831 -0.0862 -1.5523
15844SOL    HW258752   3.251   5.245   8.119 -0.7140 -0.5068 -0.3485
15845SOL     OW58753   6.172   2.484   4.112 -0.1389  0.0402  0.5586
15845SOL    HW158754   6.162   2.455   4.017 -0.5173  0.0881  0.5842
15845SOL    HW258755   6.105   2.555   4.132  0.4759  0.6081  0.6311
15846SOL     OW58756   0.467   9.571   4.368  0.2507  0.4209  0.5551
15846SOL    HW158757   0.479   9.664   4.334  0.2403 -0.0814 -0.8415
15846SOL    HW258758   0.542   9.513   4.335 -0.1013 -0.2229  0.8651
15847SOL     OW58759   8.035   4.597   5.375  0.2995  0.3041 -0.6470
15847SOL    HW158760   7.954   4.634   5.421  1.9464  2.5802  0.5258
15847SOL    HW258761   8.101   4.565   5.443  1.0809 -0.0096 -1.5348
15848SOL     OW58762   9.748   9.998   5.855 -0.1354 -0.7091  0.0803
15848SOL    HW158763   9.831  10.043   5.889 -0.0240 -0.4983 -0.4788
15848SOL    HW258764   9.697   9.961   5.933 -1.0776  1.8197  0.7137
15849SOL     OW58765   7.570   1.420   5.445  0.4914 -0.7338  0.0598
15849SOL    HW158766   7.584   1.512   5.408  1.5034 -1.5085 -1.5393
15849SOL    HW258767   7.632   1.406   5.523 -1.1198  0.6419  1.6176
15850SOL     OW58768   7.929   3.948   5.763  0.4082  0.0449  0.2325
15850SOL    HW158769   7.954   4.034   5.720 -2.0066  0.3139 -0.7231
15850SOL    HW258770   7.838   3.957   5.804  0.3546 -1.8909  0.5754
15851SOL     OW58771   3.169   1.036   0.675  0.0524  0.4180 -0.4778
15851SOL    HW158772   3.160   1.114   0.738  0.9862  0.2412 -0.1255
15851SOL    HW258773   3.104   0.965   0.702  1.7444 -0.4374  1.4577
15852SOL     OW58774   4.496   0.639   4.089  0.3181  0.1060 -0.3804
15852SOL    HW158775   4.422   0.696   4.054  0.6271 -0.7105 -2.4026
15852SOL    HW258776   4.469   0.600   4.177 -1.2045  0.7023 -0.5735
15853SOL     OW58777   9.763   7.690   5.748  0.5588  0.0446 -0.0502
15853SOL    HW158778   9.731   7.596   5.743  2.0104 -0.5675  1.6558
15853SOL    HW258779   9.708   7.740   5.815 -1.3825  0.9379 -2.2366
15854SOL     OW58780   9.239   9.865   1.222 -0.0303  0.0904 -0.4771
15854SOL    HW158781   9.239   9.786   1.161  0.3427  0.0818 -0.4692
15854SOL    HW258782   9.186   9.844   1.304  1.4630 -0.7552  0.2920
15855SOL     OW58783   9.915   8.997   5.792 -0.5738 -0.0299 -0.5244
15855SOL    HW158784   9.980   8.951   5.852 -1.0516  0.1858  0.1707
15855SOL    HW258785   9.913   9.095   5.812 -0.1876  0.1641 -1.4123
15856SOL     OW58786   0.581   4.157   4.947  0.3014  0.7246 -0.0856
15856SOL    HW158787   0.504   4.097   4.924  2.0838 -1.4804 -0.5253
15856SOL    HW258788   0.578   4.180   5.044  0.7431 -1.9114  0.6021
15857SOL     OW58789   0.342   9.276   0.711  0.1353 -0.1239 -0.4680
15857SOL    HW158790   0.299   9.187   0.727 -0.0158  0.3618  2.0863
15857SOL    HW258791   0.303   9.343   0.774  1.3802  1.3901 -1.2804
15858SOL     OW58792   9.875   8.859   2.496 -0.1682  0.4113 -0.9879
15858SOL    HW158793   9.791   8.831   2.448  0.0133  0.7319 -1.4918
15858SOL    HW258794   9.923   8.928   2.442 -0.6123  1.7297  0.2372
15859SOL     OW58795   2.872   5.763   3.023  0.3158 -0.2172  0.1765
15859SOL    HW158796   2.806   5.823   3.069  0.3040 -1.0499  1.2924
15859SOL    HW258797   2.882   5.679   3.076  1.1000 -0.7681 -0.8228
15860SOL     OW58798   0.541   3.345   5.234 -0.6866 -0.6832  0.3069
15860SOL    HW158799   0.443   3.338   5.218 -0.4518 -0.0342 -1.5624
15860SOL    HW258800   0.590   3.293   5.163  0.3486  0.0107  0.4977
15861SOL     OW58801   5.155   1.367   1.991 -0.1558  0.2168 -0.0601
15861SOL    HW158802   5.066   1.367   2.038  0.9073 -2.4307  2.0266
15861SOL    HW258803   5.209   1.445   2.022 -1.7731  1.9877 -1.5155
15862SOL     OW58804   6.493   8.264   6.500  0.0075  0.1071  0.2134
15862SOL    HW158805   6.404   8.253   6.544  0.2947 -0.0778  0.7493
15862SOL    HW258806   6.482   8.261   6.401 -0.5016 -0.5509  0.2914
15863SOL     OW58807   2.565   9.482   2.368  0.9568  0.1127  0.4356
15863SOL    HW158808   2.549   9.385   2.349  2.8415 -0.6404  2.5439
15863SOL    HW258809   2.525   9.506   2.456 -1.2228  1.7715 -0.9546
15864SOL     OW58810   6.932   0.111   6.862  0.0428  0.1817 -0.6243
15864SOL    HW158811   6.968   0.152   6.778  1.0082 -0.1730 -0.3851
15864SOL    HW258812   6.992   0.132   6.939 -1.0048  0.7762  0.0516
15865SOL     OW58813   1.328   8.288   3.008  0.3135  0.4032 -0.5029
15865SOL    HW158814   1.338   8.191   3.028 -0.8534  0.3668 -0.0589
15865SOL    HW258815   1.230   8.310   2.998  0.5123  1.7266  0.4090
15866SOL     OW58816   9.283   5.617   2.414 -0.2821 -0.5080  0.1642
15866SOL    HW158817   9.199   5.615   2.361  1.2554 -1.3678 -2.3160
15866SOL    HW258818   9.317   5.523   2.427  1.4325 -0.0407 -0.7574
15867SOL     OW58819   0.696   6.131   3.017 -0.3663 -0.1025  0.4377
15867SOL    HW158820   0.751   6.053   3.048  0.0527 -0.0291 -0.0982
15867SOL    HW258821   0.758   6.204   2.987 -0.7512  0.6125  1.3699
15868SOL     OW58822   3.520   0.452   2.034 -0.2978  0.1600  0.4388
15868SOL    HW158823   3.511   0.505   1.949  1.3253  1.7334  1.2198
15868SOL    HW258824   3.522   0.514   2.112 -3.5256 -1.3630  1.8264
15869SOL     OW58825   3.036   1.576   5.811  0.0421 -0.1158 -0.4330
15869SOL    HW158826   3.024   1.674   5.795 -0.0328  0.1404  1.1110
15869SOL    HW258827   2.947   1.534   5.827  0.0494 -0.4834 -1.3881
15870SOL     OW58828   9.487   5.916   0.435  0.5660 -0.3611 -0.3805
15870SOL    HW158829   9.450   5.830   0.400  1.5436 -1.2219  0.6331
15870SOL    HW258830   9.531   5.966   0.361 -0.3794 -0.5363 -1.0626
15871SOL     OW58831   4.033   1.833   0.652 -0.0935  0.0365 -0.8167
15871SOL    HW158832   4.019   1.795   0.743 -0.2822  1.6034 -0.1715
15871SOL    HW258833   4.001   1.928   0.650  2.9522  1.1074 -1.5728
15872SOL     OW58834   2.313   0.174   4.347  0.0402 -0.5456 -0.2913
15872SOL    HW158835   2.405   0.180   4.385  0.1255  0.1671 -0.6078
15872SOL    HW258836   2.263   0.101   4.393  0.3115 -0.0399  0.8330
15873SOL     OW58837   5.927   2.035   3.907 -0.7509 -0.2993  0.1662
15873SOL    HW158838   5.981   1.973   3.851 -1.3905  0.0701 -0.8690
15873SOL    HW258839   5.988   2.089   3.966 -0.1374 -1.2294  0.3823
15874SOL     OW58840   6.680   1.985   2.103  0.0729  0.4285 -0.1408
15874SOL    HW158841   6.761   1.932   2.077 -0.2161 -0.8649  1.4913
15874SOL    HW258842   6.707   2.079   2.125  0.6922  0.7996 -2.3834
15875SOL     OW58843   9.521   8.881   6.057 -0.0862 -0.0039 -0.0351
15875SOL    HW158844   9.583   8.920   6.125 -2.2339 -2.3702  3.4908
15875SOL    HW258845   9.569   8.812   6.004  1.0255  0.1470  0.7476
15876SOL     OW58846   4.500   0.626   3.592  0.3134 -0.0418 -0.0385
15876SOL    HW158847   4.505   0.579   3.680 -1.3057  1.8357  1.0945
15876SOL    HW258848   4.410   0.611   3.551  1.1056 -1.0292 -1.4722
15877SOL     OW58849   2.448   4.128   3.401  0.4897 -0.2751  0.4219
15877SOL    HW158850   2.468   4.030   3.400 -0.0074 -0.3725 -0.1897
15877SOL    HW258851   2.519   4.176   3.452  0.9391 -0.9102  0.3960
15878SOL     OW58852   4.796   0.470   6.165 -0.1602  0.3502 -0.3422
15878SOL    HW158853   4.854   0.402   6.120  0.1241  1.1831 -1.2476
15878SOL    HW258854   4.798   0.454   6.264  1.2474  0.0807 -0.3968
15879SOL     OW58855   5.421   6.526   1.580  0.0329 -0.1785 -0.0960
15879SOL    HW158856   5.367   6.609   1.577  2.8670  1.6999 -1.2192
15879SOL    HW258857   5.413   6.478   1.492 -0.8325 -0.5987  0.2082
15880SOL     OW58858   7.343   1.732   2.772 -0.0939 -0.1453 -0.0199
15880SOL    HW158859   7.391   1.694   2.852 -1.1698  1.1868  1.2985
15880SOL    HW258860   7.293   1.814   2.800 -0.6019  0.2561 -2.0588
15881SOL     OW58861   2.727   7.733   0.908 -0.2834  0.0449  0.1340
15881SOL    HW158862   2.804   7.765   0.964 -2.1413  2.1202  1.5788
15881SOL    HW258863   2.661   7.685   0.966 -0.7368 -0.5438 -0.8634
15882SOL     OW58864   3.629   7.897   3.243  0.6601 -0.2972  0.3597
15882SOL    HW158865   3.679   7.947   3.173 -0.3335  1.1292  0.6537
15882SOL    HW258866   3.557   7.955   3.281  0.0379 -1.6575  1.3098
15883SOL     OW58867   7.119   2.296   1.208 -0.1836  0.0359  0.0057
15883SOL    HW158868   7.033   2.245   1.203  0.4377 -1.0299 -0.1181
15883SOL    HW258869   7.113   2.365   1.280 -0.0094 -2.2257  2.2843
15884SOL     OW58870   9.048   9.312   0.290 -0.0573  1.4245 -0.5179
15884SOL    HW158871   9.028   9.272   0.200  3.1237 -0.1260 -0.5935
15884SOL    HW258872   9.032   9.243   0.361  0.8247  1.5090 -0.2316
15885SOL     OW58873   8.716   9.863   3.121  0.0075  0.3170 -0.5038
15885SOL    HW158874   8.646   9.917   3.166  0.4116 -0.9744  1.7446
15885SOL    HW258875   8.681   9.770   3.105  1.1776 -0.3484  0.6706
15886SOL     OW58876   7.337   9.848   2.042 -0.2549  0.4256 -1.0015
15886SOL    HW158877   7.424   9.895   2.054 -0.5060  0.5074  0.5742
15886SOL    HW258878   7.353   9.751   2.021  0.2222  0.7046 -1.9376
15887SOL     OW58879   5.328   1.819   2.890  0.0244 -0.1217 -0.1366
15887SOL    HW158880   5.312   1.754   2.964 -0.2871  0.3034  0.1713
15887SOL    HW258881   5.330   1.912   2.926  0.1121  0.0720 -0.6262
15888SOL     OW58882   3.171   3.737   5.039  0.2032  0.0570  0.5618
15888SOL    HW158883   3.123   3.700   4.959  4.2374 -2.1329 -1.0135
15888SOL    HW258884   3.130   3.701   5.122  0.3379 -3.4877 -0.7838
15889SOL     OW58885   8.082   4.746   6.142 -0.0275 -1.0453  0.2565
15889SOL    HW158886   8.013   4.751   6.214  0.7348 -1.4470  1.0279
15889SOL    HW258887   8.044   4.701   6.061 -0.0692 -3.0934  1.3904
15890SOL     OW58888   1.442   9.480   3.513 -0.0505 -0.6669  0.3408
15890SOL    HW158889   1.487   9.492   3.602  1.8480  0.8566 -0.7762
15890SOL    HW258890   1.494   9.415   3.458  0.6265  0.8146 -0.8188
15891SOL     OW58891   2.824   0.705   4.343  0.1968 -0.5069  0.0608
15891SOL    HW158892   2.739   0.689   4.293 -0.8443 -1.0462  1.9361
15891SOL    HW258893   2.809   0.775   4.412  1.7390  0.5715 -0.6847
15892SOL     OW58894   7.692   3.839   3.189  0.2299  0.3111  0.0789
15892SOL    HW158895   7.635   3.825   3.108 -0.5074  0.1753  0.6213
15892SOL    HW258896   7.699   3.754   3.241 -1.1202  0.9545  1.3382
15893SOL     OW58897   8.695   3.692   5.448 -0.4606 -0.1656 -0.0499
15893SOL    HW158898   8.788   3.680   5.482 -0.5682 -1.8603 -0.2965
15893SOL    HW258899   8.685   3.782   5.407  1.3260 -0.3065 -0.8169
15894SOL     OW58900   8.050   5.658   3.981  0.2140 -0.5407 -0.5087
15894SOL    HW158901   8.070   5.596   3.904 -1.0548 -1.8478  0.1776
15894SOL    HW258902   8.018   5.745   3.945  1.8087 -0.3435 -1.4975
15895SOL     OW58903   9.655   6.019   5.901  0.5595  0.2461 -0.3392
15895SOL    HW158904   9.683   6.114   5.917  1.8667 -0.4763  1.8552
15895SOL    HW258905   9.563   6.017   5.862  0.0606  2.3727  0.6892
15896SOL     OW58906   7.563   9.808   0.791  0.3638  0.2254 -0.1384
15896SOL    HW158907   7.593   9.870   0.864  1.0779  0.2633 -0.4592
15896SOL    HW258908   7.488   9.751   0.824  1.5811 -0.6935  1.0569
15897SOL     OW58909   1.811   0.917   3.994  0.4036 -0.6524 -0.7116
15897SOL    HW158910   1.775   1.002   3.956  0.3760 -1.3939 -2.3668
15897SOL    HW258911   1.857   0.937   4.081  0.3605  1.0489 -1.0584
15898SOL     OW58912   2.959   3.711   0.156 -0.2233 -0.8521 -0.2820
15898SOL    HW158913   3.010   3.795   0.140  1.1328 -1.8190 -1.1978
15898SOL    HW258914   2.956   3.691   0.254  0.4968 -0.3619 -0.1587
15899SOL     OW58915   2.224   4.121   1.880 -0.0295 -0.2497  0.4444
15899SOL    HW158916   2.321   4.131   1.902 -0.0616 -0.2910  0.6004
15899SOL    HW258917   2.212   4.133   1.781 -0.0432  1.0614  0.5923
15900SOL     OW58918   8.699   7.971   4.547  0.1901  0.1574 -0.7299
15900SOL    HW158919   8.772   7.912   4.583 -0.2425 -0.8874 -1.5545
15900SOL    HW258920   8.708   8.062   4.587  0.3232 -0.6996  1.2741
15901SOL     OW58921   8.507   5.004   3.418  0.4834  0.4765 -0.3160
15901SOL    HW158922   8.431   5.026   3.357  0.4538  0.3566 -0.3228
15901SOL    HW258923   8.540   5.087   3.462 -0.4821  0.3369  0.6743
15902SOL     OW58924   9.182   8.256   0.630 -0.2977 -0.2239  0.4224
15902SOL    HW158925   9.136   8.342   0.654 -0.2418 -0.1084  0.1183
15902SOL    HW258926   9.120   8.199   0.577 -0.1153 -0.0996  0.0774
15903SOL     OW58927   1.560   6.439   1.090 -0.5351 -0.0909 -0.1494
15903SOL    HW158928   1.488   6.505   1.071 -0.6117  0.1004  0.7941
15903SOL    HW258929   1.541   6.393   1.177 -0.8376 -1.8285 -1.1025
15904SOL     OW58930   9.411   9.873   5.477 -0.0920  0.0109  0.2251
15904SOL    HW158931   9.461   9.838   5.398 -2.1504  0.1459 -1.1734
15904SOL    HW258932   9.322   9.827   5.483 -0.5762  1.0975  1.5698
15905SOL     OW58933   3.143   3.474   5.975 -0.0069  0.5015  0.0199
15905SOL    HW158934   3.120   3.528   6.057 -0.5973 -1.1769  0.9804
15905SOL    HW258935   3.077   3.400   5.965  0.2213  0.5304 -1.8496
15906SOL     OW58936   1.609   9.454   0.044 -0.1767  0.1773 -0.1322
15906SOL    HW158937   1.685   9.389   0.054 -0.4842 -0.1761 -0.0536
15906SOL    HW258938   1.628   9.517  -0.031  1.1126  1.3903  1.2019
15907SOL     OW58939   6.347   9.184   5.671  0.3617  0.4672 -0.2182
15907SOL    HW158940   6.405   9.186   5.752 -0.1368 -2.9140  0.3120
15907SOL    HW258941   6.321   9.090   5.651 -3.0996  1.6575 -1.7642
15908SOL     OW58942   7.395   0.861   1.739 -0.3253  0.4256  0.3009
15908SOL    HW158943   7.333   0.902   1.806 -0.8204 -1.6694  1.1470
15908SOL    HW258944   7.346   0.790   1.688  0.4733  0.9991 -1.2728
15909SOL     OW58945   0.217   6.941   4.541 -0.2134 -0.0654 -0.0610
15909SOL    HW158946   0.279   6.907   4.611  0.2094 -0.9367 -0.8480
15909SOL    HW258947   0.139   6.879   4.533  0.1123 -0.3785 -0.8785
15910SOL     OW58948   2.702   6.016   4.045 -0.0202  0.1315  0.7684
15910SOL    HW158949   2.641   5.965   4.106  0.0544  0.0662  0.7871
15910SOL    HW258950   2.654   6.097   4.012 -0.3050 -0.1985  0.3650
15911SOL     OW58951   4.056   1.018   2.764 -0.4757 -0.9158 -0.3190
15911SOL    HW158952   3.965   0.983   2.741  0.0143 -0.6873 -2.7370
15911SOL    HW258953   4.124   0.981   2.701  0.4987  1.9719 -1.0815
15912SOL     OW58954   1.651   9.014   0.931 -0.3852 -0.5143  0.5361
15912SOL    HW158955   1.611   9.106   0.925 -1.5192 -0.9709  0.8938
15912SOL    HW258956   1.604   8.953   0.867  1.0196 -0.6312 -0.4182
15913SOL     OW58957   1.595   9.937   0.871 -0.6392  0.8579  0.5226
15913SOL    HW158958   1.517   9.953   0.931 -0.8739  3.0504 -0.3176
15913SOL    HW258959   1.575   9.972   0.779  0.3547 -0.9252 -0.4228
15914SOL     OW58960   1.982   6.120   4.382 -0.1891  0.0022 -0.4462
15914SOL    HW158961   1.894   6.152   4.345 -0.9281  0.6872  1.8281
15914SOL    HW258962   2.051   6.192   4.370 -0.5148  0.3635 -0.1602
15915SOL     OW58963   1.116   3.397   5.946  0.1114 -0.5743 -0.6402
15915SOL    HW158964   1.139   3.306   5.981 -2.0254 -0.8782  0.0562
15915SOL    HW258965   1.082   3.454   6.022  3.1280  1.4220 -0.6917
15916SOL     OW58966   8.288   9.135   2.297  0.6252  0.1735  0.3609
15916SOL    HW158967   8.314   9.206   2.363 -2.2268  0.9074  0.7806
15916SOL    HW258968   8.329   9.156   2.208  1.1245  1.4643  0.8796
15917SOL     OW58969   4.698   0.289   4.790  0.1294 -0.4254 -0.4436
15917SOL    HW158970   4.651   0.229   4.855 -1.7112  0.0026 -1.3376
15917SOL    HW258971   4.790   0.309   4.824 -1.1553  0.6725  2.5977
15918SOL     OW58972   6.922   5.059   0.385  0.4422 -0.1873  0.7197
15918SOL    HW158973   6.942   5.129   0.316  0.0037 -0.8742 -0.1110
15918SOL    HW258974   6.828   5.069   0.416  0.5018 -0.1583  0.8920
15919SOL     OW58975   9.655   9.552   6.290 -0.6268 -0.0156 -0.4253
15919SOL    HW158976   9.562   9.536   6.256 -0.6716  1.7173 -1.1652
15919SOL    HW258977   9.659   9.640   6.336  0.5282 -0.3251  0.0833
15920SOL     OW58978   8.209   5.337   1.606 -0.3973  0.3252 -0.4101
15920SOL    HW158979   8.228   5.408   1.674 -1.0592  0.3567 -0.2507
15920SOL    HW258980   8.185   5.252   1.653 -1.5577  0.5389 -0.5941
15921SOL     OW58981   5.717   8.233   4.600  0.0280  0.2897  0.0983
15921SOL    HW158982   5.691   8.288   4.679  0.7450  0.9388 -0.1126
15921SOL    HW258983   5.655   8.253   4.524 -0.6778 -0.3539  0.5015
15922SOL     OW58984   5.247   9.009   4.278  0.0860  0.3802 -0.5903
15922SOL    HW158985   5.278   8.980   4.187  1.2922  1.3345 -0.5007
15922SOL    HW258986   5.318   8.990   4.345 -0.3217  0.7803 -0.0434
15923SOL     OW58987   4.095   0.100   1.017  0.0320  0.2686  0.1343
15923SOL    HW158988   4.157   0.022   1.022  0.1934  0.2574 -1.7112
15923SOL    HW258989   4.147   0.183   0.995 -0.4946  0.3750 -0.7563
15924SOL     OW58990   9.420   3.837   4.770  0.2973 -0.6576  0.3206
15924SOL    HW158991   9.356   3.771   4.731 -0.4150 -1.2573  2.4494
15924SOL    HW258992   9.430   3.821   4.868  1.0938  1.5859  0.6477
15925SOL     OW58993   8.114   7.939   5.156 -0.8561  0.1482  0.0297
15925SOL    HW158994   8.057   8.018   5.135 -1.5010 -0.1523  0.6435
15925SOL    HW258995   8.211   7.964   5.145 -1.1189  0.4162 -1.8472
15926SOL     OW58996   2.950   7.065   4.298 -0.9390  0.6039  0.8360
15926SOL    HW158997   2.918   6.975   4.269 -1.6893  1.7715 -2.1455
15926SOL    HW258998   2.872   7.127   4.308 -0.1775  1.8024 -0.3956
15927SOL     OW58999   3.483   9.510   0.129 -0.2046 -0.1551 -0.3040
15927SOL    HW159000   3.423   9.445   0.081 -0.3852 -0.8124  0.7830
15927SOL    HW259001   3.440   9.600   0.130 -1.1186 -0.5893  0.3353
15928SOL     OW59002   0.820   1.709   1.628  0.6632  0.0900 -0.2500
15928SOL    HW159003   0.801   1.804   1.604  0.6123  0.3640  0.8560
15928SOL    HW259004   0.734   1.662   1.648  0.7822  0.0849  0.2345
15929SOL     OW59005   9.100   8.783   0.208  0.2128 -0.1722 -0.2812
15929SOL    HW159006   9.073   8.688   0.223  1.7574 -0.2630  2.1407
15929SOL    HW259007   9.199   8.793   0.223  0.4624  1.4130 -2.6244
15930SOL     OW59008   6.839   2.472   5.107  0.4104  0.4547  0.0530
15930SOL    HW159009   6.744   2.440   5.111  0.3325  0.5597 -0.7493
15930SOL    HW259010   6.866   2.507   5.196 -0.4201  0.7485  0.1987
15931SOL     OW59011   0.257   3.907   2.854 -0.0904  0.2695  0.1222
15931SOL    HW159012   0.325   3.979   2.840  1.8272 -1.5218 -0.1521
15931SOL    HW259013   0.168   3.938   2.822  1.0361  1.9066 -1.5393
15932SOL     OW59014   0.804   3.086   1.956 -0.1543  0.0771  0.3033
15932SOL    HW159015   0.842   3.017   2.018  0.9194 -1.0568 -1.5681
15932SOL    HW259016   0.707   3.068   1.943  0.3177 -1.6806 -0.9169
15933SOL     OW59017   3.435   8.272   4.707  0.0102 -0.5327 -0.5348
15933SOL    HW159018   3.442   8.324   4.622  3.3427 -0.8630 -0.5370
15933SOL    HW259019   3.517   8.287   4.763 -1.3801 -1.5900  1.9049
15934SOL     OW59020   3.947   3.414   3.212  0.5930 -0.2049 -0.1101
15934SOL    HW159021   3.982   3.463   3.132  0.0971 -1.7695 -1.3097
15934SOL    HW259022   4.000   3.440   3.292  0.4000  2.2192 -0.7248
15935SOL     OW59023   3.667   2.539   3.912  0.3370 -0.1833 -0.2654
15935SOL    HW159024   3.585   2.571   3.960  0.9939  0.8933  0.1476
15935SOL    HW259025   3.727   2.616   3.893  1.4113 -1.0124 -0.2951
15936SOL     OW59026   6.952   8.910   3.177 -0.4494 -0.1942  0.0222
15936SOL    HW159027   7.049   8.912   3.203 -0.0724 -0.9054 -1.2477
15936SOL    HW259028   6.905   8.840   3.230 -0.0709 -0.4403  0.0349
15937SOL     OW59029   4.242   0.621   6.187 -0.1198  0.4458 -0.5938
15937SOL    HW159030   4.172   0.577   6.131  2.7012 -2.3386 -2.1266
15937SOL    HW259031   4.294   0.686   6.132 -0.1003  0.9175 -0.0299
15938SOL     OW59032   8.697   8.351   3.195  0.2119  0.0545  0.1627
15938SOL    HW159033   8.736   8.425   3.250 -0.2315  0.1250  0.3824
15938SOL    HW259034   8.658   8.389   3.111  1.7408 -0.1678 -0.6615
15939SOL     OW59035   0.416   5.821   2.320 -0.2261  0.0897  0.8129
15939SOL    HW159036   0.383   5.884   2.391  1.5438  1.0709  0.7920
15939SOL    HW259037   0.347   5.813   2.248 -0.7918  1.4309  1.1922
15940SOL     OW59038   3.339   2.045   0.600 -0.1973 -0.1666  0.7906
15940SOL    HW159039   3.436   2.063   0.586  0.5083 -3.7450  0.6927
15940SOL    HW259040   3.287   2.078   0.521  1.3141 -1.0068 -0.5879
15941SOL     OW59041   3.810   6.636   3.808 -0.0183 -0.0829  0.3362
15941SOL    HW159042   3.833   6.652   3.904  1.6557  1.3707 -0.2869
15941SOL    HW259043   3.884   6.669   3.750 -2.1544  1.5070 -1.5964
15942SOL     OW59044   4.468   3.062   3.641  0.0454  0.1168  0.5313
15942SOL    HW159045   4.373   3.085   3.660  0.2370  1.1023  0.3003
15942SOL    HW259046   4.492   2.977   3.690 -0.0723  1.4824  3.0724
15943SOL     OW59047   3.985   9.241   3.368  0.1540  0.3031  0.1069
15943SOL    HW159048   3.938   9.176   3.427  0.5107 -0.1893 -0.1350
15943SOL    HW259049   4.077   9.258   3.404  0.4315 -0.1246 -0.3831
15944SOL     OW59050   1.097   1.128   6.183 -0.0776  0.5191 -0.4219
15944SOL    HW159051   1.030   1.055   6.193 -0.8498  1.1569 -0.9178
15944SOL    HW259052   1.184   1.089   6.150 -0.8779 -0.0050 -1.9536
15945SOL     OW59053   8.402   2.182   6.177 -0.3817 -0.0236  0.1456
15945SOL    HW159054   8.439   2.113   6.239 -1.9138  1.1374  2.3809
15945SOL    HW259055   8.334   2.139   6.117 -0.9915 -0.5607  1.2060
15946SOL     OW59056   2.586   6.367   0.578 -0.3297 -0.2745  0.5914
15946SOL    HW159057   2.672   6.385   0.626 -0.0192  0.8661 -0.3568
15946SOL    HW259058   2.551   6.278   0.605  1.8506 -1.3669 -0.0028
15947SOL     OW59059   7.437   4.350   1.974  0.5211 -0.2609 -0.6246
15947SOL    HW159060   7.523   4.401   1.979  0.2770  0.0334  0.7260
15947SOL    HW259061   7.360   4.411   1.992  0.0423 -0.5925 -1.4969
15948SOL     OW59062   7.117   2.302   4.700 -0.1572 -0.3645 -0.5326
15948SOL    HW159063   7.193   2.364   4.681 -0.2462 -0.8805 -2.6334
15948SOL    HW259064   7.038   2.355   4.731  0.8315  0.2348  1.0368
15949SOL     OW59065   0.459   9.668   5.890 -0.2217 -0.1449  0.1396
15949SOL    HW159066   0.375   9.692   5.843 -1.3682 -0.6785  1.8538
15949SOL    HW259067   0.467   9.722   5.974  0.3948 -1.1323  0.7325
15950SOL     OW59068   8.447   3.300   1.227  0.1385  0.1758  0.0657
15950SOL    HW159069   8.386   3.306   1.306 -0.1405  1.2024 -0.2253
15950SOL    HW259070   8.409   3.352   1.151 -1.0028 -3.1172 -1.6954
15951SOL     OW59071   6.533   8.384   3.594  0.0677  0.0030  0.2270
15951SOL    HW159072   6.546   8.291   3.560  0.6705 -0.1541  0.8990
15951SOL    HW259073   6.471   8.433   3.532  0.6859 -0.4685 -0.7749
15952SOL     OW59074   8.057   4.979   1.159 -0.3167  0.5392 -0.2658
15952SOL    HW159075   8.075   4.882   1.143 -2.2122  0.1291 -0.0888
15952SOL    HW259076   8.141   5.025   1.186  0.6749 -0.9859 -0.6957
15953SOL     OW59077   2.987   2.588   4.843 -0.2773  0.4669 -0.5952
15953SOL    HW159078   2.991   2.518   4.772  1.6246  1.3056 -1.3609
15953SOL    HW259079   2.978   2.543   4.932  2.0345 -0.8364 -0.9702
15954SOL     OW59080   3.754   1.573   2.438 -0.1845  0.4299 -0.3388
15954SOL    HW159081   3.827   1.569   2.507  0.3115 -0.0756 -0.8810
15954SOL    HW259082   3.714   1.664   2.437  0.1460  0.5874  0.2693
15955SOL     OW59083   1.441   6.207   2.489 -0.1491  0.0649  0.6381
15955SOL    HW159084   1.345   6.228   2.504 -0.0664  1.6549 -0.9566
15955SOL    HW259085   1.456   6.179   2.395  1.2948  2.0742  0.2246
15956SOL     OW59086   3.860   2.190   3.489 -0.2114 -0.3426 -0.0575
15956SOL    HW159087   3.831   2.155   3.578 -1.3258 -1.0167 -0.6788
15956SOL    HW259088   3.900   2.115   3.436  2.0765  0.4264  0.5300
15957SOL     OW59089   9.073   3.102   5.300  0.7281  0.0990  0.3453
15957SOL    HW159090   9.127   3.041   5.360  1.4926  0.3222 -0.1069
15957SOL    HW259091   8.994   3.137   5.350  1.4493  0.4053  1.2792
15958SOL     OW59092   4.984   9.570   3.961  0.1375  0.4977  0.5844
15958SOL    HW159093   5.060   9.596   4.021  0.9804 -0.0813 -0.2232
15958SOL    HW259094   4.994   9.474   3.933 -0.3786  0.6952 -0.2964
15959SOL     OW59095   1.039   7.933   2.138 -0.0717  0.4503  0.6634
15959SOL    HW159096   0.995   7.990   2.207 -3.9581  0.6054 -1.8146
15959SOL    HW259097   1.096   7.990   2.079 -0.4529  1.0480  0.8716
15960SOL     OW59098   4.029   3.424   0.736  0.1581  0.1572  0.2664
15960SOL    HW159099   4.024   3.380   0.646  2.0759 -0.1113  0.2643
15960SOL    HW259100   4.124   3.450   0.755 -0.2081  0.1085  2.2774
15961SOL     OW59101   8.138   0.877   1.600 -0.4455  1.1373 -0.4054
15961SOL    HW159102   8.191   0.918   1.525  1.3296 -1.0967 -0.4233
15961SOL    HW259103   8.143   0.936   1.680 -0.6634  2.5519 -1.4151
15962SOL     OW59104   8.325   4.658   5.818  0.1760  0.2456  0.0981
15962SOL    HW159105   8.346   4.636   5.913  1.8814  0.1921 -0.2590
15962SOL    HW259106   8.374   4.742   5.793  1.3472 -0.8448 -1.3076
15963SOL     OW59107   7.010   0.231   1.921  0.2513 -0.2473 -0.0034
15963SOL    HW159108   7.078   0.206   1.852  0.7927  0.6248  0.2141
15963SOL    HW259109   6.960   0.148   1.950  0.6298 -0.7509 -0.7799
15964SOL     OW59110   4.102   7.667   4.841  0.0528 -0.3659  0.0634
15964SOL    HW159111   4.198   7.696   4.847 -0.0580 -0.0649  0.4646
15964SOL    HW259112   4.045   7.747   4.821 -0.0469 -0.6591 -0.8301
15965SOL     OW59113   1.695   5.950   2.833 -0.0236 -0.6304  0.0365
15965SOL    HW159114   1.672   5.941   2.736  0.1575 -0.2626 -0.0383
15965SOL    HW259115   1.756   5.875   2.860  1.6778  0.4925 -0.6541
15966SOL     OW59116   2.209   8.867   3.260 -0.3684  0.2475  0.0749
15966SOL    HW159117   2.259   8.950   3.283 -0.9871  0.8683 -0.7996
15966SOL    HW259118   2.144   8.845   3.332 -0.0836  0.4219  0.3865
15967SOL     OW59119   9.872   5.575   0.322 -0.3136  0.3822  0.0773
15967SOL    HW159120   9.898   5.607   0.231  0.8374 -0.0469  0.2464
15967SOL    HW259121   9.945   5.594   0.387 -0.3746 -0.9055  0.5485
15968SOL     OW59122   4.146   2.882   5.041  0.0573 -0.4216  0.5406
15968SOL    HW159123   4.148   2.932   5.127 -1.4559  0.1476  0.2544
15968SOL    HW259124   4.052   2.856   5.019  0.2914  0.3269 -1.4442
15969SOL     OW59125   7.839   3.309   0.680 -0.4197  0.7235  0.2962
15969SOL    HW159126   7.870   3.343   0.768 -0.5466  0.8365  0.2964
15969SOL    HW259127   7.856   3.210   0.675  0.0145  0.7978  0.2661
15970SOL     OW59128   8.321   0.295   6.692  0.1935  0.6114  0.1155
15970SOL    HW159129   8.416   0.273   6.718  0.4640  1.5269 -0.1049
15970SOL    HW259130   8.311   0.394   6.684 -0.5146  0.4565 -0.9246
15971SOL     OW59131   2.676   4.497   0.766 -0.1453  0.4627 -0.1187
15971SOL    HW159132   2.682   4.523   0.670  1.3548  0.2093 -0.1135
15971SOL    HW259133   2.613   4.420   0.776  2.6179 -2.1129 -1.5042
15972SOL     OW59134   9.448   6.053   4.806  0.0284  0.4491 -0.2811
15972SOL    HW159135   9.400   6.073   4.721 -0.5728 -0.2703 -0.1150
15972SOL    HW259136   9.546   6.050   4.790 -0.1784 -1.3383 -1.2839
15973SOL     OW59137   9.334   2.548   1.077 -0.5589 -0.3703  0.7634
15973SOL    HW159138   9.272   2.606   1.024  0.0672 -0.9533 -0.6287
15973SOL    HW259139   9.414   2.601   1.105 -0.3360 -0.3611  0.1173
15974SOL     OW59140   5.583   4.551   0.420  0.5154  0.0097  0.2833
15974SOL    HW159141   5.589   4.459   0.379 -1.6699 -0.8273  1.7427
15974SOL    HW259142   5.656   4.563   0.486 -0.6497 -1.6943  1.9486
15975SOL     OW59143   2.405   6.404   5.179 -0.4154 -0.1966 -0.3517
15975SOL    HW159144   2.320   6.395   5.231  1.1901 -0.7787  2.1985
15975SOL    HW259145   2.421   6.501   5.158 -1.7398 -0.0891 -0.9448
15976SOL     OW59146   4.501   0.660   0.241 -0.0957 -0.2214  0.5554
15976SOL    HW159147   4.513   0.676   0.143 -1.8819 -3.3337 -0.2458
15976SOL    HW259148   4.458   0.740   0.282 -0.1918  0.7675 -1.3881
15977SOL     OW59149   9.895   8.093   0.476  0.9749  0.1637  0.5634
15977SOL    HW159150   9.814   8.150   0.467  0.4897 -0.7861 -1.5998
15977SOL    HW259151   9.885   8.031   0.554 -0.7194 -0.4669 -0.1385
15978SOL     OW59152   5.185   8.565   3.820 -0.6796 -0.6068  0.0553
15978SOL    HW159153   5.106   8.551   3.761 -0.4697 -0.0746 -0.3612
15978SOL    HW259154   5.164   8.532   3.912 -1.0256 -1.3899 -0.2986
15979SOL     OW59155   8.399   2.159   3.871 -0.0303  0.0386 -0.0464
15979SOL    HW159156   8.422   2.224   3.944  2.7631  0.5708 -1.3009
15979SOL    HW259157   8.417   2.202   3.782  1.6958 -2.3361 -0.9055
15980SOL     OW59158   3.827   0.693   4.020  0.0950  0.4607 -0.3887
15980SOL    HW159159   3.740   0.716   4.065  0.5527  0.3447  0.5582
15980SOL    HW259160   3.823   0.600   3.985  0.2042  0.1050  0.5474
15981SOL     OW59161   1.451   9.058   1.784  0.3036 -0.0873  0.1287
15981SOL    HW159162   1.479   8.980   1.839 -1.1420  0.0292  1.0543
15981SOL    HW259163   1.405   9.026   1.701  2.3226 -0.2556 -0.9634
15982SOL     OW59164   0.758   1.950   2.324  0.0986 -0.3913  0.5127
15982SOL    HW159165   0.764   1.859   2.282  2.6103 -0.5657  1.2019
15982SOL    HW259166   0.792   2.018   2.259 -2.7607  0.2246 -0.4025
15983SOL     OW59167   8.651   4.007   5.458  0.5157  0.6602  0.0042
15983SOL    HW159168   8.729   4.002   5.519  0.0120 -0.6807  0.5527
15983SOL    HW259169   8.566   3.999   5.511  0.0946 -1.3838 -0.9181
15984SOL     OW59170   1.814   8.629   4.282  0.0992  0.2169 -0.2439
15984SOL    HW159171   1.754   8.709   4.281  1.1631  1.0261 -0.4445
15984SOL    HW259172   1.898   8.650   4.231  1.4845 -0.1435  1.8331
15985SOL     OW59173   2.337   7.338   5.001 -0.2373  0.4078  0.1821
15985SOL    HW159174   2.388   7.288   5.071 -1.1734  0.8609  1.1937
15985SOL    HW259175   2.242   7.308   4.999 -0.3562  0.8007 -0.5082
15986SOL     OW59176   9.190   2.406   4.464 -0.1682 -0.4717 -0.3384
15986SOL    HW159177   9.202   2.474   4.536 -0.2069 -0.0751 -0.7035
15986SOL    HW259178   9.122   2.339   4.493 -0.6935  0.0778 -0.2880
15987SOL     OW59179   4.461   9.094   4.513 -0.0176  0.1387 -0.3679
15987SOL    HW159180   4.532   9.144   4.563 -0.4763  0.4212  0.0008
15987SOL    HW259181   4.418   9.154   4.446 -0.1479  0.0681 -0.3493
15988SOL     OW59182   0.927   8.367   1.935 -0.2452  0.0065 -0.6014
15988SOL    HW159183   0.906   8.457   1.972  1.3795  0.6024 -1.0936
15988SOL    HW259184   0.999   8.325   1.989 -0.2400 -0.5410 -1.0291
15989SOL     OW59185   3.416   6.545   1.221 -0.1708  0.2733 -0.3588
15989SOL    HW159186   3.482   6.606   1.264 -0.0931  0.3504 -0.5850
15989SOL    HW259187   3.436   6.450   1.244  0.0289  0.2958 -0.4419
15990SOL     OW59188   9.607   1.406   3.374 -0.3094  0.3625 -0.0415
15990SOL    HW159189   9.571   1.414   3.282 -0.9114  1.4094  0.2837
15990SOL    HW259190   9.562   1.471   3.434  3.2091  2.8565  0.0342
15991SOL     OW59191   1.913   0.506   3.606  0.4309  0.2462  0.1554
15991SOL    HW159192   1.940   0.525   3.700 -1.7294  2.2373  0.4093
15991SOL    HW259193   1.935   0.585   3.548  1.3495 -0.7927 -0.9295
15992SOL     OW59194   8.027   8.318   5.356  0.1264 -0.3740  0.1239
15992SOL    HW159195   8.040   8.258   5.435  0.2165 -1.0984 -0.4437
15992SOL    HW259196   7.931   8.313   5.327 -0.3953  1.4069  1.4050
15993SOL     OW59197   9.418   8.104   4.118 -0.1304  0.0085 -0.1169
15993SOL    HW159198   9.470   8.024   4.088  2.2109  1.0087  1.1695
15993SOL    HW259199   9.362   8.137   4.042  0.3792 -1.6577 -1.2470
15994SOL     OW59200   4.841   9.898   2.062 -0.2935  0.4084 -0.0632
15994SOL    HW159201   4.813   9.852   1.978  1.0421 -2.5438  1.0449
15994SOL    HW259202   4.939   9.920   2.057 -0.8578  2.9959 -0.4843
15995SOL     OW59203   3.635   2.002   3.289 -0.0006  0.3470 -0.3353
15995SOL    HW159204   3.734   1.997   3.278  0.1700  0.3595  1.1089
15995SOL    HW259205   3.605   2.097   3.286 -0.0084  0.3300 -0.9852
15996SOL     OW59206   8.176   7.059   5.434  0.4468 -0.3081  0.2588
15996SOL    HW159207   8.258   7.002   5.428 -0.3158 -1.3600 -0.3613
15996SOL    HW259208   8.151   7.091   5.343 -0.7237 -1.3073  0.2098
15997SOL     OW59209   0.367   1.807   2.631  0.1443 -0.1764 -0.3397
15997SOL    HW159210   0.419   1.734   2.675 -0.9518 -1.8150 -1.6714
15997SOL    HW259211   0.292   1.835   2.691 -0.2751 -1.1516 -0.3962
15998SOL     OW59212   6.865   5.499   7.767 -0.0027 -0.0099  0.6615
15998SOL    HW159213   6.902   5.437   7.836 -0.3586  1.1431  1.9112
15998SOL    HW259214   6.883   5.594   7.794 -0.7958  0.4672 -0.4540
15999SOL     OW59215   2.146   5.388   4.394  0.7744 -0.2058 -0.1629
15999SOL    HW159216   2.192   5.397   4.306  2.0126 -1.4149  0.3516
15999SOL    HW259217   2.102   5.475   4.418 -0.7307 -0.2425 -2.5889
16000SOL     OW59218   3.274   3.274   2.390  0.2993  0.6392  0.0967
16000SOL    HW159219   3.232   3.186   2.368  1.4028  0.1662 -0.1446
16000SOL    HW259220   3.372   3.269   2.372  0.4431  1.7629  0.5648
16001SOL     OW59221   3.407   3.429   2.643 -0.3297 -0.2918 -0.2979
16001SOL    HW159222   3.472   3.361   2.608 -0.9525 -0.1528 -1.7346
16001SOL    HW259223   3.353   3.387   2.716  1.6150 -0.2896  1.1854
16002SOL     OW59224   5.227   2.726   4.213  0.8223  0.6744  0.0414
16002SOL    HW159225   5.137   2.724   4.256  0.2141 -1.5026 -1.2888
16002SOL    HW259226   5.219   2.756   4.118  1.2402 -1.1653 -0.6028
16003SOL     OW59227   9.321   9.789   4.440  0.1827  0.1533  0.6198
16003SOL    HW159228   9.385   9.742   4.501  2.1515  1.6795 -0.2412
16003SOL    HW259229   9.371   9.848   4.377 -1.9283 -0.2201 -1.4848
16004SOL     OW59230   2.467   0.552   1.501  0.6604  0.2063  0.2193
16004SOL    HW159231   2.503   0.541   1.409  1.1073  0.6739  0.3343
16004SOL    HW259232   2.368   0.564   1.498  0.6871  0.2976 -0.2010
16005SOL     OW59233   3.669   6.786   5.123 -0.1304 -0.5270  0.2546
16005SOL    HW159234   3.591   6.819   5.176 -0.2115  2.2893 -1.4954
16005SOL    HW259235   3.754   6.821   5.163 -0.1930  1.6231 -1.4046
16006SOL     OW59236   9.003   0.671   2.499 -0.0394 -0.7232 -0.6969
16006SOL    HW159237   8.965   0.601   2.558 -0.9203 -1.4153 -2.0563
16006SOL    HW259238   9.103   0.669   2.504 -0.0817 -1.6200 -0.2075
16007SOL     OW59239   8.249   4.414   3.637 -0.0496  0.1679 -0.1272
16007SOL    HW159240   8.321   4.349   3.664 -1.8814 -1.6120  0.6104
16007SOL    HW259241   8.195   4.439   3.717  0.8995  2.9914 -0.3349
16008SOL     OW59242   1.526   8.563   0.903 -0.6563 -0.2350  0.1747
16008SOL    HW159243   1.605   8.570   0.964 -2.1539 -0.4386  2.2067
16008SOL    HW259244   1.490   8.655   0.885  1.3767  0.0695 -2.6292
16009SOL     OW59245   7.212   7.482   4.450  0.0389  0.2381 -0.2265
16009SOL    HW159246   7.275   7.482   4.528 -0.3198 -2.1181  0.1227
16009SOL    HW259247   7.264   7.478   4.365  0.4212  2.2220 -0.0966
16010SOL     OW59248   6.621   5.642   0.211 -0.2442 -0.2493  0.6497
16010SOL    HW159249   6.550   5.709   0.233 -2.4095 -1.6025 -1.8652
16010SOL    HW259250   6.587   5.550   0.232  1.2613 -0.8306  0.5884
16011SOL     OW59251   2.347   1.394   0.066  0.2101 -0.3367 -0.2656
16011SOL    HW159252   2.410   1.452   0.118  1.2059 -1.2916 -0.3842
16011SOL    HW259253   2.273   1.450   0.029  0.6961  0.7156  0.3269
16012SOL     OW59254   2.641   7.047   1.517  0.4484 -0.0696  0.5571
16012SOL    HW159255   2.597   7.111   1.453 -0.8512 -0.9547  0.5476
16012SOL    HW259256   2.610   7.067   1.610 -1.0835 -1.5672  0.3993
16013SOL     OW59257   4.134   8.085   2.136 -0.6466  0.7149 -0.3102
16013SOL    HW159258   4.163   8.148   2.065  1.9183 -2.0495 -1.8339
16013SOL    HW259259   4.068   8.020   2.099 -0.6487  0.3594  0.2990
16014SOL     OW59260   6.251   0.722   1.608 -0.2561  0.0876  0.6007
16014SOL    HW159261   6.187   0.690   1.678 -1.1363 -0.5278 -0.4723
16014SOL    HW259262   6.294   0.643   1.564  0.5516  0.4802  0.6754
16015SOL     OW59263   3.141   3.201   0.779 -0.1693 -0.2317 -0.3861
16015SOL    HW159264   3.045   3.172   0.789 -0.5476  1.4307  1.1315
16015SOL    HW259265   3.200   3.136   0.828 -0.8869  0.7421  1.8604
16016SOL     OW59266   6.936   9.301   5.741 -0.2765 -0.1206 -0.2583
16016SOL    HW159267   6.949   9.273   5.836 -0.3667  0.2542 -0.1340
16016SOL    HW259268   7.020   9.285   5.689 -0.5737 -1.3546 -0.3769
16017SOL     OW59269   1.911   9.378   5.416 -0.9380  0.4703  0.3481
16017SOL    HW159270   1.881   9.286   5.440 -0.9529  0.2617 -0.4487
16017SOL    HW259271   1.831   9.436   5.401 -0.9352  0.2158 -0.6487
16018SOL     OW59272   7.449   8.996   4.852 -0.1792 -0.0054 -0.2311
16018SOL    HW159273   7.432   8.968   4.947  1.5459  0.3367  0.1859
16018SOL    HW259274   7.537   9.042   4.846 -0.2184 -0.1438 -2.0367
16019SOL     OW59275   3.693   2.887   2.923  0.4828  0.0239  0.1326
16019SOL    HW159276   3.695   2.840   2.835  2.0006 -0.4831  0.4122
16019SOL    HW259277   3.654   2.826   2.992  0.0136  0.1370 -0.0322
16020SOL     OW59278   4.983   9.069   3.780  0.4682  0.3977 -0.0109
16020SOL    HW159279   5.082   9.058   3.771  0.3232 -0.8305 -0.2949
16020SOL    HW259280   4.941   9.060   3.690 -0.1185 -1.8011  0.4424
16021SOL     OW59281   4.189   0.548   5.488  0.1873 -0.0914 -0.3034
16021SOL    HW159282   4.150   0.507   5.405  0.1807  1.7855 -1.2578
16021SOL    HW259283   4.167   0.490   5.566 -0.0388 -1.7629 -1.5605
16022SOL     OW59284   7.835   7.640   4.502  0.0884 -0.0373  0.2973
16022SOL    HW159285   7.933   7.624   4.513  0.0788 -0.8521 -0.6849
16022SOL    HW259286   7.803   7.705   4.571  1.3029  0.1668  0.6711
16023SOL     OW59287   2.837   2.281   3.790 -0.2689  0.3404 -0.4727
16023SOL    HW159288   2.818   2.225   3.870  1.4334 -1.3866 -1.2411
16023SOL    HW259289   2.867   2.372   3.819 -1.9003  0.4983  0.7955
16024SOL     OW59290   0.781   8.819   0.105 -0.5362 -0.7010  0.0997
16024SOL    HW159291   0.702   8.875   0.131 -1.3567 -2.1426  0.7915
16024SOL    HW259292   0.809   8.762   0.183  0.5846 -0.9035 -0.4409
16025SOL     OW59293   2.717   3.897   3.168 -0.7545 -0.4266  0.0119
16025SOL    HW159294   2.633   3.875   3.218 -1.9836 -0.5370 -2.0333
16025SOL    HW259295   2.704   3.982   3.117  1.1948  0.7905  1.4836
16026SOL     OW59296   9.147   8.089   6.200  0.2025  0.1408 -0.3998
16026SOL    HW159297   9.172   8.115   6.107  1.9188  0.6233  0.1705
16026SOL    HW259298   9.114   8.170   6.250  0.3655  0.1130 -0.2482
16027SOL     OW59299   4.612   1.700   1.913 -0.2165  0.3163 -0.6195
16027SOL    HW159300   4.647   1.790   1.938  0.5806 -0.3826  0.8642
16027SOL    HW259301   4.687   1.644   1.878 -0.2593 -0.4670  0.5094
16028SOL     OW59302   8.770   2.574   0.411  0.0173 -0.4827  0.1445
16028SOL    HW159303   8.747   2.652   0.469  1.3412 -1.2420  1.7115
16028SOL    HW259304   8.813   2.606   0.327  0.4598  0.4871  0.7398
16029SOL     OW59305   2.602   7.018   5.243 -0.0425  0.8811 -0.0950
16029SOL    HW159306   2.653   6.970   5.172 -1.2953 -2.0393  0.8940
16029SOL    HW259307   2.663   7.042   5.318  0.7181  1.4187 -0.8714
16030SOL     OW59308   7.917   7.544   1.564  0.1032  0.7905 -0.1283
16030SOL    HW159309   7.856   7.524   1.488 -1.0323  0.6777  0.7842
16030SOL    HW259310   8.006   7.573   1.530  0.0253 -0.5429 -1.4785
16031SOL     OW59311   9.774   0.232   5.150 -0.3737  0.3202  0.3089
16031SOL    HW159312   9.804   0.239   5.246 -0.5366  0.1270  0.3749
16031SOL    HW259313   9.791   0.139   5.117  0.7417  0.6950 -0.2058
16032SOL     OW59314   3.837   5.839   1.331  0.1850  0.1144 -0.2069
16032SOL    HW159315   3.816   5.921   1.278  2.2540  2.7992  2.9044
16032SOL    HW259316   3.780   5.837   1.413  1.7281 -0.3151  0.8814
16033SOL     OW59317   6.057   8.928   5.978 -0.0237 -0.1187 -0.3286
16033SOL    HW159318   5.959   8.913   5.989 -0.3064  0.7386 -1.5506
16033SOL    HW259319   6.074   9.021   5.946  1.2519  0.0336  0.7359
16034SOL     OW59320   1.826   9.350   3.236  0.1275  0.0134 -0.1500
16034SOL    HW159321   1.898   9.289   3.270 -0.4633 -0.3142  0.5155
16034SOL    HW259322   1.867   9.436   3.206  1.0159 -0.8235 -1.4065
16035SOL     OW59323   3.223   9.641   4.542  0.3401 -0.5798 -0.2839
16035SOL    HW159324   3.230   9.734   4.506  1.3984 -0.7854 -0.6207
16035SOL    HW259325   3.134   9.629   4.586  0.1154  0.5252 -0.4239
16036SOL     OW59326   3.264   5.013   2.720  0.4981  0.3767 -0.1115
16036SOL    HW159327   3.283   4.924   2.762  3.1369  0.5759 -0.7811
16036SOL    HW259328   3.347   5.069   2.722 -1.5091  3.4406  1.6756
16037SOL     OW59329   1.305   5.178   1.663  0.0073  0.4936  0.9143
16037SOL    HW159330   1.223   5.161   1.607 -0.1586 -0.6174  1.4811
16037SOL    HW259331   1.353   5.258   1.628 -0.2399 -0.0338 -0.6739
16038SOL     OW59332   3.796   0.495   4.681 -0.2122 -0.0481 -0.2916
16038SOL    HW159333   3.789   0.519   4.584  0.8925 -0.7268 -0.5428
16038SOL    HW259334   3.889   0.465   4.701  0.3278  2.7227  1.5838
16039SOL     OW59335   1.613   4.040   5.536 -0.1330 -0.2316 -0.3778
16039SOL    HW159336   1.670   4.044   5.618  0.5148  2.1815 -0.9098
16039SOL    HW259337   1.671   4.049   5.455 -1.0984  0.6330 -0.9835
16040SOL     OW59338   9.534   0.961   4.324 -0.0268  0.4493  0.0072
16040SOL    HW159339   9.625   1.003   4.333  1.0630 -1.7707 -0.3052
16040SOL    HW259340   9.510   0.916   4.410 -0.2949 -0.0036 -0.3061
16041SOL     OW59341   2.290   6.031   5.308  0.0620 -0.4902  0.1604
16041SOL    HW159342   2.248   6.048   5.397  1.0016  1.1061  0.3183
16041SOL    HW259343   2.219   6.010   5.240 -0.8278  0.3065  0.8383
16042SOL     OW59344   1.481   7.396   0.158  0.0190  0.4002 -0.4714
16042SOL    HW159345   1.563   7.445   0.130  0.7656 -0.4389  0.2181
16042SOL    HW259346   1.400   7.443   0.123  0.6336  2.9024  1.3550
16043SOL     OW59347   1.985   5.864   4.915  0.6053 -0.4117  0.1880
16043SOL    HW159348   1.912   5.828   4.973  1.8273 -0.6961  1.5751
16043SOL    HW259349   1.992   5.808   4.832 -0.4786 -0.6172  0.2287
16044SOL     OW59350   1.342   7.708   4.986 -0.5822  0.3223 -0.1458
16044SOL    HW159351   1.400   7.654   5.047 -0.1629  1.9980  0.9891
16044SOL    HW259352   1.249   7.671   4.986 -0.3769 -0.2193  0.8368
16045SOL     OW59353   4.131   8.870   5.382  0.3323 -0.2651 -0.1657
16045SOL    HW159354   4.159   8.811   5.458  2.9528  0.3394 -0.6410
16045SOL    HW259355   4.096   8.813   5.308 -0.6727 -0.9590  0.8206
16046SOL     OW59356   3.885   8.649   1.631  0.7594 -0.0633 -0.6605
16046SOL    HW159357   3.859   8.743   1.654  2.9905  0.6943 -1.0925
16046SOL    HW259358   3.913   8.645   1.535  0.3703 -1.2508 -0.7309
16047SOL     OW59359   8.580   5.528   3.539 -0.0735  0.5351  0.2335
16047SOL    HW159360   8.667   5.568   3.508 -0.0048  0.6513  0.5717
16047SOL    HW259361   8.568   5.547   3.636  0.0993 -0.5419  0.4705
16048SOL     OW59362   9.023   6.887   1.336 -0.2540 -0.0529  0.1486
16048SOL    HW159363   8.985   6.883   1.428 -1.1831 -1.6586 -0.2919
16048SOL    HW259364   8.955   6.856   1.270  0.5961  0.5360 -1.0281
16049SOL     OW59365   3.444   0.936   5.290 -0.1165 -0.3681  0.6650
16049SOL    HW159366   3.499   0.961   5.370 -0.5739 -2.0265  1.5040
16049SOL    HW259367   3.472   0.993   5.213  1.2927  0.2963  1.6327
16050SOL     OW59368   3.123   3.952   0.797 -0.0375  0.3868  0.1990
16050SOL    HW159369   3.137   4.028   0.860  0.1192  0.9220 -0.4676
16050SOL    HW259370   3.037   3.966   0.748 -0.7415 -0.6266  1.1292
16051SOL     OW59371   1.472   2.758   1.455  0.1628 -0.2635  0.9799
16051SOL    HW159372   1.413   2.775   1.375  1.5629 -0.4348 -0.1050
16051SOL    HW259373   1.456   2.830   1.523  0.8374  1.3995 -0.5544
16052SOL     OW59374   9.679   2.053   1.751  0.3074 -1.0959 -0.3605
16052SOL    HW159375   9.709   2.101   1.669  0.5146 -0.7941 -0.1125
16052SOL    HW259376   9.581   2.066   1.763  0.6113  0.5418  0.5190
16053SOL     OW59377   3.793   7.113   0.433 -0.0589  0.3045 -0.0971
16053SOL    HW159378   3.847   7.188   0.396  1.6259 -0.6746  0.3210
16053SOL    HW259379   3.755   7.059   0.358  3.2115 -1.5803 -0.4952
16054SOL     OW59380   0.130   5.135   4.878  0.7317  0.1573 -0.1562
16054SOL    HW159381   0.186   5.052   4.878 -0.6010 -0.7701  0.3651
16054SOL    HW259382   0.090   5.148   4.969 -2.3021 -0.9013 -1.2638
16055SOL     OW59383   8.776   8.692   3.774 -0.2435 -0.9687 -0.0252
16055SOL    HW159384   8.794   8.722   3.867 -0.5001 -2.6988  0.5998
16055SOL    HW259385   8.687   8.645   3.770  0.1787 -1.7193 -0.9422
16056SOL     OW59386   7.213   5.118   2.226  0.2156  0.0442  0.2885
16056SOL    HW159387   7.129   5.166   2.200  0.2100 -0.4806 -0.6824
16056SOL    HW259388   7.266   5.096   2.144  0.0346 -1.9371  0.6587
16057SOL     OW59389   8.754   6.847   5.275 -0.3067  0.1286  0.0824
16057SOL    HW159390   8.836   6.842   5.218 -1.2837 -1.0440 -1.2276
16057SOL    HW259391   8.714   6.938   5.268  1.5045  1.1042  1.6528
16058SOL     OW59392   8.081   1.324   0.862  0.1749 -0.5545  0.0052
16058SOL    HW159393   8.066   1.418   0.834 -0.2266 -0.3234  0.9718
16058SOL    HW259394   8.026   1.262   0.806  0.5926 -0.2395 -0.7635
16059SOL     OW59395   7.443   8.020   4.081  0.2892 -0.2662  0.2749
16059SOL    HW159396   7.515   8.001   4.147  0.0472  0.6273  0.8092
16059SOL    HW259397   7.379   8.087   4.120 -0.5204 -0.6378 -0.3987
16060SOL     OW59398   9.550   4.649   3.262 -0.0764 -0.1856 -0.2019
16060SOL    HW159399   9.480   4.712   3.293  0.9458  0.5799  0.5716
16060SOL    HW259400   9.600   4.689   3.186 -0.4556 -0.7218 -0.7402
16061SOL     OW59401   0.280   7.934   3.285  0.4225  0.1511 -0.2540
16061SOL    HW159402   0.313   7.898   3.198 -0.5674  0.3689 -0.7268
16061SOL    HW259403   0.259   8.031   3.275  0.9965  0.3554  0.4307
16062SOL     OW59404   4.397   8.443   6.744  0.4107  0.6553  0.2066
16062SOL    HW159405   4.413   8.499   6.663  2.9560  0.0142  0.2281
16062SOL    HW259406   4.377   8.502   6.822 -0.7604  1.3302 -0.5780
16063SOL     OW59407   3.986   1.785   4.129 -0.3453  0.6258  0.1701
16063SOL    HW159408   3.945   1.751   4.214 -0.4356  0.1567 -0.0643
16063SOL    HW259409   4.060   1.848   4.152  1.8790 -2.0553  0.6453
16064SOL     OW59410   3.982   0.012   2.715  0.0866 -0.0817 -0.3590
16064SOL    HW159411   4.029  -0.027   2.794  0.3003  0.7509 -0.0792
16064SOL    HW259412   3.897  -0.038   2.699  0.8381 -1.3222 -0.6069
16065SOL     OW59413   0.843   5.158   1.010  0.7407 -0.0896  0.3158
16065SOL    HW159414   0.859   5.239   1.066  1.1795 -1.1707  1.7806
16065SOL    HW259415   0.795   5.089   1.064 -1.1031 -0.2056 -1.4181
16066SOL     OW59416   2.249   0.828   2.103 -0.4189 -0.3207 -0.0055
16066SOL    HW159417   2.293   0.739   2.118 -1.1982 -0.5410  1.0692
16066SOL    HW259418   2.238   0.875   2.191  0.0539  0.8719 -0.5783
16067SOL     OW59419   3.685   7.171   3.536 -0.1072 -0.1291  0.1309
16067SOL    HW159420   3.766   7.162   3.595 -0.9716  1.8637  1.6928
16067SOL    HW259421   3.618   7.102   3.562  0.1342 -0.2522  0.4379
16068SOL     OW59422   8.290   8.337   1.350 -0.0156 -0.7382  0.4562
16068SOL    HW159423   8.292   8.416   1.289 -0.3289 -1.4017 -0.4210
16068SOL    HW259424   8.316   8.365   1.442 -2.3517  0.8507  0.6720
16069SOL     OW59425   3.796   6.795   1.584  0.3425  0.5045 -0.7135
16069SOL    HW159426   3.801   6.895   1.578 -2.4889  0.6068 -1.9089
16069SOL    HW259427   3.758   6.769   1.673  1.1499  0.4525 -0.3720
16070SOL     OW59428   2.539   3.176   2.852 -0.0130  0.5454  0.6643
16070SOL    HW159429   2.564   3.145   2.944 -0.6385 -0.6074  0.4553
16070SOL    HW259430   2.607   3.146   2.786 -0.3691  0.0257  0.5308
16071SOL     OW59431   0.001   5.995   1.360 -0.0168 -0.3240 -0.0497
16071SOL    HW159432  -0.008   5.928   1.286 -3.5792  0.4246 -0.4031
16071SOL    HW259433   0.012   5.947   1.447  0.4005 -1.2834 -0.6223
16072SOL     OW59434   9.875   2.724   5.055 -0.4426  0.1318  0.6912
16072SOL    HW159435   9.875   2.817   5.092 -1.7749  0.4704 -0.1220
16072SOL    HW259436   9.950   2.714   4.990  1.5017 -0.2654  2.9048
16073SOL     OW59437   6.401   9.623   7.128  0.8330  0.4411  0.3345
16073SOL    HW159438   6.420   9.526   7.140 -0.6265  0.2878  1.5512
16073SOL    HW259439   6.483   9.669   7.093  2.0514 -0.9289  1.3120
16074SOL     OW59440   2.481   7.304   5.829 -0.1924 -0.9710  0.0126
16074SOL    HW159441   2.532   7.370   5.774 -0.4921 -2.1691 -1.7337
16074SOL    HW259442   2.399   7.348   5.865  1.2729  0.5350  1.5960
16075SOL     OW59443   4.865   5.318   1.546 -0.4918 -0.6119  0.0087
16075SOL    HW159444   4.831   5.311   1.639  0.0881  0.6104  0.3146
16075SOL    HW259445   4.788   5.335   1.484 -0.6132  0.7047  0.5186
16076SOL     OW59446   9.198   9.268   5.594 -0.0198 -0.1652  0.1711
16076SOL    HW159447   9.162   9.288   5.685  0.1576 -2.4395  0.7610
16076SOL    HW259448   9.294   9.296   5.589 -0.3124  0.8941  0.3362
16077SOL     OW59449   8.999   9.938   6.372 -1.0162 -0.0376  0.2349
16077SOL    HW159450   8.915   9.950   6.318  0.0989  1.8778 -1.1293
16077SOL    HW259451   9.044   9.853   6.345 -0.6250  0.7537 -1.6854
16078SOL     OW59452   5.423   9.817   3.212 -0.1529 -0.3985  0.2431
16078SOL    HW159453   5.324   9.817   3.226  0.0166 -0.1053  1.4569
16078SOL    HW259454   5.443   9.793   3.117 -1.3766 -0.7128  0.0598
16079SOL     OW59455   7.631   2.708   3.390 -0.5737 -0.0339  0.7546
16079SOL    HW159456   7.637   2.612   3.416  2.2626  0.7088  3.1085
16079SOL    HW259457   7.550   2.749   3.432 -1.1721 -1.1091  0.6636
16080SOL     OW59458   8.607   4.682   1.135 -0.2590 -0.0748  0.2737
16080SOL    HW159459   8.597   4.624   1.216  1.0478 -1.1161 -0.2708
16080SOL    HW259460   8.680   4.644   1.078 -0.3050  1.3817 -0.7483
16081SOL     OW59461   1.850   6.238   3.066  0.1830 -0.2728  0.4805
16081SOL    HW159462   1.787   6.279   2.999  0.4354 -0.4245  0.1473
16081SOL    HW259463   1.904   6.310   3.109  1.5990 -0.3592 -1.0977
16082SOL     OW59464   4.311   1.387   0.535  0.3879 -0.2111 -0.2303
16082SOL    HW159465   4.384   1.444   0.573  1.7156 -1.5164 -0.7442
16082SOL    HW259466   4.293   1.414   0.440  0.5832 -0.2397 -0.2755
16083SOL     OW59467   5.207   4.476   7.909  0.0447  0.2794 -0.1988
16083SOL    HW159468   5.276   4.483   7.981  2.3141  0.0377 -2.2667
16083SOL    HW259469   5.202   4.381   7.877 -1.4917  0.2368  0.1460
16084SOL     OW59470   0.694   9.135   5.447  1.1161 -0.1407 -0.5667
16084SOL    HW159471   0.742   9.124   5.534  0.8468  1.0889 -0.2528
16084SOL    HW259472   0.706   9.229   5.414 -3.2584  1.0943  0.8854
16085SOL     OW59473   1.582   9.131   2.259 -0.3959 -0.2941  0.3748
16085SOL    HW159474   1.587   9.209   2.322  1.4616  0.3131 -0.4935
16085SOL    HW259475   1.512   9.148   2.190 -0.2412  0.4503  0.3961
16086SOL     OW59476   9.347   0.152   6.019 -0.3756 -0.3796 -0.6041
16086SOL    HW159477   9.434   0.199   6.001 -0.4087 -0.1084 -0.0611
16086SOL    HW259478   9.309   0.118   5.933  0.9244 -1.6594 -0.7014
16087SOL     OW59479   9.920   3.515   8.097  0.7600  0.4149 -0.2854
16087SOL    HW159480   9.838   3.494   8.151  0.5790  2.2448  0.1786
16087SOL    HW259481   9.931   3.614   8.090  3.0393  0.1942 -0.1961
16088SOL     OW59482   1.011   6.026   4.218 -0.6295  0.3768  0.3376
16088SOL    HW159483   0.971   6.043   4.308 -0.4465 -1.1893  0.7256
16088SOL    HW259484   1.099   5.981   4.229  0.0868  1.5090 -0.5967
16089SOL     OW59485   9.956   3.033   4.654  0.6205  0.6083  0.4081
16089SOL    HW159486   9.955   2.933   4.649  0.6548  0.5876  0.8090
16089SOL    HW259487  10.041   3.067   4.612 -0.2354  0.5750 -1.4112
16090SOL     OW59488   0.684   5.208   3.708  0.0652  0.0943 -0.3795
16090SOL    HW159489   0.588   5.227   3.685  0.1246 -2.1089 -2.7142
16090SOL    HW259490   0.744   5.254   3.642  0.5200 -0.3991 -0.3151
16091SOL     OW59491   2.220   7.195   2.501 -0.3431 -0.3959 -0.2842
16091SOL    HW159492   2.199   7.246   2.418  1.0573  1.2538  0.3517
16091SOL    HW259493   2.144   7.133   2.522 -2.2143  1.6261 -0.8906
16092SOL     OW59494   0.167   9.467   0.814 -0.2112 -0.7293  0.8053
16092SOL    HW159495   0.209   9.558   0.806  0.4574 -1.0715  0.4205
16092SOL    HW259496   0.080   9.467   0.764  0.2157 -0.5643  0.0596
16093SOL     OW59497   1.138   3.644   4.999  0.6697 -0.5284  0.0143
16093SOL    HW159498   1.074   3.711   5.037  0.1397 -1.7274  1.2591
16093SOL    HW259499   1.105   3.614   4.909 -0.5346 -1.1489  0.6532
16094SOL     OW59500   2.133   2.253   0.740  0.0279  0.2406 -0.4372
16094SOL    HW159501   2.129   2.166   0.789  1.7297 -0.7736 -2.0428
16094SOL    HW259502   2.218   2.301   0.763  0.2390  0.3424 -1.3983
16095SOL     OW59503   3.646   9.280   3.987  0.1281  0.0514 -0.3360
16095SOL    HW159504   3.699   9.347   3.935  1.0287 -0.9547 -0.7408
16095SOL    HW259505   3.643   9.307   4.083  1.3734  0.1416 -0.3158
16096SOL     OW59506   7.663   2.673   6.197  0.2556  0.5437 -0.3743
16096SOL    HW159507   7.678   2.722   6.111 -0.4124 -0.7363 -1.2471
16096SOL    HW259508   7.573   2.628   6.194 -0.3439  1.5822  1.5301
16097SOL     OW59509   5.242   6.035   0.737 -0.0767 -0.4040 -0.1775
16097SOL    HW159510   5.242   5.937   0.721  2.8191 -0.6654  1.2433
16097SOL    HW259511   5.151   6.064   0.768 -0.4591 -2.9009  1.0825
16098SOL     OW59512   9.433   4.358   2.164  0.0728 -0.4832 -0.4081
16098SOL    HW159513   9.493   4.426   2.123 -1.2325  0.5906 -0.5435
16098SOL    HW259514   9.394   4.300   2.093  0.4402 -0.7784 -0.3734
16099SOL     OW59515   1.599   1.680   5.461  0.2975  0.0461 -0.3885
16099SOL    HW159516   1.623   1.756   5.401 -2.0407  0.5745 -0.7184
16099SOL    HW259517   1.527   1.626   5.418 -0.2098 -0.5658  1.2047
16100SOL     OW59518   4.333   3.742   7.544  0.1875 -0.2201  0.2602
16100SOL    HW159519   4.257   3.760   7.607  1.8059  0.9123  1.9136
16100SOL    HW259520   4.380   3.828   7.523  1.9479 -1.1212  0.4610
16101SOL     OW59521   7.261   4.450   1.018 -0.5946  0.3543 -0.0002
16101SOL    HW159522   7.166   4.478   1.012 -0.2118  1.6058 -0.4260
16101SOL    HW259523   7.320   4.532   1.017  0.4501 -0.3801  0.7013
16102SOL     OW59524   0.376   6.124   3.442 -0.0803  0.2009  0.5921
16102SOL    HW159525   0.324   6.047   3.479 -2.1571  0.0085 -2.5554
16102SOL    HW259526   0.462   6.090   3.403 -0.1940 -0.3005  0.7760
16103SOL     OW59527   8.931   0.749   2.234  0.4167  0.5314  0.0413
16103SOL    HW159528   8.949   0.716   2.326 -1.4981 -0.7268 -0.0123
16103SOL    HW259529   9.003   0.716   2.172  1.9435  1.7567  1.1496
16104SOL     OW59530   3.933   7.282   1.063 -0.0192 -0.4950 -0.2455
16104SOL    HW159531   3.865   7.248   0.997 -0.0876 -1.3948  0.2831
16104SOL    HW259532   3.898   7.269   1.156  0.2612  0.3821 -0.0152
16105SOL     OW59533   7.567   0.144   5.153 -0.6696 -1.0023 -0.8001
16105SOL    HW159534   7.581   0.052   5.116 -0.5237 -1.9196  1.4822
16105SOL    HW259535   7.501   0.140   5.228 -1.2592  0.8841 -1.2139
16106SOL     OW59536   6.515   7.502   6.652  0.9372 -0.0029  0.0404
16106SOL    HW159537   6.564   7.532   6.733  1.7731 -0.8442 -0.1381
16106SOL    HW259538   6.435   7.560   6.638  1.5502  1.0150  0.6711
16107SOL     OW59539   1.319   7.079   4.458  0.0580  0.0153  0.1068
16107SOL    HW159540   1.354   7.163   4.417  4.6335 -0.8505  1.8542
16107SOL    HW259541   1.296   7.095   4.554 -1.1086 -0.2248 -0.1317
16108SOL     OW59542   4.324   7.032   3.664 -0.3097  0.4690 -0.0777
16108SOL    HW159543   4.295   6.937   3.651 -1.9927  1.0940 -1.0012
16108SOL    HW259544   4.372   7.064   3.583 -0.0178  0.5076  0.1099
16109SOL     OW59545   4.678   0.167   2.943  0.2263  0.2241 -0.1247
16109SOL    HW159546   4.657   0.173   3.040 -0.1123 -1.6060 -0.0823
16109SOL    HW259547   4.729   0.083   2.924 -0.0740  0.3491 -1.5936
16110SOL     OW59548   5.354   9.006   4.925  0.1727 -0.4919  0.5071
16110SOL    HW159549   5.398   9.047   5.006 -0.5010 -0.5596  0.9130
16110SOL    HW259550   5.258   8.987   4.946 -0.2746  0.4490 -0.6578
16111SOL     OW59551   8.909   5.266   4.515  0.0909 -0.1007 -0.4091
16111SOL    HW159552   8.922   5.337   4.584  1.3850  0.4572 -1.2366
16111SOL    HW259553   8.915   5.176   4.559 -2.2979  0.2578  0.7745
16112SOL     OW59554   2.767   3.500   0.401 -0.7812  0.1375  0.5981
16112SOL    HW159555   2.717   3.450   0.472 -1.3409 -2.3633 -1.4811
16112SOL    HW259556   2.730   3.476   0.311  1.3930  1.5153 -0.7061
16113SOL     OW59557   4.197   9.088   3.739 -0.1208 -0.3243 -1.0472
16113SOL    HW159558   4.267   9.047   3.797  0.7968  1.9433 -0.5009
16113SOL    HW259559   4.111   9.095   3.790 -0.0657 -0.8231 -0.8841
16114SOL     OW59560   9.941   2.508   4.758 -0.4704  0.3378  0.1342
16114SOL    HW159561   9.904   2.430   4.808 -0.7763  0.6820  0.4428
16114SOL    HW259562  10.023   2.542   4.804  0.5123 -0.6942 -0.7804
16115SOL     OW59563   1.507   3.364   1.233 -0.3565  0.1632 -0.4173
16115SOL    HW159564   1.468   3.413   1.311  0.4467  1.1636 -0.6320
16115SOL    HW259565   1.549   3.429   1.170 -1.5945 -0.5580 -2.0380
16116SOL     OW59566   8.115   9.992   3.811  0.1024  0.3983  0.1208
16116SOL    HW159567   8.102   9.893   3.821 -1.1012  0.4880 -0.4130
16116SOL    HW259568   8.064  10.025   3.731  1.9398  1.1774 -0.7580
16117SOL     OW59569   5.697   0.713   6.405  0.3786 -0.2921  0.5406
16117SOL    HW159570   5.645   0.668   6.333  0.3426  0.4449  0.0954
16117SOL    HW259571   5.749   0.789   6.365  2.2240 -1.3579  0.8795
16118SOL     OW59572   1.742   5.495   2.733 -0.1273 -0.6085  0.2406
16118SOL    HW159573   1.822   5.528   2.683 -1.1421 -0.2333 -1.1899
16118SOL    HW259574   1.717   5.404   2.701 -0.5292 -0.5365  0.3345
16119SOL     OW59575   0.742   7.766   2.991 -0.1830  0.0480 -0.0861
16119SOL    HW159576   0.684   7.698   3.034 -1.5942 -0.2542 -2.4078
16119SOL    HW259577   0.796   7.723   2.918  0.2932  1.0290 -0.3209
16120SOL     OW59578   0.660   4.801   2.750 -0.2227  0.6073 -0.0753
16120SOL    HW159579   0.677   4.845   2.662 -1.1447 -0.6223 -0.8874
16120SOL    HW259580   0.563   4.803   2.771 -0.2816 -0.9266 -0.0942
16121SOL     OW59581   2.711   8.703   0.355  0.0483  0.5543  0.2963
16121SOL    HW159582   2.688   8.606   0.350 -0.3286  0.5991  1.1412
16121SOL    HW259583   2.771   8.720   0.432 -0.7637  1.1584  0.8057
16122SOL     OW59584   0.613   0.139   4.645 -0.8513 -0.1683  0.0137
16122SOL    HW159585   0.701   0.100   4.671 -0.5293 -1.1387 -2.4016
16122SOL    HW259586   0.541   0.100   4.702  0.1468 -0.0796  1.3635
16123SOL     OW59587   8.303   3.736   0.946  0.4325  0.0132  0.2309
16123SOL    HW159588   8.253   3.755   1.030  0.0628  0.9747 -0.1970
16123SOL    HW259589   8.316   3.821   0.895 -0.3119 -0.7179 -1.2074
16124SOL     OW59590   4.054   3.761   3.982 -0.7421  0.6176 -0.3136
16124SOL    HW159591   4.124   3.764   4.053 -1.3517 -0.5569  0.3529
16124SOL    HW259592   3.991   3.838   3.993 -1.3684 -0.0491  1.0052
16125SOL     OW59593   1.709   2.162   3.367 -0.2454 -0.1655  0.0775
16125SOL    HW159594   1.760   2.111   3.436 -2.0611  0.5741  1.9900
16125SOL    HW259595   1.699   2.106   3.285 -0.1034 -1.9397  1.2489
16126SOL     OW59596   1.251   9.379   4.563  0.2298 -0.1055  0.4329
16126SOL    HW159597   1.337   9.384   4.612  1.0785  0.5159 -1.0773
16126SOL    HW259598   1.265   9.407   4.468 -1.2106 -2.0272 -0.3841
16127SOL     OW59599   6.185   4.923   2.144  0.7770 -0.3759  0.3138
16127SOL    HW159600   6.144   5.001   2.191  0.6724 -0.0659 -0.2867
16127SOL    HW259601   6.280   4.944   2.121  0.0143  0.6144 -2.1638
16128SOL     OW59602   7.497   4.292   3.774  0.4024 -0.1481 -0.2158
16128SOL    HW159603   7.576   4.282   3.713  0.6687 -0.8784  0.2348
16128SOL    HW259604   7.525   4.273   3.868 -0.4245 -0.9856 -0.1262
16129SOL     OW59605   5.018   9.305   3.913 -0.0049 -0.1898 -0.1908
16129SOL    HW159606   5.024   9.285   4.011  1.1597 -0.3068 -0.2687
16129SOL    HW259607   4.986   9.223   3.865 -0.1243 -0.2816  0.0414
16130SOL     OW59608   1.289   7.571   0.032 -0.2193  0.1528  0.1075
16130SOL    HW159609   1.324   7.560  -0.062 -0.0987  0.6706  0.0881
16130SOL    HW259610   1.270   7.668   0.048 -2.1669 -0.1853 -0.0622
16131SOL     OW59611   7.943   1.191   0.532  0.9582  0.1065  0.3204
16131SOL    HW159612   7.879   1.268   0.533 -0.3856 -0.9994  0.6360
16131SOL    HW259613   7.926   1.133   0.612  2.1186 -0.3975  0.2084
16132SOL     OW59614   4.903   1.761   2.025 -0.2535 -0.1004  0.2460
16132SOL    HW159615   4.823   1.705   2.048 -1.2649  1.3756  0.4305
16132SOL    HW259616   4.943   1.728   1.939 -2.2861  0.3857 -0.9215
16133SOL     OW59617   2.000   2.740   4.139 -0.1030 -0.0270 -0.1603
16133SOL    HW159618   1.985   2.675   4.065 -0.0907  1.1442 -1.2044
16133SOL    HW259619   1.932   2.724   4.211 -0.7531 -0.5190 -0.8683
16134SOL     OW59620   2.475   9.406   3.715 -0.4979  0.3642 -0.3175
16134SOL    HW159621   2.435   9.385   3.804  0.1836 -0.7320 -0.2485
16134SOL    HW259622   2.575   9.396   3.720 -0.4282  0.6082 -1.1112
16135SOL     OW59623   1.368   1.451   3.871 -0.2953 -0.6713 -0.1403
16135SOL    HW159624   1.280   1.487   3.840 -0.1070 -1.1612 -1.2510
16135SOL    HW259625   1.414   1.520   3.927 -0.7593  0.1316 -0.7389
16136SOL     OW59626   6.349   8.786   5.289  0.0863  0.0197  0.3666
16136SOL    HW159627   6.404   8.857   5.247  2.7921 -1.7759  0.7643
16136SOL    HW259628   6.369   8.698   5.246 -1.8835 -0.8103  1.0751
16137SOL     OW59629   5.013   5.165   1.278  0.0305  0.2017  0.5848
16137SOL    HW159630   4.940   5.158   1.209  0.2134 -1.6959  0.5581
16137SOL    HW259631   4.974   5.196   1.364 -0.3697  1.6598 -0.0965
16138SOL     OW59632   1.458   1.339   1.863  0.1946  0.3034 -0.3020
16138SOL    HW159633   1.378   1.285   1.837 -0.3358  0.4648  0.9537
16138SOL    HW259634   1.521   1.281   1.915 -0.2733  0.8198  0.8609
16139SOL     OW59635   1.933   5.479   1.518 -0.1471  0.5603  0.4017
16139SOL    HW159636   1.974   5.544   1.454 -0.3345  0.4328  0.1529
16139SOL    HW259637   1.911   5.526   1.604  1.4020  0.4142  0.8880
16140SOL     OW59638   0.555   3.052   1.313  0.0138 -0.1641 -0.0034
16140SOL    HW159639   0.610   3.044   1.229 -0.4781 -2.6116 -0.1240
16140SOL    HW259640   0.485   2.981   1.314 -1.7471  1.5321  1.2220
16141SOL     OW59641   2.369   2.541   5.566  0.2448 -0.3102 -0.0039
16141SOL    HW159642   2.374   2.448   5.603  2.4404  0.0207  0.6095
16141SOL    HW259643   2.302   2.544   5.492  0.6323 -2.5406 -0.4808
16142SOL     OW59644   2.505   1.420   5.725  0.4921  0.9428  0.3047
16142SOL    HW159645   2.534   1.324   5.727 -0.1219  0.7586  0.3252
16142SOL    HW259646   2.443   1.438   5.802 -0.2708  1.0762 -0.3382
16143SOL     OW59647   4.552   6.592   0.834  0.5257 -0.2933  0.4192
16143SOL    HW159648   4.516   6.503   0.806 -0.9753  0.5244 -0.3126
16143SOL    HW259649   4.651   6.594   0.819  0.3060 -1.2040 -1.3115
16144SOL     OW59650   8.600   0.897   5.629  0.0221 -0.2082  0.1568
16144SOL    HW159651   8.656   0.921   5.549  0.8880 -1.7632  0.2747
16144SOL    HW259652   8.621   0.960   5.704 -0.7634  1.2376 -0.7981
16145SOL     OW59653   6.416   0.070   2.048 -0.4898  0.2310  0.8457
16145SOL    HW159654   6.455   0.006   2.114 -0.0122 -0.6583 -0.2877
16145SOL    HW259655   6.489   0.113   1.995 -0.9133  0.3488  0.3490
16146SOL     OW59656   6.542   9.476   4.558  0.0483 -0.0260  0.4390
16146SOL    HW159657   6.547   9.435   4.467 -3.1521  0.0620  0.1652
16146SOL    HW259658   6.535   9.404   4.627  0.1220 -0.0560  0.4140
16147SOL     OW59659   0.919   5.325   1.227  0.3003 -0.3835 -0.8675
16147SOL    HW159660   0.985   5.392   1.262  0.6780 -1.2701  0.1553
16147SOL    HW259661   0.849   5.307   1.297  2.0127 -3.4394  0.1727
16148SOL     OW59662   7.154   0.876   5.320 -0.6042  0.0018  0.0295
16148SOL    HW159663   7.142   0.967   5.279 -1.8447 -0.4759 -0.7034
16148SOL    HW259664   7.245   0.841   5.297 -1.3072 -0.2898 -2.3992
16149SOL     OW59665   1.207   1.206   3.263 -0.0853 -0.0975 -0.5145
16149SOL    HW159666   1.175   1.219   3.356 -1.3785  0.4978 -1.0268
16149SOL    HW259667   1.165   1.123   3.225  0.0881 -0.0903 -0.7225
16150SOL     OW59668   2.422   5.371   4.503 -0.0297  0.1270  0.3523
16150SOL    HW159669   2.431   5.422   4.588 -1.3406  0.2455  0.4325
16150SOL    HW259670   2.328   5.378   4.470  0.5800  0.4796 -1.3602
16151SOL     OW59671   0.738   6.070   0.194 -0.4228 -0.3685 -0.0971
16151SOL    HW159672   0.802   5.994   0.201  2.8567  2.3921  1.3266
16151SOL    HW259673   0.756   6.122   0.110 -0.2139  0.9037  0.7177
16152SOL     OW59674   5.735   7.972   5.746 -0.5016  0.1304  0.1428
16152SOL    HW159675   5.796   7.927   5.811  0.4479  0.3524 -0.5965
16152SOL    HW259676   5.774   8.059   5.717 -2.2093  1.3664  1.3698
16153SOL     OW59677   3.851   1.735   6.054 -0.1412 -0.3732  0.9078
16153SOL    HW159678   3.878   1.644   6.085  1.6755 -0.1981 -0.0717
16153SOL    HW259679   3.842   1.734   5.954  2.5910  1.1525  0.5947
16154SOL     OW59680   2.853   7.369   2.023 -0.3077  0.4067  0.3191
16154SOL    HW159681   2.837   7.332   1.932  0.2049  1.8532 -0.3671
16154SOL    HW259682   2.941   7.416   2.025 -0.0705 -0.0579  1.7080
16155SOL     OW59683   1.663   7.246   4.685  0.1600  0.1882 -0.1936
16155SOL    HW159684   1.635   7.151   4.673 -0.9568  0.4351  0.4589
16155SOL    HW259685   1.590   7.298   4.729  1.1619  1.1136  0.4211
16156SOL     OW59686   2.157   9.340   5.296 -0.3970  0.0291 -0.4981
16156SOL    HW159687   2.145   9.327   5.198 -0.1496 -1.0626 -0.3953
16156SOL    HW259688   2.068   9.361   5.338 -0.2877  1.8342 -1.1336
16157SOL     OW59689   6.264   8.394   5.094  0.7094 -0.0237 -0.1693
16157SOL    HW159690   6.165   8.404   5.078  0.5844  0.8952  1.1187
16157SOL    HW259691   6.290   8.299   5.077 -0.5670 -0.4879  0.3634
16158SOL     OW59692   4.613   8.303   4.531  0.2596  0.5221 -0.2660
16158SOL    HW159693   4.527   8.292   4.481 -0.0978  0.4085  0.3736
16158SOL    HW259694   4.658   8.214   4.541 -2.3613 -0.4179  4.4193
16159SOL     OW59695   6.902   1.225   2.503 -0.5322 -0.1005 -0.0460
16159SOL    HW159696   6.962   1.209   2.582  0.3724  0.4062 -0.6157
16159SOL    HW259697   6.875   1.321   2.500 -2.3212 -0.5584  0.8485
16160SOL     OW59698   8.172   9.730   3.385 -0.2749 -0.3105  0.2750
16160SOL    HW159699   8.228   9.721   3.303 -2.4161  1.6035 -1.4511
16160SOL    HW259700   8.229   9.766   3.460  0.4338  3.3919 -1.9381
16161SOL     OW59701   7.509   2.264   1.281 -0.3528  0.2027  0.1015
16161SOL    HW159702   7.431   2.317   1.313  0.8941  0.5112  2.7539
16161SOL    HW259703   7.490   2.166   1.292 -0.0587  0.2971  1.5814
16162SOL     OW59704   3.736   5.638   2.286  0.5066  0.2891  0.3707
16162SOL    HW159705   3.695   5.724   2.256  0.4360  0.2440  0.3367
16162SOL    HW259706   3.781   5.593   2.209  0.9554  0.5256  0.4949
16163SOL     OW59707   0.420   1.995   6.151  0.1351 -0.2279 -0.2915
16163SOL    HW159708   0.333   2.030   6.186 -0.0651 -0.9187 -0.0883
16163SOL    HW259709   0.427   2.017   6.053  0.0436  0.4278 -0.1582
16164SOL     OW59710   6.542   1.973   3.837  0.2815  0.9208  0.2467
16164SOL    HW159711   6.487   1.894   3.864  0.0833  1.2320  0.7494
16164SOL    HW259712   6.620   1.982   3.898  1.0471  0.3174 -0.6360
16165SOL     OW59713   4.192   2.390   0.658 -0.0247 -0.5799  0.0049
16165SOL    HW159714   4.218   2.427   0.747 -0.6544  0.0927 -0.0975
16165SOL    HW259715   4.220   2.453   0.586  0.4015 -1.0797 -0.2746
16166SOL     OW59716   2.259   0.081   6.190  0.1164  0.5132 -0.3219
16166SOL    HW159717   2.273   0.087   6.289  3.3196 -0.6016 -0.6772
16166SOL    HW259718   2.310   0.155   6.145 -1.2915  0.9883 -1.1722
16167SOL     OW59719   8.160   4.038   1.285  0.6893 -0.2400  0.1593
16167SOL    HW159720   8.256   4.024   1.261  0.9087 -0.0762  0.9247
16167SOL    HW259721   8.148   4.129   1.323  0.2679 -0.3370  0.2601
16168SOL     OW59722   8.925   8.936   3.352 -0.0941  0.1093 -0.2556
16168SOL    HW159723   8.981   8.899   3.278 -0.0901 -0.0235 -0.1876
16168SOL    HW259724   8.896   8.861   3.412  1.1170  0.3934  0.7101
16169SOL     OW59725   3.641   1.330   4.614  0.1808 -0.0784 -0.0036
16169SOL    HW159726   3.565   1.372   4.563 -0.2274 -0.9232 -0.1011
16169SOL    HW259727   3.716   1.396   4.622 -0.6039  0.8033  0.1878
16170SOL     OW59728   3.376   2.030   0.036  0.0639  0.0649  0.8009
16170SOL    HW159729   3.282   2.005   0.060  0.0275  1.4449  2.2576
16170SOL    HW259730   3.438   1.955   0.057 -0.7594 -1.0334 -0.6201
16171SOL     OW59731   7.087   8.343   2.989  0.4267 -0.0606  0.6207
16171SOL    HW159732   7.089   8.424   3.048  1.4032  0.4938 -0.1660
16171SOL    HW259733   7.149   8.273   3.026  0.5850  0.0581  0.5817
16172SOL     OW59734   8.342   6.664   6.091  0.7729  0.4499 -1.0480
16172SOL    HW159735   8.441   6.666   6.100  0.8229  0.2680 -1.5415
16172SOL    HW259736   8.301   6.734   6.150  1.1734  0.3029 -0.5942
16173SOL     OW59737   5.507   8.087   4.158 -0.0818  0.4234 -0.0927
16173SOL    HW159738   5.438   8.033   4.109  0.8123 -1.2302  0.4419
16173SOL    HW259739   5.588   8.032   4.173  0.7059  1.8056  0.8400
16174SOL     OW59740   2.366   0.304   2.905 -0.4818 -0.4912 -0.1289
16174SOL    HW159741   2.354   0.238   2.831 -0.3604 -0.9631  0.2680
16174SOL    HW259742   2.327   0.392   2.878  0.0743 -0.4972 -0.9784
16175SOL     OW59743   5.694   2.423   4.213 -0.3381 -0.0080  0.2490
16175SOL    HW159744   5.611   2.476   4.231 -0.8010 -0.7071  0.1643
16175SOL    HW259745   5.727   2.443   4.121  0.2737  1.1898  0.7126
16176SOL     OW59746   8.270   5.897   2.173 -0.5184  0.1194  0.6302
16176SOL    HW159747   8.294   5.800   2.161  0.5380  0.2001  1.9784
16176SOL    HW259748   8.186   5.903   2.227 -2.2239 -0.0903 -1.8853
16177SOL     OW59749   1.847   9.798   5.595 -0.2117 -0.0825  0.1955
16177SOL    HW159750   1.868   9.879   5.541 -0.5602 -0.4659 -0.5103
16177SOL    HW259751   1.890   9.807   5.685 -0.8755  1.2133  0.3903
16178SOL     OW59752   5.357   9.376   4.525  0.1743  0.0136  0.2645
16178SOL    HW159753   5.277   9.392   4.466  0.3267  2.0308  0.5780
16178SOL    HW259754   5.434   9.347   4.469 -0.3101 -0.3142 -0.2437
16179SOL     OW59755   4.565   0.633   2.036 -0.1591 -0.0536  0.5815
16179SOL    HW159756   4.481   0.623   1.982 -0.6200 -2.2615  1.6243
16179SOL    HW259757   4.641   0.655   1.976 -1.5182  2.2180 -0.3661
16180SOL     OW59758   7.527   0.055   1.784  0.2160 -0.2004  0.2640
16180SOL    HW159759   7.535   0.012   1.874 -0.1071 -0.1753  0.3045
16180SOL    HW259760   7.437   0.098   1.775  0.2681 -0.1554 -0.0501
16181SOL     OW59761   2.562   1.994   4.014  0.5398  0.4054 -0.3027
16181SOL    HW159762   2.511   2.080   4.021 -0.3640  0.0436 -2.2895
16181SOL    HW259763   2.525   1.929   4.080 -0.2596  0.8034 -0.3495
16182SOL     OW59764   8.586   5.827   2.895 -0.2540 -0.0614  0.0178
16182SOL    HW159765   8.529   5.901   2.931 -0.2065 -0.4972  1.0043
16182SOL    HW259766   8.587   5.751   2.960 -0.5814 -1.0718 -1.1468
16183SOL     OW59767   1.034   6.074   1.438  0.1959  0.4716  0.3147
16183SOL    HW159768   0.964   6.038   1.499 -0.8070 -3.1462 -2.8211
16183SOL    HW259769   1.122   6.030   1.458 -0.7795 -3.0565 -2.7329
16184SOL     OW59770   9.439   5.988   4.026 -0.5354 -0.2627 -0.1205
16184SOL    HW159771   9.507   6.029   4.087  0.1573 -2.0687  0.3549
16184SOL    HW259772   9.375   6.059   3.996  0.8774  1.2581  0.3039
16185SOL     OW59773   4.139   5.293   1.609  0.2630 -0.5646 -0.9524
16185SOL    HW159774   4.158   5.387   1.579 -1.2157  0.0907  0.1064
16185SOL    HW259775   4.043   5.272   1.592  0.5574 -1.8517 -1.0522
16186SOL     OW59776   0.258   2.774   2.811  0.5286  0.1528 -0.1326
16186SOL    HW159777   0.245   2.696   2.872 -0.7621 -0.6837 -1.4641
16186SOL    HW259778   0.186   2.776   2.742  0.6582  2.4134 -0.2573
16187SOL     OW59779   8.491   7.234   5.611  0.3729  0.5187 -0.1186
16187SOL    HW159780   8.544   7.319   5.611 -0.1974  0.8889  1.4956
16187SOL    HW259781   8.395   7.255   5.629  0.4999 -0.6342  1.9871
16188SOL     OW59782   3.601   6.868   4.841 -0.2336 -0.3829 -0.0775
16188SOL    HW159783   3.587   6.828   4.932 -0.8067  1.2324  0.5655
16188SOL    HW259784   3.513   6.881   4.796 -0.0279 -0.1190 -0.4055
16189SOL     OW59785   9.642   2.205   0.268  0.4174 -0.4617  0.1774
16189SOL    HW159786   9.591   2.286   0.298  0.8444 -0.7609  1.7560
16189SOL    HW259787   9.580   2.127   0.263  0.5215 -0.6187  1.2062
16190SOL     OW59788   7.486   1.438   0.850 -0.6461  0.4206 -0.5379
16190SOL    HW159789   7.430   1.479   0.921 -0.9652  0.2156 -0.6685
16190SOL    HW259790   7.583   1.445   0.875 -0.7980 -0.3127  0.2605
16191SOL     OW59791   1.018   5.552   2.965 -0.3378 -0.4254 -0.5084
16191SOL    HW159792   1.083   5.512   2.901 -0.4960 -2.5989  0.6215
16191SOL    HW259793   0.958   5.480   3.001 -1.0295  0.9312  1.1452
16192SOL     OW59794   2.020   7.220   4.157 -0.0692 -0.7434 -0.7443
16192SOL    HW159795   1.973   7.155   4.216  2.0757 -0.9870  0.7501
16192SOL    HW259796   2.075   7.170   4.090  0.0292 -0.4720 -0.8665
16193SOL     OW59797   8.104   3.091   4.975  0.4210 -0.0816  0.3012
16193SOL    HW159798   8.192   3.130   5.001  0.6569 -0.0653 -0.4934
16193SOL    HW259799   8.032   3.158   4.991  0.3108 -0.6960  2.5747
16194SOL     OW59800   0.338   7.722   3.825 -0.3381  0.3615 -0.1163
16194SOL    HW159801   0.402   7.769   3.764  0.4499  0.4117  0.7289
16194SOL    HW259802   0.295   7.789   3.886 -0.0845  0.1421  0.3101
16195SOL     OW59803   4.767   2.972   0.885 -0.1913 -0.5900  0.2754
16195SOL    HW159804   4.824   3.014   0.814  0.8984 -2.2581  0.1448
16195SOL    HW259805   4.797   3.004   0.975  0.7755 -1.2802  0.1918
16196SOL     OW59806   3.831   6.213   3.590 -0.1592  0.0278  0.1591
16196SOL    HW159807   3.769   6.175   3.521  0.5343 -0.9053  0.0464
16196SOL    HW259808   3.787   6.290   3.635 -0.5126  0.8441 -1.5446
16197SOL     OW59809   6.337   9.320   2.894 -0.5114 -0.1103 -0.6209
16197SOL    HW159810   6.391   9.236   2.904  0.3883  0.3730 -1.3232
16197SOL    HW259811   6.296   9.344   2.982  2.2676  0.7292  0.5197
16198SOL     OW59812   3.871   7.434   5.648  0.3485  0.1766 -0.2562
16198SOL    HW159813   3.875   7.523   5.693  0.4441  0.6906 -1.2664
16198SOL    HW259814   3.796   7.381   5.687 -1.2067  1.5968 -1.2656
16199SOL     OW59815   8.051   5.370   4.242  0.6009  0.6323 -0.4507
16199SOL    HW159816   8.120   5.389   4.172 -0.1659  0.6783 -1.1996
16199SOL    HW259817   8.016   5.277   4.230  0.3390  0.7011 -0.2387
16200SOL     OW59818   2.355   4.388   0.699  0.4702  0.1335  0.5325
16200SOL    HW159819   2.404   4.382   0.612  0.2028  1.5589  0.2617
16200SOL    HW259820   2.262   4.353   0.687  1.7276 -3.6328  1.3344
16201SOL     OW59821   2.717   2.435   5.416 -0.4573 -0.2490 -0.0166
16201SOL    HW159822   2.766   2.391   5.342  0.4102  1.3529 -0.4114
16201SOL    HW259823   2.621   2.448   5.390 -0.3622 -0.5181 -0.4989
16202SOL     OW59824   0.709   5.143   4.352 -0.2973 -0.4197 -0.0342
16202SOL    HW159825   0.639   5.142   4.281  0.6507  1.8497 -1.0600
16202SOL    HW259826   0.771   5.220   4.336  3.2149 -3.1250  0.1010
16203SOL     OW59827   1.567   2.746   0.305 -0.0082  0.1700  0.3351
16203SOL    HW159828   1.506   2.821   0.280  1.1495  0.5240 -1.5631
16203SOL    HW259829   1.516   2.677   0.355 -2.1919  0.0290 -1.9715
16204SOL     OW59830   4.972   9.908   3.675  0.1710 -0.0663 -0.3348
16204SOL    HW159831   5.063   9.877   3.704  0.7892  0.7464 -1.3621
16204SOL    HW259832   4.929   9.957   3.751  0.3223 -1.0323  0.3756
16205SOL     OW59833   8.131   3.282   2.948  0.1171 -0.4356  0.1165
16205SOL    HW159834   8.107   3.322   2.859 -1.2095  1.1272  1.1420
16205SOL    HW259835   8.229   3.295   2.964 -0.0958  1.5454 -0.0344
16206SOL     OW59836   4.886   5.616   2.481 -0.3152  0.0001 -0.0089
16206SOL    HW159837   4.919   5.529   2.445  0.9269  1.4545 -2.4814
16206SOL    HW259838   4.946   5.690   2.450 -0.0862  1.5458  3.7842
16207SOL     OW59839   4.049   2.889   0.597  0.0099 -0.3208 -0.0407
16207SOL    HW159840   3.957   2.929   0.593  0.7148  1.2879 -0.8402
16207SOL    HW259841   4.043   2.790   0.585 -1.5290 -0.1186 -1.1400
16208SOL     OW59842   1.815   4.717   4.319 -0.2286 -0.1958 -0.0496
16208SOL    HW159843   1.781   4.691   4.229 -0.7924  1.8472 -0.4650
16208SOL    HW259844   1.739   4.754   4.374  0.4517  0.2419  0.6099
16209SOL     OW59845   2.762   0.961   1.851  0.4123 -0.2260 -0.4855
16209SOL    HW159846   2.819   0.879   1.838 -1.0588 -1.0336 -2.1377
16209SOL    HW259847   2.670   0.933   1.878 -0.2047  0.8588 -1.4256
16210SOL     OW59848   3.280   5.647   5.173  0.0247 -0.0161  0.2233
16210SOL    HW159849   3.316   5.671   5.083  0.9315  0.2803  0.6673
16210SOL    HW259850   3.181   5.634   5.166  0.2726 -1.4275 -1.1201
16211SOL     OW59851   4.399   1.180   0.695 -0.2245  0.2382  0.2623
16211SOL    HW159852   4.447   1.203   0.780  1.8867  2.4704 -1.4477
16211SOL    HW259853   4.342   1.257   0.667  3.2084  1.7366 -3.0423
16212SOL     OW59854   1.260   6.411   0.429 -0.8384 -0.3292  0.3811
16212SOL    HW159855   1.194   6.370   0.491 -2.8630  1.1833 -0.7007
16212SOL    HW259856   1.286   6.345   0.359 -0.2164 -1.3263  1.5269
16213SOL     OW59857   9.837   5.141   4.010  0.6781 -0.1308 -0.6366
16213SOL    HW159858   9.783   5.220   3.980 -2.1426 -1.0935  1.6554
16213SOL    HW259859   9.928   5.171   4.037  0.6840  1.8468 -2.7579
16214SOL     OW59860   2.062   7.185   0.793  0.5510  0.5709  0.5830
16214SOL    HW159861   2.053   7.101   0.845  1.3712  0.7253  0.9755
16214SOL    HW259862   2.159   7.207   0.780  0.4087  3.0487  3.0840
16215SOL     OW59863   0.615   8.478   4.516  0.0816 -0.5852 -0.0630
16215SOL    HW159864   0.692   8.476   4.579 -0.6484 -1.8457  0.8297
16215SOL    HW259865   0.646   8.507   4.425  1.3620  0.0809  0.5790
16216SOL     OW59866   1.688   3.087   1.561  0.0166 -0.3209 -0.2809
16216SOL    HW159867   1.719   3.064   1.469 -0.1624  0.2918 -0.4918
16216SOL    HW259868   1.713   3.181   1.583 -0.6474 -0.2054 -0.0024
16217SOL     OW59869   3.627   1.223   5.637  0.0820 -0.3912 -0.8149
16217SOL    HW159870   3.722   1.246   5.620  0.4635 -2.1001 -1.1285
16217SOL    HW259871   3.619   1.179   5.727  0.2338 -3.7199 -2.3425
16218SOL     OW59872   4.662   0.646   6.003 -0.3757 -0.3087 -0.3850
16218SOL    HW159873   4.694   0.570   6.059 -0.4504 -1.3038 -1.6748
16218SOL    HW259874   4.724   0.659   5.926 -1.5687 -0.4887 -1.3926
16219SOL     OW59875   6.301   1.362   2.553 -0.4728  0.0009  0.5901
16219SOL    HW159876   6.385   1.324   2.515 -0.5632 -0.0007  0.3907
16219SOL    HW259877   6.263   1.299   2.620  0.1118  0.3686  1.2672
16220SOL     OW59878   7.784   8.634   2.991 -0.3452  0.0766  0.2875
16220SOL    HW159879   7.877   8.626   3.029 -0.7027  1.3305  1.4740
16220SOL    HW259880   7.790   8.636   2.891  0.8112 -0.9841  0.3160
16221SOL     OW59881   4.670   9.065   5.239  0.0649  0.3318 -0.3360
16221SOL    HW159882   4.663   9.053   5.140  1.2470  0.0010 -0.3866
16221SOL    HW259883   4.600   9.129   5.270 -0.9798 -0.3641 -1.2337
16222SOL     OW59884   6.832   9.009   2.961  0.2925  0.0140  0.7136
16222SOL    HW159885   6.872   8.956   3.036  0.2645 -1.4987 -0.3113
16222SOL    HW259886   6.733   9.015   2.973 -0.3004 -3.9607 -1.4110
16223SOL     OW59887   1.336   2.315   2.813 -0.4603  0.0101 -0.5512
16223SOL    HW159888   1.301   2.245   2.751 -1.2920 -0.9697  0.9742
16223SOL    HW259889   1.265   2.337   2.881  0.9759 -0.1202  1.0126
16224SOL     OW59890   3.489   7.664   1.659  0.0465  0.2224 -0.1855
16224SOL    HW159891   3.481   7.757   1.625  2.4293  0.4050 -0.3469
16224SOL    HW259892   3.455   7.600   1.590 -0.7890  0.9307 -0.4302
16225SOL     OW59893   7.785   4.108   2.860  0.0597  0.0097  0.4932
16225SOL    HW159894   7.857   4.056   2.815 -0.2253 -0.6361  0.7648
16225SOL    HW259895   7.825   4.181   2.915  0.3886  1.0162 -1.0622
16226SOL     OW59896   9.906   7.585   4.097  0.3183  0.0394  0.4716
16226SOL    HW159897   9.918   7.684   4.087  0.0790 -0.0484 -0.7468
16226SOL    HW259898   9.814   7.566   4.134  0.0781  0.2409 -0.0160
16227SOL     OW59899   9.433   3.094   1.904 -0.1804  0.1431  0.0693
16227SOL    HW159900   9.497   3.017   1.902 -0.4656 -0.1299  0.8807
16227SOL    HW259901   9.351   3.071   1.853 -0.9799 -0.7621  1.7016
16228SOL     OW59902   7.774   5.280   0.137  0.4380  0.2399 -0.0195
16228SOL    HW159903   7.682   5.245   0.127  1.1276 -1.2539 -1.1587
16228SOL    HW259904   7.771   5.380   0.140 -1.4252  0.1628  2.2691
16229SOL     OW59905   4.648   6.568   1.433  0.7156  0.2897 -0.2095
16229SOL    HW159906   4.718   6.638   1.446  0.4722  0.4996 -0.0441
16229SOL    HW259907   4.588   6.565   1.512 -0.4297  1.2018 -1.0320
16230SOL     OW59908   1.246   2.947   3.406  0.1925  0.1178 -0.2028
16230SOL    HW159909   1.221   2.851   3.398 -0.1110  0.1438  0.4610
16230SOL    HW259910   1.311   2.959   3.481  0.4359  0.3902 -0.4562
16231SOL     OW59911   5.483   4.690   1.809  0.0589 -0.7120 -0.3041
16231SOL    HW159912   5.534   4.717   1.727  0.7143 -2.7541 -0.6023
16231SOL    HW259913   5.547   4.682   1.886 -0.0727 -1.6882 -0.2951
16232SOL     OW59914   1.920   8.883   6.399 -0.3377 -0.2968  0.0094
16232SOL    HW159915   1.994   8.844   6.345  0.0379 -2.3369  1.8939
16232SOL    HW259916   1.871   8.809   6.447 -0.7847  1.3700  2.2300
16233SOL     OW59917   9.802   8.139   2.405 -0.2103  0.4018 -0.3046
16233SOL    HW159918   9.845   8.119   2.317  1.1797  0.4597  0.3392
16233SOL    HW259919   9.715   8.184   2.391  0.2610  0.9001 -1.6486
16234SOL     OW59920   2.218   6.656   4.577 -0.3782 -0.1419 -0.3278
16234SOL    HW159921   2.143   6.608   4.532  1.4058 -0.7279 -2.7495
16234SOL    HW259922   2.301   6.648   4.522  0.9130  2.4912  1.1346
16235SOL     OW59923   2.423   9.157   5.780 -0.2740 -0.5320 -0.6229
16235SOL    HW159924   2.364   9.118   5.709 -1.4131 -0.9057  0.4998
16235SOL    HW259925   2.397   9.119   5.869 -0.1275  1.3395  0.2443
16236SOL     OW59926   4.986   8.606   3.023 -0.0277  0.3832 -0.7217
16236SOL    HW159927   4.921   8.568   3.089 -0.4055  1.3370 -0.5454
16236SOL    HW259928   5.033   8.531   2.976 -1.2600 -0.3175 -0.8570
16237SOL     OW59929   4.692   3.922   1.434  0.1714 -0.1980 -0.6979
16237SOL    HW159930   4.665   3.872   1.352  0.4916  3.1299 -2.9102
16237SOL    HW259931   4.787   3.900   1.457  0.0767 -1.1496 -1.2042
16238SOL     OW59932   6.197   1.253   3.887 -0.2984 -0.0700 -0.7226
16238SOL    HW159933   6.199   1.331   3.825 -1.5927 -0.6391 -1.5096
16238SOL    HW259934   6.114   1.199   3.870  0.8685 -1.9624 -0.6447
16239SOL     OW59935   2.050   8.050   6.073 -0.2078 -0.3278 -0.6891
16239SOL    HW159936   2.023   7.958   6.102 -0.9075 -0.0569 -0.4840
16239SOL    HW259937   1.972   8.096   6.031  0.0620  0.2965 -0.5021
16240SOL     OW59938   9.699   1.222   6.417 -0.5298  0.5176  0.0234
16240SOL    HW159939   9.656   1.225   6.327  0.3702  2.6908 -0.3607
16240SOL    HW259940   9.653   1.286   6.478 -0.0418  0.2926  0.6315
16241SOL     OW59941   6.932   1.359   1.084  0.0218  0.8513  0.3496
16241SOL    HW159942   7.013   1.370   1.026  0.0751  0.8475  0.4239
16241SOL    HW259943   6.901   1.265   1.080  0.6004  0.6244  1.0921
16242SOL     OW59944   3.361   8.758   3.299 -0.6517 -0.2984  1.0432
16242SOL    HW159945   3.302   8.837   3.282  0.1169 -0.1824 -1.2292
16242SOL    HW259946   3.427   8.782   3.371  0.8013  1.8352 -0.9254
16243SOL     OW59947   2.979   6.069   1.876  0.1754 -0.1132  0.1396
16243SOL    HW159948   3.030   6.154   1.861  0.5697 -0.0453  1.7687
16243SOL    HW259949   2.957   6.028   1.788  1.4685  0.8003 -0.6332
16244SOL     OW59950   2.669   2.840   1.464 -0.0049 -0.2004 -0.4369
16244SOL    HW159951   2.640   2.834   1.368 -0.4410  1.1638 -0.4013
16244SOL    HW259952   2.733   2.915   1.475 -0.8092  0.3613  0.5471
16245SOL     OW59953   3.972   4.618   3.690  0.2018  0.5874  0.2654
16245SOL    HW159954   3.997   4.533   3.643  1.4615 -0.2688  2.4199
16245SOL    HW259955   3.879   4.610   3.725  0.4490 -0.0978  0.8056
16246SOL     OW59956   9.194   0.053   5.058 -0.4117 -0.1089 -0.5656
16246SOL    HW159957   9.291   0.033   5.050 -0.3390  0.0026  0.0304
16246SOL    HW259958   9.161   0.024   5.148 -0.6541  0.9958 -0.2945
16247SOL     OW59959   8.104   3.737   4.045 -0.2718 -0.3845 -0.3729
16247SOL    HW159960   8.112   3.769   3.950  0.2723 -0.2002 -0.2668
16247SOL    HW259961   8.048   3.801   4.097  0.6717  0.3216 -0.2033
16248SOL     OW59962   6.560   2.409   1.336 -0.3496 -0.0032 -0.2139
16248SOL    HW159963   6.504   2.327   1.329 -0.9427  0.4810 -1.3228
16248SOL    HW259964   6.577   2.446   1.244  0.4425  0.7493  0.2269
16249SOL     OW59965   0.583   5.553   5.903  0.2433 -0.1945  0.3322
16249SOL    HW159966   0.555   5.636   5.952  2.8501 -0.2263  1.9753
16249SOL    HW259967   0.556   5.473   5.956  1.9944 -0.2530  1.1860
16250SOL     OW59968   2.870   0.979   2.892 -0.0893  0.3625  0.4345
16250SOL    HW159969   2.810   0.906   2.858 -0.1207  0.7549 -0.3608
16250SOL    HW259970   2.930   0.942   2.963  0.7801 -0.7668 -0.8638
16251SOL     OW59971   8.614   9.132   3.547 -0.5894 -0.6357  0.2628
16251SOL    HW159972   8.677   9.195   3.501 -0.1204 -0.3525  1.2919
16251SOL    HW259973   8.658   9.043   3.558  0.4545  0.1605  2.8899
16252SOL     OW59974   0.519   9.007   0.012  0.1801  0.3301 -0.2813
16252SOL    HW159975   0.448   8.993   0.082 -0.3814  2.0927 -0.4595
16252SOL    HW259976   0.475   9.027  -0.076  0.8968 -0.3117 -0.7907
16253SOL     OW59977   2.651   8.294   5.093 -0.1659 -0.0341 -0.2379
16253SOL    HW159978   2.735   8.320   5.141 -0.8294  1.7970 -0.0210
16253SOL    HW259979   2.599   8.377   5.070 -1.6339 -1.1117 -0.8728
16254SOL     OW59980   6.776   2.360   1.503 -0.3098  0.3286  1.1067
16254SOL    HW159981   6.820   2.293   1.442  0.0394  2.0144 -0.5203
16254SOL    HW259982   6.690   2.390   1.462 -0.9155  0.2134  2.2794
16255SOL     OW59983   7.966   3.191   2.697 -0.4619 -0.1334 -0.3526
16255SOL    HW159984   8.058   3.206   2.660 -0.1422 -2.3039 -0.5089
16255SOL    HW259985   7.964   3.103   2.745 -2.5025 -0.1718 -0.4858
16256SOL     OW59986   1.457   5.513   5.007 -0.1436  0.4259 -0.3004
16256SOL    HW159987   1.508   5.434   5.042  2.6470  1.7939 -1.1223
16256SOL    HW259988   1.409   5.487   4.924 -0.4456 -0.8008  0.2490
16257SOL     OW59989   3.315   5.111   5.146 -0.0598 -0.1779 -0.3040
16257SOL    HW159990   3.316   5.130   5.244  1.3873  1.7808 -0.6650
16257SOL    HW259991   3.222   5.122   5.111 -0.3665  0.2710  0.6374
16258SOL     OW59992   0.732   7.967   1.163 -0.4127  0.0184  0.0922
16258SOL    HW159993   0.672   8.042   1.137 -0.8554 -0.3848 -0.0493
16258SOL    HW259994   0.787   7.993   1.242 -0.4350  0.5585 -0.0743
16259SOL     OW59995   0.409   8.725   2.092 -0.0486  0.7637 -0.7238
16259SOL    HW159996   0.370   8.802   2.143 -0.6852 -0.9053  1.3448
16259SOL    HW259997   0.359   8.714   2.006 -0.6546  1.9835 -0.5391
16260SOL     OW59998   5.139   2.081   2.371  0.2294  1.0421  0.5957
16260SOL    HW159999   5.151   2.019   2.449  1.6085 -0.0477 -0.4575
16260SOL    HW260000   5.131   2.027   2.287 -1.5357  2.1945 -0.0015
16261SOL     OW60001   2.850   0.555   1.600  0.8315 -0.3443 -0.4451
16261SOL    HW160002   2.807   0.498   1.670  0.7715  1.0951  0.7217
16261SOL    HW260003   2.788   0.629   1.574  1.9586  0.8412  0.1382
16262SOL     OW60004   3.297   5.616   3.370 -0.0530  0.1136  0.1522
16262SOL    HW160005   3.394   5.642   3.373  0.4531 -1.7452  0.6949
16262SOL    HW260006   3.261   5.633   3.278  0.7630  0.8554 -0.0431
16263SOL     OW60007   9.790   6.957   1.791  0.3593 -0.9318  0.5981
16263SOL    HW160008   9.713   6.949   1.854  0.4926  1.1044  1.0649
16263SOL    HW260009   9.875   6.965   1.843  0.4331  1.1367  0.2161
16264SOL     OW60010   6.232   2.847   5.300  0.0401  0.2800 -0.3695
16264SOL    HW160011   6.142   2.890   5.290 -0.9206 -1.5327  0.3726
16264SOL    HW260012   6.222   2.755   5.337  2.2496  0.2311  0.1957
16265SOL     OW60013   5.808   5.888   0.403 -0.4693  0.4074 -0.0478
16265SOL    HW160014   5.834   5.894   0.306  0.6468  2.4394  0.3547
16265SOL    HW260015   5.883   5.844   0.454 -1.1561 -0.8788 -0.1268
16266SOL     OW60016   1.496   1.831   4.462  0.1994 -0.4616  0.7214
16266SOL    HW160017   1.525   1.910   4.408 -1.3064 -0.6528 -0.4134
16266SOL    HW260018   1.416   1.855   4.517  0.3211 -0.9285  1.1074
16267SOL     OW60019   0.253   2.547   3.477  0.3878 -0.2503  0.0968
16267SOL    HW160020   0.235   2.507   3.567  1.0774  2.6920  1.5920
16267SOL    HW260021   0.167   2.582   3.439  0.0039 -1.9637 -0.6528
16268SOL     OW60022   1.376   9.955   1.449  0.1155  0.2285  0.3570
16268SOL    HW160023   1.341   9.901   1.373  0.5956 -0.3036  0.5096
16268SOL    HW260024   1.341   9.918   1.535  1.7620 -0.8852  0.5807
16269SOL     OW60025   7.995   1.778   0.736 -0.0351 -0.6658 -0.3534
16269SOL    HW160026   8.072   1.843   0.737 -0.0449 -0.6491 -0.5904
16269SOL    HW260027   7.911   1.827   0.712 -0.3473 -0.4455  1.1749
16270SOL     OW60028   9.257   6.371   5.067  0.5239  0.2531  0.0389
16270SOL    HW160029   9.233   6.411   4.979 -0.4323  1.1555  0.6899
16270SOL    HW260030   9.313   6.436   5.119  3.0637 -1.1831 -0.8070
16271SOL     OW60031   1.054   9.278   0.139  0.0740  0.0053  0.0324
16271SOL    HW160032   1.151   9.284   0.164 -0.5050 -0.7968  2.7028
16271SOL    HW260033   1.024   9.183   0.148 -0.5988 -0.0207 -2.3072
16272SOL     OW60034   0.529   2.946   3.863  0.3280  0.5589  0.0301
16272SOL    HW160035   0.610   2.915   3.814  1.3315  1.5157  1.0740
16272SOL    HW260036   0.496   3.032   3.824  0.9648  1.1779  0.8637
16273SOL     OW60037   5.825   5.322   2.226 -0.0204 -0.3014 -0.5284
16273SOL    HW160038   5.746   5.380   2.206 -1.3353 -2.2824 -1.2825
16273SOL    HW260039   5.828   5.247   2.160  1.7800 -0.9403  0.2652
16274SOL     OW60040   5.232   1.070   6.815  0.6114 -0.0841  0.1747
16274SOL    HW160041   5.257   0.977   6.840 -1.0653 -0.6760 -0.2692
16274SOL    HW260042   5.201   1.120   6.896 -1.7960 -1.0193 -0.1123
16275SOL     OW60043   8.466   0.818   4.456  0.2330  0.2065  0.7624
16275SOL    HW160044   8.405   0.898   4.451  0.0246  0.0011 -0.1469
16275SOL    HW260045   8.452   0.761   4.375 -0.3726 -1.3072  1.9071
16276SOL     OW60046   8.068   6.357   0.693  0.3067  0.4025 -0.3598
16276SOL    HW160047   8.050   6.455   0.706 -0.0586  0.3369 -0.3903
16276SOL    HW260048   8.045   6.308   0.777  0.2501  0.3057 -0.4329
16277SOL     OW60049   9.867   9.350   6.306 -0.2999 -0.2179 -1.0242
16277SOL    HW160050   9.922   9.362   6.224 -0.1432  0.1825 -0.8616
16277SOL    HW260051   9.792   9.417   6.306 -0.4026 -0.3331 -0.9252
16278SOL     OW60052   1.549   1.740   1.753 -0.2042  0.0985 -0.4606
16278SOL    HW160053   1.525   1.643   1.742  1.1689 -0.2699 -0.2531
16278SOL    HW260054   1.475   1.797   1.717 -2.7710 -0.9878  2.8065
16279SOL     OW60055   0.049   9.253   5.809  0.2011  0.3837 -0.0372
16279SOL    HW160056   0.136   9.247   5.859 -0.2034  1.3848  0.7875
16279SOL    HW260057   0.058   9.205   5.721  0.3439 -3.0298  1.7621
16280SOL     OW60058   7.170   2.531   1.349  0.1396  0.0050  0.1049
16280SOL    HW160059   7.229   2.584   1.409  3.3886 -1.7050 -1.4165
16280SOL    HW260060   7.143   2.587   1.271  2.0194  0.0786 -0.5397
16281SOL     OW60061   0.647   9.707   6.712  0.6824 -0.0877  0.5461
16281SOL    HW160062   0.681   9.691   6.804  0.1183  0.6393  0.8860
16281SOL    HW260063   0.572   9.645   6.692 -0.2241  0.8058  1.1494
16282SOL     OW60064   2.190   2.953   4.117 -0.3201  0.2311  0.1995
16282SOL    HW160065   2.134   2.871   4.121  0.0459 -0.0164  0.2985
16282SOL    HW260066   2.252   2.948   4.038 -1.5416  1.2254 -0.8399
16283SOL     OW60067   8.052   2.410   6.083  0.7922  0.1239  0.2575
16283SOL    HW160068   8.015   2.385   5.993  1.1837 -0.2386  0.1941
16283SOL    HW260069   8.053   2.329   6.142  0.6256  0.3404  0.5549
16284SOL     OW60070   7.714   6.337   5.787 -0.8046 -0.4497 -0.3592
16284SOL    HW160071   7.799   6.323   5.837 -1.7473 -0.3922  1.2950
16284SOL    HW260072   7.689   6.253   5.739 -0.7770 -1.0286  0.6472
16285SOL     OW60073   6.440   9.956   5.100  0.2758 -0.6368 -0.2400
16285SOL    HW160074   6.482  10.028   5.154  0.6446 -0.5758 -0.6099
16285SOL    HW260075   6.496   9.874   5.104  0.8092 -0.3317 -1.3242
16286SOL     OW60076   4.655   9.863   3.801  0.0604  0.2263  0.4546
16286SOL    HW160077   4.728   9.924   3.831 -0.8562  1.1960  0.7614
16286SOL    HW260078   4.577   9.871   3.864  0.8514 -3.1283  1.9336
16287SOL     OW60079   6.655   5.130   1.143 -0.4337  0.1167  0.0971
16287SOL    HW160080   6.570   5.080   1.158  0.3382 -1.3128 -0.2817
16287SOL    HW260081   6.729   5.066   1.127  0.5975  1.3825 -0.2422
16288SOL     OW60082   1.861   8.701   3.082 -0.2806  0.5392  0.1349
16288SOL    HW160083   1.896   8.708   2.988  1.5652 -0.7842  0.6831
16288SOL    HW260084   1.764   8.677   3.080  0.1389 -1.1755 -1.4435
16289SOL     OW60085   4.467   0.031   6.933  0.0477 -0.5173  0.5129
16289SOL    HW160086   4.536  -0.002   6.998  0.4938  0.7871  0.7166
16289SOL    HW260087   4.506   0.105   6.877 -1.0515 -0.0551  0.3397
16290SOL     OW60088   2.495   3.762   4.156 -0.1917 -0.4669 -0.2791
16290SOL    HW160089   2.414   3.742   4.210 -0.4985 -1.3177 -1.0494
16290SOL    HW260090   2.560   3.686   4.163  0.5590  0.2206  0.3625
16291SOL     OW60091   7.487   4.995   1.305  0.2865  0.2979 -0.2771
16291SOL    HW160092   7.403   5.028   1.349 -0.0966 -1.3977  0.2933
16291SOL    HW260093   7.516   4.910   1.348  1.6048  0.2048 -1.3232
16292SOL     OW60094   7.734   2.229   0.668 -0.3871  0.1604  0.0800
16292SOL    HW160095   7.772   2.201   0.756 -1.5463 -2.9455 -0.3363
16292SOL    HW260096   7.664   2.164   0.640 -1.6610  2.3742 -2.0758
16293SOL     OW60097   9.285   0.215   3.553  0.1503  0.2778  0.1427
16293SOL    HW160098   9.231   0.258   3.481  0.6398  0.9840  0.1908
16293SOL    HW260099   9.284   0.116   3.540  0.8902  0.4334 -1.3272
16294SOL     OW60100   8.593   1.090   6.256  0.1287  0.1921 -0.1007
16294SOL    HW160101   8.684   1.050   6.244  0.2938  0.7722 -0.8050
16294SOL    HW260102   8.600   1.172   6.314 -0.0852 -0.2876  0.6159
16295SOL     OW60103   8.302   6.262   0.536  0.2193  0.2338 -0.3076
16295SOL    HW160104   8.217   6.268   0.588  0.3339 -0.7995  0.0247
16295SOL    HW260105   8.359   6.189   0.574  1.3462  1.0532 -0.3975
16296SOL     OW60106   2.686   1.499   2.711  0.0413  0.0482  0.0883
16296SOL    HW160107   2.772   1.453   2.732 -0.5229 -0.8311  0.4796
16296SOL    HW260108   2.660   1.558   2.788 -0.6853 -1.1715  0.8040
16297SOL     OW60109   1.578   5.079   3.958 -0.2405 -0.8784  0.0714
16297SOL    HW160110   1.480   5.098   3.965 -0.2361 -1.1120  0.9189
16297SOL    HW260111   1.610   5.043   4.046  0.7174 -0.2917 -0.0400
16298SOL     OW60112   6.497   5.637   0.689  0.3331  0.1897 -0.3021
16298SOL    HW160113   6.569   5.701   0.662  2.2393 -1.2047  1.2949
16298SOL    HW260114   6.530   5.579   0.763 -1.5594 -2.1985 -1.2527
16299SOL     OW60115   7.074   2.362   2.524 -0.0537  0.1055  0.2596
16299SOL    HW160116   7.127   2.360   2.439 -0.8161 -1.6694 -0.1915
16299SOL    HW260117   7.021   2.447   2.528  0.8382  0.7043 -0.5101
16300SOL     OW60118   0.614   3.623   3.103  0.2300  0.4274 -0.0239
16300SOL    HW160119   0.591   3.659   3.193 -0.2820  1.4868 -0.5630
16300SOL    HW260120   0.672   3.689   3.054 -0.6128  0.4706 -0.9794
16301SOL     OW60121   2.291   0.963   0.920 -0.1501  0.5096 -0.8625
16301SOL    HW160122   2.311   0.956   1.018 -0.5420  0.9273 -0.7519
16301SOL    HW260123   2.374   0.944   0.868 -0.1294 -0.4961 -0.4665
16302SOL     OW60124   3.081   9.132   0.934 -0.0809 -0.1526 -0.6771
16302SOL    HW160125   3.172   9.153   0.970 -0.4337  1.2367 -0.5718
16302SOL    HW260126   3.083   9.135   0.834 -0.1227  0.3638 -0.6627
16303SOL     OW60127   0.998   8.978   1.130  0.1064 -0.4663  0.2565
16303SOL    HW160128   0.941   8.902   1.098  0.4164 -1.2603  1.5413
16303SOL    HW260129   0.957   9.017   1.212  0.2795  0.3670 -0.0550
16304SOL     OW60130   2.483   7.559   4.844  0.2349  0.5566  0.5510
16304SOL    HW160131   2.455   7.474   4.890  1.2451 -0.7495 -1.2111
16304SOL    HW260132   2.529   7.618   4.910  3.2705 -2.0363  0.9036
16305SOL     OW60133   4.425   5.359   0.001 -0.3203  0.8323 -0.1804
16305SOL    HW160134   4.327   5.380  -0.004 -0.2894  0.3005 -4.2373
16305SOL    HW260135   4.439   5.275   0.053 -2.4703 -1.4785 -3.1729
16306SOL     OW60136   9.772   0.178   1.313  0.2735  0.3446  0.2315
16306SOL    HW160137   9.863   0.169   1.272  0.6034  0.8857  0.8336
16306SOL    HW260138   9.717   0.242   1.259  0.3571  0.2613  0.0479
16307SOL     OW60139   7.739   5.341   1.548 -0.2484  0.9940 -0.2101
16307SOL    HW160140   7.737   5.243   1.566 -1.5262  0.0509 -4.7934
16307SOL    HW260141   7.832   5.370   1.528  0.0407  0.6304  0.5899
16308SOL     OW60142   6.584   4.998   1.749  0.3628  0.0534  0.1817
16308SOL    HW160143   6.622   4.908   1.729  0.7236 -0.0725  1.3568
16308SOL    HW260144   6.605   5.061   1.675  1.7811 -0.3443  0.2324
16309SOL     OW60145   6.945   1.806   1.280  0.3075  0.2828  0.8418
16309SOL    HW160146   7.015   1.775   1.344  0.5069 -1.6976 -0.2745
16309SOL    HW260147   6.911   1.727   1.228 -1.1204  1.5731 -0.2237
16310SOL     OW60148   4.934   9.812   1.462  0.1427 -0.0191 -0.1519
16310SOL    HW160149   4.963   9.871   1.387 -0.7830  0.5328 -0.0796
16310SOL    HW260150   4.836   9.794   1.455  0.0218  0.1336  1.0005
16311SOL     OW60151   9.791   3.472   4.284 -0.0990 -0.1063 -0.4583
16311SOL    HW160152   9.754   3.562   4.262 -0.1771 -0.1881 -0.6605
16311SOL    HW260153   9.866   3.482   4.350 -0.2770  0.0829 -0.2864
16312SOL     OW60154   4.280   0.537   2.268 -0.1498 -0.5551  0.2463
16312SOL    HW160155   4.347   0.462   2.269  1.6379  0.9499 -1.7824
16312SOL    HW260156   4.221   0.529   2.188 -2.4838 -1.8713  2.0227
16313SOL     OW60157   0.576   4.960   0.688 -0.2888 -0.7238 -0.0994
16313SOL    HW160158   0.489   4.922   0.656 -0.5570  0.8638 -1.3103
16313SOL    HW260159   0.616   5.017   0.616  1.7322 -1.3917  0.4718
16314SOL     OW60160   2.080   4.863   2.588 -0.1866  0.0886 -0.0264
16314SOL    HW160161   2.093   4.962   2.584 -0.1462  0.1066  0.6409
16314SOL    HW260162   2.135   4.820   2.516 -1.2444  0.6474 -1.1886
16315SOL     OW60163   0.981   2.061   1.359  0.0276 -0.0195 -0.1767
16315SOL    HW160164   1.007   2.145   1.406 -3.1660 -0.1945  2.0871
16315SOL    HW260165   1.033   1.984   1.398 -2.3056 -0.1096  2.9945
16316SOL     OW60166   0.396   5.829   4.144 -0.0466  0.3759  0.1323
16316SOL    HW160167   0.418   5.883   4.225  3.6367 -2.2693  0.9881
16316SOL    HW260168   0.441   5.869   4.064 -0.1985  0.5590  0.1370
16317SOL     OW60169   7.460   6.774   3.537  0.1881  0.0074 -0.1655
16317SOL    HW160170   7.367   6.757   3.568  0.3014  0.7320  0.5958
16317SOL    HW260171   7.515   6.691   3.547 -0.4759 -0.5369 -1.0002
16318SOL     OW60172   8.987   7.213   6.101 -0.5100 -0.1765  0.3550
16318SOL    HW160173   8.913   7.170   6.153 -1.0235  1.7323  1.2592
16318SOL    HW260174   8.959   7.305   6.073  2.0767  1.1834  2.0622
16319SOL     OW60175   0.613   2.551   5.357  0.0651  0.3590  0.2702
16319SOL    HW160176   0.634   2.647   5.341  0.7218 -0.3237 -3.2754
16319SOL    HW260177   0.515   2.541   5.375 -0.3172  1.4767 -1.1682
16320SOL     OW60178   4.081   3.087   0.780 -0.6175 -0.1077 -0.1836
16320SOL    HW160179   4.067   3.016   0.711 -0.0958 -0.5796  0.1959
16320SOL    HW260180   4.060   3.177   0.740  0.1260 -0.3353 -1.0883
16321SOL     OW60181   3.123   5.914   4.570  0.0870  0.4371 -0.4528
16321SOL    HW160182   3.166   5.925   4.481 -0.4027  1.3592 -0.5842
16321SOL    HW260183   3.107   5.817   4.588  0.6753  0.2143 -1.1349
16322SOL     OW60184   5.890   0.701   3.793 -0.0890  0.4609 -0.2275
16322SOL    HW160185   5.969   0.655   3.754 -0.3863  0.8443 -1.2886
16322SOL    HW260186   5.849   0.643   3.864  1.6340  0.6192  0.9400
16323SOL     OW60187   0.723   3.168   5.661 -0.3487  0.5889 -0.1180
16323SOL    HW160188   0.734   3.221   5.745 -3.3317  0.7721  0.2104
16323SOL    HW260189   0.707   3.072   5.684 -0.3091  0.4883 -0.5133
16324SOL     OW60190   3.692   9.535   4.972 -0.0259  0.0207 -0.0831
16324SOL    HW160191   3.720   9.622   4.933 -3.4210  1.3596  0.2707
16324SOL    HW260192   3.702   9.538   5.072 -1.7133  0.6733  0.0884
16325SOL     OW60193   9.975   7.500   5.474 -0.6482  0.8115  0.1512
16325SOL    HW160194  10.054   7.560   5.460 -0.1672  0.3880  1.0095
16325SOL    HW260195  10.003   7.419   5.526 -1.1162 -0.5898 -1.7296
16326SOL     OW60196   3.566   1.808   3.112  0.1167 -0.1495  0.1178
16326SOL    HW160197   3.466   1.811   3.105 -0.0717 -2.4708  1.3767
16326SOL    HW260198   3.596   1.861   3.191 -0.1754 -0.0113  0.1360
16327SOL     OW60199   0.023   6.318   1.851 -0.0922 -0.8828 -0.3285
16327SOL    HW160200   0.113   6.353   1.825 -1.3186  3.4583  0.8673
16327SOL    HW260201   0.024   6.294   1.948 -0.6115  0.7388  0.0998
16328SOL     OW60202   5.477   0.221   7.172  0.0886 -0.1460  0.5951
16328SOL    HW160203   5.396   0.240   7.118  0.5712 -2.3317 -0.9989
16328SOL    HW260204   5.554   0.276   7.138 -0.3957  0.9834  1.2888
16329SOL     OW60205   1.318   6.612   1.037 -0.1753  0.1448  0.0055
16329SOL    HW160206   1.259   6.564   0.972  1.4007 -1.5857 -0.1900
16329SOL    HW260207   1.372   6.682   0.989 -0.8518  0.6027 -0.0943
16330SOL     OW60208   8.940   2.165   3.094  0.0608 -0.4074  0.1442
16330SOL    HW160209   8.984   2.254   3.087 -1.0819  0.2031  0.6653
16330SOL    HW260210   9.009   2.094   3.110  0.8834  0.4900  0.5603
16331SOL     OW60211   0.468   9.277   2.833 -0.3088  0.0691 -0.1769
16331SOL    HW160212   0.486   9.262   2.735 -0.8728  1.9673 -0.5894
16331SOL    HW260213   0.542   9.331   2.872 -0.4254 -0.1138  0.2939
16332SOL     OW60214   2.476   1.053   6.046 -0.4270 -0.0365 -0.2920
16332SOL    HW160215   2.496   1.150   6.041  0.7133 -0.3529 -3.0976
16332SOL    HW260216   2.378   1.038   6.033 -0.4852  0.6967 -0.7309
16333SOL     OW60217   3.276   7.996   0.078  0.4933 -0.7485 -0.5772
16333SOL    HW160218   3.223   8.060   0.134  0.4074 -0.3137 -1.1510
16333SOL    HW260219   3.221   7.914   0.060 -0.5077  0.2682 -2.2881
16334SOL     OW60220   8.419   9.469   4.897 -0.2573 -0.0122 -0.6047
16334SOL    HW160221   8.416   9.415   4.982 -2.4709 -0.7337 -1.1236
16334SOL    HW260222   8.345   9.536   4.898  0.1126  0.4111 -1.7000
16335SOL     OW60223   8.821   2.053   2.021 -0.2296  0.2802 -0.5042
16335SOL    HW160224   8.747   2.116   2.043 -1.1802 -0.9554 -0.1189
16335SOL    HW260225   8.805   2.011   1.932  0.1568  0.2162 -0.5461
16336SOL     OW60226   4.670   5.357   1.342 -0.4213  0.6188 -0.1822
16336SOL    HW160227   4.662   5.319   1.250 -1.6857  1.6597 -0.5217
16336SOL    HW260228   4.661   5.457   1.338  0.1495  0.7263  0.9964
16337SOL     OW60229   7.175   6.123   6.004 -0.0319  0.0654  0.2784
16337SOL    HW160230   7.266   6.163   5.994  0.5987 -1.3474  0.3190
16337SOL    HW260231   7.177   6.051   6.072 -0.9692 -0.6402 -0.4292
16338SOL     OW60232   3.605   2.097   2.751  0.0483 -0.0671  0.2957
16338SOL    HW160233   3.581   2.158   2.675 -0.0192 -1.1439 -0.5516
16338SOL    HW260234   3.641   2.152   2.827 -0.9076  1.1313 -0.0895
16339SOL     OW60235   4.331   3.588   2.047  0.1965 -0.7633  0.1889
16339SOL    HW160236   4.338   3.537   1.961 -0.3925 -0.8642  0.1997
16339SOL    HW260237   4.242   3.569   2.089 -0.5233  1.1835 -0.3989
16340SOL     OW60238   7.152   1.578   0.655  0.5335 -0.2484 -0.5564
16340SOL    HW160239   7.069   1.588   0.710  0.7336  1.4688 -0.5504
16340SOL    HW260240   7.168   1.481   0.637 -0.0170 -0.7901  1.6811
16341SOL     OW60241   7.762   1.399   5.640  0.0425 -0.0211 -0.9503
16341SOL    HW160242   7.773   1.323   5.704 -0.0225 -0.3454 -1.3237
16341SOL    HW260243   7.846   1.410   5.586  0.5313  0.9969 -0.0103
16342SOL     OW60244   1.071   7.212   2.075 -0.6634 -0.0719  0.5060
16342SOL    HW160245   1.016   7.208   1.992 -0.5718  0.7028  0.4088
16342SOL    HW260246   1.126   7.295   2.076  0.1430 -0.5914  0.8410
16343SOL     OW60247   1.177   9.652   0.331  0.3702  0.2903  0.2588
16343SOL    HW160248   1.213   9.650   0.238 -1.2829 -2.1508 -0.3643
16343SOL    HW260249   1.195   9.564   0.376 -1.6847  0.2915  1.1274
16344SOL     OW60250   3.188   5.062   3.958  0.1499 -0.5973 -0.8408
16344SOL    HW160251   3.218   4.994   3.891  4.1839  0.8662 -0.6299
16344SOL    HW260252   3.190   5.153   3.917 -2.0108 -0.1991 -0.1225
16345SOL     OW60253   0.964   8.213   3.273 -0.2530  0.3118  0.2069
16345SOL    HW160254   1.043   8.152   3.277 -1.0519 -0.7229  0.2453
16345SOL    HW260255   0.973   8.284   3.343  0.3459 -0.1576  0.6081
16346SOL     OW60256   2.129   2.374   5.163 -0.4914 -0.2951  0.4975
16346SOL    HW160257   2.059   2.426   5.114  1.0275  1.6854  0.3665
16346SOL    HW260258   2.207   2.358   5.101  0.2636 -0.2041  1.4176
16347SOL     OW60259   9.689   4.933   0.201 -0.4325  0.4251  0.1890
16347SOL    HW160260   9.623   4.941   0.126 -2.2404  1.8620  1.8535
16347SOL    HW260261   9.753   5.010   0.196  0.4793 -0.3922 -0.8248
16348SOL     OW60262   1.711   3.566   4.885 -0.0937 -0.1786 -0.2418
16348SOL    HW160263   1.621   3.609   4.895  0.2993  0.8166 -0.9130
16348SOL    HW260264   1.716   3.521   4.796 -1.2044 -3.3248  1.2367
16349SOL     OW60265   1.280   1.144   4.989  0.0015 -0.2964 -0.0322
16349SOL    HW160266   1.206   1.155   5.055  0.4169  0.8694  0.2416
16349SOL    HW260267   1.250   1.178   4.900 -0.4987 -1.7110 -0.4170
16350SOL     OW60268   1.764   0.281   1.686  0.1293  0.0690 -0.4490
16350SOL    HW160269   1.770   0.276   1.786  2.4527  0.6302 -0.5333
16350SOL    HW260270   1.691   0.344   1.660 -0.0487  0.4362  0.9007
16351SOL     OW60271   4.338   1.036   6.208 -0.2526  0.1369 -0.2477
16351SOL    HW160272   4.349   1.110   6.141  1.6697  0.1719  0.0953
16351SOL    HW260273   4.296   0.957   6.164 -0.9800  0.9124 -0.9691
16352SOL     OW60274   2.497   1.651   0.688  0.0463 -0.0306  0.1391
16352SOL    HW160275   2.589   1.625   0.658  0.4376  1.3338  0.0865
16352SOL    HW260276   2.429   1.613   0.626  0.6075 -0.6308 -0.1123
16353SOL     OW60277   2.223   4.053   4.513 -0.6932  0.1304 -0.8464
16353SOL    HW160278   2.200   4.150   4.504 -1.3657 -0.0811 -1.5157
16353SOL    HW260279   2.192   4.004   4.431  0.5204 -0.4853 -0.9504
16354SOL     OW60280   4.755   7.674   5.455  0.4571 -0.2353 -0.6016
16354SOL    HW160281   4.714   7.740   5.518 -1.3492 -0.7755 -1.1778
16354SOL    HW260282   4.847   7.651   5.487  0.4066  1.1398  0.6268
16355SOL     OW60283   1.721   5.907   1.786  0.6147  0.0646  0.0045
16355SOL    HW160284   1.696   5.820   1.741 -0.8478 -0.5548  1.9399
16355SOL    HW260285   1.807   5.896   1.835 -0.2793 -0.7188  1.4092
16356SOL     OW60286   8.548   6.918   3.792 -0.1166  0.4267  0.2926
16356SOL    HW160287   8.551   6.861   3.873  0.0650  1.6001  1.1224
16356SOL    HW260288   8.631   6.975   3.788 -0.5464  1.0327 -0.2289
16357SOL     OW60289   4.456   3.005   8.015  0.4884  0.8104 -0.0888
16357SOL    HW160290   4.367   3.049   8.032 -0.1996 -0.9470  0.9595
16357SOL    HW260291   4.472   2.999   7.917 -0.1984  1.8175 -0.2741
16358SOL     OW60292   2.953   5.460   2.047  0.0869 -0.2553 -0.4852
16358SOL    HW160293   2.857   5.436   2.027 -0.2640 -0.2533  1.1424
16358SOL    HW260294   2.967   5.557   2.026 -0.7475  0.1860  0.9057
16359SOL     OW60295   9.959   2.617   0.075 -0.5849 -0.3616 -0.0759
16359SOL    HW160296   9.938   2.542   0.138 -0.4807 -1.0511 -0.8590
16359SOL    HW260297  10.057   2.617   0.055 -0.6119 -0.1138 -0.2052
16360SOL     OW60298   1.265   5.993   2.650  0.1094  0.2919  0.3595
16360SOL    HW160299   1.185   6.049   2.629 -0.4986 -0.4344  0.7069
16360SOL    HW260300   1.347   6.038   2.616 -0.5173  0.7082 -0.6319
16361SOL     OW60301   9.068   5.297   5.431  0.5579  0.3759 -0.1375
16361SOL    HW160302   9.067   5.198   5.445  1.9181  0.1532 -1.4733
16361SOL    HW260303   9.140   5.338   5.487 -0.1475  0.6432  0.5792
16362SOL     OW60304   1.238   6.640   5.147  0.1293  0.2804 -0.5518
16362SOL    HW160305   1.251   6.625   5.049 -4.1190 -0.9063 -1.0194
16362SOL    HW260306   1.191   6.726   5.161  0.2850  0.2077  0.4246
16363SOL     OW60307   6.110   7.520   6.123  0.3803  0.1210  0.5322
16363SOL    HW160308   6.026   7.553   6.165  0.4224  1.9732 -0.7809
16363SOL    HW260309   6.091   7.489   6.030  0.9552 -0.4698  0.6076
16364SOL     OW60310   8.456   4.433   6.063  0.8788  0.0808  0.3372
16364SOL    HW160311   8.551   4.456   6.040  0.6493  0.2268 -0.5195
16364SOL    HW260312   8.416   4.508   6.115  0.7600  0.7307 -0.6716
16365SOL     OW60313   4.001   4.615   5.434  0.0921  0.0988 -0.4676
16365SOL    HW160314   3.979   4.518   5.445 -1.0400  0.4680  0.7335
16365SOL    HW260315   3.996   4.639   5.337 -1.1392 -0.7191 -0.6290
16366SOL     OW60316   0.217   1.792   0.382 -0.1803 -0.3820  0.1086
16366SOL    HW160317   0.317   1.795   0.376  0.0064  1.1675  3.0814
16366SOL    HW260318   0.187   1.696   0.384  1.5481 -0.9356  2.6657
16367SOL     OW60319   3.684   7.729   3.778  0.0019  0.3046  0.1481
16367SOL    HW160320   3.654   7.747   3.684  0.8184  2.3858  0.2468
16367SOL    HW260321   3.679   7.631   3.797  0.3026 -0.2107 -2.2375
16368SOL     OW60322   1.552   5.183   2.276  0.3397  0.1701  0.1328
16368SOL    HW160323   1.565   5.163   2.179  0.7611 -0.4975  0.3232
16368SOL    HW260324   1.588   5.107   2.331 -1.4745 -0.2530  0.7626
16369SOL     OW60325   9.337   0.565   1.880 -0.3175  0.6885 -1.1250
16369SOL    HW160326   9.331   0.583   1.978  2.5200 -2.3845 -0.3283
16369SOL    HW260327   9.284   0.635   1.830 -1.7258  2.3392  2.5254
16370SOL     OW60328   5.260   0.163   2.153  0.1656  0.5396 -0.1789
16370SOL    HW160329   5.263   0.113   2.239 -2.0819 -0.7282 -0.7886
16370SOL    HW260330   5.187   0.231   2.157  1.9747  2.5398 -0.0483
16371SOL     OW60331   9.332   3.420   4.994  0.1247  0.2374  0.1194
16371SOL    HW160332   9.301   3.352   4.929  1.7230 -1.0239  0.6335
16371SOL    HW260333   9.354   3.376   5.081  2.7743  1.1018 -0.0468
16372SOL     OW60334   2.690   5.505   2.010  0.2105 -0.5581  0.2152
16372SOL    HW160335   2.614   5.451   2.046  0.1699 -0.1904  0.6848
16372SOL    HW260336   2.658   5.559   1.932  0.5196 -2.0541 -0.9838
16373SOL     OW60337   4.194   6.531   1.656  0.5887 -0.8307  0.3942
16373SOL    HW160338   4.117   6.544   1.719  1.0908  0.8910  0.6998
16373SOL    HW260339   4.180   6.587   1.574  2.8130  1.8254  1.7039
16374SOL     OW60340   0.085   3.585   4.994  0.2055 -0.5653 -0.4418
16374SOL    HW160341  -0.003   3.633   4.996  0.1226 -0.7448  0.6305
16374SOL    HW260342   0.153   3.638   5.044  0.8813 -0.1089 -1.8314
16375SOL     OW60343   2.290   1.290   0.846  0.0276 -0.1135  0.8037
16375SOL    HW160344   2.347   1.276   0.765  0.3216  0.7670  0.8534
16375SOL    HW260345   2.202   1.244   0.833  0.2292 -0.3196  0.1543
16376SOL     OW60346   4.721   8.367   5.633  0.0501 -0.0545  0.3667
16376SOL    HW160347   4.625   8.391   5.625 -0.5080 -2.3647 -0.2849
16376SOL    HW260348   4.764   8.372   5.543  0.5595  1.0023  0.6617
16377SOL     OW60349   5.041   8.046   3.964 -0.0414 -0.2035 -0.5084
16377SOL    HW160350   4.947   8.018   3.983 -0.4559  1.1962 -0.4302
16377SOL    HW260351   5.048   8.145   3.970  1.9132 -0.4297  1.5075
16378SOL     OW60352   9.842   1.149   1.444 -0.1269 -0.3029 -0.0049
16378SOL    HW160353   9.847   1.070   1.505 -0.5363 -1.0075 -0.8730
16378SOL    HW260354   9.756   1.198   1.460 -0.3143 -0.5877 -0.1421
16379SOL     OW60355   8.019   6.140   4.524  0.2982  0.4596 -0.3286
16379SOL    HW160356   7.985   6.124   4.432  0.5114  2.2738 -0.7492
16379SOL    HW260357   8.007   6.237   4.547 -0.0538 -0.0363  1.6715
16380SOL     OW60358   6.087   4.488   1.387  0.5524  0.2832 -0.1635
16380SOL    HW160359   6.028   4.533   1.320  0.8089  1.3602  0.3261
16380SOL    HW260360   6.123   4.556   1.450  0.8795 -0.6305  0.6379
16381SOL     OW60361   1.993   8.221   3.337 -0.0454  0.1123  0.9721
16381SOL    HW160362   1.997   8.121   3.338  0.0140  0.0657 -1.5586
16381SOL    HW260363   2.007   8.254   3.244  2.1942  2.5968  2.1444
16382SOL     OW60364   9.330   8.064   4.816  0.5040  0.2911  0.2687
16382SOL    HW160365   9.347   8.005   4.895 -0.6874 -1.0205 -0.4459
16382SOL    HW260366   9.392   8.039   4.741  1.0844  1.0045  0.5040
16383SOL     OW60367   3.059   3.398   1.465  0.2991 -0.7831  0.3089
16383SOL    HW160368   3.068   3.486   1.512  0.6305 -0.4109 -0.4447
16383SOL    HW260369   3.116   3.330   1.512 -0.5714 -0.7913  1.3595
16384SOL     OW60370   9.667   9.601   3.916 -0.7590  0.0400  0.4458
16384SOL    HW160371   9.634   9.562   4.003 -1.3152  1.1123  0.7290
16384SOL    HW260372   9.755   9.645   3.931 -0.3723 -0.6617  0.2399
16385SOL     OW60373   3.282   4.981   0.821  0.2885  0.1803 -0.1337
16385SOL    HW160374   3.258   4.897   0.869  0.6011  0.4094  0.4184
16385SOL    HW260375   3.357   4.963   0.757  1.3265  0.3639  1.0296
16386SOL     OW60376   2.671   6.352   5.244  0.4574  0.0622 -0.0447
16386SOL    HW160377   2.573   6.331   5.250  0.2172  1.1486 -0.0508
16386SOL    HW260378   2.722   6.267   5.231 -0.5652 -0.4311 -0.9859
16387SOL     OW60379   9.442   8.137   0.914 -0.1877 -0.1008 -0.3992
16387SOL    HW160380   9.462   8.049   0.958 -1.8445 -0.7717 -0.9639
16387SOL    HW260381   9.475   8.211   0.972 -0.8799 -1.0228  1.1992
16388SOL     OW60382   9.547   3.399   5.882  0.5027 -0.1076  0.1369
16388SOL    HW160383   9.488   3.319   5.873 -1.8717  1.5021  0.8961
16388SOL    HW260384   9.540   3.436   5.975  1.9076  0.7170 -0.0738
16389SOL     OW60385   0.020   3.035   0.917  0.8541 -0.4339  0.2219
16389SOL    HW160386   0.068   2.977   0.984 -1.2334  0.3029  2.4424
16389SOL    HW260387  -0.073   3.002   0.905 -0.2889  2.2224  1.3199
16390SOL     OW60388   0.409   5.767   5.994 -0.1093 -0.0038  0.2461
16390SOL    HW160389   0.419   5.771   5.895  3.3853 -1.4310  0.4739
16390SOL    HW260390   0.409   5.861   6.031 -1.1648  0.5227 -1.0604
16391SOL     OW60391   2.974   7.262   5.323  0.3184 -0.0510 -0.1277
16391SOL    HW160392   3.012   7.354   5.315 -2.6126  0.9479 -3.9433
16391SOL    HW260393   3.036   7.197   5.277  1.2835  0.3289  0.6162
16392SOL     OW60394   9.765   8.012   4.639  0.2016 -0.9200 -0.0968
16392SOL    HW160395   9.816   8.051   4.715 -0.1909 -0.1807 -0.2075
16392SOL    HW260396   9.771   8.074   4.560  0.2710 -1.4850 -0.5384
16393SOL     OW60397   8.896   8.357   0.596  0.1945  0.0406 -0.4622
16393SOL    HW160398   8.953   8.322   0.522  0.9264  3.6214 -1.6846
16393SOL    HW260399   8.800   8.346   0.573  0.4143 -1.0043 -0.8871
16394SOL     OW60400   1.400   9.739   3.436 -0.3453  0.3264 -0.4618
16394SOL    HW160401   1.342   9.715   3.358 -0.3562 -1.2153  0.0048
16394SOL    HW260402   1.418   9.657   3.491  1.4675  0.9857 -0.0453
16395SOL     OW60403   2.844   9.539   0.214 -0.1734  0.9307  0.3130
16395SOL    HW160404   2.841   9.511   0.310  0.7933  2.4023  0.7802
16395SOL    HW260405   2.919   9.490   0.168 -0.1985  0.7458  0.4659
16396SOL     OW60406   7.535   5.280   2.017  0.5008  0.1381  0.7599
16396SOL    HW160407   7.559   5.298   1.922 -0.0926  0.3845  0.6535
16396SOL    HW260408   7.451   5.227   2.021 -0.9178  2.3454  1.1784
16397SOL     OW60409   3.969   1.568   2.640  0.0517 -0.4884 -0.0514
16397SOL    HW160410   3.997   1.485   2.688 -1.3352 -0.7671  0.2978
16397SOL    HW260411   4.024   1.645   2.672  1.8649 -1.3801 -0.9094
16398SOL     OW60412   8.857   9.491   6.454  0.3531 -0.6407  0.1021
16398SOL    HW160413   8.945   9.513   6.497 -1.5106  3.1963  2.2580
16398SOL    HW260414   8.848   9.544   6.370 -1.2650  1.7412  1.7060
16399SOL     OW60415   7.633   2.655   3.761 -0.0431  0.3099 -0.3193
16399SOL    HW160416   7.564   2.718   3.724  0.7506 -0.5804 -3.4916
16399SOL    HW260417   7.597   2.562   3.759  0.2945  0.1582  0.5102
16400SOL     OW60418   4.156   0.033   6.237  0.3893 -0.1504  0.2443
16400SOL    HW160419   4.163   0.122   6.281 -0.4281  1.3636 -2.5724
16400SOL    HW260420   4.248  -0.002   6.217  0.7171 -0.1055  1.5961
16401SOL     OW60421   8.771   9.742   6.321  0.1009 -0.3154  0.3289
16401SOL    HW160422   8.676   9.729   6.346  0.0864 -0.1009  0.3825
16401SOL    HW260423   8.787   9.703   6.230 -0.7812  2.3939 -1.0439
16402SOL     OW60424   6.650   2.220   8.018 -0.5494  0.3337 -0.0702
16402SOL    HW160425   6.591   2.168   8.080  2.2788 -0.4005  2.0988
16402SOL    HW260426   6.624   2.317   8.021 -3.9701 -0.4420 -1.9586
16403SOL     OW60427   8.260   6.149   5.879  0.8671 -0.0015 -0.1502
16403SOL    HW160428   8.261   6.080   5.951 -0.8966  0.1862  0.0905
16403SOL    HW260429   8.262   6.240   5.920 -0.9185  0.1179 -0.2719
16404SOL     OW60430   8.902   5.997   4.192 -0.4185  0.1407 -0.3892
16404SOL    HW160431   8.991   6.018   4.234 -1.7966  0.7660  2.3562
16404SOL    HW260432   8.905   5.906   4.151  1.3389 -0.0503  0.1021
16405SOL     OW60433   3.371   5.801   5.397 -0.3311 -0.3302  0.1156
16405SOL    HW160434   3.316   5.765   5.321  0.1014  0.7203 -0.7257
16405SOL    HW260435   3.412   5.888   5.369  0.0419 -0.0560  1.4810
16406SOL     OW60436   4.479   1.887   3.942 -0.3738  0.3533 -0.3076
16406SOL    HW160437   4.497   1.860   4.037 -2.6364 -0.3969 -0.0562
16406SOL    HW260438   4.414   1.823   3.901  0.4970  0.7347 -2.3530
16407SOL     OW60439   7.748   2.187   6.137 -0.0053  0.6610 -0.7969
16407SOL    HW160440   7.684   2.230   6.073 -1.2946  0.0208  0.0282
16407SOL    HW260441   7.758   2.091   6.113  0.5325  0.7268 -0.8282
16408SOL     OW60442   2.866   8.898   3.422  0.7164  0.1124 -0.6355
16408SOL    HW160443   2.844   8.804   3.447 -1.1992  0.6973 -0.0597
16408SOL    HW260444   2.884   8.903   3.324 -3.0584 -0.1860 -1.4006
16409SOL     OW60445   0.144   3.487   2.258 -0.6263 -0.6690  0.1263
16409SOL    HW160446   0.125   3.581   2.228  0.7202 -0.4342  0.0030
16409SOL    HW260447   0.175   3.488   2.353  1.2503 -0.7999 -0.4800
16410SOL     OW60448   8.220   8.381   4.994 -0.3768 -0.0466 -1.3609
16410SOL    HW160449   8.310   8.383   4.951 -0.0772 -1.3779 -0.8401
16410SOL    HW260450   8.229   8.349   5.088 -1.3250  0.3998 -1.1152
16411SOL     OW60451   7.976   4.861   2.491 -0.1842  0.0078  0.6791
16411SOL    HW160452   8.029   4.777   2.482 -1.0943 -0.3957 -1.1309
16411SOL    HW260453   7.911   4.852   2.567  1.4060  0.0141  2.0606
16412SOL     OW60454   8.896   5.941   3.180 -0.2147  0.2927  0.3447
16412SOL    HW160455   8.842   6.016   3.142 -2.1846 -2.6452 -2.9125
16412SOL    HW260456   8.852   5.906   3.262 -0.7861  0.8501  0.2783
16413SOL     OW60457   6.961   4.472   1.989  0.0601 -0.0080  0.1979
16413SOL    HW160458   6.895   4.547   1.983 -1.1492 -1.0106  0.5496
16413SOL    HW260459   6.957   4.419   1.904  0.7026  0.1596  0.0641
16414SOL     OW60460   1.636   6.716   0.690 -0.2564 -0.5287  0.4727
16414SOL    HW160461   1.624   6.716   0.591 -0.8134 -0.3720  0.5332
16414SOL    HW260462   1.721   6.670   0.715  0.2674  0.1178 -0.1256
16415SOL     OW60463   9.205   2.909   1.164 -0.0779 -0.0260  0.4886
16415SOL    HW160464   9.132   2.867   1.218  0.4861 -2.2675 -0.4024
16415SOL    HW260465   9.204   2.870   1.072  0.5364  1.9187 -0.3578
16416SOL     OW60466   5.059   9.168   3.428 -0.0416  0.8153  0.4618
16416SOL    HW160467   5.033   9.073   3.448 -1.1971  0.3110 -3.0886
16416SOL    HW260468   4.993   9.230   3.469  1.1086  0.1705  3.4167
16417SOL     OW60469   1.461   6.455   2.241  0.2346 -0.2483 -0.1853
16417SOL    HW160470   1.499   6.363   2.243 -1.0542 -0.7771  1.2626
16417SOL    HW260471   1.461   6.493   2.334  0.6202  1.1537 -0.7462
16418SOL     OW60472   0.973   2.230   5.570  0.5464 -0.5424  0.6464
16418SOL    HW160473   1.066   2.240   5.605  0.7692 -0.8102  0.1369
16418SOL    HW260474   0.927   2.319   5.569  1.0836 -0.2743  0.0874
16419SOL     OW60475   0.516   6.368   5.328  0.1478  0.0239 -0.1670
16419SOL    HW160476   0.470   6.300   5.271  0.2308  1.6247 -2.1688
16419SOL    HW260477   0.448   6.421   5.378 -0.0067 -0.1351 -0.2061
16420SOL     OW60478   3.386   6.202   4.969  0.3216  0.3230  0.8407
16420SOL    HW160479   3.366   6.295   5.000 -1.3858  1.0017 -2.0527
16420SOL    HW260480   3.311   6.171   4.910  0.9113 -2.8737  1.7301
16421SOL     OW60481   4.902   5.601   1.865 -0.0611 -0.6066  0.0301
16421SOL    HW160482   4.865   5.511   1.843 -0.2223 -1.0563  2.0163
16421SOL    HW260483   5.001   5.599   1.858 -0.0661 -0.9420  0.0451
16422SOL     OW60484   9.904   1.403   2.850 -0.0993  0.5249  0.2578
16422SOL    HW160485   9.947   1.330   2.796 -1.8178  0.9022 -1.6849
16422SOL    HW260486   9.975   1.461   2.890  1.2660 -1.3739  0.6635
16423SOL     OW60487   8.520   0.017   0.824  0.3237  0.1745 -0.5181
16423SOL    HW160488   8.511  -0.037   0.908  0.6363 -1.1271 -1.3173
16423SOL    HW260489   8.429   0.044   0.793  0.1624  0.0807 -0.1304
16424SOL     OW60490   6.655   3.121   4.963 -0.3520  0.3841  0.4027
16424SOL    HW160491   6.706   3.035   4.958  0.0737  0.6298  0.4753
16424SOL    HW260492   6.648   3.149   5.059  1.4457  1.5747  0.2116
16425SOL     OW60493   3.820   5.290   1.576 -0.2729  0.1649 -0.1099
16425SOL    HW160494   3.832   5.315   1.480 -0.4736 -0.4805 -0.3065
16425SOL    HW260495   3.743   5.342   1.614  0.5088  1.2513  0.0206
16426SOL     OW60496   1.225   7.903   0.627 -0.1772  0.2493  0.5830
16426SOL    HW160497   1.246   7.816   0.670 -0.5859  0.2017  0.6837
16426SOL    HW260498   1.295   7.924   0.558 -0.5802 -0.5987 -0.0938
16427SOL     OW60499   5.722   1.365   4.771 -0.1052 -0.0424 -0.6088
16427SOL    HW160500   5.650   1.407   4.716 -1.0328  0.8367  1.2285
16427SOL    HW260501   5.705   1.382   4.868  3.0032  0.8554 -0.1495
16428SOL     OW60502   8.213   3.334   1.382 -0.0857 -0.0861  0.6032
16428SOL    HW160503   8.151   3.393   1.433  0.3906  0.1737  0.8914
16428SOL    HW260504   8.164   3.288   1.309 -0.8085 -0.5535  1.3742
16429SOL     OW60505   2.663   8.025   5.813  0.1875 -0.1017 -0.2057
16429SOL    HW160506   2.688   8.104   5.757  0.8930  1.0425  1.6843
16429SOL    HW260507   2.565   8.029   5.834  0.5940  1.4136  1.5720
16430SOL     OW60508   8.718   3.870   3.546 -0.2677  0.3522 -0.6407
16430SOL    HW160509   8.710   3.776   3.515  0.6027 -0.4306  1.4294
16430SOL    HW260510   8.806   3.883   3.591 -0.9833  1.7721  0.3946
16431SOL     OW60511   4.551   0.406   1.193  0.0641 -0.0155 -0.2206
16431SOL    HW160512   4.583   0.433   1.102 -2.0316  1.1239 -0.6360
16431SOL    HW260513   4.514   0.486   1.240 -0.7059 -0.9978  0.8525
16432SOL     OW60514   6.806   8.787   4.439  0.2955 -0.3146 -0.2934
16432SOL    HW160515   6.746   8.862   4.469 -0.8680 -0.6644 -1.7016
16432SOL    HW260516   6.800   8.778   4.340  4.2655  0.9955 -0.7477
16433SOL     OW60517   5.681   1.445   5.022 -0.0183  0.3632 -0.7470
16433SOL    HW160518   5.747   1.520   5.007 -1.7123  2.0256 -0.0983
16433SOL    HW260519   5.649   1.449   5.117 -0.7249 -0.7115 -0.9423
16434SOL     OW60520   5.047   1.558   4.469 -0.3242  1.0299 -0.1323
16434SOL    HW160521   5.087   1.512   4.549  0.7151  1.4217 -0.4201
16434SOL    HW260522   5.052   1.497   4.390 -0.0060  1.1964 -0.2417
16435SOL     OW60523   4.319   6.354   1.005  0.2245  0.1692  0.3379
16435SOL    HW160524   4.271   6.435   1.039  0.4913  0.9889 -1.1790
16435SOL    HW260525   4.401   6.338   1.060 -0.7102 -0.0532  1.6753
16436SOL     OW60526   7.079   4.057   2.465  0.1714  0.1425  0.2950
16436SOL    HW160527   7.042   4.092   2.550 -0.5162 -0.6843  0.3403
16436SOL    HW260528   7.146   4.122   2.428  1.1093  0.0985  1.8954
16437SOL     OW60529   1.035   7.507   0.515  0.8295  0.2768  0.3004
16437SOL    HW160530   0.997   7.534   0.604  0.0199  0.3319 -0.0620
16437SOL    HW260531   0.966   7.459   0.462  0.7964  1.7064 -0.9702
16438SOL     OW60532   3.720   8.334   1.960  0.0049 -0.4671  0.2545
16438SOL    HW160533   3.789   8.307   1.892 -0.4200 -0.0116 -0.3680
16438SOL    HW260534   3.739   8.288   2.047  0.7330 -0.8234 -0.0855
16439SOL     OW60535   7.062   4.547   1.470 -0.2508 -0.5378 -0.0937
16439SOL    HW160536   7.147   4.529   1.421 -0.1651  1.2379 -0.6219
16439SOL    HW260537   7.074   4.527   1.567  0.4749 -1.2088 -0.3230
16440SOL     OW60538   1.420   0.974   3.993 -0.3140  0.4610 -0.0705
16440SOL    HW160539   1.353   1.045   4.016  1.1529  1.4412  1.2738
16440SOL    HW260540   1.437   0.917   4.074 -1.2495 -1.2856 -1.0469
16441SOL     OW60541   7.710   1.893   5.585 -0.0810 -0.0278 -0.0152
16441SOL    HW160542   7.687   1.834   5.663  0.5912  2.3405  2.0133
16441SOL    HW260543   7.771   1.966   5.614 -1.5579  2.2096 -2.2865
16442SOL     OW60544   1.386   9.445   0.649 -0.3642  0.1430  0.2317
16442SOL    HW160545   1.399   9.350   0.679  2.2185 -0.4105 -2.4059
16442SOL    HW260546   1.308   9.450   0.587  0.1745 -0.4913 -0.5104
16443SOL     OW60547   3.375   6.543   0.958  0.0295 -0.3477 -0.1205
16443SOL    HW160548   3.380   6.541   1.058  0.2929 -3.2641 -0.1305
16443SOL    HW260549   3.289   6.501   0.929  1.2774 -2.2782 -1.1394
16444SOL     OW60550   2.560   5.661   1.683  0.8117 -0.0893 -0.2033
16444SOL    HW160551   2.532   5.757   1.690  2.5921  0.5959 -2.1586
16444SOL    HW260552   2.616   5.648   1.602 -1.6689 -3.3640 -1.5269
16445SOL     OW60553   0.289   7.137   2.839  0.4044 -0.0682 -0.2554
16445SOL    HW160554   0.194   7.149   2.868  0.9282  0.3590  1.3478
16445SOL    HW260555   0.350   7.161   2.915  1.8319  1.0388 -1.7160
16446SOL     OW60556   7.475   9.659   4.515 -0.5182 -0.2622 -0.3402
16446SOL    HW160557   7.479   9.656   4.415 -1.1722 -0.1841 -0.3716
16446SOL    HW260558   7.396   9.714   4.544  1.1193  1.8546  0.2298
16447SOL     OW60559   7.819   7.529   2.006  0.0351  0.4691  0.1728
16447SOL    HW160560   7.872   7.568   2.082  0.1106 -0.4878  0.6122
16447SOL    HW260561   7.881   7.481   1.943 -0.0139  1.3387 -0.5546
16448SOL     OW60562   2.099   4.008   1.117  0.3592 -0.5515 -0.5734
16448SOL    HW160563   2.096   4.091   1.172  0.4359 -0.3924 -0.8046
16448SOL    HW260564   2.021   4.007   1.055 -0.7063 -1.6021  0.7786
16449SOL     OW60565   4.907   3.027   0.678  0.1956  0.1730 -0.0176
16449SOL    HW160566   4.994   2.983   0.657  0.2057  1.0243 -1.8510
16449SOL    HW260567   4.909   3.121   0.645 -1.1117  0.4717  0.7311
16450SOL     OW60568   3.919   9.191   2.695  0.2382 -0.0209 -0.1745
16450SOL    HW160569   4.013   9.184   2.726  0.4435  0.0826 -0.7684
16450SOL    HW260570   3.889   9.103   2.657  0.3368  0.1538 -0.6607
16451SOL     OW60571   6.467   9.064   2.918  0.5649  0.2130  0.2732
16451SOL    HW160572   6.509   9.022   2.998 -0.9826  0.5167  1.2822
16451SOL    HW260573   6.383   9.014   2.895 -0.8569  2.1945  0.9811
16452SOL     OW60574   7.474   5.191   8.037  0.1314 -0.2129 -0.2783
16452SOL    HW160575   7.456   5.245   7.954 -0.5464 -2.7475 -1.8191
16452SOL    HW260576   7.556   5.227   8.082 -0.1695  1.9643 -1.3679
16453SOL     OW60577   3.017   7.580   4.663  0.6284  0.1897 -0.4371
16453SOL    HW160578   2.932   7.530   4.682  0.2812  0.2511 -1.8143
16453SOL    HW260579   3.026   7.655   4.729 -0.5847  0.4224 -0.5149
16454SOL     OW60580   7.311   2.584   0.719 -0.0522 -0.6212  0.4596
16454SOL    HW160581   7.308   2.534   0.805  0.6433  0.1958  0.9690
16454SOL    HW260582   7.385   2.547   0.662 -0.5396 -1.1898  0.1928
16455SOL     OW60583   0.302   7.696   2.398 -0.2927  0.0828  0.0636
16455SOL    HW160584   0.343   7.686   2.308 -0.3655  0.2453  0.0107
16455SOL    HW260585   0.202   7.700   2.389 -0.3097 -0.1253  0.1721
16456SOL     OW60586   1.702   1.189   5.503  0.4176  0.3371  0.1915
16456SOL    HW160587   1.778   1.125   5.516 -0.6280 -1.5827 -2.7142
16456SOL    HW260588   1.706   1.227   5.411 -1.7378  0.7374  0.2399
16457SOL     OW60589   1.797   3.827   0.620  0.6122 -0.3300 -0.1025
16457SOL    HW160590   1.852   3.745   0.637 -0.9529 -1.6430 -1.2415
16457SOL    HW260591   1.751   3.855   0.705  0.7521 -0.9068  0.1633
16458SOL     OW60592   9.594   8.338   1.353  0.3795  0.8358 -0.0053
16458SOL    HW160593   9.610   8.436   1.364  0.9385  0.7960 -0.4545
16458SOL    HW260594   9.667   8.287   1.398 -0.9773  0.5822  2.0218
16459SOL     OW60595   9.480   8.215   6.304 -0.2285 -0.1204 -0.5368
16459SOL    HW160596   9.411   8.286   6.316 -1.7849 -1.5770 -0.6726
16459SOL    HW260597   9.562   8.255   6.263 -0.6686  1.7924  0.3924
16460SOL     OW60598   3.175   6.506   1.337 -0.3816 -0.0325 -0.0500
16460SOL    HW160599   3.194   6.408   1.334 -1.0127 -0.1195 -1.4016
16460SOL    HW260600   3.229   6.552   1.266  1.5698  0.9023  1.9658
16461SOL     OW60601   4.861   1.678   1.371  0.1821 -0.5089 -0.1405
16461SOL    HW160602   4.830   1.695   1.464  1.1444 -1.6476  0.4030
16461SOL    HW260603   4.854   1.763   1.318 -1.4715 -0.1347  0.6280
16462SOL     OW60604   6.758   4.581   7.831 -0.2080 -0.1062  0.1863
16462SOL    HW160605   6.820   4.602   7.755  0.3254  0.6376  0.8221
16462SOL    HW260606   6.663   4.588   7.799 -0.0419  2.4154  0.1422
16463SOL     OW60607   5.424   9.236   5.868 -0.1446  0.0723  0.3374
16463SOL    HW160608   5.336   9.216   5.911 -0.8373  0.4632 -0.8854
16463SOL    HW260609   5.455   9.327   5.896 -1.0328  0.6965 -0.6917
16464SOL     OW60610   9.117   6.796   0.628 -0.6267 -0.5515  0.4435
16464SOL    HW160611   9.155   6.867   0.688 -1.5873 -0.3045  0.7736
16464SOL    HW260612   9.150   6.707   0.657  0.6124 -0.2449  0.0115
16465SOL     OW60613   1.640   6.337   1.889 -0.0668  0.3555 -0.1586
16465SOL    HW160614   1.630   6.416   1.948  0.2646 -0.2822  0.7501
16465SOL    HW260615   1.574   6.267   1.916  0.9804 -0.4577  0.3036
16466SOL     OW60616   2.462   3.004   4.389  0.0999  0.0723  0.1704
16466SOL    HW160617   2.393   3.072   4.365 -0.3290 -0.5488 -0.3430
16466SOL    HW260618   2.533   3.002   4.318 -0.0166 -0.1990  0.0646
16467SOL     OW60619   4.077   5.133   3.440  0.3339 -0.5163 -0.6483
16467SOL    HW160620   3.990   5.084   3.436 -0.1272  0.2485 -0.0751
16467SOL    HW260621   4.110   5.136   3.534 -0.1725  1.1832 -0.5081
16468SOL     OW60622   7.953   1.882   2.962  0.8587  0.6147  0.5375
16468SOL    HW160623   7.988   1.975   2.964  1.6205  0.3191  1.4645
16468SOL    HW260624   8.025   1.820   2.930  0.4997  0.2889  0.3550
16469SOL     OW60625   4.305   3.918   3.988 -0.4078 -0.2413  0.2735
16469SOL    HW160626   4.357   3.988   4.037 -0.6837  0.6711 -0.7239
16469SOL    HW260627   4.241   3.962   3.926  1.6326 -1.3703 -2.7259
16470SOL     OW60628   2.417   9.859   3.482 -0.2790 -0.0663 -0.3344
16470SOL    HW160629   2.496   9.896   3.531 -1.3612  2.1940 -0.2498
16470SOL    HW260630   2.421   9.888   3.387 -1.2746  0.4791 -0.2132
16471SOL     OW60631   7.845   9.136   2.479 -0.0767  0.4565 -0.7977
16471SOL    HW160632   7.855   9.117   2.381 -1.5723 -1.4461 -0.6073
16471SOL    HW260633   7.748   9.132   2.504  0.2407  1.5083  0.6599
16472SOL     OW60634   4.138   8.756   2.563 -0.4261  0.3458  0.4325
16472SOL    HW160635   4.140   8.785   2.658 -2.3970  1.2197  0.2472
16472SOL    HW260636   4.202   8.811   2.510 -1.6294  2.0776  0.7121
16473SOL     OW60637   0.492   3.698   2.825  0.1676  0.3937 -0.0960
16473SOL    HW160638   0.483   3.612   2.876  0.4158  0.1273 -0.5016
16473SOL    HW260639   0.442   3.770   2.873 -1.1304 -0.2689 -0.4436
16474SOL     OW60640   2.634   2.219   1.445 -0.5241 -0.0604 -0.0918
16474SOL    HW160641   2.718   2.179   1.409 -0.6166 -2.0569  1.7709
16474SOL    HW260642   2.566   2.147   1.458 -1.3178  0.9635  1.6682
16475SOL     OW60643   0.484   0.501   4.865  0.5309 -0.0908  0.1309
16475SOL    HW160644   0.571   0.463   4.832  0.7296  1.7410 -1.5489
16475SOL    HW260645   0.502   0.586   4.915 -0.1767 -0.5526  1.1988
16476SOL     OW60646   8.081   9.952   6.306  0.4991  0.0022  0.0844
16476SOL    HW160647   8.060   9.922   6.399  2.3541 -1.3363  0.0899
16476SOL    HW260648   8.044   9.886   6.241  2.6217 -1.1661  0.0233
16477SOL     OW60649   9.140   0.415   1.232 -0.2657 -0.6239  0.5157
16477SOL    HW160650   9.136   0.407   1.332 -0.8332 -0.1326  0.5295
16477SOL    HW260651   9.171   0.328   1.194  4.6371  0.5275  1.4268
16478SOL     OW60652   9.695   4.866   5.567  0.0796  0.2982 -0.0573
16478SOL    HW160653   9.703   4.956   5.524 -1.0184  0.7106  0.5726
16478SOL    HW260654   9.785   4.821   5.568  0.9010  1.9163  0.7507
16479SOL     OW60655   6.085   0.459   3.055 -0.5738 -0.3444  0.4884
16479SOL    HW160656   6.095   0.529   3.126 -0.4805 -2.6201  2.7836
16479SOL    HW260657   6.018   0.391   3.085  0.3097 -1.9394 -1.1268
16480SOL     OW60658   3.309   3.036   0.892 -0.4173  0.2331 -0.4019
16480SOL    HW160659   3.320   3.022   0.991 -0.7988  0.8120 -0.2725
16480SOL    HW260660   3.397   3.064   0.853 -0.3230  0.2550 -0.1782
16481SOL     OW60661   8.567   0.657   4.941  0.5747 -0.1807  0.4238
16481SOL    HW160662   8.615   0.610   5.015  0.5000 -0.2415  0.4336
16481SOL    HW260663   8.499   0.719   4.979  1.0678  0.3643  0.4272
16482SOL     OW60664   2.760   6.553   4.300 -0.4083  0.2609  0.1636
16482SOL    HW160665   2.800   6.483   4.241  0.7843  1.4796 -0.5110
16482SOL    HW260666   2.716   6.510   4.379  0.1491 -1.2427 -0.3358
16483SOL     OW60667   2.780   4.377   2.488 -0.0483  0.0048  0.0726
16483SOL    HW160668   2.699   4.409   2.535 -1.2406 -2.1744 -0.4075
16483SOL    HW260669   2.817   4.297   2.535  1.9068  1.0282  0.3446
16484SOL     OW60670   3.685   7.759   5.731 -0.1943  0.4559 -0.2564
16484SOL    HW160671   3.734   7.695   5.791  1.1927  0.4615 -1.3442
16484SOL    HW260672   3.604   7.793   5.778  0.0746 -0.6497  1.0626
16485SOL     OW60673   2.763   1.647   0.564  0.5229 -0.1851  0.7248
16485SOL    HW160674   2.754   1.733   0.513  1.6807 -0.5811 -0.1686
16485SOL    HW260675   2.820   1.662   0.645  0.9605 -0.1683  0.4158
16486SOL     OW60676   0.954   4.982   5.292 -0.7617  0.1497  0.1357
16486SOL    HW160677   1.013   5.035   5.353 -1.9562  0.1361  1.3183
16486SOL    HW260678   0.950   4.887   5.324 -0.2688 -0.1878 -0.7889
16487SOL     OW60679   9.241   3.979   0.659  0.3088 -0.3639 -0.6209
16487SOL    HW160680   9.250   3.933   0.570  1.3240  0.0461 -0.7298
16487SOL    HW260681   9.164   3.938   0.709 -0.5439 -0.3032 -1.8590
16488SOL     OW60682   2.638   6.518   1.387  0.6938 -0.0195  0.4099
16488SOL    HW160683   2.648   6.601   1.442  1.1176  0.4156 -0.3193
16488SOL    HW260684   2.704   6.450   1.418  0.3598 -0.0765  0.9953
16489SOL     OW60685   4.361   4.980   4.365 -0.1323  0.0036 -0.4001
16489SOL    HW160686   4.406   5.056   4.319  0.4364 -0.9940 -1.5034
16489SOL    HW260687   4.269   4.967   4.327  0.5773 -1.2319 -1.7305
16490SOL     OW60688   2.817   9.593   3.555  0.4028  0.3222  0.5772
16490SOL    HW160689   2.849   9.508   3.514  2.2338  0.4661  1.6239
16490SOL    HW260690   2.765   9.645   3.488  3.0510  0.4309 -1.5131
16491SOL     OW60691   7.873   8.481   3.688  0.1331  0.0798  0.7370
16491SOL    HW160692   7.831   8.506   3.601 -0.9821 -0.3386  1.1467
16491SOL    HW260693   7.805   8.488   3.761  1.7989  3.3341  2.0704
16492SOL     OW60694   8.497   6.432   6.399  0.1774  0.4188 -0.7713
16492SOL    HW160695   8.482   6.368   6.474  0.1358  0.8872 -0.3741
16492SOL    HW260696   8.414   6.439   6.344 -0.1210  0.8198 -0.2785
16493SOL     OW60697   3.208   5.737   3.613 -0.2416  0.0447 -0.2582
16493SOL    HW160698   3.270   5.702   3.544  0.9717  0.8249  0.4269
16493SOL    HW260699   3.260   5.778   3.688 -1.5360 -0.2972  0.8677
16494SOL     OW60700   1.741   0.862   1.642  0.0210 -0.2268  0.3099
16494SOL    HW160701   1.797   0.922   1.699 -2.3197  1.0156  1.3753
16494SOL    HW260702   1.737   0.771   1.684  0.1199  0.0634  0.9660
16495SOL     OW60703   1.830   0.561   3.161  0.1457 -0.0612  0.0067
16495SOL    HW160704   1.739   0.560   3.201  0.2141 -1.8884  0.1246
16495SOL    HW260705   1.898   0.540   3.231  0.6811  1.2703 -0.0846
16496SOL     OW60706   2.172   9.481   0.897 -0.7729 -0.3412 -0.0260
16496SOL    HW160707   2.269   9.505   0.887 -0.3653 -0.1521  3.5474
16496SOL    HW260708   2.120   9.564   0.920 -1.4040 -0.7879  0.1541
16497SOL     OW60709   8.157   0.615   5.434 -0.0867 -0.0437  0.2982
16497SOL    HW160710   8.058   0.599   5.429 -0.0616 -0.6898  1.8736
16497SOL    HW260711   8.180   0.655   5.522  1.4583 -2.7158  1.1580
16498SOL     OW60712   1.950   7.677   6.523  0.1046  0.0957  0.4231
16498SOL    HW160713   1.943   7.584   6.560 -1.1985 -0.5207 -1.3001
16498SOL    HW260714   1.973   7.741   6.597  0.5708 -1.5211  1.7047
16499SOL     OW60715   3.158   4.817   1.918  0.3145 -0.0365 -0.2313
16499SOL    HW160716   3.118   4.776   2.000  1.9296 -0.7547  0.2187
16499SOL    HW260717   3.088   4.825   1.847 -0.8242 -0.4483  0.8301
16500SOL     OW60718   0.835   6.455   3.719  0.0073 -0.0169  0.1897
16500SOL    HW160719   0.773   6.409   3.656 -0.1100 -1.2782  1.2218
16500SOL    HW260720   0.921   6.404   3.724  0.3336  0.5499  0.4139
16501SOL     OW60721   3.152   1.283   0.277  0.0557 -0.3518 -0.4061
16501SOL    HW160722   3.061   1.305   0.244 -0.6156  0.5151  1.9095
16501SOL    HW260723   3.154   1.187   0.307 -0.2219 -0.2522 -0.0644
16502SOL     OW60724   7.368   1.125   2.311  0.5938 -0.1026  0.4499
16502SOL    HW160725   7.373   1.102   2.214  1.9031  1.8443  0.0307
16502SOL    HW260726   7.274   1.150   2.333  0.4522  0.2606 -0.5115
16503SOL     OW60727   3.625   2.298   4.119 -0.0270  0.8250  0.5560
16503SOL    HW160728   3.682   2.380   4.112 -0.1465  0.9367  0.9072
16503SOL    HW260729   3.674   2.220   4.079  0.1529  1.0340  0.3685
16504SOL     OW60730   1.817   0.482   2.041 -0.2530  0.1392  0.8821
16504SOL    HW160731   1.913   0.454   2.046 -0.3442 -0.7599 -1.6333
16504SOL    HW260732   1.808   0.576   2.073  1.3474 -0.0147  1.8371
16505SOL     OW60733   7.669   0.232   6.797  0.4654  0.5802 -0.5092
16505SOL    HW160734   7.715   0.268   6.716  0.3519  1.0612 -0.3659
16505SOL    HW260735   7.608   0.302   6.834  0.8607  0.5237  0.2612
16506SOL     OW60736   7.949   8.916   2.116  0.1225 -0.3963 -0.5770
16506SOL    HW160737   7.980   8.900   2.209 -0.0555  0.5949 -0.3471
16506SOL    HW260738   7.863   8.868   2.100  1.8445 -3.4201 -1.3049
16507SOL     OW60739   9.205   5.702   0.671  0.2313  0.5364 -0.0044
16507SOL    HW160740   9.199   5.765   0.748 -0.2222  2.0545 -1.2544
16507SOL    HW260741   9.263   5.625   0.695  0.9057  1.5013  1.5168
16508SOL     OW60742   7.897   1.229   0.019  0.3738  0.1009 -0.7484
16508SOL    HW160743   7.879   1.178   0.103 -0.9811  1.7600  0.0142
16508SOL    HW260744   7.995   1.236   0.004  0.6960  1.5701  1.8462
16509SOL     OW60745   7.457   6.713   5.844  0.7054 -0.0712 -0.2109
16509SOL    HW160746   7.524   6.656   5.795  0.3115 -0.9483  0.2601
16509SOL    HW260747   7.471   6.809   5.819  2.2594 -0.2239  0.0072
16510SOL     OW60748   3.511   1.786   1.403  0.4693  0.0349 -0.5116
16510SOL    HW160749   3.565   1.761   1.484 -1.2426 -1.9930  0.0770
16510SOL    HW260750   3.431   1.725   1.397  0.2338  0.5601 -3.3888
16511SOL     OW60751   2.934   8.381   4.889 -0.4161  0.7560 -0.8728
16511SOL    HW160752   2.839   8.395   4.860 -0.8169 -0.0180  0.0268
16511SOL    HW260753   2.959   8.451   4.954 -0.6476  0.4813 -0.4838
16512SOL     OW60754   2.836   6.744   4.924 -0.5966  0.4249  0.2371
16512SOL    HW160755   2.829   6.727   4.826 -0.5755  0.0729  0.2962
16512SOL    HW260756   2.775   6.683   4.973 -1.3868  1.3121  0.3804
16513SOL     OW60757   8.327   9.847   2.868  0.5889 -0.3785  0.0538
16513SOL    HW160758   8.342   9.930   2.815  1.0979 -0.3216  0.2839
16513SOL    HW260759   8.345   9.767   2.810  0.6234 -0.3231 -0.0118
16514SOL     OW60760   3.729   0.935   4.735  0.0799  0.3620 -0.7314
16514SOL    HW160761   3.823   0.967   4.739  0.0114  0.4373  0.4135
16514SOL    HW260762   3.705   0.914   4.641  1.6002 -0.7438 -0.8733
16515SOL     OW60763   7.250   2.976   0.964  0.3318 -0.0988  0.1147
16515SOL    HW160764   7.275   2.937   0.875  1.4903  0.5387  0.1551
16515SOL    HW260765   7.280   3.071   0.968  0.0897 -0.0650  1.1094
16516SOL     OW60766   3.943   2.512   2.968 -0.0848 -0.0334 -0.1689
16516SOL    HW160767   4.029   2.535   3.013 -0.0853 -1.9092  0.8193
16516SOL    HW260768   3.867   2.527   3.031 -0.6150  2.4775 -1.3231
16517SOL     OW60769   3.433   6.019   0.694 -0.1949  0.3413 -0.2755
16517SOL    HW160770   3.499   6.012   0.619  0.7075  0.4884  0.5045
16517SOL    HW260771   3.428   5.932   0.742  0.0113  0.5735  0.1613
16518SOL     OW60772   0.562   6.966   2.780  0.4380 -0.4664 -0.3326
16518SOL    HW160773   0.651   6.990   2.740  0.7431  0.7271  1.0349
16518SOL    HW260774   0.504   7.048   2.781  0.1335 -0.6995  0.8829
16519SOL     OW60775   6.692   5.846   1.089 -0.2354  0.3904 -0.4672
16519SOL    HW160776   6.632   5.899   1.029 -1.6873 -2.0758 -1.2648
16519SOL    HW260777   6.637   5.805   1.162  0.1491 -3.1888 -2.1045
16520SOL     OW60778   9.207   1.665   6.349  0.1024  0.6499  0.1372
16520SOL    HW160779   9.165   1.575   6.362 -1.1724  0.9671 -1.5634
16520SOL    HW260780   9.306   1.655   6.347 -0.0574 -0.8679 -0.9510
16521SOL     OW60781   1.564   8.548   1.240  0.4847  0.1664 -0.2295
16521SOL    HW160782   1.617   8.629   1.214  0.0607  0.4374 -0.2551
16521SOL    HW260783   1.515   8.566   1.325 -2.4839  1.2462 -2.0833
16522SOL     OW60784   0.146   1.699   1.134 -0.0184 -0.1081 -0.0167
16522SOL    HW160785   0.095   1.726   1.215 -1.6687 -2.5095 -0.2096
16522SOL    HW260786   0.093   1.723   1.052 -0.9082 -2.6183 -0.2170
16523SOL     OW60787   6.757   2.828   0.752  0.1498  0.3804 -0.5761
16523SOL    HW160788   6.836   2.868   0.797 -0.2394  0.0054  0.4605
16523SOL    HW260789   6.675   2.847   0.806 -0.2354 -0.5795 -0.8209
16524SOL     OW60790   1.316   6.840   0.264  0.2589  0.4656 -0.4218
16524SOL    HW160791   1.304   6.813   0.360 -0.2442 -0.1543 -0.6547
16524SOL    HW260792   1.227   6.852   0.221  0.4835  0.7454 -0.8115
16525SOL     OW60793   1.761   1.444   2.185  0.2135 -0.0995 -0.2837
16525SOL    HW160794   1.690   1.383   2.219  1.4267 -0.7703  1.1030
16525SOL    HW260795   1.817   1.395   2.118 -0.3042  0.2626 -0.9839
16526SOL     OW60796   3.033   6.751   1.459  0.0966 -0.3442 -0.0670
16526SOL    HW160797   3.126   6.712   1.453  0.2879  0.0282  0.5021
16526SOL    HW260798   3.020   6.793   1.548 -0.3375  0.3414 -0.4495
16527SOL     OW60799   2.971   6.359   2.446  0.2523  0.4849  0.5656
16527SOL    HW160800   3.041   6.287   2.443  0.4786  0.6468  1.9501
16527SOL    HW260801   2.928   6.360   2.536  1.2046  2.9862  1.0323
16528SOL     OW60802   0.095   0.257   1.347 -0.2446  0.0427 -0.5245
16528SOL    HW160803   0.095   0.167   1.390  1.4526  0.8591  1.2479
16528SOL    HW260804   0.038   0.320   1.399  0.5182  0.6170 -0.3706
16529SOL     OW60805   7.462   9.415   4.723 -0.0344 -0.6344 -0.4597
16529SOL    HW160806   7.424   9.497   4.766  1.0816 -0.0318 -0.6028
16529SOL    HW260807   7.405   9.388   4.646  1.6250  2.2726 -2.8431
16530SOL     OW60808   2.751   2.612   0.658 -0.0439  0.0905  0.7558
16530SOL    HW160809   2.658   2.647   0.649 -0.2906 -0.9200 -0.9039
16530SOL    HW260810   2.759   2.560   0.743 -0.6869  1.0418  1.4209
16531SOL     OW60811   8.920   1.768   5.142 -0.0742  0.4376 -0.6720
16531SOL    HW160812   8.884   1.675   5.132 -1.3967  1.0713 -1.8548
16531SOL    HW260813   8.937   1.807   5.052 -2.6751  2.5523 -0.2903
16532SOL     OW60814   3.478   7.928   5.879  0.0952 -0.4878 -0.3876
16532SOL    HW160815   3.386   7.901   5.852  0.4371 -1.4815 -0.5645
16532SOL    HW260816   3.489   8.027   5.867 -0.6402 -0.5135 -1.2666
16533SOL     OW60817   1.976   2.629   1.251  0.1398  0.0984 -0.6246
16533SOL    HW160818   2.042   2.556   1.271  0.2215  0.3105 -0.0957
16533SOL    HW260819   2.006   2.714   1.295 -0.7702  0.0528  0.0941
16534SOL     OW60820   3.020   3.104   3.983  0.6162  0.1963  0.3979
16534SOL    HW160821   2.982   3.084   3.893  1.8334  1.6209 -0.4534
16534SOL    HW260822   2.951   3.152   4.038 -0.2459 -0.9757  0.3714
16535SOL     OW60823   8.540   9.700   4.785 -0.0899  0.3043  0.2831
16535SOL    HW160824   8.587   9.709   4.697  0.4196 -0.9731  0.4232
16535SOL    HW260825   8.503   9.608   4.794  1.9785 -0.3413  2.4686
16536SOL     OW60826   6.863   1.660   7.932 -0.2545  0.5013 -0.1726
16536SOL    HW160827   6.878   1.633   7.837 -0.2637 -0.0175 -0.0274
16536SOL    HW260828   6.940   1.631   7.988 -0.8062 -0.2909  0.1947
16537SOL     OW60829   0.385   4.389   0.444  0.2221  0.5188 -0.3219
16537SOL    HW160830   0.314   4.337   0.493 -0.7653  1.1872 -1.0292
16537SOL    HW260831   0.345   4.432   0.363  1.6466  0.1639 -1.2280
16538SOL     OW60832   0.466   2.332   0.261 -0.2299 -0.1975  0.0155
16538SOL    HW160833   0.448   2.235   0.242  0.7935 -0.6732  1.3262
16538SOL    HW260834   0.546   2.339   0.321 -0.0550  1.4879 -0.4001
16539SOL     OW60835   3.569   0.980   5.517  0.0544  0.6595 -0.1651
16539SOL    HW160836   3.660   0.940   5.521  0.0274  0.6986  0.8714
16539SOL    HW260837   3.567   1.065   5.569 -0.5655  0.6820 -0.2171
16540SOL     OW60838   1.620   2.431   3.756  0.1274  0.1678 -0.4003
16540SOL    HW160839   1.579   2.340   3.753 -0.8256  0.5144  1.1526
16540SOL    HW260840   1.698   2.435   3.694 -0.2175 -1.5106 -0.9616
16541SOL     OW60841   2.745   7.107   3.592  0.3255 -0.2678  0.0145
16541SOL    HW160842   2.741   7.206   3.577 -1.2109 -0.6864 -2.5819
16541SOL    HW260843   2.713   7.086   3.685 -0.0247  1.5925  0.3352
16542SOL     OW60844   1.227   3.460   2.454  0.1142  0.0760 -0.1352
16542SOL    HW160845   1.180   3.518   2.520  0.6176  0.1965  0.1231
16542SOL    HW260846   1.238   3.510   2.368  0.4369  0.3215  0.0466
16543SOL     OW60847   2.979   6.101   4.998  0.5177 -0.4906  0.1806
16543SOL    HW160848   2.923   6.072   5.076  0.4006  1.8027  0.9916
16543SOL    HW260849   2.988   6.201   4.999  2.2573 -0.6066 -1.5781
16544SOL     OW60850   7.060   1.388   5.019  0.3862  0.0347 -0.0861
16544SOL    HW160851   7.071   1.337   5.104 -0.3764 -0.1597 -0.0979
16544SOL    HW260852   7.144   1.440   5.000  0.7342 -0.2917  0.5322
16545SOL     OW60853   4.683   1.743   5.744 -0.2618  0.3384  0.8203
16545SOL    HW160854   4.594   1.696   5.747  0.4520 -1.0999 -0.0153
16545SOL    HW260855   4.686   1.803   5.665 -0.6765  0.7723  1.1311
16546SOL     OW60856   9.484   3.394   2.964 -0.3796 -0.8732  0.0316
16546SOL    HW160857   9.521   3.486   2.950  1.2361 -1.4679  0.2596
16546SOL    HW260858   9.445   3.387   3.055 -0.2725 -0.4934  0.1060
16547SOL     OW60859   9.580   6.661   0.890  0.3995  0.0146  0.6019
16547SOL    HW160860   9.678   6.678   0.902  0.5166 -0.4426  0.3191
16547SOL    HW260861   9.546   6.611   0.970  0.0995  1.3656  1.3311
16548SOL     OW60862   4.828   3.688   5.682 -0.1459  0.6393  0.3085
16548SOL    HW160863   4.864   3.780   5.668  0.9279  0.3209  0.9540
16548SOL    HW260864   4.743   3.694   5.735 -0.6762  1.3302 -0.5943
16549SOL     OW60865   1.910   8.878   3.325  0.0711 -0.1050 -0.1296
16549SOL    HW160866   1.890   8.833   3.239 -0.5080  1.7132 -0.9690
16549SOL    HW260867   1.931   8.809   3.395  1.8059 -1.5293 -2.0216
16550SOL     OW60868   6.397   2.745   0.364 -0.3280  0.4668 -0.5749
16550SOL    HW160869   6.397   2.834   0.409 -0.3996  0.3459 -0.3373
16550SOL    HW260870   6.485   2.700   0.379 -0.4425  0.3201 -0.3465
16551SOL     OW60871   3.051   4.498   2.255 -0.1488 -1.1292 -0.4021
16551SOL    HW160872   3.065   4.400   2.237 -0.7124 -1.4205  0.6912
16551SOL    HW260873   3.040   4.512   2.353 -0.2000  0.0188 -0.5722
16552SOL     OW60874   4.154   4.441   4.378 -0.2288 -0.0994 -0.1603
16552SOL    HW160875   4.091   4.429   4.455 -1.6579  2.3700 -0.8900
16552SOL    HW260876   4.245   4.408   4.405 -0.9229 -0.1923  2.2314
16553SOL     OW60877   9.541   1.192   5.421 -0.3297 -0.2597  0.2037
16553SOL    HW160878   9.466   1.134   5.452 -0.2324 -0.9378 -0.8229
16553SOL    HW260879   9.579   1.155   5.337  1.3611 -0.0816  0.8730
16554SOL     OW60880   1.246   4.401   4.842  0.3697  0.3576  0.0446
16554SOL    HW160881   1.184   4.462   4.792  0.1484 -1.1013 -1.5185
16554SOL    HW260882   1.306   4.355   4.777  0.3474 -1.2874  1.1657
16555SOL     OW60883   2.408   0.694   0.260 -0.1218  0.3195 -0.6119
16555SOL    HW160884   2.352   0.775   0.280  0.5024  0.4202  0.7391
16555SOL    HW260885   2.356   0.631   0.202 -1.5607  0.5183  0.4478
16556SOL     OW60886   2.736   8.015   4.159  0.2669  0.3357 -0.4603
16556SOL    HW160887   2.797   7.939   4.180  1.1533  1.3422  0.6312
16556SOL    HW260888   2.741   8.084   4.231 -2.0003  0.5490 -0.4491
16557SOL     OW60889   6.054   9.681   3.816 -0.5306 -0.2503 -0.3562
16557SOL    HW160890   6.142   9.693   3.770  0.5332 -2.2278  1.0206
16557SOL    HW260891   6.016   9.592   3.792 -2.2251  0.6420 -1.0233
16558SOL     OW60892   0.981   1.458   2.700  0.0702 -0.2875 -0.1459
16558SOL    HW160893   1.003   1.555   2.683  0.7977 -0.4072  0.0875
16558SOL    HW260894   0.905   1.452   2.764  0.8870  0.1303  0.8931
16559SOL     OW60895   6.438   2.480   5.587  0.3107  0.3657 -0.0412
16559SOL    HW160896   6.498   2.546   5.631 -1.5885  1.0789  1.5456
16559SOL    HW260897   6.412   2.409   5.652 -0.1752 -0.2143 -0.8533
16560SOL     OW60898   4.048   2.260   4.537 -0.0495  0.3202 -0.8711
16560SOL    HW160899   4.109   2.291   4.463 -0.6995  0.4403 -1.3680
16560SOL    HW260900   3.972   2.325   4.546  0.0790  0.3486 -0.0355
16561SOL     OW60901   9.193   3.545   1.423  0.0858 -0.6824  0.6125
16561SOL    HW160902   9.103   3.511   1.398  0.8578 -2.8245  0.6382
16561SOL    HW260903   9.258   3.523   1.350  0.9604 -0.7883  1.4086
16562SOL     OW60904   9.711   4.135   2.975 -0.5746  0.0351 -0.4196
16562SOL    HW160905   9.713   4.105   3.070 -0.9029  0.7328 -0.1861
16562SOL    HW260906   9.662   4.222   2.969  1.1229  0.9596 -0.9705
16563SOL     OW60907   0.887   2.554   2.569 -0.0508 -0.2524  0.5786
16563SOL    HW160908   0.893   2.601   2.657  0.0067  0.6679  0.0947
16563SOL    HW260909   0.834   2.611   2.506 -1.6980 -1.7559  0.5806
16564SOL     OW60910   3.413   2.623   6.030  0.0755 -0.5909  0.1644
16564SOL    HW160911   3.339   2.640   5.964 -0.1285  0.6865  0.7020
16564SOL    HW260912   3.458   2.536   6.008 -0.9973 -0.9387 -0.7129
16565SOL     OW60913   4.889   1.193   2.512 -0.0865  0.2677 -0.0083
16565SOL    HW160914   4.983   1.161   2.510  0.3025  1.3703  0.7040
16565SOL    HW260915   4.827   1.114   2.508  0.8530 -0.4291 -0.9253
16566SOL     OW60916   1.149   8.553   4.048 -0.4188 -0.1674  0.6723
16566SOL    HW160917   1.170   8.645   4.017  0.1244 -0.8725 -1.1098
16566SOL    HW260918   1.230   8.512   4.089 -1.0815  0.6875  2.9794
16567SOL     OW60919   7.816   3.218   2.474 -0.4301 -0.4795 -0.7783
16567SOL    HW160920   7.799   3.317   2.476  0.3483 -0.2823 -2.4181
16567SOL    HW260921   7.861   3.190   2.559 -0.2571  0.6527 -0.4860
16568SOL     OW60922   0.196   3.144   5.464  0.0223  0.1264  0.0040
16568SOL    HW160923   0.115   3.174   5.514  0.0146 -0.7515  0.5219
16568SOL    HW260924   0.168   3.101   5.378  0.0009  0.8620 -0.3680
16569SOL     OW60925   1.358   8.927   5.550 -0.3045  0.2421 -0.4124
16569SOL    HW160926   1.311   8.856   5.498 -2.1057  0.8572  0.3580
16569SOL    HW260927   1.456   8.905   5.554 -1.1149 -3.5484  1.8456
16570SOL     OW60928   7.380   3.572   4.034  0.3767  0.2496  0.5131
16570SOL    HW160929   7.378   3.645   3.966  0.1664 -0.1296  0.1150
16570SOL    HW260930   7.468   3.524   4.028 -0.5232 -1.2462 -1.0325
16571SOL     OW60931   2.510   1.959   3.499 -0.3346 -0.6226  0.8834
16571SOL    HW160932   2.565   1.900   3.439 -1.2822 -0.6985  0.0877
16571SOL    HW260933   2.568   1.994   3.572  0.7080 -0.9543  0.2308
16572SOL     OW60934   3.528   4.450   1.282 -0.1605 -0.7708  0.3067
16572SOL    HW160935   3.605   4.396   1.318  0.8025  0.1168 -0.3919
16572SOL    HW260936   3.514   4.428   1.186  0.6683  0.6785 -0.1643
16573SOL     OW60937   7.145   7.765   3.043  0.0277  0.4210 -0.2387
16573SOL    HW160938   7.159   7.860   3.014 -2.7006  0.3798 -1.8402
16573SOL    HW260939   7.062   7.760   3.099 -0.2542 -1.1419 -0.7883
16574SOL     OW60940   9.676   5.956   4.413  0.3294 -0.3137  0.2918
16574SOL    HW160941   9.764   5.918   4.383 -1.8704 -2.9620 -3.1913
16574SOL    HW260942   9.643   5.904   4.492  1.3447 -0.0297  0.9108
16575SOL     OW60943   5.183   8.445   4.069  0.5426 -0.0115 -0.2219
16575SOL    HW160944   5.121   8.499   4.126 -0.0639 -0.7879 -0.1442
16575SOL    HW260945   5.167   8.348   4.085  1.8053 -0.2163 -0.1803
16576SOL     OW60946   0.285   5.796   5.735  0.3411 -1.1382  0.2835
16576SOL    HW160947   0.339   5.765   5.657 -0.6241  1.4271 -1.4894
16576SOL    HW260948   0.193   5.756   5.730  0.4375 -1.3649  0.3538
16577SOL     OW60949   6.896   8.238   3.273 -0.0817 -0.6136 -0.2221
16577SOL    HW160950   6.949   8.162   3.236 -1.0080 -0.6334 -1.5407
16577SOL    HW260951   6.801   8.231   3.242 -0.8824 -0.5814  2.1009
16578SOL     OW60952   3.781   4.442   4.836  0.6419 -0.0643  0.3002
16578SOL    HW160953   3.817   4.491   4.756  0.8530 -0.4468  0.1586
16578SOL    HW260954   3.695   4.397   4.810 -0.2606  1.3319  0.7959
16579SOL     OW60955   6.156   0.241   6.665  0.7191  0.2597  0.3898
16579SOL    HW160956   6.175   0.145   6.644 -3.5944 -0.5718 -0.0820
16579SOL    HW260957   6.147   0.293   6.580  1.9370  0.9064  0.6326
16580SOL     OW60958   9.386   2.548   1.576  0.2775 -0.7801 -0.5295
16580SOL    HW160959   9.424   2.471   1.526  1.7962 -1.4741  1.6045
16580SOL    HW260960   9.365   2.623   1.513  1.9154 -1.7003 -2.1862
16581SOL     OW60961   2.951   0.712   6.152 -1.0192  0.7942 -0.4085
16581SOL    HW160962   2.906   0.624   6.138  1.7359 -0.7765  0.2310
16581SOL    HW260963   2.920   0.751   6.239  0.0163 -1.0598  0.8385
16582SOL     OW60964   1.933   8.011   0.364  0.0731 -0.0498  0.1127
16582SOL    HW160965   1.860   7.949   0.395 -1.3588  0.8711 -1.3080
16582SOL    HW260966   1.987   7.966   0.293 -1.4951  0.5811 -1.5233
16583SOL     OW60967   3.636   8.707   3.365 -0.4152  0.4099  0.0122
16583SOL    HW160968   3.627   8.807   3.372  0.7750  0.6199 -1.1804
16583SOL    HW260969   3.678   8.672   3.448  0.0882  1.0412  0.0343
16584SOL     OW60970   1.289   1.049   0.524  0.0104 -0.1787  0.8304
16584SOL    HW160971   1.341   1.121   0.479  1.8978 -0.9814  1.6202
16584SOL    HW260972   1.305   1.054   0.623 -1.5634 -0.3490  1.0982
16585SOL     OW60973   6.853   5.169   2.120 -0.0205 -0.1624  0.2889
16585SOL    HW160974   6.788   5.212   2.057  0.4375  1.0031  0.6014
16585SOL    HW260975   6.944   5.207   2.106  0.4721 -1.3163  0.3069
16586SOL     OW60976   5.698   0.721   4.773 -0.0772  0.4670 -0.4985
16586SOL    HW160977   5.718   0.624   4.760 -2.4932  0.3007 -3.5619
16586SOL    HW260978   5.784   0.772   4.783  1.2043 -1.9545  1.1939
16587SOL     OW60979   9.022   7.511   5.624  0.2762  0.1648 -0.3791
16587SOL    HW160980   8.949   7.447   5.650 -0.3623 -0.0273 -2.5751
16587SOL    HW260981   9.030   7.513   5.525  3.4381  0.0061 -0.1674
16588SOL     OW60982   8.462   2.496   4.558 -0.0308  0.2119  0.3998
16588SOL    HW160983   8.430   2.486   4.652  0.7144 -1.1518  0.5165
16588SOL    HW260984   8.410   2.436   4.498  0.4201  0.0688  0.1521
16589SOL     OW60985   3.474   9.918   0.582  0.1899  0.7773 -0.3681
16589SOL    HW160986   3.536   9.964   0.646  0.7326  0.1652 -0.4502
16589SOL    HW260987   3.437   9.985   0.518  1.4859  0.9955 -0.8978
16590SOL     OW60988   7.692   4.357   8.067  0.0547 -0.1040 -0.5774
16590SOL    HW160989   7.745   4.417   8.006  0.8340  0.7388  0.9007
16590SOL    HW260990   7.665   4.408   8.148  2.3607 -2.2416  1.6193
16591SOL     OW60991   0.148   9.322   1.044  0.0595 -0.5289  0.1574
16591SOL    HW160992   0.133   9.394   1.112 -0.2449 -0.4314 -0.0117
16591SOL    HW260993   0.147   9.361   0.952  0.6183 -0.6368  0.1005
16592SOL     OW60994   4.567   9.842   2.451 -0.2324 -0.1413  0.1417
16592SOL    HW160995   4.651   9.817   2.403  0.4987 -0.6540  1.6730
16592SOL    HW260996   4.545   9.938   2.433 -0.2395 -0.4587 -1.6045
16593SOL     OW60997   6.443   1.740   2.566  0.0738  0.1509 -0.2982
16593SOL    HW160998   6.421   1.650   2.603  0.9714  0.6658  1.5445
16593SOL    HW260999   6.541   1.745   2.546  0.1646  0.9539  0.2990
16594SOL     OW61000   6.434   4.464   7.807  0.1017 -0.2199  0.2968
16594SOL    HW161001   6.424   4.511   7.895  1.3363  0.1472  0.2468
16594SOL    HW261002   6.359   4.398   7.796 -1.8767  1.9884  0.1887
16595SOL     OW61003   3.087   4.621   2.841  0.1009 -0.2904  0.9424
16595SOL    HW161004   3.001   4.665   2.816  0.6444  0.0870 -0.3151
16595SOL    HW261005   3.073   4.522   2.847 -0.4734 -0.2117  0.9555
16596SOL     OW61006   3.286   5.968   3.211  0.1993 -0.4225  0.3130
16596SOL    HW161007   3.307   5.922   3.125  0.9075 -0.6758  0.6139
16596SOL    HW261008   3.327   5.917   3.287  1.2285  0.8211  0.6220
16597SOL     OW61009   2.010   0.498   1.336  0.1815 -0.2189  0.1425
16597SOL    HW161010   1.915   0.510   1.363  0.1967 -0.9066  0.5229
16597SOL    HW261011   2.070   0.530   1.409  0.2553  0.7539 -0.3317
16598SOL     OW61012   4.266   5.613   1.238  0.7392  0.5305  0.1643
16598SOL    HW161013   4.348   5.625   1.183  0.3961  1.3320 -0.1795
16598SOL    HW261014   4.232   5.519   1.227  0.6996  0.6676 -0.9559
16599SOL     OW61015   1.358   7.326   3.097  0.3009 -0.4479 -0.1001
16599SOL    HW161016   1.365   7.367   3.188 -2.6888 -0.4251  0.1594
16599SOL    HW261017   1.322   7.233   3.105  0.0991 -0.4725 -1.2397
16600SOL     OW61018   9.821   5.538   3.031 -0.0233 -0.3525 -0.6195
16600SOL    HW161019   9.782   5.490   3.109 -0.7754  0.6119 -0.3949
16600SOL    HW261020   9.901   5.590   3.060  0.2724 -0.7707 -0.6866
16601SOL     OW61021   0.898   3.493   0.455 -0.5113 -0.3216 -0.6182
16601SOL    HW161022   0.804   3.503   0.424 -0.8217  1.5629  0.8271
16601SOL    HW261023   0.902   3.425   0.528 -1.4988  2.6091  2.2592
16602SOL     OW61024   1.669   1.902   1.512  0.4041 -0.6424 -0.3791
16602SOL    HW161025   1.697   1.828   1.575 -5.1670 -3.7836 -1.3223
16602SOL    HW261026   1.645   1.983   1.565  0.9096 -1.4500  1.1242
16603SOL     OW61027   1.296   6.209   0.734 -0.1789  0.8009  0.2651
16603SOL    HW161028   1.246   6.296   0.740 -1.1729  0.1909  0.8913
16603SOL    HW261029   1.384   6.219   0.779  0.9067  2.3208 -2.0971
16604SOL     OW61030   1.732   4.759   4.688  0.0224 -0.4196 -0.1286
16604SOL    HW161031   1.725   4.674   4.740  0.8645 -1.2821 -1.4016
16604SOL    HW261032   1.702   4.744   4.594 -0.5076  0.8757 -0.1877
16605SOL     OW61033   0.038   8.712   5.439 -0.2483  0.0270  0.0110
16605SOL    HW161034   0.058   8.617   5.414  2.8954  1.0191 -1.5027
16605SOL    HW261035   0.050   8.724   5.538  0.1344 -0.9798  0.0956
16606SOL     OW61036   6.575   8.881   4.776 -0.4980  0.1120 -0.7225
16606SOL    HW161037   6.536   8.952   4.834 -0.2957 -0.3692  0.0127
16606SOL    HW261038   6.501   8.827   4.736 -0.6412  0.5320 -1.0257
16607SOL     OW61039   6.589   0.916   2.085 -0.0978 -0.0395  0.1287
16607SOL    HW161040   6.607   0.818   2.074  0.2219  0.0407 -0.0800
16607SOL    HW261041   6.549   0.933   2.175 -2.6634 -0.7112 -0.8260
16608SOL     OW61042   7.384   2.509   7.978 -0.0865 -0.2492 -0.1730
16608SOL    HW161043   7.320   2.451   7.927 -0.1514 -0.2712 -0.0664
16608SOL    HW261044   7.447   2.450   8.029  0.1620 -0.2281 -0.4595
16609SOL     OW61045   5.915   8.415   3.148 -0.0541 -0.3549 -0.6547
16609SOL    HW161046   5.910   8.506   3.107 -0.9254  0.8497  1.9932
16609SOL    HW261047   5.993   8.411   3.211  0.3527 -1.6446 -1.2422
16610SOL     OW61048   5.163   2.893   0.667  0.5007 -0.0220 -0.1504
16610SOL    HW161049   5.145   2.860   0.760  2.8585  1.6792  0.9678
16610SOL    HW261050   5.211   2.981   0.672 -1.6811  1.4216 -3.0062
16611SOL     OW61051   0.530   2.942   6.066 -0.3272 -0.2177  0.2130
16611SOL    HW161052   0.543   2.890   5.982 -0.9815 -0.8938  0.5253
16611SOL    HW261053   0.500   2.881   6.139  0.8987  0.2404  1.1254
16612SOL     OW61054   6.385   0.473   4.469 -0.0190  0.0965 -0.4298
16612SOL    HW161055   6.345   0.564   4.471 -0.7656 -0.2348  1.3115
16612SOL    HW261056   6.322   0.410   4.424 -0.4616  0.0309  0.2679
16613SOL     OW61057   3.664   3.050   7.999  0.2658 -0.4841  0.1738
16613SOL    HW161058   3.570   3.016   7.988  1.1916 -2.4362 -2.1604
16613SOL    HW261059   3.684   3.115   7.927  1.1357 -1.0642 -0.1096
16614SOL     OW61060   9.332   3.715   2.956  0.5301 -0.4912  0.6812
16614SOL    HW161061   9.307   3.619   2.970 -0.2791 -0.3065  0.5453
16614SOL    HW261062   9.299   3.744   2.866 -0.5371  0.3267  1.3218
16615SOL     OW61063   9.690   6.650   0.369  0.0306  0.1302  0.4175
16615SOL    HW161064   9.720   6.663   0.464  2.2883  1.4205 -0.4559
16615SOL    HW261065   9.713   6.730   0.315 -1.5118 -0.4706 -1.1982
16616SOL     OW61066   3.703   7.724   4.657 -0.1394  0.2160 -0.2489
16616SOL    HW161067   3.615   7.764   4.685  0.2884 -0.1428  1.6740
16616SOL    HW261068   3.708   7.722   4.558 -2.3204  0.2407 -0.3956
16617SOL     OW61069   6.831   1.604   1.162 -0.3584 -0.7698  0.6483
16617SOL    HW161070   6.874   1.514   1.152  0.1876 -0.5945  1.4050
16617SOL    HW261071   6.745   1.596   1.212 -1.8301 -1.2891 -1.8446
16618SOL     OW61072   6.384   7.770   5.230  0.5888 -0.3775 -0.1389
16618SOL    HW161073   6.355   7.723   5.313  0.1570 -0.3021 -0.2495
16618SOL    HW261074   6.483   7.759   5.219  0.7178 -0.0396  0.6058
16619SOL     OW61075   7.417   3.703   8.088 -0.2405 -0.4452  1.0173
16619SOL    HW161076   7.485   3.637   8.057 -1.2357 -1.2280  0.4466
16619SOL    HW261077   7.325   3.665   8.074 -0.8640  1.4478 -0.2658
16620SOL     OW61078   0.188   3.467   8.161 -0.1210  0.0226  0.2645
16620SOL    HW161079   0.221   3.380   8.124  0.1888  1.2224 -2.4651
16620SOL    HW261080   0.092   3.480   8.135 -0.1078  0.5782  0.4772
16621SOL     OW61081   3.585   4.297   2.007 -0.0849 -0.0447 -0.5908
16621SOL    HW161082   3.682   4.310   1.984 -0.3872  1.3429 -1.1011
16621SOL    HW261083   3.561   4.201   1.993  1.7343 -0.8690  1.5789
16622SOL     OW61084   2.728   4.527   0.494  0.1365 -0.2225 -0.3743
16622SOL    HW161085   2.671   4.448   0.470 -0.5325  0.6059 -1.5944
16622SOL    HW261086   2.824   4.507   0.473 -0.0017 -0.7900 -0.4710
16623SOL     OW61087   8.365   8.531   0.767 -0.5501  0.8103 -0.1057
16623SOL    HW161088   8.349   8.567   0.676 -1.2440  2.3433  0.6046
16623SOL    HW261089   8.416   8.597   0.822  0.8149 -0.5446  0.2909
16624SOL     OW61090   2.196   9.813   2.840  0.0702  0.2594 -0.0343
16624SOL    HW161091   2.211   9.912   2.837  0.3918  0.1852 -1.0710
16624SOL    HW261092   2.120   9.793   2.901 -0.0775  1.1633  0.0840
16625SOL     OW61093   9.167   7.986   1.327  0.0895 -0.2035  0.0384
16625SOL    HW161094   9.148   7.993   1.229  1.8478  1.1849 -0.2376
16625SOL    HW261095   9.266   7.986   1.341 -0.1552 -0.1599  1.8482
16626SOL     OW61096   0.324   6.595   1.636  0.3237  0.6737 -0.5702
16626SOL    HW161097   0.349   6.524   1.702 -0.2114  0.9954 -0.0157
16626SOL    HW261098   0.225   6.610   1.639  0.2908  0.6306 -1.5069
16627SOL     OW61099   3.779   7.133   4.306 -0.2257 -0.5656 -0.3576
16627SOL    HW161100   3.833   7.081   4.372 -1.7494 -0.2011  1.2149
16627SOL    HW261101   3.723   7.070   4.251 -2.4210 -0.6221  1.8591
16628SOL     OW61102   1.019   7.330   6.055 -0.0828  0.4301  0.5423
16628SOL    HW161103   1.067   7.279   6.126 -1.0296  0.7774  1.4382
16628SOL    HW261104   0.956   7.395   6.097 -1.0246  0.2789 -0.6133
16629SOL     OW61105   9.575   4.832   0.783  0.5354  0.5344  0.1809
16629SOL    HW161106   9.634   4.794   0.713  1.7193  1.3254  0.7304
16629SOL    HW261107   9.560   4.929   0.766  0.4594  0.6328  0.7682
16630SOL     OW61108   0.002   2.576   3.755 -0.1955  0.3728 -0.0934
16630SOL    HW161109   0.004   2.647   3.825  0.2901  1.4717 -1.2015
16630SOL    HW261110   0.089   2.528   3.753  0.2090  1.1123 -0.7046
16631SOL     OW61111   0.405   4.801   3.935  0.2788 -0.7348 -0.1447
16631SOL    HW161112   0.451   4.877   3.889 -2.1241  0.6872 -0.2367
16631SOL    HW261113   0.407   4.720   3.875  1.0625 -0.1698 -0.8902
16632SOL     OW61114   8.406   7.530   2.352  0.0377  0.2274  0.2154
16632SOL    HW161115   8.379   7.466   2.423 -0.3273 -0.2210 -0.3236
16632SOL    HW261116   8.400   7.624   2.387 -1.3815  0.0770  0.3637
16633SOL     OW61117   1.308   0.452   3.617 -0.2901 -0.3843  0.1407
16633SOL    HW161118   1.378   0.518   3.587  0.8719 -1.5055  0.3408
16633SOL    HW261119   1.333   0.416   3.706 -1.1235 -0.8211  0.1944
16634SOL     OW61120   7.292   2.735   1.492 -0.8627  0.2773 -0.4943
16634SOL    HW161121   7.355   2.811   1.478 -1.1429  1.0081  1.9881
16634SOL    HW261122   7.204   2.770   1.524 -0.2534 -1.1872  3.0329
16635SOL     OW61123   3.692   5.386   4.372  1.0188 -0.0822  0.1923
16635SOL    HW161124   3.660   5.357   4.282  1.9468  0.2026 -0.2390
16635SOL    HW261125   3.731   5.478   4.365  0.3987  0.2550  1.0388
16636SOL     OW61126   3.559   6.778   1.282 -0.2277 -0.0175 -0.5413
16636SOL    HW161127   3.497   6.802   1.357 -2.2428  0.0339 -2.1764
16636SOL    HW261128   3.595   6.862   1.241  0.8915 -0.0460  0.3518
16637SOL     OW61129   7.563   3.218   4.973 -0.0939 -0.4048 -0.3985
16637SOL    HW161130   7.639   3.277   4.999  1.1494 -1.8293 -0.6886
16637SOL    HW261131   7.578   3.184   4.880 -0.9502 -0.9218 -0.3516
16638SOL     OW61132   2.547   6.704   1.919  0.2020 -0.5697  0.4498
16638SOL    HW161133   2.460   6.744   1.948 -1.1655 -0.8039 -3.0799
16638SOL    HW261134   2.610   6.777   1.893 -0.5418 -0.5355 -1.2753
16639SOL     OW61135   2.479   0.970   5.396  0.4015 -0.4136 -0.0602
16639SOL    HW161136   2.450   1.062   5.423  0.6192 -0.4846  0.4311
16639SOL    HW261137   2.572   0.975   5.360 -0.2433 -0.1704 -1.7227
16640SOL     OW61138   6.470   9.018   3.969  0.4216  0.4569  0.6154
16640SOL    HW161139   6.529   8.957   3.917  1.6982 -0.2046  2.7626
16640SOL    HW261140   6.521   9.101   3.994  1.0208 -0.7842  3.7802
16641SOL     OW61141   1.780   7.726   5.843  0.5748  0.0197 -0.0934
16641SOL    HW161142   1.814   7.632   5.833 -0.0370 -0.1664 -0.4273
16641SOL    HW261143   1.789   7.754   5.939  1.0439 -0.2646 -0.0506
16642SOL     OW61144   9.581   4.015   0.658  0.3834 -0.0742 -0.8293
16642SOL    HW161145   9.632   4.095   0.626  0.1809  0.5094  0.2671
16642SOL    HW261146   9.641   3.934   0.657  0.3379 -0.0899 -2.7419
16643SOL     OW61147   7.900   2.951   4.234 -0.4246  0.7911  0.1959
16643SOL    HW161148   7.951   3.028   4.196 -1.3852  1.6424  0.6045
16643SOL    HW261149   7.872   2.890   4.160  2.4514 -0.4888  0.1141
16644SOL     OW61150   9.891   5.128   1.268  0.2204 -0.0325  0.1650
16644SOL    HW161151   9.886   5.087   1.359 -2.2161  1.8557  0.9494
16644SOL    HW261152   9.986   5.152   1.247  0.6542  0.6043  2.7210
16645SOL     OW61153   7.401   1.327   1.764 -0.0206 -0.1987 -0.5978
16645SOL    HW161154   7.332   1.259   1.741 -1.5114  0.9211  0.4824
16645SOL    HW261155   7.423   1.380   1.682  1.4703 -2.2328 -1.5449
16646SOL     OW61156   1.406   6.053   3.358 -0.0105 -0.4696 -0.3898
16646SOL    HW161157   1.324   6.033   3.305  1.0054 -2.1736 -1.3568
16646SOL    HW261158   1.464   6.117   3.307 -0.2964  0.0214 -0.1076
16647SOL     OW61159   7.704   1.296   2.876  0.6254 -0.4102  0.1871
16647SOL    HW161160   7.679   1.217   2.820 -0.0678 -0.0229 -0.0479
16647SOL    HW261161   7.793   1.280   2.918  1.4652 -0.4324 -1.5613
16648SOL     OW61162   2.241   6.803   0.596  0.1427 -0.5119 -0.0827
16648SOL    HW161163   2.238   6.711   0.556 -3.5307  0.0364 -1.1836
16648SOL    HW261164   2.209   6.870   0.529 -0.2396  1.1740  1.7522
16649SOL     OW61165   9.154   9.395   3.598 -0.0831  0.9298  0.2699
16649SOL    HW161166   9.233   9.362   3.650 -0.1528 -0.6281 -0.5689
16649SOL    HW261167   9.108   9.317   3.555 -1.2030  1.9832 -0.4742
16650SOL     OW61168   3.352   8.355   1.922 -0.1162 -0.1718  0.9656
16650SOL    HW161169   3.289   8.367   1.998  1.2971 -2.4474  2.5319
16650SOL    HW261170   3.417   8.431   1.920 -2.3630  1.7908 -0.2032
16651SOL     OW61171   8.978   1.236   5.544 -0.3976 -0.4674 -0.3891
16651SOL    HW161172   9.013   1.142   5.544  2.2596  0.4620 -1.6511
16651SOL    HW261173   8.954   1.263   5.451  0.2155  0.5707 -0.2562
16652SOL     OW61174   2.182   1.038   2.742  0.0127  0.1736  0.3224
16652SOL    HW161175   2.165   1.136   2.755 -0.9002  0.2737 -1.5084
16652SOL    HW261176   2.265   1.012   2.791 -0.9693  1.3877  2.7255
16653SOL     OW61177   5.594   1.791   4.204 -0.2369 -0.6578 -0.4285
16653SOL    HW161178   5.678   1.844   4.193 -0.8035  0.1205 -1.0914
16653SOL    HW261179   5.522   1.830   4.146 -1.2122 -0.9867  0.5450
16654SOL     OW61180   8.629   3.461   5.295  0.0497 -0.0568 -0.1433
16654SOL    HW161181   8.709   3.457   5.236  2.2416  1.0463  2.6642
16654SOL    HW261182   8.637   3.538   5.358 -4.3911  1.5820 -1.4111
16655SOL     OW61183   1.148   5.947   0.321 -0.3790 -0.0441 -0.3681
16655SOL    HW161184   1.174   5.880   0.252  1.3717  0.1490  0.0831
16655SOL    HW261185   1.083   6.012   0.281  2.3768  1.4760 -2.5941
16656SOL     OW61186   4.507   3.317   2.626 -0.0613 -0.5438 -0.5400
16656SOL    HW161187   4.583   3.363   2.581 -1.1933  1.8339 -0.0740
16656SOL    HW261188   4.485   3.364   2.712 -3.5528  0.2525 -1.7889
16657SOL     OW61189   9.018   6.655   2.308 -0.1222 -0.4169  0.4269
16657SOL    HW161190   8.921   6.680   2.316  0.0604  0.4457 -0.1150
16657SOL    HW261191   9.025   6.555   2.302 -0.8691 -0.6045  2.1420
16658SOL     OW61192   9.323   7.755   4.029  0.3060  0.1559 -0.2078
16658SOL    HW161193   9.402   7.811   4.002  0.3605 -0.1419 -0.6850
16658SOL    HW261194   9.249   7.815   4.061 -0.1011  0.6067 -1.9136
16659SOL     OW61195   1.085   2.538   2.113  0.1052  0.0422 -0.0382
16659SOL    HW161196   1.123   2.495   2.194  1.2985  1.1368  0.0078
16659SOL    HW261197   1.119   2.492   2.031  0.7150  0.3477  0.0347
16660SOL     OW61198   2.712   4.036   5.251 -0.4426 -0.0611 -0.0977
16660SOL    HW161199   2.793   4.053   5.306 -0.4200  1.0050 -0.4478
16660SOL    HW261200   2.734   3.972   5.177  0.6988  2.0321 -1.6240
16661SOL     OW61201   7.406   3.059   0.567 -0.0051  0.2082 -0.5219
16661SOL    HW161202   7.400   3.098   0.475  2.8231  0.0043 -0.8284
16661SOL    HW261203   7.442   3.127   0.631  2.5217 -1.0377 -0.5460
16662SOL     OW61204   3.264   0.939   2.265 -0.0318 -0.4939  0.3785
16662SOL    HW161205   3.356   0.972   2.285 -0.3639  0.0348  1.0466
16662SOL    HW261206   3.269   0.866   2.197  0.9453 -1.0093  0.9969
16663SOL     OW61207   7.973   9.625   3.518  0.2588  0.1211 -0.0518
16663SOL    HW161208   7.923   9.567   3.454 -1.2083  1.2170  0.0689
16663SOL    HW261209   8.055   9.661   3.472  0.5170 -1.0372 -0.5182
16664SOL     OW61210   8.133   6.626   1.804  0.0281  0.2619 -0.1819
16664SOL    HW161211   8.216   6.635   1.749  0.2406  0.1222  0.1138
16664SOL    HW261212   8.095   6.534   1.792  0.4464  0.0083  0.4245
16665SOL     OW61213   2.924   7.858   4.253  0.2910 -0.4346 -0.1440
16665SOL    HW161214   2.993   7.805   4.202  0.4906  0.6016 -0.9726
16665SOL    HW261215   2.958   7.877   4.345  1.0675 -0.0606 -0.4958
16666SOL     OW61216   3.996   6.437   1.312  0.0629 -0.4266  0.3179
16666SOL    HW161217   4.033   6.417   1.221 -1.6548 -1.6549 -0.1369
16666SOL    HW261218   3.922   6.503   1.304 -0.0521 -0.4941  0.8371
16667SOL     OW61219   2.410   0.814   3.725  0.2822  0.1938  0.1647
16667SOL    HW161220   2.380   0.785   3.635  1.2205  0.1030 -0.1316
16667SOL    HW261221   2.416   0.914   3.728 -0.1809  0.2188  0.2706
16668SOL     OW61222   8.092   3.072   4.092  0.3830  0.1447  0.1195
16668SOL    HW161223   8.164   3.057   4.159  0.0446 -0.4252  0.3639
16668SOL    HW261224   8.123   3.137   4.023  1.1637 -0.1727  0.1660
16669SOL     OW61225   5.207   9.974   4.007 -0.7875 -0.0098  0.5120
16669SOL    HW161226   5.189  10.042   4.078  0.4539  1.1859 -0.2935
16669SOL    HW261227   5.305   9.956   4.003 -1.2691 -3.1254  1.8619
16670SOL     OW61228   8.096   5.469   1.146  0.1244 -0.0831 -0.0974
16670SOL    HW161229   8.096   5.553   1.093  0.0762 -1.5848 -2.5364
16670SOL    HW261230   8.189   5.434   1.153 -0.0675 -0.6581 -0.4251
16671SOL     OW61231   7.299   0.264   4.103 -0.4364 -0.6001  0.2374
16671SOL    HW161232   7.338   0.229   4.189 -0.3703  0.3551  0.6057
16671SOL    HW261233   7.295   0.363   4.107 -1.5980 -0.6186 -0.3727
16672SOL     OW61234   2.869   4.798   5.487  0.2156 -0.0373 -0.6718
16672SOL    HW161235   2.900   4.888   5.517  0.1129  0.4666 -2.0121
16672SOL    HW261236   2.859   4.737   5.566 -0.0064  1.2157  0.2794
16673SOL     OW61237   2.685   9.254   2.786 -0.2359 -0.5710 -0.3415
16673SOL    HW161238   2.761   9.222   2.730 -0.4093 -1.0965 -0.2824
16673SOL    HW261239   2.599   9.233   2.740 -0.3940 -1.3885  0.2996
16674SOL     OW61240   8.028   4.860   1.780  0.5450  0.1733  0.0314
16674SOL    HW161241   7.979   4.786   1.734  0.4283 -0.3233  0.9580
16674SOL    HW261242   8.049   4.834   1.874  1.1428  1.0315  0.1453
16675SOL     OW61243   2.724   2.859   0.385 -0.2325  0.1200  0.4655
16675SOL    HW161244   2.659   2.934   0.385  1.3418  1.5177  1.0442
16675SOL    HW261245   2.795   2.876   0.453 -0.3132 -2.3175  1.2179
16676SOL     OW61246   3.495   5.545   3.862 -0.4800 -0.1930  0.0615
16676SOL    HW161247   3.436   5.470   3.893 -0.7009  0.1012  0.3580
16676SOL    HW261248   3.454   5.632   3.888  0.2216  0.0059  0.4941
16677SOL     OW61249   2.153   7.056   3.969  0.2616  0.5846  0.8048
16677SOL    HW161250   2.124   7.058   3.873 -1.3652 -0.1866  1.2544
16677SOL    HW261251   2.252   7.067   3.974  0.7940 -2.7090 -1.1478
16678SOL     OW61252   5.050   0.076   1.401 -0.6478  0.5209  0.2924
16678SOL    HW161253   5.056   0.165   1.356 -2.1069  0.0422 -0.8770
16678SOL    HW261254   4.959   0.065   1.442 -0.1558 -0.0520  1.2442
16679SOL     OW61255   0.864   1.446   0.906 -0.2511 -0.2143  0.2731
16679SOL    HW161256   0.816   1.488   0.983  1.4630 -1.0622  1.8502
16679SOL    HW261257   0.892   1.517   0.842 -1.4448  0.5354  0.5563
16680SOL     OW61258   0.969   9.764   1.510  0.0248 -0.2859 -0.1761
16680SOL    HW161259   0.971   9.846   1.567 -0.0466 -0.4242  0.0284
16680SOL    HW261260   0.936   9.786   1.419 -0.7167 -0.2205  0.1020
16681SOL     OW61261   2.637   3.764   0.922 -0.3118  0.5008  0.0375
16681SOL    HW161262   2.725   3.726   0.895 -1.3206 -1.3087 -0.7715
16681SOL    HW261263   2.582   3.693   0.966 -1.8685  1.2681 -0.6352
16682SOL     OW61264   1.602   2.293   6.211 -0.0654  0.2075  0.8258
16682SOL    HW161265   1.677   2.307   6.147 -1.3303  0.8216 -0.5479
16682SOL    HW261266   1.631   2.229   6.282  1.2996 -0.6523 -0.4664
16683SOL     OW61267   1.641   5.461   2.971  0.2697  0.1774 -0.4809
16683SOL    HW161268   1.708   5.464   3.046 -0.2988 -1.1833  0.1051
16683SOL    HW261269   1.688   5.477   2.884  1.5449 -1.6084 -0.1627
16684SOL     OW61270   6.108   0.668   5.281  0.3103  0.2779  0.3676
16684SOL    HW161271   6.033   0.690   5.219  0.2619  0.3661  0.4587
16684SOL    HW261272   6.186   0.726   5.261  1.0214 -1.1148 -1.0073
16685SOL     OW61273   6.091   8.832   4.145  0.4860  0.2621 -0.3175
16685SOL    HW161274   6.152   8.892   4.092 -0.3238  0.9564 -0.4760
16685SOL    HW261275   6.061   8.880   4.227 -0.3994  0.1813 -0.5923
16686SOL     OW61276   7.178   1.868   2.475 -0.0801  0.0904  0.3620
16686SOL    HW161277   7.213   1.812   2.401  1.4702  1.3179  0.1303
16686SOL    HW261278   7.221   1.840   2.561 -2.5319 -1.9160  0.9640
16687SOL     OW61279   5.643   0.216   5.101 -0.9482 -0.1183  0.2155
16687SOL    HW161280   5.604   0.125   5.097 -0.3296 -0.5769  3.3609
16687SOL    HW261281   5.741   0.212   5.079 -0.1988 -0.7660  3.4434
16688SOL     OW61282   1.186   1.750   4.418  0.5343  0.0314  0.0717
16688SOL    HW161283   1.217   1.726   4.510  0.0361 -0.9261 -0.0009
16688SOL    HW261284   1.224   1.685   4.352  0.9560  0.7603 -0.4192
16689SOL     OW61285   8.217   1.387   3.023 -0.1536 -0.0409 -0.1983
16689SOL    HW161286   8.148   1.457   3.006 -0.7867 -0.8860 -1.1171
16689SOL    HW261287   8.178   1.297   3.010  0.6528 -0.5813  1.0324
16690SOL     OW61288   2.583   4.550   1.584  0.4889  0.4556 -0.0477
16690SOL    HW161289   2.628   4.627   1.630  2.9374 -0.0202 -1.5575
16690SOL    HW261290   2.652   4.497   1.534 -1.9237  0.3972 -3.4633
16691SOL     OW61291   6.636   0.832   2.772 -0.6697  0.0081 -0.6599
16691SOL    HW161292   6.549   0.840   2.722 -0.4170 -0.9080 -1.2592
16691SOL    HW261293   6.712   0.841   2.708 -0.3408 -1.1411 -0.4412
16692SOL     OW61294   5.179   1.258   2.619  0.0144 -0.1966  0.1345
16692SOL    HW161295   5.172   1.348   2.661  3.2300 -0.1351  0.6585
16692SOL    HW261296   5.155   1.264   2.522 -2.7410  0.5803  0.8249
16693SOL     OW61297   9.699   0.183   2.462 -0.3452  0.2165 -0.0455
16693SOL    HW161298   9.797   0.200   2.450 -0.5404  0.7533 -0.9284
16693SOL    HW261299   9.685   0.125   2.542  0.6434  0.7570  0.5376
16694SOL     OW61300   8.328   9.789   3.126  0.5515  0.1532  0.1095
16694SOL    HW161301   8.349   9.802   3.029 -0.3389  0.1292 -0.0876
16694SOL    HW261302   8.390   9.845   3.182  1.5682 -0.4101 -0.4396
16695SOL     OW61303   9.834   3.630   1.881 -0.4600 -0.5206  0.2104
16695SOL    HW161304   9.754   3.673   1.922 -1.0692 -0.6272 -0.8440
16695SOL    HW261305   9.831   3.531   1.897  0.3914 -0.3074  1.7174
16696SOL     OW61306   8.932   9.715   5.118  0.1217  0.0201 -0.1414
16696SOL    HW161307   8.914   9.617   5.118  1.0093 -0.1548 -0.1938
16696SOL    HW261308   8.850   9.765   5.091 -1.1855 -0.5529  2.5915
16697SOL     OW61309   2.294   4.510   4.824 -0.2225  0.2787 -0.4276
16697SOL    HW161310   2.200   4.540   4.834 -0.0716  0.5504  0.2023
16697SOL    HW261311   2.352   4.588   4.799  0.1192  0.4553  0.8977
16698SOL     OW61312   4.656   1.572   2.599 -0.5592  0.3440  0.0862
16698SOL    HW161313   4.648   1.499   2.667  1.7076  0.6600  0.7201
16698SOL    HW261314   4.688   1.656   2.642 -3.3465  1.8198 -0.6123
16699SOL     OW61315   5.056   1.210   4.950 -0.0162 -0.2706  0.2826
16699SOL    HW161316   5.142   1.252   4.919 -0.4556  1.2636  1.1033
16699SOL    HW261317   5.062   1.192   5.048 -1.0668  0.9616  0.5863
16700SOL     OW61318   0.689   8.975   3.679  0.3585 -0.5155  0.0426
16700SOL    HW161319   0.762   9.042   3.695  1.1914 -1.6243  0.9447
16700SOL    HW261320   0.609   9.000   3.733  1.0447 -0.8485  1.2151
16701SOL     OW61321   9.288   9.027   1.284  0.6470  0.2380  0.1694
16701SOL    HW161322   9.241   8.952   1.331 -0.3180  0.8630  0.2195
16701SOL    HW261323   9.350   9.072   1.348  2.3949 -1.4700 -0.2699
16702SOL     OW61324   7.622   1.509   4.503 -0.1433  0.1155  0.2426
16702SOL    HW161325   7.620   1.414   4.471 -1.4164  0.7503 -1.6840
16702SOL    HW261326   7.611   1.511   4.602  0.2274 -1.7696  0.3377
16703SOL     OW61327   2.029   9.528   1.650  0.5328  0.0538 -0.1245
16703SOL    HW161328   2.059   9.471   1.574 -2.1833 -1.3022 -0.2632
16703SOL    HW261329   2.003   9.619   1.615  0.3972 -0.1771 -0.6350
16704SOL     OW61330   3.234   7.572   3.883  0.4905 -0.5043  0.0534
16704SOL    HW161331   3.199   7.484   3.852  0.0144  0.7206 -3.1112
16704SOL    HW261332   3.333   7.575   3.871  0.0679  0.7701 -3.7361
16705SOL     OW61333   3.458   1.095   5.070  0.0191  0.2372 -0.4656
16705SOL    HW161334   3.369   1.138   5.087 -0.4973 -0.5612 -1.1271
16705SOL    HW261335   3.494   1.127   4.983  1.0714  1.6822  0.4711
16706SOL     OW61336   7.397   8.419   3.514 -0.5134 -0.3106  0.0498
16706SOL    HW161337   7.392   8.453   3.420 -1.2608  0.0949  0.2274
16706SOL    HW261338   7.486   8.377   3.530  0.7929  2.3865  0.0849
16707SOL     OW61339   2.371   8.367   1.464 -0.2272  0.1956  0.1894
16707SOL    HW161340   2.451   8.308   1.456 -1.0098 -0.9530  0.8262
16707SOL    HW261341   2.375   8.437   1.392 -0.1980 -1.6755 -1.6743
16708SOL     OW61342   2.050   6.751   1.244  0.3662 -0.2645 -0.0203
16708SOL    HW161343   2.063   6.849   1.262 -0.7794 -0.4653  2.0232
16708SOL    HW261344   2.140   6.709   1.230  0.8912  1.0244 -0.6876
16709SOL     OW61345   1.901   1.767   6.098 -0.0938  0.0783 -0.1784
16709SOL    HW161346   1.820   1.797   6.048 -0.1933  0.9209  0.4782
16709SOL    HW261347   1.945   1.846   6.141 -0.6219 -0.7755  1.9783
16710SOL     OW61348   4.936   0.444   6.427 -0.1426  0.3993 -0.6054
16710SOL    HW161349   5.020   0.493   6.405 -0.0643 -0.2524 -1.7542
16710SOL    HW261350   4.953   0.346   6.428 -1.4530  0.0880 -3.4697
16711SOL     OW61351   7.092   9.013   6.876  0.3736 -0.4924  0.7560
16711SOL    HW161352   7.190   9.005   6.895  0.1929  0.1831  2.0358
16711SOL    HW261353   7.070   9.108   6.855 -0.3170 -0.2565  2.4259
16712SOL     OW61354   9.668   8.272   4.151 -0.3314 -0.3450  0.0016
16712SOL    HW161355   9.666   8.348   4.216 -1.0223 -0.5770  0.2566
16712SOL    HW261356   9.578   8.228   4.148  0.0897 -1.2163 -0.0612
16713SOL     OW61357   0.365   8.877   2.328  0.6715  0.2988 -0.1548
16713SOL    HW161358   0.274   8.844   2.351  0.0284  1.4706 -0.9537
16713SOL    HW261359   0.408   8.914   2.410  0.6438 -0.7389  0.3359
16714SOL     OW61360   3.388   0.222   1.956 -0.1274  0.3108  0.4143
16714SOL    HW161361   3.327   0.168   2.014 -1.0721 -0.7525 -1.5172
16714SOL    HW261362   3.417   0.304   2.005 -0.4742 -0.8041  2.5700
16715SOL     OW61363   2.792   4.326   5.545  0.1873  0.0554 -0.4351
16715SOL    HW161364   2.843   4.278   5.473  2.0641 -0.6380  1.3060
16715SOL    HW261365   2.772   4.262   5.620  1.2620  1.5596  1.1741
16716SOL     OW61366   2.749   1.180   0.962  0.5913 -0.1283 -0.0489
16716SOL    HW161367   2.789   1.248   0.901 -0.7032 -0.6798 -1.5437
16716SOL    HW261368   2.649   1.190   0.964  0.7264  1.2961  3.7003
16717SOL     OW61369   2.996   1.962   5.682  0.0282  0.3612 -0.1216
16717SOL    HW161370   3.038   2.051   5.702  1.2821 -0.0126 -1.0206
16717SOL    HW261371   2.993   1.907   5.766  1.4393  0.3649 -0.0534
16718SOL     OW61372   8.233   8.066   5.829  0.6113 -0.3173  0.6896
16718SOL    HW161373   8.288   7.982   5.835 -1.0028 -1.2764  2.7994
16718SOL    HW261374   8.142   8.043   5.795  0.9232  0.9824 -1.0591
16719SOL     OW61375   2.063   3.263   0.260  0.1925  0.4837 -0.3861
16719SOL    HW161376   1.977   3.257   0.210  1.0450  0.7708 -1.9157
16719SOL    HW261377   2.103   3.172   0.268 -1.0381  0.0972  1.7787
16720SOL     OW61378   0.454   6.743   1.961 -0.8261 -0.6988  0.2657
16720SOL    HW161379   0.539   6.715   1.916 -0.4113 -1.8153  1.7257
16720SOL    HW261380   0.407   6.810   1.904  0.1275 -1.4339 -1.4235
16721SOL     OW61381   0.856   5.667   3.240  0.2184  0.6837  0.1279
16721SOL    HW161382   0.956   5.661   3.242  0.2059  0.3690 -0.3453
16721SOL    HW261383   0.821   5.650   3.332  0.3620 -3.1554 -0.4715
16722SOL     OW61384   0.411   7.312   0.359 -0.1162  1.0337 -0.1610
16722SOL    HW161385   0.510   7.304   0.371 -0.2511 -0.4991  0.0220
16722SOL    HW261386   0.389   7.318   0.262  0.2330  2.7290 -0.1555
16723SOL     OW61387   0.942   8.972   3.956 -0.0875  0.1065  0.2121
16723SOL    HW161388   0.928   8.994   3.859  0.1377  0.1664  0.1925
16723SOL    HW261389   0.915   9.050   4.012 -0.3823  0.0063  0.2063
16724SOL     OW61390   4.439   2.344   4.535 -0.0319  0.2239 -0.6303
16724SOL    HW161391   4.398   2.407   4.601 -0.2077 -0.7111  0.1661
16724SOL    HW261392   4.526   2.381   4.502 -0.1395  0.8822 -0.1810
16725SOL     OW61393   9.260   2.577   4.107 -0.5540  0.2873 -0.2327
16725SOL    HW161394   9.307   2.503   4.057 -0.4723 -0.6802  1.2515
16725SOL    HW261395   9.177   2.541   4.149 -1.3123  1.4146 -0.7387
16726SOL     OW61396   8.327   1.673   0.795 -0.3838 -0.1505 -0.4023
16726SOL    HW161397   8.394   1.726   0.846 -1.8400  0.7873  0.5613
16726SOL    HW261398   8.338   1.576   0.816  0.1438  0.0669  0.3373
16727SOL     OW61399   4.864   4.289   2.673  1.1104 -0.3203 -0.0696
16727SOL    HW161400   4.815   4.280   2.759  1.7188 -2.6233  0.0455
16727SOL    HW261401   4.843   4.212   2.613  3.2429 -0.4406 -0.7057
16728SOL     OW61402   2.053   2.942   2.976  0.1773  0.1553 -0.5932
16728SOL    HW161403   2.105   2.914   2.895  1.0223 -1.6211  0.5546
16728SOL    HW261404   1.956   2.947   2.953 -0.0276 -3.7722 -0.8485
16729SOL     OW61405   0.227   2.383   5.125  0.4757 -0.0492  0.1194
16729SOL    HW161406   0.131   2.387   5.150  0.5460  2.4530  0.0619
16729SOL    HW261407   0.268   2.299   5.163 -1.9259 -1.6542 -0.7264
16730SOL     OW61408   1.308   1.301   2.501 -0.2825  0.4659  0.1058
16730SOL    HW161409   1.317   1.287   2.600 -3.0366  0.6211  0.4264
16730SOL    HW261410   1.347   1.222   2.453 -0.4218 -0.3956  1.3697
16731SOL     OW61411   8.192   4.928   2.092 -0.0704  0.4840 -0.3508
16731SOL    HW161412   8.247   4.954   2.012  0.3036 -1.7235 -0.8558
16731SOL    HW261413   8.141   5.007   2.125  1.7138  2.0422 -1.2311
16732SOL     OW61414   8.653   9.030   4.207  0.7299  0.1774 -0.0030
16732SOL    HW161415   8.741   8.982   4.209  0.1544 -0.9931 -1.6939
16732SOL    HW261416   8.580   8.964   4.192 -0.2497  1.4019 -0.6325
16733SOL     OW61417   1.995   9.171   3.358  0.5559  0.0877  0.4280
16733SOL    HW161418   2.091   9.144   3.355  0.8028  0.5335  3.1705
16733SOL    HW261419   1.939   9.091   3.382  0.0833 -0.4066 -2.1312
16734SOL     OW61420   1.661   8.401   4.658 -0.0140  0.1676  0.8090
16734SOL    HW161421   1.709   8.395   4.746 -0.6966 -2.0521  1.0566
16734SOL    HW261422   1.564   8.416   4.674 -0.0724  0.2122  0.4217
16735SOL     OW61423   6.957   5.922   1.116 -0.1942 -0.0967  0.2898
16735SOL    HW161424   6.980   5.925   1.213 -1.6644  0.2097  0.6472
16735SOL    HW261425   6.877   5.864   1.103  1.6662 -2.4514 -1.1188
16736SOL     OW61426   1.558   0.901   1.984 -0.1072  0.1723  0.5471
16736SOL    HW161427   1.585   0.813   1.944  1.2625  1.0756 -0.5699
16736SOL    HW261428   1.492   0.945   1.924 -0.3704  0.1581  0.8259
16737SOL     OW61429   2.774   1.876   0.406 -0.3376  0.8224 -0.3193
16737SOL    HW161430   2.774   1.970   0.374  2.1603  0.5387 -1.2764
16737SOL    HW261431   2.757   1.814   0.329 -1.0457  0.4344  0.1384
16738SOL     OW61432   8.877   8.972   0.879 -0.0168 -0.3966 -0.0486
16738SOL    HW161433   8.941   9.049   0.879  0.5404 -0.8503 -0.9992
16738SOL    HW261434   8.851   8.950   0.785 -2.4271  0.4730  0.3647
16739SOL     OW61435   1.404   3.753   4.511 -0.3111  0.8580  0.1525
16739SOL    HW161436   1.357   3.760   4.599  1.4731 -0.5344  1.2539
16739SOL    HW261437   1.398   3.659   4.477 -2.2705  1.7121 -1.9725
16740SOL     OW61438   1.118   1.604   3.767 -0.3061 -0.5999 -0.5009
16740SOL    HW161439   1.081   1.693   3.738  1.4653  0.5341  0.6146
16740SOL    HW261440   1.167   1.562   3.691 -1.4833 -0.8100 -1.1516
16741SOL     OW61441   0.757   4.179   3.948  0.0155 -0.1654 -0.1795
16741SOL    HW161442   0.799   4.243   3.883 -0.3927  2.7646  2.3177
16741SOL    HW261443   0.760   4.218   4.040 -1.2442 -3.3201  1.2739
16742SOL     OW61444   4.394   3.213   0.566 -0.3026 -0.7005  0.2447
16742SOL    HW161445   4.309   3.239   0.519  0.2303 -1.0300 -0.9170
16742SOL    HW261446   4.398   3.113   0.573 -0.4139 -0.6461  1.0606
16743SOL     OW61447   9.242   6.926   1.189 -0.0181 -0.3496 -0.4737
16743SOL    HW161448   9.265   7.020   1.164 -0.3834  0.0532  0.6635
16743SOL    HW261449   9.165   6.927   1.253 -0.0578 -1.4260 -0.5042
16744SOL     OW61450   9.101   8.039   1.597  0.5354  0.0166  0.1201
16744SOL    HW161451   9.046   8.120   1.614 -1.9635 -1.4885 -0.5439
16744SOL    HW261452   9.134   8.040   1.503  0.3512  0.1933  0.0571
16745SOL     OW61453   9.661   8.967   2.831 -0.0948 -0.3465  0.6268
16745SOL    HW161454   9.575   8.984   2.879 -1.0077 -1.0858 -0.7081
16745SOL    HW261455   9.653   8.997   2.736  1.2061 -0.2054  0.5453
16746SOL     OW61456   9.731   1.617   6.242  0.5646 -0.1012 -0.3879
16746SOL    HW161457   9.815   1.564   6.258  1.3272  1.2940  0.3340
16746SOL    HW261458   9.729   1.648   6.147  0.1858 -1.2689 -0.7778
16747SOL     OW61459   4.484   0.203   5.542 -0.0529 -0.3202 -0.0864
16747SOL    HW161460   4.422   0.133   5.508 -1.0036  0.4462  0.0357
16747SOL    HW261461   4.442   0.249   5.621  1.6264 -1.3035  1.4017
16748SOL     OW61462   2.641   7.199   2.094  0.8029 -0.2602 -0.0837
16748SOL    HW161463   2.717   7.253   2.056  0.2152 -1.0794 -2.5655
16748SOL    HW261464   2.676   7.113   2.132  1.2697 -0.0166  0.0366
16749SOL     OW61465   2.410   6.035   3.411 -0.1424  0.4842  0.1895
16749SOL    HW161466   2.470   5.970   3.365  1.0267  0.2391  1.9706
16749SOL    HW261467   2.465   6.092   3.473 -1.4227  1.8870  0.0684
16750SOL     OW61468   0.375   1.339   6.200  0.6228  0.5929  0.2791
16750SOL    HW161469   0.387   1.264   6.264 -1.6502  0.5925  0.7522
16750SOL    HW261470   0.381   1.426   6.249 -3.2860  0.5520  0.9497
16751SOL     OW61471   3.875   1.206   4.524 -0.1517 -0.0013 -0.2452
16751SOL    HW161472   3.900   1.290   4.476 -0.3075 -0.0271 -0.3711
16751SOL    HW261473   3.782   1.213   4.559 -0.6125 -0.6063 -1.3399
16752SOL     OW61474   9.474   5.248   3.035  0.0125  0.1366 -0.5182
16752SOL    HW161475   9.427   5.207   2.957  0.2996  1.1461 -1.2413
16752SOL    HW261476   9.563   5.204   3.048  0.1918  0.3217 -1.1016
16753SOL     OW61477   0.546   0.651   3.700  0.5473  0.1162 -0.2394
16753SOL    HW161478   0.512   0.724   3.758  0.9864  0.2156 -0.1084
16753SOL    HW261479   0.500   0.654   3.611  0.8732  0.8104 -0.3854
16754SOL     OW61480   8.330   5.980   1.211 -0.1309 -0.4758 -0.4260
16754SOL    HW161481   8.371   6.061   1.252 -0.6119 -0.5984  0.3199
16754SOL    HW261482   8.401   5.911   1.194  0.7347  1.1516 -3.6974
16755SOL     OW61483   2.089   7.835   4.626 -0.0025 -0.1760  0.0246
16755SOL    HW161484   2.118   7.760   4.567  0.7695 -0.1833  0.3949
16755SOL    HW261485   2.065   7.800   4.716  2.8241  0.2708  1.0109
16756SOL     OW61486   1.220   9.796   0.783  0.4951  0.6749  0.3325
16756SOL    HW161487   1.247   9.812   0.688  0.4995  1.1254  0.4083
16756SOL    HW261488   1.120   9.789   0.787  0.5538 -0.3260  0.1519
16757SOL     OW61489   4.111   5.493   3.703  0.2091  0.1095 -0.5087
16757SOL    HW161490   4.137   5.508   3.608  1.4049 -1.1344 -0.3926
16757SOL    HW261491   4.072   5.402   3.713  1.1704 -0.2130  0.4088
16758SOL     OW61492   3.573   9.859   4.348  0.2594 -0.1091 -0.4135
16758SOL    HW161493   3.600   9.773   4.391  1.4977  1.6093  2.3620
16758SOL    HW261494   3.628   9.873   4.265  2.4078 -0.4264  0.9119
16759SOL     OW61495   7.463   2.359   6.266 -0.4423 -0.5641 -0.0146
16759SOL    HW161496   7.562   2.344   6.276 -0.4189  0.0218  0.6608
16759SOL    HW261497   7.414   2.276   6.294 -0.1415 -0.8336 -0.2874
16760SOL     OW61498   0.952   3.579   3.587 -0.1344  0.3079  0.5080
16760SOL    HW161499   0.936   3.675   3.608 -0.2072  0.7681 -1.4909
16760SOL    HW261500   0.876   3.543   3.533 -0.7250 -1.2572  2.3080
16761SOL     OW61501   1.716   9.179   3.042  0.3355 -0.4140 -0.2869
16761SOL    HW161502   1.782   9.227   3.100  1.4395  0.5165 -2.2547
16761SOL    HW261503   1.706   9.228   2.955 -0.4965 -2.3104 -1.3014
16762SOL     OW61504   1.176   0.162   0.539 -0.3942 -0.3524  0.2108
16762SOL    HW161505   1.172   0.154   0.638 -0.1348  0.6171  0.3037
16762SOL    HW261506   1.178   0.258   0.513  0.0639 -0.6021 -0.7161
16763SOL     OW61507   1.398   9.349   1.007 -0.5466  0.3469  0.5284
16763SOL    HW161508   1.316   9.293   1.000  0.5089 -1.1647  0.0609
16763SOL    HW261509   1.382   9.438   0.963 -1.7729 -0.1003  0.0569
16764SOL     OW61510   8.839   0.355   4.957 -0.3292 -0.2259 -0.1398
16764SOL    HW161511   8.913   0.297   4.925 -0.3626 -0.5149  0.3041
16764SOL    HW261512   8.752   0.304   4.952 -0.4960  0.1024 -0.6397
16765SOL     OW61513   8.018   2.700   3.398 -0.0938  0.7005  0.4293
16765SOL    HW161514   8.025   2.798   3.411 -0.8487  0.8920 -0.5505
16765SOL    HW261515   8.041   2.677   3.303  0.6655 -0.1344  0.8047
16766SOL     OW61516   1.986   3.476   2.135 -0.0047  0.2188 -0.0967
16766SOL    HW161517   1.940   3.419   2.067  0.6263 -0.4402  0.0305
16766SOL    HW261518   2.078   3.440   2.152  0.1604  0.8985  0.4544
16767SOL     OW61519   4.099   1.660   5.807  0.6161 -0.6073  0.5810
16767SOL    HW161520   4.050   1.624   5.728  0.1894  0.5371  0.3171
16767SOL    HW261521   4.103   1.760   5.802  0.5087 -0.5120  2.0463
16768SOL     OW61522   0.960   0.824   0.686  0.2267  0.4056  0.0337
16768SOL    HW161523   1.058   0.815   0.704 -0.1755 -0.9346  1.6935
16768SOL    HW261524   0.939   0.921   0.670  1.8037  0.7218 -0.2830
16769SOL     OW61525   6.937   2.115   8.120  0.3223  0.1571  0.9178
16769SOL    HW161526   6.907   2.020   8.123 -1.1833  0.6377  1.3345
16769SOL    HW261527   6.867   2.171   8.075  1.6895  0.8950 -0.3503
16770SOL     OW61528   4.032   8.461   2.833 -0.1249 -0.0450  0.0323
16770SOL    HW161529   4.016   8.442   2.737 -2.4239 -0.4580  0.4709
16770SOL    HW261530   4.077   8.550   2.842 -0.6509  0.3807 -1.3830
16771SOL     OW61531   0.396   1.511   3.621 -0.0047  0.5843  0.2661
16771SOL    HW161532   0.374   1.481   3.529 -1.0040  1.8044  0.1031
16771SOL    HW261533   0.320   1.489   3.683 -0.2142  1.6241  0.3898
16772SOL     OW61534   8.777   6.247   0.561 -0.0569 -0.1712 -0.7088
16772SOL    HW161535   8.728   6.162   0.578 -1.6679  1.0673  1.0793
16772SOL    HW261536   8.715   6.313   0.519  0.3248  1.0699  0.6254
16773SOL     OW61537   8.334   6.710   1.395 -0.1748 -0.3681 -0.4081
16773SOL    HW161538   8.361   6.806   1.380 -1.0063 -0.3976 -2.1866
16773SOL    HW261539   8.320   6.665   1.307 -0.8438 -1.8477  0.4353
16774SOL     OW61540   8.067   6.774   5.073  0.3026  0.3378 -0.2968
16774SOL    HW161541   8.088   6.871   5.066  0.0946  0.5180  1.4238
16774SOL    HW261542   8.145   6.725   5.111 -0.6438  0.3142  1.7083
16775SOL     OW61543   5.352   6.026   1.541 -0.6693  0.4528 -0.2145
16775SOL    HW161544   5.372   6.123   1.525 -0.4276  0.2875 -0.9773
16775SOL    HW261545   5.266   6.002   1.496  1.1579 -0.5611 -3.3893
16776SOL     OW61546   0.998   3.977   1.272  0.0754 -0.1026 -0.4646
16776SOL    HW161547   1.043   3.969   1.361 -1.8570 -0.8373  0.4668
16776SOL    HW261548   1.044   3.917   1.206  0.2564 -1.1128  0.5582
16777SOL     OW61549   6.936   9.995   5.739  0.4615 -0.3112 -0.0923
16777SOL    HW161550   6.894   9.905   5.727 -0.1192 -0.0952  0.3160
16777SOL    HW261551   7.034   9.984   5.756  0.7140 -0.7857 -1.7308
16778SOL     OW61552   8.123   6.367   6.307 -0.1608  0.4785  0.0666
16778SOL    HW161553   8.171   6.438   6.358 -0.7774  1.9717 -1.3711
16778SOL    HW261554   8.109   6.287   6.365  2.8450  0.5296  0.9197
16779SOL     OW61555   3.767   6.473   0.311 -0.1997 -0.4106  0.2439
16779SOL    HW161556   3.784   6.398   0.375 -0.1730  1.4348  2.4760
16779SOL    HW261557   3.712   6.543   0.357  0.4506  1.2870 -1.5491
16780SOL     OW61558   8.921   5.000   0.224 -0.1503  0.2708  0.2380
16780SOL    HW161559   8.983   4.924   0.208  0.6834  0.5221  2.1812
16780SOL    HW261560   8.834   4.965   0.259 -0.1003  0.1615  0.2526
16781SOL     OW61561   1.733   5.153   0.365 -0.2826  0.0482 -0.5546
16781SOL    HW161562   1.778   5.093   0.430 -0.7196  0.7977  0.4544
16781SOL    HW261563   1.802   5.199   0.309  0.2533  1.4766  1.2378
16782SOL     OW61564   7.873   7.373   3.343 -0.1451  0.2102  0.3018
16782SOL    HW161565   7.843   7.462   3.308  0.8562  0.7415  0.7681
16782SOL    HW261566   7.843   7.363   3.438 -0.9140 -0.2717  0.0064
16783SOL     OW61567   2.161   1.991   4.150 -0.1269 -0.1268  0.1307
16783SOL    HW161568   2.091   2.038   4.205 -1.8403 -1.3978 -0.9082
16783SOL    HW261569   2.187   1.906   4.194 -0.5719 -0.5313 -0.3803
16784SOL     OW61570   6.423   2.583   0.881 -0.5744  0.0332 -0.0768
16784SOL    HW161571   6.414   2.654   0.812  0.0441 -0.8263 -1.0683
16784SOL    HW261572   6.466   2.502   0.840 -0.0830 -0.4440  1.3453
16785SOL     OW61573   1.229   6.214   5.519  0.5532  0.1798 -0.1842
16785SOL    HW161574   1.156   6.250   5.576  0.5524 -0.5550  0.2754
16785SOL    HW261575   1.210   6.236   5.423  1.0057  2.1953  0.1682
16786SOL     OW61576   7.767   8.577   3.460  0.2755  0.0079 -0.4852
16786SOL    HW161577   7.758   8.543   3.367 -0.3415 -0.9617 -0.0786
16786SOL    HW261578   7.680   8.617   3.490  0.9049  1.7144 -0.8503
16787SOL     OW61579   0.096   8.151   1.350  0.2592 -0.0687  0.0315
16787SOL    HW161580   0.101   8.232   1.291  1.8286 -0.0225  0.2068
16787SOL    HW261581   0.083   8.070   1.294  0.5036  0.1076 -0.2825
16788SOL     OW61582   8.136   7.761   2.026 -0.0393  0.3604 -0.4843
16788SOL    HW161583   8.227   7.802   2.036 -0.5779  1.1182  1.8196
16788SOL    HW261584   8.069   7.817   2.076 -1.8173 -0.0522 -2.3455
16789SOL     OW61585   8.637   4.723   4.243 -0.8180 -0.8103  0.4053
16789SOL    HW161586   8.608   4.630   4.224 -1.2673 -0.5428 -0.2133
16789SOL    HW261587   8.583   4.787   4.190  1.5493 -0.3412 -1.5506
16790SOL     OW61588   0.287   4.667   2.603  0.6243 -0.2058  0.3550
16790SOL    HW161589   0.193   4.637   2.618 -0.1283  1.2069 -1.4037
16790SOL    HW261590   0.347   4.587   2.593 -0.5195 -1.1072  0.6388
16791SOL     OW61591   4.107   3.024   2.346 -0.3560  0.4389  0.9017
16791SOL    HW161592   4.185   2.966   2.370  0.6294  1.2124 -0.4040
16791SOL    HW261593   4.116   3.111   2.394  0.6955  1.3210 -0.8584
16792SOL     OW61594   8.806   1.505   1.485 -0.1323 -1.1617  0.2307
16792SOL    HW161595   8.716   1.470   1.512  0.4985 -2.0113  1.2775
16792SOL    HW261596   8.871   1.493   1.560  0.3932  1.2524  0.2145
16793SOL     OW61597   8.482   0.541   3.301 -0.4755 -1.5421  0.2396
16793SOL    HW161598   8.515   0.543   3.207  3.3916 -0.4913  1.5420
16793SOL    HW261599   8.546   0.491   3.359  0.0009  2.2290  3.2530
16794SOL     OW61600   5.004   4.319   1.471 -0.2025  0.3790  0.0210
16794SOL    HW161601   4.912   4.289   1.443 -0.6364  0.5049  1.2776
16794SOL    HW261602   5.002   4.417   1.489 -0.1836  0.1082  1.4969
16795SOL     OW61603   8.026   2.908   1.260 -0.1195 -0.1185  0.7812
16795SOL    HW161604   7.997   2.813   1.264  2.0324 -0.7678  1.1831
16795SOL    HW261605   8.043   2.942   1.352 -0.9983  0.7098  0.6490
16796SOL     OW61606   4.610   1.096   1.476 -0.1297  0.8415 -0.0475
16796SOL    HW161607   4.578   1.029   1.409  1.5078  0.1700 -0.1924
16796SOL    HW261608   4.703   1.073   1.505  0.9667  3.7370 -1.0239
16797SOL     OW61609   8.742   3.747   5.797 -0.7087 -0.1060  0.7460
16797SOL    HW161610   8.699   3.658   5.782  3.2521 -2.2134  1.2645
16797SOL    HW261611   8.731   3.773   5.893 -2.6964  0.4981  0.3906
16798SOL     OW61612   3.899   4.625   7.916  0.1233  0.1020 -0.1377
16798SOL    HW161613   3.872   4.690   7.846 -0.7200 -0.0085  0.0746
16798SOL    HW261614   3.967   4.562   7.879  0.3841  0.6324 -0.5671
16799SOL     OW61615   3.195   3.786   2.313  0.2768  0.1858 -0.3302
16799SOL    HW161616   3.140   3.792   2.396 -0.2964  0.0222 -0.6936
16799SOL    HW261617   3.216   3.690   2.294 -0.5992  0.1250 -1.0224
16800SOL     OW61618   2.383   6.962   3.185  0.3540  0.9681 -0.2218
16800SOL    HW161619   2.350   7.005   3.101 -1.5148 -0.1179 -0.0832
16800SOL    HW261620   2.464   7.011   3.218  0.5033  2.0350 -2.0833
16801SOL     OW61621   5.809   7.879   4.927 -0.2495 -0.2153 -0.0621
16801SOL    HW161622   5.817   7.780   4.937  2.2004  0.1462  1.8366
16801SOL    HW261623   5.808   7.923   5.017  2.6960  1.7345 -0.8820
16802SOL     OW61624   9.375   5.226   1.836  0.6403 -0.3700 -0.2351
16802SOL    HW161625   9.449   5.248   1.900  0.9865 -3.2562  0.4218
16802SOL    HW261626   9.406   5.154   1.774 -0.7136  0.3384 -1.7401
16803SOL     OW61627   6.973   9.267   6.800  0.1212  0.0192 -0.3812
16803SOL    HW161628   6.920   9.349   6.824  1.3553  0.6191  0.3280
16803SOL    HW261629   6.969   9.253   6.701 -1.1526  0.2066 -0.3566
16804SOL     OW61630   0.375   0.663   5.800  0.2827 -0.2676 -0.1930
16804SOL    HW161631   0.398   0.694   5.708 -0.2803  0.3514 -0.1292
16804SOL    HW261632   0.300   0.596   5.796 -1.2024  1.3594 -0.0278
16805SOL     OW61633   3.591   5.972   0.460  0.0303 -0.0597 -0.2871
16805SOL    HW161634   3.673   6.029   0.461  0.2731 -0.4010 -0.7482
16805SOL    HW261635   3.523   6.013   0.400 -0.4768  0.6925  0.7832
16806SOL     OW61636   1.516   7.426   0.501  0.1266  0.0778 -0.0194
16806SOL    HW161637   1.469   7.353   0.451  0.4408 -0.5879  0.6508
16806SOL    HW261638   1.543   7.392   0.591 -1.7281  1.7143  1.2010
16807SOL     OW61639   9.924   2.058   1.884  0.3775 -0.2971 -0.3836
16807SOL    HW161640   9.849   2.074   1.821  0.1382  0.4245  0.0805
16807SOL    HW261641   9.925   2.129   1.954  1.2726 -0.5024 -0.1769
16808SOL     OW61642   7.671   1.082   4.993 -0.2064 -0.0221  0.0862
16808SOL    HW161643   7.632   0.990   4.997  1.5657 -0.9072 -2.1360
16808SOL    HW261644   7.714   1.097   4.904  2.8780  1.5831  1.7489
16809SOL     OW61645   8.176   0.393   0.307  0.0664 -0.8064  0.3827
16809SOL    HW161646   8.082   0.425   0.309  0.1940 -0.4850  2.0501
16809SOL    HW261647   8.179   0.297   0.332  0.1092 -1.0294 -0.4616
16810SOL     OW61648   2.239   7.373   5.958  0.0918  0.8016  0.2239
16810SOL    HW161649   2.162   7.322   5.997 -0.1257  1.1794  0.2986
16810SOL    HW261650   2.273   7.438   6.026  1.7254 -0.6931  0.8612
16811SOL     OW61651   8.214   6.053   0.167  0.2576  0.0589  0.2608
16811SOL    HW161652   8.136   5.992   0.181  0.4514 -0.3067 -0.2230
16811SOL    HW261653   8.296   5.998   0.148  0.1937  0.4897 -1.3700
16812SOL     OW61654   9.910   9.678   1.570  0.2396  0.5523  1.2293
16812SOL    HW161655   9.953   9.730   1.643  0.4049  3.2217 -0.6985
16812SOL    HW261656   9.846   9.737   1.521  0.0130 -1.2321 -0.6769
16813SOL     OW61657   8.176   5.317   0.483  0.3191 -0.1573  0.1682
16813SOL    HW161658   8.184   5.314   0.383 -1.2194 -1.2113  0.0659
16813SOL    HW261659   8.166   5.413   0.512  0.8944  0.1653 -0.6610
16814SOL     OW61660   9.957   9.480   5.246 -0.2823 -0.0952 -0.0762
16814SOL    HW161661   9.973   9.447   5.339 -0.4715 -1.0982 -0.3886
16814SOL    HW261662   9.872   9.532   5.243 -0.4880 -0.4084  0.2338
16815SOL     OW61663   4.335   2.948   0.545  0.2534 -0.3170 -0.0230
16815SOL    HW161664   4.238   2.924   0.552  0.1970 -0.2678 -0.6727
16815SOL    HW261665   4.388   2.881   0.598 -0.1770  0.0036  0.8325
16816SOL     OW61666   6.589   5.350   0.590  0.2515 -0.2241  0.4913
16816SOL    HW161667   6.545   5.440   0.593 -1.0250 -0.6710 -2.4478
16816SOL    HW261668   6.679   5.355   0.634 -0.3635  2.1250  1.5813
16817SOL     OW61669   1.994   9.792   1.637  0.3697  0.3063  0.2755
16817SOL    HW161670   1.961   9.822   1.548 -0.0171  2.3529  1.0830
16817SOL    HW261671   1.967   9.858   1.707  3.1154  0.2238  1.4960
16818SOL     OW61672   2.531   1.719   2.581 -0.1553 -0.2540 -0.4068
16818SOL    HW161673   2.588   1.653   2.628 -0.1274  0.6602  0.8809
16818SOL    HW261674   2.481   1.674   2.506 -0.2271 -1.7390  0.5184
16819SOL     OW61675   6.521   1.763   2.144 -0.3666 -0.1407  0.5210
16819SOL    HW161676   6.575   1.687   2.181 -0.7016 -0.0660  1.1848
16819SOL    HW261677   6.582   1.839   2.120 -0.0503 -0.5507  0.0287
16820SOL     OW61678   8.623   5.355   4.083 -0.0281  0.0838 -0.4933
16820SOL    HW161679   8.718   5.354   4.114  0.0458 -0.2289 -0.7273
16820SOL    HW261680   8.563   5.383   4.158  0.3196  0.9492 -0.5409
16821SOL     OW61681   5.509   5.412   1.878 -0.4757 -0.2191  0.1522
16821SOL    HW161682   5.512   5.423   1.978 -0.6133 -1.4472  0.3021
16821SOL    HW261683   5.496   5.316   1.856  0.7026 -0.1041 -1.0887
16822SOL     OW61684   2.441   6.638   1.655 -0.4381 -0.2533  0.3154
16822SOL    HW161685   2.350   6.621   1.618 -1.0140  0.7396  1.2255
16822SOL    HW261686   2.434   6.656   1.753  0.4033  2.4465 -0.0580
16823SOL     OW61687   1.422   3.260   6.097  0.3676  0.3095  0.5858
16823SOL    HW161688   1.514   3.254   6.137 -0.2796 -1.0482  1.9424
16823SOL    HW261689   1.426   3.315   6.014  2.4814 -0.0756  0.3873
16824SOL     OW61690   1.644   9.729   0.309 -0.7829  0.0766 -0.1678
16824SOL    HW161691   1.621   9.695   0.401 -0.4997  1.0035  0.2474
16824SOL    HW261692   1.718   9.674   0.272 -0.3871  0.1703  0.4680
16825SOL     OW61693   8.803   0.800   2.678  0.1117 -0.2109  0.4371
16825SOL    HW161694   8.774   0.715   2.635 -0.2941 -0.0730  0.4305
16825SOL    HW261695   8.895   0.789   2.716  0.2777 -0.4835 -0.0371
16826SOL     OW61696   7.041   1.293   3.018 -0.0427 -0.0415 -0.0579
16826SOL    HW161697   6.967   1.234   3.050 -0.6640  1.6454  1.7485
16826SOL    HW261698   7.008   1.387   3.010  1.7010  0.6101  0.0286
16827SOL     OW61699   7.567   2.458   2.501  0.4482  0.2433  0.4867
16827SOL    HW161700   7.621   2.450   2.585  0.0848 -0.5871  0.6375
16827SOL    HW261701   7.617   2.515   2.435  1.7987 -1.0229  0.4004
16828SOL     OW61702   8.310   5.082   5.902 -0.3062 -0.3485  0.2911
16828SOL    HW161703   8.347   4.991   5.882  0.7366  0.1124  0.1104
16828SOL    HW261704   8.369   5.128   5.967  0.8534  1.3744 -1.9130
16829SOL     OW61705   1.945   4.358   5.015 -0.6673  0.3479 -0.0185
16829SOL    HW161706   1.920   4.450   5.045 -0.9421  0.0550  0.6625
16829SOL    HW261707   2.021   4.324   5.071 -1.0263 -0.1099  0.1927
16830SOL     OW61708   8.669   5.542   4.676 -0.1620  0.1052  0.5981
16830SOL    HW161709   8.625   5.610   4.735  0.5247  0.3540  0.8249
16830SOL    HW261710   8.760   5.574   4.650  0.3751 -0.9565  1.1382
16831SOL     OW61711   3.397   5.348   3.600 -0.3676 -0.2130  0.3228
16831SOL    HW161712   3.424   5.443   3.586 -2.6466  0.5082  0.6544
16831SOL    HW261713   3.379   5.304   3.512  0.4073 -0.2491  0.1844
16832SOL     OW61714   2.876   4.183   2.618 -0.0049 -0.6424 -0.0236
16832SOL    HW161715   2.917   4.093   2.632  1.2785 -0.2585 -1.2286
16832SOL    HW261716   2.807   4.200   2.688  1.1680 -1.7321  1.4107
16833SOL     OW61717   1.255   8.375   0.287 -0.1439  0.2822  0.3445
16833SOL    HW161718   1.255   8.457   0.344  0.4153  1.1816 -0.9282
16833SOL    HW261719   1.188   8.386   0.213  0.0172 -0.3640  0.1017
16834SOL     OW61720   1.611   8.716   3.964 -0.1924  0.4600 -0.3391
16834SOL    HW161721   1.546   8.641   3.956 -0.4399  0.8231 -1.8462
16834SOL    HW261722   1.701   8.686   3.932  0.0112  0.4355  0.2463
16835SOL     OW61723   9.904   2.420   3.557  0.0859 -0.0233  0.0834
16835SOL    HW161724   9.912   2.495   3.623 -1.2997 -0.1496  0.4052
16835SOL    HW261725   9.873   2.338   3.604  0.8110 -0.5811 -0.4177
16836SOL     OW61726   3.928   4.202   7.754 -0.4602 -0.4268 -0.6076
16836SOL    HW161727   3.928   4.107   7.724 -1.0971 -0.0970 -1.6848
16836SOL    HW261728   3.874   4.211   7.838  0.9018 -1.2672  0.3821
16837SOL     OW61729   2.632   6.139   1.573 -1.0475  0.5023  0.1024
16837SOL    HW161730   2.589   6.210   1.629  0.2178  2.3065 -1.1173
16837SOL    HW261731   2.624   6.165   1.476 -0.6539 -1.0936 -0.3716
16838SOL     OW61732   3.756   4.364   5.117  0.3316 -0.4014  0.4300
16838SOL    HW161733   3.741   4.405   5.207 -1.5256 -0.3916  0.1304
16838SOL    HW261734   3.757   4.435   5.047 -0.1541 -0.5978  0.2215
16839SOL     OW61735   5.115   6.901   2.356  0.0767 -0.0997  0.2340
16839SOL    HW161736   5.112   6.992   2.398  0.8665  0.5095 -0.9943
16839SOL    HW261737   5.142   6.834   2.425 -1.0112  0.5099  1.2778
16840SOL     OW61738   1.972   3.045   0.552  0.0216  0.6843 -0.2353
16840SOL    HW161739   1.923   2.959   0.538  2.1146 -0.3281 -1.5918
16840SOL    HW261740   1.914   3.121   0.525 -1.4985 -0.3496  0.0300
16841SOL     OW61741   7.318   3.023   0.209  0.1287  0.1955  0.3247
16841SOL    HW161742   7.299   2.961   0.285 -0.3958  1.6577  1.4032
16841SOL    HW261743   7.342   3.113   0.245  0.1085  0.8342 -1.2449
16842SOL     OW61744   9.536   3.218   5.267  0.3421  0.5490  0.0320
16842SOL    HW161745   9.556   3.186   5.360 -1.7494  1.2384  0.7363
16842SOL    HW261746   9.447   3.262   5.265  0.6729  1.1864 -2.1725
16843SOL     OW61747   8.873   3.928   5.631 -0.2478 -0.3193 -0.1529
16843SOL    HW161748   8.820   3.883   5.703 -1.2891  1.3143  0.1280
16843SOL    HW261749   8.969   3.934   5.659 -0.6620  0.3642  1.1182
16844SOL     OW61750   8.035   0.063   0.715  0.2170  0.0360 -0.1290
16844SOL    HW161751   8.012   0.022   0.804 -0.3020 -0.1442 -0.3501
16844SOL    HW261752   8.007   0.158   0.714  1.1307  0.3204  0.2655
16845SOL     OW61753   4.838   0.975   1.552 -0.0910  0.2605 -0.3044
16845SOL    HW161754   4.846   0.920   1.635 -0.8026  2.1814  1.0742
16845SOL    HW261755   4.930   1.000   1.521  0.2476 -1.8467 -1.0726
16846SOL     OW61756   3.052   3.455   0.844  0.5082 -0.0641  0.1564
16846SOL    HW161757   3.005   3.437   0.930  0.2332 -0.6391 -0.1113
16846SOL    HW261758   3.102   3.373   0.815  1.9864  0.6455  0.6212
16847SOL     OW61759   0.400   4.818   1.562 -0.1102  0.3295  0.2484
16847SOL    HW161760   0.420   4.735   1.510 -0.8471  0.6799 -0.6072
16847SOL    HW261761   0.483   4.851   1.606  0.5901  0.1990 -0.9586
16848SOL     OW61762   9.888   5.170   0.731  0.3195 -0.2016 -0.1402
16848SOL    HW161763   9.857   5.247   0.787  2.7962  1.5089 -1.0240
16848SOL    HW261764   9.897   5.089   0.789 -1.2799  0.4057  1.0271
16849SOL     OW61765   3.514   7.684   0.408  0.3934  0.3022  0.2992
16849SOL    HW161766   3.527   7.662   0.504  1.6401  1.5427  0.4263
16849SOL    HW261767   3.478   7.777   0.398  1.2559  0.5679 -0.4558
16850SOL     OW61768   7.247   3.529   5.370 -0.3941  0.0461  0.1049
16850SOL    HW161769   7.160   3.481   5.382 -0.1580 -0.4712 -0.1939
16850SOL    HW261770   7.322   3.470   5.403 -0.4557  1.9920  3.9127
16851SOL     OW61771   2.760   1.363   4.282  0.2716  0.3357 -0.3022
16851SOL    HW161772   2.747   1.457   4.313  0.1827  0.3957 -0.5188
16851SOL    HW261773   2.685   1.337   4.221  0.1016  0.0017  0.0379
16852SOL     OW61774   9.702   2.041   3.472 -0.7406  0.1463  0.1407
16852SOL    HW161775   9.681   2.015   3.377  1.8478  1.2799 -0.7721
16852SOL    HW261776   9.659   2.129   3.492  1.2546  1.4152 -1.0212
16853SOL     OW61777   9.991   6.415   5.454  0.6885  0.4292  0.0219
16853SOL    HW161778  10.006   6.373   5.364  0.3785 -0.0724  0.2027
16853SOL    HW261779   9.938   6.353   5.511  1.0071  0.6878  0.6035
16854SOL     OW61780   0.346   3.692   4.836  0.1386  0.0951 -0.1812
16854SOL    HW161781   0.422   3.735   4.885 -0.1954  0.6826 -0.1614
16854SOL    HW261782   0.280   3.656   4.901 -1.4071  2.8304 -0.1134
16855SOL     OW61783   3.559   2.713   3.467 -0.3873  0.0154  0.4625
16855SOL    HW161784   3.538   2.637   3.404 -1.3747  0.8692 -0.2572
16855SOL    HW261785   3.521   2.798   3.430 -0.7772  0.5729  2.1017
16856SOL     OW61786   7.310   2.676   3.120 -0.1565 -0.2366  0.1262
16856SOL    HW161787   7.379   2.748   3.109  1.4727 -1.5406  1.4028
16856SOL    HW261788   7.336   2.596   3.066 -0.0990 -1.1167  1.4328
16857SOL     OW61789   0.040   7.185   0.138  0.0417  0.3215 -0.1484
16857SOL    HW161790   0.119   7.210   0.083  1.3504 -1.1938  1.0158
16857SOL    HW261791  -0.006   7.268   0.171  2.0044  1.2070  0.3990
16858SOL     OW61792   2.131   9.122   1.517 -0.2281  0.4464  0.1374
16858SOL    HW161793   2.114   9.062   1.596 -0.8452 -1.8015 -1.6738
16858SOL    HW261794   2.044   9.151   1.478  0.0823  0.1897 -0.7396
16859SOL     OW61795   9.421   9.089   1.527 -0.0543  0.2824 -0.1768
16859SOL    HW161796   9.517   9.062   1.523 -0.0384 -0.6983  4.3919
16859SOL    HW261797   9.414   9.188   1.532  0.6949  0.3736 -0.7982
16860SOL     OW61798   5.753   5.654   0.011 -0.4915 -0.0249  0.6036
16860SOL    HW161799   5.682   5.703   0.060 -0.6967  0.4244 -0.1384
16860SOL    HW261800   5.763   5.692  -0.082  0.9625  0.1776  0.8198
16861SOL     OW61801   8.192   8.638   5.570 -0.7818 -0.6382  0.6568
16861SOL    HW161802   8.142   8.646   5.484  0.1442  0.4568  0.2001
16861SOL    HW261803   8.260   8.566   5.562  0.4085  0.5381 -0.1174
16862SOL     OW61804   3.507   1.856   5.823 -0.1954  0.0866 -0.2052
16862SOL    HW161805   3.601   1.823   5.831 -0.5940 -0.9973  0.1129
16862SOL    HW261806   3.450   1.812   5.893 -1.1305  0.0427 -0.9791
16863SOL     OW61807   4.996   4.000   1.203  0.2421 -0.3433 -0.1834
16863SOL    HW161808   4.977   3.903   1.221 -2.5244  0.2812  0.5987
16863SOL    HW261809   4.915   4.042   1.160  1.7779  1.3968 -1.4480
16864SOL     OW61810   0.750   0.816   5.459 -0.2560 -0.5269 -0.0694
16864SOL    HW161811   0.739   0.842   5.555  1.6357  0.8736 -0.2109
16864SOL    HW261812   0.806   0.734   5.453  1.1037  0.3697 -0.0222
16865SOL     OW61813   5.715   1.020   3.224  0.3336  0.1214  0.0456
16865SOL    HW161814   5.655   0.947   3.193 -0.4126 -0.0318  1.7398
16865SOL    HW261815   5.665   1.079   3.288  1.1222  1.7145 -0.7690
16866SOL     OW61816   6.314   3.246   0.253 -0.0113  0.3181  0.8626
16866SOL    HW161817   6.354   3.334   0.282 -1.5583  0.7161  1.8371
16866SOL    HW261818   6.385   3.189   0.212  0.9286  2.2127 -0.2156
16867SOL     OW61819   6.950   0.715   2.046 -0.5954 -0.3363  0.3595
16867SOL    HW161820   6.853   0.706   2.068 -0.2769  1.3622  2.7108
16867SOL    HW261821   6.996   0.766   2.119  1.5097  1.4284 -2.1059
16868SOL     OW61822   2.810   4.692   2.765  0.8397 -0.3327  0.3404
16868SOL    HW161823   2.812   4.792   2.761 -1.6233 -0.3084 -1.2418
16868SOL    HW261824   2.765   4.664   2.850  1.6882 -0.0926  0.8683
16869SOL     OW61825   5.086   4.425   1.898  0.6491  0.3230 -0.2002
16869SOL    HW161826   5.156   4.496   1.905  1.9443 -0.4630 -3.9609
16869SOL    HW261827   4.995   4.468   1.899  1.2500  1.6168  1.7081
16870SOL     OW61828   9.254   8.389   6.350 -0.5467 -0.4151 -0.5877
16870SOL    HW161829   9.180   8.358   6.410  1.2661 -0.7465  1.5220
16870SOL    HW261830   9.253   8.489   6.344 -0.9312 -0.3989 -0.2546
16871SOL     OW61831   0.489   8.281   5.158 -0.7667  0.2427  0.0091
16871SOL    HW161832   0.562   8.218   5.185 -0.6957  0.2755 -0.1051
16871SOL    HW261833   0.524   8.345   5.089  0.0510  2.4280  2.3879
16872SOL     OW61834   4.663   5.105   2.196  0.4868 -0.1768  0.2268
16872SOL    HW161835   4.647   5.063   2.107 -1.2639  0.9505 -0.0176
16872SOL    HW261836   4.654   5.036   2.268 -0.5501 -0.6055 -0.2967
16873SOL     OW61837   1.045   9.648   6.442  0.1723  0.4113 -0.1718
16873SOL    HW161838   0.957   9.608   6.469  0.7477 -1.2084 -0.5838
16873SOL    HW261839   1.095   9.677   6.523 -0.7289  1.3226  0.0646
16874SOL     OW61840   1.078   0.048   5.581 -0.1836 -0.3732 -0.0901
16874SOL    HW161841   1.155   0.002   5.539 -2.2251 -2.8934 -1.1816
16874SOL    HW261842   1.078   0.145   5.555  0.6299 -1.1030 -2.9072
16875SOL     OW61843   1.016   7.011   0.787 -0.4209 -0.5850  0.0688
16875SOL    HW161844   1.013   6.913   0.768 -0.8056 -0.6470  0.4466
16875SOL    HW261845   0.980   7.029   0.879 -1.7287  0.0524 -0.5494
16876SOL     OW61846   8.187   2.151   5.473 -0.2483 -0.5502  0.2756
16876SOL    HW161847   8.235   2.190   5.552 -1.0997 -0.6119  0.8363
16876SOL    HW261848   8.246   2.084   5.428 -0.7112 -2.5010  2.4766
16877SOL     OW61849   3.181   2.607   1.439 -0.3159  0.1793  0.2300
16877SOL    HW161850   3.159   2.643   1.530  0.7720 -2.3958  1.5402
16877SOL    HW261851   3.279   2.620   1.421 -0.5243  0.6636 -0.5883
16878SOL     OW61852   0.928   2.002   2.553 -0.5436  0.0764  0.0272
16878SOL    HW161853   0.883   1.986   2.465 -0.6909  1.0484 -0.0792
16878SOL    HW261854   0.870   2.060   2.610 -0.6011 -0.8133  0.9041
16879SOL     OW61855   5.558   8.618   4.623  0.1189  0.0022 -0.1496
16879SOL    HW161856   5.599   8.562   4.695 -0.7907 -0.3678  0.0829
16879SOL    HW261857   5.478   8.571   4.585  0.4588  0.3026 -1.2420
16880SOL     OW61858   2.420   0.232   1.755  0.0215  0.2781 -0.0739
16880SOL    HW161859   2.401   0.217   1.658 -0.3390 -0.5390  0.1150
16880SOL    HW261860   2.505   0.185   1.780  1.3725  2.4340 -0.5123
16881SOL     OW61861   3.939   0.374   5.472  0.0492  0.2036 -0.3466
16881SOL    HW161862   3.909   0.455   5.523  2.0542  0.1940  0.9111
16881SOL    HW261863   3.902   0.377   5.380 -1.9830  1.2720  0.4731
16882SOL     OW61864   5.079   0.931   3.442  0.0273  0.6549  0.8123
16882SOL    HW161865   5.026   0.849   3.460 -1.4006  1.4086  0.0932
16882SOL    HW261866   5.022   1.000   3.397  1.6336  1.4532 -0.0801
16883SOL     OW61867   2.894   2.450   0.885  0.1031  0.0850 -0.1319
16883SOL    HW161868   2.982   2.405   0.901  0.2274 -0.0693 -1.2001
16883SOL    HW261869   2.821   2.382   0.886  0.1591  0.0144 -0.6031
16884SOL     OW61870   6.309   1.768   4.509  0.4597 -0.3800  0.3748
16884SOL    HW161871   6.338   1.677   4.537 -0.2574 -0.4360  0.9400
16884SOL    HW261872   6.389   1.822   4.484  0.9719 -0.8416  1.0012
16885SOL     OW61873   8.385   3.382   4.277 -0.1015  0.1365 -0.0236
16885SOL    HW161874   8.456   3.426   4.221  0.2575 -0.7920 -0.2970
16885SOL    HW261875   8.296   3.418   4.252  0.0749 -0.1457 -1.0614
16886SOL     OW61876   8.902   0.687   5.505  0.3009 -0.3281  0.1339
16886SOL    HW161877   8.932   0.777   5.537 -0.5459  0.5837 -1.5518
16886SOL    HW261878   8.934   0.674   5.411 -0.6005 -1.2931 -0.0420
16887SOL     OW61879   1.588   0.526   3.289  0.0902  0.0994  0.3077
16887SOL    HW161880   1.495   0.547   3.259  0.0063  0.0388  0.5236
16887SOL    HW261881   1.604   0.568   3.378  0.0245 -0.4924  0.6044
16888SOL     OW61882   3.722   6.732   2.986  0.4030  0.2021  0.1581
16888SOL    HW161883   3.723   6.745   3.086  0.5789  0.5662  0.1095
16888SOL    HW261884   3.816   6.734   2.952  0.4140 -0.9117  0.1104
16889SOL     OW61885   9.217   2.998   6.405  0.1888 -0.7797  0.6936
16889SOL    HW161886   9.282   3.007   6.481  0.7327 -1.5664  0.3329
16889SOL    HW261887   9.260   2.948   6.330 -0.6127 -0.7145  0.1812
16890SOL     OW61888   7.899   5.505   6.187 -0.2677  0.5187 -0.1669
16890SOL    HW161889   7.856   5.586   6.149 -0.1028  0.6033 -0.1693
16890SOL    HW261890   7.990   5.492   6.147 -0.1685  0.5066  0.0619
16891SOL     OW61891   6.723   2.519   2.271 -0.5203 -0.1120  0.3227
16891SOL    HW161892   6.795   2.557   2.328 -1.5000  2.8933 -0.3039
16891SOL    HW261893   6.744   2.537   2.174 -1.3362 -0.6241  0.0435
16892SOL     OW61894   2.875   8.547   2.287  0.2831  0.3018  0.2254
16892SOL    HW161895   2.896   8.450   2.301  0.5319 -0.1438 -2.7257
16892SOL    HW261896   2.957   8.602   2.305  1.7292 -0.6140 -3.0927
16893SOL     OW61897   5.479   5.008   8.005  0.1218  0.1304  0.3513
16893SOL    HW161898   5.434   4.988   8.092 -2.4232  2.0382 -0.4668
16893SOL    HW261899   5.418   5.064   7.948  2.3016  0.1011 -2.0959
16894SOL     OW61900   4.309   0.331   3.136 -0.1459  0.3218 -0.1161
16894SOL    HW161901   4.287   0.428   3.148  0.6885  0.3617  1.2001
16894SOL    HW261902   4.403   0.314   3.167 -0.0611 -0.7868 -0.9424
16895SOL     OW61903   4.227   5.319   1.223 -0.5747 -0.6411 -0.0508
16895SOL    HW161904   4.245   5.279   1.134 -1.2139 -1.4163  0.1702
16895SOL    HW261905   4.301   5.293   1.286  0.2902  0.5595 -0.5573
16896SOL     OW61906   6.592   1.003   4.664  0.2826  0.4368 -0.4976
16896SOL    HW161907   6.559   1.050   4.582 -3.2910 -1.9525 -0.5172
16896SOL    HW261908   6.614   0.908   4.642 -0.0005 -0.0378  1.1682
16897SOL     OW61909   3.255   8.090   2.182  0.1971  0.4089 -0.2828
16897SOL    HW161910   3.250   8.152   2.261  0.4294  2.2915 -1.7170
16897SOL    HW261911   3.349   8.085   2.150  0.2108 -0.8580 -0.0647
16898SOL     OW61912   7.874   4.990   1.364  0.5787 -0.3971  0.5388
16898SOL    HW161913   7.945   4.932   1.404  0.3919 -0.1593  1.2207
16898SOL    HW261914   7.910   5.033   1.280  0.2923 -2.4766 -0.6851
16899SOL     OW61915   5.501   1.679   8.049 -0.1014  0.4694 -0.8027
16899SOL    HW161916   5.537   1.770   8.074  0.4321 -0.0463  0.3403
16899SOL    HW261917   5.455   1.639   8.128  0.6372 -0.7300 -0.9770
16900SOL     OW61918   3.712   3.513   5.583  0.0859  0.2294 -0.1151
16900SOL    HW161919   3.687   3.425   5.623  0.5399 -0.2269 -0.8171
16900SOL    HW261920   3.783   3.556   5.639 -0.3580  0.2963  0.4008
16901SOL     OW61921   9.958   7.201   4.059 -0.0305 -0.3594 -0.1197
16901SOL    HW161922  10.012   7.117   4.060  0.4670 -0.0371 -0.0427
16901SOL    HW261923  10.018   7.280   4.068 -0.6232 -0.0518  1.3443
16902SOL     OW61924   1.552   4.372   2.066  0.1410  0.3774 -0.1123
16902SOL    HW161925   1.569   4.377   2.164  0.4863 -0.7138 -0.1122
16902SOL    HW261926   1.638   4.355   2.018 -0.1146  0.3284 -0.5563
16903SOL     OW61927   9.203   3.665   4.704 -0.0465  0.7740 -0.6143
16903SOL    HW161928   9.154   3.748   4.676  2.0403  2.3026  0.0837
16903SOL    HW261929   9.170   3.635   4.793 -1.0780  0.6310 -1.0393
16904SOL     OW61930   4.813   3.917   4.425  0.0360  0.1656 -0.7772
16904SOL    HW161931   4.791   3.963   4.511  1.7925 -0.9431  0.3067
16904SOL    HW261932   4.788   3.821   4.431  0.4875  0.0039 -1.3661
16905SOL     OW61933   1.270   7.335   4.615  0.0389 -0.4630 -0.4053
16905SOL    HW161934   1.311   7.389   4.541 -1.6157 -0.6035 -1.4420
16905SOL    HW261935   1.171   7.345   4.613 -0.0620 -0.8858  1.4949
16906SOL     OW61936   3.286   4.153   2.897  0.5955  0.7068 -0.3824
16906SOL    HW161937   3.346   4.153   2.817  0.2545  0.2104 -0.6372
16906SOL    HW261938   3.251   4.060   2.913  1.1254  0.6802  0.6837
16907SOL     OW61939   5.775   0.494   5.028 -0.6651 -0.4395 -0.0353
16907SOL    HW161940   5.718   0.425   5.072 -1.4549 -1.6870 -2.8591
16907SOL    HW261941   5.855   0.450   4.987 -0.9249  0.3459 -1.4397
16908SOL     OW61942   8.007   6.736   4.063  0.2493  0.6122  0.1871
16908SOL    HW161943   8.068   6.788   4.004 -1.0044 -0.6004 -2.2958
16908SOL    HW261944   8.044   6.644   4.077 -0.1780  0.4135  0.0414
16909SOL     OW61945   9.124   8.780   4.094 -0.3876  0.1710 -0.1366
16909SOL    HW161946   9.146   8.806   4.188  1.7357 -1.5152 -0.1093
16909SOL    HW261947   9.128   8.860   4.035  0.7885  0.8162  0.7962
16910SOL     OW61948   4.355   5.965   1.473  0.3069  0.6380  0.4536
16910SOL    HW161949   4.273   5.919   1.438  1.4426 -0.9553 -0.1879
16910SOL    HW261950   4.339   6.064   1.478 -1.7349  0.3125  0.5922
16911SOL     OW61951   0.945   1.927   4.974  0.2600 -0.4331  0.2223
16911SOL    HW161952   1.025   1.884   4.933  1.4012 -0.6371  2.5912
16911SOL    HW261953   0.965   2.023   4.996 -0.6547 -0.0528 -0.5643
16912SOL     OW61954   3.335   1.431   4.938  0.1585  0.3945 -0.7808
16912SOL    HW161955   3.413   1.492   4.923  0.6178  0.3449  1.3096
16912SOL    HW261956   3.250   1.482   4.921  0.6135  0.4824 -2.9383
16913SOL     OW61957   7.353   5.093   2.006 -0.0458 -0.1059  0.1956
16913SOL    HW161958   7.432   5.040   2.036  0.2172  0.7146  0.9854
16913SOL    HW261959   7.331   5.069   1.912  1.4412 -0.0036 -0.1944
16914SOL     OW61960   0.378   6.807   4.715 -0.3004  0.6154 -0.2028
16914SOL    HW161961   0.326   6.730   4.680 -0.9384  1.5514 -1.3451
16914SOL    HW261962   0.397   6.793   4.813 -0.7690 -0.7696 -0.3039
16915SOL     OW61963   5.973   2.739   0.337  0.3440  0.0082  0.2112
16915SOL    HW161964   6.045   2.780   0.280 -0.7557  1.1247 -0.3980
16915SOL    HW261965   5.946   2.803   0.408  0.0824 -0.4853  0.5593
16916SOL     OW61966   3.421   2.057   2.185  0.1142 -0.6661  0.3578
16916SOL    HW161967   3.338   2.106   2.213 -0.0985 -1.0465  0.3916
16916SOL    HW261968   3.497   2.084   2.244 -0.0836 -0.6418  0.6041
16917SOL     OW61969   9.783   0.710   2.133 -0.3381  0.5735  0.2276
16917SOL    HW161970   9.828   0.681   2.217 -0.9585 -1.0252  0.0160
16917SOL    HW261971   9.691   0.672   2.129 -0.0381 -0.0131 -1.5425
16918SOL     OW61972   8.920   5.834   4.934 -0.0418 -0.0384 -0.2268
16918SOL    HW161973   9.018   5.830   4.916  0.1195 -0.8307  0.7495
16918SOL    HW261974   8.876   5.750   4.903 -0.2863 -0.0139  0.0403
16919SOL     OW61975   7.387   8.516   4.676  0.2321 -0.2719 -0.0503
16919SOL    HW161976   7.470   8.460   4.666  0.3755 -0.2557  1.0162
16919SOL    HW261977   7.380   8.579   4.598  0.6570 -0.9975 -0.6883
16920SOL     OW61978   5.738   9.974   3.393 -0.7803  0.4382 -0.3247
16920SOL    HW161979   5.647   9.985   3.353 -1.5282 -0.5613  1.0555
16920SOL    HW261980   5.766   9.878   3.386 -1.5425 -0.0476  2.8005
16921SOL     OW61981   3.044   6.520   4.821  0.1627  0.7482  0.0315
16921SOL    HW161982   3.010   6.610   4.850 -0.4760 -0.1328  2.1074
16921SOL    HW261983   3.142   6.514   4.840  0.4947  1.4786 -1.3648
16922SOL     OW61984   3.764   2.481   6.216  0.0974 -0.3114  0.6778
16922SOL    HW161985   3.685   2.535   6.247 -0.8898 -0.8481 -0.8797
16922SOL    HW261986   3.773   2.400   6.273 -0.6471 -0.3931  0.6830
16923SOL     OW61987   0.801   8.431   4.735  0.5710 -0.4097 -0.3424
16923SOL    HW161988   0.863   8.461   4.807  2.2523 -0.1630 -1.8380
16923SOL    HW261989   0.818   8.335   4.714 -0.9856 -0.9159  0.6401
16924SOL     OW61990   5.386   2.071   3.711  0.0551 -0.2092  0.2540
16924SOL    HW161991   5.392   2.170   3.705  1.3923 -0.2736  0.3515
16924SOL    HW261992   5.467   2.035   3.757 -0.3426 -1.3599  0.0900
16925SOL     OW61993   4.332   2.242   2.599 -0.6904  0.3632 -0.0109
16925SOL    HW161994   4.323   2.240   2.499  0.1850 -0.6228 -0.0814
16925SOL    HW261995   4.426   2.262   2.624 -0.5405 -0.9980  0.5979
16926SOL     OW61996   2.646   9.702   1.286 -0.3802 -0.1226  0.0060
16926SOL    HW161997   2.728   9.690   1.230  0.1676  2.0464  0.2857
16926SOL    HW261998   2.565   9.698   1.227  0.2353  3.1146 -1.1704
16927SOL     OW61999   1.370   7.397   1.835 -0.3612 -0.0479 -0.7569
16927SOL    HW162000   1.466   7.402   1.860 -0.5899  0.4574  0.0388
16927SOL    HW262001   1.356   7.321   1.771  0.1899 -1.5554  0.8911
16928SOL     OW62002   5.935   2.767   5.069  0.5175 -0.2609  0.5084
16928SOL    HW162003   5.980   2.839   5.122 -0.0692  1.1240 -0.8363
16928SOL    HW262004   6.001   2.696   5.046  1.5012  0.6755  0.4246
16929SOL     OW62005   5.079   9.086   5.784  0.2619  0.4606  0.0619
16929SOL    HW162006   5.044   9.010   5.729 -1.7338  0.7381  0.8808
16929SOL    HW262007   5.155   9.130   5.737  1.0496 -1.6652 -0.6914
16930SOL     OW62008   0.409   4.820   3.614  0.0682 -0.0963  0.1010
16930SOL    HW162009   0.411   4.757   3.537 -2.2778  0.1687 -0.2035
16930SOL    HW262010   0.503   4.844   3.640  0.9185 -1.6739 -1.4241
16931SOL     OW62011   5.947   5.969   1.256  0.1598 -0.2182 -0.0531
16931SOL    HW162012   6.033   6.019   1.263 -0.8232  1.6203 -0.6032
16931SOL    HW262013   5.903   5.991   1.168 -1.4098 -0.2131  0.7148
16932SOL     OW62014   7.749   9.890   6.503  0.3251 -0.6655  0.6678
16932SOL    HW162015   7.833   9.926   6.544  0.4667 -1.9780  1.5740
16932SOL    HW262016   7.757   9.791   6.493 -1.1266 -0.7998  0.7690
16933SOL     OW62017   1.327   9.700   5.392 -0.5290  0.0621  0.2441
16933SOL    HW162018   1.351   9.720   5.488  0.1984 -0.7252  0.2281
16933SOL    HW262019   1.292   9.607   5.385  1.9065 -0.8324 -0.6617
16934SOL     OW62020   8.348   4.282   1.963  0.1855 -0.3082  0.8466
16934SOL    HW162021   8.297   4.366   1.942  0.6713 -0.6326 -1.7540
16934SOL    HW262022   8.346   4.267   2.062 -0.7438  2.2279  1.2746
16935SOL     OW62023   0.348   1.926   5.032 -0.2637 -0.4594  0.4702
16935SOL    HW162024   0.388   1.836   5.050  0.2246 -0.2190  0.6049
16935SOL    HW262025   0.421   1.995   5.031 -0.6443 -0.0561  0.4422
16936SOL     OW62026   7.972   5.991   5.799 -0.2756  0.3639 -0.1664
16936SOL    HW162027   7.980   6.090   5.811  0.4407  0.3817 -0.7244
16936SOL    HW262028   8.036   5.961   5.728  0.4824 -0.6875  0.9314
16937SOL     OW62029   1.320   1.958   3.495 -0.0733 -0.0440 -0.2363
16937SOL    HW162030   1.292   1.981   3.589 -1.1085  0.9412 -0.7803
16937SOL    HW262031   1.276   1.873   3.467  0.5858 -0.5822  0.3138
16938SOL     OW62032   8.466   1.995   0.254 -0.9287 -0.1672  0.7168
16938SOL    HW162033   8.505   2.020   0.165 -0.6824 -0.9820  0.5867
16938SOL    HW262034   8.380   2.044   0.268 -2.1935 -1.8108 -1.0177
16939SOL     OW62035   1.870   1.182   4.540  0.0368 -0.5548  0.1647
16939SOL    HW162036   1.785   1.236   4.541  1.5742  1.9587  1.3761
16939SOL    HW262037   1.925   1.209   4.461  1.9134  1.5245  2.1063
16940SOL     OW62038   4.658   0.983   6.146  0.2528  0.0126  0.1483
16940SOL    HW162039   4.631   0.970   6.050  0.6952 -0.5278  0.0949
16940SOL    HW262040   4.581   0.960   6.206 -0.1496  0.7207 -0.0890
16941SOL     OW62041   3.110   3.896   1.767  0.4798 -0.1265 -0.8737
16941SOL    HW162042   3.147   3.811   1.730 -0.2772 -1.6985  1.8451
16941SOL    HW262043   3.023   3.916   1.722 -0.4592 -2.0298  0.0268
16942SOL     OW62044   4.959   2.429   4.422 -1.1126 -0.2459 -0.4892
16942SOL    HW162045   5.009   2.371   4.358  0.9657  0.4096  0.4999
16942SOL    HW262046   4.955   2.385   4.512 -0.6502  0.5613 -0.0651
16943SOL     OW62047   9.003   9.452   4.938 -0.1161  0.5059 -0.8415
16943SOL    HW162048   8.905   9.451   4.958  0.3285 -0.3058  1.3932
16943SOL    HW262049   9.044   9.366   4.967  1.8834  2.2046  1.6163
16944SOL     OW62050   6.716   9.459   4.788 -0.0506  0.4246 -0.4760
16944SOL    HW162051   6.798   9.487   4.738 -0.7221  0.3054 -1.6638
16944SOL    HW262052   6.670   9.387   4.738 -0.7410  0.3105  0.3251
16945SOL     OW62053   9.089   2.392   3.095 -0.0268  0.8477 -0.7604
16945SOL    HW162054   9.025   2.468   3.091 -0.2420  0.7788  0.9330
16945SOL    HW262055   9.117   2.367   3.002 -1.6341  1.5491 -1.4572
16946SOL     OW62056   9.944   2.519   0.615  0.0394 -0.6706 -0.8570
16946SOL    HW162057   9.955   2.574   0.532  0.4233 -1.4368 -1.3219
16946SOL    HW262058   9.978   2.426   0.598 -0.1519 -0.9139  0.0687
16947SOL     OW62059   2.820   7.598   1.314 -0.2562  0.0840 -0.1061
16947SOL    HW162060   2.754   7.664   1.276 -0.9269 -0.0156  0.8853
16947SOL    HW262061   2.900   7.595   1.254  0.4308  2.8962  0.5659
16948SOL     OW62062   0.943   9.469   3.965 -0.4821 -0.1780  0.5958
16948SOL    HW162063   0.929   9.542   4.032  1.1904 -0.2224  1.0334
16948SOL    HW262064   1.026   9.488   3.912 -0.7007 -1.1524 -0.1139
16949SOL     OW62065   8.594   2.106   0.890  0.0962  0.5241  0.2521
16949SOL    HW162066   8.689   2.075   0.887  0.0232  0.0016  2.4467
16949SOL    HW262067   8.565   2.133   0.799  2.2993  0.5339 -0.4750
16950SOL     OW62068   7.847   8.643   2.676  0.3066  0.4291  0.4100
16950SOL    HW162069   7.864   8.546   2.691 -1.2398  0.0409 -0.3276
16950SOL    HW262070   7.931   8.687   2.645  0.7235 -0.8853 -0.3311
16951SOL     OW62071   4.898   3.046   8.021  0.9654 -0.0759 -0.4964
16951SOL    HW162072   4.897   3.137   7.979  0.5374 -0.2579 -0.8774
16951SOL    HW262073   4.929   2.978   7.954 -1.9626 -0.7238 -1.2643
16952SOL     OW62074   1.504   4.634   2.808 -0.3343  0.6810  0.0672
16952SOL    HW162075   1.563   4.715   2.805 -0.4367  0.7701  0.4548
16952SOL    HW262076   1.428   4.650   2.870 -1.2597  0.8888 -1.1062
16953SOL     OW62077   9.571   7.616   0.438  0.5463 -0.2618  0.2140
16953SOL    HW162078   9.626   7.648   0.361 -0.0078  1.0476  0.3531
16953SOL    HW262079   9.571   7.516   0.439 -0.4355 -0.3271 -2.2344
16954SOL     OW62080   4.148   7.988   1.205  0.3782 -0.0841 -0.3218
16954SOL    HW162081   4.196   7.936   1.276  2.7763  0.1430 -1.7236
16954SOL    HW262082   4.145   7.935   1.121 -0.1123  0.6980 -0.8031
16955SOL     OW62083   0.666   8.425   5.431  0.3088 -0.1427  0.3279
16955SOL    HW162084   0.656   8.445   5.528 -1.3514 -1.5356  0.4494
16955SOL    HW262085   0.727   8.494   5.389 -0.7549  1.7909  1.8768
16956SOL     OW62086   5.556   9.467   5.202 -0.7722  0.6604 -0.3128
16956SOL    HW162087   5.472   9.414   5.196 -0.4104  0.0632 -0.1714
16956SOL    HW262088   5.634   9.408   5.180 -0.3250  1.0084  0.3085
16957SOL     OW62089   0.455   2.396   5.991  0.3203  0.1552 -0.2602
16957SOL    HW162090   0.367   2.355   6.015  1.0543 -0.3186  1.7212
16957SOL    HW262091   0.440   2.486   5.949 -1.0931  0.3306  0.5948
16958SOL     OW62092   4.621   6.252   1.587 -0.7637 -0.4545 -0.1005
16958SOL    HW162093   4.671   6.166   1.585 -0.9639 -0.5578 -2.1137
16958SOL    HW262094   4.685   6.328   1.598 -0.5528 -0.8265  1.3012
16959SOL     OW62095   2.883   3.233   5.477  0.0206  0.1456 -0.4560
16959SOL    HW162096   2.956   3.301   5.465  0.2730 -0.3824 -2.0866
16959SOL    HW262097   2.888   3.167   5.402  0.1614 -2.0393  1.4571
16960SOL     OW62098   0.460   0.760   5.568 -0.1093  0.1643 -0.2594
16960SOL    HW162099   0.557   0.781   5.554 -0.7334  3.0976 -0.4306
16960SOL    HW262100   0.405   0.809   5.501 -1.8712  0.1069  1.1049
16961SOL     OW62101   3.832   9.471   2.167 -1.0469 -0.4308  0.2849
16961SOL    HW162102   3.932   9.477   2.162 -1.1156  0.5276  0.0894
16961SOL    HW262103   3.801   9.398   2.106 -0.5673  0.1721 -0.6964
16962SOL     OW62104   3.633   5.931   0.157 -0.0609 -0.6148  0.2568
16962SOL    HW162105   3.714   5.988   0.170 -0.8673  0.8545 -0.9208
16962SOL    HW262106   3.551   5.984   0.179 -0.6674 -2.4329  2.4988
16963SOL     OW62107   4.712   1.389   0.118  0.0296  0.4521  0.6293
16963SOL    HW162108   4.779   1.316   0.105 -0.6652 -0.1139  0.1681
16963SOL    HW262109   4.758   1.478   0.113  0.6866  0.0776 -0.0346
16964SOL     OW62110   1.579   9.957   3.375  0.2668 -0.0450  0.2101
16964SOL    HW162111   1.526   9.874   3.395 -2.1560  1.3224 -0.3498
16964SOL    HW262112   1.630   9.984   3.456  0.0708 -1.3656  0.7924
16965SOL     OW62113   0.623   4.667   0.383  0.6076 -0.2131  0.2635
16965SOL    HW162114   0.595   4.610   0.460 -0.1617 -0.8028 -0.4474
16965SOL    HW262115   0.551   4.666   0.313  1.0341  0.8086 -0.1921
16966SOL     OW62116   2.052   8.985   3.983 -0.5767  0.1052  0.2188
16966SOL    HW162117   2.093   9.068   4.020  0.1846  1.1366 -2.7987
16966SOL    HW262118   2.121   8.914   3.975 -0.3775  0.3936 -0.6688
16967SOL     OW62119   4.647   3.071   0.007 -0.1541  0.0149  0.4663
16967SOL    HW162120   4.736   3.083  -0.036  0.0772 -0.3658  0.8319
16967SOL    HW262121   4.580   3.043  -0.063 -0.0032  0.3624  0.1809
16968SOL     OW62122   1.200   9.541   3.887 -0.2576 -0.2607  0.3727
16968SOL    HW162123   1.221   9.639   3.888  0.0864 -0.3369  0.8427
16968SOL    HW262124   1.212   9.505   3.795  0.3776 -0.0206  0.3591
16969SOL     OW62125   5.046   3.301   5.624 -0.1104  0.1993  0.2851
16969SOL    HW162126   5.129   3.278   5.572  0.2453 -0.9331  1.3081
16969SOL    HW262127   5.068   3.369   5.694 -0.7006  2.0972 -1.3733
16970SOL     OW62128   7.908   4.823   0.045  0.3502 -0.4266 -0.3854
16970SOL    HW162129   7.878   4.908   0.001  0.3437  0.8443  2.0274
16970SOL    HW262130   7.995   4.838   0.092 -0.4361 -1.3262  1.3897
16971SOL     OW62131   3.338   7.045   0.937 -0.0376  0.1504 -0.2261
16971SOL    HW162132   3.248   7.089   0.938 -1.5477 -2.7055 -1.6848
16971SOL    HW262133   3.354   6.999   1.025  0.0472  0.7214  0.0604
16972SOL     OW62134   8.221   0.157   2.954  1.2841 -0.0421  0.0356
16972SOL    HW162135   8.276   0.113   2.883  1.7522 -1.6488  1.3536
16972SOL    HW262136   8.226   0.256   2.943  1.8782 -0.2544 -1.7719
16973SOL     OW62137   3.061   7.052   0.182  0.4426 -0.3161 -0.8579
16973SOL    HW162138   3.108   7.140   0.196 -0.4709  0.0040  0.3270
16973SOL    HW262139   2.967   7.060   0.214  0.2608 -1.6405 -1.0561
16974SOL     OW62140   5.447   9.903   4.609 -0.0761 -0.0269  0.0367
16974SOL    HW162141   5.474   9.899   4.512  0.3852 -1.3368  0.1993
16974SOL    HW262142   5.452   9.811   4.648  1.9748  0.8393  1.9054
16975SOL     OW62143   9.565   5.312   2.274  0.1059 -0.2540  0.1781
16975SOL    HW162144   9.469   5.322   2.248  0.2599  0.9630  0.0606
16975SOL    HW262145   9.573   5.316   2.373  0.1133  0.4625  0.1557
16976SOL     OW62146   7.146   3.648   3.451  0.1589  0.5927 -0.1503
16976SOL    HW162147   7.113   3.649   3.545  0.3357 -1.7147 -0.0358
16976SOL    HW262148   7.167   3.554   3.424  0.7858  1.3112 -2.2610
16977SOL     OW62149   8.640   7.344   3.459 -0.5519 -0.3002  0.0375
16977SOL    HW162150   8.637   7.254   3.502 -1.3952 -0.2459  0.1049
16977SOL    HW262151   8.672   7.412   3.526  0.6172 -0.6413 -0.1781
16978SOL     OW62152   8.823   0.285   5.363  0.0953  0.1014 -0.2708
16978SOL    HW162153   8.819   0.310   5.266  0.5557  0.1417 -0.2797
16978SOL    HW262154   8.730   0.269   5.397 -0.1230  0.8275 -0.5221
16979SOL     OW62155   7.033   9.884   6.182 -0.3079 -0.0445 -0.8818
16979SOL    HW162156   7.069   9.977   6.183  0.4681 -0.3549 -0.1272
16979SOL    HW262157   6.989   9.864   6.270 -0.5811 -0.3556 -1.0862
16980SOL     OW62158   4.528   8.264   5.949 -0.2023 -0.1743 -0.1467
16980SOL    HW162159   4.489   8.355   5.934 -0.1494 -0.3986 -1.7938
16980SOL    HW262160   4.460   8.195   5.922 -0.0434 -0.6173  0.5805
16981SOL     OW62161   6.635   9.983   1.836  0.6453  0.0236  0.2042
16981SOL    HW162162   6.579  10.014   1.759  2.1946  1.5032 -0.3665
16981SOL    HW262163   6.663   9.888   1.821  0.4768  0.1290 -0.7882
16982SOL     OW62164   6.530   4.587   1.562  0.0889  0.0719 -0.5101
16982SOL    HW162165   6.514   4.583   1.463  2.7762 -2.0436 -0.8938
16982SOL    HW262166   6.527   4.495   1.601  0.7510  0.7117  1.1086
16983SOL     OW62167   2.002   4.332   4.658 -0.5520 -0.2799 -0.2869
16983SOL    HW162168   2.035   4.404   4.720  3.7185 -1.6152 -0.9036
16983SOL    HW262169   1.970   4.254   4.711 -2.3115  0.8155  0.3084
16984SOL     OW62170   7.660   2.323   4.438 -0.2758 -0.1227 -0.2893
16984SOL    HW162171   7.653   2.321   4.537 -1.3223 -3.0268 -0.3645
16984SOL    HW262172   7.755   2.306   4.411  0.3342  2.3175  0.1958
16985SOL     OW62173   1.275   4.491   2.239  0.5936  0.2343  0.5785
16985SOL    HW162174   1.250   4.587   2.248  0.7291  0.3108  0.1526
16985SOL    HW262175   1.329   4.463   2.318  1.6286  0.8502  0.0915
16986SOL     OW62176   2.280   3.730   2.589  0.3561 -0.2653 -0.0058
16986SOL    HW162177   2.292   3.639   2.629  1.9380 -0.3061 -0.5339
16986SOL    HW262178   2.260   3.721   2.492  2.3677 -0.0022 -0.4503
16987SOL     OW62179   9.469   0.304   4.065 -0.2417 -0.4821 -0.0538
16987SOL    HW162180   9.538   0.263   4.125  0.9828  0.0668 -1.0580
16987SOL    HW262181   9.474   0.260   3.975 -1.9838 -1.2210  0.1823
16988SOL     OW62182   0.118   6.019   4.038  0.4149 -0.2281  0.2937
16988SOL    HW162183   0.162   6.056   3.956 -1.8937 -1.4334 -1.5470
16988SOL    HW262184   0.131   5.920   4.042  0.6900 -0.1558  1.5259
16989SOL     OW62185   0.468   8.389   2.517 -0.0245  0.2782  0.0057
16989SOL    HW162186   0.489   8.486   2.530 -1.6422  0.4624  1.3865
16989SOL    HW262187   0.550   8.335   2.534  0.5210  1.3108  0.7289
16990SOL     OW62188   0.588   7.011   3.483 -0.2846 -0.3597  0.1575
16990SOL    HW162189   0.502   7.025   3.533  0.8813 -0.3738  2.2068
16990SOL    HW262190   0.657   6.976   3.545  1.9243  1.9468 -0.9409
16991SOL     OW62191   9.651   9.937   6.095 -0.0959  0.2870  0.2483
16991SOL    HW162192   9.690  10.025   6.123  2.2070 -0.5773 -0.2247
16991SOL    HW262193   9.600   9.898   6.172 -2.3638  2.6748  0.0323
16992SOL     OW62194   8.457   3.474   3.960 -0.0581  0.0222 -0.2311
16992SOL    HW162195   8.515   3.509   4.033  1.9651 -1.4660 -1.0777
16992SOL    HW262196   8.423   3.549   3.904  1.8784  0.8294 -0.3330
16993SOL     OW62197   8.737   6.611   3.870 -0.2354 -0.2819 -0.0595
16993SOL    HW162198   8.645   6.632   3.903 -0.6464  0.3237 -1.5273
16993SOL    HW262199   8.805   6.654   3.929 -0.9401  0.8670 -0.0640
16994SOL     OW62200   1.251   4.840   1.596  0.1294 -0.0476 -0.0394
16994SOL    HW162201   1.156   4.868   1.588  0.1456 -0.4157 -1.5929
16994SOL    HW262202   1.256   4.749   1.637 -0.1711  0.0249  0.1598
16995SOL     OW62203   2.859   0.097   4.019  0.3414  0.3183 -0.0703
16995SOL    HW162204   2.935   0.032   4.030  0.3433  0.4251  0.5985
16995SOL    HW262205   2.772   0.046   4.018  0.4601  0.1474 -1.4293
16996SOL     OW62206   9.545   1.471   5.355  0.2219  0.1484 -0.7223
16996SOL    HW162207   9.527   1.376   5.382 -1.9258  0.3995 -1.1733
16996SOL    HW262208   9.626   1.474   5.296  1.0338 -1.2395  0.2968
16997SOL     OW62209   2.386   2.355   4.588 -0.1541  0.1669 -0.3370
16997SOL    HW162210   2.439   2.397   4.514 -1.0016  0.4152 -0.8025
16997SOL    HW262211   2.362   2.261   4.563  0.2049 -0.0039 -0.0516
16998SOL     OW62212   3.757   0.918   1.885  0.2875  0.2182 -0.2577
16998SOL    HW162213   3.728   0.981   1.813 -0.2307 -0.7009 -0.8707
16998SOL    HW262214   3.807   0.968   1.956  0.2952  1.2267 -0.9695
16999SOL     OW62215   4.510   1.486   2.186  0.2335 -0.5654 -0.1641
16999SOL    HW162216   4.522   1.410   2.249  1.6122  0.7875  1.2550
16999SOL    HW262217   4.569   1.474   2.106 -0.8214 -1.8066 -0.7806
17000SOL     OW62218   9.470   7.887   4.987 -0.1640 -0.1104 -0.2833
17000SOL    HW162219   9.483   7.795   4.949  1.5070 -1.0961  2.5059
17000SOL    HW262220   9.503   7.889   5.082 -0.1370  3.3962 -0.3026
17001SOL     OW62221   4.132   3.536   2.737  0.8696  0.4106 -0.0913
17001SOL    HW162222   4.162   3.601   2.666 -0.2127  0.3617 -0.6110
17001SOL    HW262223   4.040   3.504   2.714  1.6781 -1.8587 -0.2093
17002SOL     OW62224   2.698   7.207   0.695  0.1828 -0.0317 -0.0374
17002SOL    HW162225   2.598   7.219   0.697 -0.0289 -1.2587 -1.6679
17002SOL    HW262226   2.724   7.138   0.762  0.0253  0.7876  0.8798
17003SOL     OW62227   5.517   1.966   1.600  0.0377 -0.0700 -0.1350
17003SOL    HW162228   5.499   1.976   1.502  0.3801 -1.4254 -0.3570
17003SOL    HW262229   5.545   1.871   1.618  0.5878  0.3415  1.1779
17004SOL     OW62230   7.678   0.964   0.643 -0.1765 -0.0558  0.4220
17004SOL    HW162231   7.633   1.046   0.679 -1.9076 -0.9235  0.2953
17004SOL    HW262232   7.683   0.895   0.715  0.3403 -0.2185  0.2304
17005SOL     OW62233   8.599   3.743   6.122 -0.1980 -0.0808  0.2164
17005SOL    HW162234   8.648   3.830   6.122 -2.2934  1.1404 -1.5680
17005SOL    HW262235   8.544   3.735   6.204 -0.5489  0.5882  0.0430
17006SOL     OW62236   8.979   4.643   0.750  0.5464  0.3257 -0.3323
17006SOL    HW162237   8.980   4.647   0.650 -0.3131 -0.2179 -0.3703
17006SOL    HW262238   8.982   4.736   0.787 -0.1113  0.5747 -0.8830
17007SOL     OW62239   3.035   6.554   3.892 -0.4202  0.4178 -0.7286
17007SOL    HW162240   2.964   6.484   3.898 -0.1667  0.3930  3.0760
17007SOL    HW262241   3.115   6.516   3.844 -0.7966 -1.4309  0.0584
17008SOL     OW62242   9.743   2.834   0.606  0.4084  0.5903  0.0372
17008SOL    HW162243   9.805   2.796   0.538 -1.0317  1.6442 -1.9348
17008SOL    HW262244   9.719   2.764   0.674  3.1891  0.0068  0.4420
17009SOL     OW62245   5.306   5.463   1.663 -0.3854 -0.1799  0.3204
17009SOL    HW162246   5.366   5.402   1.716 -0.7321 -0.9854 -0.1943
17009SOL    HW262247   5.361   5.521   1.604 -0.0264  0.2990  1.1259
17010SOL     OW62248   3.890   2.853   3.543 -0.5487  0.0766  0.1513
17010SOL    HW162249   3.990   2.852   3.543 -0.4320  3.1420 -3.2245
17010SOL    HW262250   3.856   2.766   3.507  0.8851 -0.5814  0.3535
17011SOL     OW62251   1.068   8.809   4.845  0.0749  0.5821  0.2413
17011SOL    HW162252   1.000   8.878   4.868  0.4512  0.9853  0.1374
17011SOL    HW262253   1.150   8.823   4.900 -0.1579 -0.2910  0.8317
17012SOL     OW62254   1.672   9.485   6.233 -0.1568 -0.1775 -0.3205
17012SOL    HW162255   1.761   9.440   6.238 -0.7267 -1.3232 -0.1400
17012SOL    HW262256   1.636   9.479   6.140 -0.0120  0.3588 -0.4135
17013SOL     OW62257   0.320   8.764   2.678 -0.0403  0.0723  0.4470
17013SOL    HW162258   0.265   8.825   2.735  0.5933  0.1829  0.9531
17013SOL    HW262259   0.261   8.702   2.628 -0.7328  1.3153 -0.3205
17014SOL     OW62260   9.714   9.604   4.757 -0.3076  0.4075 -0.3762
17014SOL    HW162261   9.624   9.617   4.798 -0.8528  0.3020 -1.5291
17014SOL    HW262262   9.767   9.688   4.768 -0.3135  0.2675  0.8452
17015SOL     OW62263   5.175   2.106   3.061 -0.2271 -0.2496 -0.4355
17015SOL    HW162264   5.212   2.162   3.136  1.1354 -0.5944 -0.8400
17015SOL    HW262265   5.244   2.099   2.988 -1.3178 -0.4228 -1.4531
17016SOL     OW62266   7.544   7.480   2.088  0.1129  0.5249 -0.5108
17016SOL    HW162267   7.643   7.480   2.079 -0.0034  1.1631 -1.9136
17016SOL    HW262268   7.506   7.559   2.040 -1.0988  0.0608 -0.3264
17017SOL     OW62269   2.062   2.321   4.484 -0.3018 -0.2205  0.8051
17017SOL    HW162270   2.116   2.341   4.402  0.2314  0.9349  1.4324
17017SOL    HW262271   1.967   2.347   4.469 -0.3359 -0.6006  0.3351
17018SOL     OW62272   5.750   8.046   3.990  0.0456  0.0871 -0.1968
17018SOL    HW162273   5.849   8.059   3.993  0.2488 -1.4314  0.4491
17018SOL    HW262274   5.728   7.969   3.930 -0.9678  2.1675 -2.5840
17019SOL     OW62275   9.041   3.189   2.119 -0.2996 -0.0240  0.0680
17019SOL    HW162276   9.083   3.157   2.034  2.0897  2.0473  0.3749
17019SOL    HW262277   9.075   3.134   2.195  0.0779  0.1598  0.0367
17020SOL     OW62278   0.131   1.521   4.416  0.0036 -0.2436 -0.2757
17020SOL    HW162279   0.214   1.571   4.439  0.3934 -0.8070 -0.4433
17020SOL    HW262280   0.060   1.542   4.484  1.6864 -3.2797  2.5628
17021SOL     OW62281   4.884   9.453   6.088 -0.6511 -0.1363  0.3074
17021SOL    HW162282   4.885   9.471   5.989  0.5414  2.1937  0.7128
17021SOL    HW262283   4.906   9.357   6.105  1.1487 -0.0800 -1.5914
17022SOL     OW62284   0.858   3.954   0.689 -0.3633 -0.0970 -0.3421
17022SOL    HW162285   0.822   4.026   0.630  2.6753 -0.6109 -2.9207
17022SOL    HW262286   0.898   3.881   0.633  2.3759 -0.7516  2.3110
17023SOL     OW62287   0.255   9.038   3.557 -0.0408  0.0938 -0.9337
17023SOL    HW162288   0.187   9.111   3.566 -0.1455 -0.0916 -0.2440
17023SOL    HW262289   0.329   9.070   3.497  1.1692  1.7002  1.3525
17024SOL     OW62290   3.939   4.024   3.955 -0.4061 -0.1925 -0.5625
17024SOL    HW162291   3.879   4.063   3.885  1.2935  0.1650 -1.8392
17024SOL    HW262292   4.022   4.078   3.962 -0.2623 -0.6210  1.2764
17025SOL     OW62293   5.010   8.868   5.624  0.2463  0.2783  0.1551
17025SOL    HW162294   4.987   8.924   5.544  0.7838 -0.0398 -0.2310
17025SOL    HW262295   5.093   8.815   5.604  0.4562  0.2948  0.9748
17026SOL     OW62296   5.325   8.784   6.426  0.6021 -0.8823 -0.0747
17026SOL    HW162297   5.338   8.740   6.337  0.9276  1.7931 -1.4179
17026SOL    HW262298   5.249   8.850   6.419 -0.1688 -1.5238  1.9902
17027SOL     OW62299   6.946   4.666   7.594 -0.1041  0.1852 -0.2412
17027SOL    HW162300   6.995   4.701   7.515 -1.2600 -1.7134 -1.8310
17027SOL    HW262301   7.012   4.635   7.663  0.9159  3.1914  0.2324
17028SOL     OW62302   8.195   1.957   0.773  0.0554 -0.7044 -0.3993
17028SOL    HW162303   8.209   2.054   0.794  0.6728 -0.6496 -1.0005
17028SOL    HW262304   8.263   1.902   0.821 -0.6365 -0.8887  0.3653
17029SOL     OW62305   8.962   5.464   2.082  0.9842 -0.2579 -0.2344
17029SOL    HW162306   8.964   5.372   2.041 -1.1713 -0.5908  0.3343
17029SOL    HW262307   8.979   5.457   2.180  0.2218 -0.1405 -0.0857
17030SOL     OW62308   9.298   8.142   3.868 -0.8921 -0.5118 -0.2705
17030SOL    HW162309   9.247   8.201   3.806  0.8031  0.9387 -0.3163
17030SOL    HW262310   9.363   8.087   3.816 -0.5403 -0.4027  0.0505
17031SOL     OW62311   2.241   7.700   2.886 -0.7602  0.0376 -0.0624
17031SOL    HW162312   2.220   7.641   2.808  0.8951  0.1027 -0.5858
17031SOL    HW262313   2.311   7.766   2.859 -1.5962  1.3490  0.9237
17032SOL     OW62314   7.470   5.690   5.558  0.1046 -0.2090 -0.2744
17032SOL    HW162315   7.466   5.726   5.651  1.1760 -0.0042 -0.2953
17032SOL    HW262316   7.493   5.592   5.562  0.7776 -0.0526 -0.3487
17033SOL     OW62317   6.129   2.314   4.338  0.4885  0.3872  0.2860
17033SOL    HW162318   6.140   2.362   4.251 -1.3338 -0.9398 -0.7136
17033SOL    HW262319   6.072   2.368   4.400 -0.4156  0.1428 -0.3273
17034SOL     OW62320   9.716   7.704   0.234 -0.2069 -0.3428  0.1787
17034SOL    HW162321   9.742   7.801   0.240 -0.6185 -0.2332  0.2316
17034SOL    HW262322   9.780   7.655   0.175 -1.8977  0.6409 -2.5731
17035SOL     OW62323   8.174   3.547   5.367  0.0676  0.0621 -0.0730
17035SOL    HW162324   8.184   3.551   5.466  1.0629 -0.1330 -0.1549
17035SOL    HW262325   8.081   3.573   5.341  0.0879  1.0703  0.8437
17036SOL     OW62326   9.302   9.281   2.116 -0.3549  0.0050 -0.0772
17036SOL    HW162327   9.214   9.257   2.076 -0.7143 -0.2834  0.8781
17036SOL    HW262328   9.352   9.197   2.139 -0.2753  0.1725  0.3615
17037SOL     OW62329   9.539   3.847   3.987 -0.1430  0.0127  0.2268
17037SOL    HW162330   9.558   3.893   4.073  1.2320 -0.4848  0.2000
17037SOL    HW262331   9.444   3.865   3.960 -0.7261 -0.2202  2.0643
17038SOL     OW62332   7.428   2.840   3.769  0.0126  0.6503 -0.1063
17038SOL    HW162333   7.471   2.930   3.776 -1.9839  1.6205 -0.0494
17038SOL    HW262334   7.416   2.802   3.861 -0.4327  0.9634 -0.0309
17039SOL     OW62335   6.686   9.923   3.973 -0.5354 -0.4518  0.0051
17039SOL    HW162336   6.722   9.999   3.918  0.4497 -2.4252 -2.1835
17039SOL    HW262337   6.719   9.931   4.067 -2.5079  3.1767  0.4831
17040SOL     OW62338   1.133   6.311   5.247 -0.0517  0.7400 -0.2033
17040SOL    HW162339   1.103   6.399   5.284 -0.0443  1.3524 -1.6203
17040SOL    HW262340   1.055   6.248   5.245 -0.7040  1.5696 -1.6581
17041SOL     OW62341   8.027   1.751   1.636 -0.3179  0.0351  0.0994
17041SOL    HW162342   8.086   1.699   1.697 -0.1968 -1.1645 -1.0190
17041SOL    HW262343   8.031   1.712   1.544  1.5344  3.3618 -1.3441
17042SOL     OW62344   1.115   6.571   5.401  0.2518 -0.1412 -0.1694
17042SOL    HW162345   1.025   6.531   5.382 -0.3219  1.9078 -2.1280
17042SOL    HW262346   1.156   6.602   5.315  1.0521  2.5684  1.1187
17043SOL     OW62347   2.931   1.612   1.201 -0.4534  0.2630  0.3055
17043SOL    HW162348   2.906   1.587   1.107  1.2054  2.4899 -0.7613
17043SOL    HW262349   2.878   1.693   1.229 -3.0634 -2.0556  2.3838
17044SOL     OW62350   6.770   8.538   6.627  0.1261 -0.1869 -0.1228
17044SOL    HW162351   6.851   8.530   6.685  2.0404 -1.1990 -2.8412
17044SOL    HW262352   6.729   8.628   6.641  0.8849 -0.1708  2.3138
17045SOL     OW62353   3.011   3.629   5.702 -0.0509 -0.3374 -0.2429
17045SOL    HW162354   3.032   3.550   5.759  0.6641  1.6913  2.4313
17045SOL    HW262355   3.095   3.672   5.671 -0.4141 -0.1223 -0.9407
17046SOL     OW62356   6.884   0.774   6.810 -0.0052 -0.0510  0.0471
17046SOL    HW162357   6.911   0.695   6.864  1.2546  0.1761 -0.2383
17046SOL    HW262358   6.785   0.773   6.797 -0.1416 -0.8986  1.1012
17047SOL     OW62359   7.903   4.530   0.600 -0.5135 -0.8735 -0.2711
17047SOL    HW162360   7.930   4.434   0.593 -1.9021 -1.1764 -1.8085
17047SOL    HW262361   7.804   4.536   0.609 -0.2576  0.3489  2.1805
17048SOL     OW62362   7.870   9.613   1.027 -0.1901  0.1288 -0.4766
17048SOL    HW162363   7.967   9.591   1.020 -0.4422 -1.3010  0.3339
17048SOL    HW262364   7.829   9.614   0.935  0.3871 -0.1737 -0.7399
17049SOL     OW62365   1.779   0.900   5.810 -0.1552 -0.0917 -0.6809
17049SOL    HW162366   1.832   0.961   5.868  0.3479 -0.7655 -0.4246
17049SOL    HW262367   1.681   0.913   5.828  0.0218 -1.2255  1.2923
17050SOL     OW62368   6.408   2.503   6.072 -0.8289  0.4765  1.0348
17050SOL    HW162369   6.348   2.423   6.077  0.9388 -0.9907 -0.4513
17050SOL    HW262370   6.450   2.519   6.161 -0.4615 -0.8579  1.1169
17051SOL     OW62371   4.139   6.125   1.729 -0.2884  0.2608 -0.1416
17051SOL    HW162372   4.117   6.218   1.756 -2.4783 -0.4310  0.5501
17051SOL    HW262373   4.097   6.060   1.793  1.5847 -1.2055 -0.3329
17052SOL     OW62374   7.660   9.175   4.868  0.0696 -0.3274 -0.8654
17052SOL    HW162375   7.617   9.263   4.886  1.9304  0.7172 -1.4557
17052SOL    HW262376   7.705   9.177   4.779 -0.0747 -1.9627 -0.9916
17053SOL     OW62377   6.464   8.494   3.870  0.0385 -0.6377 -0.5923
17053SOL    HW162378   6.382   8.519   3.819 -0.2539 -0.4061 -0.0055
17053SOL    HW262379   6.527   8.447   3.809 -0.7259 -1.2327 -0.9302
17054SOL     OW62380   6.425   4.151   1.241 -0.1421  0.3307  0.8401
17054SOL    HW162381   6.344   4.209   1.231 -0.8677 -1.0403 -1.9936
17054SOL    HW262382   6.505   4.199   1.203 -0.5783 -0.1374 -0.7227
17055SOL     OW62383   7.551   3.130   3.400  0.2108 -0.1782  0.2874
17055SOL    HW162384   7.544   3.131   3.301 -1.4405 -0.7421  0.3779
17055SOL    HW262385   7.506   3.048   3.436  0.1684  0.3697  1.5366
17056SOL     OW62386   1.169   8.390   1.330  0.1973 -0.2455 -0.3342
17056SOL    HW162387   1.076   8.364   1.355 -0.1536  0.0206 -1.3372
17056SOL    HW262388   1.234   8.340   1.387 -0.5738  0.3265  1.0761
17057SOL     OW62389   0.683   8.238   2.525  0.2428 -0.3692 -0.2044
17057SOL    HW162390   0.687   8.183   2.442 -3.4247 -0.6381 -0.2938
17057SOL    HW262391   0.689   8.178   2.605  1.1123 -0.3733 -0.2648
17058SOL     OW62392   8.472   8.043   4.382 -0.2912 -0.3553 -0.3108
17058SOL    HW162393   8.569   8.046   4.404 -0.3089 -1.5485 -0.0112
17058SOL    HW262394   8.431   7.960   4.422 -1.1350 -0.5813 -1.6032
17059SOL     OW62395   9.443   4.731   2.063  1.0506  0.2377  0.4955
17059SOL    HW162396   9.504   4.734   2.142  0.2204 -1.0041  1.2117
17059SOL    HW262397   9.418   4.824   2.037  1.2882  0.6712  1.7565
17060SOL     OW62398   2.672   5.134   3.663  0.4384 -0.2215 -0.3966
17060SOL    HW162399   2.671   5.196   3.741  2.5454  1.3180 -1.5372
17060SOL    HW262400   2.766   5.119   3.634 -0.4235  1.3773 -4.2996
17061SOL     OW62401   3.303   4.337   4.948 -0.0453 -0.1447  0.1361
17061SOL    HW162402   3.207   4.339   4.921  1.1926  1.2862 -4.5445
17061SOL    HW262403   3.327   4.424   4.991 -0.4386  0.1116 -0.1561
17062SOL     OW62404   3.339   0.578   5.517 -0.9938 -0.2605 -0.9227
17062SOL    HW162405   3.397   0.557   5.596 -0.5911  0.0761 -1.1235
17062SOL    HW262406   3.287   0.662   5.536 -1.0044 -0.2581 -0.9623
17063SOL     OW62407   5.064   0.747   1.553 -0.1644 -0.2880 -0.0522
17063SOL    HW162408   5.036   0.716   1.644  0.9575 -2.5344 -0.4515
17063SOL    HW262409   5.099   0.841   1.559  0.0150 -0.4581  1.8466
17064SOL     OW62410   1.502   3.647   5.786 -0.0150  0.1275  0.7156
17064SOL    HW162411   1.406   3.622   5.800 -0.1589  0.7710  0.8789
17064SOL    HW262412   1.511   3.705   5.706  0.3628 -0.6808  0.1661
17065SOL     OW62413   6.463   2.214   0.782  0.4832  0.2403  0.3778
17065SOL    HW162414   6.474   2.119   0.751  1.4910  0.0687  1.2279
17065SOL    HW262415   6.412   2.266   0.713  1.2421 -0.5470 -0.7941
17066SOL     OW62416   0.619   3.356   4.118 -0.2448 -0.0463 -0.1516
17066SOL    HW162417   0.659   3.430   4.063  0.5455 -0.4081 -0.0702
17066SOL    HW262418   0.521   3.350   4.100 -0.6977  2.3404  1.3433
17067SOL     OW62419   1.724   2.723   4.226  0.9651  0.7680  0.1977
17067SOL    HW162420   1.633   2.764   4.227  0.7277  0.2401  0.7529
17067SOL    HW262421   1.716   2.623   4.227  1.5509  0.7153  1.2450
17068SOL     OW62422   1.952   2.180   2.837 -0.6285  0.5188 -0.0148
17068SOL    HW162423   2.025   2.194   2.770 -0.5686  1.1492  0.1787
17068SOL    HW262424   1.883   2.118   2.799  0.2592 -0.4850 -0.0008
17069SOL     OW62425   8.768   0.072   3.893  0.3247 -0.4611  0.0583
17069SOL    HW162426   8.837   0.120   3.947  0.1956 -1.3880  1.0703
17069SOL    HW262427   8.678   0.110   3.915  0.3747 -0.1711 -0.2410
17070SOL     OW62428   3.706   0.993   1.187  0.0060 -0.7286 -0.3916
17070SOL    HW162429   3.672   0.899   1.186  2.0055 -1.4583 -1.2314
17070SOL    HW262430   3.697   1.033   1.096  0.5866 -0.6402 -0.4147
17071SOL     OW62431   3.282   3.054   1.970  0.7602  0.3137 -0.3079
17071SOL    HW162432   3.206   3.101   2.016 -0.9808 -1.3839 -1.3490
17071SOL    HW262433   3.347   3.021   2.039 -1.3066 -1.3277  0.9211
17072SOL     OW62434   2.933   5.467   0.856 -0.1837  0.2273  0.2979
17072SOL    HW162435   2.975   5.461   0.947 -0.7126 -0.1956  0.5166
17072SOL    HW262436   2.950   5.557   0.817 -1.1596  0.9029  1.3952
17073SOL     OW62437   9.124   6.998   1.798  0.0470  0.2348  0.1887
17073SOL    HW162438   9.075   6.960   1.876 -0.9363 -1.1010 -1.0418
17073SOL    HW262439   9.154   7.091   1.819 -1.9157  0.6076  1.4326
17074SOL     OW62440   3.826   5.641   8.120 -0.3251 -0.0354  0.3572
17074SOL    HW162441   3.845   5.559   8.067 -2.6781  0.1971 -0.9355
17074SOL    HW262442   3.810   5.617   8.215 -1.5563 -1.1816 -0.1178
17075SOL     OW62443   3.154   2.348   2.445 -0.1294  0.3949  0.2679
17075SOL    HW162444   3.192   2.288   2.516 -1.1620 -1.3066 -0.5897
17075SOL    HW262445   3.219   2.357   2.370 -0.5242 -0.8302 -0.2447
17076SOL     OW62446   4.695   9.755   1.150  0.2215  0.3912  0.4368
17076SOL    HW162447   4.757   9.831   1.170  0.0280  0.4691  0.7481
17076SOL    HW262448   4.698   9.689   1.225  2.7154 -1.4620 -1.2089
17077SOL     OW62449   7.853   3.788   2.078 -1.0125 -0.0548  0.4983
17077SOL    HW162450   7.764   3.782   2.032 -0.0687 -2.4401 -1.1480
17077SOL    HW262451   7.925   3.793   2.009  0.1898  1.5706  1.8194
17078SOL     OW62452   5.258   6.277   1.380 -0.2207  0.4273  0.3743
17078SOL    HW162453   5.212   6.212   1.320 -0.8417  1.1627  0.0475
17078SOL    HW262454   5.210   6.281   1.468  1.6357 -1.8892  1.5860
17079SOL     OW62455   9.508   2.684   4.714  0.1427 -0.2549 -0.5318
17079SOL    HW162456   9.580   2.621   4.685  1.1439  0.0238  1.2574
17079SOL    HW262457   9.550   2.766   4.754 -1.1568 -0.6227  1.6661
17080SOL     OW62458   4.270   2.506   4.989 -0.0596 -0.3528 -0.2577
17080SOL    HW162459   4.256   2.475   5.084  0.0200  0.8509  0.1522
17080SOL    HW262460   4.363   2.538   4.978 -0.6025  1.2716 -0.2351
17081SOL     OW62461   6.641   9.238   4.006 -0.0121  0.1395  0.2724
17081SOL    HW162462   6.622   9.257   4.103  0.4440  1.9995  0.0122
17081SOL    HW262463   6.733   9.268   3.983 -0.6203  1.0154 -1.0815
17082SOL     OW62464   4.237   4.502   2.605 -0.1347  0.3800 -0.3393
17082SOL    HW162465   4.171   4.429   2.620 -0.2268  0.8262  1.5486
17082SOL    HW262466   4.327   4.463   2.585 -0.4386 -0.2294 -0.5128
17083SOL     OW62467   1.695   5.857   0.715  0.6114 -0.1965  0.5366
17083SOL    HW162468   1.670   5.858   0.812 -2.2661  0.1162 -0.1788
17083SOL    HW262469   1.614   5.869   0.659  2.0349 -1.8065 -1.9904
17084SOL     OW62470   2.915   3.934   3.855 -0.0090 -0.0618 -0.2397
17084SOL    HW162471   2.841   3.915   3.919  2.5948 -2.5173  2.1889
17084SOL    HW262472   2.954   4.024   3.873  0.6492 -0.7022  1.6264
17085SOL     OW62473   5.915   7.934   6.285  0.4955 -0.1074  0.4949
17085SOL    HW162474   5.829   7.959   6.239  0.8284  0.0007 -0.0734
17085SOL    HW262475   5.901   7.851   6.340  0.3426 -0.8044 -0.5845
17086SOL     OW62476   9.555   7.080   5.134 -0.0242  0.0526 -0.1916
17086SOL    HW162477   9.595   7.164   5.170 -1.7497  1.3043 -1.1260
17086SOL    HW262478   9.529   7.020   5.209  1.7374  0.1037  0.4697
17087SOL     OW62479   5.398   8.933   3.373 -0.4856  0.2888 -0.3873
17087SOL    HW162480   5.323   8.935   3.439 -0.0509  0.1482  0.1161
17087SOL    HW262481   5.381   8.862   3.305  0.3239 -1.3704  1.0854
17088SOL     OW62482   7.687   0.516   1.173  0.7221  0.5054  0.7296
17088SOL    HW162483   7.760   0.484   1.112 -1.8287 -0.1716 -2.1070
17088SOL    HW262484   7.655   0.606   1.142  0.3981  0.8351  1.9907
17089SOL     OW62485   7.335   8.725   6.300  0.1830 -0.0314  0.4221
17089SOL    HW162486   7.367   8.787   6.372 -2.1230 -0.7702  2.1544
17089SOL    HW262487   7.389   8.739   6.217  2.0257  1.7825  1.8715
17090SOL     OW62488   6.278   0.375   2.254 -0.3119  0.1131  0.7375
17090SOL    HW162489   6.288   0.290   2.304 -0.6568 -0.8023 -0.7039
17090SOL    HW262490   6.213   0.362   2.178  1.3243  1.0181 -0.8708
17091SOL     OW62491   1.884   7.265   5.620  0.2507  0.0408 -0.3589
17091SOL    HW162492   1.948   7.223   5.685  0.9758  0.8707 -0.5237
17091SOL    HW262493   1.936   7.319   5.553 -0.4854 -0.8794 -1.6782
17092SOL     OW62494   8.362   3.095   4.268 -0.3754  0.5651 -0.3130
17092SOL    HW162495   8.362   3.195   4.271 -3.0257  0.6871 -2.3410
17092SOL    HW262496   8.345   3.059   4.360 -1.3022  2.0300  0.1059
17093SOL     OW62497   9.477   3.140   2.894 -0.1773  0.3726  0.4428
17093SOL    HW162498   9.468   3.095   2.983  0.2004  0.1787  0.3835
17093SOL    HW262499   9.475   3.239   2.906 -0.2635  0.3465  0.6495
17094SOL     OW62500   2.964   3.629   1.613  0.0684 -0.5142  0.0764
17094SOL    HW162501   2.972   3.712   1.559  0.6705  0.5704  1.7928
17094SOL    HW262502   2.867   3.609   1.630 -0.0427  1.1500  1.5945
17095SOL     OW62503   2.023   0.173   1.011 -0.3504  0.0075 -0.2607
17095SOL    HW162504   1.976   0.260   0.992 -1.0403  0.0481  1.5312
17095SOL    HW262505   2.046   0.169   1.108 -1.3468 -2.3221 -0.0989
17096SOL     OW62506   6.682   0.824   3.839 -0.2396  0.3710 -0.4306
17096SOL    HW162507   6.633   0.737   3.839  0.0244  0.2210 -0.2913
17096SOL    HW262508   6.780   0.807   3.826  0.1579  0.4522  2.3332
17097SOL     OW62509   4.102   2.257   5.502 -0.0988 -0.0253  0.2187
17097SOL    HW162510   4.056   2.284   5.417  0.0862  0.6067  0.3141
17097SOL    HW262511   4.090   2.329   5.570 -0.2653 -0.5452  0.7387
17098SOL     OW62512   7.013   0.539   6.936 -0.4311 -0.4875  0.0543
17098SOL    HW162513   7.105   0.556   6.900 -0.8725  1.1848 -0.3411
17098SOL    HW262514   7.019   0.517   7.033  0.2633  1.4745  0.4838
17099SOL     OW62515   9.355   4.426   0.885 -0.0727  0.3084 -0.6291
17099SOL    HW162516   9.299   4.471   0.814 -1.5740 -0.1514  0.2381
17099SOL    HW262517   9.440   4.476   0.896 -0.2418  0.9605 -2.0775
17100SOL     OW62518   2.639   9.467   5.466  0.3610 -0.8158 -0.3902
17100SOL    HW162519   2.539   9.467   5.464  0.3564 -1.1148 -0.0654
17100SOL    HW262520   2.674   9.410   5.392  0.2761 -2.0806  0.5353
17101SOL     OW62521   9.605   0.737   3.251  0.5942 -0.8526  0.7427
17101SOL    HW162522   9.664   0.816   3.265 -1.4864  0.6568  1.3460
17101SOL    HW262523   9.643   0.679   3.178  1.2029  1.6997 -1.0483
17102SOL     OW62524   4.580   2.399   3.587 -0.0239 -0.2329  0.0656
17102SOL    HW162525   4.555   2.490   3.553  0.4613 -0.1025  0.0480
17102SOL    HW262526   4.671   2.375   3.553 -1.3273 -1.9913 -2.3833
17103SOL     OW62527   4.176   1.382   1.524 -0.5130  0.5306  0.1092
17103SOL    HW162528   4.228   1.426   1.597 -0.2259  0.6732 -0.1797
17103SOL    HW262529   4.084   1.362   1.556 -0.8615  1.9483  0.0210
17104SOL     OW62530   4.219   5.987   1.030  0.3535  0.5679 -0.3980
17104SOL    HW162531   4.145   5.923   1.007  2.2665 -1.3595 -1.3248
17104SOL    HW262532   4.200   6.028   1.120 -0.4245 -2.1055  0.7133
17105SOL     OW62533   2.860   3.442   4.408 -0.1384 -0.1466 -0.0217
17105SOL    HW162534   2.893   3.533   4.433 -1.1271 -0.2449  1.6775
17105SOL    HW262535   2.760   3.444   4.399 -0.1362 -1.0010 -0.2629
17106SOL     OW62536   3.376   6.831   5.050 -0.1874  0.9058 -0.0113
17106SOL    HW162537   3.281   6.851   5.029 -0.7933 -0.9465  0.8600
17106SOL    HW262538   3.394   6.851   5.147  0.3298  1.2838 -0.1794
17107SOL     OW62539   9.270   2.995   0.579  0.4504 -0.0332 -0.2403
17107SOL    HW162540   9.181   2.980   0.623  0.4316  0.0955 -0.2351
17107SOL    HW262541   9.323   3.061   0.633  1.0489 -1.0519  0.4490
17108SOL     OW62542   8.746   3.094   5.834 -0.3429  0.2041  0.0389
17108SOL    HW162543   8.763   3.121   5.929  1.5387 -0.3291 -0.1167
17108SOL    HW262544   8.649   3.102   5.814 -0.7208  0.6374  1.9161
17109SOL     OW62545   7.778   3.967   1.311 -0.1952 -0.0559 -0.2712
17109SOL    HW162546   7.840   4.037   1.347  1.2286 -1.9054  0.9671
17109SOL    HW262547   7.822   3.922   1.233 -0.4903 -0.5618 -0.1413
17110SOL     OW62548   9.277   7.201   0.692 -0.4974  0.6341 -0.2999
17110SOL    HW162549   9.250   7.275   0.754  1.1534  0.9087  0.1104
17110SOL    HW262550   9.249   7.113   0.731  2.0188  0.6566  1.7417
17111SOL     OW62551   5.502   6.110   2.014  0.3371  0.8686  1.1170
17111SOL    HW162552   5.594   6.072   2.028  0.1211 -0.2613 -0.3813
17111SOL    HW262553   5.509   6.200   1.970  0.7094  0.2246 -0.1762
17112SOL     OW62554   1.475   2.758   2.297 -0.1162  0.7657  0.1803
17112SOL    HW162555   1.523   2.845   2.306  0.0236  0.7869 -0.7263
17112SOL    HW262556   1.383   2.775   2.260  0.1982  0.4603 -0.7585
17113SOL     OW62557   6.357   1.889   0.211  0.9635  0.2367  0.2049
17113SOL    HW162558   6.360   1.793   0.181 -2.1375  0.5694 -1.3911
17113SOL    HW262559   6.423   1.942   0.157  1.8158 -0.7642  0.2373
17114SOL     OW62560   2.717   2.381   2.227  0.0573 -0.4030 -0.5569
17114SOL    HW162561   2.737   2.378   2.325 -0.1317 -0.0400 -0.5060
17114SOL    HW262562   2.749   2.297   2.184  1.7841  0.1836 -0.4854
17115SOL     OW62563   4.288   5.810   3.175  0.1610 -0.3891  1.0753
17115SOL    HW162564   4.366   5.753   3.202 -0.0086 -0.6469  1.0138
17115SOL    HW262565   4.203   5.765   3.202 -0.1627 -2.0682 -2.5253
17116SOL     OW62566   2.973   9.471   1.169  0.2257 -0.0731 -0.1049
17116SOL    HW162567   3.029   9.441   1.246  1.4642 -0.0347 -0.9847
17116SOL    HW262568   2.924   9.393   1.132  1.3235 -0.5092 -0.6542
17117SOL     OW62569   8.149   1.740   3.647 -0.6927 -0.6243 -0.5896
17117SOL    HW162570   8.104   1.749   3.736 -1.1665 -0.2358 -0.8647
17117SOL    HW262571   8.085   1.703   3.581 -0.9650  1.0316 -1.2680
17118SOL     OW62572   9.134   3.536   0.277  0.6504 -0.2246 -0.2224
17118SOL    HW162573   9.068   3.462   0.259 -1.7516  0.9027  3.3406
17118SOL    HW262574   9.198   3.507   0.348  0.6257  0.5601  0.1287
17119SOL     OW62575   2.310   7.614   3.147 -0.1220 -0.2525 -0.1862
17119SOL    HW162576   2.395   7.660   3.174 -0.6831  0.1201  0.9965
17119SOL    HW262577   2.283   7.644   3.056  1.2487 -0.7135 -0.7606
17120SOL     OW62578   8.397   7.627   2.923 -0.3451 -0.1202  0.2407
17120SOL    HW162579   8.381   7.576   3.008 -1.0927  1.1898  0.9152
17120SOL    HW262580   8.407   7.724   2.945 -1.8572  0.4074 -1.3091
17121SOL     OW62581   3.998   8.388   1.365 -0.1030  0.0113  0.1296
17121SOL    HW162582   4.048   8.345   1.290  1.1573  0.2767  0.7984
17121SOL    HW262583   3.977   8.320   1.435  0.2479  0.0958  0.3223
17122SOL     OW62584   5.114   2.086   4.781  0.6224  0.1751 -0.8402
17122SOL    HW162585   5.123   2.129   4.870 -0.7527  0.9841 -1.0679
17122SOL    HW262586   5.107   2.157   4.710  0.7114 -0.4433 -1.4763
17123SOL     OW62587   9.986   9.877   3.028 -0.4238 -0.2312 -0.0461
17123SOL    HW162588   9.897   9.908   3.064  0.1338  2.2710 -0.7357
17123SOL    HW262589   9.977   9.857   2.931 -0.2276  0.0172 -0.1146
17124SOL     OW62590   1.941   6.100   0.557 -0.0177 -0.2282 -0.3810
17124SOL    HW162591   1.962   6.088   0.460  0.0063  0.3415 -0.4510
17124SOL    HW262592   1.972   6.191   0.586 -0.5225 -0.1814  0.0187
17125SOL     OW62593   0.060   0.416   5.133 -0.2136  0.0127  0.6309
17125SOL    HW162594   0.154   0.381   5.133  0.3418  1.4874 -0.2110
17125SOL    HW262595  -0.002   0.342   5.159  1.1649 -0.9964  1.1341
17126SOL     OW62596   0.362   9.913   4.349  0.3980 -0.4589 -0.1130
17126SOL    HW162597   0.368   9.957   4.260  0.2325 -1.1867 -0.4932
17126SOL    HW262598   0.283   9.852   4.351  0.6416 -0.7661  0.3879
17127SOL     OW62599   2.805   9.868   3.813 -0.1631  0.3035 -0.1298
17127SOL    HW162600   2.784   9.887   3.717 -1.4770  0.1167  0.1052
17127SOL    HW262601   2.727   9.895   3.870  0.0930 -0.7601  0.7469
17128SOL     OW62602   2.773   4.370   0.205 -0.3633 -0.4233  0.4436
17128SOL    HW162603   2.715   4.304   0.157 -0.4066 -0.6748  0.8418
17128SOL    HW262604   2.848   4.322   0.249 -0.5152 -0.2325  0.9151
17129SOL     OW62605   7.849   2.047   2.052  0.4151 -0.0196 -0.2324
17129SOL    HW162606   7.807   2.077   2.137  1.0269  0.8275 -0.2209
17129SOL    HW262607   7.787   1.984   2.004 -1.1889  1.7748 -0.5801
17130SOL     OW62608   5.869   1.366   3.965  0.4640 -0.3197 -0.5388
17130SOL    HW162609   5.785   1.409   3.999  0.8061  0.2897 -0.4685
17130SOL    HW262610   5.845   1.285   3.911 -0.3941  2.1893 -4.0555
17131SOL     OW62611   4.473   0.409   0.365  0.2938  0.0619  0.1905
17131SOL    HW162612   4.384   0.367   0.345  0.5906 -0.5441  0.1314
17131SOL    HW262613   4.473   0.503   0.331 -0.4193  0.1513  0.4325
17132SOL     OW62614   4.003   1.695   1.953 -0.5359 -0.3956 -0.0213
17132SOL    HW162615   3.945   1.713   2.032 -0.4780  1.8453 -0.4564
17132SOL    HW262616   4.094   1.735   1.968  0.4638 -2.6081  0.0382
17133SOL     OW62617   4.031   1.630   6.390  0.5491  0.1254  0.1617
17133SOL    HW162618   3.999   1.589   6.305 -0.0386  0.2944  0.2941
17133SOL    HW262619   4.113   1.583   6.422 -0.2079 -1.0496  0.3941
17134SOL     OW62620   4.723   2.222   4.667  0.0914 -0.0480  0.3248
17134SOL    HW162621   4.721   2.142   4.726 -1.3575 -0.4282 -0.2181
17134SOL    HW262622   4.642   2.222   4.607  1.1019  0.7655 -1.0671
17135SOL     OW62623   1.830   6.628   1.875 -0.5224 -0.4523 -0.2232
17135SOL    HW162624   1.750   6.597   1.927 -0.3496 -0.4105  0.0696
17135SOL    HW262625   1.865   6.553   1.819 -0.3342 -0.6777  0.1949
17136SOL     OW62626   3.079   5.959   2.103 -0.0515 -0.1786 -0.1739
17136SOL    HW162627   3.043   5.984   2.013  0.6418  0.2063 -0.3523
17136SOL    HW262628   3.140   6.031   2.135 -1.9683  0.6858  1.5747
17137SOL     OW62629   2.761   1.480   1.834  0.2774  0.5028 -0.2093
17137SOL    HW162630   2.748   1.484   1.735  0.7137 -1.7812 -0.3827
17137SOL    HW262631   2.830   1.411   1.856 -1.1434 -0.3340  1.7959
17138SOL     OW62632   4.815   0.520   1.237  0.1074  0.4872  0.2498
17138SOL    HW162633   4.842   0.557   1.148 -0.2053 -1.9150 -0.8778
17138SOL    HW262634   4.716   0.524   1.246  0.2010  1.6499  0.9420
17139SOL     OW62635   3.202   0.643   5.792  0.4540 -0.4042  0.0362
17139SOL    HW162636   3.241   0.551   5.794 -0.4306 -0.7490  1.7411
17139SOL    HW262637   3.272   0.708   5.761  1.4362 -1.4692 -0.0046
17140SOL     OW62638   1.108   0.321   2.665 -0.7300  1.0087  0.3940
17140SOL    HW162639   1.106   0.350   2.570 -1.9646  1.5105  0.5667
17140SOL    HW262640   1.016   0.293   2.694  0.5111 -4.2118 -0.0860
17141SOL     OW62641   7.197   9.706   5.187 -0.4470 -0.4459 -0.4953
17141SOL    HW162642   7.207   9.711   5.088 -1.1171 -0.0367 -0.5514
17141SOL    HW262643   7.100   9.689   5.210 -0.4586  0.4077  0.1084
17142SOL     OW62644   3.761   7.691   0.660 -0.1445  0.3564  0.7014
17142SOL    HW162645   3.781   7.626   0.586 -0.5724  0.9128  0.0912
17142SOL    HW262646   3.839   7.694   0.723 -0.0245 -0.5677  0.6069
17143SOL     OW62647   1.311   3.796   3.106  0.2337 -0.3370  0.5033
17143SOL    HW162648   1.265   3.839   3.184  0.6021  0.2968  0.3755
17143SOL    HW262649   1.366   3.864   3.058  1.4329 -1.1241  0.7329
17144SOL     OW62650   9.250   6.975   4.527  0.3735  0.2163 -0.5679
17144SOL    HW162651   9.346   7.000   4.536  0.3775 -0.3254  1.1025
17144SOL    HW262652   9.205   6.983   4.616 -1.1714  0.6127 -1.3599
17145SOL     OW62653   4.816   7.931   2.038  0.6886 -0.0264 -0.6163
17145SOL    HW162654   4.805   8.016   2.089  1.2288 -0.6168  0.5055
17145SOL    HW262655   4.913   7.912   2.026  0.5659  0.3910 -2.3681
17146SOL     OW62656   8.915   9.099   3.773  0.5888  0.1491  0.2302
17146SOL    HW162657   8.884   9.193   3.765 -2.2821 -0.6368  1.7156
17146SOL    HW262658   8.980   9.079   3.699 -1.3607  2.2527 -2.1151
17147SOL     OW62659   9.416   1.506   3.952  0.5188 -0.8825 -0.2403
17147SOL    HW162660   9.420   1.425   4.011 -0.3428  0.6403  1.9588
17147SOL    HW262661   9.327   1.510   3.907  0.3448 -0.8217  0.1139
17148SOL     OW62662   7.741   3.519   4.581 -0.3535 -0.3540  0.2784
17148SOL    HW162663   7.802   3.534   4.503  1.3648 -2.6137  1.1195
17148SOL    HW262664   7.679   3.443   4.561 -1.5196  0.6054  0.2141
17149SOL     OW62665   3.742   2.485   0.423  0.4413  0.2429  0.2934
17149SOL    HW162666   3.653   2.531   0.426  1.1818  1.6540  1.5486
17149SOL    HW262667   3.762   2.458   0.329 -1.6789 -0.8571  0.1289
17150SOL     OW62668   1.691   2.108   1.112 -0.2156 -0.2481 -0.4104
17150SOL    HW162669   1.724   2.041   1.179 -0.3612 -2.0207 -2.0662
17150SOL    HW262670   1.747   2.190   1.116 -0.9861  0.2076  2.7521
17151SOL     OW62671   0.321   8.394   1.538 -0.4566 -0.4610 -0.4533
17151SOL    HW162672   0.287   8.440   1.456  0.6799  0.6847 -0.2991
17151SOL    HW262673   0.246   8.386   1.605 -0.5634  1.6444 -0.2784
17152SOL     OW62674   2.265   5.292   2.425 -0.2334 -0.1309 -0.2524
17152SOL    HW162675   2.321   5.222   2.380 -0.4227  0.0879 -0.8290
17152SOL    HW262676   2.314   5.379   2.425 -1.0311  0.3354 -1.7608
17153SOL     OW62677   0.898   7.448   2.185  0.3982  0.0053 -0.0843
17153SOL    HW162678   0.919   7.531   2.134 -0.5891  0.0740 -0.3718
17153SOL    HW262679   0.983   7.412   2.226  0.9998  0.5551 -0.8421
17154SOL     OW62680   9.607   5.268   1.976  0.8840 -0.0666 -0.7107
17154SOL    HW162681   9.580   5.309   2.063  1.2991  0.9328 -1.0471
17154SOL    HW262682   9.638   5.174   1.992 -1.1852 -0.6806 -0.0943
17155SOL     OW62683   6.293   8.227   3.228  0.3016 -0.3378  0.3331
17155SOL    HW162684   6.245   8.151   3.183  0.5232 -0.2367 -0.0713
17155SOL    HW262685   6.282   8.310   3.174  1.1055 -0.3615  0.1209
17156SOL     OW62686   4.466   8.625   3.335  0.3731 -0.6924 -0.1028
17156SOL    HW162687   4.505   8.713   3.307 -0.1909 -0.4119 -0.0054
17156SOL    HW262688   4.491   8.555   3.268  0.4677 -0.3719 -0.4026
17157SOL     OW62689   0.402   4.198   0.100 -0.2710 -0.4043  0.0464
17157SOL    HW162690   0.422   4.147   0.017 -1.6323  0.8707 -1.0788
17157SOL    HW262691   0.321   4.159   0.145  0.1478 -0.7568  0.5080
17158SOL     OW62692   9.178   1.857   5.220 -0.3737  0.1892  0.0853
17158SOL    HW162693   9.163   1.933   5.283 -0.5632 -1.3040  1.8712
17158SOL    HW262694   9.091   1.813   5.199 -0.1428 -0.1813 -0.1175
17159SOL     OW62695   8.313   7.302   2.549 -0.0079  0.3476 -0.6757
17159SOL    HW162696   8.294   7.217   2.501  0.1856 -0.0521 -0.0484
17159SOL    HW262697   8.234   7.329   2.603  0.0409  0.4015 -0.6288
17160SOL     OW62698   5.099   4.494   0.786  0.1447  0.9346 -0.0116
17160SOL    HW162699   5.186   4.450   0.763 -0.1459  0.6877 -0.6810
17160SOL    HW262700   5.095   4.513   0.884  0.0966 -0.9661  0.3810
17161SOL     OW62701   9.429   2.419   4.357  0.4548  0.3110 -0.5244
17161SOL    HW162702   9.494   2.468   4.414  0.7592 -2.7970  1.9347
17161SOL    HW262703   9.336   2.438   4.387  0.4046  1.6399 -1.4814
17162SOL     OW62704   0.123   1.863   2.019  0.3251 -0.0102  0.4671
17162SOL    HW162705   0.158   1.796   1.954  1.4749  1.1811 -0.1647
17162SOL    HW262706   0.031   1.891   1.992  0.1502 -0.7427  0.2967
17163SOL     OW62707   7.532   0.351   3.917 -0.1070 -0.8118 -0.5364
17163SOL    HW162708   7.441   0.345   3.956 -0.6422 -0.7807 -1.7611
17163SOL    HW262709   7.573   0.260   3.912 -0.0049 -0.8055  0.1568
17164SOL     OW62710   2.639   5.123   5.637 -0.3531  0.1533 -0.3642
17164SOL    HW162711   2.583   5.204   5.618 -0.0385  0.2427 -0.9071
17164SOL    HW262712   2.579   5.046   5.658 -0.6119  1.1389  2.6910
17165SOL     OW62713   9.474   1.993   4.060  0.2804 -0.6964 -0.7811
17165SOL    HW162714   9.480   1.903   4.103 -0.2584  0.1645  1.1586
17165SOL    HW262715   9.391   1.997   4.004 -1.6172 -0.2925  1.9235
17166SOL     OW62716   8.264   0.317   1.024 -0.3251 -0.4033  0.0837
17166SOL    HW162717   8.344   0.373   1.003 -0.1073 -1.0223 -0.7564
17166SOL    HW262718   8.191   0.376   1.060 -0.3813  0.5674 -1.5347
17167SOL     OW62719   9.138   0.604   0.700  0.2960  0.1521 -1.1469
17167SOL    HW162720   9.160   0.516   0.740 -2.5079 -0.0408  0.0954
17167SOL    HW262721   9.205   0.627   0.630  1.8346 -2.3121 -0.5227
17168SOL     OW62722   0.209   3.852   0.831  0.3106 -0.6885 -0.4373
17168SOL    HW162723   0.247   3.843   0.739 -0.9121  0.5910 -1.0802
17168SOL    HW262724   0.121   3.806   0.835  1.3041 -2.5515  0.6998
17169SOL     OW62725   8.080   2.402   5.443 -0.3725  0.1650 -0.2491
17169SOL    HW162726   8.090   2.303   5.440  0.8658  0.2100  1.5770
17169SOL    HW262727   8.170   2.445   5.433 -0.4970  1.0073  1.9013
17170SOL     OW62728   0.584   8.400   1.448 -0.5285  0.1464 -0.4022
17170SOL    HW162729   0.645   8.384   1.526 -0.2624  0.0965 -0.6206
17170SOL    HW262730   0.492   8.370   1.472 -0.1672 -1.1602 -0.5866
17171SOL     OW62731   1.400   9.939   4.621 -0.2037  0.1582  0.8339
17171SOL    HW162732   1.396   9.844   4.589  1.7430 -0.2517  1.7326
17171SOL    HW262733   1.324   9.957   4.683  0.0558 -1.1611  1.5388
17172SOL     OW62734   0.069   2.253   5.512 -0.0558  0.1905  0.0637
17172SOL    HW162735   0.055   2.162   5.550 -0.2230  0.3176  0.3135
17172SOL    HW262736   0.167   2.272   5.506 -0.0299  0.4069  1.0222
17173SOL     OW62737   8.703   0.042   0.439  0.0632  0.4271 -0.1891
17173SOL    HW162738   8.747  -0.042   0.407  2.3297  1.3527  0.4048
17173SOL    HW262739   8.767   0.118   0.431 -2.1583  2.2397 -1.2798
17174SOL     OW62740   9.768   5.440   4.449  0.2037 -0.1355 -0.4079
17174SOL    HW162741   9.851   5.389   4.473 -0.2898 -1.5394 -1.6816
17174SOL    HW262742   9.729   5.479   4.532  2.5216  1.1479  0.1341
17175SOL     OW62743   9.507   9.940   4.278  0.1272  0.3449 -0.2006
17175SOL    HW162744   9.489   9.943   4.180 -0.3815  0.3051 -0.1102
17175SOL    HW262745   9.604   9.924   4.294 -0.0441 -1.2291 -0.6946
17176SOL     OW62746   7.453   0.981   3.023 -0.0859 -0.1463  0.4186
17176SOL    HW162747   7.543   0.987   2.981  0.3496  1.6126  1.5627
17176SOL    HW262748   7.455   1.024   3.114 -2.0262 -0.2537  0.5411
17177SOL     OW62749   0.567   2.144   2.396 -0.1082 -0.1373  0.0160
17177SOL    HW162750   0.586   2.214   2.465 -0.8411  0.1573 -0.0773
17177SOL    HW262751   0.635   2.071   2.403  0.6013  0.5326  0.1819
17178SOL     OW62752   0.806   6.077   3.849  0.7173 -0.4938 -0.7005
17178SOL    HW162753   0.845   6.047   3.762 -1.6254 -0.2014 -1.8904
17178SOL    HW262754   0.762   5.999   3.894  2.4962 -0.8009  0.5975
17179SOL     OW62755   6.010   0.989   6.087 -0.2963 -0.4679 -0.3607
17179SOL    HW162756   5.934   1.044   6.121 -0.5828 -0.8814 -0.3267
17179SOL    HW262757   6.047   1.031   6.005 -1.4781 -1.0099 -1.1880
17180SOL     OW62758   2.081   5.612   0.540  0.5909 -0.0173 -0.1278
17180SOL    HW162759   2.046   5.699   0.575 -0.3375  0.1199 -1.3751
17180SOL    HW262760   2.006   5.548   0.526  0.8572  0.0782 -2.2615
17181SOL     OW62761   6.431   8.159   5.157 -0.0211 -0.1832  0.0455
17181SOL    HW162762   6.364   8.105   5.208  1.8878 -2.3191  0.3671
17181SOL    HW262763   6.477   8.223   5.219  2.1042 -2.5859  1.0167
17182SOL     OW62764   8.067   0.785   3.828  0.3208 -0.6547  0.0147
17182SOL    HW162765   8.117   0.869   3.849  0.9290 -0.4280 -2.2740
17182SOL    HW262766   8.132   0.710   3.813 -0.1382 -0.9824 -0.3369
17183SOL     OW62767   8.646   2.418   3.011 -0.6532  0.2876  0.6273
17183SOL    HW162768   8.670   2.441   3.106  3.4663 -1.0774  0.0298
17183SOL    HW262769   8.611   2.324   3.008 -1.3816  0.5522  0.8931
17184SOL     OW62770   5.475   5.469   7.762  0.0370 -0.0618  0.7356
17184SOL    HW162771   5.490   5.463   7.861 -0.3884  0.9614  0.8712
17184SOL    HW262772   5.553   5.515   7.719  0.0200 -0.1089  0.6532
17185SOL     OW62773   9.765   2.349   5.498 -0.0799  0.2053  0.0049
17185SOL    HW162774   9.716   2.262   5.498 -0.0601  0.1917 -0.5546
17185SOL    HW262775   9.842   2.344   5.560  0.2887 -0.3892 -0.4986
17186SOL     OW62776   3.883   8.413   5.986 -0.5660 -0.4678  0.1970
17186SOL    HW162777   3.867   8.371   5.896 -0.2547 -1.4223  0.5858
17186SOL    HW262778   3.823   8.371   6.054  0.0586 -0.6075  0.6718
17187SOL     OW62779   7.037   9.056   3.928 -0.7881 -0.2423 -0.4307
17187SOL    HW162780   7.015   9.139   3.979  0.2255  0.6037 -1.3333
17187SOL    HW262781   7.106   9.004   3.977 -1.0934 -0.3174 -0.0831
17188SOL     OW62782   1.419   4.275   3.512 -0.9690  0.1601 -0.2347
17188SOL    HW162783   1.436   4.338   3.436  0.6929 -0.7706 -0.6537
17188SOL    HW262784   1.502   4.263   3.566 -1.8285 -0.0781  1.0684
17189SOL     OW62785   5.032   4.922   0.585  0.4953  0.3679  0.1469
17189SOL    HW162786   5.023   5.021   0.600  0.0654  0.5035 -0.9413
17189SOL    HW262787   5.041   4.905   0.487  1.4346 -0.6103  0.4006
17190SOL     OW62788   8.541   2.925   1.642 -0.4078  0.0776 -1.0866
17190SOL    HW162789   8.598   3.005   1.623  0.0700  0.4348  1.5874
17190SOL    HW262790   8.599   2.846   1.661 -0.7574  0.3852  1.4091
17191SOL     OW62791   0.520   8.888   2.563  0.4552  0.2212  0.0302
17191SOL    HW162792   0.444   8.823   2.575 -0.0224  0.5865 -0.9175
17191SOL    HW262793   0.530   8.942   2.646 -1.8382  1.7426 -0.6295
17192SOL     OW62794   7.852   3.239   6.095  0.3793 -0.2358 -0.1363
17192SOL    HW162795   7.940   3.231   6.141  1.3408  0.9237 -1.6971
17192SOL    HW262796   7.864   3.290   6.009 -2.0375  1.1438  0.2995
17193SOL     OW62797   2.091   7.913   3.016  0.2563 -0.3445 -0.1517
17193SOL    HW162798   2.009   7.951   2.974 -0.2288  0.3863  1.4057
17193SOL    HW262799   2.119   7.831   2.967 -0.8162 -0.0345 -1.3096
17194SOL     OW62800   9.927   1.013   4.645 -0.1885 -0.0090  0.5902
17194SOL    HW162801   9.964   0.945   4.580 -0.2624  0.1259  0.4066
17194SOL    HW262802  10.002   1.071   4.678 -0.2262  0.2199  0.2710
17195SOL     OW62803   8.982   0.220   4.008  0.6620  0.1943 -0.1308
17195SOL    HW162804   8.983   0.300   3.947 -0.3909  1.6686  1.7265
17195SOL    HW262805   9.049   0.233   4.081  0.6075 -0.7194  0.0859
17196SOL     OW62806   1.906   1.422   3.528 -0.4045  0.3420  0.6233
17196SOL    HW162807   1.980   1.363   3.497  0.2732  1.7552 -0.5364
17196SOL    HW262808   1.944   1.506   3.568 -1.3626  0.7554  0.6959
17197SOL     OW62809   4.978   9.737   4.401  0.1840  0.1218 -0.4389
17197SOL    HW162810   4.976   9.832   4.431  0.7021  0.0422 -0.1550
17197SOL    HW262811   5.029   9.730   4.315 -1.4997  0.3826 -1.4754
17198SOL     OW62812   9.592   3.110   1.070 -0.0429  0.1970  0.5161
17198SOL    HW162813   9.638   3.195   1.048 -0.7317  1.2446  2.9376
17198SOL    HW262814   9.504   3.130   1.113 -1.1429 -1.7503 -0.7390
17199SOL     OW62815   2.346   8.089   6.821  0.3305 -0.4429  0.2028
17199SOL    HW162816   2.409   8.021   6.783  0.0836 -0.9388  0.6660
17199SOL    HW262817   2.398   8.162   6.865  0.5863 -1.4510  1.6209
17200SOL     OW62818   1.594   5.645   1.749 -0.5970 -0.6107  0.2064
17200SOL    HW162819   1.513   5.703   1.737  0.5080  0.7889 -0.7018
17200SOL    HW262820   1.610   5.631   1.847 -0.9130  0.5887  0.4451
17201SOL     OW62821   1.736   5.813   2.140  0.2488  0.2243  0.0500
17201SOL    HW162822   1.821   5.799   2.088 -0.9609  0.4045 -2.0458
17201SOL    HW262823   1.735   5.906   2.177  0.0243  0.9596 -1.7617
17202SOL     OW62824   1.179   9.204   4.782  0.3713  0.0917  0.4796
17202SOL    HW162825   1.199   9.290   4.735  2.2822 -0.2710  0.6009
17202SOL    HW262826   1.198   9.214   4.880  1.4560 -0.7196  0.3616
17203SOL     OW62827   2.825   6.337   3.848 -0.0505 -0.0268  0.5076
17203SOL    HW162828   2.753   6.333   3.917 -0.9790 -0.3264 -0.4585
17203SOL    HW262829   2.784   6.324   3.757  1.0847  0.8584 -0.1349
17204SOL     OW62830   4.978   0.512   3.663 -0.0258  0.1475  0.6215
17204SOL    HW162831   4.898   0.568   3.640  1.0858  1.2318 -0.6321
17204SOL    HW262832   4.989   0.440   3.595  0.6993  0.6647  0.1923
17205SOL     OW62833   9.513   2.210   5.927  0.4223 -0.3395 -0.3378
17205SOL    HW162834   9.462   2.157   5.859 -0.4755  0.5655 -0.3794
17205SOL    HW262835   9.555   2.289   5.882 -1.6477  1.2592  0.4540
17206SOL     OW62836   2.044   3.083   3.833  0.0190 -0.1755  0.2353
17206SOL    HW162837   2.070   2.987   3.844 -0.1458 -0.2782 -0.2786
17206SOL    HW262838   1.998   3.095   3.746 -0.6396  0.2258  0.6397
17207SOL     OW62839   8.026   0.810   1.359  0.6283 -0.2421  0.3153
17207SOL    HW162840   7.973   0.726   1.347 -0.3039  0.3388  0.2474
17207SOL    HW262841   8.054   0.818   1.454  1.7856 -1.2385  0.0723
17208SOL     OW62842   2.510   9.615   1.503  0.4670 -0.1473  0.1332
17208SOL    HW162843   2.569   9.617   1.422  0.3519 -2.5661 -0.0447
17208SOL    HW262844   2.567   9.612   1.585  0.5934  2.9509  0.2324
17209SOL     OW62845   5.627   2.060   4.360 -0.5318 -1.0613 -0.2500
17209SOL    HW162846   5.646   2.136   4.422 -0.6426 -1.7250  0.6123
17209SOL    HW262847   5.712   2.035   4.312 -0.4562 -0.5131 -0.4106
17210SOL     OW62848   1.987   7.475   0.486 -0.2721  0.5593 -0.4148
17210SOL    HW162849   1.909   7.426   0.524 -0.4745  2.6949  2.0557
17210SOL    HW262850   1.963   7.511   0.395 -1.9766  0.7077  0.0852
17211SOL     OW62851   8.208   8.734   4.616  0.0581  0.3895 -0.6545
17211SOL    HW162852   8.301   8.772   4.614  0.1740  0.3415  2.0487
17211SOL    HW262853   8.144   8.799   4.577  0.8777  1.5144 -0.1392
17212SOL     OW62854   7.158   1.113   0.982  0.1812 -0.6708 -0.0904
17212SOL    HW162855   7.171   1.209   0.957 -0.1286 -0.5480  0.2272
17212SOL    HW262856   7.082   1.104   1.045  0.7714 -1.0241  0.5770
17213SOL     OW62857   9.582   7.346   1.267 -0.1834 -0.1728  0.1764
17213SOL    HW162858   9.549   7.273   1.327  0.2983  0.4982  1.2722
17213SOL    HW262859   9.631   7.306   1.190 -0.6750 -1.0402  0.3068
17214SOL     OW62860   0.373   4.184   1.087 -0.0632 -0.3088  0.3847
17214SOL    HW162861   0.314   4.104   1.100  0.8105 -1.4843 -2.5456
17214SOL    HW262862   0.352   4.226   0.999  0.7719  1.6202  1.0938
17215SOL     OW62863   4.433   1.777   2.158 -0.1941  0.5002  0.0341
17215SOL    HW162864   4.427   1.677   2.159 -0.4022  0.5142  0.3134
17215SOL    HW262865   4.529   1.805   2.152 -0.1423  0.2834 -0.1581
17216SOL     OW62866   2.031   8.182   1.254 -1.0974  0.0990  0.6232
17216SOL    HW162867   1.960   8.112   1.258 -0.7458 -0.2165  1.5241
17216SOL    HW262868   2.119   8.141   1.277 -0.3319  0.1244 -2.0918
17217SOL     OW62869   4.045   9.168   6.569 -0.4379  0.2716 -0.0264
17217SOL    HW162870   4.043   9.085   6.514  0.1025 -0.4181  0.9754
17217SOL    HW262871   4.135   9.178   6.611 -0.9344  0.6159  0.9829
17218SOL     OW62872   3.641   3.455   8.026 -0.3780 -0.5712 -0.1624
17218SOL    HW162873   3.659   3.369   7.979 -0.8680 -1.2360  0.8440
17218SOL    HW262874   3.543   3.464   8.043 -0.0528 -1.1764  2.2386
17219SOL     OW62875   2.791   5.292   5.181  0.3091 -0.3024  0.3081
17219SOL    HW162876   2.809   5.246   5.094  3.5485 -2.6950  2.1411
17219SOL    HW262877   2.732   5.235   5.238 -2.0161  1.3729 -0.3368
17220SOL     OW62878   9.000   5.594   1.583 -0.2592 -0.1139  0.0490
17220SOL    HW162879   9.053   5.537   1.647 -0.0946  0.4049  0.3750
17220SOL    HW262880   9.061   5.625   1.510 -0.8917 -2.3509 -1.4688
17221SOL     OW62881   8.488   4.498   0.553  0.5749  0.3176 -0.0513
17221SOL    HW162882   8.406   4.476   0.500 -0.6244 -1.6165  2.4776
17221SOL    HW262883   8.561   4.436   0.527  0.7741  1.0034 -1.1751
17222SOL     OW62884   1.092   6.404   3.717  0.5365  0.1204  0.0317
17222SOL    HW162885   1.147   6.435   3.794 -1.7813  1.1514  1.3010
17222SOL    HW262886   1.129   6.318   3.683  0.6895 -1.1921  3.3102
17223SOL     OW62887   6.120   1.273   3.004  0.2017 -0.6197 -0.1673
17223SOL    HW162888   6.198   1.292   3.065 -0.6856 -1.5928  1.3099
17223SOL    HW262889   6.046   1.233   3.057 -1.1206 -0.1959 -1.6744
17224SOL     OW62890   5.032   2.990   5.075 -0.2017  0.1869  0.2471
17224SOL    HW162891   5.122   2.952   5.053 -0.1234  0.8802 -0.6953
17224SOL    HW262892   4.977   2.921   5.122  0.8524 -0.2122  0.8975
17225SOL     OW62893   6.416   7.832   6.857  0.0333 -0.2045  0.1427
17225SOL    HW162894   6.496   7.774   6.871 -0.5524 -1.0411  0.0552
17225SOL    HW262895   6.411   7.900   6.930 -1.1877 -2.4438  2.1983
17226SOL     OW62896   8.961   1.050   3.161 -0.1113 -0.0304  0.0175
17226SOL    HW162897   8.934   1.002   3.244 -1.3379 -0.4965 -0.6412
17226SOL    HW262898   8.909   1.014   3.083  2.3161 -0.8379 -1.2602
17227SOL     OW62899   8.210   6.722   3.532  0.4113 -0.6744 -0.5963
17227SOL    HW162900   8.239   6.705   3.438 -2.9184 -0.7772 -1.6667
17227SOL    HW262901   8.220   6.819   3.553 -0.4938 -0.3348 -1.6800
17228SOL     OW62902   9.621   7.086   2.851 -0.5106  0.5582  0.2562
17228SOL    HW162903   9.684   7.090   2.773  0.8466 -1.6256  1.1773
17228SOL    HW262904   9.531   7.117   2.822 -0.5473 -2.0264 -2.7236
17229SOL     OW62905   3.781   1.540   5.793  0.1022 -0.2903  0.0858
17229SOL    HW162906   3.701   1.566   5.739 -0.3061  0.9663  1.2555
17229SOL    HW262907   3.836   1.474   5.742 -0.0372  1.1775 -2.0372
17230SOL     OW62908   4.889   5.474   0.360  0.6189 -0.1274 -0.0038
17230SOL    HW162909   4.961   5.405   0.363  0.0414 -0.8098 -1.3256
17230SOL    HW262910   4.892   5.522   0.272  0.1439  0.5754  0.3588
17231SOL     OW62911   7.824   0.628   0.655 -0.2246 -0.1508  0.4202
17231SOL    HW162912   7.765   0.665   0.726  0.0116 -0.4978  0.8013
17231SOL    HW262913   7.865   0.703   0.603  0.9685  0.1647  1.7698
17232SOL     OW62914   5.726   1.316   2.005  0.8304  0.2018 -0.7965
17232SOL    HW162915   5.826   1.318   2.002  0.9352  0.4217  1.5478
17232SOL    HW262916   5.696   1.291   2.097 -1.2746  1.7989 -1.0070
17233SOL     OW62917   3.000   3.393   5.135 -0.0756  0.6427  0.1940
17233SOL    HW162918   3.073   3.326   5.117  0.4464  0.3609  3.1570
17233SOL    HW262919   2.912   3.352   5.113  0.4604  0.1559 -1.1500
17234SOL     OW62920   6.622   4.555   0.655 -0.4430 -0.6892 -0.4220
17234SOL    HW162921   6.590   4.643   0.619 -2.9410 -1.3097  0.1696
17234SOL    HW262922   6.550   4.487   0.645  1.0668 -2.4157  0.1427
17235SOL     OW62923   2.880   7.543   3.775 -0.5661  0.1444  0.1755
17235SOL    HW162924   2.846   7.581   3.861 -2.0625  0.4090 -0.5222
17235SOL    HW262925   2.939   7.465   3.794 -1.7456 -0.4707  1.4021
17236SOL     OW62926   5.882   1.153   2.822  0.5492 -0.3375  0.5059
17236SOL    HW162927   5.851   1.148   2.917 -0.9844 -0.7606 -0.0191
17236SOL    HW262928   5.932   1.070   2.799 -0.1054 -0.7555  0.5826
17237SOL     OW62929   7.603   3.802   1.661  0.0033 -0.5749 -0.3263
17237SOL    HW162930   7.656   3.767   1.584 -1.2546 -1.1361 -0.9497
17237SOL    HW262931   7.514   3.834   1.629 -0.1967  0.0022  0.7667
17238SOL     OW62932   3.710   3.697   1.539  0.4548  0.3835 -0.2178
17238SOL    HW162933   3.783   3.704   1.471  1.1458  2.0733  0.6564
17238SOL    HW262934   3.749   3.692   1.631 -0.4925  3.0546  0.3976
17239SOL     OW62935   5.682   8.346   4.051 -0.5551  0.3004 -0.2635
17239SOL    HW162936   5.599   8.393   4.021 -0.9047  0.6480  1.1812
17239SOL    HW262937   5.668   8.247   4.046 -0.8466  0.3568 -0.5847
17240SOL     OW62938   5.751   5.348   1.742 -0.7123 -0.6726 -0.3492
17240SOL    HW162939   5.839   5.306   1.763 -0.1813  0.3513 -0.5093
17240SOL    HW262940   5.703   5.371   1.827 -0.4183 -0.3902 -0.2593
17241SOL     OW62941   6.859   4.763   2.847 -0.0233 -0.4217 -0.1914
17241SOL    HW162942   6.904   4.852   2.847 -0.9741  0.0942 -2.5377
17241SOL    HW262943   6.919   4.696   2.891  1.9548  0.7589 -0.9978
17242SOL     OW62944   0.706   1.951   1.611  0.3951  0.0851  0.3451
17242SOL    HW162945   0.617   1.962   1.566 -0.0830 -0.3383  1.1801
17242SOL    HW262946   0.753   2.039   1.612 -0.2094  0.4140  0.3074
17243SOL     OW62947   8.397   8.936   3.250  0.3983  0.4680  0.0957
17243SOL    HW162948   8.444   8.848   3.243 -1.3930 -0.4042 -1.6325
17243SOL    HW262949   8.389   8.962   3.346  0.7936 -1.3423  0.6427
17244SOL     OW62950   7.329   5.124   0.784 -0.4752  0.4804 -0.5427
17244SOL    HW162951   7.363   5.030   0.784  0.9787  0.9817 -0.3917
17244SOL    HW262952   7.405   5.187   0.804 -1.2001  1.7629 -1.7065
17245SOL     OW62953   0.009   2.450   5.715  0.2835 -0.2195  0.7151
17245SOL    HW162954  -0.028   2.431   5.806 -0.4522 -1.2497  0.2154
17245SOL    HW262955   0.070   2.375   5.688  3.8027  2.0271  2.0420
17246SOL     OW62956   2.446   8.598   1.591 -0.4123 -0.3667  0.2850
17246SOL    HW162957   2.362   8.652   1.594 -0.8224 -1.0527  1.3127
17246SOL    HW262958   2.424   8.504   1.564 -0.0197 -0.6185  0.8338
17247SOL     OW62959   2.985   3.043   5.789 -0.2629  0.1171 -0.1691
17247SOL    HW162960   3.049   3.005   5.855  1.7775  2.9047 -0.4227
17247SOL    HW262961   2.961   2.974   5.721  1.2759 -1.4222  0.8324
17248SOL     OW62962   7.836   4.579   5.113  0.2925  0.0173 -0.4600
17248SOL    HW162963   7.879   4.612   5.029  0.5275 -0.5833 -0.5790
17248SOL    HW262964   7.845   4.480   5.119  0.0221  0.0214  0.1333
17249SOL     OW62965   4.809   7.903   2.959  0.0058  0.2890 -0.0538
17249SOL    HW162966   4.863   7.846   3.020 -1.3789 -1.0339 -0.0248
17249SOL    HW262967   4.711   7.888   2.976 -0.3967  1.7887 -0.8637
17250SOL     OW62968   1.801   5.515   0.208 -0.4736 -0.5126  0.1413
17250SOL    HW162969   1.839   5.445   0.268  0.7010  0.4084  0.4848
17250SOL    HW262970   1.844   5.508   0.118  0.6035  0.5761  0.5526
17251SOL     OW62971   3.191   4.976   4.281 -0.1770 -0.2580 -0.1126
17251SOL    HW162972   3.110   4.918   4.277  1.9588 -3.3147 -3.5074
17251SOL    HW262973   3.210   5.013   4.190  1.9841  0.7367  0.7019
17252SOL     OW62974   0.842   6.979   5.807 -0.1011 -0.2358  0.1152
17252SOL    HW162975   0.768   7.023   5.756 -0.5881 -0.6332  0.4750
17252SOL    HW262976   0.872   6.897   5.759 -0.3348 -0.4282  0.2946
17253SOL     OW62977   7.810   6.390   3.210 -0.4089  0.5208  0.2826
17253SOL    HW162978   7.867   6.447   3.151 -1.6461  0.4568 -0.9855
17253SOL    HW262979   7.750   6.449   3.265 -1.0916  0.4946 -0.4202
17254SOL     OW62980   7.433   1.305   1.283  0.0764  0.0551 -0.0610
17254SOL    HW162981   7.363   1.372   1.261  1.4552  1.9828  1.3130
17254SOL    HW262982   7.411   1.260   1.370  0.9411  1.2696  0.8054
17255SOL     OW62983   7.339   2.206   1.063  0.1501 -0.3593  0.3597
17255SOL    HW162984   7.252   2.222   1.110  0.0532 -2.3583  0.8681
17255SOL    HW262985   7.414   2.242   1.120  0.0562 -2.9408  2.1839
17256SOL     OW62986   1.136   0.431   5.345  0.4631  0.1462 -0.7876
17256SOL    HW162987   1.160   0.520   5.384  1.0636 -0.7866  0.9928
17256SOL    HW262988   1.114   0.443   5.248  0.4335  2.2477 -0.5516
17257SOL     OW62989   6.023   8.176   6.145  0.2006 -0.4685 -0.9815
17257SOL    HW162990   6.118   8.179   6.113  1.1710  0.2571  1.7959
17257SOL    HW262991   5.997   8.081   6.161  0.1015 -0.7447 -2.7370
17258SOL     OW62992   2.939   6.506   3.013 -0.4417 -0.0923 -0.5680
17258SOL    HW162993   2.843   6.482   3.026 -0.4166 -0.1680 -0.5252
17258SOL    HW262994   2.971   6.560   3.090 -1.1759  2.1639 -1.7874
17259SOL     OW62995   1.518   8.283   5.272  0.0031  0.1142  0.6741
17259SOL    HW162996   1.519   8.291   5.372 -3.6458 -0.7391  0.8413
17259SOL    HW262997   1.446   8.341   5.234  0.4925 -0.5634 -1.3675
17260SOL     OW62998   5.719   2.166   8.185 -0.2577  0.4643  0.2801
17260SOL    HW162999   5.799   2.208   8.143  0.0638  0.6462  1.0730
17260SOL    HW263000   5.639   2.225   8.170 -0.2425  0.2925 -0.4858
17261SOL     OW63001   2.175   7.698   3.371 -0.0673 -0.0025 -0.2487
17261SOL    HW163002   2.205   7.674   3.279  0.8961 -0.0210  0.0635
17261SOL    HW263003   2.168   7.614   3.426  1.3042  0.2033  0.2583
17262SOL     OW63004   7.205   4.309   7.826 -0.0218  0.4195  0.1566
17262SOL    HW163005   7.166   4.363   7.900 -1.4324  2.5754 -2.0686
17262SOL    HW263006   7.302   4.292   7.845 -0.8252 -0.8142  3.4112
17263SOL     OW63007   1.531   0.431   1.567  0.0413  0.0808 -0.3382
17263SOL    HW163008   1.474   0.511   1.550 -0.4509 -0.5046 -1.4840
17263SOL    HW263009   1.510   0.394   1.658  0.7672  1.6482  0.4789
17264SOL     OW63010   9.562   3.579   5.369 -0.1913  0.0770  0.3471
17264SOL    HW163011   9.550   3.525   5.452  0.4630 -3.5745 -1.8515
17264SOL    HW263012   9.658   3.605   5.359 -0.4066  1.2100  1.1046
17265SOL     OW63013   9.767   7.553   2.016  0.0508  0.4594 -0.1240
17265SOL    HW163014   9.694   7.550   1.948  0.1974 -0.5421 -0.2418
17265SOL    HW263015   9.767   7.643   2.061 -2.3937 -0.1155  1.1486
17266SOL     OW63016   3.945   2.296   1.155  0.3771 -0.4182 -0.1062
17266SOL    HW163017   3.965   2.275   1.059  1.1195  0.9803 -0.2603
17266SOL    HW263018   3.948   2.211   1.208  1.8504 -0.9392 -0.9822
17267SOL     OW63019   0.926   5.432   5.519 -0.0185  0.0166 -0.3930
17267SOL    HW163020   0.971   5.343   5.513 -1.3126 -0.7099  0.6039
17267SOL    HW263021   0.931   5.478   5.430  3.3742  0.3101 -0.1171
17268SOL     OW63022   8.334   9.391   0.314 -0.0607  0.2165  0.1912
17268SOL    HW163023   8.329   9.489   0.332  1.1232  0.2278  0.5069
17268SOL    HW263024   8.418   9.354   0.354 -1.1570 -1.1848  1.2486
17269SOL     OW63025   3.224   6.734   4.588  0.5363 -0.1312 -0.1767
17269SOL    HW163026   3.266   6.767   4.504 -0.1578  0.1983 -0.3983
17269SOL    HW263027   3.135   6.695   4.568  0.7232 -0.8090  0.2937
17270SOL     OW63028   3.674   3.159   1.840 -0.0100  0.3712  0.1374
17270SOL    HW163029   3.682   3.181   1.743  0.6049  0.5043  0.2150
17270SOL    HW263030   3.626   3.232   1.888  0.1997  0.5748  0.0345
17271SOL     OW63031   9.509   7.249   5.571  0.0614  0.0016  0.5954
17271SOL    HW163032   9.419   7.240   5.529 -0.4747 -0.5871  1.8211
17271SOL    HW263033   9.573   7.187   5.527 -0.6130 -0.9798  0.9680
17272SOL     OW63034   9.357   7.093   2.792 -0.1090 -0.0320  0.5476
17272SOL    HW163035   9.290   7.031   2.832 -0.9315  0.2610 -0.3289
17272SOL    HW263036   9.309   7.162   2.737  0.9582 -0.4494 -0.9561
17273SOL     OW63037   3.522   0.421   4.670 -0.6215  0.4956 -0.1487
17273SOL    HW163038   3.514   0.322   4.679 -0.6428  0.5945  0.9002
17273SOL    HW263039   3.606   0.452   4.715 -0.4183  0.9157 -0.8012
17274SOL     OW63040   1.228   3.278   0.836  0.2203 -0.2974 -0.5405
17274SOL    HW163041   1.230   3.264   0.935 -0.0260 -0.8414 -0.6118
17274SOL    HW263042   1.175   3.361   0.815  1.6436  0.7353 -0.1204
17275SOL     OW63043   8.419   0.082   1.779  0.9165 -0.1515 -0.1412
17275SOL    HW163044   8.338   0.028   1.804  1.3149 -0.4183  0.5702
17275SOL    HW263045   8.404   0.125   1.689  0.0836 -0.3965 -0.1217
17276SOL     OW63046   8.912   9.607   1.189 -0.1017  0.2487 -0.5768
17276SOL    HW163047   8.930   9.694   1.143  2.9441 -0.1640 -0.2967
17276SOL    HW263048   8.891   9.624   1.285  0.2752  0.6912 -0.5711
17277SOL     OW63049   8.151   4.730   4.761 -0.0430  0.2370  0.5288
17277SOL    HW163050   8.144   4.818   4.714  0.4631 -0.2725 -0.4991
17277SOL    HW263051   8.232   4.681   4.729  1.1458  0.5292  3.0109
17278SOL     OW63052   0.638   7.380   5.927  0.5857 -0.2690 -0.4658
17278SOL    HW163053   0.618   7.478   5.930 -1.7692 -0.6534 -1.7039
17278SOL    HW263054   0.643   7.344   6.020 -0.3451  0.6996 -0.0281
17279SOL     OW63055   8.389   6.278   2.705 -0.3198  0.3579 -0.1845
17279SOL    HW163056   8.291   6.286   2.724 -0.0682 -1.9312  2.4033
17279SOL    HW263057   8.436   6.360   2.738 -0.9093 -0.2158  2.1931
17280SOL     OW63058   8.207   6.186   3.758  0.2620 -0.0379 -0.4885
17280SOL    HW163059   8.218   6.127   3.838 -0.8625  0.5133  0.0934
17280SOL    HW263060   8.220   6.133   3.675  2.6733 -0.3669  0.0618
17281SOL     OW63061   9.329   0.341   5.199  0.7459  0.2661  0.1625
17281SOL    HW163062   9.355   0.288   5.118 -2.8401  0.1961 -1.0135
17281SOL    HW263063   9.364   0.296   5.281  2.3132 -0.9940 -1.1588
17282SOL     OW63064   8.068   2.614   1.534 -0.1188  0.1860  0.1226
17282SOL    HW163065   8.045   2.534   1.589 -0.7043 -0.0959 -0.5224
17282SOL    HW263066   8.167   2.627   1.534 -0.0775 -0.1030  0.8267
17283SOL     OW63067   8.348   8.988   2.728 -0.0429  0.7133 -0.2476
17283SOL    HW163068   8.401   8.925   2.785 -2.7869 -0.7533  0.7826
17283SOL    HW263069   8.331   8.946   2.639 -0.2653  0.8112 -0.2513
17284SOL     OW63070   3.363   5.440   0.708  0.5340 -0.1775  0.3563
17284SOL    HW163071   3.401   5.528   0.677  0.0479  0.2945  1.1032
17284SOL    HW263072   3.283   5.418   0.653  0.1804  0.2418  0.7010
17285SOL     OW63073   8.371   6.653   1.665  0.1043 -0.1569  0.8327
17285SOL    HW163074   8.425   6.569   1.666  1.5663  0.7276 -0.3870
17285SOL    HW263075   8.350   6.678   1.570  0.9308  1.6116  1.0990
17286SOL     OW63076   2.253   9.129   2.266  0.1895 -0.2451 -0.0119
17286SOL    HW163077   2.251   9.092   2.359 -0.9627 -0.4981 -0.1207
17286SOL    HW263078   2.160   9.130   2.230  0.6727 -0.3973 -1.2635
17287SOL     OW63079   3.678   4.008   4.646 -0.1202 -0.0309  0.5068
17287SOL    HW163080   3.673   3.917   4.605 -1.1801 -0.2521  1.1094
17287SOL    HW263081   3.667   4.078   4.575 -2.5050 -0.4133  0.4762
17288SOL     OW63082   8.147   2.163   4.102  0.1367 -0.4740 -0.2156
17288SOL    HW163083   8.122   2.255   4.133 -2.1602 -1.2456  0.3334
17288SOL    HW263084   8.152   2.161   4.002 -1.3497 -0.0968 -0.3123
17289SOL     OW63085   7.684   0.181   5.652  0.1666  0.3380  0.9349
17289SOL    HW163086   7.735   0.267   5.658  0.6482  0.1849 -0.8133
17289SOL    HW263087   7.707   0.135   5.566 -1.5038 -0.6366  1.0034
17290SOL     OW63088   4.298   2.826   2.119  0.5695  0.2567  0.5397
17290SOL    HW163089   4.377   2.865   2.167  0.5137  0.0104  0.8321
17290SOL    HW263090   4.244   2.772   2.183 -0.0168  0.6957  0.4122
17291SOL     OW63091   1.272   1.603   2.240  0.6220  0.7442  0.0428
17291SOL    HW163092   1.256   1.509   2.211 -0.8580  0.9676  0.0662
17291SOL    HW263093   1.338   1.647   2.179  1.3315 -0.3132  0.0477
17292SOL     OW63094   0.938   6.727   1.493 -0.4799  0.3270 -0.0606
17292SOL    HW163095   0.940   6.661   1.569  0.0581  1.4036  0.8654
17292SOL    HW263096   0.909   6.680   1.409  0.1594 -1.1499  0.5292
17293SOL     OW63097   1.470   5.393   1.542  0.3332  0.1487  0.3360
17293SOL    HW163098   1.430   5.346   1.464 -0.0074 -0.7531  1.0303
17293SOL    HW263099   1.406   5.461   1.577 -1.1658 -2.0942  2.1672
17294SOL     OW63100   1.185   1.451   5.244  0.1224  0.1363 -0.1265
17294SOL    HW163101   1.108   1.502   5.283  0.1121 -1.1976  1.6577
17294SOL    HW263102   1.155   1.358   5.222  1.3070 -0.5173  0.9508
17295SOL     OW63103   3.502   5.196   4.973 -0.1256  0.1681  0.4578
17295SOL    HW163104   3.581   5.135   4.978 -1.4562 -1.8229 -1.8588
17295SOL    HW263105   3.431   5.163   5.036  0.0886  0.7800  1.0280
17296SOL     OW63106   6.208   0.297   2.639  0.5936 -0.5385 -0.6135
17296SOL    HW163107   6.139   0.232   2.606  0.1292 -0.3293 -0.0546
17296SOL    HW263108   6.212   0.293   2.739  0.0486  0.8191 -0.5363
17297SOL     OW63109   1.418   5.907   4.949  0.4299 -0.0222  0.4460
17297SOL    HW163110   1.348   5.863   5.004  0.8463 -2.2014 -0.7273
17297SOL    HW263111   1.375   5.973   4.887 -0.4968 -0.7043  0.3466
17298SOL     OW63112   3.909   1.138   1.310  0.5495  0.3717 -0.1411
17298SOL    HW163113   3.885   1.234   1.305  1.4236  0.6289  0.3856
17298SOL    HW263114   3.836   1.082   1.271  0.5598  1.3134 -1.5300
17299SOL     OW63115   2.609   3.463   4.297  0.0915 -0.2996  0.3741
17299SOL    HW163116   2.637   3.491   4.206 -1.3250  1.2795  0.3979
17299SOL    HW263117   2.515   3.429   4.294 -0.0894  0.1045  1.3028
17300SOL     OW63118   1.252   9.136   6.361 -0.1178 -0.1748 -0.1560
17300SOL    HW163119   1.343   9.157   6.397 -0.2716 -0.7243  0.5682
17300SOL    HW263120   1.260   9.102   6.268  0.3623  0.3797 -0.3249
17301SOL     OW63121   7.236   2.480   0.968 -0.0884 -0.2973  0.2918
17301SOL    HW163122   7.272   2.558   1.019  1.6625 -1.6574  1.1828
17301SOL    HW263123   7.274   2.395   1.005 -2.9914 -1.7005  0.1957
17302SOL     OW63124   7.218   8.952   3.301  0.0038  0.3759  0.2551
17302SOL    HW163125   7.248   8.984   3.210  0.7508  0.1796  0.4235
17302SOL    HW263126   7.299   8.939   3.359 -0.3817 -0.6661  0.5631
17303SOL     OW63127   3.095   5.464   3.567  0.0657 -0.1518 -0.0609
17303SOL    HW163128   3.176   5.420   3.529 -0.0117 -0.8836  0.6026
17303SOL    HW263129   3.115   5.560   3.585  1.0107 -0.4846  0.7269
17304SOL     OW63130   2.293   8.010   1.297  0.1942  0.0533  0.0987
17304SOL    HW163131   2.281   8.051   1.388  0.7943 -1.3971  0.8389
17304SOL    HW263132   2.388   8.020   1.268  0.3687 -0.8684  0.3245
17305SOL     OW63133   2.439   3.670   5.020 -0.3668 -0.2410  0.3435
17305SOL    HW163134   2.348   3.654   4.981 -0.5391  0.4178  0.4704
17305SOL    HW263135   2.466   3.765   5.002  1.1427 -0.9889 -1.4481
17306SOL     OW63136   8.639   6.299   5.496 -0.1294 -0.4574  0.2906
17306SOL    HW163137   8.629   6.254   5.584 -2.2029  0.3223  0.4702
17306SOL    HW263138   8.568   6.266   5.433  1.4599 -1.1832 -1.1804
17307SOL     OW63139   0.672   7.411   5.116 -0.0256 -0.0763  0.1307
17307SOL    HW163140   0.590   7.465   5.099 -0.2733  0.7262  3.5158
17307SOL    HW263141   0.650   7.314   5.107 -1.4027  0.1270  1.1878
17308SOL     OW63142   0.826   4.963   3.375 -0.3634  0.7409  0.3076
17308SOL    HW163143   0.818   4.880   3.430 -1.5051  1.4624  1.2255
17308SOL    HW263144   0.892   5.025   3.417 -0.6782  0.9743  0.4555
17309SOL     OW63145   7.464   0.333   3.035  0.4446 -0.0228 -0.3152
17309SOL    HW163146   7.400   0.308   2.962  0.5251  0.1587 -0.4492
17309SOL    HW263147   7.548   0.280   3.025  0.7139  0.4858 -0.7491
17310SOL     OW63148   9.584   7.291   6.081  0.4107 -0.2414  0.6595
17310SOL    HW163149   9.527   7.368   6.108  0.4323  0.4000 -1.0815
17310SOL    HW263150   9.680   7.310   6.102  0.4440  0.3136  0.0233
17311SOL     OW63151   7.805   7.841   4.028 -0.3158  0.1685  0.7026
17311SOL    HW163152   7.781   7.918   4.086 -3.4115 -1.6040  1.8703
17311SOL    HW263153   7.810   7.758   4.083 -0.3153 -1.0387 -1.0712
17312SOL     OW63154   6.605   0.447   1.705  0.1283 -1.0280  0.3888
17312SOL    HW163155   6.606   0.547   1.698 -0.6424 -1.0356  0.1478
17312SOL    HW263156   6.530   0.419   1.765 -1.2242 -1.5750 -1.5059
17313SOL     OW63157   9.380   2.314   1.869  0.2593  0.1722 -0.3472
17313SOL    HW163158   9.324   2.351   1.795  0.3693  1.7382  0.3131
17313SOL    HW263159   9.390   2.215   1.859 -2.5478 -0.1159 -0.5100
17314SOL     OW63160   7.371   9.078   4.605  0.1617  0.2504 -0.0731
17314SOL    HW163161   7.451   9.068   4.546 -0.8748 -1.9526 -1.1844
17314SOL    HW263162   7.388   9.032   4.692  0.8447  1.5319  0.4772
17315SOL     OW63163   3.331   6.670   0.104  0.0117 -0.5809  0.0486
17315SOL    HW163164   3.269   6.727   0.159 -0.5154 -0.2458 -0.8930
17315SOL    HW263165   3.280   6.590   0.072  0.1852 -0.5126 -0.3861
17316SOL     OW63166   0.842   8.576   1.596  0.8530 -0.3394  0.2708
17316SOL    HW163167   0.765   8.571   1.658 -2.3948 -2.6211 -3.6997
17316SOL    HW263168   0.909   8.505   1.619 -0.6267 -1.5988  0.7481
17317SOL     OW63169   9.364   3.121   2.512 -0.4848  0.3910 -0.0485
17317SOL    HW163170   9.426   3.121   2.591 -0.7104  1.0163  0.1294
17317SOL    HW263171   9.416   3.142   2.429 -0.1875 -0.5891 -0.1238
17318SOL     OW63172   3.805   0.433   3.880 -0.5524 -0.3978 -0.3614
17318SOL    HW163173   3.886   0.421   3.937 -0.6947 -1.6317 -0.4224
17318SOL    HW263174   3.834   0.454   3.786 -0.3187  1.8506  0.1703
17319SOL     OW63175   0.977   0.137   4.365 -0.2229  0.3890  0.2986
17319SOL    HW163176   1.064   0.139   4.316 -0.4795 -0.3678 -0.1896
17319SOL    HW263177   0.976   0.058   4.428 -1.4505 -0.9601 -1.3621
17320SOL     OW63178   8.927   8.541   4.359 -0.0063 -0.0824  0.2415
17320SOL    HW163179   9.019   8.507   4.337 -0.6111 -1.8341  0.3362
17320SOL    HW263180   8.915   8.632   4.321  1.7970  0.1820  0.2690
17321SOL     OW63181   2.234   3.751   5.569 -0.8071 -0.1620  0.4453
17321SOL    HW163182   2.315   3.695   5.556 -0.5601  0.6215 -1.7023
17321SOL    HW263183   2.235   3.827   5.503 -2.8626  0.3220  0.9211
17322SOL     OW63184   8.585   3.280   4.533 -0.1202  0.5396  0.3442
17322SOL    HW163185   8.535   3.230   4.605  0.7368  0.7147  1.0700
17322SOL    HW263186   8.555   3.375   4.532 -0.1489  0.5328  0.4675
17323SOL     OW63187   1.526   4.168   0.436  0.2594 -0.3752 -0.5663
17323SOL    HW163188   1.521   4.253   0.383 -0.8453 -0.9276 -1.3885
17323SOL    HW263189   1.534   4.189   0.533  0.2619  0.6636 -0.7870
17324SOL     OW63190   1.482   5.029   1.293  0.3710 -0.0684 -0.3813
17324SOL    HW163191   1.566   5.005   1.244 -0.9799 -2.9002 -1.4327
17324SOL    HW263192   1.486   4.994   1.386  0.3861 -0.1417 -0.4093
17325SOL     OW63193   9.856   8.136   0.954 -0.2330  0.5985  0.5493
17325SOL    HW163194   9.853   8.089   0.865  1.4584  0.2743  0.6448
17325SOL    HW263195   9.824   8.074   1.025  0.2030  0.2143  0.4148
17326SOL     OW63196   7.703   1.620   4.079 -0.0210 -0.4410 -0.1077
17326SOL    HW163197   7.634   1.637   4.149  2.7747  0.3995  2.5835
17326SOL    HW263198   7.756   1.703   4.064  1.8719 -1.6549 -0.3780
17327SOL     OW63199   7.668   8.024   4.244 -0.0731  0.4010 -0.5809
17327SOL    HW163200   7.709   7.992   4.329 -2.6315  1.0247  0.9429
17327SOL    HW263201   7.727   8.093   4.202  1.6557 -0.6016  0.1817
17328SOL     OW63202   1.071   1.322   6.377  0.0542 -0.3235  0.5065
17328SOL    HW163203   1.006   1.285   6.443  2.1891 -1.9798  1.7074
17328SOL    HW263204   1.102   1.250   6.315 -1.2308  1.0135 -1.7891
17329SOL     OW63205   8.564   0.175   6.242  0.0396 -0.2612 -0.5815
17329SOL    HW163206   8.626   0.169   6.321 -0.8252 -2.2728 -0.0421
17329SOL    HW263207   8.535   0.270   6.231  1.9296  0.4408  0.1406
17330SOL     OW63208   8.953   2.650   3.502  0.1103 -0.1110 -0.1839
17330SOL    HW163209   8.918   2.656   3.595  0.2142 -1.6430 -0.0430
17330SOL    HW263210   8.886   2.604   3.444  0.8232 -0.7899 -0.4672
17331SOL     OW63211   7.289   8.711   5.873  0.4015 -0.1194  0.5297
17331SOL    HW163212   7.332   8.627   5.839 -0.4503 -1.3974  2.4759
17331SOL    HW263213   7.324   8.789   5.823  1.7500 -1.5745 -0.8575
17332SOL     OW63214   7.850   0.037   5.449 -0.9346 -0.2733 -0.1224
17332SOL    HW163215   7.875   0.020   5.544 -0.9423 -1.0437 -0.2472
17332SOL    HW263216   7.911   0.106   5.410 -1.9731  1.2391  0.9025
17333SOL     OW63217   8.948   5.396   0.519 -0.2202  0.1063  0.1221
17333SOL    HW163218   8.913   5.474   0.572 -1.3757 -1.7082  2.1170
17333SOL    HW263219   9.048   5.396   0.521 -0.2140  1.4736  0.1872
17334SOL     OW63220   1.168   4.143   5.707  0.2940 -0.4542 -0.2483
17334SOL    HW163221   1.236   4.150   5.634  1.2293 -1.1923  0.5324
17334SOL    HW263222   1.167   4.050   5.744 -1.9184 -0.7455 -0.9640
17335SOL     OW63223   5.339   9.963   2.327 -0.3415 -0.6930 -0.1312
17335SOL    HW163224   5.308   9.884   2.273 -3.1155 -1.1452  2.0134
17335SOL    HW263225   5.340   9.939   2.424 -1.8274  2.0724  0.6140
17336SOL     OW63226   8.666   7.954   1.522  0.3156 -0.1272  0.0706
17336SOL    HW163227   8.606   8.031   1.500 -0.6372 -0.5222  1.2388
17336SOL    HW263228   8.728   7.937   1.445 -2.4738 -1.0191 -2.0563
17337SOL     OW63229   6.729   7.231   3.839 -0.5154 -0.2660  0.3380
17337SOL    HW163230   6.813   7.191   3.802 -0.9133 -0.8798  0.0835
17337SOL    HW263231   6.717   7.202   3.934 -0.4899 -0.2538  0.3451
17338SOL     OW63232   9.992   6.696   1.156  0.5867  0.2021 -0.1440
17338SOL    HW163233   9.897   6.719   1.179  0.1209 -1.7500 -0.0534
17338SOL    HW263234   9.999   6.686   1.056  1.2841  2.8328 -0.3883
17339SOL     OW63235   3.048   6.870   0.859  0.1151 -0.5544  0.5895
17339SOL    HW163236   3.025   6.834   0.949  0.4547 -2.0789  0.0851
17339SOL    HW263237   3.138   6.835   0.832  0.1109  0.0777 -0.2416
17340SOL     OW63238   8.771   1.507   5.080  0.1255 -0.0930  0.1679
17340SOL    HW163239   8.815   1.420   5.057 -1.3425 -1.0956  1.0899
17340SOL    HW263240   8.730   1.546   4.998  3.3675  1.2873 -0.9159
17341SOL     OW63241   0.894   0.979   3.501 -0.9960  0.3557 -0.1111
17341SOL    HW163242   0.848   0.898   3.537 -1.9982  1.1723  0.4737
17341SOL    HW263243   0.989   0.981   3.534 -0.3162 -1.6670 -1.8487
17342SOL     OW63244   5.939   1.600   5.075  0.3215  0.1218  0.4629
17342SOL    HW163245   6.036   1.624   5.074  0.6672 -1.1850  0.4334
17342SOL    HW263246   5.884   1.680   5.096  1.2387  1.4383 -2.0242
17343SOL     OW63247   3.674   0.659   6.255  0.4363 -0.2577 -0.2145
17343SOL    HW163248   3.678   0.559   6.252 -0.5735 -0.3230  0.4565
17343SOL    HW263249   3.591   0.691   6.209  0.0997  0.2018  0.6932
17344SOL     OW63250   7.902   6.666   4.884  0.0091 -0.6616 -0.1243
17344SOL    HW163251   7.929   6.712   4.969 -0.5540  0.2303 -0.4232
17344SOL    HW263252   7.984   6.634   4.836  0.4712  0.8958 -0.3992
17345SOL     OW63253   9.603   6.874   4.781  0.2736  0.0455 -0.0270
17345SOL    HW163254   9.664   6.934   4.833  0.2466 -0.2450  0.3379
17345SOL    HW263255   9.580   6.918   4.694  0.6999  0.3220 -0.0038
17346SOL     OW63256   3.681   2.190   4.949  0.4969 -0.6693  0.0434
17346SOL    HW163257   3.687   2.101   4.904 -0.6072  0.4412 -2.3750
17346SOL    HW263258   3.758   2.247   4.920  0.3312 -0.2912  0.3411
17347SOL     OW63259   0.401   6.528   4.421 -0.4871  0.3827  0.3609
17347SOL    HW163260   0.378   6.443   4.375  0.6705 -0.3367  1.0893
17347SOL    HW263261   0.501   6.539   4.424 -0.6260  1.8585  0.0956
17348SOL     OW63262   8.116   5.463   6.018 -0.2629 -0.1186  0.0719
17348SOL    HW163263   8.151   5.557   6.006  0.7851 -0.3342  1.3375
17348SOL    HW263264   8.193   5.399   6.016 -0.7875 -0.7832  1.0052
17349SOL     OW63265   5.016   3.037   5.781 -0.0512 -0.4805  0.3428
17349SOL    HW163266   5.028   3.107   5.711 -0.8111 -2.0726 -1.4189
17349SOL    HW263267   5.097   2.979   5.784 -0.8523 -1.6698 -0.6660
17350SOL     OW63268   3.180   0.481   1.181 -0.1167 -0.0246 -0.4207
17350SOL    HW163269   3.255   0.547   1.182 -0.6424  0.6100  2.3462
17350SOL    HW263270   3.216   0.388   1.190  0.4439  0.1037 -1.2715
17351SOL     OW63271   2.662   2.708   5.114 -0.7192 -0.2082  0.2121
17351SOL    HW163272   2.762   2.708   5.109 -0.6935 -1.4092  0.4634
17351SOL    HW263273   2.631   2.789   5.164  0.1547 -0.0547  0.5188
17352SOL     OW63274   4.538   9.861   4.628 -0.1900 -0.1192  0.8118
17352SOL    HW163275   4.566   9.869   4.724 -2.1464  0.1994  1.3779
17352SOL    HW263276   4.594   9.921   4.571 -0.5151  1.4093  2.0727
17353SOL     OW63277   3.694   4.887   0.633 -0.4335  0.0910 -0.1447
17353SOL    HW163278   3.739   4.810   0.587 -0.2220  0.5648 -0.7476
17353SOL    HW263279   3.753   4.922   0.705 -1.0722 -1.1155  0.9887
17354SOL     OW63280   2.604   1.747   2.929  0.1559  0.1026 -0.0887
17354SOL    HW163281   2.557   1.808   2.865 -1.4744 -0.0657  0.9371
17354SOL    HW263282   2.703   1.750   2.911 -0.1116  1.4162 -1.4267
17355SOL     OW63283   6.103   0.732   2.321 -0.5102 -0.5535 -0.3746
17355SOL    HW163284   6.152   0.646   2.305  0.4825  0.7420 -5.1785
17355SOL    HW263285   6.166   0.799   2.361  0.8689  0.0896 -3.4650
17356SOL     OW63286   6.531   1.430   6.476 -0.1841  0.2115 -0.2563
17356SOL    HW163287   6.619   1.418   6.429  0.0134 -1.0916  0.4153
17356SOL    HW263288   6.467   1.478   6.416  0.1903 -1.0675 -1.7102
17357SOL     OW63289   5.218   9.509   3.090  0.5671 -0.4916  0.3145
17357SOL    HW163290   5.178   9.417   3.090 -0.1080 -0.2413  2.3363
17357SOL    HW263291   5.186   9.559   3.171 -2.0783  2.8379 -2.5730
17358SOL     OW63292   7.812   5.140   3.662 -0.4246  0.0062 -0.3691
17358SOL    HW163293   7.803   5.060   3.603 -0.5239  0.1510 -0.5497
17358SOL    HW263294   7.749   5.211   3.632  0.5852  0.6434 -1.0011
17359SOL     OW63295   2.155   6.602   1.700  0.3862  0.4205  0.0930
17359SOL    HW163296   2.073   6.566   1.654 -0.1104  2.6628 -0.8098
17359SOL    HW263297   2.148   6.583   1.798  0.6566 -2.8907 -0.4651
17360SOL     OW63298   4.265   8.607   2.921 -0.0106 -0.2150 -0.0812
17360SOL    HW163299   4.350   8.661   2.918 -0.5084  0.6523  0.9910
17360SOL    HW263300   4.284   8.514   2.890  1.4647 -0.1883  0.6520
17361SOL     OW63301   8.806   7.470   3.047 -0.0553 -0.3494 -0.4544
17361SOL    HW163302   8.737   7.439   3.111 -1.0739 -0.9628 -1.8218
17361SOL    HW263303   8.763   7.530   2.979  1.0315  0.4190 -0.4753
17362SOL     OW63304   8.011   9.182   6.637  0.2197  0.6970 -0.4052
17362SOL    HW163305   7.949   9.120   6.685  0.6964  1.2531  0.9603
17362SOL    HW263306   8.030   9.147   6.546  0.1128 -0.9130  0.1830
17363SOL     OW63307   9.197   8.377   1.678 -0.8070  0.0423  0.4663
17363SOL    HW163308   9.109   8.335   1.700 -0.3036 -0.1182  2.2293
17363SOL    HW263309   9.249   8.316   1.619 -1.3162 -0.4887  0.5605
17364SOL     OW63310   2.887   2.566   2.093  0.3119 -0.3092 -0.3927
17364SOL    HW163311   2.906   2.657   2.130  1.4670 -1.1909  1.2445
17364SOL    HW263312   2.802   2.531   2.133 -0.0611 -0.0059 -0.9195
17365SOL     OW63313   8.725   2.007   2.376 -0.9554  0.0757  0.2522
17365SOL    HW163314   8.702   1.926   2.322 -0.5381  0.4859 -0.5430
17365SOL    HW263315   8.774   1.978   2.458  1.8843 -0.2854 -1.5015
17366SOL     OW63316   3.563   7.508   3.029 -1.0472  0.8503  0.1783
17366SOL    HW163317   3.490   7.460   3.078  0.9827 -1.5079  1.0659
17366SOL    HW263318   3.576   7.466   2.939 -0.5916  1.0348  0.1540
17367SOL     OW63319   9.157   2.296   2.835  0.8025  0.3657 -0.1859
17367SOL    HW163320   9.167   2.303   2.736 -0.1514  0.8485 -0.2518
17367SOL    HW263321   9.186   2.205   2.865  1.2277  0.2677 -0.8916
17368SOL     OW63322   7.684   1.410   1.250 -0.1728  0.5782  0.2056
17368SOL    HW163323   7.689   1.491   1.309 -1.6966  0.6687  0.2231
17368SOL    HW263324   7.592   1.371   1.255 -0.7362  1.3591 -3.1307
17369SOL     OW63325   8.553   9.280   0.452  0.7898 -0.7267  0.0046
17369SOL    HW163326   8.584   9.336   0.528  2.3586 -0.6893 -0.6541
17369SOL    HW263327   8.551   9.184   0.480  1.0574 -0.6797  0.1879
17370SOL     OW63328   3.321   9.353   5.430 -0.1460 -0.7224 -0.7540
17370SOL    HW163329   3.238   9.407   5.439 -0.7262 -1.3673 -2.0621
17370SOL    HW263330   3.380   9.394   5.360  0.6961 -0.2073  0.2425
17371SOL     OW63331   6.921   0.063   4.118  0.4903  0.6083  0.2369
17371SOL    HW163332   6.858   0.063   4.196 -0.3613  1.1555 -0.4319
17371SOL    HW263333   6.986  -0.012   4.127 -0.0240  0.2634  1.1379
17372SOL     OW63334   8.485   8.715   0.920  0.0274 -0.2020 -0.9873
17372SOL    HW163335   8.517   8.703   1.014 -1.4389  0.4616 -0.3891
17372SOL    HW263336   8.496   8.811   0.892  0.8368 -0.4775 -1.6427
17373SOL     OW63337   7.532   0.698   5.615  0.0291  0.8286 -0.1109
17373SOL    HW163338   7.441   0.669   5.587  1.0538 -2.2118 -0.4069
17373SOL    HW263339   7.536   0.704   5.715  0.0392 -0.9920  0.0185
17374SOL     OW63340   2.620   4.219   2.224 -0.3119  0.4497  0.5350
17374SOL    HW163341   2.643   4.316   2.230 -0.2163  0.4499  0.1437
17374SOL    HW263342   2.597   4.185   2.315  1.1191  0.4832  0.9198
17375SOL     OW63343   7.782   5.548   1.042 -0.1994 -0.6631 -0.0251
17375SOL    HW163344   7.814   5.574   1.133 -0.0456 -2.6814  0.5245
17375SOL    HW263345   7.699   5.492   1.051 -0.5432 -0.3434 -1.1599
17376SOL     OW63346   8.152   3.320   6.099 -0.7092 -0.5138 -0.1624
17376SOL    HW163347   8.242   3.361   6.088  0.0861 -1.5806  2.2041
17376SOL    HW263348   8.113   3.346   6.187 -2.2001 -1.0593 -0.6320
17377SOL     OW63349   1.616   0.213   6.081  0.1408 -0.0215 -0.3972
17377SOL    HW163350   1.591   0.117   6.075 -0.9101  0.2184 -0.0421
17377SOL    HW263351   1.613   0.255   5.991 -3.5334  0.6622 -0.0347
17378SOL     OW63352   8.324   0.122   4.132 -0.6693  0.6134  0.4298
17378SOL    HW163353   8.289   0.031   4.154  0.0429  0.3723  0.5973
17378SOL    HW263354   8.397   0.113   4.063 -0.9645  1.1053  0.0519
17379SOL     OW63355   1.284   7.580   1.380  0.3661 -0.2113  0.4407
17379SOL    HW163356   1.253   7.669   1.345 -0.1318  0.2085  1.9207
17379SOL    HW263357   1.348   7.594   1.455  0.6065 -1.1101  0.4099
17380SOL     OW63358   6.678   1.974   2.939 -0.3969  0.7370 -0.0221
17380SOL    HW163359   6.740   2.022   2.877 -0.5712  0.2502 -0.5837
17380SOL    HW263360   6.589   2.021   2.940 -0.7466  0.1224 -1.0050
17381SOL     OW63361   7.181   0.386   3.533 -0.7186  0.9788 -0.2678
17381SOL    HW163362   7.244   0.420   3.603 -0.1322 -1.3455  0.3827
17381SOL    HW263363   7.231   0.370   3.448 -0.4283 -0.6440  0.1811
17382SOL     OW63364   1.904   5.992   3.135  0.0419 -0.8030 -0.3257
17382SOL    HW163365   1.855   5.933   3.070 -1.9251  1.4760 -0.9920
17382SOL    HW263366   1.888   6.088   3.112  1.9358  0.0353  1.6395
17383SOL     OW63367   4.831   2.767   1.244  0.1337 -0.1130  0.0793
17383SOL    HW163368   4.880   2.750   1.158  1.3110  1.4497  0.4257
17383SOL    HW263369   4.873   2.715   1.318  1.3316  1.2655  0.3857
17384SOL     OW63370   5.470   4.630   1.327 -0.7545 -0.2261  0.5612
17384SOL    HW163371   5.430   4.592   1.243 -0.0770  0.5926 -0.1521
17384SOL    HW263372   5.543   4.694   1.302 -0.5682  0.0440  1.7851
17385SOL     OW63373   3.694   9.615   4.426 -0.3224  0.1628  0.1815
17385SOL    HW163374   3.792   9.633   4.439  0.1974 -2.3877  0.0442
17385SOL    HW263375   3.677   9.590   4.331 -1.1880  0.9522  0.1196
17386SOL     OW63376   5.204   2.093   7.946 -0.2962 -0.3703  0.0028
17386SOL    HW163377   5.195   2.020   7.878  0.9409  0.7698 -1.4192
17386SOL    HW263378   5.227   2.052   8.035 -0.6965 -1.7826 -0.5182
17387SOL     OW63379   3.890   5.390   4.004 -0.0002  0.0834 -0.0912
17387SOL    HW163380   3.928   5.448   4.076  0.3292 -1.0375  0.6536
17387SOL    HW263381   3.814   5.336   4.042 -0.4957  0.2402 -0.8503
17388SOL     OW63382   1.479   5.283   4.385 -0.1966 -0.2475 -0.8540
17388SOL    HW163383   1.409   5.277   4.457  0.4351 -1.9447 -0.3694
17388SOL    HW263384   1.495   5.379   4.363  1.4216  0.4713  3.0645
17389SOL     OW63385   4.758   4.083   1.117  0.2020 -0.0986 -0.1036
17389SOL    HW163386   4.771   4.171   1.070  0.5405 -0.0339  0.1054
17389SOL    HW263387   4.665   4.078   1.154 -0.0004 -0.0664 -0.6084
17390SOL     OW63388   1.932   9.868   3.936  0.1270 -0.1299 -0.0932
17390SOL    HW163389   1.833   9.860   3.951  0.2251 -2.0963 -0.3246
17390SOL    HW263390   1.951   9.951   3.883 -1.4961 -0.2186 -0.8535
17391SOL     OW63391   4.603   2.135   0.037 -0.0659  0.1266 -0.1263
17391SOL    HW163392   4.678   2.182   0.084  0.2041 -1.3967  1.0271
17391SOL    HW263393   4.520   2.140   0.092  0.2671 -1.7234  0.6020
17392SOL     OW63394   8.718   1.189   1.827  0.3553  0.3771 -0.3984
17392SOL    HW163395   8.624   1.156   1.837  0.1090  0.7394 -1.4988
17392SOL    HW263396   8.749   1.175   1.733  1.5797 -0.1796  0.0703
17393SOL     OW63397   3.720   4.555   3.811 -0.3668  0.3990 -0.0798
17393SOL    HW163398   3.702   4.636   3.867 -0.2238 -0.2762  0.9627
17393SOL    HW263399   3.720   4.474   3.869  1.3477 -0.1465 -0.8053
17394SOL     OW63400   7.487   5.259   0.508 -0.3246 -1.0026 -0.5980
17394SOL    HW163401   7.440   5.282   0.593  0.7898 -0.2153 -0.1830
17394SOL    HW263402   7.483   5.336   0.445  2.7622  0.1023  0.5013
17395SOL     OW63403   7.355   0.624   4.716  0.2755  0.0788 -0.5071
17395SOL    HW163404   7.351   0.535   4.672  0.7856 -0.6401  0.8641
17395SOL    HW263405   7.329   0.695   4.651  0.7326 -0.9825 -1.8692
17396SOL     OW63406   0.862   5.815   4.579 -0.1330  0.3914  0.4343
17396SOL    HW163407   0.818   5.856   4.499 -1.3085  0.7315  1.2252
17396SOL    HW263408   0.879   5.887   4.647  2.4971  0.4271 -0.1971
17397SOL     OW63409   8.234   2.166   0.207  0.3349 -0.1896  0.0298
17397SOL    HW163410   8.154   2.159   0.147  0.4069  0.1706 -0.1102
17397SOL    HW263411   8.287   2.247   0.182 -0.6015  0.9890  1.7525
17398SOL     OW63412   6.131   0.149   5.549  0.5549 -0.3862  0.7206
17398SOL    HW163413   6.168   0.069   5.597  0.6964 -1.5219 -1.2033
17398SOL    HW263414   6.034   0.134   5.530  0.7261 -0.3774 -0.1822
17399SOL     OW63415   2.583   3.031   4.624  0.4344 -0.1930 -0.0823
17399SOL    HW163416   2.682   3.036   4.610  0.3731  5.2585  0.5358
17399SOL    HW263417   2.537   3.017   4.536  1.6537 -0.4125 -0.6845
17400SOL     OW63418   0.928   7.446   2.488 -0.6205 -0.0388  0.1843
17400SOL    HW163419   0.883   7.535   2.492 -0.3572  0.0888  0.3317
17400SOL    HW263420   0.860   7.374   2.472 -1.0794 -0.0001  1.8287
17401SOL     OW63421   0.571   1.000   4.292  0.1338  0.3214  0.2811
17401SOL    HW163422   0.589   1.098   4.303  2.8896 -0.3343  2.0719
17401SOL    HW263423   0.607   0.950   4.371  0.1137 -2.3183 -1.3070
17402SOL     OW63424   3.832   6.598   0.079 -0.2309 -0.2390  0.1875
17402SOL    HW163425   3.744   6.594   0.031  0.5240 -0.4652 -1.2208
17402SOL    HW263426   3.823   6.558   0.170 -1.7379  0.3396  0.3076
17403SOL     OW63427   7.919   0.310   3.194 -0.1513 -0.2679  0.1710
17403SOL    HW163428   7.942   0.387   3.135  0.1108  0.5721  1.3478
17403SOL    HW263429   7.993   0.295   3.260 -0.9729 -0.3970  1.0864
17404SOL     OW63430   8.912   4.240   2.532 -0.0175  0.1908 -0.1485
17404SOL    HW163431   8.915   4.306   2.607  1.3052 -1.0511  0.9276
17404SOL    HW263432   8.942   4.285   2.448 -2.3200  1.8221 -0.1521
17405SOL     OW63433   4.917   1.884   4.849 -0.4937 -0.4577 -0.3205
17405SOL    HW163434   4.942   1.804   4.903 -0.4914 -1.2423 -1.4768
17405SOL    HW263435   4.993   1.949   4.849 -0.2902 -0.6927  0.1613
17406SOL     OW63436   3.009   0.026   0.475 -0.3465  0.3406  0.0426
17406SOL    HW163437   3.022  -0.073   0.486 -0.2660  0.0355 -2.5739
17406SOL    HW263438   3.063   0.074   0.543  0.3198 -1.3888  0.7776
17407SOL     OW63439   2.339   0.320   2.419 -0.6648 -0.0227  0.1942
17407SOL    HW163440   2.335   0.384   2.343 -2.5818  0.3892  0.6157
17407SOL    HW263441   2.397   0.357   2.491  0.9424 -0.2946 -0.9403
17408SOL     OW63442   2.633   4.132   0.326  0.4119 -0.0340  0.3890
17408SOL    HW163443   2.730   4.111   0.310  0.4102 -0.1651  0.5528
17408SOL    HW263444   2.576   4.064   0.281  0.4080 -0.4349  0.9985
17409SOL     OW63445   7.006   2.081   3.838 -0.1177  0.5720  0.3021
17409SOL    HW163446   7.071   2.126   3.777  0.3415 -0.7096 -0.1747
17409SOL    HW263447   7.043   1.992   3.867 -2.3326 -0.9448 -1.2964
17410SOL     OW63448   7.799   5.845   5.654  0.3290 -0.8153  0.2337
17410SOL    HW163449   7.826   5.750   5.669  2.4247 -0.5600 -1.7695
17410SOL    HW263450   7.846   5.904   5.720 -0.2564 -1.0573  0.8721
17411SOL     OW63451   9.070   6.851   3.247  0.0620 -0.5885  0.6230
17411SOL    HW163452   9.095   6.761   3.212 -0.1116 -0.2142 -0.4721
17411SOL    HW263453   9.152   6.905   3.263  0.1278 -0.6896  0.6197
17412SOL     OW63454   4.127   2.260   4.908  0.7346 -0.2659  0.3497
17412SOL    HW163455   4.166   2.348   4.934  0.8759 -0.2597  0.1225
17412SOL    HW263456   4.028   2.269   4.896  0.7604 -0.1210  0.2510
17413SOL     OW63457   2.966   0.201   3.362  0.3840  0.2457 -0.4794
17413SOL    HW163458   2.900   0.132   3.332 -1.5158  1.9998 -0.3911
17413SOL    HW263459   2.995   0.180   3.455  0.1432 -0.6620 -0.5961
17414SOL     OW63460   0.462   4.839   0.951  0.5568  0.0690 -0.4448
17414SOL    HW163461   0.540   4.866   0.895  0.7186  1.8818  0.6291
17414SOL    HW263462   0.464   4.740   0.965  0.3541 -0.4813 -3.8597
17415SOL     OW63463   9.904   6.251   1.239 -0.5615  0.0400 -0.1256
17415SOL    HW163464   9.908   6.158   1.276  0.5477 -0.3379 -1.1686
17415SOL    HW263465   9.811   6.268   1.205 -1.0964 -0.2434  1.1839
17416SOL     OW63466   1.787   5.940   0.195 -0.0577 -0.3616  0.2352
17416SOL    HW163467   1.846   5.875   0.148 -2.0757 -0.3902 -2.3685
17416SOL    HW263468   1.744   5.896   0.273  0.3813 -1.4543 -0.1323
17417SOL     OW63469   2.645   1.152   2.802 -0.1335  0.3337 -0.4263
17417SOL    HW163470   2.714   1.112   2.861 -2.2970 -0.8186  1.4088
17417SOL    HW263471   2.586   1.080   2.765  0.3939  1.1514 -3.0161
17418SOL     OW63472   7.221   2.497   3.701 -0.0395 -0.1411  0.1342
17418SOL    HW163473   7.202   2.528   3.794  2.1399  0.0880  0.5296
17418SOL    HW263474   7.318   2.475   3.692 -0.0706  0.5282 -2.2785
17419SOL     OW63475   9.047   4.375   3.902 -0.1830  0.2935  0.4288
17419SOL    HW163476   8.983   4.453   3.902  0.5017  0.8608  0.5689
17419SOL    HW263477   9.109   4.384   3.979 -0.4936 -0.7283  0.8008
17420SOL     OW63478   1.319   1.636   1.345  0.5856  0.2372  0.9680
17420SOL    HW163479   1.384   1.712   1.340  0.9503 -0.0776  0.9480
17420SOL    HW263480   1.327   1.579   1.263 -0.3903  0.7423  0.5061
17421SOL     OW63481   1.734   1.378   3.188 -0.3664 -0.5603 -0.4838
17421SOL    HW163482   1.728   1.295   3.132 -0.3510 -1.2584  0.5305
17421SOL    HW263483   1.824   1.382   3.232 -0.4637 -0.1479 -0.3221
17422SOL     OW63484   5.081   6.159   2.281  0.2244  0.3615  0.5453
17422SOL    HW163485   5.008   6.108   2.324 -1.2036  0.8383 -1.2590
17422SOL    HW263486   5.048   6.199   2.195  2.6222  0.4613 -0.3713
17423SOL     OW63487   3.129   3.379   4.233 -0.3662  0.6898  0.4017
17423SOL    HW163488   3.146   3.294   4.183 -1.5126 -0.3627  1.7530
17423SOL    HW263489   3.084   3.445   4.173 -2.2324 -0.7538  0.1721
17424SOL     OW63490   7.597   3.872   5.596 -0.4766 -0.0528  0.0922
17424SOL    HW163491   7.513   3.832   5.633  0.3190 -1.0067  0.8890
17424SOL    HW263492   7.647   3.918   5.669 -0.5617  0.9933 -0.4901
17425SOL     OW63493   4.453   7.599   1.834  0.4594 -0.0368  0.5572
17425SOL    HW163494   4.551   7.621   1.831  0.1415  1.3460 -0.2853
17425SOL    HW263495   4.414   7.632   1.920  0.9142 -1.4191  1.3043
17426SOL     OW63496   4.207   9.670   3.943 -0.1447  0.1844  0.4814
17426SOL    HW163497   4.235   9.585   3.900 -0.4226 -0.6433  1.9095
17426SOL    HW263498   4.234   9.747   3.885  0.3015 -0.8520 -0.7100
17427SOL     OW63499   3.332   0.960   6.225  0.3943  0.2819 -0.0635
17427SOL    HW163500   3.396   1.008   6.285 -0.7577  0.9821  0.6171
17427SOL    HW263501   3.260   1.022   6.195 -0.5656 -0.7672  0.0223
17428SOL     OW63502   2.795   8.963   3.828  0.2427 -0.2319  0.2431
17428SOL    HW163503   2.709   8.995   3.789  0.5018  0.0095 -0.1280
17428SOL    HW263504   2.872   9.007   3.781  0.5649 -0.2816  0.7145
17429SOL     OW63505   2.309   6.806   2.008  0.8445  0.0581 -0.5776
17429SOL    HW163506   2.329   6.891   1.958 -1.7843  0.6893 -0.6370
17429SOL    HW263507   2.210   6.793   2.012  1.0943 -1.1980  2.4810
17430SOL     OW63508   1.839   1.958   1.293  0.3157 -0.5423 -0.5704
17430SOL    HW163509   1.840   1.866   1.253  1.7182 -0.7645 -0.0494
17430SOL    HW263510   1.804   1.953   1.387  0.1396 -0.5084 -0.6349
17431SOL     OW63511   2.258   0.741   3.067 -0.1401  0.2273  0.0443
17431SOL    HW163512   2.319   0.701   3.137 -0.7956 -0.9715 -0.0451
17431SOL    HW263513   2.166   0.750   3.106 -0.2618  0.5423 -0.3261
17432SOL     OW63514   1.813   1.457   3.884  0.3476  0.1881  0.2907
17432SOL    HW163515   1.826   1.555   3.874  0.9479 -0.0786 -1.7979
17432SOL    HW263516   1.719   1.433   3.860  0.8995 -0.0452 -1.7211
17433SOL     OW63517   1.538   0.628   1.830  0.5752 -0.2497 -0.6945
17433SOL    HW163518   1.549   0.539   1.876 -0.0329 -0.0678 -0.1941
17433SOL    HW263519   1.450   0.630   1.783  1.3322 -0.5626 -2.1741
17434SOL     OW63520   8.607   7.883   2.270  0.0868  0.7466 -0.1733
17434SOL    HW163521   8.544   7.855   2.342  0.2682 -0.4916 -0.4733
17434SOL    HW263522   8.688   7.824   2.272  1.1952  2.2688  0.1480
17435SOL     OW63523   2.117   5.248   0.515 -0.1537  0.1540  0.6118
17435SOL    HW163524   2.170   5.296   0.585 -0.2813 -1.0821  1.5663
17435SOL    HW263525   2.100   5.154   0.544  0.0778 -0.4751 -1.2411
17436SOL     OW63526   0.573   6.962   5.883  0.0319  0.0570 -0.2156
17436SOL    HW163527   0.624   6.880   5.856  0.5533  0.3122 -0.0315
17436SOL    HW263528   0.592   7.035   5.818 -0.7568 -0.0913 -0.6077
17437SOL     OW63529   8.595   7.743   6.419 -0.4435  0.6147  0.6834
17437SOL    HW163530   8.549   7.691   6.491  2.5427 -1.0647  1.4779
17437SOL    HW263531   8.578   7.699   6.331 -3.1344  2.0008  0.4650
17438SOL     OW63532   5.121   0.161   4.170 -0.0218  0.0190  0.2372
17438SOL    HW163533   5.156   0.209   4.251  1.7915 -1.2882  0.2761
17438SOL    HW263534   5.123   0.223   4.092 -1.4308  1.1828  1.1028
17439SOL     OW63535   0.886   9.092   1.358  0.3782  0.1310  0.2972
17439SOL    HW163536   0.890   9.191   1.342 -0.2389  0.0429 -0.4541
17439SOL    HW263537   0.824   9.072   1.433 -0.7059  0.2231 -0.5585
17440SOL     OW63538   1.720   6.842   6.649 -0.3528  0.2197 -0.0673
17440SOL    HW163539   1.664   6.925   6.657 -0.2814  0.1709  1.0028
17440SOL    HW263540   1.731   6.800   6.739  0.7201 -0.2260 -0.3970
17441SOL     OW63541   3.327   6.818   0.421 -0.2672  0.1624  0.1749
17441SOL    HW163542   3.247   6.777   0.377 -0.6763  2.0965 -0.9524
17441SOL    HW263543   3.302   6.906   0.461  0.8125 -0.1977  1.6841
17442SOL     OW63544   6.280   1.404   3.478 -0.3475  0.2624  0.3245
17442SOL    HW163545   6.277   1.422   3.577  0.6936  0.3219  0.3494
17442SOL    HW263546   6.346   1.332   3.459 -1.0254 -0.2098 -0.2720
17443SOL     OW63547   5.308   0.218   4.973 -0.4541  0.3386 -0.2614
17443SOL    HW163548   5.399   0.180   4.991 -0.6166 -0.3221 -0.8529
17443SOL    HW263549   5.238   0.151   4.997 -0.7221 -0.0266 -1.9968
17444SOL     OW63550   1.310   1.292   1.522  0.1832  0.1859 -0.5334
17444SOL    HW163551   1.407   1.266   1.523  1.6156  4.9135 -1.0115
17444SOL    HW263552   1.271   1.271   1.432  0.6642 -1.9795 -0.2548
17445SOL     OW63553   7.140   1.084   5.181 -0.5867 -0.1292  0.2903
17445SOL    HW163554   7.077   1.065   5.106  0.6938  1.7899 -1.3509
17445SOL    HW263555   7.117   1.172   5.223  0.8086  0.4888 -0.1883
17446SOL     OW63556   2.004   4.790   4.623  0.2571 -0.4839 -0.3752
17446SOL    HW163557   1.906   4.779   4.640  0.0253  1.6015 -0.1936
17446SOL    HW263558   2.019   4.807   4.525  0.2832  0.4928 -0.2132
17447SOL     OW63559   2.602   4.921   4.948 -0.3950  0.2310  0.3514
17447SOL    HW163560   2.691   4.877   4.939 -0.2070  0.4342  1.2336
17447SOL    HW263561   2.534   4.868   4.896  0.1464 -0.1634  0.0346
17448SOL     OW63562   3.161   9.967   2.498 -0.7884 -0.5299  0.0400
17448SOL    HW163563   3.162   9.971   2.398  0.5383 -1.9434 -0.0107
17448SOL    HW263564   3.108  10.044   2.534  1.1389  1.6411 -1.6659
17449SOL     OW63565   2.308   3.028   1.450  0.7652  0.5250 -0.3971
17449SOL    HW163566   2.319   3.114   1.501 -1.9492  0.6545  0.0476
17449SOL    HW263567   2.325   2.951   1.511  0.1987  0.7120  0.0012
17450SOL     OW63568   1.162   7.963   1.396  0.1560 -0.7232 -0.8598
17450SOL    HW163569   1.062   7.974   1.391  0.2478  1.0620  0.6902
17450SOL    HW263570   1.202   7.990   1.309 -0.3069  4.2819  0.3061
17451SOL     OW63571   1.416   5.449   2.843  0.3845 -0.7815 -0.1104
17451SOL    HW163572   1.354   5.382   2.885  1.7805 -1.1999  1.3142
17451SOL    HW263573   1.502   5.451   2.892  0.6347  1.5828 -0.5551
17452SOL     OW63574   1.688   1.265   1.480  0.0752  0.7276 -0.1415
17452SOL    HW163575   1.739   1.192   1.436  0.8848  0.7022  0.8203
17452SOL    HW263576   1.673   1.340   1.416  0.8228  0.4885 -0.5869
17453SOL     OW63577   5.321   0.631   3.808  0.0470 -0.2140 -0.1939
17453SOL    HW163578   5.410   0.654   3.768  0.3231  1.1715  1.1528
17453SOL    HW263579   5.330   0.548   3.864  1.0202  1.0558  1.6080
17454SOL     OW63580   1.109   3.774   1.063 -0.2814  0.3963 -0.5208
17454SOL    HW163581   1.034   3.708   1.067 -0.8726  1.0466 -0.7590
17454SOL    HW263582   1.087   3.845   0.996  0.3326  0.8526 -0.2419
17455SOL     OW63583   2.547   6.661   0.697  0.0272  0.6039 -0.4998
17455SOL    HW163584   2.502   6.590   0.641 -0.8305  0.2729  0.5892
17455SOL    HW263585   2.527   6.645   0.793  0.0410  2.1844 -0.2154
17456SOL     OW63586   8.212   2.800   5.161  0.0227 -0.8952  0.0820
17456SOL    HW163587   8.198   2.830   5.256  0.2642 -1.3371  0.2617
17456SOL    HW263588   8.286   2.853   5.121 -0.2373 -0.5453  0.0650
17457SOL     OW63589   6.563   1.504   1.278 -0.1060  0.0323 -0.1391
17457SOL    HW163590   6.607   1.422   1.315 -1.2222 -0.6313 -0.2465
17457SOL    HW263591   6.466   1.484   1.261 -0.0419  0.9191 -1.5851
17458SOL     OW63592   2.427   8.653   3.495  0.3850  0.4595 -0.3531
17458SOL    HW163593   2.358   8.588   3.466  0.5770 -0.5685  1.3933
17458SOL    HW263594   2.396   8.746   3.476 -1.3154 -0.0039  0.1073
17459SOL     OW63595   1.141   1.994   3.201  0.1243  0.4271  0.1832
17459SOL    HW163596   1.205   2.069   3.222  0.7832  0.9218 -3.2997
17459SOL    HW263597   1.157   1.963   3.107 -2.0378 -2.2279  0.6628
17460SOL     OW63598   8.360   2.313   3.639 -0.0349 -0.5275  0.4742
17460SOL    HW163599   8.354   2.340   3.543 -1.3634  0.4690  0.8225
17460SOL    HW263600   8.269   2.311   3.679  0.5355 -0.6364  1.7959
17461SOL     OW63601   1.248   1.738   5.370  0.6307  0.0968  0.1261
17461SOL    HW163602   1.292   1.718   5.282  0.9690  0.1298  0.2856
17461SOL    HW263603   1.241   1.655   5.424  1.4763  0.2872  0.5378
17462SOL     OW63604   2.377   0.304   5.637 -0.2417  0.4495 -0.8180
17462SOL    HW163605   2.302   0.262   5.586 -0.3941  0.5031 -0.6406
17462SOL    HW263606   2.461   0.297   5.584 -0.1752 -0.4722 -0.6095
17463SOL     OW63607   6.091   8.282   4.137  0.7147 -0.1691 -0.2055
17463SOL    HW163608   6.077   8.282   4.236  0.3390 -0.1382 -0.2566
17463SOL    HW263609   6.084   8.375   4.102  1.6584 -0.0735 -0.1526
17464SOL     OW63610   4.042   5.957   2.830  0.3364 -0.1665 -0.1401
17464SOL    HW163611   4.094   5.880   2.868  0.0662 -0.3463 -0.1327
17464SOL    HW263612   4.104   6.018   2.782  0.5194 -0.5192 -0.3551
17465SOL     OW63613   6.118   3.017   5.830 -0.2567 -0.1358 -0.3600
17465SOL    HW163614   6.180   3.073   5.775 -0.1931 -1.5671 -1.7733
17465SOL    HW263615   6.036   3.070   5.852  0.3571  0.9282 -0.6200
17466SOL     OW63616   3.605   0.900   3.140  0.3555 -0.2663 -0.1313
17466SOL    HW163617   3.623   0.943   3.051 -0.7634  0.2879 -0.0940
17466SOL    HW263618   3.667   0.938   3.208 -0.8800  1.5944 -0.0179
17467SOL     OW63619   8.604   4.534   1.649  0.4647  0.4404  0.0653
17467SOL    HW163620   8.515   4.559   1.686  0.4096 -0.5048  0.5851
17467SOL    HW263621   8.666   4.613   1.656 -0.3222  1.1069 -0.3258
17468SOL     OW63622   1.112   3.296   5.492  0.3063  0.6706  0.0876
17468SOL    HW163623   1.066   3.229   5.433  2.1464 -2.1138  1.6711
17468SOL    HW263624   1.201   3.319   5.453  2.7783 -3.3274  2.9404
17469SOL     OW63625   8.390   4.235   5.004  0.1740 -0.4599 -0.1315
17469SOL    HW163626   8.410   4.157   5.063  0.5355 -0.1057  0.2089
17469SOL    HW263627   8.408   4.210   4.909 -0.2310 -0.9697 -0.0768
17470SOL     OW63628   2.814   3.479   1.339 -0.0151 -0.0943 -0.3679
17470SOL    HW163629   2.732   3.465   1.394  0.5369  1.5916  0.9404
17470SOL    HW263630   2.890   3.426   1.378 -0.3172 -1.2122 -1.2533
17471SOL     OW63631   9.316   9.468   3.370  0.2732  0.1365  0.1280
17471SOL    HW163632   9.284   9.488   3.463 -1.3495 -2.9287  0.2955
17471SOL    HW263633   9.370   9.384   3.371 -2.2635 -1.6186 -2.1030
17472SOL     OW63634   1.276   6.774   5.508  0.1967 -0.2876  0.1781
17472SOL    HW163635   1.227   6.700   5.463 -0.7404 -0.1181  0.9177
17472SOL    HW263636   1.270   6.763   5.607 -0.4996  1.1194  0.3035
17473SOL     OW63637   9.453   6.708   2.464 -0.0940  0.6359 -0.4180
17473SOL    HW163638   9.365   6.683   2.505 -0.1468 -0.4919 -1.1878
17473SOL    HW263639   9.448   6.694   2.365  1.7759 -1.9835 -0.1883
17474SOL     OW63640   2.570   5.117   0.811 -0.4547 -0.6836 -0.1325
17474SOL    HW163641   2.623   5.144   0.731  2.4813 -1.5824  1.4340
17474SOL    HW263642   2.521   5.196   0.847  0.5034  0.3679 -1.1012
17475SOL     OW63643   3.198   2.263   1.791  0.6438  0.3402 -0.2556
17475SOL    HW163644   3.270   2.199   1.819 -2.1904 -2.9520 -0.1620
17475SOL    HW263645   3.166   2.239   1.700 -2.7614 -0.4916  1.1158
17476SOL     OW63646   5.127   2.406   3.385 -0.5508  0.1842 -0.1250
17476SOL    HW163647   5.175   2.330   3.429  2.5754  2.6032  0.8298
17476SOL    HW263648   5.128   2.393   3.286  0.0319 -1.0057  0.0290
17477SOL     OW63649   3.743   7.561   5.898  0.0783 -0.3813 -0.4014
17477SOL    HW163650   3.683   7.613   5.959  0.5893 -0.0953 -0.1454
17477SOL    HW263651   3.702   7.472   5.879 -1.5208  0.6438 -1.9760
17478SOL     OW63652   6.699   9.248   6.848 -0.5395  0.1657  0.1984
17478SOL    HW163653   6.719   9.317   6.779 -1.4809  0.7499  0.4934
17478SOL    HW263654   6.782   9.228   6.900  0.2596 -0.5820 -1.3632
17479SOL     OW63655   9.070   7.321   3.595 -0.2386  0.4525 -0.1636
17479SOL    HW163656   8.984   7.312   3.645  0.3301 -0.7118  0.6037
17479SOL    HW263657   9.133   7.249   3.623  1.3851  1.9382  0.0589
17480SOL     OW63658   8.378   2.135   3.240  0.6863 -0.5585  0.3917
17480SOL    HW163659   8.298   2.120   3.298  1.1187 -1.6488  0.7338
17480SOL    HW263660   8.349   2.164   3.149 -0.0487  0.0091  0.8000
17481SOL     OW63661   2.080   8.332   3.049 -0.1047 -0.5593  0.4006
17481SOL    HW163662   2.084   8.429   3.073 -0.3427 -0.7989  1.4274
17481SOL    HW263663   1.984   8.302   3.051 -0.0732 -0.7064 -0.3503
17482SOL     OW63664   1.684   6.683   6.009 -0.5808  0.2989  0.4873
17482SOL    HW163665   1.753   6.611   6.000  0.8781  1.7376  0.0422
17482SOL    HW263666   1.722   6.761   6.058 -2.2593  0.6594  1.2700
17483SOL     OW63667   9.627   5.230   5.885  0.2351 -0.5368  0.3298
17483SOL    HW163668   9.594   5.303   5.945  1.1704  0.2533 -0.0964
17483SOL    HW263669   9.688   5.269   5.816  1.4717 -1.8595  0.6611
17484SOL     OW63670   4.662   6.463   0.560 -0.3598 -0.2970  0.0059
17484SOL    HW163671   4.726   6.461   0.482 -1.6554 -1.1839 -1.0510
17484SOL    HW263672   4.701   6.520   0.633  1.0652  0.2108 -1.1166
17485SOL     OW63673   7.876   0.339   1.051  0.1800  0.7073 -0.2759
17485SOL    HW163674   7.874   0.253   1.101 -1.0830  1.2292  0.6059
17485SOL    HW263675   7.963   0.385   1.068  2.1084 -1.7265 -3.1227
17486SOL     OW63676   8.539   3.542   1.864  0.1558  0.0429 -0.3346
17486SOL    HW163677   8.447   3.554   1.826 -0.8205  1.9540  2.5287
17486SOL    HW263678   8.553   3.445   1.888 -1.3609 -0.1367 -0.1344
17487SOL     OW63679   2.669   3.149   1.039  0.1110  0.2378 -0.1895
17487SOL    HW163680   2.610   3.070   1.023 -0.3660  0.8634 -1.5646
17487SOL    HW263681   2.758   3.117   1.072 -0.7262 -0.7481  1.1744
17488SOL     OW63682   7.861   9.434   6.623  0.0497 -0.3482 -0.1434
17488SOL    HW163683   7.791   9.449   6.693  1.2172  0.6279  0.8470
17488SOL    HW263684   7.907   9.346   6.640  0.9035  0.2715  0.8516
17489SOL     OW63685   6.280   9.008   3.209 -0.7611  0.4134  0.2623
17489SOL    HW163686   6.334   9.081   3.166  0.8052 -0.5234  0.6029
17489SOL    HW263687   6.242   8.949   3.137 -0.0565  0.1850  0.0736
17490SOL     OW63688   2.730   2.025   2.423 -0.2348  0.5622  0.5854
17490SOL    HW163689   2.647   2.072   2.393 -1.0457  0.6336  2.8435
17490SOL    HW263690   2.771   1.977   2.346 -1.9038  1.2401 -0.7449
17491SOL     OW63691   5.835   0.836   5.883  0.0046  0.5045 -0.5518
17491SOL    HW163692   5.914   0.812   5.939 -1.2400  0.3469  1.1954
17491SOL    HW263693   5.811   0.932   5.899 -1.8694 -0.2091  1.1314
17492SOL     OW63694   1.887   2.454   5.045 -0.0955  0.0556  0.0497
17492SOL    HW163695   1.804   2.398   5.047 -0.6206  0.8110 -0.3997
17492SOL    HW263696   1.880   2.521   4.971  1.2912 -0.4478 -0.5522
17493SOL     OW63697   9.064   1.210   1.113 -0.2036 -0.3938 -0.0644
17493SOL    HW163698   9.058   1.307   1.133  0.9585 -0.0847 -1.1129
17493SOL    HW263699   9.005   1.188   1.035 -1.0095 -0.6693  0.6191
17494SOL     OW63700   0.840   3.052   3.331  0.1965 -0.3664  0.9454
17494SOL    HW163701   0.795   2.975   3.377  1.1313 -1.8976 -0.6364
17494SOL    HW263702   0.937   3.032   3.321  0.2795  0.6283 -0.2830
17495SOL     OW63703   8.778   4.618   3.469  0.0979 -0.2545 -0.0630
17495SOL    HW163704   8.754   4.696   3.411  1.4257 -0.4044 -0.8251
17495SOL    HW263705   8.825   4.549   3.414  1.1236 -0.5193  1.1279
17496SOL     OW63706   7.926   7.502   4.902 -0.1397  0.3735  0.4411
17496SOL    HW163707   7.959   7.593   4.927  0.6649 -0.0625  0.9910
17496SOL    HW263708   7.846   7.479   4.958  1.6518 -0.5948  2.6688
17497SOL     OW63709   8.708   1.668   1.917  0.9255 -0.2631  0.4095
17497SOL    HW163710   8.719   1.703   1.824 -0.2858  0.7133  0.6179
17497SOL    HW263711   8.641   1.595   1.918 -1.0729  1.5367  0.9138
17498SOL     OW63712   8.133   2.438   4.587  0.1436 -1.0029 -0.1541
17498SOL    HW163713   8.175   2.437   4.677  1.8002  2.7618 -0.8099
17498SOL    HW263714   8.035   2.459   4.596  0.1740 -1.2588  0.7996
17499SOL     OW63715   6.168   1.273   1.536  0.4960  0.3384 -0.1238
17499SOL    HW163716   6.078   1.314   1.552  0.4996  0.8982 -1.4582
17499SOL    HW263717   6.208   1.245   1.623 -0.9629  0.0944  0.4868
17500SOL     OW63718   6.416   3.393   1.123 -0.4319  0.5847  0.3115
17500SOL    HW163719   6.455   3.361   1.209 -1.0014  0.9362  0.7012
17500SOL    HW263720   6.392   3.490   1.131 -2.1296  0.1746  0.3454
17501SOL     OW63721   7.916   4.334   0.830 -0.1258 -0.6261  0.0029
17501SOL    HW163722   7.913   4.302   0.735 -0.7038 -0.1088 -0.1535
17501SOL    HW263723   8.009   4.364   0.852 -0.3377  0.7004 -0.8763
17502SOL     OW63724   6.910   9.837   5.237  0.2738  0.6561  0.1594
17502SOL    HW163725   6.828   9.851   5.182 -1.5266 -0.9164  2.3811
17502SOL    HW263726   6.978   9.906   5.213 -1.7664  2.1137 -1.5777
17503SOL     OW63727   8.237   0.186   5.922 -0.0226  0.4221 -0.3492
17503SOL    HW163728   8.333   0.175   5.948 -1.0653 -1.1060  3.1251
17503SOL    HW263729   8.200   0.268   5.966 -0.6180  0.3661 -0.7417
17504SOL     OW63730   4.395   3.512   3.126  0.4957  0.2933  0.2483
17504SOL    HW163731   4.348   3.599   3.113  0.5131  0.2638 -0.0170
17504SOL    HW263732   4.424   3.476   3.037 -0.3782 -0.4687  0.2691
17505SOL     OW63733   7.300   1.885   3.431  0.2516 -0.1361  0.6325
17505SOL    HW163734   7.216   1.939   3.441  0.8026  0.4302  2.4182
17505SOL    HW263735   7.344   1.908   3.344 -0.5922  0.7834  0.4379
17506SOL     OW63736   2.802   8.750   4.104  0.0412  0.4768  0.2252
17506SOL    HW163737   2.726   8.749   4.039  0.8264  2.8545 -0.7873
17506SOL    HW263738   2.792   8.828   4.165  1.4837  0.6232  0.2824
17507SOL     OW63739   0.418   0.387   2.979 -0.1814 -0.1924 -0.1983
17507SOL    HW163740   0.467   0.317   3.032 -0.6064 -0.8533 -0.6624
17507SOL    HW263741   0.321   0.383   3.001  0.1408  2.0396  1.7459
17508SOL     OW63742   8.103   5.088   5.731  0.5001  0.1532  0.7041
17508SOL    HW163743   8.183   5.113   5.786  2.1615  2.6305 -2.6625
17508SOL    HW263744   8.126   5.010   5.672 -0.2695 -0.4832  1.2331
17509SOL     OW63745   4.654   4.848   7.655  0.1102 -0.2453 -0.1256
17509SOL    HW163746   4.699   4.936   7.664 -1.2168  0.4177  0.1170
17509SOL    HW263747   4.704   4.779   7.708 -0.4072  0.9466  1.9632
17510SOL     OW63748   5.827   5.641   1.862 -0.4644  0.3761 -0.2127
17510SOL    HW163749   5.728   5.630   1.867 -0.2790 -0.8899  1.3429
17510SOL    HW263750   5.849   5.730   1.822 -2.2537  1.7898  1.8288
17511SOL     OW63751   4.542   7.323   3.737 -0.2829  0.1559 -0.0177
17511SOL    HW163752   4.508   7.358   3.825 -1.7245  0.0761 -0.5340
17511SOL    HW263753   4.465   7.290   3.682  0.8579 -2.0106 -0.3537
17512SOL     OW63754   2.125   5.608   4.753 -0.1625 -0.6442  0.2281
17512SOL    HW163755   2.088   5.518   4.778  0.2230 -0.7655  0.3728
17512SOL    HW263756   2.107   5.626   4.656 -0.2400 -0.8805  0.1989
17513SOL     OW63757   2.900   4.701   4.062 -0.6696 -0.4216 -0.0464
17513SOL    HW163758   2.934   4.661   3.977 -0.3874  0.4324 -0.3409
17513SOL    HW263759   2.801   4.695   4.064 -0.8117  1.2150 -1.2883
17514SOL     OW63760   7.735   4.892   0.409 -0.7042 -0.0649  0.1002
17514SOL    HW163761   7.756   4.978   0.456 -1.5820  0.7748 -1.0248
17514SOL    HW263762   7.657   4.849   0.455  0.3381 -0.7589  1.2580
17515SOL     OW63763   0.779   1.243   5.261  0.0300  0.2139  0.1179
17515SOL    HW163764   0.749   1.270   5.353  2.3980  3.4008  0.0413
17515SOL    HW263765   0.724   1.292   5.193  0.7663  0.7785 -0.0831
17516SOL     OW63766   1.173   2.882   6.008 -0.7865  0.3571 -0.0312
17516SOL    HW163767   1.235   2.805   6.024 -2.0358 -0.6840 -0.1453
17516SOL    HW263768   1.078   2.851   6.016 -1.3523  1.3456 -2.3992
17517SOL     OW63769   8.998   2.210   4.482  0.6543 -0.2827 -0.1308
17517SOL    HW163770   8.926   2.277   4.500  0.1893 -0.8444  0.1286
17517SOL    HW263771   8.984   2.171   4.391  1.1815  0.2890 -0.4596
17518SOL     OW63772   6.207   9.981   3.815 -0.1761 -0.3872  0.0695
17518SOL    HW163773   6.115   9.945   3.830 -0.4708 -0.1662 -1.1255
17518SOL    HW263774   6.202  10.060   3.754  0.5906  0.9207  1.6615
17519SOL     OW63775   8.437   0.057   2.083  0.6904  0.2913 -0.0597
17519SOL    HW163776   8.459   0.031   1.989 -0.9639 -2.7157  0.2986
17519SOL    HW263777   8.509   0.024   2.144  0.9083  0.6961 -0.0992
17520SOL     OW63778   8.821   9.653   6.811 -0.5349  0.2361 -0.1400
17520SOL    HW163779   8.886   9.577   6.810 -0.2180  0.5068 -0.3072
17520SOL    HW263780   8.731   9.620   6.781 -0.1537  0.1437 -1.2009
17521SOL     OW63781   7.999   2.578   2.465 -0.2952 -0.2875 -0.1079
17521SOL    HW163782   7.970   2.505   2.402 -1.6504 -0.0656  0.2400
17521SOL    HW263783   8.099   2.583   2.466 -0.2382 -0.8231 -1.6365
17522SOL     OW63784   1.219   1.233   1.861 -0.4345 -0.3899 -0.2235
17522SOL    HW163785   1.133   1.249   1.813 -0.2142  0.1049 -0.4569
17522SOL    HW263786   1.205   1.164   1.932 -1.0711 -0.1523 -0.1148
17523SOL     OW63787   6.520   8.481   6.738 -0.2146 -0.0989 -0.0070
17523SOL    HW163788   6.602   8.514   6.691 -1.0520  1.3547 -0.4725
17523SOL    HW263789   6.515   8.381   6.730  1.4809 -0.1982 -0.0045
17524SOL     OW63790   1.902   3.090   2.257 -0.3973  0.5584 -0.0807
17524SOL    HW163791   1.986   3.129   2.221  0.0508  0.9439  1.3707
17524SOL    HW263792   1.833   3.162   2.267  0.0615  0.7900  1.5156
17525SOL     OW63793   1.525   5.028   4.486  0.2869 -0.3854  0.1556
17525SOL    HW163794   1.538   5.128   4.486 -0.2962 -0.3071  0.0697
17525SOL    HW263795   1.432   5.007   4.457  0.3393 -0.9489  0.3897
17526SOL     OW63796   2.145   5.689   5.296  0.2378  0.1467 -0.1347
17526SOL    HW163797   2.057   5.645   5.281  0.5530 -0.2800 -0.7533
17526SOL    HW263798   2.197   5.691   5.211  1.2689 -0.5785  0.4612
17527SOL     OW63799   4.597   4.836   1.348  0.0576  0.0393  0.4433
17527SOL    HW163800   4.553   4.796   1.428  1.7501 -0.3346  1.2006
17527SOL    HW263801   4.693   4.854   1.368  0.6700 -0.6899 -1.7197
17528SOL     OW63802   3.167   6.291   3.730  0.3595 -0.8112 -0.4197
17528SOL    HW163803   3.180   6.274   3.828 -0.8685 -0.5281 -0.1942
17528SOL    HW263804   3.145   6.204   3.685  1.3953 -1.0213 -0.5333
17529SOL     OW63805   3.148   0.462   3.298 -0.0636 -0.6118  0.7504
17529SOL    HW163806   3.133   0.521   3.376  1.3568 -0.7965  1.1850
17529SOL    HW263807   3.076   0.393   3.293 -2.5651  2.0035 -0.6149
17530SOL     OW63808   1.409   8.142   0.962 -0.0029 -0.4307  0.2171
17530SOL    HW163809   1.476   8.068   0.964  0.0944 -0.3162  1.2293
17530SOL    HW263810   1.412   8.187   0.872 -0.4754 -2.0182 -0.6190
17531SOL     OW63811   7.818   5.561   0.098 -0.1042 -0.4217 -0.0938
17531SOL    HW163812   7.786   5.627   0.030  0.2556 -0.6608 -0.5003
17531SOL    HW263813   7.918   5.559   0.098 -0.0906  0.1699  1.0229
17532SOL     OW63814   3.152   3.203   4.928  0.1912  0.1153 -0.6919
17532SOL    HW163815   3.160   3.269   4.853 -0.2631 -1.4640 -2.1788
17532SOL    HW263816   3.213   3.229   5.002  0.3633  1.9380 -1.4536
17533SOL     OW63817   4.716   3.837   2.800  0.2739 -0.4470  0.2010
17533SOL    HW163818   4.664   3.908   2.848  0.3374  0.7462 -1.4560
17533SOL    HW263819   4.813   3.850   2.818  0.2859 -0.0909 -0.0950
17534SOL     OW63820   2.375   6.733   7.942  0.1816  0.0176  0.3968
17534SOL    HW163821   2.365   6.825   7.980 -0.2169  0.7085 -1.3378
17534SOL    HW263822   2.322   6.726   7.857  1.4985 -1.3132 -0.3378
17535SOL     OW63823   1.171   3.436   0.413 -0.2262  0.4622 -0.2892
17535SOL    HW163824   1.072   3.450   0.418 -0.6198 -2.3913  0.5451
17535SOL    HW263825   1.217   3.523   0.432 -2.5471  2.2045 -2.2824
17536SOL     OW63826   8.742   0.559   1.554 -0.9007  0.3865  0.5752
17536SOL    HW163827   8.719   0.467   1.586  1.9825 -0.5098  0.1964
17536SOL    HW263828   8.723   0.565   1.456  0.8753 -0.5201  0.1524
17537SOL     OW63829   1.313   8.163   4.302  0.4068 -0.5872 -0.0114
17537SOL    HW163830   1.341   8.146   4.207 -0.1585 -2.1995  0.0973
17537SOL    HW263831   1.218   8.136   4.314  0.4299 -0.2360  0.9766
17538SOL     OW63832   5.189   0.696   4.439 -0.4873 -0.4929  0.2583
17538SOL    HW163833   5.283   0.664   4.447 -0.6542 -0.6889  1.5555
17538SOL    HW263834   5.126   0.619   4.447 -0.8013 -0.1891  0.7407
17539SOL     OW63835   1.540   8.852   1.163 -0.2123  0.1564 -0.0217
17539SOL    HW163836   1.443   8.827   1.167 -0.1938  0.0523 -0.2109
17539SOL    HW263837   1.554   8.919   1.090 -0.3538  1.1387  0.8421
17540SOL     OW63838   4.753   0.720   3.935  0.1605 -0.1412  0.3177
17540SOL    HW163839   4.797   0.798   3.979 -0.7121  0.5460 -0.0064
17540SOL    HW263840   4.659   0.713   3.966 -0.2468 -0.0934 -0.8733
17541SOL     OW63841   7.679   0.163   3.100  0.0695 -0.2035  0.0163
17541SOL    HW163842   7.694   0.067   3.122 -0.6921 -0.8273 -2.0383
17541SOL    HW263843   7.757   0.217   3.131  0.6609 -1.5257  0.8766
17542SOL     OW63844   4.807   6.475   0.323  0.5249  0.5253  0.0938
17542SOL    HW163845   4.886   6.414   0.330 -0.9458 -1.2191  2.0194
17542SOL    HW263846   4.746   6.441   0.252 -0.6511 -0.7254  1.6624
17543SOL     OW63847   8.704   6.869   5.548 -0.1408  0.3115 -0.5575
17543SOL    HW163848   8.692   6.840   5.453  0.8378 -1.5538 -0.1527
17543SOL    HW263849   8.766   6.947   5.551 -0.4979  0.6382 -1.4832
17544SOL     OW63850   7.491   3.066   3.133 -0.5149  0.1847 -0.4107
17544SOL    HW163851   7.480   2.970   3.108  2.0474  0.0151 -0.9527
17544SOL    HW263852   7.550   3.112   3.067  0.4646  1.4960  1.3215
17545SOL     OW63853   1.525   4.429   3.189  0.2366 -0.2146 -0.2486
17545SOL    HW163854   1.447   4.368   3.204  0.3748 -0.7284 -1.6315
17545SOL    HW263855   1.492   4.520   3.163  0.0683 -0.0311  0.5845
17546SOL     OW63856   2.802   0.635   3.625  0.0836  0.6751  0.6991
17546SOL    HW163857   2.861   0.576   3.570 -0.4383 -0.5572  1.4440
17546SOL    HW263858   2.838   0.641   3.718 -1.2627 -0.5545  1.3170
17547SOL     OW63859   7.197   0.847   2.987  0.2537  0.3749  0.2547
17547SOL    HW163860   7.288   0.888   3.003 -0.9344  2.6240  1.5793
17547SOL    HW263861   7.143   0.909   2.930 -0.9980 -0.1867  0.8317
17548SOL     OW63862   9.126   8.073   3.212 -0.3369 -0.1118  0.7081
17548SOL    HW163863   9.165   8.164   3.231  0.4408 -0.4542  0.7715
17548SOL    HW263864   9.027   8.076   3.225 -0.4038  0.9114  0.0559
17549SOL     OW63865   0.167   7.140   5.726  0.6132  0.6476  0.0961
17549SOL    HW163866   0.199   7.047   5.743  0.6473  0.5903 -0.2970
17549SOL    HW263867   0.241   7.205   5.742  0.6767  0.5833  0.0603
17550SOL     OW63868   9.277   0.515   6.176  0.3903 -0.3604  0.0910
17550SOL    HW163869   9.289   0.417   6.189  1.0041 -0.1065  1.5213
17550SOL    HW263870   9.364   0.556   6.148  0.1364 -0.2236 -0.5011
17551SOL     OW63871   9.170   1.721   3.524  0.2562  0.0864 -0.2124
17551SOL    HW163872   9.092   1.667   3.555  0.9066 -0.3360  0.7471
17551SOL    HW263873   9.197   1.785   3.596  1.4959 -0.5702 -0.0768
17552SOL     OW63874   3.407   8.344   3.902  0.1800  0.2820 -0.1898
17552SOL    HW163875   3.467   8.278   3.857 -1.4208 -0.7923 -0.7470
17552SOL    HW263876   3.312   8.319   3.889 -0.3810  0.8494  2.4482
17553SOL     OW63877   9.787   0.547   0.745  0.3170  0.0316 -0.1199
17553SOL    HW163878   9.705   0.491   0.741 -0.3839  1.1132 -1.8107
17553SOL    HW263879   9.822   0.550   0.838 -1.9366  0.0676  0.7480
17554SOL     OW63880   0.091   7.522   6.259  0.4637 -0.0743 -0.1834
17554SOL    HW163881   0.084   7.562   6.167 -0.4918 -0.9521 -0.4960
17554SOL    HW263882   0.104   7.595   6.326 -0.0381  0.6718 -0.8905
17555SOL     OW63883   8.398   0.365   4.811 -0.2090 -0.3147  0.1141
17555SOL    HW163884   8.406   0.446   4.752  0.4260 -0.3537  0.1442
17555SOL    HW263885   8.339   0.387   4.889 -1.0992 -0.2801 -0.5602
17556SOL     OW63886   0.201   2.391   3.785  0.0932 -0.0563 -0.1992
17556SOL    HW163887   0.166   2.297   3.781 -0.7827  0.2140  0.9485
17556SOL    HW263888   0.291   2.391   3.828 -0.5730 -0.1921  1.2012
17557SOL     OW63889   3.359   8.523   4.587  0.0882  0.2847  0.2383
17557SOL    HW163890   3.280   8.561   4.540 -1.2733  0.1351  2.3281
17557SOL    HW263891   3.328   8.465   4.663  2.1845 -1.2860 -0.0568
17558SOL     OW63892   6.427   1.757   5.284  0.2979 -0.0299 -0.2240
17558SOL    HW163893   6.482   1.738   5.365  0.3562 -0.0959 -0.2793
17558SOL    HW263894   6.458   1.698   5.209  1.4512  1.3192 -0.8229
17559SOL     OW63895   4.238   2.924   4.508  0.1264  0.1238  0.6020
17559SOL    HW163896   4.229   2.893   4.602  1.2688  0.1262  0.7276
17559SOL    HW263897   4.313   2.875   4.464 -1.3488 -0.9403 -0.7668
17560SOL     OW63898   1.930   0.115   4.249 -0.3082 -0.5777  0.1140
17560SOL    HW163899   1.967   0.022   4.253 -0.0795 -0.5102 -0.3976
17560SOL    HW263900   1.997   0.176   4.205 -0.0203  0.0453  1.3889
17561SOL     OW63901   8.668   9.088   0.153 -0.6136  0.5840 -0.1873
17561SOL    HW163902   8.643   9.180   0.124 -0.1224  0.4341 -1.1071
17561SOL    HW263903   8.767   9.076   0.142 -0.4680  0.4043  1.2321
17562SOL     OW63904   1.656   9.282   3.826 -0.0300  0.5424 -0.0242
17562SOL    HW163905   1.725   9.308   3.758 -0.3412  0.2621 -0.4465
17562SOL    HW263906   1.604   9.363   3.853 -0.5561  0.4763 -0.8448
17563SOL     OW63907   4.598   1.252   3.432  0.2448 -0.6499  0.1419
17563SOL    HW163908   4.535   1.310   3.483 -1.8308 -2.0898 -0.7453
17563SOL    HW263909   4.666   1.309   3.385  0.9513  0.7999  2.8251
17564SOL     OW63910   4.658   9.222   2.762  0.2285 -0.1134 -0.5961
17564SOL    HW163911   4.674   9.221   2.663  3.3362  0.2182 -0.1650
17564SOL    HW263912   4.723   9.161   2.807 -0.9114  0.0130  1.2842
17565SOL     OW63913   8.300   7.705   2.667  0.1794 -0.1182 -0.3730
17565SOL    HW163914   8.239   7.772   2.709 -1.8211 -2.3058  0.3244
17565SOL    HW263915   8.347   7.654   2.739  2.6955  1.3868 -0.9072
17566SOL     OW63916   3.066   4.560   5.426  0.4259  0.6173  0.6728
17566SOL    HW163917   3.078   4.514   5.338 -0.5963  1.5304  0.0469
17566SOL    HW263918   2.977   4.537   5.464  0.5928  0.7607  1.1614
17567SOL     OW63919   1.249   9.781   2.316  0.3903 -0.1513  0.7706
17567SOL    HW163920   1.151   9.764   2.317  0.8878 -3.3722  1.0152
17567SOL    HW263921   1.276   9.818   2.227 -0.9719  0.3121  0.5416
17568SOL     OW63922   0.215   9.703   3.564 -0.3980 -0.0818  0.0965
17568SOL    HW163923   0.213   9.682   3.466 -2.3871  0.3259  0.0308
17568SOL    HW263924   0.254   9.626   3.614  0.8535 -0.2020 -1.0247
17569SOL     OW63925   1.889   2.056   0.881  0.2193  0.4479 -0.4136
17569SOL    HW163926   1.982   2.018   0.881 -0.7634 -2.0926 -2.1330
17569SOL    HW263927   1.841   2.025   0.964  0.5833  0.9233 -0.0249
17570SOL     OW63928   9.429   3.742   5.023 -0.5848  0.0179  0.1334
17570SOL    HW163929   9.415   3.711   5.117  0.8397  0.0167  0.3626
17570SOL    HW263930   9.499   3.686   4.979  0.6663  1.6714 -0.0632
17571SOL     OW63931   2.005   0.472   1.720  0.2447 -0.1883 -1.0995
17571SOL    HW163932   1.908   0.477   1.700 -0.1115  0.7984  0.7313
17571SOL    HW263933   2.030   0.544   1.784  2.0230 -0.9420 -0.8898
17572SOL     OW63934   0.621   7.152   5.703  0.0477  0.1078  0.1602
17572SOL    HW163935   0.534   7.171   5.657  1.6787 -0.6562 -3.4150
17572SOL    HW263936   0.676   7.236   5.707 -0.0658  0.1582  0.6440
17573SOL     OW63937   9.457   1.642   6.245  0.1553 -0.2922 -0.4195
17573SOL    HW163938   9.540   1.611   6.291 -0.4695  0.2610  1.0946
17573SOL    HW263939   9.459   1.741   6.234 -0.7148 -0.1674  0.4604
17574SOL     OW63940   6.420   1.182   0.789 -0.0303 -0.3688  0.2471
17574SOL    HW163941   6.407   1.147   0.696 -0.8881 -1.0847  0.6276
17574SOL    HW263942   6.482   1.121   0.839  2.3420  1.3112 -0.5790
17575SOL     OW63943   9.123   0.425   6.625 -0.4570  0.1351 -0.3468
17575SOL    HW163944   9.047   0.400   6.684  0.2238 -1.0675  0.0444
17575SOL    HW263945   9.151   0.345   6.572 -0.8323  1.1006 -2.0417
17576SOL     OW63946   8.128   7.167   1.740 -0.3348  0.0972  0.0803
17576SOL    HW163947   8.214   7.213   1.766 -1.5576  1.6023  1.5756
17576SOL    HW263948   8.146   7.071   1.722  1.5998  0.2900  0.8637
17577SOL     OW63949   5.223   0.724   5.172 -0.4327 -0.0653  0.2842
17577SOL    HW163950   5.287   0.649   5.191  0.4661  0.8061  0.7493
17577SOL    HW263951   5.203   0.773   5.257 -2.4239 -0.8667  0.3037
17578SOL     OW63952   4.698   8.114   4.283 -0.5006  0.0739  0.3167
17578SOL    HW163953   4.686   8.064   4.369 -0.6374 -2.3561 -1.0904
17578SOL    HW263954   4.616   8.168   4.264 -1.4204 -1.2103  0.5575
17579SOL     OW63955   9.638   6.135   0.320  0.1619 -0.0761  0.2801
17579SOL    HW163956   9.563   6.196   0.296  0.3723  0.0286 -0.1306
17579SOL    HW263957   9.683   6.168   0.403  0.5649  0.5985 -0.1958
17580SOL     OW63958   4.823   3.219   4.660 -0.5904 -0.1780  0.0059
17580SOL    HW163959   4.890   3.180   4.597  1.1684  1.8927  0.5393
17580SOL    HW263960   4.825   3.168   4.746 -0.4697 -0.7688 -0.3382
17581SOL     OW63961   3.680   8.280   3.420  0.6457 -0.0341  0.3744
17581SOL    HW163962   3.582   8.300   3.424  0.8174  0.9070  0.2175
17581SOL    HW263963   3.701   8.201   3.477 -0.3425 -0.8118 -0.3256
17582SOL     OW63964   4.660   6.308   2.121 -0.4980 -0.3770  0.3351
17582SOL    HW163965   4.694   6.305   2.215  0.1426  0.1763  0.1284
17582SOL    HW263966   4.611   6.224   2.101 -1.7318  0.0208  1.5672
17583SOL     OW63967   2.697   9.941   2.240 -0.5310 -0.0561  0.8962
17583SOL    HW163968   2.639   9.890   2.176  1.7430 -0.0532 -1.2466
17583SOL    HW263969   2.773   9.883   2.269  0.3908  1.0929  0.8216
17584SOL     OW63970   0.018   7.019   4.938  0.2204  0.4733 -0.7494
17584SOL    HW163971   0.061   7.091   4.883 -0.2479 -0.3179 -2.1662
17584SOL    HW263972  -0.012   6.945   4.878 -0.2252 -0.4416  0.5917
17585SOL     OW63973   4.630   5.281   3.057 -0.1108  0.3006 -0.4495
17585SOL    HW163974   4.638   5.184   3.082  1.0102  0.6400  0.5178
17585SOL    HW263975   4.538   5.313   3.079 -0.1704 -0.2807  0.1837
17586SOL     OW63976   8.176   9.373   3.294 -0.2172 -0.0627 -0.4252
17586SOL    HW163977   8.267   9.332   3.290  0.1881  0.8306 -0.5655
17586SOL    HW263978   8.166   9.438   3.219 -0.6414  0.5020  0.1180
17587SOL     OW63979   0.251   6.705   1.173  0.2789  0.1282  0.0480
17587SOL    HW163980   0.152   6.716   1.170  0.3277  0.2748 -1.8460
17587SOL    HW263981   0.276   6.639   1.244 -1.2304 -0.4740  0.0223
17588SOL     OW63982   1.217   7.950   6.692 -0.1089  0.2473 -0.1972
17588SOL    HW163983   1.118   7.956   6.699 -0.2453 -0.2516 -1.5726
17588SOL    HW263984   1.249   8.005   6.615  0.9629  2.4931  1.7699
17589SOL     OW63985   6.770   1.250   3.625  0.4902  0.1280 -0.2089
17589SOL    HW163986   6.859   1.282   3.592  0.4769  0.6601  0.2540
17589SOL    HW263987   6.701   1.319   3.603  0.1247 -0.4641 -0.9157
17590SOL     OW63988   8.350   5.472   0.997  0.5337 -0.5946 -0.3247
17590SOL    HW163989   8.442   5.501   1.024  0.8061 -2.3465  0.7235
17590SOL    HW263990   8.352   5.375   0.973 -1.5187 -1.2902  2.0679
17591SOL     OW63991   1.813   1.718   1.166  0.0944  0.2876 -0.0380
17591SOL    HW163992   1.845   1.624   1.165  1.7821  0.8630 -1.5302
17591SOL    HW263993   1.721   1.722   1.126 -0.8028 -0.9660  1.8008
17592SOL     OW63994   8.149   0.873   6.146 -0.0504  0.3329 -0.0596
17592SOL    HW163995   8.218   0.933   6.186 -0.7444 -0.4104  2.3697
17592SOL    HW263996   8.103   0.822   6.219 -2.1405 -0.2924 -1.7464
17593SOL     OW63997   0.218   8.547   4.094 -0.1769 -0.6103 -0.1547
17593SOL    HW163998   0.196   8.568   3.998  2.7626 -1.4654 -1.0640
17593SOL    HW263999   0.269   8.461   4.098 -0.6832 -0.8375  2.2586
17594SOL     OW64000   7.266   0.190   1.781  0.1728  0.2591 -0.6731
17594SOL    HW164001   7.251   0.091   1.773  1.6335  0.0330 -0.7393
17594SOL    HW264002   7.271   0.214   1.878 -0.8338  0.3783 -0.6449
17595SOL     OW64003   9.925   9.394   3.426  0.4531  0.8616  0.0528
17595SOL    HW164004   9.948   9.396   3.523  0.8206 -2.2520  0.0748
17595SOL    HW264005  10.008   9.380   3.372 -0.1654 -1.2639 -0.4218
17596SOL     OW64006   3.919   8.631   4.849 -0.4574  0.0915 -0.0111
17596SOL    HW164007   3.996   8.687   4.879 -1.5130  0.5401  2.0086
17596SOL    HW264008   3.879   8.671   4.766  1.9448 -0.6192 -1.5610
17597SOL     OW64009   9.456   1.345   1.265  0.0032 -0.3167  0.0838
17597SOL    HW164010   9.490   1.289   1.190 -1.7977 -0.3396 -0.7486
17597SOL    HW264011   9.452   1.441   1.236 -0.9817 -0.3657  0.0322
17598SOL     OW64012   5.963   0.887   3.051  0.1310 -0.5963 -0.1680
17598SOL    HW164013   6.058   0.890   3.019 -0.0734  0.3054 -0.7180
17598SOL    HW264014   5.947   0.959   3.118  0.2547 -1.7761  1.1477
17599SOL     OW64015   3.675   3.342   4.539  0.3291  0.2423  0.7082
17599SOL    HW164016   3.732   3.288   4.478  0.3156  1.7485 -0.6639
17599SOL    HW264017   3.603   3.387   4.486  0.1594  1.3696  1.8756
17600SOL     OW64018   1.527   7.893   1.252  0.3259 -0.0205  0.4534
17600SOL    HW164019   1.611   7.857   1.210 -0.1962  0.4457 -1.0148
17600SOL    HW264020   1.448   7.847   1.213 -0.1560  0.1467  1.2251
17601SOL     OW64021   4.367   2.674   4.031  0.2341  0.6029  0.1758
17601SOL    HW164022   4.383   2.583   3.991 -0.6560  1.5695 -2.4860
17601SOL    HW264023   4.454   2.714   4.058  0.9872  0.2913 -1.7082
17602SOL     OW64024   8.559   8.045   3.498 -0.2498 -0.5213  0.1909
17602SOL    HW164025   8.600   7.954   3.501 -1.3077 -1.0664 -1.2247
17602SOL    HW264026   8.540   8.070   3.403 -0.7444  0.8229  0.6297
17603SOL     OW64027   8.616   2.048   2.795 -1.1067 -0.9203  0.0755
17603SOL    HW164028   8.595   2.099   2.878 -1.2372 -0.2519 -0.3638
17603SOL    HW264029   8.532   2.035   2.742 -0.9505 -0.9477 -0.1691
17604SOL     OW64030   3.783   6.820   3.548 -0.0396  0.6747 -0.2549
17604SOL    HW164031   3.731   6.822   3.633 -0.5509  0.9935 -0.5710
17604SOL    HW264032   3.880   6.803   3.568 -0.2770  0.0000  0.3226
17605SOL     OW64033   6.539   9.693   3.931 -0.0950  0.0653 -0.6313
17605SOL    HW164034   6.516   9.645   4.016 -3.8598  0.1354 -1.4962
17605SOL    HW264035   6.610   9.761   3.949  1.4636 -2.0756  1.7474
17606SOL     OW64036   4.078   3.383   4.724  0.4148  0.2509  0.1583
17606SOL    HW164037   4.080   3.317   4.649  1.6078  0.3345  0.1169
17606SOL    HW264038   4.112   3.341   4.808 -1.7410 -0.1140  0.8938
17607SOL     OW64039   8.235   0.454   5.006 -0.2014 -0.0473  0.0506
17607SOL    HW164040   8.165   0.397   4.963 -1.9757  1.0443  1.4391
17607SOL    HW264041   8.263   0.412   5.092  0.3329 -0.0961 -0.1426
17608SOL     OW64042   9.987   5.692   6.110  0.1729  0.1335  0.2735
17608SOL    HW164043   9.915   5.757   6.085  0.4593 -0.1248 -1.2689
17608SOL    HW264044   9.946   5.604   6.133 -0.1333  0.5220  1.2306
17609SOL     OW64045   1.241   6.867   3.076 -0.5600 -0.7539  0.7015
17609SOL    HW164046   1.246   6.869   3.176  1.4643  0.4842  0.6045
17609SOL    HW264047   1.217   6.958   3.043 -1.0552 -1.1228  0.0370
17610SOL     OW64048   8.665   0.770   2.379 -0.0814 -0.4455  0.0409
17610SOL    HW164049   8.611   0.825   2.315 -0.4062 -1.7564 -0.8312
17610SOL    HW264050   8.735   0.828   2.421 -2.3710  1.3868  1.5000
17611SOL     OW64051   6.500   9.104   7.009 -0.3406  0.5137 -0.3337
17611SOL    HW164052   6.549   9.164   6.946  1.2256  1.4817  1.7518
17611SOL    HW264053   6.459   9.028   6.958  1.8571  0.6424 -2.3467
17612SOL     OW64054   5.539   2.851   4.085  0.4702  0.2347 -0.5269
17612SOL    HW164055   5.626   2.801   4.084  0.0524 -0.5008 -1.0113
17612SOL    HW264056   5.504   2.858   3.991 -0.8841 -1.0601 -0.1424
17613SOL     OW64057   3.181   2.290   3.880  0.0834 -0.2265  0.8444
17613SOL    HW164058   3.162   2.232   3.800  0.1898 -0.6160  1.0991
17613SOL    HW264059   3.275   2.323   3.874  0.2450 -0.6419  1.0460
17614SOL     OW64060   1.741   9.482   5.958 -0.1743  0.4187 -0.7207
17614SOL    HW164061   1.783   9.426   5.887  1.9903  0.5118  0.4627
17614SOL    HW264062   1.803   9.556   5.983 -0.8445  0.2846  1.4062
17615SOL     OW64063   0.790   0.721   4.677  0.2887 -0.0885  0.0902
17615SOL    HW164064   0.862   0.681   4.620 -0.3025 -0.2439 -0.5507
17615SOL    HW264065   0.721   0.652   4.698  1.3539 -0.4977  2.4314
17616SOL     OW64066   8.880   6.488   0.301  0.0504 -0.2745 -0.3327
17616SOL    HW164067   8.871   6.575   0.349  0.8203  0.7018 -1.9136
17616SOL    HW264068   8.974   6.455   0.308 -0.3312 -1.2013  0.6060
17617SOL     OW64069   1.976   3.741   1.757  0.4740 -0.3394  0.3853
17617SOL    HW164070   1.973   3.752   1.856  2.4184 -1.6625  0.6015
17617SOL    HW264071   1.989   3.831   1.714 -1.1891  0.3471  1.2496
17618SOL     OW64072   9.264   0.032   5.783  0.3518  0.4377 -0.1694
17618SOL    HW164073   9.357  -0.006   5.774 -0.4173 -1.7536  0.7298
17618SOL    HW264074   9.212   0.013   5.700  0.8969  2.2365 -0.9294
17619SOL     OW64075   7.126   1.409   6.695 -0.1118  0.3910 -0.5177
17619SOL    HW164076   7.180   1.424   6.778 -0.8247  0.1521 -0.0084
17619SOL    HW264077   7.113   1.496   6.648 -1.4982  0.8768  0.7386
17620SOL     OW64078   3.604   7.701   2.419  0.0558 -0.0095 -0.4468
17620SOL    HW164079   3.635   7.624   2.363  1.3402 -0.3124  0.6465
17620SOL    HW264080   3.633   7.687   2.513  0.0835  1.7074 -0.1834
17621SOL     OW64081   0.555   5.670   1.412 -0.2859  0.6443  0.3705
17621SOL    HW164082   0.542   5.605   1.486  0.4993 -0.2209 -0.2394
17621SOL    HW264083   0.653   5.680   1.393 -0.4897  0.6722 -0.6966
17622SOL     OW64084   7.927   1.356   6.301 -0.3754 -0.6739 -0.1487
17622SOL    HW164085   8.005   1.295   6.317 -0.3312 -0.9014 -1.2025
17622SOL    HW264086   7.958   1.437   6.251 -0.7715 -0.6292 -0.3215
17623SOL     OW64087   1.096   0.834   1.419 -0.0179  0.0694 -0.3585
17623SOL    HW164088   1.107   0.884   1.333 -1.3249  0.8380 -0.0867
17623SOL    HW264089   1.047   0.892   1.485  0.3391 -0.7828  0.6673
17624SOL     OW64090   5.228   8.698   4.484 -0.4134 -0.1975 -1.1199
17624SOL    HW164091   5.179   8.636   4.544  1.0190 -0.1898  0.0725
17624SOL    HW264092   5.254   8.650   4.400 -1.0535 -0.6476 -1.0609
17625SOL     OW64093   8.700   0.537   3.592  0.1594 -0.8866  0.3038
17625SOL    HW164094   8.663   0.512   3.682 -2.3330 -0.0925 -0.4624
17625SOL    HW264095   8.672   0.630   3.569  1.3499 -0.8412 -1.0158
17626SOL     OW64096   9.435   2.874   4.507  0.2121  0.2173 -0.6348
17626SOL    HW164097   9.448   2.786   4.552 -2.0475  1.0111  1.7188
17626SOL    HW264098   9.395   2.860   4.417  0.0407 -1.1560 -0.3601
17627SOL     OW64099   2.747   5.385   0.272 -0.4262  0.5621 -0.5692
17627SOL    HW164100   2.671   5.324   0.248  0.1804  0.0511 -1.1833
17627SOL    HW264101   2.817   5.332   0.320 -0.5694  1.0925  0.2367
17628SOL     OW64102   0.369   1.286   0.295 -0.5326 -0.6407 -0.0943
17628SOL    HW164103   0.317   1.200   0.302  0.9702 -1.5127  0.4776
17628SOL    HW264104   0.465   1.269   0.316 -0.0675  1.0401 -0.7839
17629SOL     OW64105   4.330   6.885   1.744 -0.0576 -0.0433  0.0051
17629SOL    HW164106   4.281   6.887   1.657  0.5484  0.0265 -0.3338
17629SOL    HW264107   4.281   6.941   1.811 -0.6589 -0.3032 -0.2160
17630SOL     OW64108   5.757   0.356   1.654  0.0724 -0.1802 -0.8539
17630SOL    HW164109   5.752   0.262   1.619 -1.7221 -0.6709  0.6403
17630SOL    HW264110   5.676   0.406   1.625 -1.5903 -0.6675  2.6540
17631SOL     OW64111   3.156   3.530   4.471  0.3384  0.3293 -0.1290
17631SOL    HW164112   3.165   3.480   4.385 -0.1073 -0.7318  0.4336
17631SOL    HW264113   3.072   3.585   4.469 -0.0228 -0.2162 -0.1146
17632SOL     OW64114   1.987   5.138   5.174  0.0925  0.3515 -0.0571
17632SOL    HW164115   1.928   5.138   5.093  0.1329  0.0224 -0.0875
17632SOL    HW264116   2.081   5.116   5.147 -0.2700 -1.7550  0.3377
17633SOL     OW64117   7.869   1.963   0.123 -0.1782  0.1395 -0.0642
17633SOL    HW164118   7.931   2.020   0.069 -1.0386  1.9528  0.8500
17633SOL    HW264119   7.871   1.992   0.218 -1.9498 -0.2300  0.0939
17634SOL     OW64120   3.698   3.657   3.897  0.9135 -0.2573  0.5077
17634SOL    HW164121   3.608   3.651   3.854  0.9323 -2.0946  0.6941
17634SOL    HW264122   3.759   3.710   3.838 -0.7374  2.5597  1.2051
17635SOL     OW64123   8.672   2.730   8.156  0.1268  0.2870  0.3352
17635SOL    HW164124   8.646   2.646   8.203  0.7126 -0.5291 -0.7807
17635SOL    HW264125   8.770   2.730   8.138 -0.1266  0.4761 -1.1036
17636SOL     OW64126   1.324   2.880   2.007 -0.0910 -0.2398 -0.2013
17636SOL    HW164127   1.266   2.940   1.952 -0.3934 -0.9225 -0.6295
17636SOL    HW264128   1.302   2.893   2.104 -0.5507 -0.0773 -0.3267
17637SOL     OW64129   2.383   8.384   3.633 -0.2779  0.5477  0.3958
17637SOL    HW164130   2.419   8.455   3.572 -0.1606 -0.1144 -0.3048
17637SOL    HW264131   2.358   8.426   3.721  1.8619  1.0793  0.7834
17638SOL     OW64132   5.003   7.136   1.528  0.0967  0.3206  0.0461
17638SOL    HW164133   4.910   7.100   1.537  0.7893 -1.6867 -0.4348
17638SOL    HW264134   5.036   7.166   1.618 -0.4629 -0.4407  0.5136
17639SOL     OW64135   1.705   6.937   2.194 -0.2710 -0.4338 -0.3900
17639SOL    HW164136   1.697   7.033   2.218 -1.4772 -0.6309  0.0137
17639SOL    HW264137   1.656   6.920   2.107 -2.2258 -1.1527  0.8073
17640SOL     OW64138   2.854   6.380   0.663 -0.2925 -0.0574  0.0937
17640SOL    HW164139   2.864   6.293   0.615 -0.5744  0.1085 -0.2620
17640SOL    HW264140   2.939   6.432   0.655  0.3173 -0.8169  1.3401
17641SOL     OW64141   6.918   9.664   6.744 -0.3463 -0.1835 -0.1251
17641SOL    HW164142   6.909   9.608   6.827 -0.5755  0.1422  0.0682
17641SOL    HW264143   6.875   9.753   6.759 -0.9715 -0.3585 -0.8146
17642SOL     OW64144   7.739   2.996   1.587 -0.1403  0.3452 -0.0180
17642SOL    HW164145   7.759   2.923   1.522  1.8677 -0.3418  1.3352
17642SOL    HW264146   7.692   2.958   1.667  0.8069  0.5319  0.6383
17643SOL     OW64147   2.262   0.467   6.282 -0.2569  1.1986  0.4292
17643SOL    HW164148   2.178   0.413   6.272  1.4694 -1.0741 -2.6316
17643SOL    HW264149   2.312   0.437   6.362  0.1927 -1.1458 -0.6957
17644SOL     OW64150   5.876   2.936   0.562  0.1902  0.0671  0.5745
17644SOL    HW164151   5.861   3.034   0.550 -1.5000 -0.2979 -0.4419
17644SOL    HW264152   5.790   2.892   0.587  0.2071 -1.6022 -2.0553
17645SOL     OW64153   4.663   6.303   0.156  0.1269 -0.5025 -0.4899
17645SOL    HW164154   4.728   6.228   0.142 -0.8107 -1.5626  0.6622
17645SOL    HW264155   4.614   6.289   0.242 -0.1676  1.3748 -0.3184
17646SOL     OW64156   3.610   8.085   5.481  0.2211 -0.0131  0.2543
17646SOL    HW164157   3.665   8.153   5.432  1.3433 -1.3514 -0.4109
17646SOL    HW264158   3.534   8.056   5.423  0.5053 -0.2715  0.0048
17647SOL     OW64159   1.536   9.667   0.546  0.1568 -0.1110  0.1010
17647SOL    HW164160   1.482   9.598   0.594 -0.0646  0.1807  0.2757
17647SOL    HW264161   1.484   9.753   0.542 -0.0236 -0.2722 -1.0898
17648SOL     OW64162   3.392   9.034   6.010  0.2387 -0.5908  0.0247
17648SOL    HW164163   3.448   9.116   6.017  0.9947 -1.1149  0.2328
17648SOL    HW264164   3.393   9.001   5.915 -2.1407  1.0674 -0.6072
17649SOL     OW64165   4.323   0.495   2.603  0.0023 -0.2151 -0.0840
17649SOL    HW164166   4.235   0.526   2.565 -0.1973 -0.5564  0.1005
17649SOL    HW264167   4.309   0.461   2.695 -0.2300 -3.2522 -1.1913
17650SOL     OW64168   1.181   9.225   5.054 -0.0446  0.4289  0.3630
17650SOL    HW164169   1.101   9.267   5.096 -0.4940  0.1798 -0.2455
17650SOL    HW264170   1.227   9.167   5.120 -0.1340  0.8953  0.8359
17651SOL     OW64171   1.708   3.257   2.324 -0.2610 -0.0433  0.5083
17651SOL    HW164172   1.613   3.233   2.345 -0.6875  0.3457 -0.8895
17651SOL    HW264173   1.720   3.356   2.334 -0.8406  0.3654 -2.2657
17652SOL     OW64174   3.905   7.079   2.255  0.0120 -0.5634 -0.0572
17652SOL    HW164175   3.951   7.071   2.166  1.8307 -0.1457  0.8241
17652SOL    HW264176   3.918   6.994   2.307  2.5281  0.6896  1.4493
17653SOL     OW64177   3.832   3.215   2.684 -0.4192 -0.6486 -0.2907
17653SOL    HW164178   3.871   3.126   2.659 -0.7593 -0.6467 -0.8521
17653SOL    HW264179   3.813   3.217   2.782  0.3540 -0.8924 -0.1337
17654SOL     OW64180   8.587   1.454   6.041 -0.1425  0.4970 -0.2698
17654SOL    HW164181   8.656   1.382   6.038  0.7140  1.2777  0.4505
17654SOL    HW264182   8.597   1.514   5.962 -0.9258 -0.2297 -0.9269
17655SOL     OW64183   7.497   7.179   2.904 -0.2214  0.1060 -0.1973
17655SOL    HW164184   7.510   7.171   3.003  0.5739  1.6458 -0.1636
17655SOL    HW264185   7.578   7.146   2.857 -0.9440 -1.4578 -0.3836
17656SOL     OW64186   4.432   5.599   1.005 -0.4543 -0.0639 -0.1774
17656SOL    HW164187   4.461   5.692   1.028  2.6746 -0.7221 -1.2965
17656SOL    HW264188   4.351   5.603   0.946 -0.3770  1.9298 -0.1870
17657SOL     OW64189   2.283   3.255   5.193 -0.3321 -0.3796  0.0092
17657SOL    HW164190   2.372   3.301   5.186 -0.8950  1.4245  3.5316
17657SOL    HW264191   2.211   3.317   5.161 -0.8164  0.2041  2.1644
17658SOL     OW64192   9.289   8.915   5.239 -0.1185 -0.8107 -0.3798
17658SOL    HW164193   9.258   8.900   5.333  0.1086  0.9471 -0.0144
17658SOL    HW264194   9.318   9.010   5.228  0.2353 -1.1061 -2.1272
17659SOL     OW64195   3.642   4.765   3.974 -0.2023 -0.0039  0.1813
17659SOL    HW164196   3.618   4.753   4.070  0.0910 -0.9194  0.1464
17659SOL    HW264197   3.589   4.841   3.935 -0.3105  0.3755  1.0617
17660SOL     OW64198   5.167   1.332   0.316 -0.0056 -0.0827  0.6005
17660SOL    HW164199   5.149   1.429   0.298  1.6484 -0.0018 -0.6441
17660SOL    HW264200   5.162   1.315   0.415 -1.3143  1.0480  0.7412
17661SOL     OW64201   1.460   4.506   1.000 -0.4226  0.6599  0.0797
17661SOL    HW164202   1.448   4.597   1.041  0.8435  0.4244  1.0306
17661SOL    HW264203   1.398   4.441   1.045 -2.3630  1.3187 -1.5835
17662SOL     OW64204   1.603   0.029   4.763  0.5609  0.6733  0.1391
17662SOL    HW164205   1.541  -0.023   4.705  1.9157 -0.0220 -0.7109
17662SOL    HW264206   1.629  -0.026   4.843 -1.6560  1.7908  1.6891
17663SOL     OW64207   5.914   4.317   0.268  0.2128  0.1495 -0.0355
17663SOL    HW164208   5.886   4.224   0.244 -1.3617  0.1669  1.6388
17663SOL    HW264209   5.866   4.382   0.210  0.7293 -0.0367 -0.6808
17664SOL     OW64210   7.265   0.038   3.919  0.3376  0.1590 -0.2907
17664SOL    HW164211   7.272   0.107   3.991  0.3647  0.4745 -0.5909
17664SOL    HW264212   7.264   0.084   3.829  0.7958 -0.2537 -0.5099
17665SOL     OW64213   9.546   7.903   3.719 -0.1237 -0.0237  0.4663
17665SOL    HW164214   9.478   7.948   3.661 -0.3699 -0.6625  0.2473
17665SOL    HW264215   9.535   7.804   3.712  0.0131 -0.1074  1.4168
17666SOL     OW64216   5.758   5.058   2.073  0.3460 -0.1447 -0.9423
17666SOL    HW164217   5.768   5.100   1.983 -0.1922  0.9856 -0.4786
17666SOL    HW264218   5.803   4.968   2.073 -0.5789 -0.6231 -2.6573
17667SOL     OW64219   1.477   9.626   2.382  0.0910  0.5737  0.2123
17667SOL    HW164220   1.501   9.640   2.478 -0.2310  0.4811  0.3074
17667SOL    HW264221   1.406   9.691   2.355  0.1613  0.5802  0.0468
17668SOL     OW64222   5.016   8.271   5.700 -0.1121 -0.4370  0.1064
17668SOL    HW164223   4.955   8.319   5.638 -3.0997 -0.4841  2.8679
17668SOL    HW264224   5.053   8.336   5.767 -0.6628 -1.1978  1.1551
17669SOL     OW64225   2.490   3.223   5.799 -0.0844 -0.0628  0.0920
17669SOL    HW164226   2.550   3.165   5.855  1.6668  1.8132  0.1752
17669SOL    HW264227   2.495   3.317   5.831 -3.1773  0.1282  0.1721
17670SOL     OW64228   9.274   9.386   0.674 -0.0386  0.4333 -0.0148
17670SOL    HW164229   9.372   9.403   0.664  0.0780  0.2033  0.7636
17670SOL    HW264230   9.251   9.297   0.634 -0.1638  1.0714 -1.4262
17671SOL     OW64231   5.027   0.480   1.481 -0.0917  0.4134 -0.1252
17671SOL    HW164232   5.050   0.578   1.484  1.6580  0.0680 -1.1917
17671SOL    HW264233   5.100   0.428   1.525  1.2204 -0.7249 -3.4503
17672SOL     OW64234   4.515   1.984   5.308 -0.1913 -0.4885  0.0488
17672SOL    HW164235   4.434   1.993   5.250 -1.7319 -1.0505  2.0456
17672SOL    HW264236   4.587   1.937   5.257 -0.5648  1.3505 -2.2566
17673SOL     OW64237   1.672   5.193   1.575 -0.5851  0.1352  0.0092
17673SOL    HW164238   1.598   5.260   1.570  0.8530  1.6572 -1.4636
17673SOL    HW264239   1.759   5.238   1.553  0.5007 -2.0693 -0.2903
17674SOL     OW64240   7.542   9.704   3.866 -0.1971 -0.3229  0.1087
17674SOL    HW164241   7.601   9.713   3.786  1.8153 -1.7943  1.3758
17674SOL    HW264242   7.521   9.608   3.882  0.7684 -0.2096  2.2696
17675SOL     OW64243   3.317   2.638   0.035  0.5059  0.2255 -0.5624
17675SOL    HW164244   3.402   2.612  -0.012  1.2394 -0.1204  0.9140
17675SOL    HW264245   3.283   2.560   0.087  0.0040  0.7662 -0.0760
17676SOL     OW64246   3.053   3.235   4.504 -0.1715  1.1248  0.1859
17676SOL    HW164247   3.085   3.287   4.583 -2.1718  2.6352  0.0280
17676SOL    HW264248   2.986   3.289   4.453  1.1679  0.1989 -2.6119
17677SOL     OW64249   2.607   9.963   3.983 -0.4289 -0.3016  0.5294
17677SOL    HW164250   2.601   9.904   4.063 -0.0419  0.5002  1.1546
17677SOL    HW264251   2.521   9.958   3.932 -0.2025 -1.8077  0.2833
17678SOL     OW64252   3.196   2.746   3.757 -0.0136  0.6811  0.0921
17678SOL    HW164253   3.239   2.821   3.807  0.2086  1.4074 -1.1810
17678SOL    HW264254   3.111   2.778   3.715  0.3229  0.3442 -0.8440
17679SOL     OW64255   8.922   9.427   0.585  0.0087 -0.3737 -0.0042
17679SOL    HW164256   8.974   9.421   0.500  1.6448 -0.7637  0.9904
17679SOL    HW264257   8.983   9.457   0.659 -1.3269 -0.2695  1.0713
17680SOL     OW64258   1.383   9.118   1.215  0.0104 -0.2385 -0.6183
17680SOL    HW164259   1.314   9.181   1.250  0.9212  0.1944  0.4232
17680SOL    HW264260   1.342   9.059   1.145 -1.7229 -0.7969  0.8446
17681SOL     OW64261   0.878   8.445   2.491  0.3486 -0.0319  0.1452
17681SOL    HW164262   0.797   8.388   2.501  1.5748 -2.1021 -1.3936
17681SOL    HW264263   0.850   8.538   2.465 -1.4888 -1.1060 -1.8702
17682SOL     OW64264   5.968   9.133   2.804 -0.3987 -0.2606  0.3842
17682SOL    HW164265   5.967   9.090   2.894 -0.7305 -2.6156 -0.7107
17682SOL    HW264266   5.887   9.105   2.753  0.2386  0.3461 -0.9820
17683SOL     OW64267   4.226   8.930   4.560 -0.2849 -0.0102  0.4277
17683SOL    HW164268   4.314   8.973   4.540 -0.3141  0.0417  0.4120
17683SOL    HW264269   4.240   8.833   4.578 -0.4604 -0.4501 -1.6730
17684SOL     OW64270   2.649   5.317   2.945  0.3418  0.2022 -0.2801
17684SOL    HW164271   2.633   5.221   2.922  1.3788  0.3797 -1.8771
17684SOL    HW264272   2.747   5.330   2.962 -0.0807  0.5748  1.9761
17685SOL     OW64273   3.491   5.326   2.673  0.5982 -0.0615 -0.2236
17685SOL    HW164274   3.514   5.366   2.585 -1.6447 -2.5786 -2.0450
17685SOL    HW264275   3.542   5.241   2.686  1.6315  0.7802  1.3635
17686SOL     OW64276   0.951   9.006   2.308 -0.4134 -0.8959 -0.1586
17686SOL    HW164277   0.917   9.031   2.218 -1.0979 -1.0057  0.0682
17686SOL    HW264278   1.051   9.011   2.309 -0.4962  1.2479 -0.2834
17687SOL     OW64279   3.472   8.816   1.058  0.4695 -0.1806 -0.0221
17687SOL    HW164280   3.542   8.757   1.098 -0.5546 -0.3604  1.5219
17687SOL    HW264281   3.480   8.908   1.096 -0.8642 -0.4946  1.0624
17688SOL     OW64282   4.149   0.120   2.245 -0.1108  0.1240  0.2562
17688SOL    HW164283   4.189   0.198   2.196 -2.6648 -0.6996 -3.3789
17688SOL    HW264284   4.104   0.152   2.328 -3.3233  3.0566 -2.4490
17689SOL     OW64285   0.482   9.875   5.025 -0.4972 -0.2446 -0.8821
17689SOL    HW164286   0.513   9.782   5.044 -0.6922 -0.1111  0.0974
17689SOL    HW264287   0.399   9.894   5.078 -0.2972  0.5836 -0.8567
17690SOL     OW64288   1.959   5.781   5.648  0.5460  0.0776 -0.0268
17690SOL    HW164289   2.054   5.776   5.617  0.4932 -0.3141 -0.1238
17690SOL    HW264290   1.957   5.779   5.748  0.5320 -1.7154 -0.0593
17691SOL     OW64291   0.667   4.287   0.170 -0.2126  0.8715 -0.3093
17691SOL    HW164292   0.681   4.375   0.125  0.9779 -0.0135 -1.7240
17691SOL    HW264293   0.576   4.253   0.146 -1.2071  2.3171  1.3289
17692SOL     OW64294   7.462   8.505   5.824 -0.0988 -0.3517 -0.4780
17692SOL    HW164295   7.458   8.420   5.772 -1.6725 -1.0510  0.7180
17692SOL    HW264296   7.530   8.497   5.897  0.7414 -0.0717 -1.2292
17693SOL     OW64297   0.614   4.649   1.286  0.5548 -0.8267  0.0491
17693SOL    HW164298   0.573   4.614   1.370  1.5026 -1.6376  0.1784
17693SOL    HW264299   0.665   4.733   1.307  1.3133 -1.3725  0.4010
17694SOL     OW64300   0.971   4.091   1.802  0.2363  0.6909  0.2579
17694SOL    HW164301   0.874   4.110   1.783  0.7839  1.3512 -2.0161
17694SOL    HW264302   1.023   4.176   1.794  1.3957 -0.1306 -1.1838
17695SOL     OW64303   6.503   7.535   4.641  0.0520  0.4177  0.1841
17695SOL    HW164304   6.478   7.449   4.596  1.9387 -0.0173 -0.0825
17695SOL    HW264305   6.450   7.546   4.725 -0.9763 -0.4791 -0.3432
17696SOL     OW64306   6.218   0.940   4.558 -0.2126  0.0682 -0.4030
17696SOL    HW164307   6.183   0.884   4.634 -2.1645 -0.3662 -1.5671
17696SOL    HW264308   6.193   1.035   4.573  1.2973  0.3345  0.5473
17697SOL     OW64309   4.273   1.520   0.290 -0.5308  0.1167 -0.0738
17697SOL    HW164310   4.249   1.613   0.261  0.7843  0.5186  0.1123
17697SOL    HW264311   4.195   1.460   0.275 -1.8857  1.5268  1.1243
17698SOL     OW64312   3.190   0.197   1.176  0.0260  0.0418  0.1285
17698SOL    HW164313   3.223   0.172   1.085 -1.0033 -0.6042 -0.0779
17698SOL    HW264314   3.151   0.117   1.221 -1.2882  0.7943  0.3553
17699SOL     OW64315   9.115   8.766   5.461  0.0233 -0.0184  0.3063
17699SOL    HW164316   9.188   8.814   5.510  1.0784 -0.6737 -0.6143
17699SOL    HW264317   9.129   8.667   5.469 -1.0585 -0.1589  0.5623
17700SOL     OW64318   1.030   1.790   2.691 -0.0928 -0.3872  0.0718
17700SOL    HW164319   0.973   1.861   2.649 -1.0043 -1.6497 -0.8849
17700SOL    HW264320   1.001   1.775   2.785 -2.4504 -2.1272 -0.8849
17701SOL     OW64321   1.725   4.626   1.131  0.2253 -0.1171 -0.3990
17701SOL    HW164322   1.697   4.714   1.171  1.3220  0.8951 -1.7734
17701SOL    HW264323   1.791   4.643   1.057 -0.0082 -2.0760 -1.0816
17702SOL     OW64324   7.828   0.795   2.044 -0.2224 -0.4486 -0.2667
17702SOL    HW164325   7.786   0.738   1.973 -1.7804 -0.8838  0.9895
17702SOL    HW264326   7.773   0.878   2.056 -0.2827 -0.6550  0.8596
17703SOL     OW64327   8.543   7.657   4.526 -0.4057 -0.0326  0.9240
17703SOL    HW164328   8.614   7.598   4.565  1.5760  1.7378  0.0472
17703SOL    HW264329   8.514   7.724   4.594  1.0573  1.2686  0.2929
17704SOL     OW64330   7.483   2.919   1.452 -0.6353  0.0910  0.3082
17704SOL    HW164331   7.519   3.012   1.456  0.9715 -0.5164  0.1413
17704SOL    HW264332   7.531   2.867   1.381 -1.5885 -0.8487  0.3250
17705SOL     OW64333   2.493   5.999   2.927  0.2742 -0.1520  0.3956
17705SOL    HW164334   2.417   6.051   2.966  0.8731  0.1195  1.2250
17705SOL    HW264335   2.520   6.039   2.839 -0.4857 -0.2062  0.1326
17706SOL     OW64336   9.624   1.398   2.912  0.1121 -0.0537  0.5604
17706SOL    HW164337   9.720   1.403   2.886  0.1238  0.3371  0.6824
17706SOL    HW264338   9.600   1.476   2.969  0.2274 -1.1453  2.1541
17707SOL     OW64339   9.394   9.027   1.792  0.0434  0.1457 -0.1784
17707SOL    HW164340   9.304   9.036   1.836 -0.0682  2.0179 -0.7405
17707SOL    HW264341   9.382   9.025   1.693  0.6248  0.5610 -0.2574
17708SOL     OW64342   3.256   9.463   3.736  0.4061 -0.3477 -0.0299
17708SOL    HW164343   3.206   9.425   3.814  0.8552  0.8032  0.8490
17708SOL    HW264344   3.205   9.447   3.652 -1.7866  1.3894  0.9332
17709SOL     OW64345   4.900   9.974   1.180  0.0509  0.2589  0.6042
17709SOL    HW164346   4.962  10.044   1.214 -0.9728  1.0713  0.8186
17709SOL    HW264347   4.836  10.015   1.114 -0.4995 -0.4832  0.6675
17710SOL     OW64348   5.130   2.114   3.733  0.0585 -0.3008  0.0685
17710SOL    HW164349   5.214   2.059   3.722 -0.7072 -1.3968 -0.4138
17710SOL    HW264350   5.153   2.201   3.776  1.4258 -0.6666  0.1166
17711SOL     OW64351   1.756   5.275   5.374 -0.3899  0.0921  0.2902
17711SOL    HW164352   1.813   5.253   5.295 -0.9218  0.0486 -0.0849
17711SOL    HW264353   1.792   5.356   5.419  0.9239 -0.8786  1.0178
17712SOL     OW64354   0.734   8.660   5.054  0.0791 -0.1979  0.2402
17712SOL    HW164355   0.818   8.647   5.002  1.3812 -0.0780  2.2255
17712SOL    HW264356   0.660   8.690   4.993  1.5235 -0.1176 -1.4992
17713SOL     OW64357   4.195   5.511   0.365 -0.2530  0.0643  0.4820
17713SOL    HW164358   4.287   5.472   0.358 -0.4754 -0.2467 -0.8474
17713SOL    HW264359   4.188   5.564   0.449  0.3472 -1.9845  1.8562
17714SOL     OW64360   2.114   1.539   3.749  0.3350 -0.4221  0.5993
17714SOL    HW164361   2.136   1.452   3.793  1.8258  0.3960  1.4956
17714SOL    HW264362   2.015   1.548   3.740  0.1622 -2.1010  0.7230
17715SOL     OW64363   5.032   9.694   5.735 -0.0384  0.3986  0.3648
17715SOL    HW164364   5.026   9.792   5.755 -0.0938  0.4017  0.3379
17715SOL    HW264365   5.067   9.646   5.815  0.7366  0.5407  0.1148
17716SOL     OW64366   9.281   2.789   2.762 -0.2486  0.7385  0.0785
17716SOL    HW164367   9.248   2.722   2.696 -0.9123  0.8188  0.3296
17716SOL    HW264368   9.223   2.789   2.843  1.0245  0.0874  1.0197
17717SOL     OW64369   8.962   2.757   0.198  0.8325  0.2180 -0.0974
17717SOL    HW164370   8.943   2.848   0.236  1.1301  0.2933 -0.1332
17717SOL    HW264371   9.060   2.745   0.187  0.7653  0.1050 -0.6166
17718SOL     OW64372   2.787   4.806   2.240 -0.1042 -0.4745  0.3245
17718SOL    HW164373   2.871   4.853   2.215 -0.6644  0.1889 -0.3510
17718SOL    HW264374   2.794   4.772   2.333  0.9143 -0.4341  0.2642
17719SOL     OW64375   2.450   6.646   4.415 -0.8823 -0.1672  0.0168
17719SOL    HW164376   2.508   6.589   4.474  0.8647  1.1376 -0.4026
17719SOL    HW264377   2.424   6.593   4.333 -2.1456 -1.4993  1.2522
17720SOL     OW64378   2.768   0.738   2.228 -0.4190  0.2882  0.2776
17720SOL    HW164379   2.811   0.673   2.166  0.5156  0.0072  1.2040
17720SOL    HW264380   2.747   0.822   2.179  1.6518  0.6131 -0.1020
17721SOL     OW64381   7.638   6.585   3.291  0.7827 -0.2203  0.1426
17721SOL    HW164382   7.610   6.681   3.284  1.2467 -0.1216 -0.3930
17721SOL    HW264383   7.559   6.529   3.317  0.3858  0.2296 -0.0962
17722SOL     OW64384   0.011   5.306   1.661 -0.6587 -0.1231  0.3893
17722SOL    HW164385  -0.086   5.289   1.675 -0.8209 -0.1298 -0.7305
17722SOL    HW264386   0.025   5.353   1.574  0.4617 -1.4119 -0.1553
17723SOL     OW64387   4.105   0.649   2.489 -0.4913  0.1949 -0.6195
17723SOL    HW164388   4.146   0.617   2.403  0.2358 -1.2954  0.2556
17723SOL    HW264389   4.040   0.581   2.522  0.3695  0.0237  0.7808
17724SOL     OW64390   8.737   7.369   0.400 -0.3357  0.3652  0.0388
17724SOL    HW164391   8.650   7.418   0.409 -0.2704  0.2221  1.6140
17724SOL    HW264392   8.720   7.271   0.412  0.4210  0.5761  3.1148
17725SOL     OW64393   2.944   6.857   2.633  0.0065  0.2177 -0.5968
17725SOL    HW164394   2.929   6.956   2.627  3.0598  0.6843 -1.6762
17725SOL    HW264395   2.967   6.832   2.727  1.7807  0.9544 -0.8257
17726SOL     OW64396   0.659   9.294   0.398  0.5968 -0.0718 -0.0124
17726SOL    HW164397   0.660   9.246   0.311  2.2040 -0.2009  0.0507
17726SOL    HW264398   0.703   9.383   0.388  0.8751 -0.1218  0.6670
17727SOL     OW64399   3.013   4.386   1.371  0.0150  0.0637  0.0670
17727SOL    HW164400   3.111   4.406   1.375  0.2180 -1.0147  1.0167
17727SOL    HW264401   2.975   4.420   1.285  0.8167  2.2346  0.5476
17728SOL     OW64402   1.976   1.706   5.157  0.4883 -0.2932 -0.1153
17728SOL    HW164403   1.903   1.670   5.215 -0.2261  0.4962 -0.5266
17728SOL    HW264404   2.063   1.665   5.185  0.3059  0.7866  2.1420
17729SOL     OW64405   1.986   8.092   5.373  0.1162 -0.2957 -0.1340
17729SOL    HW164406   2.003   7.993   5.369  0.2835 -0.2299 -1.0240
17729SOL    HW264407   1.896   8.112   5.336  0.7843  0.0672 -1.6114
17730SOL     OW64408   1.010   3.759   2.115  0.1230  0.2791 -0.4722
17730SOL    HW164409   0.957   3.773   2.032  0.0114  0.4960 -0.3622
17730SOL    HW264410   1.087   3.824   2.117  0.1101  0.2917 -0.3929
17731SOL     OW64411   6.160   0.892   3.870  0.1557 -0.4367  0.1204
17731SOL    HW164412   6.106   0.945   3.804 -1.1115 -0.3809  1.1728
17731SOL    HW264413   6.223   0.952   3.918  0.6429 -0.3678 -0.6041
17732SOL     OW64414   3.354   3.573   2.032  0.4873  0.5135  0.3830
17732SOL    HW164415   3.277   3.636   2.020  0.2839  0.0652 -0.7725
17732SOL    HW264416   3.344   3.523   2.118  0.2659  1.5271  0.9453
17733SOL     OW64417   3.769   0.375   2.823 -0.1406 -0.0026  0.0595
17733SOL    HW164418   3.735   0.290   2.863  0.0382 -0.3736 -0.5768
17733SOL    HW264419   3.700   0.447   2.834 -0.0499 -0.0647  1.1397
17734SOL     OW64420   9.369   8.508   0.405  0.5777 -0.9189 -0.1599
17734SOL    HW164421   9.308   8.475   0.332 -2.3321  2.0681  0.7771
17734SOL    HW264422   9.434   8.574   0.366  1.1598 -1.7299 -0.5890
17735SOL     OW64423   6.534   1.553   3.818  0.1893  0.1417  0.2334
17735SOL    HW164424   6.550   1.538   3.721 -1.4710 -0.0031 -0.0282
17735SOL    HW264425   6.523   1.464   3.864  2.1856  0.1429  0.8002
17736SOL     OW64426   6.734   5.352   7.318 -0.0976  0.1941  0.2608
17736SOL    HW164427   6.638   5.346   7.346  0.1690 -0.5244  1.0434
17736SOL    HW264428   6.781   5.266   7.341  0.8552  0.7273  0.3214
17737SOL     OW64429   4.473   4.427   4.254  0.3103  0.1850  0.2641
17737SOL    HW164430   4.511   4.510   4.294  0.4712  0.7580 -1.0425
17737SOL    HW264431   4.447   4.364   4.326 -0.7180  1.7631  1.3000
17738SOL     OW64432   3.440   2.010   1.090 -0.0070  0.1392  0.1496
17738SOL    HW164433   3.424   2.077   1.162 -1.3452 -0.9282  0.8611
17738SOL    HW264434   3.360   1.952   1.080  1.0903 -1.2885 -0.5352
17739SOL     OW64435   9.904   8.089   4.850 -0.0956  0.2898  0.8861
17739SOL    HW164436   9.966   8.019   4.886  0.5717  1.2930  1.7058
17739SOL    HW264437   9.948   8.179   4.856 -2.2750  1.2521  3.0296
17740SOL     OW64438   7.271   1.720   2.258 -0.1273  0.0644 -0.4274
17740SOL    HW164439   7.242   1.651   2.191  0.1789  0.0053 -0.5016
17740SOL    HW264440   7.364   1.700   2.287  0.8633  1.8301 -2.2826
17741SOL     OW64441   0.095   9.853   3.917 -0.1685 -0.3458 -0.1624
17741SOL    HW164442   0.004   9.893   3.929  0.5052  0.6716  1.7611
17741SOL    HW264443   0.144   9.903   3.846  0.3066  1.7316  1.5477
17742SOL     OW64444   3.373   3.417   1.666 -0.8678  0.1307 -0.3242
17742SOL    HW164445   3.293   3.361   1.643 -0.0614 -1.8283  1.4520
17742SOL    HW264446   3.369   3.504   1.616 -1.6331 -1.8984 -3.9757
17743SOL     OW64447   3.710   8.053   3.648  0.4579 -0.4682  0.1475
17743SOL    HW164448   3.657   7.971   3.628  0.0401 -0.2219  0.2590
17743SOL    HW264449   3.807   8.028   3.659  0.0935 -1.1837  1.7996
17744SOL     OW64450   0.433   3.121   5.603  0.1361  0.2506  0.2736
17744SOL    HW164451   0.525   3.153   5.581  0.4311  0.0289  1.1776
17744SOL    HW264452   0.374   3.133   5.523  1.0915 -0.1450 -0.5002
17745SOL     OW64453   4.816   0.406   2.880  0.3365 -0.1346  0.1704
17745SOL    HW164454   4.822   0.479   2.948  0.3165  1.0070 -1.0457
17745SOL    HW264455   4.744   0.342   2.906  0.3652  0.2664  1.2485
17746SOL     OW64456   3.595   1.636   4.213  0.4958  0.0425  0.2097
17746SOL    HW164457   3.520   1.570   4.225 -0.4320  0.9977 -0.2356
17746SOL    HW264458   3.661   1.625   4.287  0.5945 -1.7086 -0.1266
17747SOL     OW64459   9.877   3.961   0.394 -0.2625 -0.5871  0.4866
17747SOL    HW164460   9.881   3.968   0.494  0.2153 -0.9115  0.4918
17747SOL    HW264461   9.908   3.870   0.366 -0.6678 -0.5945  0.0614
17748SOL     OW64462   0.516   3.468   1.036 -0.3556 -0.1655 -0.0924
17748SOL    HW164463   0.516   3.568   1.043  1.8337 -0.2032  0.8091
17748SOL    HW264464   0.527   3.428   1.128  0.5759 -1.1929 -0.6427
17749SOL     OW64465   5.056   8.902   3.991  0.0142 -0.0728  0.2860
17749SOL    HW164466   5.011   8.963   3.925 -1.5977 -0.4988  0.9645
17749SOL    HW264467   5.155   8.908   3.979 -0.2507 -0.1445 -2.1761
17750SOL     OW64468   0.873   4.191   0.520  0.0473  0.1980  0.0678
17750SOL    HW164469   0.894   4.153   0.429  0.7022  1.1367 -0.1840
17750SOL    HW264470   0.781   4.230   0.519 -0.3933 -0.8355  0.1508
17751SOL     OW64471   4.007   1.151   5.236 -0.1408  0.5410  0.7901
17751SOL    HW164472   4.047   1.095   5.309 -2.0907  0.2051  1.6127
17751SOL    HW264473   3.911   1.168   5.255  0.0783  3.0334 -0.1635
17752SOL     OW64474   0.186   2.529   4.895 -0.5922 -0.1402  0.0353
17752SOL    HW164475   0.184   2.624   4.928 -0.5757  0.6409 -2.1538
17752SOL    HW264476   0.217   2.469   4.969  3.6229  2.0832  0.2634
17753SOL     OW64477   1.841   5.439   0.523  0.0832  0.0558  0.3139
17753SOL    HW164478   1.796   5.362   0.478 -0.4036  0.1936  0.5628
17753SOL    HW264479   1.773   5.494   0.572  0.2472  1.3316 -0.8633
17754SOL     OW64480   0.511   1.866   1.357 -0.3322 -0.4299 -0.4837
17754SOL    HW164481   0.455   1.825   1.285  0.0837  0.9254 -1.6046
17754SOL    HW264482   0.593   1.810   1.371 -0.4327 -0.7219 -1.0405
17755SOL     OW64483   9.071   4.842   5.885 -0.1681 -0.2809  0.1906
17755SOL    HW164484   9.113   4.752   5.893  3.2020  1.2301  0.2477
17755SOL    HW264485   9.129   4.902   5.830 -2.4071  1.8468  0.0309
17756SOL     OW64486   7.414   2.115   2.086 -0.3198  0.1208 -0.2787
17756SOL    HW164487   7.489   2.158   2.136 -0.1813 -0.4497  0.0084
17756SOL    HW264488   7.431   2.121   1.988  0.5507 -0.8312 -0.1858
17757SOL     OW64489   9.903   9.629   2.299 -0.3967 -0.6356  0.5426
17757SOL    HW164490   9.808   9.609   2.273 -0.3049 -0.6636  0.2217
17757SOL    HW264491   9.908   9.647   2.397 -0.9515  0.6442  0.3384
17758SOL     OW64492   2.785   6.685   4.664  0.3464  0.9395 -0.3717
17758SOL    HW164493   2.857   6.694   4.595  0.2351 -0.3679 -0.6699
17758SOL    HW264494   2.733   6.602   4.647  0.7888  0.1955  1.7420
17759SOL     OW64495   9.113   6.190   6.015 -0.2058  0.3417  0.1601
17759SOL    HW164496   9.194   6.131   6.023  0.0339  0.4824 -1.1031
17759SOL    HW264497   9.143   6.285   6.007 -0.4903  0.3602 -0.6463
17760SOL     OW64498   1.941   6.417   5.029  0.0212 -0.1987 -0.0997
17760SOL    HW164499   2.025   6.468   5.046 -0.8884  0.8448  1.3937
17760SOL    HW264500   1.863   6.468   5.066 -1.2516 -1.2195 -1.3279
17761SOL     OW64501   2.656   6.281   8.109  0.1547 -0.5846  0.2072
17761SOL    HW164502   2.619   6.371   8.088  0.5467 -1.1558 -3.1551
17761SOL    HW264503   2.609   6.211   8.055  2.7662 -1.8992 -0.4478
17762SOL     OW64504   8.834   1.173   1.536  0.5576 -0.6318 -0.5177
17762SOL    HW164505   8.796   1.243   1.475 -0.5878 -1.7669 -1.1201
17762SOL    HW264506   8.923   1.143   1.501  0.8679  0.2347 -0.4749
17763SOL     OW64507   4.127   1.358   3.408  0.1619  0.1267 -0.5493
17763SOL    HW164508   4.148   1.441   3.356 -0.5052 -0.6395 -2.0980
17763SOL    HW264509   4.167   1.279   3.362 -0.4961 -0.5822  0.0833
17764SOL     OW64510   3.814   5.508   2.022  0.5712  0.7107  0.2403
17764SOL    HW164511   3.893   5.463   1.979  1.4535 -0.0933  2.6410
17764SOL    HW264512   3.734   5.449   2.015  0.5650  0.8290 -0.7720
17765SOL     OW64513   5.719   0.111   2.038 -0.4594 -0.4629  0.1895
17765SOL    HW164514   5.702   0.205   2.068  2.3262 -0.8813  3.4211
17765SOL    HW264515   5.637   0.056   2.052 -1.0991  0.7586  1.3698
17766SOL     OW64516   2.023   7.300   8.087  0.2427  0.2376  0.9501
17766SOL    HW164517   2.096   7.339   8.032 -0.6405 -0.6601 -0.9021
17766SOL    HW264518   1.945   7.361   8.088 -0.2707 -0.3824 -0.0138
17767SOL     OW64519   8.630   5.756   0.904 -0.3930  0.8002 -0.2511
17767SOL    HW164520   8.540   5.779   0.866  0.5693  2.0583 -1.8481
17767SOL    HW264521   8.661   5.670   0.864 -1.5733 -0.4651  1.5163
17768SOL     OW64522   3.558   2.712   3.072 -0.6567  0.0696 -0.0056
17768SOL    HW164523   3.642   2.685   3.120 -1.0282  0.6922  0.9950
17768SOL    HW264524   3.519   2.632   3.026  0.6600 -0.1604 -0.7558
17769SOL     OW64525   3.791   4.131   3.299  0.5659 -0.3686 -0.3121
17769SOL    HW164526   3.725   4.199   3.330 -1.4678 -2.3261 -0.2667
17769SOL    HW264527   3.880   4.151   3.340 -0.4675  1.0500  1.3419
17770SOL     OW64528   7.264   9.458   6.022  0.2321 -0.2636 -0.0574
17770SOL    HW164529   7.337   9.526   6.031  1.0685 -1.0723 -0.5465
17770SOL    HW264530   7.239   9.424   6.113  1.1095 -0.6320  0.0504
17771SOL     OW64531   9.678   8.311   6.151  0.2704  0.0387  0.0465
17771SOL    HW164532   9.712   8.380   6.087  1.3039  0.6578  1.2516
17771SOL    HW264533   9.745   8.297   6.224 -0.1527 -1.8911  0.0796
17772SOL     OW64534   3.557   1.072   0.741 -0.5695  0.4269 -0.7034
17772SOL    HW164535   3.473   1.038   0.782 -1.4053  1.1475 -1.7919
17772SOL    HW264536   3.623   1.094   0.814 -1.9328  1.4568  0.2579
17773SOL     OW64537   5.867   2.599   0.140 -0.1693  0.3328  0.2631
17773SOL    HW164538   5.943   2.564   0.086 -0.3325 -2.0639  1.5238
17773SOL    HW264539   5.902   2.649   0.219  0.0974 -0.0143  0.3652
17774SOL     OW64540   3.328   1.827   2.304  0.5391  0.0192 -0.3071
17774SOL    HW164541   3.337   1.732   2.273  3.1304  0.1608 -0.0928
17774SOL    HW264542   3.354   1.889   2.230  0.4343  0.5196  0.0729
17775SOL     OW64543   6.773   1.729   3.597  0.9582 -0.1780 -0.1475
17775SOL    HW164544   6.868   1.725   3.564  0.5644  3.3080 -1.8770
17775SOL    HW264545   6.767   1.793   3.674 -0.1310  0.2814 -0.6037
17776SOL     OW64546   9.777   5.651   0.697  0.1416  0.1866  0.0286
17776SOL    HW164547   9.704   5.719   0.683 -0.2786 -0.0118  1.1830
17776SOL    HW264548   9.786   5.632   0.795  1.0795 -0.5271 -0.1949
17777SOL     OW64549   8.781   6.561   1.511 -0.0630  0.2684  0.0709
17777SOL    HW164550   8.849   6.519   1.451 -0.0809 -1.5156  1.2588
17777SOL    HW264551   8.715   6.612   1.456  0.3190 -0.7680 -1.3715
17778SOL     OW64552   1.259   4.646   2.567 -0.5416 -0.3559 -0.1380
17778SOL    HW164553   1.290   4.738   2.590  0.5548 -0.1768 -2.1792
17778SOL    HW264554   1.160   4.647   2.553 -0.7413  0.1967  1.2189
17779SOL     OW64555   4.548   1.277   2.334 -0.0777 -0.6443  0.0944
17779SOL    HW164556   4.531   1.259   2.431  3.7406  0.0832  0.9905
17779SOL    HW264557   4.592   1.197   2.292  0.0643 -0.2379 -0.5442
17780SOL     OW64558   9.306   5.743   1.162 -0.0857 -0.2580  0.4325
17780SOL    HW164559   9.286   5.839   1.143  1.1131  0.1647  1.2513
17780SOL    HW264560   9.275   5.687   1.085  0.3897  0.9190 -0.6349
17781SOL     OW64561   7.631   1.161   6.647  0.4812 -0.1032 -0.0710
17781SOL    HW164562   7.584   1.149   6.559  3.4935 -1.6064 -1.5511
17781SOL    HW264563   7.662   1.256   6.655 -0.6061  0.2732 -0.1930
17782SOL     OW64564   9.881   6.648   5.337 -0.3907  0.3729 -0.2372
17782SOL    HW164565   9.953   6.718   5.338 -0.2538  0.2487 -1.7625
17782SOL    HW264566   9.912   6.568   5.388  0.2231  0.6286 -0.2009
17783SOL     OW64567   4.689   0.904   2.766  0.2553  0.5999  0.2711
17783SOL    HW164568   4.785   0.875   2.771  0.6557  1.7173 -0.7552
17783SOL    HW264569   4.663   0.946   2.853 -0.0164 -1.7955  1.3985
17784SOL     OW64570   7.844   6.858   1.115 -0.2066 -0.0731 -0.2800
17784SOL    HW164571   7.843   6.828   1.020  0.6514 -1.2070  0.0491
17784SOL    HW264572   7.867   6.955   1.120  0.3580 -0.1547 -1.2016
17785SOL     OW64573   9.740   6.127   4.729  0.2693 -0.5070 -0.2874
17785SOL    HW164574   9.797   6.121   4.647  0.8429  0.0449  0.0700
17785SOL    HW264575   9.793   6.098   4.808  0.5143  1.4205  0.2650
17786SOL     OW64576   0.672   1.289   1.571  0.3191 -0.1057 -0.2311
17786SOL    HW164577   0.607   1.218   1.546  0.0120 -0.0366  0.3560
17786SOL    HW264578   0.731   1.255   1.644 -0.2836  0.4788  0.5352
17787SOL     OW64579   2.344   4.000   2.548  0.0218  0.0696  0.2992
17787SOL    HW164580   2.346   3.901   2.541 -0.9048  0.0935 -0.3649
17787SOL    HW264581   2.258   4.029   2.590  0.8667  0.5228  1.7572
17788SOL     OW64582   5.573   4.377   8.080  0.4960  0.3958  0.4563
17788SOL    HW164583   5.590   4.444   8.008  0.1596  1.4188  1.3391
17788SOL    HW264584   5.657   4.362   8.132  1.6391 -2.6535 -2.0583
17789SOL     OW64585   3.936   7.522   2.498  0.6693 -0.0431 -0.0024
17789SOL    HW164586   3.860   7.532   2.562 -0.4356 -0.7433 -1.1953
17789SOL    HW264587   4.004   7.460   2.537 -0.1698 -0.7562  0.3197
17790SOL     OW64588   0.952   2.519   1.267  0.1619  0.9534 -0.2094
17790SOL    HW164589   0.877   2.486   1.209 -1.4309  1.6615  1.4134
17790SOL    HW264590   1.039   2.505   1.219 -0.8171 -1.5810 -1.3560
17791SOL     OW64591   6.553   7.087   5.438 -0.3510 -0.1405 -0.5418
17791SOL    HW164592   6.537   7.041   5.350 -1.6883 -0.0373 -0.3629
17791SOL    HW264593   6.593   7.021   5.502 -0.1133 -0.4316 -0.9823
17792SOL     OW64594   0.995   3.805   2.807  0.3893  0.3154  0.1943
17792SOL    HW164595   1.081   3.791   2.759 -0.0825 -0.9632 -0.2973
17792SOL    HW264596   0.924   3.747   2.767 -0.3211  0.1666  1.6039
17793SOL     OW64597   4.673   9.911   7.077 -0.7614 -0.1007  0.2939
17793SOL    HW164598   4.767   9.887   7.052 -1.7594 -1.3886 -2.3585
17793SOL    HW264599   4.641   9.852   7.151  0.0416 -0.5858  0.2527
17794SOL     OW64600   6.849   8.268   5.304 -0.0898  0.1425  0.3040
17794SOL    HW164601   6.942   8.284   5.272  0.1547  1.0719  1.4343
17794SOL    HW264602   6.794   8.231   5.229  0.8967  0.6185 -0.6776
17795SOL     OW64603   2.531   1.548   1.975  0.2352 -0.1772  0.5471
17795SOL    HW164604   2.605   1.507   1.922  0.1807 -2.0914  1.8908
17795SOL    HW264605   2.467   1.477   2.005 -0.1395  0.9345  2.5226
17796SOL     OW64606   1.052   6.224   2.301 -0.0039  0.6972 -0.1764
17796SOL    HW164607   1.099   6.296   2.351 -0.7867  0.6625  0.6117
17796SOL    HW264608   0.989   6.265   2.235  1.7294  0.7599 -1.8548
17797SOL     OW64609   3.892   4.578   1.176 -0.1598  0.5819 -0.0123
17797SOL    HW164610   3.856   4.578   1.269 -0.0775  0.6607  0.0202
17797SOL    HW264611   3.839   4.515   1.119 -1.0687  1.5272 -0.2349
17798SOL     OW64612   8.794   5.167   0.569 -0.0384  0.0140 -0.2594
17798SOL    HW164613   8.756   5.143   0.480 -0.1295  2.0362 -0.7934
17798SOL    HW264614   8.868   5.233   0.557  0.5867 -0.4153  1.1020
17799SOL     OW64615   2.578   4.639   4.344  0.3361  0.3970  0.3989
17799SOL    HW164616   2.547   4.692   4.422 -1.7693 -0.1659 -0.0340
17799SOL    HW264617   2.607   4.548   4.373 -0.4976  0.1703  0.5207
17800SOL     OW64618   8.824   5.431   1.423  0.2144 -0.1311  0.5080
17800SOL    HW164619   8.728   5.405   1.410 -0.3311  2.2322 -0.5202
17800SOL    HW264620   8.836   5.472   1.514  0.1979 -0.1756  0.5303
17801SOL     OW64621   5.046   8.012   4.310 -0.5983 -0.5489 -0.3655
17801SOL    HW164622   5.110   7.936   4.303 -0.4909 -0.6679  1.6754
17801SOL    HW264623   4.958   7.984   4.272  0.1891 -0.7756 -2.0889
17802SOL     OW64624   1.265   8.819   3.243 -0.4528 -0.2866  0.2765
17802SOL    HW164625   1.356   8.861   3.245 -0.8768  0.6566  0.0258
17802SOL    HW264626   1.255   8.767   3.158  0.0316 -0.8033  0.5329
17803SOL     OW64627   4.365   8.547   2.483  0.1357 -0.0799 -0.0464
17803SOL    HW164628   4.274   8.582   2.503  0.7286  0.8718  1.0696
17803SOL    HW264629   4.373   8.453   2.515 -0.8532 -0.6181 -1.3176
17804SOL     OW64630   5.360   2.433   2.649  0.2204 -0.1673 -0.4919
17804SOL    HW164631   5.387   2.505   2.713  0.1021 -0.7310  0.2013
17804SOL    HW264632   5.312   2.474   2.572 -2.1029  0.2747  1.1291
17805SOL     OW64633   1.612   6.104   0.386  0.0243  0.3051 -0.3937
17805SOL    HW164634   1.683   6.077   0.321  1.5309  0.7614  1.0116
17805SOL    HW264635   1.617   6.203   0.401 -0.9806  0.3566 -0.3661
17806SOL     OW64636   2.205   7.952   3.472 -0.0906 -0.3154 -0.2326
17806SOL    HW164637   2.128   7.971   3.534 -0.6184 -1.0367 -0.6645
17806SOL    HW264638   2.213   7.854   3.457  1.2186 -0.2810  0.1778
17807SOL     OW64639   3.255   6.735   3.536  0.3292 -0.4190  0.0444
17807SOL    HW164640   3.268   6.677   3.616  0.0123 -0.0542  0.3669
17807SOL    HW264641   3.312   6.703   3.461  0.8433 -0.5915  0.5082
17808SOL     OW64642   2.516   9.580   0.384  0.3914  0.3934  0.0419
17808SOL    HW164643   2.470   9.663   0.351 -0.5003 -1.0000 -2.3930
17808SOL    HW264644   2.611   9.601   0.406  0.1625  2.0790 -0.4818
17809SOL     OW64645   9.216   9.091   0.647  0.7141  0.2257  0.0822
17809SOL    HW164646   9.216   8.993   0.663  2.9910  0.0893 -0.5816
17809SOL    HW264647   9.159   9.112   0.568 -0.7860 -0.4119  0.9834
17810SOL     OW64648   4.110   7.271   3.020  0.0586  0.2432 -0.0765
17810SOL    HW164649   4.062   7.321   3.092  0.5283 -0.8758  1.0225
17810SOL    HW264650   4.207   7.296   3.021  0.1117  0.0437 -0.1611
17811SOL     OW64651   3.350   2.102   3.578  0.1472  0.2925  0.3868
17811SOL    HW164652   3.308   2.018   3.614  0.1825 -0.1644 -0.6213
17811SOL    HW264653   3.293   2.139   3.504 -0.0674  1.3762  1.0798
17812SOL     OW64654   4.171   8.854   1.662  0.1084 -0.0715 -0.5498
17812SOL    HW164655   4.237   8.882   1.731 -0.2581 -1.2651  0.2904
17812SOL    HW264656   4.172   8.754   1.653  0.1304  0.0584 -2.2407
17813SOL     OW64657   7.216   0.373   2.328  0.4782 -0.1955  0.4267
17813SOL    HW164658   7.211   0.273   2.335  1.8510 -0.3969 -1.2586
17813SOL    HW264659   7.158   0.404   2.253  2.1702  0.0253 -0.7982
17814SOL     OW64660   7.527   6.949   5.500  0.0461 -0.3516  0.0723
17814SOL    HW164661   7.577   6.993   5.426 -0.1167  1.2020  0.8645
17814SOL    HW264662   7.531   6.850   5.489  2.4390 -0.2323 -0.4454
17815SOL     OW64663   5.743   9.622   4.145  0.8318 -0.2373  0.3428
17815SOL    HW164664   5.805   9.700   4.152  0.3824  0.2667 -1.1113
17815SOL    HW264665   5.724   9.603   4.049 -1.1369 -0.4992  0.7717
17816SOL     OW64666   0.658   9.365   3.735 -0.1009  0.0631 -0.5944
17816SOL    HW164667   0.753   9.336   3.747 -0.3761 -1.1595 -1.2374
17816SOL    HW264668   0.653   9.465   3.738  0.8698  0.0728  1.7489
17817SOL     OW64669   8.282   7.416   1.333 -0.1622 -0.4871 -0.7139
17817SOL    HW164670   8.296   7.374   1.243  0.5682  1.0202 -1.3279
17817SOL    HW264671   8.302   7.349   1.404  0.4932 -1.3346 -1.6753
17818SOL     OW64672   6.334   0.945   2.418  0.0800  0.2766 -0.2025
17818SOL    HW164673   6.422   0.908   2.388  0.2909  2.1648 -2.0261
17818SOL    HW264674   6.336   0.959   2.517  1.3556 -0.8704 -0.0448
17819SOL     OW64675   9.772   4.805   3.074  0.9831 -0.3125  0.5843
17819SOL    HW164676   9.804   4.821   2.980  0.0714  2.5865  0.7287
17819SOL    HW264677   9.812   4.874   3.134 -1.3806  0.1059  1.6905
17820SOL     OW64678   5.910   9.048   4.247  0.5603 -0.3804 -0.0920
17820SOL    HW164679   5.909   9.018   4.342 -0.4881  0.5699  0.2014
17820SOL    HW264680   5.935   9.145   4.242  1.1834 -0.5666 -0.8307
17821SOL     OW64681   1.216   3.327   4.221  0.1309 -0.4130  0.3686
17821SOL    HW164682   1.269   3.343   4.138  1.0762  0.7221  1.1692
17821SOL    HW264683   1.253   3.247   4.269 -0.5019 -1.1488 -0.3603
17822SOL     OW64684   9.529   6.928   6.025 -0.2637 -0.5397  0.1656
17822SOL    HW164685   9.480   6.879   6.097 -0.1457 -1.4146 -0.3481
17822SOL    HW264686   9.496   7.022   6.021  0.8135 -0.0306  2.4064
17823SOL     OW64687   8.112   3.820   3.801  0.1493 -0.0291 -0.3130
17823SOL    HW164688   8.061   3.775   3.727  0.7051  0.5906 -1.0729
17823SOL    HW264689   8.131   3.915   3.776  2.4447 -0.4886 -0.4289
17824SOL     OW64690   0.674   7.624   0.856  0.6099  0.5496 -0.2320
17824SOL    HW164691   0.610   7.561   0.813  2.9922 -2.1617  0.0810
17824SOL    HW264692   0.666   7.714   0.813 -0.7008 -0.7515 -2.8119
17825SOL     OW64693   0.027   6.790   3.231  0.0172 -0.2999  0.4370
17825SOL    HW164694  -0.016   6.868   3.278 -0.8183 -0.2323 -0.4211
17825SOL    HW264695   0.127   6.802   3.232 -0.0531  0.2858  1.1638
17826SOL     OW64696   0.999   2.508   1.609  0.0602  0.4498  0.7158
17826SOL    HW164697   1.097   2.526   1.618  0.3318 -0.9803  0.8036
17826SOL    HW264698   0.956   2.579   1.553  1.2804  0.6607  0.0491
17827SOL     OW64699   1.534   1.564   4.477  0.2265 -0.1144  0.4403
17827SOL    HW164700   1.542   1.660   4.448 -0.1735 -0.2199 -0.0244
17827SOL    HW264701   1.447   1.552   4.526  0.8981  0.0652  1.7089
17828SOL     OW64702   1.028   9.809   3.595  0.2509  0.6756 -0.0948
17828SOL    HW164703   0.995   9.895   3.632  0.8745  0.0634  1.9445
17828SOL    HW264704   1.127   9.802   3.608 -0.1655 -1.5122  2.2721
17829SOL     OW64705   5.425   4.118   1.313  0.9899 -0.5927 -0.0280
17829SOL    HW164706   5.468   4.115   1.403  0.5540 -1.8893  0.1554
17829SOL    HW264707   5.336   4.163   1.320  2.2170  2.0112 -0.3921
17830SOL     OW64708   1.343   5.308   2.397 -0.3717  0.2996 -0.6637
17830SOL    HW164709   1.350   5.287   2.495  0.1654  1.3023 -0.4793
17830SOL    HW264710   1.428   5.281   2.351  0.3792  2.1531 -0.3991
17831SOL     OW64711   9.411   8.932   0.388  0.5965  0.0948  0.3239
17831SOL    HW164712   9.343   8.924   0.461 -0.0691 -1.0208 -0.3934
17831SOL    HW264713   9.420   9.028   0.361 -0.1555  0.3457  0.9331
17832SOL     OW64714   0.100   1.803   3.278 -0.2794  0.7308 -0.0870
17832SOL    HW164715   0.041   1.729   3.245  0.2424 -0.0551  0.7439
17832SOL    HW264716   0.057   1.846   3.357 -0.9238  1.7934 -0.9980
17833SOL     OW64717   3.332   3.549   0.335 -0.3094  0.7428  0.3815
17833SOL    HW164718   3.389   3.496   0.272 -1.0168 -1.3235  1.4337
17833SOL    HW264719   3.304   3.635   0.292  2.1580  0.9946 -0.7810
17834SOL     OW64720   0.130   8.921   1.483  0.0802  0.1032  0.1953
17834SOL    HW164721   0.041   8.955   1.513 -0.1964  1.1809 -1.7411
17834SOL    HW264722   0.196   8.928   1.558 -1.2235  0.2051  1.3417
17835SOL     OW64723   9.475   5.464   5.463 -0.5454 -0.3378 -0.2378
17835SOL    HW164724   9.404   5.401   5.496 -0.8716 -0.4399 -1.1181
17835SOL    HW264725   9.440   5.557   5.466 -0.9688 -0.4540 -1.3091
17836SOL     OW64726   9.834   1.710   2.473  0.3140 -0.0832 -0.3060
17836SOL    HW164727   9.840   1.707   2.573  0.0712 -0.4425 -0.3023
17836SOL    HW264728   9.808   1.803   2.444 -0.7362 -0.2662  0.0237
17837SOL     OW64729   3.521   3.995   0.261 -0.3535  0.0088  0.1772
17837SOL    HW164730   3.591   3.946   0.313 -0.6076 -1.1853 -0.5610
17837SOL    HW264731   3.557   4.017   0.170 -0.9216 -0.6317 -0.2138
17838SOL     OW64732   3.007   3.639   0.418  0.3538 -0.3391  0.2886
17838SOL    HW164733   3.063   3.651   0.501 -2.5610 -0.1285  2.3226
17838SOL    HW264734   2.954   3.555   0.426 -1.0982  0.4793 -0.6886
17839SOL     OW64735   7.530   1.975   2.668  0.9164 -0.0236  0.4746
17839SOL    HW164736   7.547   1.877   2.669 -0.2434 -0.2300  1.9747
17839SOL    HW264737   7.437   1.992   2.634  0.7094  0.4852  1.2952
17840SOL     OW64738   3.384   9.133   2.967  0.0261  0.1860 -0.6706
17840SOL    HW164739   3.438   9.183   2.899 -0.1308 -1.0199 -1.6999
17840SOL    HW264740   3.298   9.103   2.926 -0.7105  0.6580  0.4858
17841SOL     OW64741   3.037   9.898   4.120  0.1386  0.1373  0.3228
17841SOL    HW164742   3.026   9.884   4.218  0.7773 -0.6898  0.2768
17841SOL    HW264743   3.134   9.912   4.099 -0.0584  0.8778 -0.1189
17842SOL     OW64744   6.978   9.935   4.827 -0.6651 -0.0701 -0.4456
17842SOL    HW164745   6.962   9.900   4.735  0.1706 -0.0679 -0.5938
17842SOL    HW264746   6.905   9.999   4.851 -2.0192 -1.6101 -0.3095
17843SOL     OW64747   7.988   8.884   4.264 -0.0661 -0.5404 -0.0238
17843SOL    HW164748   8.019   8.801   4.218  0.5641  0.5509 -1.5847
17843SOL    HW264749   7.898   8.910   4.229 -1.2424 -1.7242  1.9856
17844SOL     OW64750   6.551   9.955   6.746 -0.2227 -0.2971 -0.0254
17844SOL    HW164751   6.546  10.053   6.761  0.6100 -0.2732  0.1167
17844SOL    HW264752   6.498   9.930   6.665  2.6625  0.7799 -2.3159
17845SOL     OW64753   1.425   0.421   2.970 -0.2598  0.2523 -0.3945
17845SOL    HW164754   1.362   0.431   2.892  1.6713  2.2502 -1.7623
17845SOL    HW264755   1.489   0.347   2.952 -0.4095  0.0923 -0.2731
17846SOL     OW64756   3.756   1.320   2.329 -0.3119 -0.0969 -0.3418
17846SOL    HW164757   3.849   1.286   2.320 -0.4964 -1.1625  1.4654
17846SOL    HW264758   3.757   1.417   2.353  0.3146 -0.0793 -0.4458
17847SOL     OW64759   7.767   0.690   1.530 -0.2572  0.3720 -0.0587
17847SOL    HW164760   7.712   0.769   1.558  1.8983  1.6850  0.6030
17847SOL    HW264761   7.794   0.639   1.611 -1.3182 -0.8379 -0.4597
17848SOL     OW64762   6.176   9.739   4.452  0.1737  0.6169 -0.5281
17848SOL    HW164763   6.228   9.674   4.508 -0.1038 -1.3606 -2.5032
17848SOL    HW264764   6.232   9.771   4.376 -1.2136 -1.0811 -2.3322
17849SOL     OW64765   0.547   9.206   4.440 -0.2193  0.1048 -0.2376
17849SOL    HW164766   0.509   9.117   4.416 -1.1805  1.3567 -3.6295
17849SOL    HW264767   0.606   9.238   4.366 -0.0085  2.3625  0.8744
17850SOL     OW64768   0.186   9.069   0.784 -0.0202 -0.4132  0.1433
17850SOL    HW164769   0.138   9.061   0.872  0.8977 -0.9496  0.6005
17850SOL    HW264770   0.119   9.078   0.711 -0.8064 -0.4173  0.8527
17851SOL     OW64771   2.044   3.356   1.434 -0.1000  0.3222  0.0648
17851SOL    HW164772   2.118   3.337   1.499  0.7588  0.4511 -0.8742
17851SOL    HW264773   2.082   3.387   1.347 -1.2226 -0.4133 -0.7026
17852SOL     OW64774   4.293   8.300   3.201  0.1195 -0.0827 -0.5126
17852SOL    HW164775   4.255   8.235   3.135 -1.5659  0.4726 -0.1110
17852SOL    HW264776   4.218   8.350   3.245  1.3609  1.6646 -0.3497
17853SOL     OW64777   9.512   7.463   2.519 -0.3309 -0.5687 -0.3892
17853SOL    HW164778   9.546   7.552   2.491 -0.0065 -0.7851 -0.6793
17853SOL    HW264779   9.425   7.445   2.472 -1.4191  0.4676  1.2086
17854SOL     OW64780   9.240   6.986   3.448  0.5792  0.5866 -0.3265
17854SOL    HW164781   9.314   7.052   3.461  0.0799  0.7820  1.6473
17854SOL    HW264782   9.278   6.894   3.446  0.7853  0.5770  2.0593
17855SOL     OW64783   2.885   6.507   5.694  0.0110  0.1901  0.3351
17855SOL    HW164784   2.806   6.565   5.714  1.6881  2.6733 -0.0660
17855SOL    HW264785   2.853   6.415   5.671 -2.8053  1.3860 -0.7785
17856SOL     OW64786   6.675   7.710   6.844 -0.4686  0.3662  0.0966
17856SOL    HW164787   6.691   7.743   6.937 -1.2071  1.2812 -0.0957
17856SOL    HW264788   6.753   7.734   6.786 -0.2671  0.3049  0.3436
17857SOL     OW64789   2.295   2.280   3.336 -0.0642  0.0405 -0.1107
17857SOL    HW164790   2.355   2.320   3.267  0.3329 -0.4771 -0.0715
17857SOL    HW264791   2.336   2.293   3.427 -0.2234  0.0790 -0.0459
17858SOL     OW64792   2.902   8.579   1.269  0.2444  0.4744 -0.2483
17858SOL    HW164793   2.804   8.584   1.287  0.3375 -0.1050  0.4333
17858SOL    HW264794   2.944   8.668   1.290  0.3861 -0.2413  2.6353
17859SOL     OW64795   7.433   3.337   0.623  0.0872 -0.1717 -0.1114
17859SOL    HW164796   7.455   3.369   0.715 -2.2109  1.9436 -0.2457
17859SOL    HW264797   7.338   3.306   0.619  0.1881 -0.3339 -1.7444
17860SOL     OW64798   3.421   1.248   1.032 -0.9408 -0.4405 -0.3682
17860SOL    HW164799   3.392   1.321   1.094 -0.9342 -0.9949  0.2965
17860SOL    HW264800   3.362   1.168   1.045 -0.4784 -0.8130 -0.5591
17861SOL     OW64801   6.361   1.742   3.920  0.2414  0.3296  0.6423
17861SOL    HW164802   6.332   1.709   4.010  2.4971 -1.6174  0.7067
17861SOL    HW264803   6.416   1.672   3.875  1.2278  2.2476 -1.2386
17862SOL     OW64804   9.089   2.928   5.719  0.4750 -0.1708  0.4426
17862SOL    HW164805   9.007   2.874   5.707  0.0290  0.8597 -1.3826
17862SOL    HW264806   9.165   2.869   5.746 -0.4642 -1.3644  0.4944
17863SOL     OW64807   4.855   6.774   1.462  0.6012  0.3367 -0.3951
17863SOL    HW164808   4.881   6.744   1.370  1.5443 -0.4675  0.1222
17863SOL    HW264809   4.937   6.781   1.519  0.0205  0.8263  0.3823
17864SOL     OW64810   5.977   5.277   0.566 -0.5119  0.0948  0.1330
17864SOL    HW164811   6.038   5.201   0.588 -1.1050 -0.8765 -1.5234
17864SOL    HW264812   5.905   5.246   0.504  1.3795  2.7775 -3.6769
17865SOL     OW64813   1.139   0.510   2.082 -0.1236  0.0853  0.1872
17865SOL    HW164814   1.053   0.459   2.078 -0.6374  0.9852 -0.2237
17865SOL    HW264815   1.185   0.505   1.994  0.1380 -0.1834  0.3339
17866SOL     OW64816   7.900   0.067   3.975 -0.5908  0.0080  0.5318
17866SOL    HW164817   7.992   0.073   3.935 -0.2607  1.1464  1.4303
17866SOL    HW264818   7.894   0.130   4.052 -1.9285 -0.5471  0.8812
17867SOL     OW64819   9.766   6.244   0.547  0.4033  0.0366 -0.3005
17867SOL    HW164820   9.839   6.225   0.612 -0.0766 -0.0624  0.2160
17867SOL    HW264821   9.700   6.307   0.589 -2.2780 -3.4573  1.0134
17868SOL     OW64822   4.550   8.941   1.439 -0.3088 -0.3075 -0.1952
17868SOL    HW164823   4.552   8.842   1.449 -3.2934 -0.3767  0.0464
17868SOL    HW264824   4.467   8.968   1.391 -0.8298  2.2557  2.0289
17869SOL     OW64825   1.906   0.727   1.057  0.2982 -0.0995  0.0547
17869SOL    HW164826   1.975   0.737   0.985  0.8623  0.3837  0.6545
17869SOL    HW264827   1.942   0.763   1.143 -0.9811  0.8777  0.2076
17870SOL     OW64828   9.131   2.306   5.474 -0.7691  0.5701  0.6636
17870SOL    HW164829   9.165   2.395   5.443 -1.6474  0.5989 -0.2424
17870SOL    HW264830   9.036   2.295   5.445 -1.3004  0.1611  2.4792
17871SOL     OW64831   5.311   5.745   1.251  0.1961 -0.1880 -0.0442
17871SOL    HW164832   5.252   5.825   1.239 -0.5001 -0.3857  1.8900
17871SOL    HW264833   5.295   5.705   1.342  3.0635 -0.4352  0.4024
17872SOL     OW64834   2.685   8.371   0.014 -0.3766 -0.4394  0.7260
17872SOL    HW164835   2.627   8.293  -0.011 -2.7240  1.5694 -0.3278
17872SOL    HW264836   2.629   8.454   0.018  1.9957  1.1390  2.2213
17873SOL     OW64837   3.117   3.955   0.103 -0.1425 -0.7775 -1.0200
17873SOL    HW164838   3.152   4.022   0.037 -1.1677 -0.4305 -1.2224
17873SOL    HW264839   3.191   3.895   0.132  0.7561  0.3246 -0.9792
17874SOL     OW64840   9.443   2.548   7.003 -0.1929 -0.1097 -0.4439
17874SOL    HW164841   9.350   2.574   6.977  0.4971  2.3632 -0.6153
17874SOL    HW264842   9.457   2.570   7.100 -0.1655 -1.6341 -0.0936
17875SOL     OW64843   2.640   0.757   1.538 -0.3801 -0.1430  0.4101
17875SOL    HW164844   2.606   0.850   1.544  0.1622  0.0901 -0.0958
17875SOL    HW264845   2.568   0.696   1.504 -0.6339  0.1455  0.4363
17876SOL     OW64846   0.233   9.776   5.380 -0.3662  0.0225 -0.1173
17876SOL    HW164847   0.329   9.802   5.386 -0.1684 -1.1100  1.8533
17876SOL    HW264848   0.225   9.683   5.344 -0.5553 -0.8739  2.1415
17877SOL     OW64849   1.833   7.336   3.985 -0.2691 -0.1659 -0.1241
17877SOL    HW164850   1.904   7.296   4.043 -0.3263 -2.1808 -1.4266
17877SOL    HW264851   1.874   7.370   3.900 -0.6316  0.1220 -0.1858
17878SOL     OW64852   9.132   3.879   1.209  0.2876  0.2979  0.1102
17878SOL    HW164853   9.097   3.959   1.259  1.3735 -0.0243  1.4376
17878SOL    HW264854   9.215   3.846   1.255 -0.2573 -1.7126 -0.3264
17879SOL     OW64855   0.560   6.924   3.232 -0.1808  0.2455 -0.4411
17879SOL    HW164856   0.578   6.962   3.323 -2.2763  1.3098 -0.4520
17879SOL    HW264857   0.621   6.846   3.217  2.2916  1.9073  0.6528
17880SOL     OW64858   2.439   0.695   3.276 -0.2950 -0.0706  0.3479
17880SOL    HW164859   2.489   0.781   3.263  0.4143 -0.2955  1.4938
17880SOL    HW264860   2.496   0.618   3.248 -1.0791 -0.1470 -1.0536
17881SOL     OW64861   1.356   1.049   5.708  0.0273 -0.8551  0.0249
17881SOL    HW164862   1.383   1.038   5.804 -1.1923  2.2868  0.7951
17881SOL    HW264863   1.418   0.997   5.650  1.7163 -1.5997  2.4152
17882SOL     OW64864   8.378   5.875   5.056  0.5662  0.5407 -0.1155
17882SOL    HW164865   8.349   5.781   5.037 -0.2231  0.3876  1.7407
17882SOL    HW264866   8.432   5.876   5.140 -0.9292  1.9917  0.8475
17883SOL     OW64867   3.068   0.760   4.659 -0.4846  0.4685  0.2641
17883SOL    HW164868   3.117   0.739   4.743 -2.2058  0.3294  1.2567
17883SOL    HW264869   3.024   0.849   4.667 -0.8621  0.3452 -0.4038
17884SOL     OW64870   2.873   0.857   2.481 -0.3515  0.1662  0.1385
17884SOL    HW164871   2.828   0.821   2.399 -0.3316  1.8597 -0.6453
17884SOL    HW264872   2.838   0.949   2.500  0.9059  0.4721  1.0200
17885SOL     OW64873   3.992   5.528   0.187 -0.3288  0.3711  0.0071
17885SOL    HW164874   4.065   5.519   0.255  0.4291 -0.4600 -0.8981
17885SOL    HW264875   3.905   5.501   0.227  0.0385  0.3228  0.7751
17886SOL     OW64876   2.124   8.059   2.090 -0.3917  0.1274 -0.8238
17886SOL    HW164877   2.120   7.976   2.146  3.7735  0.6164  0.3000
17886SOL    HW264878   2.119   8.140   2.149 -0.0633  0.6531 -1.5137
17887SOL     OW64879   1.285   8.230   5.913  0.0776  0.6941  0.0954
17887SOL    HW164880   1.292   8.212   6.011  0.2705  0.7825  0.0985
17887SOL    HW264881   1.301   8.146   5.862 -1.1154  0.4153  0.1680
17888SOL     OW64882   3.588   9.095   3.166  0.0524 -0.0465  0.5435
17888SOL    HW164883   3.511   9.134   3.115 -1.0990  1.1023  3.0616
17888SOL    HW264884   3.659   9.165   3.178  1.7946 -1.2569 -2.2440
17889SOL     OW64885   8.935   9.874   5.577  0.3531  0.5698  0.4955
17889SOL    HW164886   8.840   9.843   5.571  1.3907 -2.7038 -0.1622
17889SOL    HW264887   8.950   9.951   5.515 -1.7481  0.7958  0.2564
17890SOL     OW64888   9.543   9.538   0.911  0.1211 -0.7040  0.4738
17890SOL    HW164889   9.524   9.439   0.906 -0.7449 -0.4279 -2.5859
17890SOL    HW264890   9.616   9.561   0.847  1.0754  0.5042  1.9657
17891SOL     OW64891   8.594   3.440   2.458 -0.0082 -0.0936 -0.1186
17891SOL    HW164892   8.667   3.472   2.397 -0.5302 -0.3734 -0.9080
17891SOL    HW264893   8.601   3.341   2.470 -0.2427 -0.1181 -0.1787
17892SOL     OW64894   7.605   6.635   4.530 -0.9278  0.0218  0.0329
17892SOL    HW164895   7.561   6.721   4.502 -1.0406 -0.1751 -0.4038
17892SOL    HW264896   7.563   6.559   4.480 -0.7074 -0.2684  0.2882
17893SOL     OW64897   3.366   7.256   5.402  0.2442 -0.4337  0.4273
17893SOL    HW164898   3.381   7.354   5.413 -1.6173 -0.1952  1.0481
17893SOL    HW264899   3.341   7.237   5.307  1.3706 -0.4162  0.1249
17894SOL     OW64900   4.425   4.297   1.796  0.4277 -0.4206  0.2579
17894SOL    HW164901   4.384   4.218   1.750  0.1576  0.8523 -1.7637
17894SOL    HW264902   4.524   4.294   1.785  0.3131  0.3036 -1.1971
17895SOL     OW64903   4.176   8.595   6.303  0.5454 -0.5736  0.1026
17895SOL    HW164904   4.228   8.670   6.344  1.6392 -1.8711  1.1371
17895SOL    HW264905   4.115   8.555   6.372  0.5998 -1.1946 -0.2041
  10.00000  10.00000   8.18850
